<event>
 9    1  0.4321150E-036  0.1001314E+04  0.7818608E-02  0.8679788E-01
         -1   -1    0    0    0  501 -0.00000000000E+00  0.00000000000E+00  0.19970412442E+03  0.19970412442E+03  0.00000000000E+00 0. -1.
          1   -1    0    0  501    0  0.00000000000E+00 -0.00000000000E+00 -0.12551434639E+04  0.12551434639E+04  0.00000000000E+00 0. -1.
         36    2    1    2    0    0  0.28421709430E-13  0.71054273576E-14 -0.10554393395E+04  0.14548475883E+04  0.10013137899E+04 0.  0.
         25    2    3    3    0    0  0.14160258908E+03 -0.18490031896E+02 -0.20657364031E+03  0.28005139110E+03  0.12394732055E+03 0.  0.
         35    2    3    3    0    0 -0.14160258908E+03  0.18490031896E+02 -0.84886569915E+03  0.11747961972E+04  0.79948730774E+03 0.  0.
         22    1    5    5    0    0 -0.11531802253E+03  0.34016126007E+03 -0.12171570987E+03  0.37923955912E+03  0.00000000000E+00 0.  1.
         22    1    5    5    0    0 -0.26284566559E+02 -0.32167122818E+03 -0.72714998927E+03  0.79555663807E+03  0.00000000000E+00 0.  1.
          5    1    4    4  502    0  0.18172647155E+01 -0.25479195064E+02  0.48833282572E+01  0.26427802160E+02  0.47000000000E+01 0. -1.
         -5    1    4    4    0  502  0.13978532437E+03  0.69891631680E+01 -0.21145696856E+03  0.25362358894E+03  0.47000000000E+01 0. -1.
<mgrwt>
<rscale>  0 0.10013138E+04</rscale>
<asrwt>0</asrwt>
<pdfrwt beam="1">  1        1 0.19309900E+00 0.10013138E+04</pdfrwt>
<pdfrwt beam="2">  1       -1 0.30723711E-01 0.10013138E+04</pdfrwt>
<totfact> 0.10467249E+02</totfact>
</mgrwt>
</event>
<event>
 9    1  0.4321150E-036  0.9934792E+03  0.7818608E-02  0.8687273E-01
         -2   -1    0    0    0  501 -0.00000000000E+00  0.00000000000E+00  0.12842024365E+03  0.12842024365E+03  0.00000000000E+00 0.  1.
          2   -1    0    0  501    0  0.00000000000E+00 -0.00000000000E+00 -0.19214277012E+04  0.19214277012E+04  0.00000000000E+00 0.  1.
         36    2    1    2    0    0  0.00000000000E+00 -0.35527136788E-13 -0.17930074575E+04  0.20498479448E+04  0.99347916644E+03 0.  0.
         25    2    3    3    0    0  0.50123777364E+02  0.47015922776E+02 -0.57575302519E+03  0.59313293066E+03  0.12486888068E+03 0.  0.
         35    2    3    3    0    0 -0.50123777364E+02 -0.47015922776E+02 -0.12172544324E+04  0.14567150142E+04  0.79723734822E+03 0.  0.
         22    1    5    5    0    0 -0.12345286961E+03  0.27008956358E+03 -0.10491966563E+04  0.10904139613E+04  0.00000000000E+00 0.  1.
         22    1    5    5    0    0  0.73329092248E+02 -0.31710548636E+03 -0.16805777602E+03  0.36630105287E+03  0.00000000000E+00 0.  1.
          5    1    4    4  502    0 -0.12529550765E+02  0.36973189980E+02 -0.45451890858E+03  0.45621654362E+03  0.47000000000E+01 0. -1.
         -5    1    4    4    0  502  0.62653328130E+02  0.10042732796E+02 -0.12123411661E+03  0.13691638703E+03  0.47000000000E+01 0. -1.
<mgrwt>
<rscale>  0 0.99347917E+03</rscale>
<asrwt>0</asrwt>
<pdfrwt beam="1">  1        2 0.29560428E+00 0.99347917E+03</pdfrwt>
<pdfrwt beam="2">  1       -2 0.19756959E-01 0.99347917E+03</pdfrwt>
<totfact> 0.18975457E+02</totfact>
</mgrwt>
</event>
<event>
 9    1  0.4321150E-036  0.9999081E+03  0.7818608E-02  0.8681125E-01
          2   -1    0    0  501    0  0.00000000000E+00  0.00000000000E+00  0.25528921779E+04  0.25528921779E+04  0.00000000000E+00 0.  1.
         -2   -1    0    0    0  501 -0.00000000000E+00 -0.00000000000E+00 -0.97910156730E+02  0.97910156730E+02  0.00000000000E+00 0.  1.
         36    2    1    2    0    0  0.21316282073E-13  0.28421709430E-13  0.24549820211E+04  0.26508023346E+04  0.99990814228E+03 0.  0.
         25    2    3    3    0    0  0.60906711761E+02  0.95020446393E+02  0.24245329098E+03  0.29524123174E+03  0.12508106908E+03 0.  0.
         35    2    3    3    0    0 -0.60906711761E+02 -0.95020446393E+02  0.22125287302E+04  0.23555611029E+04  0.80040378233E+03 0.  0.
         22    1    5    5    0    0 -0.22580326827E+03 -0.21310237490E+03  0.29811043877E+03  0.43042952019E+03  0.00000000000E+00 0. -1.
         22    1    5    5    0    0  0.16489655651E+03  0.11808192851E+03  0.19144182914E+04  0.19251315827E+04  0.00000000000E+00 0. -1.
          5    1    4    4  502    0  0.46184825514E+02  0.70700972909E+02  0.25125787791E+03  0.26511181960E+03  0.47000000000E+01 0. -1.
         -5    1    4    4    0  502  0.14721886247E+02  0.24319473484E+02 -0.88045869274E+01  0.30129412144E+02  0.47000000000E+01 0. -1.
<mgrwt>
<rscale>  0 0.99990814E+03</rscale>
<asrwt>0</asrwt>
<pdfrwt beam="1">  1        2 0.39275259E+00 0.99990814E+03</pdfrwt>
<pdfrwt beam="2">  1       -2 0.15063103E-01 0.99990814E+03</pdfrwt>
<totfact> 0.12835911E+02</totfact>
</mgrwt>
</event>
<event>
 9    1  0.4321150E-036  0.1000417E+04  0.7818608E-02  0.8680641E-01
         -2   -1    0    0    0  501 -0.00000000000E+00  0.00000000000E+00  0.49232676024E+03  0.49232676024E+03  0.00000000000E+00 0. -1.
          2   -1    0    0  501    0  0.00000000000E+00 -0.00000000000E+00 -0.50821607303E+03  0.50821607303E+03  0.00000000000E+00 0. -1.
         36    2    1    2    0    0  0.14210854715E-13 -0.28421709430E-13 -0.15889312786E+02  0.10005428333E+04  0.10004166587E+04 0.  0.
         25    2    3    3    0    0  0.99608800139E+02 -0.92412659577E+02  0.36126463292E+02  0.18803811987E+03  0.12486472865E+03 0.  0.
         35    2    3    3    0    0 -0.99608800139E+02  0.92412659577E+02 -0.52015776078E+02  0.81250471339E+03  0.79937241359E+03 0.  0.
         22    1    5    5    0    0 -0.77419036707E+02 -0.26232147504E+03  0.23112472201E+03  0.35808504665E+03  0.00000000000E+00 0.  1.
         22    1    5    5    0    0 -0.22189763432E+02  0.35473413461E+03 -0.28314049809E+03  0.45441966674E+03  0.00000000000E+00 0.  1.
          5    1    4    4  502    0  0.29460263954E+01 -0.86175510671E+01 -0.38513690473E+02  0.39853928436E+02  0.47000000000E+01 0.  1.
         -5    1    4    4    0  502  0.96662773744E+02 -0.83795108510E+02  0.74640153765E+02  0.14818419144E+03  0.47000000000E+01 0.  1.
<mgrwt>
<rscale>  0 0.10004167E+04</rscale>
<asrwt>0</asrwt>
<pdfrwt beam="1">  1        2 0.78187089E-01 0.10004167E+04</pdfrwt>
<pdfrwt beam="2">  1       -2 0.75742578E-01 0.10004167E+04</pdfrwt>
<totfact> 0.11399527E+02</totfact>
</mgrwt>
</event>
<event>
 9    1  0.4321150E-036  0.9980125E+03  0.7818608E-02  0.8682933E-01
         -1   -1    0    0    0  501 -0.00000000000E+00  0.00000000000E+00  0.40235685647E+03  0.40235685647E+03  0.00000000000E+00 0. -1.
          1   -1    0    0  501    0  0.00000000000E+00 -0.00000000000E+00 -0.61887157786E+03  0.61887157786E+03  0.00000000000E+00 0. -1.
         36    2    1    2    0    0  0.00000000000E+00  0.00000000000E+00 -0.21651472139E+03  0.10212284343E+04  0.99801247012E+03 0.  0.
         25    2    3    3    0    0 -0.10884712589E+03  0.77024872857E+02 -0.87017788890E+02  0.20280532871E+03  0.12560803285E+03 0.  0.
         35    2    3    3    0    0  0.10884712589E+03 -0.77024872857E+02 -0.12949693250E+03  0.81842310562E+03  0.79703600698E+03 0.  0.
         22    1    5    5    0    0 -0.30964786856E+03  0.10863167507E+03 -0.14853010246E+03  0.36019971498E+03  0.00000000000E+00 0.  1.
         22    1    5    5    0    0  0.41849499445E+03 -0.18565654793E+03  0.19033169963E+02  0.45822339064E+03  0.00000000000E+00 0.  1.
          5    1    4    4  502    0 -0.16871307255E+02 -0.15944348243E+02  0.22118752236E+02  0.32406672922E+02  0.47000000000E+01 0.  1.
         -5    1    4    4    0  502 -0.91975818638E+02  0.92969221100E+02 -0.10913654113E+03  0.17039865579E+03  0.47000000000E+01 0.  1.
<mgrwt>
<rscale>  0 0.99801247E+03</rscale>
<asrwt>0</asrwt>
<pdfrwt beam="1">  1        1 0.95211012E-01 0.99801247E+03</pdfrwt>
<pdfrwt beam="2">  1       -1 0.61901055E-01 0.99801247E+03</pdfrwt>
<totfact> 0.10059734E+02</totfact>
</mgrwt>
</event>
<event>
 9    1  0.4321150E-036  0.9981394E+03  0.7818608E-02  0.8682812E-01
          3   -1    0    0  501    0  0.00000000000E+00  0.00000000000E+00  0.13348358115E+04  0.13348358115E+04  0.00000000000E+00 0.  1.
         -3   -1    0    0    0  501 -0.00000000000E+00 -0.00000000000E+00 -0.18659264191E+03  0.18659264191E+03  0.00000000000E+00 0.  1.
         36    2    1    2    0    0  0.00000000000E+00 -0.14210854715E-13  0.11482431696E+04  0.15214284534E+04  0.99813935017E+03 0.  0.
         25    2    3    3    0    0 -0.65252501243E+02 -0.10963619212E+03  0.29850004178E+03  0.34775212208E+03  0.12470477106E+03 0.  0.
         35    2    3    3    0    0  0.65252501243E+02  0.10963619212E+03  0.84974312781E+03  0.11736763313E+04  0.79948406110E+03 0.  0.
         22    1    5    5    0    0 -0.27767790178E+03  0.17760128214E+03  0.96811638499E+02  0.34353999171E+03  0.00000000000E+00 0. -1.
         22    1    5    5    0    0  0.34293040302E+03 -0.67965090024E+02  0.75293148931E+03  0.83013633963E+03  0.00000000000E+00 0. -1.
          5    1    4    4  502    0 -0.47201272679E+02 -0.13714067954E+03  0.24638620760E+03  0.28594366478E+03  0.47000000000E+01 0. -1.
         -5    1    4    4    0  502 -0.18051228564E+02  0.27504487424E+02  0.52113834179E+02  0.61808457301E+02  0.47000000000E+01 0. -1.
<mgrwt>
<rscale>  0 0.99813935E+03</rscale>
<asrwt>0</asrwt>
<pdfrwt beam="1">  1        3 0.20535935E+00 0.99813935E+03</pdfrwt>
<pdfrwt beam="2">  1       -3 0.28706561E-01 0.99813935E+03</pdfrwt>
<totfact> 0.64118322E+00</totfact>
</mgrwt>
</event>
<event>
 9    1  0.4321150E-036  0.1000193E+04  0.7818608E-02  0.8680855E-01
          2   -1    0    0  501    0  0.00000000000E+00  0.00000000000E+00  0.35174139517E+03  0.35174139517E+03  0.00000000000E+00 0.  1.
         -2   -1    0    0    0  501 -0.00000000000E+00 -0.00000000000E+00 -0.71102314865E+03  0.71102314865E+03  0.00000000000E+00 0.  1.
         36    2    1    2    0    0  0.00000000000E+00  0.00000000000E+00 -0.35928175349E+03  0.10627645438E+04  0.10001925301E+04 0.  0.
         25    2    3    3    0    0  0.91936155791E+02  0.10390703636E+03 -0.95333807068E+02  0.20887652894E+03  0.12366058639E+03 0.  0.
         35    2    3    3    0    0 -0.91936155791E+02 -0.10390703636E+03 -0.26394794642E+03  0.85388801488E+03  0.80012954863E+03 0.  0.
         22    1    5    5    0    0  0.12710311726E+03  0.18534669823E+03 -0.40615224894E+03  0.46418557741E+03  0.00000000000E+00 0. -1.
         22    1    5    5    0    0 -0.21903927305E+03 -0.28925373459E+03  0.14220430252E+03  0.38970243747E+03  0.00000000000E+00 0. -1.
          5    1    4    4  502    0  0.63647436030E+02  0.69666117955E+01  0.75443946754E+01  0.64641609541E+02  0.47000000000E+01 0.  1.
         -5    1    4    4    0  502  0.28288719761E+02  0.96940424560E+02 -0.10287820174E+03  0.14423491940E+03  0.47000000000E+01 0.  1.
<mgrwt>
<rscale>  0 0.10001925E+04</rscale>
<asrwt>0</asrwt>
<pdfrwt beam="1">  1        2 0.54114061E-01 0.10001925E+04</pdfrwt>
<pdfrwt beam="2">  1       -2 0.10938818E+00 0.10001925E+04</pdfrwt>
<totfact> 0.72162457E+01</totfact>
</mgrwt>
</event>
<event>
 9    1  0.4321150E-036  0.1000140E+04  0.7818608E-02  0.8680904E-01
          2   -1    0    0  501    0  0.00000000000E+00  0.00000000000E+00  0.22102471369E+04  0.22102471369E+04  0.00000000000E+00 0. -1.
         -2   -1    0    0    0  501 -0.00000000000E+00 -0.00000000000E+00 -0.11314126656E+03  0.11314126656E+03  0.00000000000E+00 0. -1.
         36    2    1    2    0    0  0.28421709430E-13  0.35527136788E-13  0.20971058703E+04  0.23233884034E+04  0.10001403111E+04 0.  0.
         25    2    3    3    0    0 -0.11765674334E+03  0.71810577628E+01  0.57442469938E+03  0.59934786317E+03  0.12393324408E+03 0.  0.
         35    2    3    3    0    0  0.11765674334E+03 -0.71810577628E+01  0.15226811709E+04  0.17240405403E+04  0.79991446998E+03 0.  0.
         22    1    5    5    0    0 -0.10432794670E+02  0.36853285608E+03  0.45917327573E+03  0.58886790230E+03  0.00000000000E+00 0.  1.
         22    1    5    5    0    0  0.12808953801E+03 -0.37571391384E+03  0.10635078952E+04  0.11351726380E+04  0.00000000000E+00 0.  1.
          5    1    4    4  502    0 -0.10085104235E+03  0.51737281928E+02  0.48315490214E+03  0.49629469929E+03  0.47000000000E+01 0.  1.
         -5    1    4    4    0  502 -0.16805700992E+02 -0.44556224166E+02  0.91269797240E+02  0.10305316388E+03  0.47000000000E+01 0.  1.
<mgrwt>
<rscale>  0 0.10001403E+04</rscale>
<asrwt>0</asrwt>
<pdfrwt beam="1">  1        2 0.34003799E+00 0.10001403E+04</pdfrwt>
<pdfrwt beam="2">  1       -2 0.17406350E-01 0.10001403E+04</pdfrwt>
<totfact> 0.16104181E+02</totfact>
</mgrwt>
</event>
<event>
 9    1  0.4321150E-036  0.1000283E+04  0.7818608E-02  0.8680768E-01
         -2   -1    0    0    0  501 -0.00000000000E+00  0.00000000000E+00  0.76763940763E+02  0.76763940763E+02  0.00000000000E+00 0. -1.
          2   -1    0    0  501    0  0.00000000000E+00 -0.00000000000E+00 -0.32585825521E+04  0.32585825521E+04  0.00000000000E+00 0. -1.
         36    2    1    2    0    0  0.14210854715E-13  0.00000000000E+00 -0.31818186113E+04  0.33353464929E+04  0.10002832359E+04 0.  0.
         25    2    3    3    0    0 -0.75937857934E+02 -0.70969718479E+02 -0.90558590040E+03  0.92032658290E+03  0.12693280498E+03 0.  0.
         35    2    3    3    0    0  0.75937857934E+02  0.70969718479E+02 -0.22762327109E+04  0.24150199099E+04  0.80017657549E+03 0.  0.
         22    1    5    5    0    0 -0.28297993829E+03  0.20507866145E+02 -0.17689492487E+04  0.17915578871E+04  0.00000000000E+00 0.  1.
         22    1    5    5    0    0  0.35891779623E+03  0.50461852334E+02 -0.50728346219E+03  0.62346202290E+03  0.00000000000E+00 0.  1.
          5    1    4    4  502    0  0.19395699454E+02 -0.65247149877E+02 -0.40006455958E+03  0.40584125660E+03  0.47000000000E+01 0.  1.
         -5    1    4    4    0  502 -0.95333557388E+02 -0.57225686020E+01 -0.50552134082E+03  0.51448532630E+03  0.47000000000E+01 0.  1.
<mgrwt>
<rscale>  0 0.10002832E+04</rscale>
<asrwt>0</asrwt>
<pdfrwt beam="1">  1        2 0.50132029E+00 0.10002832E+04</pdfrwt>
<pdfrwt beam="2">  1       -2 0.11809839E-01 0.10002832E+04</pdfrwt>
<totfact> 0.66071639E+01</totfact>
</mgrwt>
</event>
<event>
 9    1  0.4321150E-036  0.1012985E+04  0.7818608E-02  0.8668770E-01
          2   -1    0    0  501    0  0.00000000000E+00  0.00000000000E+00  0.14064214193E+04  0.14064214193E+04  0.00000000000E+00 0. -1.
         -2   -1    0    0    0  501 -0.00000000000E+00 -0.00000000000E+00 -0.18240223186E+03  0.18240223186E+03  0.00000000000E+00 0. -1.
         36    2    1    2    0    0  0.14210854715E-13 -0.14210854715E-13  0.12240191874E+04  0.15888236511E+04  0.10129845128E+04 0.  0.
         25    2    3    3    0    0 -0.68445777818E+02  0.10478845932E+03  0.38568534830E+03  0.42422900062E+03  0.12470609994E+03 0.  0.
         35    2    3    3    0    0  0.68445777818E+02 -0.10478845932E+03  0.83833383912E+03  0.11645946505E+04  0.79863109662E+03 0.  0.
         22    1    5    5    0    0  0.13012250857E+02 -0.55292508018E+01 -0.15959028643E+03  0.16021532639E+03  0.00000000000E+00 0. -1.
         22    1    5    5    0    0  0.55433526960E+02 -0.99259208523E+02  0.99792412554E+03  0.10043793241E+04  0.00000000000E+00 0. -1.
          5    1    4    4  502    0 -0.86023117197E+00  0.10617120693E+03  0.26991787261E+03  0.29008759562E+03  0.47000000000E+01 0. -1.
         -5    1    4    4    0  502 -0.67585546646E+02 -0.13827476080E+01  0.11576747569E+03  0.13414140500E+03  0.47000000000E+01 0. -1.
<mgrwt>
<rscale>  0 0.10129845E+04</rscale>
<asrwt>0</asrwt>
<pdfrwt beam="1">  1        2 0.21637252E+00 0.10129845E+04</pdfrwt>
<pdfrwt beam="2">  1       -2 0.28061883E-01 0.10129845E+04</pdfrwt>
<totfact> 0.19977430E+02</totfact>
</mgrwt>
</event>
<event>
 9    1  0.4321150E-036  0.1000110E+04  0.7818608E-02  0.8680933E-01
          1   -1    0    0  501    0  0.00000000000E+00  0.00000000000E+00  0.85630434080E+03  0.85630434080E+03  0.00000000000E+00 0. -1.
         -1   -1    0    0    0  501 -0.00000000000E+00 -0.00000000000E+00 -0.29201667413E+03  0.29201667413E+03  0.00000000000E+00 0. -1.
         36    2    1    2    0    0  0.00000000000E+00  0.00000000000E+00  0.56428766667E+03  0.11483210149E+04  0.10001102852E+04 0.  0.
         25    2    3    3    0    0  0.10323870919E+03  0.29660081200E+02  0.20680152604E+03  0.26488798486E+03  0.12593975487E+03 0.  0.
         35    2    3    3    0    0 -0.10323870919E+03 -0.29660081200E+02  0.35748614063E+03  0.88343303007E+03  0.80069946071E+03 0.  0.
         22    1    5    5    0    0 -0.41489279904E+03  0.83146074204E+01  0.99671846033E+01  0.41509578673E+03  0.00000000000E+00 0.  1.
         22    1    5    5    0    0  0.31165408985E+03 -0.37974688620E+02  0.34751895603E+03  0.46833724334E+03  0.00000000000E+00 0.  1.
          5    1    4    4  502    0  0.62087537068E+02  0.30366891692E+01  0.20644241188E+03  0.21564935233E+03  0.47000000000E+01 0.  1.
         -5    1    4    4    0  502  0.41151172121E+02  0.26623392030E+02  0.35911416648E+00  0.49238632527E+02  0.47000000000E+01 0.  1.
<mgrwt>
<rscale>  0 0.10001103E+04</rscale>
<asrwt>0</asrwt>
<pdfrwt beam="1">  1        1 0.13173913E+00 0.10001103E+04</pdfrwt>
<pdfrwt beam="2">  1       -1 0.44925643E-01 0.10001103E+04</pdfrwt>
<totfact> 0.11010689E+02</totfact>
</mgrwt>
</event>
<event>
 9    1  0.4321150E-036  0.1000254E+04  0.7818608E-02  0.8680796E-01
         -1   -1    0    0    0  501 -0.00000000000E+00  0.00000000000E+00  0.54356238411E+03  0.54356238411E+03  0.00000000000E+00 0.  1.
          1   -1    0    0  501    0  0.00000000000E+00 -0.00000000000E+00 -0.46016267468E+03  0.46016267468E+03  0.00000000000E+00 0.  1.
         36    2    1    2    0    0  0.00000000000E+00 -0.28421709430E-13  0.83399709433E+02  0.10037250588E+04  0.10002542087E+04 0.  0.
         25    2    3    3    0    0 -0.10569328313E+03  0.89644747918E+02  0.42925531127E+02  0.19127352645E+03  0.12464232737E+03 0.  0.
         35    2    3    3    0    0  0.10569328313E+03 -0.89644747918E+02  0.40474178306E+02  0.81245153234E+03  0.79951990742E+03 0.  0.
         22    1    5    5    0    0 -0.28277757763E+03 -0.23794916148E+03  0.12106744371E+03  0.38889624296E+03  0.00000000000E+00 0.  1.
         22    1    5    5    0    0  0.38847086075E+03  0.14830441357E+03 -0.80593265408E+02  0.42355528938E+03  0.00000000000E+00 0.  1.
          5    1    4    4  502    0 -0.30091338381E+02  0.95955216445E+02 -0.60451502014E+01  0.10085398381E+03  0.47000000000E+01 0.  1.
         -5    1    4    4    0  502 -0.75601944745E+02 -0.63104685276E+01  0.48970681328E+02  0.90419542644E+02  0.47000000000E+01 0.  1.
<mgrwt>
<rscale>  0 0.10002542E+04</rscale>
<asrwt>0</asrwt>
<pdfrwt beam="1">  1        1 0.70794257E-01 0.10002542E+04</pdfrwt>
<pdfrwt beam="2">  1       -1 0.83624983E-01 0.10002542E+04</pdfrwt>
<totfact> 0.83503557E+01</totfact>
</mgrwt>
</event>
<event>
 9    1  0.4321150E-036  0.1009215E+04  0.7818608E-02  0.8672312E-01
         -2   -1    0    0    0  501 -0.00000000000E+00  0.00000000000E+00  0.11154711202E+03  0.11154711202E+03  0.00000000000E+00 0.  1.
          2   -1    0    0  501    0  0.00000000000E+00 -0.00000000000E+00 -0.22826990611E+04  0.22826990611E+04  0.00000000000E+00 0.  1.
         36    2    1    2    0    0  0.00000000000E+00 -0.14210854715E-13 -0.21711519491E+04  0.23942461732E+04  0.10092145220E+04 0.  0.
         25    2    3    3    0    0  0.13881166852E+03  0.29889593479E+02 -0.52737990271E+03  0.56033461160E+03  0.12523277550E+03 0.  0.
         35    2    3    3    0    0 -0.13881166852E+03 -0.29889593479E+02 -0.16437720464E+04  0.18339115616E+04  0.80067659385E+03 0.  0.
         22    1    5    5    0    0 -0.41200780942E+03 -0.95012067336E+02 -0.49355638947E+03  0.64990432954E+03  0.00000000000E+00 0.  1.
         22    1    5    5    0    0  0.27319614091E+03  0.65122473857E+02 -0.11502156569E+04  0.11840072320E+04  0.00000000000E+00 0.  1.
          5    1    4    4  502    0  0.13650796247E+03  0.66251546566E+02 -0.44351336304E+03  0.46877487607E+03  0.47000000000E+01 0.  1.
         -5    1    4    4    0  502  0.23037060459E+01 -0.36361953087E+02 -0.83866539669E+02  0.91559735528E+02  0.47000000000E+01 0.  1.
<mgrwt>
<rscale>  0 0.10092145E+04</rscale>
<asrwt>0</asrwt>
<pdfrwt beam="1">  1        2 0.35118445E+00 0.10092145E+04</pdfrwt>
<pdfrwt beam="2">  1       -2 0.17161095E-01 0.10092145E+04</pdfrwt>
<totfact> 0.14961587E+02</totfact>
</mgrwt>
</event>
<event>
 9    1  0.4321150E-036  0.9998890E+03  0.7818608E-02  0.8681144E-01
          2   -1    0    0  501    0  0.00000000000E+00  0.00000000000E+00  0.80387967163E+03  0.80387967163E+03  0.00000000000E+00 0. -1.
         -2   -1    0    0    0  501 -0.00000000000E+00 -0.00000000000E+00 -0.31092277850E+03  0.31092277850E+03  0.00000000000E+00 0. -1.
         36    2    1    2    0    0  0.28421709430E-13 -0.20428103653E-13  0.49295689313E+03  0.11148024501E+04  0.99988899601E+03 0.  0.
         25    2    3    3    0    0 -0.10104495044E+03  0.65184612529E+01  0.18098609123E+03  0.24222083827E+03  0.12514949832E+03 0.  0.
         35    2    3    3    0    0  0.10104495044E+03 -0.65184612529E+01  0.31197080190E+03  0.87258161186E+03  0.80859156301E+03 0.  0.
         22    1    5    5    0    0 -0.78483078670E+02  0.34006351912E+03  0.33207678512E+03  0.48174451931E+03  0.00000000000E+00 0. -1.
         22    1    5    5    0    0  0.17952802911E+03 -0.34658198037E+03 -0.20105983224E+02  0.39083709255E+03  0.00000000000E+00 0. -1.
          5    1    4    4  502    0 -0.12878715395E+03  0.19889284569E+01  0.16555725456E+03  0.20981272935E+03  0.47000000000E+01 0. -1.
         -5    1    4    4    0  502  0.27742203513E+02  0.45295327961E+01  0.15428836665E+02  0.32408108923E+02  0.47000000000E+01 0. -1.
<mgrwt>
<rscale>  0 0.99988900E+03</rscale>
<asrwt>0</asrwt>
<pdfrwt beam="1">  1        2 0.12367380E+00 0.99988900E+03</pdfrwt>
<pdfrwt beam="2">  1       -2 0.47834274E-01 0.99988900E+03</pdfrwt>
<totfact> 0.17152716E+02</totfact>
</mgrwt>
</event>
<event>
 9    1  0.4321150E-036  0.9994014E+03  0.7818608E-02  0.8681608E-01
         -1   -1    0    0    0  501 -0.00000000000E+00  0.00000000000E+00  0.16039818557E+03  0.16039818557E+03  0.00000000000E+00 0.  1.
          1   -1    0    0  501    0  0.00000000000E+00 -0.00000000000E+00 -0.15567556038E+04  0.15567556038E+04  0.00000000000E+00 0.  1.
         36    2    1    2    0    0  0.00000000000E+00 -0.14210854715E-13 -0.13963574182E+04  0.17171537893E+04  0.99940136926E+03 0.  0.
         25    2    3    3    0    0  0.10427944686E+03  0.88274810766E+02 -0.23911185205E+03  0.30310912167E+03  0.12662549742E+03 0.  0.
         35    2    3    3    0    0 -0.10427944686E+03 -0.88274810766E+02 -0.11572455661E+04  0.14140446677E+04  0.80102333083E+03 0.  0.
         22    1    5    5    0    0  0.69521828067E+02  0.33728202452E+03 -0.39618345064E+03  0.52493216248E+03  0.00000000000E+00 0.  1.
         22    1    5    5    0    0 -0.17380127492E+03 -0.42555683529E+03 -0.76106211550E+03  0.88911250518E+03  0.00000000000E+00 0.  1.
          5    1    4    4  502    0 -0.81631155848E+01  0.59030739123E+02 -0.13247285078E+03  0.14533551118E+03  0.47000000000E+01 0.  1.
         -5    1    4    4    0  502  0.11244256244E+03  0.29244071642E+02 -0.10663900127E+03  0.15777361048E+03  0.47000000000E+01 0.  1.
<mgrwt>
<rscale>  0 0.99940137E+03</rscale>
<asrwt>0</asrwt>
<pdfrwt beam="1">  1        1 0.23950086E+00 0.99940137E+03</pdfrwt>
<pdfrwt beam="2">  1       -1 0.24676644E-01 0.99940137E+03</pdfrwt>
<totfact> 0.92055941E+01</totfact>
</mgrwt>
</event>
<event>
 9    1  0.4321150E-036  0.1002533E+04  0.7818608E-02  0.8678629E-01
         -2   -1    0    0    0  501 -0.00000000000E+00  0.00000000000E+00  0.25986716934E+03  0.25986716934E+03  0.00000000000E+00 0.  1.
          2   -1    0    0  501    0  0.00000000000E+00 -0.00000000000E+00 -0.96691018148E+03  0.96691018148E+03  0.00000000000E+00 0.  1.
         36    2    1    2    0    0 -0.28421709430E-13 -0.49737991503E-13 -0.70704301214E+03  0.12267773508E+04  0.10025332151E+04 0.  0.
         25    2    3    3    0    0 -0.13317144250E+03  0.22598997334E+02 -0.79169699677E+02  0.20011133532E+03  0.12462486669E+03 0.  0.
         35    2    3    3    0    0  0.13317144250E+03 -0.22598997334E+02 -0.62787331246E+03  0.10266660155E+04  0.80098243620E+03 0.  0.
         22    1    5    5    0    0  0.13464725425E+03  0.36716717456E+03 -0.17297627057E+03  0.42762414259E+03  0.00000000000E+00 0. -1.
         22    1    5    5    0    0 -0.14758117516E+01 -0.38976617189E+03 -0.45489704190E+03  0.59904187291E+03  0.00000000000E+00 0. -1.
          5    1    4    4  502    0  0.72467032217E+01 -0.26826382780E+02  0.56093645706E+01  0.28735422244E+02  0.47000000000E+01 0.  1.
         -5    1    4    4    0  502 -0.14041814572E+03  0.49425380114E+02 -0.84779064248E+02  0.17137591307E+03  0.47000000000E+01 0.  1.
<mgrwt>
<rscale>  0 0.10025332E+04</rscale>
<asrwt>0</asrwt>
<pdfrwt beam="1">  1        2 0.14875541E+00 0.10025332E+04</pdfrwt>
<pdfrwt beam="2">  1       -2 0.39979564E-01 0.10025332E+04</pdfrwt>
<totfact> 0.18947386E+02</totfact>
</mgrwt>
</event>
<event>
 9    1  0.4321150E-036  0.9998982E+03  0.7818608E-02  0.8681135E-01
          2   -1    0    0  501    0  0.00000000000E+00  0.00000000000E+00  0.31129343558E+04  0.31129343558E+04  0.00000000000E+00 0. -1.
         -2   -1    0    0    0  501 -0.00000000000E+00 -0.00000000000E+00 -0.80293730478E+02  0.80293730478E+02  0.00000000000E+00 0. -1.
         36    2    1    2    0    0 -0.14210854715E-13  0.00000000000E+00  0.30326406253E+04  0.31932280863E+04  0.99989821914E+03 0.  0.
         25    2    3    3    0    0 -0.91674647425E+02  0.79410773777E+02  0.34164179759E+03  0.38333498835E+03  0.12456437475E+03 0.  0.
         35    2    3    3    0    0  0.91674647425E+02 -0.79410773777E+02  0.26909988277E+04  0.28098930979E+04  0.79957127198E+03 0.  0.
         22    1    5    5    0    0 -0.31570428072E+03 -0.10639038460E+03  0.67223129039E+03  0.75025529960E+03  0.00000000000E+00 0.  1.
         22    1    5    5    0    0  0.40737892814E+03  0.26979610827E+02  0.20187675373E+04  0.20596377983E+04  0.00000000000E+00 0.  1.
          5    1    4    4  502    0 -0.90574982250E+02  0.10537381240E+03  0.32100617334E+03  0.34982069846E+03  0.47000000000E+01 0. -1.
         -5    1    4    4    0  502 -0.10996651755E+01 -0.25963038628E+02  0.20635624253E+02  0.33514289886E+02  0.47000000000E+01 0. -1.
<mgrwt>
<rscale>  0 0.99989822E+03</rscale>
<asrwt>0</asrwt>
<pdfrwt beam="1">  1        2 0.47891289E+00 0.99989822E+03</pdfrwt>
<pdfrwt beam="2">  1       -2 0.12352884E-01 0.99989822E+03</pdfrwt>
<totfact> 0.77515118E+01</totfact>
</mgrwt>
</event>
<event>
 9    1  0.4321150E-036  0.9996623E+03  0.7818608E-02  0.8681360E-01
          2   -1    0    0  501    0  0.00000000000E+00  0.00000000000E+00  0.28071991770E+03  0.28071991770E+03  0.00000000000E+00 0. -1.
         -2   -1    0    0    0  501 -0.00000000000E+00 -0.00000000000E+00 -0.88996606609E+03  0.88996606609E+03  0.00000000000E+00 0. -1.
         36    2    1    2    0    0  0.00000000000E+00  0.00000000000E+00 -0.60924614839E+03  0.11706859838E+04  0.99966234465E+03 0.  0.
         25    2    3    3    0    0  0.10583982239E+03  0.75711705471E+02 -0.17821958347E+03  0.25373158511E+03  0.12523245187E+03 0.  0.
         35    2    3    3    0    0 -0.10583982239E+03 -0.75711705471E+02 -0.43102656492E+03  0.91695439868E+03  0.79880356737E+03 0.  0.
         22    1    5    5    0    0  0.26255832478E+03  0.11284747596E+03 -0.41361126596E+03  0.50273820829E+03  0.00000000000E+00 0.  1.
         22    1    5    5    0    0 -0.36839814717E+03 -0.18855918143E+03 -0.17415298956E+02  0.41421619039E+03  0.00000000000E+00 0.  1.
          5    1    4    4  502    0 -0.11077311878E+02  0.25489827540E+02  0.69256966956E+01  0.29025737220E+02  0.47000000000E+01 0. -1.
         -5    1    4    4    0  502  0.11691713427E+03  0.50221877931E+02 -0.18514528016E+03  0.22470584789E+03  0.47000000000E+01 0. -1.
<mgrwt>
<rscale>  0 0.99966234E+03</rscale>
<asrwt>0</asrwt>
<pdfrwt beam="1">  1        2 0.43187681E-01 0.99966234E+03</pdfrwt>
<pdfrwt beam="2">  1       -2 0.13691785E+00 0.99966234E+03</pdfrwt>
<totfact> 0.51569680E+01</totfact>
</mgrwt>
</event>
<event>
 9    1  0.4321150E-036  0.9994537E+03  0.7818608E-02  0.8681558E-01
          2   -1    0    0  501    0  0.00000000000E+00  0.00000000000E+00  0.18029233319E+04  0.18029233319E+04  0.00000000000E+00 0.  1.
         -2   -1    0    0    0  501 -0.00000000000E+00 -0.00000000000E+00 -0.13851221441E+03  0.13851221441E+03  0.00000000000E+00 0.  1.
         36    2    1    2    0    0  0.35527136788E-13  0.14210854715E-13  0.16644111175E+04  0.19414355463E+04  0.99945365697E+03 0.  0.
         25    2    3    3    0    0 -0.60427154415E+02  0.27926288899E+02  0.55099105029E+03  0.56891125249E+03  0.12505021833E+03 0.  0.
         35    2    3    3    0    0  0.60427154415E+02 -0.27926288899E+02  0.11134200672E+04  0.13725242938E+04  0.79980458392E+03 0.  0.
         22    1    5    5    0    0  0.35915400539E+03  0.20864937831E+03  0.49561554890E+03  0.64665364374E+03  0.00000000000E+00 0.  1.
         22    1    5    5    0    0 -0.29872685097E+03 -0.23657566721E+03  0.61780451826E+03  0.72587065004E+03  0.00000000000E+00 0.  1.
          5    1    4    4  502    0 -0.57259020145E+02  0.61846299987E+02  0.50204067886E+03  0.50908790345E+03  0.47000000000E+01 0. -1.
         -5    1    4    4    0  502 -0.31681342698E+01 -0.33920011089E+02  0.48950371439E+02  0.59823349046E+02  0.47000000000E+01 0. -1.
<mgrwt>
<rscale>  0 0.99945366E+03</rscale>
<asrwt>0</asrwt>
<pdfrwt beam="1">  1        2 0.27737280E+00 0.99945366E+03</pdfrwt>
<pdfrwt beam="2">  1       -2 0.21309573E-01 0.99945366E+03</pdfrwt>
<totfact> 0.19417660E+02</totfact>
</mgrwt>
</event>
<event>
 9    1  0.4321150E-036  0.9995859E+03  0.7818608E-02  0.8681432E-01
         -1   -1    0    0    0  501 -0.00000000000E+00  0.00000000000E+00  0.66355713547E+03  0.66355713547E+03  0.00000000000E+00 0.  1.
          1   -1    0    0  501    0  0.00000000000E+00 -0.00000000000E+00 -0.37644533606E+03  0.37644533606E+03  0.00000000000E+00 0.  1.
         36    2    1    2    0    0  0.00000000000E+00  0.00000000000E+00  0.28711179941E+03  0.10400024715E+04  0.99958589198E+03 0.  0.
         25    2    3    3    0    0  0.84290502931E+02  0.11016046447E+03  0.42730809349E+02  0.19129869841E+03  0.12461562152E+03 0.  0.
         35    2    3    3    0    0 -0.84290502931E+02 -0.11016046447E+03  0.24438099006E+03  0.84870377313E+03  0.80083444569E+03 0.  0.
         22    1    5    5    0    0 -0.20375019365E+03  0.16961823017E+03 -0.18442165680E+03  0.32294865368E+03  0.00000000000E+00 0. -1.
         22    1    5    5    0    0  0.11945969072E+03 -0.27977869464E+03  0.42880264685E+03  0.52575511945E+03  0.00000000000E+00 0. -1.
          5    1    4    4  502    0  0.31924247202E+02 -0.24102289579E+02 -0.20112661846E+01  0.40326332762E+02  0.47000000000E+01 0.  1.
         -5    1    4    4    0  502  0.52366255729E+02  0.13426275405E+03  0.44742075534E+02  0.15097236564E+03  0.47000000000E+01 0.  1.
<mgrwt>
<rscale>  0 0.99958589E+03</rscale>
<asrwt>0</asrwt>
<pdfrwt beam="1">  1        1 0.57914667E-01 0.99958589E+03</pdfrwt>
<pdfrwt beam="2">  1       -1 0.10208571E+00 0.99958589E+03</pdfrwt>
<totfact> 0.70898953E+01</totfact>
</mgrwt>
</event>
<event>
 9    1  0.4321150E-036  0.9997395E+03  0.7818608E-02  0.8681286E-01
         -2   -1    0    0    0  501 -0.00000000000E+00  0.00000000000E+00  0.13586999131E+03  0.13586999131E+03  0.00000000000E+00 0. -1.
          2   -1    0    0  501    0  0.00000000000E+00 -0.00000000000E+00 -0.18390357237E+04  0.18390357237E+04  0.00000000000E+00 0. -1.
         36    2    1    2    0    0  0.00000000000E+00 -0.28421709430E-13 -0.17031657324E+04  0.19749057150E+04  0.99973950166E+03 0.  0.
         25    2    3    3    0    0 -0.39596925167E+02 -0.12915040507E+03 -0.40437011256E+03  0.44424900501E+03  0.12487692706E+03 0.  0.
         35    2    3    3    0    0  0.39596925167E+02  0.12915040507E+03 -0.12987956198E+04  0.15306567100E+04  0.79861890670E+03 0.  0.
         22    1    5    5    0    0 -0.17996898416E+02 -0.29274876013E+03 -0.90250211747E+03  0.94896564582E+03  0.00000000000E+00 0.  1.
         22    1    5    5    0    0  0.57593823582E+02  0.42189916521E+03 -0.39629350234E+03  0.58169106415E+03  0.00000000000E+00 0.  1.
          5    1    4    4  502    0 -0.77359649752E+02 -0.43877375033E+02 -0.16896994194E+03  0.19100437358E+03  0.47000000000E+01 0. -1.
         -5    1    4    4    0  502  0.37762724585E+02 -0.85273030040E+02 -0.23540017062E+03  0.25324463143E+03  0.47000000000E+01 0. -1.
<mgrwt>
<rscale>  0 0.99973950E+03</rscale>
<asrwt>0</asrwt>
<pdfrwt beam="1">  1        2 0.28292857E+00 0.99973950E+03</pdfrwt>
<pdfrwt beam="2">  1       -2 0.20903076E-01 0.99973950E+03</pdfrwt>
<totfact> 0.19158816E+02</totfact>
</mgrwt>
</event>
<event>
 9    1  0.4321150E-036  0.1000127E+04  0.7818608E-02  0.8680917E-01
         -2   -1    0    0    0  501 -0.00000000000E+00  0.00000000000E+00  0.11064083402E+03  0.11064083402E+03  0.00000000000E+00 0.  1.
          2   -1    0    0  501    0  0.00000000000E+00 -0.00000000000E+00 -0.22601394085E+04  0.22601394085E+04  0.00000000000E+00 0.  1.
         36    2    1    2    0    0 -0.14210854715E-13  0.00000000000E+00 -0.21494985745E+04  0.23707802425E+04  0.10001274102E+04 0.  0.
         25    2    3    3    0    0  0.63808059452E+02 -0.12230634168E+03 -0.45279947243E+03  0.48962799275E+03  0.12521141874E+03 0.  0.
         35    2    3    3    0    0 -0.63808059452E+02  0.12230634168E+03 -0.16966991020E+04  0.18811522498E+04  0.80057206687E+03 0.  0.
         22    1    5    5    0    0  0.35497779085E+03  0.74111703772E+01 -0.54655506793E+03  0.65175654943E+03  0.00000000000E+00 0.  1.
         22    1    5    5    0    0 -0.41878585030E+03  0.11489517130E+03 -0.11501440341E+04  0.12293957003E+04  0.00000000000E+00 0.  1.
          5    1    4    4  502    0  0.33945817141E+02  0.15312188880E+02 -0.47529691842E+02  0.60563547090E+02  0.47000000000E+01 0.  1.
         -5    1    4    4    0  502  0.29862242312E+02 -0.13761853056E+03 -0.40526978059E+03  0.42906444566E+03  0.47000000000E+01 0.  1.
<mgrwt>
<rscale>  0 0.10001274E+04</rscale>
<asrwt>0</asrwt>
<pdfrwt beam="1">  1        2 0.34771373E+00 0.10001274E+04</pdfrwt>
<pdfrwt beam="2">  1       -2 0.17021668E-01 0.10001274E+04</pdfrwt>
<totfact> 0.15642220E+02</totfact>
</mgrwt>
</event>
<event>
 9    1  0.4321150E-036  0.1000209E+04  0.7818608E-02  0.8680839E-01
          2   -1    0    0  501    0  0.00000000000E+00  0.00000000000E+00  0.36074105327E+03  0.36074105327E+03  0.00000000000E+00 0.  1.
         -2   -1    0    0    0  501 -0.00000000000E+00 -0.00000000000E+00 -0.69330785629E+03  0.69330785629E+03  0.00000000000E+00 0.  1.
         36    2    1    2    0    0 -0.42632564146E-13  0.00000000000E+00 -0.33256680302E+03  0.10540489096E+04  0.10002091908E+04 0.  0.
         25    2    3    3    0    0  0.11905755579E+03 -0.73791692477E+02 -0.75715468414E+02  0.20222680234E+03  0.12467129564E+03 0.  0.
         35    2    3    3    0    0 -0.11905755579E+03  0.73791692477E+02 -0.25685133460E+03  0.85182210723E+03  0.80000523673E+03 0.  0.
         22    1    5    5    0    0 -0.38477175071E+03  0.38417599711E+02 -0.39285517486E+03  0.55123534042E+03  0.00000000000E+00 0. -1.
         22    1    5    5    0    0  0.26571419492E+03  0.35374092766E+02  0.13600384025E+03  0.30058676681E+03  0.00000000000E+00 0. -1.
          5    1    4    4  502    0  0.10369216136E+03 -0.92157103608E+02 -0.18510783885E+02  0.14003476423E+03  0.47000000000E+01 0.  1.
         -5    1    4    4    0  502  0.15365394436E+02  0.18365411131E+02 -0.57204684529E+02  0.62192038110E+02  0.47000000000E+01 0.  1.
<mgrwt>
<rscale>  0 0.10002092E+04</rscale>
<asrwt>0</asrwt>
<pdfrwt beam="1">  1        2 0.55498625E-01 0.10002092E+04</pdfrwt>
<pdfrwt beam="2">  1       -2 0.10666275E+00 0.10002092E+04</pdfrwt>
<totfact> 0.74730975E+01</totfact>
</mgrwt>
</event>
<event>
 9    1  0.4321150E-036  0.9998215E+03  0.7818608E-02  0.8681208E-01
         -2   -1    0    0    0  501 -0.00000000000E+00  0.00000000000E+00  0.89509553420E+02  0.89509553420E+02  0.00000000000E+00 0.  1.
          2   -1    0    0  501    0  0.00000000000E+00 -0.00000000000E+00 -0.27920009811E+04  0.27920009811E+04  0.00000000000E+00 0.  1.
         36    2    1    2    0    0  0.28421709430E-13  0.28421709430E-13 -0.27024914277E+04  0.28815105345E+04  0.99982150601E+03 0.  0.
         25    2    3    3    0    0  0.99036205081E+02 -0.67407115991E+02 -0.30537233777E+03  0.35200442205E+03  0.12768304218E+03 0.  0.
         35    2    3    3    0    0 -0.99036205081E+02  0.67407115991E+02 -0.23971190899E+04  0.25295061125E+04  0.79866723524E+03 0.  0.
         22    1    5    5    0    0  0.19622490768E+03  0.32489078081E+03 -0.15560823991E+04  0.16017024276E+04  0.00000000000E+00 0.  1.
         22    1    5    5    0    0 -0.29526111276E+03 -0.25748366482E+03 -0.84103669086E+03  0.92780368491E+03  0.00000000000E+00 0.  1.
          5    1    4    4  502    0 -0.27678589496E+02 -0.27799518751E+02 -0.46360189122E+02  0.60912024221E+02  0.47000000000E+01 0.  1.
         -5    1    4    4    0  502  0.12671479458E+03 -0.39607597241E+02 -0.25901214865E+03  0.29109239782E+03  0.47000000000E+01 0.  1.
<mgrwt>
<rscale>  0 0.99982151E+03</rscale>
<asrwt>0</asrwt>
<pdfrwt beam="1">  1        2 0.42953863E+00 0.99982151E+03</pdfrwt>
<pdfrwt beam="2">  1       -2 0.13770700E-01 0.99982151E+03</pdfrwt>
<totfact> 0.10557531E+02</totfact>
</mgrwt>
</event>
<event>
 9    1  0.4321150E-036  0.1000058E+04  0.7818608E-02  0.8680983E-01
          2   -1    0    0  501    0  0.00000000000E+00  0.00000000000E+00  0.68939354541E+03  0.68939354541E+03  0.00000000000E+00 0.  1.
         -2   -1    0    0    0  501 -0.00000000000E+00 -0.00000000000E+00 -0.36267974706E+03  0.36267974706E+03  0.00000000000E+00 0.  1.
         36    2    1    2    0    0 -0.21316282073E-13 -0.28421709430E-13  0.32671379834E+03  0.10520732925E+04  0.10000581517E+04 0.  0.
         25    2    3    3    0    0  0.10328441058E+02  0.12536329014E+03  0.11004250626E+03  0.21588303919E+03  0.13665102347E+03 0.  0.
         35    2    3    3    0    0 -0.10328441058E+02 -0.12536329014E+03  0.21667129208E+03  0.83619025328E+03  0.79777506834E+03 0.  0.
         22    1    5    5    0    0 -0.34270047105E+03 -0.24515628900E+03  0.23491010752E+03  0.48241888179E+03  0.00000000000E+00 0. -1.
         22    1    5    5    0    0  0.33237202999E+03  0.11979299886E+03 -0.18238815440E+02  0.35377137149E+03  0.00000000000E+00 0. -1.
          5    1    4    4  502    0 -0.36849745655E+01  0.96973455787E+01 -0.30914732356E+02  0.32945837756E+02  0.47000000000E+01 0. -1.
         -5    1    4    4    0  502  0.14013415623E+02  0.11566594456E+03  0.14095723862E+03  0.18293720143E+03  0.47000000000E+01 0. -1.
<mgrwt>
<rscale>  0 0.10000582E+04</rscale>
<asrwt>0</asrwt>
<pdfrwt beam="1">  1        2 0.10606055E+00 0.10000582E+04</pdfrwt>
<pdfrwt beam="2">  1       -2 0.55796884E-01 0.10000582E+04</pdfrwt>
<totfact> 0.15252128E+02</totfact>
</mgrwt>
</event>
<event>
 9    1  0.4321150E-036  0.1000073E+04  0.7818608E-02  0.8680968E-01
          2   -1    0    0  501    0  0.00000000000E+00  0.00000000000E+00  0.35100777024E+03  0.35100777024E+03  0.00000000000E+00 0. -1.
         -2   -1    0    0    0  501 -0.00000000000E+00 -0.00000000000E+00 -0.71233892207E+03  0.71233892207E+03  0.00000000000E+00 0. -1.
         36    2    1    2    0    0  0.14210854715E-13  0.14210854715E-13 -0.36133115183E+03  0.10633466923E+04  0.10000729907E+04 0.  0.
         25    2    3    3    0    0 -0.71536475083E+02 -0.49626992391E+02 -0.18504312426E+03  0.24005443405E+03  0.12571741261E+03 0.  0.
         35    2    3    3    0    0  0.71536475083E+02  0.49626992391E+02 -0.17628802757E+03  0.82329225826E+03  0.79947005460E+03 0.  0.
         22    1    5    5    0    0 -0.97300635042E+02  0.99456255703E+02  0.29175798638E+03  0.32323626497E+03  0.00000000000E+00 0. -1.
         22    1    5    5    0    0  0.16883711012E+03 -0.49829263312E+02 -0.46804601395E+03  0.50005599328E+03  0.00000000000E+00 0. -1.
          5    1    4    4  502    0 -0.17299869538E+02 -0.40973095925E+02  0.22877015113E+01  0.44781733485E+02  0.47000000000E+01 0. -1.
         -5    1    4    4    0  502 -0.54236605544E+02 -0.86538964659E+01 -0.18733082577E+03  0.19527270057E+03  0.47000000000E+01 0. -1.
<mgrwt>
<rscale>  0 0.10000730E+04</rscale>
<asrwt>0</asrwt>
<pdfrwt beam="1">  1        2 0.54001196E-01 0.10000730E+04</pdfrwt>
<pdfrwt beam="2">  1       -2 0.10959060E+00 0.10000730E+04</pdfrwt>
<totfact> 0.71995647E+01</totfact>
</mgrwt>
</event>
<event>
 9    1  0.4321150E-036  0.9984115E+03  0.7818608E-02  0.8682552E-01
         -2   -1    0    0    0  501 -0.00000000000E+00  0.00000000000E+00  0.14617076897E+03  0.14617076897E+03  0.00000000000E+00 0. -1.
          2   -1    0    0  501    0  0.00000000000E+00 -0.00000000000E+00 -0.17048989277E+04  0.17048989277E+04  0.00000000000E+00 0. -1.
         36    2    1    2    0    0  0.00000000000E+00  0.14210854715E-13 -0.15587281587E+04  0.18510696967E+04  0.99841151290E+03 0.  0.
         25    2    3    3    0    0 -0.98981285002E+02 -0.85703615713E+02 -0.37752936758E+03  0.41850744752E+03  0.12440922680E+03 0.  0.
         35    2    3    3    0    0  0.98981285002E+02  0.85703615713E+02 -0.11811987912E+04  0.14325622492E+04  0.79991350092E+03 0.  0.
         22    1    5    5    0    0  0.44242049451E+03  0.26912328233E+02 -0.81072688608E+03  0.92397957293E+03  0.00000000000E+00 0. -1.
         22    1    5    5    0    0 -0.34343920951E+03  0.58791287480E+02 -0.37047190508E+03  0.50858267623E+03  0.00000000000E+00 0. -1.
          5    1    4    4  502    0 -0.94027524492E+02 -0.57729432005E+02 -0.13564797880E+03  0.17491805748E+03  0.47000000000E+01 0. -1.
         -5    1    4    4    0  502 -0.49537605105E+01 -0.27974183708E+02 -0.24188138878E+03  0.24358939004E+03  0.47000000000E+01 0. -1.
<mgrwt>
<rscale>  0 0.99841151E+03</rscale>
<asrwt>0</asrwt>
<pdfrwt beam="1">  1        2 0.26229214E+00 0.99841151E+03</pdfrwt>
<pdfrwt beam="2">  1       -2 0.22487811E-01 0.99841151E+03</pdfrwt>
<totfact> 0.20073001E+02</totfact>
</mgrwt>
</event>
<event>
 9    1  0.4321150E-036  0.1000367E+04  0.7818608E-02  0.8680688E-01
          2   -1    0    0  501    0  0.00000000000E+00  0.00000000000E+00  0.17526228339E+04  0.17526228339E+04  0.00000000000E+00 0.  1.
         -2   -1    0    0    0  501 -0.00000000000E+00 -0.00000000000E+00 -0.14274814260E+03  0.14274814260E+03  0.00000000000E+00 0.  1.
         36    2    1    2    0    0 -0.14210854715E-13  0.00000000000E+00  0.16098746913E+04  0.18953709765E+04  0.10003672410E+04 0.  0.
         25    2    3    3    0    0 -0.81410056126E+02  0.10428403889E+02  0.52557601126E+03  0.54651037992E+03  0.12532798132E+03 0.  0.
         35    2    3    3    0    0  0.81410056126E+02 -0.10428403889E+02  0.10842986800E+04  0.13488605965E+04  0.79811335823E+03 0.  0.
         22    1    5    5    0    0  0.10290105484E+03  0.23602329377E+03  0.10705650772E+04  0.11010927331E+04  0.00000000000E+00 0. -1.
         22    1    5    5    0    0 -0.21490998716E+02 -0.24645169766E+03  0.13733602761E+02  0.24776786343E+03  0.00000000000E+00 0. -1.
          5    1    4    4  502    0 -0.77054560929E+02  0.61025536611E+02  0.32667406282E+03  0.34117378973E+03  0.47000000000E+01 0. -1.
         -5    1    4    4    0  502 -0.43554951975E+01 -0.50597132722E+02  0.19890194844E+03  0.20533659019E+03  0.47000000000E+01 0. -1.
<mgrwt>
<rscale>  0 0.10003672E+04</rscale>
<asrwt>0</asrwt>
<pdfrwt beam="1">  1        2 0.26963427E+00 0.10003672E+04</pdfrwt>
<pdfrwt beam="2">  1       -2 0.21961254E-01 0.10003672E+04</pdfrwt>
<totfact> 0.19667360E+02</totfact>
</mgrwt>
</event>
<event>
 9    1  0.4321150E-036  0.9996983E+03  0.7818608E-02  0.8681325E-01
         -2   -1    0    0    0  501 -0.00000000000E+00  0.00000000000E+00  0.13992553402E+04  0.13992553402E+04  0.00000000000E+00 0.  1.
          2   -1    0    0  501    0  0.00000000000E+00 -0.00000000000E+00 -0.17855865879E+03  0.17855865879E+03  0.00000000000E+00 0.  1.
         36    2    1    2    0    0  0.00000000000E+00  0.14210854715E-13  0.12206966814E+04  0.15778139990E+04  0.99969826817E+03 0.  0.
         25    2    3    3    0    0  0.66436912208E+02 -0.10308252036E+03  0.11991810487E+03  0.21267907015E+03  0.12574643413E+03 0.  0.
         35    2    3    3    0    0 -0.66436912208E+02  0.10308252036E+03  0.11007785765E+04  0.13651349288E+04  0.79802257489E+03 0.  0.
         22    1    5    5    0    0  0.31053290227E+03  0.22181952122E+03  0.72740014077E+03  0.82142896721E+03  0.00000000000E+00 0.  1.
         22    1    5    5    0    0 -0.37696981448E+03 -0.11873700086E+03  0.37337843576E+03  0.54370596161E+03  0.00000000000E+00 0.  1.
          5    1    4    4  502    0 -0.28843595855E+02 -0.63387643745E+02  0.31053567540E+02  0.76396076198E+02  0.47000000000E+01 0. -1.
         -5    1    4    4    0  502  0.95280508063E+02 -0.39694876611E+02  0.88864537325E+02  0.13628299395E+03  0.47000000000E+01 0. -1.
<mgrwt>
<rscale>  0 0.99969827E+03</rscale>
<asrwt>0</asrwt>
<pdfrwt beam="1">  1        2 0.27470564E-01 0.99969827E+03</pdfrwt>
<pdfrwt beam="2">  1       -2 0.21527004E+00 0.99969827E+03</pdfrwt>
<totfact> 0.22536668E+01</totfact>
</mgrwt>
</event>
<event>
 9    1  0.4321150E-036  0.1000368E+04  0.7818608E-02  0.8680687E-01
         -2   -1    0    0    0  501 -0.00000000000E+00  0.00000000000E+00  0.13224937690E+03  0.13224937690E+03  0.00000000000E+00 0. -1.
          2   -1    0    0  501    0  0.00000000000E+00 -0.00000000000E+00 -0.18917615195E+04  0.18917615195E+04  0.00000000000E+00 0. -1.
         36    2    1    2    0    0 -0.14210854715E-13  0.00000000000E+00 -0.17595121426E+04  0.20240108964E+04  0.10003684965E+04 0.  0.
         25    2    3    3    0    0 -0.94381202827E+02  0.89046245705E+02 -0.42707781726E+03  0.46441610104E+03  0.12825680328E+03 0.  0.
         35    2    3    3    0    0  0.94381202827E+02 -0.89046245705E+02 -0.13324343254E+04  0.15595947954E+04  0.80007352730E+03 0.  0.
         22    1    5    5    0    0 -0.14147119456E+02 -0.41754757292E+03 -0.46179748219E+03  0.62273833285E+03  0.00000000000E+00 0.  1.
         22    1    5    5    0    0  0.10852832228E+03  0.32850132722E+03 -0.87063684318E+03  0.93685646255E+03  0.00000000000E+00 0.  1.
          5    1    4    4  502    0 -0.52291590863E+02  0.95812958324E+02 -0.39769168776E+03  0.41242611699E+03  0.47000000000E+01 0. -1.
         -5    1    4    4    0  502 -0.42089611965E+02 -0.67667126190E+01 -0.29386129501E+02  0.51989984055E+02  0.47000000000E+01 0. -1.
<mgrwt>
<rscale>  0 0.10003685E+04</rscale>
<asrwt>0</asrwt>
<pdfrwt beam="1">  1        2 0.29104024E+00 0.10003685E+04</pdfrwt>
<pdfrwt beam="2">  1       -2 0.20346058E-01 0.10003685E+04</pdfrwt>
<totfact> 0.18746427E+02</totfact>
</mgrwt>
</event>
<event>
 9    1  0.4321150E-036  0.1000430E+04  0.7818608E-02  0.8680628E-01
         -2   -1    0    0    0  501 -0.00000000000E+00  0.00000000000E+00  0.27318407728E+03  0.27318407728E+03  0.00000000000E+00 0. -1.
          2   -1    0    0  501    0  0.00000000000E+00 -0.00000000000E+00 -0.91592174405E+03  0.91592174405E+03  0.00000000000E+00 0. -1.
         36    2    1    2    0    0 -0.71054273576E-14  0.28421709430E-13 -0.64273766677E+03  0.11891058213E+04  0.10004303804E+04 0.  0.
         25    2    3    3    0    0 -0.78221332183E+01  0.18847933240E+02  0.50453781536E+02  0.13086919548E+03  0.11901567921E+03 0.  0.
         35    2    3    3    0    0  0.78221332183E+01 -0.18847933240E+02 -0.69319144831E+03  0.10582366259E+04  0.79933343601E+03 0.  0.
         22    1    5    5    0    0 -0.22337687041E+03 -0.28874059419E+03 -0.57989336428E+03  0.68523329670E+03  0.00000000000E+00 0. -1.
         22    1    5    5    0    0  0.23119900362E+03  0.26989266095E+03 -0.11329808403E+03  0.37300332915E+03  0.00000000000E+00 0. -1.
          5    1    4    4  502    0  0.40627715288E+02  0.38293880621E+02  0.54671319431E+02  0.78282026742E+02  0.47000000000E+01 0. -1.
         -5    1    4    4    0  502 -0.48449848506E+02 -0.19445947381E+02 -0.42175378948E+01  0.52587168736E+02  0.47000000000E+01 0. -1.
<mgrwt>
<rscale>  0 0.10004304E+04</rscale>
<asrwt>0</asrwt>
<pdfrwt beam="1">  1        2 0.14091104E+00 0.10004304E+04</pdfrwt>
<pdfrwt beam="2">  1       -2 0.42028319E-01 0.10004304E+04</pdfrwt>
<totfact> 0.18565590E+02</totfact>
</mgrwt>
</event>
<event>
 9    1  0.4321150E-036  0.9999127E+03  0.7818608E-02  0.8681121E-01
         -2   -1    0    0    0  501 -0.00000000000E+00  0.00000000000E+00  0.33493672038E+03  0.33493672038E+03  0.00000000000E+00 0.  1.
          2   -1    0    0  501    0  0.00000000000E+00 -0.00000000000E+00 -0.74627926394E+03  0.74627926394E+03  0.00000000000E+00 0.  1.
         36    2    1    2    0    0  0.71054273576E-14  0.42632564146E-13 -0.41134254356E+03  0.10812159843E+04  0.99991265449E+03 0.  0.
         25    2    3    3    0    0 -0.54676056915E+02 -0.81178251781E+02  0.29512661585E+02  0.16194150759E+03  0.12559727276E+03 0.  0.
         35    2    3    3    0    0  0.54676056915E+02  0.81178251781E+02 -0.44085520514E+03  0.91927447673E+03  0.80070773189E+03 0.  0.
         22    1    5    5    0    0 -0.52799491863E+02 -0.18373427236E+03 -0.57320325563E+03  0.60424170780E+03  0.00000000000E+00 0. -1.
         22    1    5    5    0    0  0.10747554878E+03  0.26491252414E+03  0.13234805049E+03  0.31503276893E+03  0.00000000000E+00 0. -1.
          5    1    4    4  502    0 -0.43454722207E+02 -0.35955682110E+02  0.76791996428E+02  0.95395097743E+02  0.47000000000E+01 0. -1.
         -5    1    4    4    0  502 -0.11221334708E+02 -0.45222569671E+02 -0.47279334843E+02  0.66546409847E+02  0.47000000000E+01 0. -1.
<mgrwt>
<rscale>  0 0.99991265E+03</rscale>
<asrwt>0</asrwt>
<pdfrwt beam="1">  1        2 0.11481219E+00 0.99991265E+03</pdfrwt>
<pdfrwt beam="2">  1       -2 0.51528726E-01 0.99991265E+03</pdfrwt>
<totfact> 0.16253349E+02</totfact>
</mgrwt>
</event>
<event>
 9    1  0.4321150E-036  0.9997981E+03  0.7818608E-02  0.8681230E-01
          2   -1    0    0  501    0  0.00000000000E+00  0.00000000000E+00  0.33058726856E+03  0.33058726856E+03  0.00000000000E+00 0.  1.
         -2   -1    0    0    0  501 -0.00000000000E+00 -0.00000000000E+00 -0.75592469946E+03  0.75592469946E+03  0.00000000000E+00 0.  1.
         36    2    1    2    0    0  0.28421709430E-13 -0.42632564146E-13 -0.42533743091E+03  0.10865119680E+04  0.99979814289E+03 0.  0.
         25    2    3    3    0    0 -0.13699606713E+03  0.78698071962E+01 -0.50022670562E+02  0.19200707891E+03  0.12463785343E+03 0.  0.
         35    2    3    3    0    0  0.13699606713E+03 -0.78698071962E+01 -0.37531476034E+03  0.89450488911E+03  0.80027993292E+03 0.  0.
         22    1    5    5    0    0  0.30546964429E+03 -0.28838931238E+03 -0.33682577224E+02  0.42144348979E+03  0.00000000000E+00 0. -1.
         22    1    5    5    0    0 -0.16847357715E+03  0.28051950518E+03 -0.34163218312E+03  0.47306139932E+03  0.00000000000E+00 0. -1.
          5    1    4    4  502    0 -0.12555512292E+03 -0.15173066848E+02 -0.81922538016E+02  0.15075709961E+03  0.47000000000E+01 0. -1.
         -5    1    4    4    0  502 -0.11440944215E+02  0.23042874044E+02  0.31899867454E+02  0.41249979301E+02  0.47000000000E+01 0. -1.
<mgrwt>
<rscale>  0 0.99979814E+03</rscale>
<asrwt>0</asrwt>
<pdfrwt beam="1">  1        2 0.50859580E-01 0.99979814E+03</pdfrwt>
<pdfrwt beam="2">  1       -2 0.11629611E+00 0.99979814E+03</pdfrwt>
<totfact> 0.66167032E+01</totfact>
</mgrwt>
</event>
<event>
 9    1  0.4321150E-036  0.1005701E+04  0.7818608E-02  0.8675628E-01
          2   -1    0    0  501    0  0.00000000000E+00  0.00000000000E+00  0.16601744949E+04  0.16601744949E+04  0.00000000000E+00 0. -1.
         -2   -1    0    0    0  501 -0.00000000000E+00 -0.00000000000E+00 -0.15230843502E+03  0.15230843502E+03  0.00000000000E+00 0. -1.
         36    2    1    2    0    0  0.00000000000E+00  0.00000000000E+00  0.15078660599E+04  0.18124829299E+04  0.10057009082E+04 0.  0.
         25    2    3    3    0    0 -0.10417309967E+03  0.66096350681E+02  0.14223301464E+03  0.22528349255E+03  0.12369987588E+03 0.  0.
         35    2    3    3    0    0  0.10417309967E+03 -0.66096350681E+02  0.13656330452E+04  0.15871994373E+04  0.79939206741E+03 0.  0.
         22    1    5    5    0    0  0.39338165463E+03  0.17661959016E+03  0.71675454769E+03  0.83646917902E+03  0.00000000000E+00 0. -1.
         22    1    5    5    0    0 -0.28920855496E+03 -0.24271594084E+03  0.64887849754E+03  0.75073025833E+03  0.00000000000E+00 0. -1.
          5    1    4    4  502    0 -0.10419931743E+03  0.90537235667E+02  0.14498521675E+03  0.20024308196E+03  0.47000000000E+01 0. -1.
         -5    1    4    4    0  502  0.26217759390E-01 -0.24440884986E+02 -0.27522021114E+01  0.25040410594E+02  0.47000000000E+01 0. -1.
<mgrwt>
<rscale>  0 0.10057009E+04</rscale>
<asrwt>0</asrwt>
<pdfrwt beam="1">  1        2 0.25541145E+00 0.10057009E+04</pdfrwt>
<pdfrwt beam="2">  1       -2 0.23432068E-01 0.10057009E+04</pdfrwt>
<totfact> 0.19789687E+02</totfact>
</mgrwt>
</event>
<event>
 9    1  0.4321150E-036  0.1001573E+04  0.7818608E-02  0.8679541E-01
         -1   -1    0    0    0  501 -0.00000000000E+00  0.00000000000E+00  0.17911857257E+03  0.17911857257E+03  0.00000000000E+00 0.  1.
          1   -1    0    0  501    0  0.00000000000E+00 -0.00000000000E+00 -0.14001191476E+04  0.14001191476E+04  0.00000000000E+00 0.  1.
         36    2    1    2    0    0  0.28421709430E-13  0.14210854715E-13 -0.12210005751E+04  0.15792377202E+04  0.10015734484E+04 0.  0.
         25    2    3    3    0    0 -0.33513283124E+02 -0.49136261972E+02 -0.43486566949E+03  0.45634242538E+03  0.12491095356E+03 0.  0.
         35    2    3    3    0    0  0.33513283124E+02  0.49136261972E+02 -0.78613490558E+03  0.11228952948E+04  0.79959254686E+03 0.  0.
         22    1    5    5    0    0 -0.33656087903E+03 -0.10280712960E+03 -0.17643197948E+03  0.39366327562E+03  0.00000000000E+00 0.  1.
         22    1    5    5    0    0  0.37007416216E+03  0.15194339157E+03 -0.60970292610E+03  0.72923201920E+03  0.00000000000E+00 0.  1.
          5    1    4    4  502    0  0.18804543382E+02 -0.71854623591E+02 -0.17357093889E+03  0.18885353746E+03  0.47000000000E+01 0.  1.
         -5    1    4    4    0  502 -0.52317826506E+02  0.22718361618E+02 -0.26129473060E+03  0.26748888792E+03  0.47000000000E+01 0.  1.
<mgrwt>
<rscale>  0 0.10015734E+04</rscale>
<asrwt>0</asrwt>
<pdfrwt beam="1">  1        1 0.21540294E+00 0.10015734E+04</pdfrwt>
<pdfrwt beam="2">  1       -1 0.27556704E-01 0.10015734E+04</pdfrwt>
<totfact> 0.98841842E+01</totfact>
</mgrwt>
</event>
<event>
 9    1  0.4321150E-036  0.1000652E+04  0.7818608E-02  0.8680417E-01
         -2   -1    0    0    0  501 -0.00000000000E+00  0.00000000000E+00  0.34539802279E+03  0.34539802279E+03  0.00000000000E+00 0.  1.
          2   -1    0    0  501    0  0.00000000000E+00 -0.00000000000E+00 -0.72474698021E+03  0.72474698021E+03  0.00000000000E+00 0.  1.
         36    2    1    2    0    0 -0.71054273576E-14  0.00000000000E+00 -0.37934895743E+03  0.10701450030E+04  0.10006521353E+04 0.  0.
         25    2    3    3    0    0  0.61360908286E+02 -0.89771298130E+02 -0.16531706378E+03  0.23414511324E+03  0.12518049146E+03 0.  0.
         35    2    3    3    0    0 -0.61360908286E+02  0.89771298130E+02 -0.21403189365E+03  0.83599988976E+03  0.80078843470E+03 0.  0.
         22    1    5    5    0    0 -0.98404465728E+02  0.30999751693E+03  0.18831980619E+03  0.37582741888E+03  0.00000000000E+00 0.  1.
         22    1    5    5    0    0  0.37043557442E+02 -0.22022621880E+03 -0.40235169984E+03  0.46017247088E+03  0.00000000000E+00 0.  1.
          5    1    4    4  502    0 -0.25952639604E+02  0.11132201008E+02 -0.12562814874E+02  0.31263072773E+02  0.47000000000E+01 0.  1.
         -5    1    4    4    0  502  0.87313547890E+02 -0.10090349914E+03 -0.15275424891E+03  0.20288204046E+03  0.47000000000E+01 0.  1.
<mgrwt>
<rscale>  0 0.10006521E+04</rscale>
<asrwt>0</asrwt>
<pdfrwt beam="1">  1        2 0.11149953E+00 0.10006521E+04</pdfrwt>
<pdfrwt beam="2">  1       -2 0.53138158E-01 0.10006521E+04</pdfrwt>
<totfact> 0.15842227E+02</totfact>
</mgrwt>
</event>
<event>
 9    1  0.4321150E-036  0.1000622E+04  0.7818608E-02  0.8680446E-01
          2   -1    0    0  501    0  0.00000000000E+00  0.00000000000E+00  0.95136909686E+03  0.95136909686E+03  0.00000000000E+00 0.  1.
         -2   -1    0    0    0  501 -0.00000000000E+00 -0.00000000000E+00 -0.26310636018E+03  0.26310636018E+03  0.00000000000E+00 0.  1.
         36    2    1    2    0    0  0.71054273576E-14  0.00000000000E+00  0.68826273668E+03  0.12144754570E+04  0.10006223269E+04 0.  0.
         25    2    3    3    0    0 -0.12500235588E+02  0.77719832752E+02 -0.13423325262E+02  0.14852749790E+03  0.12523419532E+03 0.  0.
         35    2    3    3    0    0  0.12500235588E+02 -0.77719832752E+02  0.70168606194E+03  0.10659479591E+04  0.79855187294E+03 0.  0.
         22    1    5    5    0    0 -0.10176453958E+03  0.11677495530E+03  0.80361865114E+03  0.81841025663E+03  0.00000000000E+00 0.  1.
         22    1    5    5    0    0  0.11426477517E+03 -0.19449478805E+03 -0.10193258920E+03  0.24753770251E+03  0.00000000000E+00 0.  1.
          5    1    4    4  502    0 -0.43627737766E+02  0.99162480835E+02 -0.18817745667E+02  0.11005805132E+03  0.47000000000E+01 0. -1.
         -5    1    4    4    0  502  0.31127502178E+02 -0.21442648084E+02  0.53944204050E+01  0.38469446580E+02  0.47000000000E+01 0. -1.
<mgrwt>
<rscale>  0 0.10006223E+04</rscale>
<asrwt>0</asrwt>
<pdfrwt beam="1">  1        2 0.14636447E+00 0.10006223E+04</pdfrwt>
<pdfrwt beam="2">  1       -2 0.40477902E-01 0.10006223E+04</pdfrwt>
<totfact> 0.18931609E+02</totfact>
</mgrwt>
</event>
<event>
 9    1  0.4321150E-036  0.9994882E+03  0.7818608E-02  0.8681525E-01
          1   -1    0    0  501    0  0.00000000000E+00  0.00000000000E+00  0.24403681744E+04  0.24403681744E+04  0.00000000000E+00 0. -1.
         -1   -1    0    0    0  501 -0.00000000000E+00 -0.00000000000E+00 -0.10233872503E+03  0.10233872503E+03  0.00000000000E+00 0. -1.
         36    2    1    2    0    0 -0.14210854715E-13  0.00000000000E+00  0.23380294493E+04  0.25427068994E+04  0.99948820419E+03 0.  0.
         25    2    3    3    0    0 -0.53175773083E+02  0.89277732970E+02  0.20309902448E+03  0.25962961226E+03  0.12393605356E+03 0.  0.
         35    2    3    3    0    0  0.53175773083E+02 -0.89277732970E+02  0.21349304249E+04  0.22830772871E+04  0.80231901612E+03 0.  0.
         22    1    5    5    0    0  0.52685688385E+02 -0.87618319965E+02  0.22078106110E+04  0.22101765644E+04  0.00000000000E+00 0.  1.
         22    1    5    5    0    0  0.49008469853E+00 -0.16594130047E+01 -0.72880186178E+02  0.72900722712E+02  0.00000000000E+00 0.  1.
          5    1    4    4  502    0  0.31416472047E+02 -0.51863221828E+01  0.62061459838E+02  0.69911425754E+02  0.47000000000E+01 0. -1.
         -5    1    4    4    0  502 -0.84592245130E+02  0.94464055153E+02  0.14103756464E+03  0.18971818651E+03  0.47000000000E+01 0. -1.
<mgrwt>
<rscale>  0 0.99948820E+03</rscale>
<asrwt>0</asrwt>
<pdfrwt beam="1">  1        1 0.37544121E+00 0.99948820E+03</pdfrwt>
<pdfrwt beam="2">  1       -1 0.15744421E-01 0.99948820E+03</pdfrwt>
<totfact> 0.46232097E+01</totfact>
</mgrwt>
</event>
<event>
 9    1  0.4321150E-036  0.1001641E+04  0.7818608E-02  0.8679477E-01
         -2   -1    0    0    0  501 -0.00000000000E+00  0.00000000000E+00  0.27570370829E+03  0.27570370829E+03  0.00000000000E+00 0. -1.
          2   -1    0    0  501    0  0.00000000000E+00 -0.00000000000E+00 -0.90974816692E+03  0.90974816692E+03  0.00000000000E+00 0. -1.
         36    2    1    2    0    0 -0.14210854715E-13 -0.14210854715E-13 -0.63404445863E+03  0.11854518752E+04  0.10016405408E+04 0.  0.
         25    2    3    3    0    0  0.10623408414E+03 -0.78961908201E+02 -0.62712842111E+02  0.19251093507E+03  0.12492756292E+03 0.  0.
         35    2    3    3    0    0 -0.10623408414E+03  0.78961908201E+02 -0.57133161652E+03  0.99294094014E+03  0.80124355285E+03 0.  0.
         22    1    5    5    0    0  0.20573262995E+03  0.25397256166E+03 -0.54343296195E+03  0.63415089785E+03  0.00000000000E+00 0. -1.
         22    1    5    5    0    0 -0.31196671408E+03 -0.17501065346E+03 -0.27898654569E+02  0.35879004229E+03  0.00000000000E+00 0. -1.
          5    1    4    4  502    0  0.97285103215E+02 -0.10982204479E+03 -0.37791545917E+02  0.15157692361E+03  0.47000000000E+01 0.  1.
         -5    1    4    4    0  502  0.89489809228E+01  0.30860136590E+02 -0.24921296194E+02  0.40934011456E+02  0.47000000000E+01 0.  1.
<mgrwt>
<rscale>  0 0.10016405E+04</rscale>
<asrwt>0</asrwt>
<pdfrwt beam="1">  1        2 0.13996126E+00 0.10016405E+04</pdfrwt>
<pdfrwt beam="2">  1       -2 0.42415954E-01 0.10016405E+04</pdfrwt>
<totfact> 0.18408989E+02</totfact>
</mgrwt>
</event>
<event>
 9    1  0.4321150E-036  0.9997408E+03  0.7818608E-02  0.8681285E-01
          2   -1    0    0  501    0  0.00000000000E+00  0.00000000000E+00  0.19128340108E+03  0.19128340108E+03  0.00000000000E+00 0.  1.
         -2   -1    0    0    0  501 -0.00000000000E+00 -0.00000000000E+00 -0.13062837891E+04  0.13062837891E+04  0.00000000000E+00 0.  1.
         36    2    1    2    0    0  0.14210854715E-13  0.14210854715E-13 -0.11150003881E+04  0.14975671902E+04  0.99974077831E+03 0.  0.
         25    2    3    3    0    0 -0.49906318305E+02  0.66280683785E+02 -0.38907499573E+02  0.15402836630E+03  0.12380296625E+03 0.  0.
         35    2    3    3    0    0  0.49906318305E+02 -0.66280683785E+02 -0.10760928885E+04  0.13435388239E+04  0.80014804696E+03 0.  0.
         22    1    5    5    0    0  0.21643843879E+03 -0.29077409464E+03 -0.98495420969E+03  0.10495379779E+04  0.00000000000E+00 0.  1.
         22    1    5    5    0    0 -0.16653212049E+03  0.22449341085E+03 -0.91138678784E+02  0.29400084599E+03  0.00000000000E+00 0.  1.
          5    1    4    4  502    0 -0.33445769446E+02 -0.33307157841E+02 -0.63134467477E+01  0.47853274361E+02  0.47000000000E+01 0. -1.
         -5    1    4    4    0  502 -0.16460548859E+02  0.99587841626E+02 -0.32594052825E+02  0.10617509194E+03  0.47000000000E+01 0. -1.
<mgrwt>
<rscale>  0 0.99974078E+03</rscale>
<asrwt>0</asrwt>
<pdfrwt beam="1">  1        2 0.29428217E-01 0.99974078E+03</pdfrwt>
<pdfrwt beam="2">  1       -2 0.20096673E+00 0.99974078E+03</pdfrwt>
<totfact> 0.25969532E+01</totfact>
</mgrwt>
</event>
<event>
 9    1  0.4321150E-036  0.1000029E+04  0.7818608E-02  0.8681010E-01
          2   -1    0    0  501    0  0.00000000000E+00  0.00000000000E+00  0.59866356974E+03  0.59866356974E+03  0.00000000000E+00 0. -1.
         -2   -1    0    0    0  501 -0.00000000000E+00 -0.00000000000E+00 -0.41762125062E+03  0.41762125062E+03  0.00000000000E+00 0. -1.
         36    2    1    2    0    0  0.00000000000E+00  0.00000000000E+00  0.18104231912E+03  0.10162848204E+04  0.10000292570E+04 0.  0.
         25    2    3    3    0    0  0.10375605719E+01 -0.12226540616E+03  0.10361981912E+03  0.20353217627E+03  0.12545267550E+03 0.  0.
         35    2    3    3    0    0 -0.10375605719E+01  0.12226540616E+03  0.77422500002E+02  0.81275264408E+03  0.79976415954E+03 0.  0.
         22    1    5    5    0    0 -0.65535234086E+02  0.37301597868E+03 -0.20414052548E+03  0.43024311894E+03  0.00000000000E+00 0.  1.
         22    1    5    5    0    0  0.64497673514E+02 -0.25075057252E+03  0.28156302548E+03  0.38250952514E+03  0.00000000000E+00 0.  1.
          5    1    4    4  502    0  0.50975330708E+02 -0.46479545479E+02  0.87022774791E+02  0.11114803561E+03  0.47000000000E+01 0. -1.
         -5    1    4    4    0  502 -0.49937770136E+02 -0.75785860677E+02  0.16597044325E+02  0.92384140657E+02  0.47000000000E+01 0. -1.
<mgrwt>
<rscale>  0 0.10000293E+04</rscale>
<asrwt>0</asrwt>
<pdfrwt beam="1">  1        2 0.92102088E-01 0.10000293E+04</pdfrwt>
<pdfrwt beam="2">  1       -2 0.64249423E-01 0.10000293E+04</pdfrwt>
<totfact> 0.13468246E+02</totfact>
</mgrwt>
</event>
<event>
 9    1  0.4321150E-036  0.1000710E+04  0.7818608E-02  0.8680362E-01
         -1   -1    0    0    0  501 -0.00000000000E+00  0.00000000000E+00  0.41234121107E+03  0.41234121107E+03  0.00000000000E+00 0. -1.
          1   -1    0    0  501    0  0.00000000000E+00 -0.00000000000E+00 -0.60715492429E+03  0.60715492429E+03  0.00000000000E+00 0. -1.
         36    2    1    2    0    0  0.14210854715E-13  0.00000000000E+00 -0.19481371322E+03  0.10194961354E+04  0.10007097417E+04 0.  0.
         25    2    3    3    0    0  0.11909089623E+03  0.66652125891E+02 -0.27908943476E+01  0.18504550550E+03  0.12493559366E+03 0.  0.
         35    2    3    3    0    0 -0.11909089623E+03 -0.66652125891E+02 -0.19202281888E+03  0.83445062986E+03  0.80050605448E+03 0.  0.
         22    1    5    5    0    0  0.10148082968E+03 -0.25648106200E+01  0.28633904228E+03  0.30380089562E+03  0.00000000000E+00 0. -1.
         22    1    5    5    0    0 -0.22057172591E+03 -0.64087315271E+02 -0.47836186115E+03  0.53064973425E+03  0.00000000000E+00 0. -1.
          5    1    4    4  502    0  0.83528722862E+02  0.97036253221E+02 -0.28801828082E+02  0.13131914287E+03  0.47000000000E+01 0. -1.
         -5    1    4    4    0  502  0.35562173370E+02 -0.30384127330E+02  0.26010933734E+02  0.53726362636E+02  0.47000000000E+01 0. -1.
<mgrwt>
<rscale>  0 0.10007097E+04</rscale>
<asrwt>0</asrwt>
<pdfrwt beam="1">  1        1 0.93408449E-01 0.10007097E+04</pdfrwt>
<pdfrwt beam="2">  1       -1 0.63437110E-01 0.10007097E+04</pdfrwt>
<totfact> 0.98650209E+01</totfact>
</mgrwt>
</event>
<event>
 9    1  0.4321150E-036  0.1000287E+04  0.7818608E-02  0.8680765E-01
          1   -1    0    0  501    0  0.00000000000E+00  0.00000000000E+00  0.82301718096E+03  0.82301718096E+03  0.00000000000E+00 0.  1.
         -1   -1    0    0    0  501 -0.00000000000E+00 -0.00000000000E+00 -0.30393452883E+03  0.30393452883E+03  0.00000000000E+00 0.  1.
         36    2    1    2    0    0 -0.71054273576E-14  0.00000000000E+00  0.51908265213E+03  0.11269517098E+04  0.10002866371E+04 0.  0.
         25    2    3    3    0    0 -0.26633143620E+02 -0.13655015234E+03  0.83280675627E+02  0.20547271474E+03  0.12620656530E+03 0.  0.
         35    2    3    3    0    0  0.26633143620E+02  0.13655015234E+03  0.43580197650E+03  0.92147899505E+03  0.79990306110E+03 0.  0.
         22    1    5    5    0    0  0.21815414765E+03  0.18185457428E+03 -0.13734962033E+03  0.31547937576E+03  0.00000000000E+00 0. -1.
         22    1    5    5    0    0 -0.19152100403E+03 -0.45304421937E+02  0.57315159683E+03  0.60599961929E+03  0.00000000000E+00 0. -1.
          5    1    4    4  502    0 -0.64560399409E+02 -0.10219082133E+03  0.17857652474E+02  0.12227835004E+03  0.47000000000E+01 0. -1.
         -5    1    4    4    0  502  0.37927255790E+02 -0.34359331007E+02  0.65423023152E+02  0.83194364697E+02  0.47000000000E+01 0. -1.
<mgrwt>
<rscale>  0 0.10002866E+04</rscale>
<asrwt>0</asrwt>
<pdfrwt beam="1">  1        1 0.12661803E+00 0.10002866E+04</pdfrwt>
<pdfrwt beam="2">  1       -1 0.46759159E-01 0.10002866E+04</pdfrwt>
<totfact> 0.10936220E+02</totfact>
</mgrwt>
</event>
<event>
 9    1  0.4321150E-036  0.9945208E+03  0.7818608E-02  0.8686273E-01
         -2   -1    0    0    0  501 -0.00000000000E+00  0.00000000000E+00  0.24029004586E+03  0.24029004586E+03  0.00000000000E+00 0.  1.
          2   -1    0    0  501    0  0.00000000000E+00 -0.00000000000E+00 -0.10290392433E+04  0.10290392433E+04  0.00000000000E+00 0.  1.
         36    2    1    2    0    0  0.42632564146E-13  0.00000000000E+00 -0.78874919747E+03  0.12693292892E+04  0.99452076292E+03 0.  0.
         25    2    3    3    0    0  0.10783317441E+02  0.83944108440E+02 -0.27613563641E+03  0.31429094088E+03  0.12395568784E+03 0.  0.
         35    2    3    3    0    0 -0.10783317441E+02 -0.83944108440E+02 -0.51261356106E+03  0.95503834830E+03  0.80135054157E+03 0.  0.
         22    1    5    5    0    0 -0.29863879330E+03 -0.12244113935E+03 -0.57370304284E+03  0.65826449306E+03  0.00000000000E+00 0.  1.
         22    1    5    5    0    0  0.28785547586E+03  0.38497030908E+02  0.61089481781E+02  0.29677385524E+03  0.00000000000E+00 0.  1.
          5    1    4    4  502    0  0.35883581355E+02  0.77970876115E+01 -0.20076313979E+03  0.20414787357E+03  0.47000000000E+01 0. -1.
         -5    1    4    4    0  502 -0.25100263914E+02  0.76147020829E+02 -0.75372496627E+02  0.11014306731E+03  0.47000000000E+01 0. -1.
<mgrwt>
<rscale>  0 0.99452076E+03</rscale>
<asrwt>0</asrwt>
<pdfrwt beam="1">  1        2 0.15831373E+00 0.99452076E+03</pdfrwt>
<pdfrwt beam="2">  1       -2 0.36967700E-01 0.99452076E+03</pdfrwt>
<totfact> 0.20096476E+02</totfact>
</mgrwt>
</event>
<event>
 9    1  0.4321150E-036  0.9995728E+03  0.7818608E-02  0.8681445E-01
         -1   -1    0    0    0  501 -0.00000000000E+00  0.00000000000E+00  0.22664372830E+03  0.22664372830E+03  0.00000000000E+00 0. -1.
          1   -1    0    0  501    0  0.00000000000E+00 -0.00000000000E+00 -0.11021105601E+04  0.11021105601E+04  0.00000000000E+00 0. -1.
         36    2    1    2    0    0  0.00000000000E+00  0.28421709430E-13 -0.87546683184E+03  0.13287542884E+04  0.99957280146E+03 0.  0.
         25    2    3    3    0    0 -0.16582735893E+02  0.14042907873E+03 -0.15407941030E+03  0.24236825474E+03  0.12250139976E+03 0.  0.
         35    2    3    3    0    0  0.16582735893E+02 -0.14042907873E+03 -0.72138742154E+03  0.10863860337E+04  0.79989967433E+03 0.  0.
         22    1    5    5    0    0  0.54358119747E+02 -0.22131335119E+03  0.10801469894E+03  0.25219353637E+03  0.00000000000E+00 0. -1.
         22    1    5    5    0    0 -0.37775383853E+02  0.80884272463E+02 -0.82940212048E+03  0.83419249734E+03  0.00000000000E+00 0. -1.
          5    1    4    4  502    0  0.32635167975E+02  0.12761197723E+03 -0.86474755210E+02  0.15763833357E+03  0.47000000000E+01 0.  1.
         -5    1    4    4    0  502 -0.49217903868E+02  0.12817101501E+02 -0.67604655086E+02  0.84729921169E+02  0.47000000000E+01 0.  1.
<mgrwt>
<rscale>  0 0.99957280E+03</rscale>
<asrwt>0</asrwt>
<pdfrwt beam="1">  1        1 0.16955547E+00 0.99957280E+03</pdfrwt>
<pdfrwt beam="2">  1       -1 0.34868266E-01 0.99957280E+03</pdfrwt>
<totfact> 0.10959500E+02</totfact>
</mgrwt>
</event>
<event>
 9    1  0.4321150E-036  0.1001651E+04  0.7818608E-02  0.8679468E-01
         -1   -1    0    0    0  501 -0.00000000000E+00  0.00000000000E+00  0.87335349109E+03  0.87335349109E+03  0.00000000000E+00 0. -1.
          1   -1    0    0  501    0  0.00000000000E+00 -0.00000000000E+00 -0.28719872137E+03  0.28719872137E+03  0.00000000000E+00 0. -1.
         36    2    1    2    0    0  0.00000000000E+00 -0.56843418861E-13  0.58615476972E+03  0.11605522125E+04  0.10016506496E+04 0.  0.
         25    2    3    3    0    0 -0.16310311523E+02 -0.71965478974E+02  0.25275570605E+03  0.29166316009E+03  0.12544678390E+03 0.  0.
         35    2    3    3    0    0  0.16310311523E+02  0.71965478974E+02  0.33339906367E+03  0.86888905236E+03  0.79897946984E+03 0.  0.
         22    1    5    5    0    0 -0.25501227409E+03 -0.26148048861E+03  0.95313044789E+02  0.37747567123E+03  0.00000000000E+00 0.  1.
         22    1    5    5    0    0  0.27132258561E+03  0.33344596759E+03  0.23808601889E+03  0.49141338113E+03  0.00000000000E+00 0.  1.
          5    1    4    4  502    0 -0.44935964318E+02 -0.72830977772E+02  0.24782321538E+03  0.26222514810E+03  0.47000000000E+01 0. -1.
         -5    1    4    4    0  502  0.28625652794E+02  0.86549879723E+00  0.49324906626E+01  0.29438011995E+02  0.47000000000E+01 0. -1.
<mgrwt>
<rscale>  0 0.10016506E+04</rscale>
<asrwt>0</asrwt>
<pdfrwt beam="1">  1        1 0.44184419E-01 0.10016506E+04</pdfrwt>
<pdfrwt beam="2">  1       -1 0.13436207E+00 0.10016506E+04</pdfrwt>
<totfact> 0.51661202E+01</totfact>
</mgrwt>
</event>
<event>
 9    1  0.4321150E-036  0.1000773E+04  0.7818608E-02  0.8680302E-01
          1   -1    0    0  501    0  0.00000000000E+00  0.00000000000E+00  0.53129810683E+03  0.53129810683E+03  0.00000000000E+00 0.  1.
         -1   -1    0    0    0  501 -0.00000000000E+00 -0.00000000000E+00 -0.47127313813E+03  0.47127313813E+03  0.00000000000E+00 0.  1.
         36    2    1    2    0    0 -0.35527136788E-14 -0.71054273576E-14  0.60024968702E+02  0.10025712450E+04  0.10007727536E+04 0.  0.
         25    2    3    3    0    0 -0.12547697380E+00 -0.18136785053E+02  0.14932405680E+03  0.19985698678E+03  0.13159096667E+03 0.  0.
         35    2    3    3    0    0  0.12547697380E+00  0.18136785053E+02 -0.89299088100E+02  0.80271425818E+03  0.79752548199E+03 0.  0.
         22    1    5    5    0    0  0.10164652097E+03  0.35783425322E+03 -0.21124282312E+03  0.42778604269E+03  0.00000000000E+00 0. -1.
         22    1    5    5    0    0 -0.10152104400E+03 -0.33969746817E+03  0.12194373502E+03  0.37492821548E+03  0.00000000000E+00 0. -1.
          5    1    4    4  502    0 -0.31016715194E+02  0.47672918885E+02  0.45312878789E+02  0.72870369840E+02  0.47000000000E+01 0.  1.
         -5    1    4    4    0  502  0.30891238220E+02 -0.65809703938E+02  0.10401117801E+03  0.12698661694E+03  0.47000000000E+01 0.  1.
<mgrwt>
<rscale>  0 0.10007728E+04</rscale>
<asrwt>0</asrwt>
<pdfrwt beam="1">  1        1 0.81738171E-01 0.10007728E+04</pdfrwt>
<pdfrwt beam="2">  1       -1 0.72503559E-01 0.10007728E+04</pdfrwt>
<totfact> 0.91843751E+01</totfact>
</mgrwt>
</event>
<event>
 9    1  0.4321150E-036  0.1000329E+04  0.7818608E-02  0.8680725E-01
          2   -1    0    0  501    0  0.00000000000E+00  0.00000000000E+00  0.73482346832E+03  0.73482346832E+03  0.00000000000E+00 0.  1.
         -2   -1    0    0    0  501 -0.00000000000E+00 -0.00000000000E+00 -0.34044160169E+03  0.34044160169E+03  0.00000000000E+00 0.  1.
         36    2    1    2    0    0  0.00000000000E+00 -0.17763568394E-13  0.39438186663E+03  0.10752650700E+04  0.10003289029E+04 0.  0.
         25    2    3    3    0    0 -0.80796808526E+02  0.28318661491E+02  0.19362666720E+03  0.24614980229E+03  0.12557216276E+03 0.  0.
         35    2    3    3    0    0  0.80796808526E+02 -0.28318661491E+02  0.20075519943E+03  0.82911526772E+03  0.79987461905E+03 0.  0.
         22    1    5    5    0    0  0.41965178246E+03  0.11605343225E+03  0.91366713395E+02  0.44488638322E+03  0.00000000000E+00 0. -1.
         22    1    5    5    0    0 -0.33885497393E+03 -0.14437209374E+03  0.10938848603E+03  0.38422888450E+03  0.00000000000E+00 0. -1.
          5    1    4    4  502    0  0.15337644037E+02  0.43368335141E+02  0.10382095786E+03  0.11365270392E+03  0.47000000000E+01 0.  1.
         -5    1    4    4    0  502 -0.96134452564E+02 -0.15049673650E+02  0.89805709342E+02  0.13249709837E+03  0.47000000000E+01 0.  1.
<mgrwt>
<rscale>  0 0.10003289E+04</rscale>
<asrwt>0</asrwt>
<pdfrwt beam="1">  1        2 0.11304976E+00 0.10003289E+04</pdfrwt>
<pdfrwt beam="2">  1       -2 0.52375631E-01 0.10003289E+04</pdfrwt>
<totfact> 0.16034802E+02</totfact>
</mgrwt>
</event>
<event>
 9    1  0.4321150E-036  0.9998403E+03  0.7818608E-02  0.8681190E-01
         -2   -1    0    0    0  501 -0.00000000000E+00  0.00000000000E+00  0.25926293897E+03  0.25926293897E+03  0.00000000000E+00 0. -1.
          2   -1    0    0  501    0  0.00000000000E+00 -0.00000000000E+00 -0.96396400450E+03  0.96396400450E+03  0.00000000000E+00 0. -1.
         36    2    1    2    0    0  0.00000000000E+00  0.00000000000E+00 -0.70470106553E+03  0.12232269435E+04  0.99984026897E+03 0.  0.
         25    2    3    3    0    0 -0.53062408296E+02  0.12897839433E+03 -0.15755561460E+03  0.24618520499E+03  0.12779803632E+03 0.  0.
         35    2    3    3    0    0  0.53062408296E+02 -0.12897839433E+03 -0.54714545093E+03  0.97704173847E+03  0.79736526690E+03 0.  0.
         22    1    5    5    0    0  0.38192195267E+03 -0.22755639506E+03 -0.19571361148E+03  0.48574695941E+03  0.00000000000E+00 0.  1.
         22    1    5    5    0    0 -0.32885954437E+03  0.98578000725E+02 -0.35143183945E+03  0.49129477906E+03  0.00000000000E+00 0.  1.
          5    1    4    4  502    0 -0.59690027744E+01 -0.25613189868E+02 -0.30604128187E+02  0.40624711093E+02  0.47000000000E+01 0.  1.
         -5    1    4    4    0  502 -0.47093405521E+02  0.15459158420E+03 -0.12695148641E+03  0.20556049390E+03  0.47000000000E+01 0.  1.
<mgrwt>
<rscale>  0 0.99984027E+03</rscale>
<asrwt>0</asrwt>
<pdfrwt beam="1">  1        2 0.14830216E+00 0.99984027E+03</pdfrwt>
<pdfrwt beam="2">  1       -2 0.39886606E-01 0.99984027E+03</pdfrwt>
<totfact> 0.19115023E+02</totfact>
</mgrwt>
</event>
<event>
 9    1  0.4321150E-036  0.1000108E+04  0.7818608E-02  0.8680935E-01
          1   -1    0    0  501    0  0.00000000000E+00  0.00000000000E+00  0.47497324488E+03  0.47497324488E+03  0.00000000000E+00 0. -1.
         -1   -1    0    0    0  501 -0.00000000000E+00 -0.00000000000E+00 -0.52645884728E+03  0.52645884728E+03  0.00000000000E+00 0. -1.
         36    2    1    2    0    0  0.21316282073E-13  0.00000000000E+00 -0.51485602400E+02  0.10014320922E+04  0.10001077282E+04 0.  0.
         25    2    3    3    0    0 -0.23153182261E+02 -0.37802986398E+02  0.12393583282E+03  0.18143351214E+03  0.12487150611E+03 0.  0.
         35    2    3    3    0    0  0.23153182261E+02  0.37802986398E+02 -0.17542143522E+03  0.81999858002E+03  0.79978738154E+03 0.  0.
         22    1    5    5    0    0 -0.22909604879E+03  0.38761170889E+02 -0.41274791706E+03  0.47365416811E+03  0.00000000000E+00 0. -1.
         22    1    5    5    0    0  0.25224923105E+03 -0.95818449109E+00  0.23732648183E+03  0.34634441191E+03  0.00000000000E+00 0. -1.
          5    1    4    4  502    0 -0.42447165287E+02 -0.58840691331E+02  0.22732426311E+02  0.76176387439E+02  0.47000000000E+01 0. -1.
         -5    1    4    4    0  502  0.19293983026E+02  0.21037704933E+02  0.10120340651E+03  0.10525712470E+03  0.47000000000E+01 0. -1.
<mgrwt>
<rscale>  0 0.10001077E+04</rscale>
<asrwt>0</asrwt>
<pdfrwt beam="1">  1        1 0.73072807E-01 0.10001077E+04</pdfrwt>
<pdfrwt beam="2">  1       -1 0.80993668E-01 0.10001077E+04</pdfrwt>
<totfact> 0.85546529E+01</totfact>
</mgrwt>
</event>
<event>
 9    1  0.4321150E-036  0.9998517E+03  0.7818608E-02  0.8681179E-01
          2   -1    0    0  501    0  0.00000000000E+00  0.00000000000E+00  0.22016476078E+04  0.22016476078E+04  0.00000000000E+00 0. -1.
         -2   -1    0    0    0  501 -0.00000000000E+00 -0.00000000000E+00 -0.11351765774E+03  0.11351765774E+03  0.00000000000E+00 0. -1.
         36    2    1    2    0    0 -0.42632564146E-13  0.14210854715E-13  0.20881299500E+04  0.23151652655E+04  0.99985174824E+03 0.  0.
         25    2    3    3    0    0  0.74719974041E+02  0.85560325275E+02  0.21266422814E+03  0.27309084813E+03  0.12825324019E+03 0.  0.
         35    2    3    3    0    0 -0.74719974041E+02 -0.85560325275E+02  0.18754657219E+04  0.20420744174E+04  0.79987036974E+03 0.  0.
         22    1    5    5    0    0  0.15379865008E+03 -0.36916341863E+03  0.64576608223E+03  0.75957191060E+03  0.00000000000E+00 0.  1.
         22    1    5    5    0    0 -0.22851862412E+03  0.28360309335E+03  0.12296996397E+04  0.12825025068E+04  0.00000000000E+00 0.  1.
          5    1    4    4  502    0  0.99544162474E+02  0.54937171788E+02  0.92843338288E+02  0.14686425226E+03  0.47000000000E+01 0.  1.
         -5    1    4    4    0  502 -0.24824188432E+02  0.30623153487E+02  0.11982088985E+03  0.12622659587E+03  0.47000000000E+01 0.  1.
<mgrwt>
<rscale>  0 0.99985175E+03</rscale>
<asrwt>0</asrwt>
<pdfrwt beam="1">  1        2 0.33871498E+00 0.99985175E+03</pdfrwt>
<pdfrwt beam="2">  1       -2 0.17464257E-01 0.99985175E+03</pdfrwt>
<totfact> 0.16198821E+02</totfact>
</mgrwt>
</event>
<event>
 9    1  0.4321150E-036  0.1000037E+04  0.7818608E-02  0.8681002E-01
         -2   -1    0    0    0  501 -0.00000000000E+00  0.00000000000E+00  0.19696563291E+03  0.19696563291E+03  0.00000000000E+00 0.  1.
          2   -1    0    0  501    0  0.00000000000E+00 -0.00000000000E+00 -0.12693518576E+04  0.12693518576E+04  0.00000000000E+00 0.  1.
         36    2    1    2    0    0  0.00000000000E+00  0.28421709430E-13 -0.10723862247E+04  0.14663174905E+04  0.10000373833E+04 0.  0.
         25    2    3    3    0    0  0.10058793886E+03 -0.49337899887E+02 -0.79823374933E+02  0.18592005595E+03  0.12506931762E+03 0.  0.
         35    2    3    3    0    0 -0.10058793886E+03  0.49337899887E+02 -0.99256284979E+03  0.12803974346E+04  0.80105206941E+03 0.  0.
         22    1    5    5    0    0 -0.21413431185E+03 -0.33353381288E+03 -0.60939303517E+03  0.72695129078E+03  0.00000000000E+00 0.  1.
         22    1    5    5    0    0  0.11354637300E+03  0.38287171277E+03 -0.38316981463E+03  0.55344614381E+03  0.00000000000E+00 0.  1.
          5    1    4    4  502    0  0.93135488311E+02 -0.64864296227E+02 -0.10524559720E+03  0.15485580983E+03  0.47000000000E+01 0. -1.
         -5    1    4    4    0  502  0.74524505467E+01  0.15526396340E+02  0.25422222263E+02  0.31064246124E+02  0.47000000000E+01 0. -1.
<mgrwt>
<rscale>  0 0.10000374E+04</rscale>
<asrwt>0</asrwt>
<pdfrwt beam="1">  1        2 0.19528490E+00 0.10000374E+04</pdfrwt>
<pdfrwt beam="2">  1       -2 0.30302405E-01 0.10000374E+04</pdfrwt>
<totfact> 0.20847650E+02</totfact>
</mgrwt>
</event>
<event>
 9    1  0.4321150E-036  0.9999738E+03  0.7818608E-02  0.8681063E-01
          2   -1    0    0  501    0  0.00000000000E+00  0.00000000000E+00  0.21165111530E+03  0.21165111530E+03  0.00000000000E+00 0. -1.
         -2   -1    0    0    0  501 -0.00000000000E+00 -0.00000000000E+00 -0.11811272168E+04  0.11811272168E+04  0.00000000000E+00 0. -1.
         36    2    1    2    0    0 -0.42632564146E-13 -0.71054273576E-14 -0.96947610155E+03  0.13927783321E+04  0.99997378516E+03 0.  0.
         25    2    3    3    0    0 -0.10146419831E+03 -0.17162129825E+02 -0.30983091787E+03  0.34980902729E+03  0.12562498024E+03 0.  0.
         35    2    3    3    0    0  0.10146419831E+03  0.17162129825E+02 -0.65964518367E+03  0.10429693049E+04  0.80128876211E+03 0.  0.
         22    1    5    5    0    0 -0.15691435204E+03  0.34379450385E+03 -0.21955902198E+03  0.43706171062E+03  0.00000000000E+00 0. -1.
         22    1    5    5    0    0  0.25837855035E+03 -0.32663237402E+03 -0.44008616169E+03  0.60590759424E+03  0.00000000000E+00 0. -1.
          5    1    4    4  502    0 -0.10968856679E+03 -0.40326687915E+02 -0.30156582613E+03  0.32345302740E+03  0.47000000000E+01 0.  1.
         -5    1    4    4    0  502  0.82243684817E+01  0.23164558090E+02 -0.82650917412E+01  0.26355999884E+02  0.47000000000E+01 0.  1.
<mgrwt>
<rscale>  0 0.99997379E+03</rscale>
<asrwt>0</asrwt>
<pdfrwt beam="1">  1        2 0.32561710E-01 0.99997379E+03</pdfrwt>
<pdfrwt beam="2">  1       -2 0.18171188E+00 0.99997379E+03</pdfrwt>
<totfact> 0.31571526E+01</totfact>
</mgrwt>
</event>
<event>
 9    1  0.4321150E-036  0.1002153E+04  0.7818608E-02  0.8678991E-01
         -1   -1    0    0    0  501 -0.00000000000E+00  0.00000000000E+00  0.74451414502E+03  0.74451414502E+03  0.00000000000E+00 0. -1.
          1   -1    0    0  501    0  0.00000000000E+00 -0.00000000000E+00 -0.33723669062E+03  0.33723669062E+03  0.00000000000E+00 0. -1.
         36    2    1    2    0    0 -0.21316282073E-13  0.00000000000E+00  0.40727745440E+03  0.10817508356E+04  0.10021526558E+04 0.  0.
         25    2    3    3    0    0  0.60484529152E+02  0.69632984964E+02 -0.40395381878E+02  0.16065222112E+03  0.12518074297E+03 0.  0.
         35    2    3    3    0    0 -0.60484529152E+02 -0.69632984964E+02  0.44767283628E+03  0.92109861452E+03  0.79969028909E+03 0.  0.
         22    1    5    5    0    0  0.21074920450E+03  0.21030624481E+03 -0.36013195064E+02  0.29990147386E+03  0.00000000000E+00 0.  1.
         22    1    5    5    0    0 -0.27123373366E+03 -0.27993922978E+03  0.48368603134E+03  0.62119714066E+03  0.00000000000E+00 0.  1.
          5    1    4    4  502    0  0.44485663405E+02  0.29767330509E+02 -0.83708077237E+02  0.99469595399E+02  0.47000000000E+01 0.  1.
         -5    1    4    4    0  502  0.15998865747E+02  0.39865654455E+02  0.43312695358E+02  0.61182625717E+02  0.47000000000E+01 0.  1.
<mgrwt>
<rscale>  0 0.10021527E+04</rscale>
<asrwt>0</asrwt>
<pdfrwt beam="1">  1        1 0.51882568E-01 0.10021527E+04</pdfrwt>
<pdfrwt beam="2">  1       -1 0.11454064E+00 0.10021527E+04</pdfrwt>
<totfact> 0.62688779E+01</totfact>
</mgrwt>
</event>
<event>
 9    1  0.4321150E-036  0.9998266E+03  0.7818608E-02  0.8681203E-01
          1   -1    0    0  501    0  0.00000000000E+00  0.00000000000E+00  0.26831910304E+03  0.26831910304E+03  0.00000000000E+00 0.  1.
         -1   -1    0    0    0  501 -0.00000000000E+00 -0.00000000000E+00 -0.93140334628E+03  0.93140334628E+03  0.00000000000E+00 0.  1.
         36    2    1    2    0    0 -0.28421709430E-13  0.28421709430E-13 -0.66308424324E+03  0.11997224493E+04  0.99982660586E+03 0.  0.
         25    2    3    3    0    0  0.83047869751E+02  0.82754976390E+02 -0.21133204279E+03  0.27327820083E+03  0.12757118779E+03 0.  0.
         35    2    3    3    0    0 -0.83047869751E+02 -0.82754976390E+02 -0.45175220045E+03  0.92644424849E+03  0.80029592037E+03 0.  0.
         22    1    5    5    0    0  0.56956590769E+02  0.26807099650E+03  0.69488090509E+02  0.28272726632E+03  0.00000000000E+00 0. -1.
         22    1    5    5    0    0 -0.14000446052E+03 -0.35082597289E+03 -0.52124029096E+03  0.64371698217E+03  0.00000000000E+00 0. -1.
          5    1    4    4  502    0  0.46360092687E+02  0.74016872032E+02 -0.37197998928E+02  0.95044919189E+02  0.47000000000E+01 0. -1.
         -5    1    4    4    0  502  0.36687777063E+02  0.87381043575E+01 -0.17413404386E+03  0.17823328164E+03  0.47000000000E+01 0. -1.
<mgrwt>
<rscale>  0 0.99982661E+03</rscale>
<asrwt>0</asrwt>
<pdfrwt beam="1">  1        1 0.41279862E-01 0.99982661E+03</pdfrwt>
<pdfrwt beam="2">  1       -1 0.14329282E+00 0.99982661E+03</pdfrwt>
<totfact> 0.47357502E+01</totfact>
</mgrwt>
</event>
<event>
 9    1  0.4321150E-036  0.9988063E+03  0.7818608E-02  0.8682176E-01
         -2   -1    0    0    0  501 -0.00000000000E+00  0.00000000000E+00  0.22055118612E+03  0.22055118612E+03  0.00000000000E+00 0. -1.
          2   -1    0    0  501    0  0.00000000000E+00 -0.00000000000E+00 -0.11308190910E+04  0.11308190910E+04  0.00000000000E+00 0. -1.
         36    2    1    2    0    0 -0.71054273576E-14  0.00000000000E+00 -0.91026790486E+03  0.13513702771E+04  0.99880627111E+03 0.  0.
         25    2    3    3    0    0 -0.32104386434E+02  0.10009976874E+03 -0.46776708075E+02  0.17003201453E+03  0.12518853868E+03 0.  0.
         35    2    3    3    0    0  0.32104386434E+02 -0.10009976874E+03 -0.86349119678E+03  0.11813382626E+04  0.79930744295E+03 0.  0.
         22    1    5    5    0    0 -0.34069456942E+02 -0.14870522192E+03  0.12020299879E+03  0.19422340703E+03  0.00000000000E+00 0.  1.
         22    1    5    5    0    0  0.66173843376E+02  0.48605453183E+02 -0.98369419557E+03  0.98711485553E+03  0.00000000000E+00 0.  1.
          5    1    4    4  502    0  0.31451071161E+02  0.45838590624E+02  0.23698008215E+02  0.60613792663E+02  0.47000000000E+01 0.  1.
         -5    1    4    4    0  502 -0.63555457595E+02  0.54261178111E+02 -0.70474716290E+02  0.10941822187E+03  0.47000000000E+01 0.  1.
<mgrwt>
<rscale>  0 0.99880627E+03</rscale>
<asrwt>0</asrwt>
<pdfrwt beam="1">  1        2 0.17397217E+00 0.99880627E+03</pdfrwt>
<pdfrwt beam="2">  1       -2 0.33930952E-01 0.99880627E+03</pdfrwt>
<totfact> 0.20444510E+02</totfact>
</mgrwt>
</event>
<event>
 9    1  0.4321150E-036  0.1000437E+04  0.7818608E-02  0.8680622E-01
         -2   -1    0    0    0  501 -0.00000000000E+00  0.00000000000E+00  0.80130621501E+03  0.80130621501E+03  0.00000000000E+00 0. -1.
          2   -1    0    0  501    0  0.00000000000E+00 -0.00000000000E+00 -0.31226355178E+03  0.31226355178E+03  0.00000000000E+00 0. -1.
         36    2    1    2    0    0 -0.14210854715E-13  0.00000000000E+00  0.48904266323E+03  0.11135697668E+04  0.10004373539E+04 0.  0.
         25    2    3    3    0    0 -0.88595374105E+02 -0.87501131922E+02  0.19265780633E+02  0.17755711417E+03  0.12509904112E+03 0.  0.
         35    2    3    3    0    0  0.88595374105E+02  0.87501131922E+02  0.46977688259E+03  0.93601265262E+03  0.79995235986E+03 0.  0.
         22    1    5    5    0    0  0.13293194232E+03 -0.27461160032E+02 -0.20731581831E+03  0.24780005069E+03  0.00000000000E+00 0. -1.
         22    1    5    5    0    0 -0.44336568219E+02  0.11496229195E+03  0.67709270090E+03  0.68821260194E+03  0.00000000000E+00 0. -1.
          5    1    4    4  502    0 -0.21903017920E+02 -0.30753294433E+01 -0.46264117873E+02  0.51494256454E+02  0.47000000000E+01 0. -1.
         -5    1    4    4    0  502 -0.66692356186E+02 -0.84425802478E+02  0.65529898507E+02  0.12606285772E+03  0.47000000000E+01 0. -1.
<mgrwt>
<rscale>  0 0.10004374E+04</rscale>
<asrwt>0</asrwt>
<pdfrwt beam="1">  1        2 0.48040547E-01 0.10004374E+04</pdfrwt>
<pdfrwt beam="2">  1       -2 0.12327788E+00 0.10004374E+04</pdfrwt>
<totfact> 0.60579110E+01</totfact>
</mgrwt>
</event>
<event>
 9    1  0.4321150E-036  0.1000517E+04  0.7818608E-02  0.8680546E-01
          2   -1    0    0  501    0  0.00000000000E+00  0.00000000000E+00  0.18453914453E+04  0.18453914453E+04  0.00000000000E+00 0. -1.
         -2   -1    0    0    0  501 -0.00000000000E+00 -0.00000000000E+00 -0.13561270413E+03  0.13561270413E+03  0.00000000000E+00 0. -1.
         36    2    1    2    0    0 -0.14210854715E-13  0.28421709430E-13  0.17097787412E+04  0.19810041495E+04  0.10005169146E+04 0.  0.
         25    2    3    3    0    0 -0.41514208199E+02 -0.12829921035E+03  0.31240091395E+03  0.36515611287E+03  0.13251618343E+03 0.  0.
         35    2    3    3    0    0  0.41514208199E+02  0.12829921035E+03  0.13973778273E+04  0.16158480366E+04  0.80007247698E+03 0.  0.
         22    1    5    5    0    0 -0.33401029237E+03  0.24932728824E+03  0.71491348905E+03  0.82754351480E+03  0.00000000000E+00 0.  1.
         22    1    5    5    0    0  0.37552450057E+03 -0.12102807788E+03  0.68246433822E+03  0.78830452181E+03  0.00000000000E+00 0.  1.
          5    1    4    4  502    0 -0.87100710997E+02 -0.86094213659E+02  0.16859753210E+03  0.20843695764E+03  0.47000000000E+01 0. -1.
         -5    1    4    4    0  502  0.45586502797E+02 -0.42204996695E+02  0.14380338185E+03  0.15671915523E+03  0.47000000000E+01 0. -1.
<mgrwt>
<rscale>  0 0.10005169E+04</rscale>
<asrwt>0</asrwt>
<pdfrwt beam="1">  1        2 0.28390636E+00 0.10005169E+04</pdfrwt>
<pdfrwt beam="2">  1       -2 0.20863494E-01 0.10005169E+04</pdfrwt>
<totfact> 0.19063917E+02</totfact>
</mgrwt>
</event>
<event>
 9    1  0.4321150E-036  0.1000197E+04  0.7818608E-02  0.8680850E-01
          3   -1    0    0  501    0  0.00000000000E+00  0.00000000000E+00  0.12535062918E+04  0.12535062918E+04  0.00000000000E+00 0. -1.
         -3   -1    0    0    0  501 -0.00000000000E+00 -0.00000000000E+00 -0.19951910551E+03  0.19951910551E+03  0.00000000000E+00 0. -1.
         36    2    1    2    0    0  0.71054273576E-14 -0.71054273576E-14  0.10539871862E+04  0.14530253973E+04  0.10001968888E+04 0.  0.
         25    2    3    3    0    0  0.35341368646E+02 -0.52838600292E+02  0.37526558562E+03  0.40036918527E+03  0.12421873751E+03 0.  0.
         35    2    3    3    0    0 -0.35341368646E+02  0.52838600292E+02  0.67872160063E+03  0.10526562120E+04  0.80211044095E+03 0.  0.
         22    1    5    5    0    0  0.26252653919E+03  0.29349960385E+02  0.70484829296E+03  0.75272353494E+03  0.00000000000E+00 0.  1.
         22    1    5    5    0    0 -0.29786790783E+03  0.23488639906E+02 -0.26126692334E+02  0.29993267707E+03  0.00000000000E+00 0.  1.
          5    1    4    4  502    0  0.11980647974E+02 -0.79894978246E+02  0.34155415990E+03  0.35101008194E+03  0.47000000000E+01 0. -1.
         -5    1    4    4    0  502  0.23360720672E+02  0.27056377954E+02  0.33711425712E+02  0.49359103333E+02  0.47000000000E+01 0. -1.
<mgrwt>
<rscale>  0 0.10001969E+04</rscale>
<asrwt>0</asrwt>
<pdfrwt beam="1">  1        3 0.19284712E+00 0.10001969E+04</pdfrwt>
<pdfrwt beam="2">  1       -3 0.30695248E-01 0.10001969E+04</pdfrwt>
<totfact> 0.68378333E+00</totfact>
</mgrwt>
</event>
<event>
 9    1  0.4321150E-036  0.9992118E+03  0.7818608E-02  0.8681789E-01
          2   -1    0    0  501    0  0.00000000000E+00  0.00000000000E+00  0.21590014608E+04  0.21590014608E+04  0.00000000000E+00 0. -1.
         -2   -1    0    0    0  501 -0.00000000000E+00 -0.00000000000E+00 -0.11561181551E+03  0.11561181551E+03  0.00000000000E+00 0. -1.
         36    2    1    2    0    0  0.10658141036E-13  0.00000000000E+00  0.20433896453E+04  0.22746132763E+04  0.99921184655E+03 0.  0.
         25    2    3    3    0    0 -0.17038661309E+02  0.13315585748E+03  0.35227608780E+03  0.39715671506E+03  0.12495685624E+03 0.  0.
         35    2    3    3    0    0  0.17038661309E+02 -0.13315585748E+03  0.16911135575E+04  0.18774565612E+04  0.80433654441E+03 0.  0.
         22    1    5    5    0    0 -0.21041027123E+03  0.27537524835E+03  0.77311437936E+03  0.84723659813E+03  0.00000000000E+00 0. -1.
         22    1    5    5    0    0  0.22744893254E+03 -0.40853110583E+03  0.91799917812E+03  0.10302199631E+04  0.00000000000E+00 0. -1.
          5    1    4    4  502    0  0.13041972040E+02  0.61936202983E+02  0.39102348998E+02  0.74547099017E+02  0.47000000000E+01 0.  1.
         -5    1    4    4    0  502 -0.30080633349E+02  0.71219654498E+02  0.31317373880E+03  0.32260961605E+03  0.47000000000E+01 0.  1.
<mgrwt>
<rscale>  0 0.99921185E+03</rscale>
<asrwt>0</asrwt>
<pdfrwt beam="1">  1        2 0.33215404E+00 0.99921185E+03</pdfrwt>
<pdfrwt beam="2">  1       -2 0.17786435E-01 0.99921185E+03</pdfrwt>
<totfact> 0.16621923E+02</totfact>
</mgrwt>
</event>
<event>
 9    1  0.4321150E-036  0.1003610E+04  0.7818608E-02  0.8677608E-01
         -1   -1    0    0    0  501 -0.00000000000E+00  0.00000000000E+00  0.81386009233E+03  0.81386009233E+03  0.00000000000E+00 0. -1.
          1   -1    0    0  501    0  0.00000000000E+00 -0.00000000000E+00 -0.30939971021E+03  0.30939971021E+03  0.00000000000E+00 0. -1.
         36    2    1    2    0    0  0.00000000000E+00 -0.21316282073E-13  0.50446038212E+03  0.11232598025E+04  0.10036096387E+04 0.  0.
         25    2    3    3    0    0 -0.14042985578E+03 -0.25590135263E+02  0.82727495873E+02  0.20758320131E+03  0.12598233001E+03 0.  0.
         35    2    3    3    0    0  0.14042985578E+03  0.25590135263E+02  0.42173288625E+03  0.91567660122E+03  0.80014349417E+03 0.  0.
         22    1    5    5    0    0 -0.12813496739E+03  0.33434225499E+03  0.47586097473E+02  0.36120319768E+03  0.00000000000E+00 0.  1.
         22    1    5    5    0    0  0.26856482317E+03 -0.30875211973E+03  0.37414678878E+03  0.55447340354E+03  0.00000000000E+00 0.  1.
          5    1    4    4  502    0 -0.32220629767E+02 -0.30077086581E+02  0.88547454493E+02  0.99022935813E+02  0.47000000000E+01 0. -1.
         -5    1    4    4    0  502 -0.10820922602E+03  0.44869513183E+01 -0.58199586198E+01  0.10856026550E+03  0.47000000000E+01 0. -1.
<mgrwt>
<rscale>  0 0.10036096E+04</rscale>
<asrwt>0</asrwt>
<pdfrwt beam="1">  1        1 0.47599956E-01 0.10036096E+04</pdfrwt>
<pdfrwt beam="2">  1       -1 0.12520924E+00 0.10036096E+04</pdfrwt>
<totfact> 0.56303300E+01</totfact>
</mgrwt>
</event>
<event>
 9    1  0.4321150E-036  0.1000748E+04  0.7818608E-02  0.8680326E-01
         -2   -1    0    0    0  501 -0.00000000000E+00  0.00000000000E+00  0.56529153631E+02  0.56529153631E+02  0.00000000000E+00 0. -1.
          2   -1    0    0  501    0  0.00000000000E+00 -0.00000000000E+00 -0.44291174892E+04  0.44291174892E+04  0.00000000000E+00 0. -1.
         36    2    1    2    0    0  0.00000000000E+00  0.00000000000E+00 -0.43725883356E+04  0.44856466429E+04  0.10007482461E+04 0.  0.
         25    2    3    3    0    0 -0.92757252720E+02  0.10524683679E+03 -0.79959901717E+03  0.82141979759E+03  0.12526408514E+03 0.  0.
         35    2    3    3    0    0  0.92757252720E+02 -0.10524683679E+03 -0.35729893184E+04  0.36642268453E+04  0.80039046685E+03 0.  0.
         22    1    5    5    0    0  0.57769611421E+01 -0.31873102912E+03 -0.57555386761E+03  0.65794004038E+03  0.00000000000E+00 0. -1.
         22    1    5    5    0    0  0.86980291578E+02  0.21348419233E+03 -0.29974354508E+04  0.30062868049E+04  0.00000000000E+00 0. -1.
          5    1    4    4  502    0  0.10731516834E+02  0.24685872298E+02 -0.39769699487E+03  0.39863460396E+03  0.47000000000E+01 0.  1.
         -5    1    4    4    0  502 -0.10348876955E+03  0.80560964496E+02 -0.40190202230E+03  0.42278519363E+03  0.47000000000E+01 0.  1.
<mgrwt>
<rscale>  0 0.10007482E+04</rscale>
<asrwt>0</asrwt>
<pdfrwt beam="1">  1        2 0.68140249E+00 0.10007482E+04</pdfrwt>
<pdfrwt beam="2">  1       -2 0.86967955E-02 0.10007482E+04</pdfrwt>
<totfact> 0.11274917E+01</totfact>
</mgrwt>
</event>
<event>
 9    1  0.4321150E-036  0.1000137E+04  0.7818608E-02  0.8680908E-01
         -2   -1    0    0    0  501 -0.00000000000E+00  0.00000000000E+00  0.11694483440E+03  0.11694483440E+03  0.00000000000E+00 0. -1.
          2   -1    0    0  501    0  0.00000000000E+00 -0.00000000000E+00 -0.21383453918E+04  0.21383453918E+04  0.00000000000E+00 0. -1.
         36    2    1    2    0    0  0.71054273576E-14 -0.14210854715E-13 -0.20214005574E+04  0.22552902262E+04  0.10001368861E+04 0.  0.
         25    2    3    3    0    0 -0.58080184309E+02 -0.93868945766E+02 -0.56156052519E+03  0.58707186659E+03  0.13083755694E+03 0.  0.
         35    2    3    3    0    0  0.58080184309E+02  0.93868945766E+02 -0.14598400322E+04  0.16682183596E+04  0.79977177299E+03 0.  0.
         22    1    5    5    0    0  0.30616027756E+03 -0.15140227512E+03 -0.11566390126E+04  0.12060143324E+04  0.00000000000E+00 0. -1.
         22    1    5    5    0    0 -0.24808009325E+03  0.24527122089E+03 -0.30320101956E+03  0.46220402716E+03  0.00000000000E+00 0. -1.
          5    1    4    4  502    0  0.37011306966E+01 -0.33097582314E+02 -0.41775643172E+03  0.41910818957E+03  0.47000000000E+01 0. -1.
         -5    1    4    4    0  502 -0.61781315006E+02 -0.60771363452E+02 -0.14380409347E+03  0.16796367702E+03  0.47000000000E+01 0. -1.
<mgrwt>
<rscale>  0 0.10001369E+04</rscale>
<asrwt>0</asrwt>
<pdfrwt beam="1">  1        2 0.32897624E+00 0.10001369E+04</pdfrwt>
<pdfrwt beam="2">  1       -2 0.17991512E-01 0.10001369E+04</pdfrwt>
<totfact> 0.16753840E+02</totfact>
</mgrwt>
</event>
<event>
 9    1  0.4321150E-036  0.9999364E+03  0.7818608E-02  0.8681098E-01
          1   -1    0    0  501    0  0.00000000000E+00  0.00000000000E+00  0.64689557632E+03  0.64689557632E+03  0.00000000000E+00 0.  1.
         -1   -1    0    0    0  501 -0.00000000000E+00 -0.00000000000E+00 -0.38641201168E+03  0.38641201168E+03  0.00000000000E+00 0.  1.
         36    2    1    2    0    0 -0.42632564146E-13  0.00000000000E+00  0.26048356465E+03  0.10333075880E+04  0.99993643996E+03 0.  0.
         25    2    3    3    0    0  0.23290737183E+02 -0.12636024062E+03  0.10722691537E+03  0.20892286792E+03  0.12506712003E+03 0.  0.
         35    2    3    3    0    0 -0.23290737183E+02  0.12636024062E+03  0.15325664927E+03  0.82438472008E+03  0.79975821178E+03 0.  0.
         22    1    5    5    0    0  0.37306241432E+03  0.50303778671E+02  0.18521636211E+03  0.41953681116E+03  0.00000000000E+00 0.  1.
         22    1    5    5    0    0 -0.39635315150E+03  0.76056461949E+02 -0.31959712832E+02  0.40484790892E+03  0.00000000000E+00 0.  1.
          5    1    4    4  502    0  0.83978036624E+01 -0.15035174870E+03  0.91279996344E+02  0.17615419148E+03  0.47000000000E+01 0. -1.
         -5    1    4    4    0  502  0.14892933520E+02  0.23991508084E+02  0.15946919029E+02  0.32768676438E+02  0.47000000000E+01 0. -1.
<mgrwt>
<rscale>  0 0.99993644E+03</rscale>
<asrwt>0</asrwt>
<pdfrwt beam="1">  1        1 0.99522396E-01 0.99993644E+03</pdfrwt>
<pdfrwt beam="2">  1       -1 0.59448002E-01 0.99993644E+03</pdfrwt>
<totfact> 0.10178894E+02</totfact>
</mgrwt>
</event>
<event>
 9    1  0.4321150E-036  0.1000202E+04  0.7818608E-02  0.8680846E-01
          2   -1    0    0  501    0  0.00000000000E+00  0.00000000000E+00  0.19220180585E+04  0.19220180585E+04  0.00000000000E+00 0.  1.
         -2   -1    0    0    0  501 -0.00000000000E+00 -0.00000000000E+00 -0.13012406784E+03  0.13012406784E+03  0.00000000000E+00 0.  1.
         36    2    1    2    0    0 -0.42632564146E-13  0.14210854715E-13  0.17918939907E+04  0.20521421264E+04  0.10002015961E+04 0.  0.
         25    2    3    3    0    0  0.87773246224E+02  0.84389637879E+02  0.19965609492E+03  0.26609707976E+03  0.12696198599E+03 0.  0.
         35    2    3    3    0    0 -0.87773246224E+02 -0.84389637879E+02  0.15922378958E+04  0.17860450466E+04  0.79994352177E+03 0.  0.
         22    1    5    5    0    0  0.27248982510E+03 -0.28428504289E+03  0.85960970202E+03  0.94551442623E+03  0.00000000000E+00 0. -1.
         22    1    5    5    0    0 -0.36026307133E+03  0.19989540501E+03  0.73262819375E+03  0.84053062037E+03  0.00000000000E+00 0. -1.
          5    1    4    4  502    0  0.11405332852E+03  0.93517050018E+02  0.16372088048E+03  0.22040920375E+03  0.47000000000E+01 0.  1.
         -5    1    4    4    0  502 -0.26280082299E+02 -0.91274121388E+01  0.35935214432E+02  0.45687876010E+02  0.47000000000E+01 0.  1.
<mgrwt>
<rscale>  0 0.10002016E+04</rscale>
<asrwt>0</asrwt>
<pdfrwt beam="1">  1        2 0.29569507E+00 0.10002016E+04</pdfrwt>
<pdfrwt beam="2">  1       -2 0.20019089E-01 0.10002016E+04</pdfrwt>
<totfact> 0.18533205E+02</totfact>
</mgrwt>
</event>
<event>
 9    1  0.4321150E-036  0.9990135E+03  0.7818608E-02  0.8681978E-01
          1   -1    0    0  501    0  0.00000000000E+00  0.00000000000E+00  0.17846981533E+03  0.17846981533E+03  0.00000000000E+00 0. -1.
         -1   -1    0    0    0  501 -0.00000000000E+00 -0.00000000000E+00 -0.13980348254E+04  0.13980348254E+04  0.00000000000E+00 0. -1.
         36    2    1    2    0    0  0.42632564146E-13  0.14210854715E-13 -0.12195650101E+04  0.15765046407E+04  0.99901354769E+03 0.  0.
         25    2    3    3    0    0  0.91531001698E+02 -0.46482305493E+02 -0.37917207595E+03  0.41204418270E+03  0.12438012832E+03 0.  0.
         35    2    3    3    0    0 -0.91531001698E+02  0.46482305493E+02 -0.84039293411E+03  0.11644604580E+04  0.79948067244E+03 0.  0.
         22    1    5    5    0    0  0.20066036788E+03  0.20853133330E+03 -0.33749321170E+02  0.29135702649E+03  0.00000000000E+00 0.  1.
         22    1    5    5    0    0 -0.29219136958E+03 -0.16204902780E+03 -0.80664361294E+03  0.87310343154E+03  0.00000000000E+00 0.  1.
          5    1    4    4  502    0  0.71170306555E+02 -0.50016353008E+02 -0.10231622140E+03  0.13437837350E+03  0.47000000000E+01 0.  1.
         -5    1    4    4    0  502  0.20360695143E+02  0.35340475150E+01 -0.27685585455E+03  0.27766580920E+03  0.47000000000E+01 0.  1.
<mgrwt>
<rscale>  0 0.99901355E+03</rscale>
<asrwt>0</asrwt>
<pdfrwt beam="1">  1        1 0.27456895E-01 0.99901355E+03</pdfrwt>
<pdfrwt beam="2">  1       -1 0.21508227E+00 0.99901355E+03</pdfrwt>
<totfact> 0.19965652E+01</totfact>
</mgrwt>
</event>
<event>
 9    1  0.4321150E-036  0.9991777E+03  0.7818608E-02  0.8681821E-01
          2   -1    0    0  501    0  0.00000000000E+00  0.00000000000E+00  0.89172752132E+03  0.89172752132E+03  0.00000000000E+00 0.  1.
         -2   -1    0    0    0  501 -0.00000000000E+00 -0.00000000000E+00 -0.27989382539E+03  0.27989382539E+03  0.00000000000E+00 0.  1.
         36    2    1    2    0    0  0.00000000000E+00  0.00000000000E+00  0.61183369593E+03  0.11716213467E+04  0.99917771623E+03 0.  0.
         25    2    3    3    0    0 -0.10879279674E+03 -0.77416741002E+02  0.69974315075E+02  0.19578082027E+03  0.12491797471E+03 0.  0.
         35    2    3    3    0    0  0.10879279674E+03  0.77416741002E+02  0.54185938086E+03  0.97584052645E+03  0.80051478439E+03 0.  0.
         22    1    5    5    0    0  0.35532375920E+03  0.13251162358E+03  0.60630578299E+03  0.71513705450E+03  0.00000000000E+00 0.  1.
         22    1    5    5    0    0 -0.24653096245E+03 -0.55094882580E+02 -0.64446402136E+02  0.26070347194E+03  0.00000000000E+00 0.  1.
          5    1    4    4  502    0 -0.64005105299E+02 -0.45597611872E+01 -0.23963444462E+02  0.68656985056E+02  0.47000000000E+01 0. -1.
         -5    1    4    4    0  502 -0.44787691445E+02 -0.72856979815E+02  0.93937759537E+02  0.12712383521E+03  0.47000000000E+01 0. -1.
<mgrwt>
<rscale>  0 0.99917772E+03</rscale>
<asrwt>0</asrwt>
<pdfrwt beam="1">  1        2 0.13718885E+00 0.99917772E+03</pdfrwt>
<pdfrwt beam="2">  1       -2 0.43060589E-01 0.99917772E+03</pdfrwt>
<totfact> 0.18374367E+02</totfact>
</mgrwt>
</event>
<event>
 9    1  0.4321150E-036  0.1000004E+04  0.7818608E-02  0.8681034E-01
          3   -1    0    0  501    0  0.00000000000E+00  0.00000000000E+00  0.20662962164E+04  0.20662962164E+04  0.00000000000E+00 0.  1.
         -3   -1    0    0    0  501 -0.00000000000E+00 -0.00000000000E+00 -0.12099039604E+03  0.12099039604E+03  0.00000000000E+00 0.  1.
         36    2    1    2    0    0 -0.14210854715E-13  0.00000000000E+00  0.19453058204E+04  0.21872866124E+04  0.10000039951E+04 0.  0.
         25    2    3    3    0    0 -0.91505662998E+02 -0.10225714180E+03  0.40293907717E+03  0.44395468028E+03  0.12611918501E+03 0.  0.
         35    2    3    3    0    0  0.91505662998E+02  0.10225714180E+03  0.15423667432E+04  0.17433319322E+04  0.80092524354E+03 0.  0.
         22    1    5    5    0    0  0.44318345681E+03  0.90939777034E+02  0.74219578072E+03  0.86921585142E+03  0.00000000000E+00 0. -1.
         22    1    5    5    0    0 -0.35167779381E+03  0.11317364765E+02  0.80017096248E+03  0.87411608074E+03  0.00000000000E+00 0. -1.
          5    1    4    4  502    0 -0.75024781912E+02  0.52700811076E+01  0.19859611550E+03  0.21241233191E+03  0.47000000000E+01 0. -1.
         -5    1    4    4    0  502 -0.16480881086E+02 -0.10752722291E+03  0.20434296166E+03  0.23154234837E+03  0.47000000000E+01 0. -1.
<mgrwt>
<rscale>  0 0.10000040E+04</rscale>
<asrwt>0</asrwt>
<pdfrwt beam="1">  1        3 0.31789170E+00 0.10000040E+04</pdfrwt>
<pdfrwt beam="2">  1       -3 0.18613909E-01 0.10000040E+04</pdfrwt>
<totfact> 0.38661158E+00</totfact>
</mgrwt>
</event>
<event>
 9    1  0.4321150E-036  0.1000053E+04  0.7818608E-02  0.8680987E-01
          2   -1    0    0  501    0  0.00000000000E+00  0.00000000000E+00  0.93808629232E+03  0.93808629232E+03  0.00000000000E+00 0. -1.
         -2   -1    0    0    0  501 -0.00000000000E+00 -0.00000000000E+00 -0.26652827397E+03  0.26652827397E+03  0.00000000000E+00 0. -1.
         36    2    1    2    0    0  0.71054273576E-14  0.00000000000E+00  0.67155801835E+03  0.12046145663E+04  0.10000530392E+04 0.  0.
         25    2    3    3    0    0  0.60503661476E+02  0.83683728489E+02  0.24178204437E+03  0.29127786067E+03  0.12538171985E+03 0.  0.
         35    2    3    3    0    0 -0.60503661476E+02 -0.83683728489E+02  0.42977597398E+03  0.91333670561E+03  0.79925771222E+03 0.  0.
         22    1    5    5    0    0  0.30765809703E+03  0.45023663239E+02 -0.27712405021E+02  0.31216760292E+03  0.00000000000E+00 0. -1.
         22    1    5    5    0    0 -0.36816175851E+03 -0.12870739173E+03  0.45748837900E+03  0.60116910269E+03  0.00000000000E+00 0. -1.
          5    1    4    4  502    0  0.29474313388E+02  0.97633083728E+02  0.23507191965E+03  0.25628470808E+03  0.47000000000E+01 0.  1.
         -5    1    4    4    0  502  0.31029348088E+02 -0.13949355240E+02  0.67101247176E+01  0.34993152589E+02  0.47000000000E+01 0.  1.
<mgrwt>
<rscale>  0 0.10000530E+04</rscale>
<asrwt>0</asrwt>
<pdfrwt beam="1">  1        2 0.14432097E+00 0.10000530E+04</pdfrwt>
<pdfrwt beam="2">  1       -2 0.41004350E-01 0.10000530E+04</pdfrwt>
<totfact> 0.18834903E+02</totfact>
</mgrwt>
</event>
<event>
 9    1  0.4321150E-036  0.9992539E+03  0.7818608E-02  0.8681749E-01
          1   -1    0    0  501    0  0.00000000000E+00  0.00000000000E+00  0.32430128140E+04  0.32430128140E+04  0.00000000000E+00 0. -1.
         -1   -1    0    0    0  501 -0.00000000000E+00 -0.00000000000E+00 -0.76973824066E+02  0.76973824066E+02  0.00000000000E+00 0. -1.
         36    2    1    2    0    0  0.14210854715E-13 -0.71054273576E-14  0.31660389899E+04  0.33199866380E+04  0.99925391725E+03 0.  0.
         25    2    3    3    0    0 -0.10785924413E+03 -0.21676587889E+02  0.85729172668E+03  0.87351148615E+03  0.12637136069E+03 0.  0.
         35    2    3    3    0    0  0.10785924413E+03  0.21676587889E+02  0.23087472632E+04  0.24464751519E+04  0.80176259100E+03 0.  0.
         22    1    5    5    0    0  0.44254345357E+03 -0.95789347335E+02  0.12134027039E+04  0.12951318192E+04  0.00000000000E+00 0.  1.
         22    1    5    5    0    0 -0.33468420944E+03  0.11746593522E+03  0.10953445593E+04  0.11513433326E+04  0.00000000000E+00 0.  1.
          5    1    4    4  502    0 -0.40670617618E+01 -0.42299362051E+02  0.47174597602E+03  0.47367935665E+03  0.47000000000E+01 0. -1.
         -5    1    4    4    0  502 -0.10379218237E+03  0.20622774162E+02  0.38554575065E+03  0.39983212950E+03  0.47000000000E+01 0. -1.
<mgrwt>
<rscale>  0 0.99925392E+03</rscale>
<asrwt>0</asrwt>
<pdfrwt beam="1">  1        1 0.49892494E+00 0.99925392E+03</pdfrwt>
<pdfrwt beam="2">  1       -1 0.11842129E-01 0.99925392E+03</pdfrwt>
<totfact> 0.19424100E+01</totfact>
</mgrwt>
</event>
<event>
 9    1  0.4321150E-036  0.1000138E+04  0.7818608E-02  0.8680907E-01
         -2   -1    0    0    0  501 -0.00000000000E+00  0.00000000000E+00  0.29728298266E+03  0.29728298266E+03  0.00000000000E+00 0.  1.
          2   -1    0    0  501    0  0.00000000000E+00 -0.00000000000E+00 -0.84118103617E+03  0.84118103617E+03  0.00000000000E+00 0.  1.
         36    2    1    2    0    0 -0.17763568394E-13 -0.14210854715E-13 -0.54389805351E+03  0.11384640188E+04  0.10001376053E+04 0.  0.
         25    2    3    3    0    0 -0.21578126888E+02  0.10059296363E+03 -0.20876311850E+03  0.26493026951E+03  0.12657585931E+03 0.  0.
         35    2    3    3    0    0  0.21578126888E+02 -0.10059296363E+03 -0.33513493501E+03  0.87353374932E+03  0.80010076031E+03 0.  0.
         22    1    5    5    0    0  0.31060325113E+03 -0.11179374752E+03  0.10540288460E+03  0.34652848321E+03  0.00000000000E+00 0. -1.
         22    1    5    5    0    0 -0.28902512424E+03  0.11200783887E+02 -0.44053781960E+03  0.52700526611E+03  0.00000000000E+00 0. -1.
          5    1    4    4  502    0 -0.15070169474E+02  0.28970424745E+02 -0.18664957314E+03  0.18954299953E+03  0.47000000000E+01 0. -1.
         -5    1    4    4    0  502 -0.65079574142E+01  0.71622538886E+02 -0.22113545369E+02  0.75387269979E+02  0.47000000000E+01 0. -1.
<mgrwt>
<rscale>  0 0.10001376E+04</rscale>
<asrwt>0</asrwt>
<pdfrwt beam="1">  1        2 0.12941247E+00 0.10001376E+04</pdfrwt>
<pdfrwt beam="2">  1       -2 0.45735844E-01 0.10001376E+04</pdfrwt>
<totfact> 0.17661498E+02</totfact>
</mgrwt>
</event>
<event>
 9    1  0.4321150E-036  0.1000352E+04  0.7818608E-02  0.8680703E-01
          2   -1    0    0  501    0  0.00000000000E+00  0.00000000000E+00  0.31426357958E+03  0.31426357958E+03  0.00000000000E+00 0.  1.
         -2   -1    0    0    0  501 -0.00000000000E+00 -0.00000000000E+00 -0.79607023568E+03  0.79607023568E+03  0.00000000000E+00 0.  1.
         36    2    1    2    0    0  0.00000000000E+00  0.00000000000E+00 -0.48180665610E+03  0.11103338153E+04  0.10003517019E+04 0.  0.
         25    2    3    3    0    0 -0.38864447026E+02  0.13374490281E+03 -0.69400805327E+02  0.19938434190E+03  0.12465752984E+03 0.  0.
         35    2    3    3    0    0  0.38864447026E+02 -0.13374490281E+03 -0.41240585077E+03  0.91094947337E+03  0.80022010285E+03 0.  0.
         22    1    5    5    0    0  0.41829842742E+03 -0.33071144977E+02 -0.20652326573E+03  0.46767417536E+03  0.00000000000E+00 0. -1.
         22    1    5    5    0    0 -0.37943398040E+03 -0.10067375783E+03 -0.20588258504E+03  0.44327529800E+03  0.00000000000E+00 0. -1.
          5    1    4    4  502    0 -0.42206818984E+02  0.11526129141E+03  0.45704395130E+01  0.12292094933E+03  0.47000000000E+01 0. -1.
         -5    1    4    4    0  502  0.33423719579E+01  0.18483611401E+02 -0.73971244840E+02  0.76463392574E+02  0.47000000000E+01 0. -1.
<mgrwt>
<rscale>  0 0.10003517E+04</rscale>
<asrwt>0</asrwt>
<pdfrwt beam="1">  1        2 0.48348244E-01 0.10003517E+04</pdfrwt>
<pdfrwt beam="2">  1       -2 0.12247234E+00 0.10003517E+04</pdfrwt>
<totfact> 0.61191482E+01</totfact>
</mgrwt>
</event>
<event>
 9    1  0.4321150E-036  0.9997760E+03  0.7818608E-02  0.8681251E-01
          2   -1    0    0  501    0  0.00000000000E+00  0.00000000000E+00  0.57744407580E+03  0.57744407580E+03  0.00000000000E+00 0. -1.
         -2   -1    0    0    0  501 -0.00000000000E+00 -0.00000000000E+00 -0.43274842289E+03  0.43274842289E+03  0.00000000000E+00 0. -1.
         36    2    1    2    0    0  0.00000000000E+00  0.14210854715E-13  0.14469565291E+03  0.10101924987E+04  0.99977600113E+03 0.  0.
         25    2    3    3    0    0  0.83954389071E+02  0.41049793922E+02 -0.76161873580E+02  0.17405032042E+03  0.12553668000E+03 0.  0.
         35    2    3    3    0    0 -0.83954389071E+02 -0.41049793922E+02  0.22085752649E+03  0.83614217827E+03  0.80101327720E+03 0.  0.
         22    1    5    5    0    0  0.24437174349E+03  0.12259523862E+03  0.35275799397E+03  0.44630185285E+03  0.00000000000E+00 0.  1.
         22    1    5    5    0    0 -0.32832613256E+03 -0.16364503254E+03 -0.13190046749E+03  0.38984032542E+03  0.00000000000E+00 0.  1.
          5    1    4    4  502    0 -0.21253717295E+02 -0.20628823755E+02 -0.33015915192E+02  0.44602797270E+02  0.47000000000E+01 0.  1.
         -5    1    4    4    0  502  0.10520810637E+03  0.61678617677E+02 -0.43145958388E+02  0.12944752315E+03  0.47000000000E+01 0.  1.
<mgrwt>
<rscale>  0 0.99977600E+03</rscale>
<asrwt>0</asrwt>
<pdfrwt beam="1">  1        2 0.88837551E-01 0.99977600E+03</pdfrwt>
<pdfrwt beam="2">  1       -2 0.66576680E-01 0.99977600E+03</pdfrwt>
<totfact> 0.13027913E+02</totfact>
</mgrwt>
</event>
<event>
 9    1  0.4321150E-036  0.9956794E+03  0.7818608E-02  0.8685163E-01
          1   -1    0    0  501    0  0.00000000000E+00  0.00000000000E+00  0.59866337191E+03  0.59866337191E+03  0.00000000000E+00 0. -1.
         -1   -1    0    0    0  501 -0.00000000000E+00 -0.00000000000E+00 -0.41399622831E+03  0.41399622831E+03  0.00000000000E+00 0. -1.
         36    2    1    2    0    0 -0.28421709430E-13 -0.71054273576E-14  0.18466714360E+03  0.10126596002E+04  0.99567942231E+03 0.  0.
         25    2    3    3    0    0  0.10000657298E+03  0.68301733674E+01 -0.59396888429E+02  0.17091353022E+03  0.12504190718E+03 0.  0.
         35    2    3    3    0    0 -0.10000657298E+03 -0.68301733674E+01  0.24406403203E+03  0.84174607000E+03  0.79932548360E+03 0.  0.
         22    1    5    5    0    0 -0.26789785815E+03  0.14068998032E+03  0.44705023755E+03  0.53983038805E+03  0.00000000000E+00 0. -1.
         22    1    5    5    0    0  0.16789128517E+03 -0.14752015369E+03 -0.20298620552E+03  0.30191568196E+03  0.00000000000E+00 0. -1.
          5    1    4    4  502    0  0.32904436313E+02 -0.57984849003E+02 -0.23707915660E+02  0.70916147019E+02  0.47000000000E+01 0. -1.
         -5    1    4    4    0  502  0.67102136669E+02  0.64815022371E+02 -0.35688972769E+02  0.99997383205E+02  0.47000000000E+01 0. -1.
<mgrwt>
<rscale>  0 0.99567942E+03</rscale>
<asrwt>0</asrwt>
<pdfrwt beam="1">  1        1 0.92102057E-01 0.99567942E+03</pdfrwt>
<pdfrwt beam="2">  1       -1 0.63691727E-01 0.99567942E+03</pdfrwt>
<totfact> 0.99968377E+01</totfact>
</mgrwt>
</event>
<event>
 9    1  0.4321150E-036  0.9997788E+03  0.7818608E-02  0.8681249E-01
         -2   -1    0    0    0  501 -0.00000000000E+00  0.00000000000E+00  0.55778216310E+03  0.55778216310E+03  0.00000000000E+00 0. -1.
          2   -1    0    0  501    0  0.00000000000E+00 -0.00000000000E+00 -0.44800540553E+03  0.44800540553E+03  0.00000000000E+00 0. -1.
         36    2    1    2    0    0 -0.71054273576E-14  0.28421709430E-13  0.10977675758E+03  0.10057875686E+04  0.99977882390E+03 0.  0.
         25    2    3    3    0    0  0.60037626452E+02 -0.96941446054E+02 -0.59821464769E+02  0.17948526683E+03  0.12503676583E+03 0.  0.
         35    2    3    3    0    0 -0.60037626452E+02  0.96941446054E+02  0.16959822234E+03  0.82630230180E+03  0.80063086150E+03 0.  0.
         22    1    5    5    0    0 -0.13774800941E+03  0.43188167809E+03  0.27160878353E+02  0.45412994977E+03  0.00000000000E+00 0. -1.
         22    1    5    5    0    0  0.77710382956E+02 -0.33494023203E+03  0.14243734399E+03  0.37217235203E+03  0.00000000000E+00 0. -1.
          5    1    4    4  502    0  0.31597986734E+02 -0.61372750870E+01  0.33096228518E+02  0.46406349277E+02  0.47000000000E+01 0. -1.
         -5    1    4    4    0  502  0.28439639718E+02 -0.90804170967E+02 -0.92917693286E+02  0.13307891756E+03  0.47000000000E+01 0. -1.
<mgrwt>
<rscale>  0 0.99977882E+03</rscale>
<asrwt>0</asrwt>
<pdfrwt beam="1">  1        2 0.68923909E-01 0.99977882E+03</pdfrwt>
<pdfrwt beam="2">  1       -2 0.85812640E-01 0.99977882E+03</pdfrwt>
<totfact> 0.98780735E+01</totfact>
</mgrwt>
</event>
<event>
 9    1  0.4321150E-036  0.9999071E+03  0.7818608E-02  0.8681126E-01
          1   -1    0    0  501    0  0.00000000000E+00  0.00000000000E+00  0.23411203526E+03  0.23411203526E+03  0.00000000000E+00 0.  1.
         -1   -1    0    0    0  501 -0.00000000000E+00 -0.00000000000E+00 -0.10676664907E+04  0.10676664907E+04  0.00000000000E+00 0.  1.
         36    2    1    2    0    0  0.00000000000E+00  0.00000000000E+00 -0.83355445543E+03  0.13017785259E+04  0.99990714591E+03 0.  0.
         25    2    3    3    0    0  0.14126076376E+02  0.77021302416E+02 -0.30725089453E+03  0.34116641716E+03  0.12593484407E+03 0.  0.
         35    2    3    3    0    0 -0.14126076376E+02 -0.77021302416E+02 -0.52630356091E+03  0.96061210879E+03  0.79978019372E+03 0.  0.
         22    1    5    5    0    0  0.26704336476E+03  0.11988100171E+03  0.42972391455E+02  0.29585509909E+03  0.00000000000E+00 0. -1.
         22    1    5    5    0    0 -0.28116944114E+03 -0.19690230412E+03 -0.56927595236E+03  0.66475700969E+03  0.00000000000E+00 0. -1.
          5    1    4    4  502    0  0.52850969909E+02  0.79412432014E+02 -0.27291345792E+03  0.28914253387E+03  0.47000000000E+01 0.  1.
         -5    1    4    4    0  502 -0.38724893533E+02 -0.23911295979E+01 -0.34337436605E+02  0.52023883290E+02  0.47000000000E+01 0.  1.
<mgrwt>
<rscale>  0 0.99990715E+03</rscale>
<asrwt>0</asrwt>
<pdfrwt beam="1">  1        1 0.36017236E-01 0.99990715E+03</pdfrwt>
<pdfrwt beam="2">  1       -1 0.16425638E+00 0.99990715E+03</pdfrwt>
<totfact> 0.37702577E+01</totfact>
</mgrwt>
</event>
<event>
 9    1  0.4321150E-036  0.9992240E+03  0.7818608E-02  0.8681777E-01
          2   -1    0    0  501    0  0.00000000000E+00  0.00000000000E+00  0.56798064989E+03  0.56798064989E+03  0.00000000000E+00 0. -1.
         -2   -1    0    0    0  501 -0.00000000000E+00 -0.00000000000E+00 -0.43947298218E+03  0.43947298218E+03  0.00000000000E+00 0. -1.
         36    2    1    2    0    0 -0.71054273576E-14 -0.14210854715E-13  0.12850766771E+03  0.10074536321E+04  0.99922399897E+03 0.  0.
         25    2    3    3    0    0 -0.33005886574E+02  0.10957789735E+03 -0.75803071864E+02  0.18559280453E+03  0.12490748277E+03 0.  0.
         35    2    3    3    0    0  0.33005886574E+02 -0.10957789735E+03  0.20431073957E+03  0.82186082755E+03  0.78779162056E+03 0.  0.
         22    1    5    5    0    0 -0.77860541516E+02 -0.16826460899E+03 -0.27207206273E+03  0.32923919858E+03  0.00000000000E+00 0. -1.
         22    1    5    5    0    0  0.11086642809E+03  0.58686711647E+02  0.47638280230E+03  0.49262162897E+03  0.00000000000E+00 0. -1.
          5    1    4    4  502    0 -0.32786295882E+02 -0.67200867510E+01  0.15961969210E+02  0.37376131751E+02  0.47000000000E+01 0. -1.
         -5    1    4    4    0  502 -0.21959069167E+00  0.11629798410E+03 -0.91765041074E+02  0.14821667278E+03  0.47000000000E+01 0. -1.
<mgrwt>
<rscale>  0 0.99922400E+03</rscale>
<asrwt>0</asrwt>
<pdfrwt beam="1">  1        2 0.87381638E-01 0.99922400E+03</pdfrwt>
<pdfrwt beam="2">  1       -2 0.67611229E-01 0.99922400E+03</pdfrwt>
<totfact> 0.12850886E+02</totfact>
</mgrwt>
</event>
<event>
 9    1  0.4321150E-036  0.9995482E+03  0.7818608E-02  0.8681468E-01
          1   -1    0    0  501    0  0.00000000000E+00  0.00000000000E+00  0.59711263077E+03  0.59711263077E+03  0.00000000000E+00 0. -1.
         -1   -1    0    0    0  501 -0.00000000000E+00 -0.00000000000E+00 -0.41830324681E+03  0.41830324681E+03  0.00000000000E+00 0. -1.
         36    2    1    2    0    0  0.00000000000E+00  0.00000000000E+00  0.17880938395E+03  0.10154158776E+04  0.99954820226E+03 0.  0.
         25    2    3    3    0    0 -0.67062636623E+02 -0.70383525614E+02 -0.69144702005E+02  0.17251214442E+03  0.12461224759E+03 0.  0.
         35    2    3    3    0    0  0.67062636623E+02  0.70383525614E+02  0.24795408596E+03  0.84290373315E+03  0.79972134942E+03 0.  0.
         22    1    5    5    0    0 -0.21689161902E+03  0.14980144586E+03 -0.18288880063E+03  0.32082824218E+03  0.00000000000E+00 0. -1.
         22    1    5    5    0    0  0.28395425564E+03 -0.79417920248E+02  0.43084288659E+03  0.52207549098E+03  0.00000000000E+00 0. -1.
          5    1    4    4  502    0 -0.88118009989E+02 -0.37698143412E+02 -0.34386193096E+01  0.96020038554E+02  0.47000000000E+01 0.  1.
         -5    1    4    4    0  502  0.21055373366E+02 -0.32685382202E+02 -0.65706082695E+02  0.76492105870E+02  0.47000000000E+01 0.  1.
<mgrwt>
<rscale>  0 0.99954820E+03</rscale>
<asrwt>0</asrwt>
<pdfrwt beam="1">  1        1 0.91863482E-01 0.99954820E+03</pdfrwt>
<pdfrwt beam="2">  1       -1 0.64354346E-01 0.99954820E+03</pdfrwt>
<totfact> 0.98316240E+01</totfact>
</mgrwt>
</event>
<event>
 9    1  0.4321150E-036  0.1000115E+04  0.7818608E-02  0.8680928E-01
         -2   -1    0    0    0  501 -0.00000000000E+00  0.00000000000E+00  0.23426845760E+03  0.23426845760E+03  0.00000000000E+00 0.  1.
          2   -1    0    0  501    0  0.00000000000E+00 -0.00000000000E+00 -0.10673974867E+04  0.10673974867E+04  0.00000000000E+00 0.  1.
         36    2    1    2    0    0  0.14210854715E-13 -0.35527136788E-14 -0.83312902906E+03  0.13016659443E+04  0.10001151191E+04 0.  0.
         25    2    3    3    0    0 -0.30172326107E+02  0.31483794369E+02  0.17359080506E+02  0.13362125863E+03  0.12510677245E+03 0.  0.
         35    2    3    3    0    0  0.30172326107E+02 -0.31483794369E+02 -0.85048810956E+03  0.11680446856E+04  0.79943527853E+03 0.  0.
         22    1    5    5    0    0  0.20753198811E+03  0.15436042453E+02 -0.94081267101E+03  0.96355398366E+03  0.00000000000E+00 0.  1.
         22    1    5    5    0    0 -0.17735966200E+03 -0.46919836822E+02  0.90324561444E+02  0.20449070197E+03  0.00000000000E+00 0.  1.
          5    1    4    4  502    0  0.22694057683E+01  0.71042978375E+02  0.34911869964E+02  0.79329588700E+02  0.47000000000E+01 0. -1.
         -5    1    4    4    0  502 -0.32441731875E+02 -0.39559184005E+02 -0.17552789458E+02  0.54291669932E+02  0.47000000000E+01 0. -1.
<mgrwt>
<rscale>  0 0.10001151E+04</rscale>
<asrwt>0</asrwt>
<pdfrwt beam="1">  1        2 0.16421500E+00 0.10001151E+04</pdfrwt>
<pdfrwt beam="2">  1       -2 0.36041300E-01 0.10001151E+04</pdfrwt>
<totfact> 0.19959603E+02</totfact>
</mgrwt>
</event>
<event>
 9    1  0.4321150E-036  0.9999349E+03  0.7818608E-02  0.8681100E-01
         -1   -1    0    0    0  501 -0.00000000000E+00  0.00000000000E+00  0.17967746338E+03  0.17967746338E+03  0.00000000000E+00 0.  1.
          1   -1    0    0  501    0  0.00000000000E+00 -0.00000000000E+00 -0.13912010258E+04  0.13912010258E+04  0.00000000000E+00 0.  1.
         36    2    1    2    0    0 -0.71054273576E-14 -0.14210854715E-13 -0.12115235624E+04  0.15708784892E+04  0.99993494062E+03 0.  0.
         25    2    3    3    0    0  0.32318232774E+02  0.94514234517E+02 -0.64544403075E+02  0.17224946584E+03  0.12460533623E+03 0.  0.
         35    2    3    3    0    0 -0.32318232774E+02 -0.94514234517E+02 -0.11469791594E+04  0.13986290234E+04  0.79411872177E+03 0.  0.
         22    1    5    5    0    0 -0.32118241500E+03  0.13298151326E+03 -0.24701212657E+03  0.42644720335E+03  0.00000000000E+00 0. -1.
         22    1    5    5    0    0  0.28886418222E+03 -0.22749574778E+03 -0.89996703280E+03  0.97218182001E+03  0.00000000000E+00 0. -1.
          5    1    4    4  502    0  0.51598237633E+02  0.17097720860E+02 -0.73819139254E+02  0.91793602749E+02  0.47000000000E+01 0.  1.
         -5    1    4    4    0  502 -0.19280004859E+02  0.77416513657E+02  0.92747361796E+01  0.80455863089E+02  0.47000000000E+01 0.  1.
<mgrwt>
<rscale>  0 0.99993494E+03</rscale>
<asrwt>0</asrwt>
<pdfrwt beam="1">  1        1 0.21403093E+00 0.99993494E+03</pdfrwt>
<pdfrwt beam="2">  1       -1 0.27642686E-01 0.99993494E+03</pdfrwt>
<totfact> 0.99799165E+01</totfact>
</mgrwt>
</event>
<event>
 9    1  0.4321150E-036  0.9995437E+03  0.7818608E-02  0.8681473E-01
         -2   -1    0    0    0  501 -0.00000000000E+00  0.00000000000E+00  0.31075684080E+03  0.31075684080E+03  0.00000000000E+00 0.  1.
          2   -1    0    0  501    0  0.00000000000E+00 -0.00000000000E+00 -0.80375348836E+03  0.80375348836E+03  0.00000000000E+00 0.  1.
         36    2    1    2    0    0  0.00000000000E+00  0.00000000000E+00 -0.49299664757E+03  0.11145103292E+04  0.99954368554E+03 0.  0.
         25    2    3    3    0    0 -0.76036415408E+02  0.10550359048E+03 -0.15322852334E+03  0.23630988293E+03  0.12430139313E+03 0.  0.
         35    2    3    3    0    0  0.76036415408E+02 -0.10550359048E+03 -0.33976812423E+03  0.87820044623E+03  0.79930038249E+03 0.  0.
         22    1    5    5    0    0 -0.23900942386E+03  0.84033486628E+02  0.12750120604E+03  0.28362596692E+03  0.00000000000E+00 0.  1.
         22    1    5    5    0    0  0.31504583927E+03 -0.18953707711E+03 -0.46726933027E+03  0.59457447931E+03  0.00000000000E+00 0.  1.
          5    1    4    4  502    0 -0.55786427203E+02  0.91607981473E+02 -0.17356053866E+03  0.20408208718E+03  0.47000000000E+01 0.  1.
         -5    1    4    4    0  502 -0.20249988205E+02  0.13895609008E+02  0.20332015318E+02  0.32227795750E+02  0.47000000000E+01 0.  1.
<mgrwt>
<rscale>  0 0.99954369E+03</rscale>
<asrwt>0</asrwt>
<pdfrwt beam="1">  1        2 0.12365438E+00 0.99954369E+03</pdfrwt>
<pdfrwt beam="2">  1       -2 0.47808745E-01 0.99954369E+03</pdfrwt>
<totfact> 0.17174490E+02</totfact>
</mgrwt>
</event>
<event>
 9    1  0.4321150E-036  0.1001271E+04  0.7818608E-02  0.8679829E-01
          1   -1    0    0  501    0  0.00000000000E+00  0.00000000000E+00  0.19466614760E+04  0.19466614760E+04  0.00000000000E+00 0.  1.
         -1   -1    0    0    0  501 -0.00000000000E+00 -0.00000000000E+00 -0.12875162678E+03  0.12875162678E+03  0.00000000000E+00 0.  1.
         36    2    1    2    0    0 -0.28421709430E-13 -0.26645352591E-13  0.18179098492E+04  0.20754131028E+04  0.10012708561E+04 0.  0.
         25    2    3    3    0    0 -0.13329484553E+03  0.13134832742E+02  0.24980517339E+03  0.30967751916E+03  0.12472971397E+03 0.  0.
         35    2    3    3    0    0  0.13329484553E+03 -0.13134832742E+02  0.15681046759E+04  0.17657355836E+04  0.80058093733E+03 0.  0.
         22    1    5    5    0    0 -0.15635916642E+03 -0.32704372592E+03  0.51944947174E+03  0.63342998135E+03  0.00000000000E+00 0. -1.
         22    1    5    5    0    0  0.28965401195E+03  0.31390889318E+03  0.10486552041E+04  0.11323056023E+04  0.00000000000E+00 0. -1.
          5    1    4    4  502    0 -0.13025369685E+03  0.22456410490E+02  0.26190783307E+03  0.29340776905E+03  0.47000000000E+01 0.  1.
         -5    1    4    4    0  502 -0.30411486742E+01 -0.93215777483E+01 -0.12102659687E+02  0.16269750105E+02  0.47000000000E+01 0.  1.
<mgrwt>
<rscale>  0 0.10012709E+04</rscale>
<asrwt>0</asrwt>
<pdfrwt beam="1">  1        1 0.29948636E+00 0.10012709E+04</pdfrwt>
<pdfrwt beam="2">  1       -1 0.19807944E-01 0.10012709E+04</pdfrwt>
<totfact> 0.70529622E+01</totfact>
</mgrwt>
</event>
<event>
 9    1  0.4321150E-036  0.9989815E+03  0.7818608E-02  0.8682008E-01
         -3   -1    0    0    0  501 -0.00000000000E+00  0.00000000000E+00  0.37666566309E+03  0.37666566309E+03  0.00000000000E+00 0. -1.
          3   -1    0    0  501    0  0.00000000000E+00 -0.00000000000E+00 -0.66236724710E+03  0.66236724710E+03  0.00000000000E+00 0. -1.
         36    2    1    2    0    0  0.10658141036E-13  0.00000000000E+00 -0.28570158401E+03  0.10390329102E+04  0.99898147799E+03 0.  0.
         25    2    3    3    0    0  0.22757283286E+02  0.86752926828E+02 -0.16615758034E+03  0.22505274812E+03  0.12245992682E+03 0.  0.
         35    2    3    3    0    0 -0.22757283286E+02 -0.86752926828E+02 -0.11954400367E+03  0.81398016207E+03  0.80014309419E+03 0.  0.
         22    1    5    5    0    0 -0.24677374013E+03 -0.32420366898E+03  0.10131089833E+03  0.41984425198E+03  0.00000000000E+00 0.  1.
         22    1    5    5    0    0  0.22401645685E+03  0.23745074215E+03 -0.22085490200E+03  0.39413591009E+03  0.00000000000E+00 0.  1.
          5    1    4    4  502    0  0.52471795766E+02  0.78017831010E+02 -0.53838615385E+02  0.10844702768E+03  0.47000000000E+01 0. -1.
         -5    1    4    4    0  502 -0.29714512480E+02  0.87350958179E+01 -0.11231896496E+03  0.11660572044E+03  0.47000000000E+01 0. -1.
<mgrwt>
<rscale>  0 0.99898148E+03</rscale>
<asrwt>0</asrwt>
<pdfrwt beam="1">  1        3 0.10190265E+00 0.99898148E+03</pdfrwt>
<pdfrwt beam="2">  1       -3 0.57948564E-01 0.99898148E+03</pdfrwt>
<totfact> 0.10134626E+01</totfact>
</mgrwt>
</event>
<event>
 9    1  0.4321150E-036  0.1000757E+04  0.7818608E-02  0.8680317E-01
          2   -1    0    0  501    0  0.00000000000E+00  0.00000000000E+00  0.67575146807E+03  0.67575146807E+03  0.00000000000E+00 0. -1.
         -2   -1    0    0    0  501 -0.00000000000E+00 -0.00000000000E+00 -0.37051909763E+03  0.37051909763E+03  0.00000000000E+00 0. -1.
         36    2    1    2    0    0 -0.14210854715E-13 -0.42632564146E-13  0.30523237044E+03  0.10462705657E+04  0.10007573615E+04 0.  0.
         25    2    3    3    0    0  0.77908069516E+02 -0.26660251538E+02 -0.62796326269E+02  0.16178139159E+03  0.12429563051E+03 0.  0.
         35    2    3    3    0    0 -0.77908069516E+02  0.26660251538E+02  0.36802869671E+03  0.88448917411E+03  0.80005971103E+03 0.  0.
         22    1    5    5    0    0 -0.23041488934E+02  0.33228230331E+03  0.45327226283E+03  0.56249282978E+03  0.00000000000E+00 0.  1.
         22    1    5    5    0    0 -0.54866580582E+02 -0.30562205177E+03 -0.85243566119E+02  0.32199634433E+03  0.00000000000E+00 0.  1.
          5    1    4    4  502    0  0.90695841659E+02 -0.45004470207E+02 -0.71295995734E+01  0.10160737780E+03  0.47000000000E+01 0. -1.
         -5    1    4    4    0  502 -0.12787772143E+02  0.18344218669E+02 -0.55666726695E+02  0.60174013793E+02  0.47000000000E+01 0. -1.
<mgrwt>
<rscale>  0 0.10007574E+04</rscale>
<asrwt>0</asrwt>
<pdfrwt beam="1">  1        2 0.10396176E+00 0.10007574E+04</pdfrwt>
<pdfrwt beam="2">  1       -2 0.57002938E-01 0.10007574E+04</pdfrwt>
<totfact> 0.14955482E+02</totfact>
</mgrwt>
</event>
<event>
 9    1  0.4321150E-036  0.1000481E+04  0.7818608E-02  0.8680580E-01
         -2   -1    0    0    0  501 -0.00000000000E+00  0.00000000000E+00  0.78508767613E+03  0.78508767613E+03  0.00000000000E+00 0. -1.
          2   -1    0    0  501    0  0.00000000000E+00 -0.00000000000E+00 -0.31874221720E+03  0.31874221720E+03  0.00000000000E+00 0. -1.
         36    2    1    2    0    0 -0.14210854715E-13 -0.28421709430E-13  0.46634545893E+03  0.11038298933E+04  0.10004810575E+04 0.  0.
         25    2    3    3    0    0  0.11540591958E+03 -0.55105781653E+02  0.15020546649E+03  0.23383067765E+03  0.12553856061E+03 0.  0.
         35    2    3    3    0    0 -0.11540591958E+03  0.55105781653E+02  0.31613999244E+03  0.86999921568E+03  0.80037426684E+03 0.  0.
         22    1    5    5    0    0  0.16338569261E+03  0.33940254574E+03  0.26492335778E+02  0.37761199194E+03  0.00000000000E+00 0.  1.
         22    1    5    5    0    0 -0.27879161219E+03 -0.28429676408E+03  0.28964765666E+03  0.49238722374E+03  0.00000000000E+00 0.  1.
          5    1    4    4  502    0  0.63544555366E+01  0.33624217510E+02  0.11828552493E+02  0.36509885817E+02  0.47000000000E+01 0.  1.
         -5    1    4    4    0  502  0.10905146404E+03 -0.88729999163E+02  0.13837691400E+03  0.19732079183E+03  0.47000000000E+01 0.  1.
<mgrwt>
<rscale>  0 0.10004811E+04</rscale>
<asrwt>0</asrwt>
<pdfrwt beam="1">  1        2 0.49037264E-01 0.10004811E+04</pdfrwt>
<pdfrwt beam="2">  1       -2 0.12078272E+00 0.10004811E+04</pdfrwt>
<totfact> 0.62459615E+01</totfact>
</mgrwt>
</event>
<event>
 9    1  0.4321150E-036  0.1000657E+04  0.7818608E-02  0.8680413E-01
         -2   -1    0    0    0  501 -0.00000000000E+00  0.00000000000E+00  0.22935369686E+03  0.22935369686E+03  0.00000000000E+00 0. -1.
          2   -1    0    0  501    0  0.00000000000E+00 -0.00000000000E+00 -0.10914521676E+04  0.10914521676E+04  0.00000000000E+00 0. -1.
         36    2    1    2    0    0  0.00000000000E+00  0.00000000000E+00 -0.86209847075E+03  0.13208058645E+04  0.10006569634E+04 0.  0.
         25    2    3    3    0    0  0.50526302425E+02 -0.13149853419E+03 -0.17492598063E+03  0.25620569689E+03  0.12327809493E+03 0.  0.
         35    2    3    3    0    0 -0.50526302425E+02  0.13149853419E+03 -0.68717249012E+03  0.10646001676E+04  0.80082626949E+03 0.  0.
         22    1    5    5    0    0  0.10724010080E+03  0.21884105730E+03 -0.81035874264E+03  0.84621104894E+03  0.00000000000E+00 0.  1.
         22    1    5    5    0    0 -0.15776640322E+03 -0.87342523110E+02  0.12318625252E+03  0.21838911864E+03  0.00000000000E+00 0.  1.
          5    1    4    4  502    0  0.79932655155E+02 -0.12522118940E+03 -0.16924589746E+03  0.22524617520E+03  0.47000000000E+01 0. -1.
         -5    1    4    4    0  502 -0.29406352730E+02 -0.62773447910E+01 -0.56800831615E+01  0.30959521689E+02  0.47000000000E+01 0. -1.
<mgrwt>
<rscale>  0 0.10006570E+04</rscale>
<asrwt>0</asrwt>
<pdfrwt beam="1">  1        2 0.16791572E+00 0.10006570E+04</pdfrwt>
<pdfrwt beam="2">  1       -2 0.35285183E-01 0.10006570E+04</pdfrwt>
<totfact> 0.20077199E+02</totfact>
</mgrwt>
</event>
<event>
 9    1  0.4321150E-036  0.1000125E+04  0.7818608E-02  0.8680919E-01
          2   -1    0    0  501    0  0.00000000000E+00  0.00000000000E+00  0.48544284523E+03  0.48544284523E+03  0.00000000000E+00 0.  1.
         -2   -1    0    0    0  501 -0.00000000000E+00 -0.00000000000E+00 -0.51512262333E+03  0.51512262333E+03  0.00000000000E+00 0.  1.
         36    2    1    2    0    0  0.00000000000E+00  0.21316282073E-13 -0.29679778096E+02  0.10005654686E+04  0.10001251760E+04 0.  0.
         25    2    3    3    0    0  0.81183418490E+02 -0.25171079559E+02 -0.11556207467E+03  0.19023434151E+03  0.12494070956E+03 0.  0.
         35    2    3    3    0    0 -0.81183418490E+02  0.25171079559E+02  0.85882296571E+02  0.81033112704E+03  0.80127176158E+03 0.  0.
         22    1    5    5    0    0  0.14268812764E+03 -0.11652762583E+03  0.37522472439E+03  0.41800978833E+03  0.00000000000E+00 0. -1.
         22    1    5    5    0    0 -0.22387154613E+03  0.14169870539E+03 -0.28934242781E+03  0.39232133871E+03  0.00000000000E+00 0. -1.
          5    1    4    4  502    0 -0.30747652860E+02  0.52956159413E+01 -0.42966681856E+02  0.53307480285E+02  0.47000000000E+01 0.  1.
         -5    1    4    4    0  502  0.11193107135E+03 -0.30466695500E+02 -0.72595392811E+02  0.13692686123E+03  0.47000000000E+01 0.  1.
<mgrwt>
<rscale>  0 0.10001252E+04</rscale>
<asrwt>0</asrwt>
<pdfrwt beam="1">  1        2 0.74683515E-01 0.10001252E+04</pdfrwt>
<pdfrwt beam="2">  1       -2 0.79249634E-01 0.10001252E+04</pdfrwt>
<totfact> 0.10846298E+02</totfact>
</mgrwt>
</event>
<event>
 9    1  0.4321150E-036  0.9999348E+03  0.7818608E-02  0.8681100E-01
         -1   -1    0    0    0  501 -0.00000000000E+00  0.00000000000E+00  0.22805488303E+03  0.22805488303E+03  0.00000000000E+00 0.  1.
          1   -1    0    0  501    0  0.00000000000E+00 -0.00000000000E+00 -0.10960843049E+04  0.10960843049E+04  0.00000000000E+00 0.  1.
         36    2    1    2    0    0  0.28421709430E-13  0.19539925233E-13 -0.86802942184E+03  0.13241391879E+04  0.99993475374E+03 0.  0.
         25    2    3    3    0    0 -0.11950109787E+03 -0.10050632030E+02 -0.77865595704E+02  0.19025927529E+03  0.12551499211E+03 0.  0.
         35    2    3    3    0    0  0.11950109787E+03  0.10050632030E+02 -0.79016382614E+03  0.11338799126E+04  0.80432782898E+03 0.  0.
         22    1    5    5    0    0 -0.29429525296E+03 -0.13990756871E+03 -0.53129643399E+03  0.62326537242E+03  0.00000000000E+00 0.  1.
         22    1    5    5    0    0  0.41379635082E+03  0.14995820074E+03 -0.25886739215E+03  0.51061454018E+03  0.00000000000E+00 0.  1.
          5    1    4    4  502    0 -0.14165616753E+03 -0.16036617194E+02 -0.44361135509E+02  0.14937751917E+03  0.47000000000E+01 0. -1.
         -5    1    4    4    0  502  0.22155069666E+02  0.59859851642E+01 -0.33504460195E+02  0.40881756118E+02  0.47000000000E+01 0. -1.
<mgrwt>
<rscale>  0 0.99993475E+03</rscale>
<asrwt>0</asrwt>
<pdfrwt beam="1">  1        1 0.16862836E+00 0.99993475E+03</pdfrwt>
<pdfrwt beam="2">  1       -1 0.35085366E-01 0.99993475E+03</pdfrwt>
<totfact> 0.10957203E+02</totfact>
</mgrwt>
</event>
<event>
 9    1  0.4321150E-036  0.1000553E+04  0.7818608E-02  0.8680511E-01
          2   -1    0    0  501    0  0.00000000000E+00  0.00000000000E+00  0.22435700201E+04  0.22435700201E+04  0.00000000000E+00 0.  1.
         -2   -1    0    0    0  501 -0.00000000000E+00 -0.00000000000E+00 -0.11155292355E+03  0.11155292355E+03  0.00000000000E+00 0.  1.
         36    2    1    2    0    0  0.00000000000E+00  0.14210854715E-13  0.21320170965E+04  0.23551229436E+04  0.10005534367E+04 0.  0.
         25    2    3    3    0    0 -0.86488407754E+02  0.32672608420E+02  0.11940808906E+03  0.18736410525E+03  0.11090208378E+03 0.  0.
         35    2    3    3    0    0  0.86488407754E+02 -0.32672608420E+02  0.20126090075E+04  0.21677588384E+04  0.80002226245E+03 0.  0.
         22    1    5    5    0    0  0.89344148018E+02 -0.40555713291E+03  0.83583105984E+03  0.93331266220E+03  0.00000000000E+00 0.  1.
         22    1    5    5    0    0 -0.28557402643E+01  0.37288452449E+03  0.11767779476E+04  0.12344461762E+04  0.00000000000E+00 0.  1.
          5    1    4    4  502    0 -0.34613494898E+02  0.17811826855E+02 -0.15365205097E+02  0.42113355752E+02  0.47000000000E+01 0.  1.
         -5    1    4    4    0  502 -0.51874912856E+02  0.14860781565E+02  0.13477329415E+03  0.14525074950E+03  0.47000000000E+01 0. -1.
<mgrwt>
<rscale>  0 0.10005534E+04</rscale>
<asrwt>0</asrwt>
<pdfrwt beam="1">  1        2 0.34516459E+00 0.10005534E+04</pdfrwt>
<pdfrwt beam="2">  1       -2 0.17161990E-01 0.10005534E+04</pdfrwt>
<totfact> 0.15773987E+02</totfact>
</mgrwt>
</event>
<event>
 9    1  0.4321150E-036  0.1002103E+04  0.7818608E-02  0.8679038E-01
          1   -1    0    0  501    0  0.00000000000E+00  0.00000000000E+00  0.63638412227E+03  0.63638412227E+03  0.00000000000E+00 0.  1.
         -1   -1    0    0    0  501 -0.00000000000E+00 -0.00000000000E+00 -0.39449836025E+03  0.39449836025E+03  0.00000000000E+00 0.  1.
         36    2    1    2    0    0 -0.17763568394E-14  0.00000000000E+00  0.24188576202E+03  0.10308824825E+04  0.10021027746E+04 0.  0.
         25    2    3    3    0    0 -0.36721197230E+01 -0.13945056729E+03  0.27882245139E+02  0.18927370069E+03  0.12484858428E+03 0.  0.
         35    2    3    3    0    0  0.36721197230E+01  0.13945056729E+03  0.21400351688E+03  0.84160878182E+03  0.80190266942E+03 0.  0.
         22    1    5    5    0    0 -0.22597520336E+02 -0.31599694524E+03  0.21942409885E+03  0.38537209614E+03  0.00000000000E+00 0.  1.
         22    1    5    5    0    0  0.26269640059E+02  0.45544751253E+03 -0.54205819696E+01  0.45623668569E+03  0.00000000000E+00 0.  1.
          5    1    4    4  502    0 -0.15042659434E+02 -0.14420005573E+03  0.58132461583E+02  0.15627351268E+03  0.47000000000E+01 0. -1.
         -5    1    4    4    0  502  0.11370539711E+02  0.47494884408E+01 -0.30250216444E+02  0.33000188010E+02  0.47000000000E+01 0. -1.
<mgrwt>
<rscale>  0 0.10021028E+04</rscale>
<asrwt>0</asrwt>
<pdfrwt beam="1">  1        1 0.97905249E-01 0.10021028E+04</pdfrwt>
<pdfrwt beam="2">  1       -1 0.60692055E-01 0.10021028E+04</pdfrwt>
<totfact> 0.10022482E+02</totfact>
</mgrwt>
</event>
<event>
 9    1  0.4321150E-036  0.9991746E+03  0.7818608E-02  0.8681824E-01
         -2   -1    0    0    0  501 -0.00000000000E+00  0.00000000000E+00  0.20761519198E+03  0.20761519198E+03  0.00000000000E+00 0. -1.
          2   -1    0    0  501    0  0.00000000000E+00 -0.00000000000E+00 -0.12021639103E+04  0.12021639103E+04  0.00000000000E+00 0. -1.
         36    2    1    2    0    0  0.14210854715E-13  0.14210854715E-13 -0.99454871830E+03  0.14097791023E+04  0.99917464145E+03 0.  0.
         25    2    3    3    0    0  0.79185899647E+02  0.10028642968E+03 -0.26618973951E+03  0.32106442879E+03  0.12608574595E+03 0.  0.
         35    2    3    3    0    0 -0.79185899647E+02 -0.10028642968E+03 -0.72835897879E+03  0.10887146735E+04  0.79904008884E+03 0.  0.
         22    1    5    5    0    0 -0.22142237978E+03 -0.38702265668E+03 -0.59118560426E+03  0.74048283284E+03  0.00000000000E+00 0. -1.
         22    1    5    5    0    0  0.14223648013E+03  0.28673622700E+03 -0.13717337454E+03  0.34823184064E+03  0.00000000000E+00 0. -1.
          5    1    4    4  502    0  0.51711769874E+01 -0.20343127345E+02 -0.10201412299E+03  0.10425715894E+03  0.47000000000E+01 0.  1.
         -5    1    4    4    0  502  0.74014722659E+02  0.12062955703E+03 -0.16417561652E+03  0.21680726985E+03  0.47000000000E+01 0.  1.
<mgrwt>
<rscale>  0 0.99917464E+03</rscale>
<asrwt>0</asrwt>
<pdfrwt beam="1">  1        2 0.18494830E+00 0.99917464E+03</pdfrwt>
<pdfrwt beam="2">  1       -2 0.31940798E-01 0.99917464E+03</pdfrwt>
<totfact> 0.20728453E+02</totfact>
</mgrwt>
</event>
<event>
 9    1  0.4321150E-036  0.9999725E+03  0.7818608E-02  0.8681064E-01
          2   -1    0    0  501    0  0.00000000000E+00  0.00000000000E+00  0.54958262811E+03  0.54958262811E+03  0.00000000000E+00 0.  1.
         -2   -1    0    0    0  501 -0.00000000000E+00 -0.00000000000E+00 -0.45486565884E+03  0.45486565884E+03  0.00000000000E+00 0.  1.
         36    2    1    2    0    0 -0.28421709430E-13  0.00000000000E+00  0.94716969275E+02  0.10044482869E+04  0.99997252807E+03 0.  0.
         25    2    3    3    0    0 -0.10620286234E+03  0.47212114662E+02 -0.59249547244E+02  0.18137465779E+03  0.12600883263E+03 0.  0.
         35    2    3    3    0    0  0.10620286234E+03 -0.47212114662E+02  0.15396651652E+03  0.82307362915E+03  0.80014778576E+03 0.  0.
         22    1    5    5    0    0 -0.16506631984E+03 -0.35422882070E+03  0.13312837831E+03  0.41285362112E+03  0.00000000000E+00 0. -1.
         22    1    5    5    0    0  0.27126918218E+03  0.30701670604E+03  0.20838138208E+02  0.41022000803E+03  0.00000000000E+00 0. -1.
          5    1    4    4  502    0 -0.14282851103E+01  0.15192825257E+02 -0.69431871592E+02  0.71244204890E+02  0.47000000000E+01 0.  1.
         -5    1    4    4    0  502 -0.10477457723E+03  0.32019289406E+02  0.10182324348E+02  0.11013045290E+03  0.47000000000E+01 0.  1.
<mgrwt>
<rscale>  0 0.99997253E+03</rscale>
<asrwt>0</asrwt>
<pdfrwt beam="1">  1        2 0.84551173E-01 0.99997253E+03</pdfrwt>
<pdfrwt beam="2">  1       -2 0.69979333E-01 0.99997253E+03</pdfrwt>
<totfact> 0.12396808E+02</totfact>
</mgrwt>
</event>
<event>
 9    1  0.4321150E-036  0.9998606E+03  0.7818608E-02  0.8681171E-01
          2   -1    0    0  501    0  0.00000000000E+00  0.00000000000E+00  0.11203228004E+04  0.11203228004E+04  0.00000000000E+00 0. -1.
         -2   -1    0    0    0  501 -0.00000000000E+00 -0.00000000000E+00 -0.22308777310E+03  0.22308777310E+03  0.00000000000E+00 0. -1.
         36    2    1    2    0    0 -0.28421709430E-13  0.14210854715E-13  0.89723502728E+03  0.13434105735E+04  0.99986062768E+03 0.  0.
         25    2    3    3    0    0 -0.13304264650E+03  0.61523916691E+02  0.16082317459E+03  0.24726237274E+03  0.11742678306E+03 0.  0.
         35    2    3    3    0    0  0.13304264650E+03 -0.61523916691E+02  0.73641185269E+03  0.10961482007E+04  0.79859434201E+03 0.  0.
         22    1    5    5    0    0 -0.25346516355E+03 -0.23466919309E+03  0.50983918195E+03  0.61583294063E+03  0.00000000000E+00 0.  1.
         22    1    5    5    0    0  0.38650781005E+03  0.17314527640E+03  0.22657267074E+03  0.48031526011E+03  0.00000000000E+00 0.  1.
          5    1    4    4  502    0 -0.11619270742E+03  0.60387664377E+02  0.58586273311E+02  0.14353346887E+03  0.47000000000E+01 0.  1.
         -5    1    4    4    0  502 -0.16849939081E+02  0.11362523146E+01  0.10223690127E+03  0.10372890387E+03  0.47000000000E+01 0.  1.
<mgrwt>
<rscale>  0 0.99986063E+03</rscale>
<asrwt>0</asrwt>
<pdfrwt beam="1">  1        2 0.17235735E+00 0.99986063E+03</pdfrwt>
<pdfrwt beam="2">  1       -2 0.34321197E-01 0.99986063E+03</pdfrwt>
<totfact> 0.20307607E+02</totfact>
</mgrwt>
</event>
<event>
 9    1  0.4321150E-036  0.1003297E+04  0.7818608E-02  0.8677905E-01
         -2   -1    0    0    0  501 -0.00000000000E+00  0.00000000000E+00  0.53800154909E+03  0.53800154909E+03  0.00000000000E+00 0.  1.
          2   -1    0    0  501    0  0.00000000000E+00 -0.00000000000E+00 -0.46775154211E+03  0.46775154211E+03  0.00000000000E+00 0.  1.
         36    2    1    2    0    0 -0.10658141036E-13  0.71054273576E-14  0.70250006975E+02  0.10057530912E+04  0.10032966745E+04 0.  0.
         25    2    3    3    0    0 -0.15521811814E+01  0.16221649715E+02  0.15540231522E+03  0.20077739779E+03  0.12607986636E+03 0.  0.
         35    2    3    3    0    0  0.15521811814E+01 -0.16221649715E+02 -0.85152308242E+02  0.80497569341E+03  0.80029332135E+03 0.  0.
         22    1    5    5    0    0 -0.30022694324E+03  0.25556116368E+03 -0.47145563335E+02  0.39707736018E+03  0.00000000000E+00 0. -1.
         22    1    5    5    0    0  0.30177912442E+03 -0.27178281339E+03 -0.38006744907E+02  0.40789833323E+03  0.00000000000E+00 0. -1.
          5    1    4    4  502    0  0.31748484868E+02 -0.34924303193E+02  0.18679482874E+02  0.50977311868E+02  0.47000000000E+01 0. -1.
         -5    1    4    4    0  502 -0.33300666049E+02  0.51145952908E+02  0.13672283234E+03  0.14980008592E+03  0.47000000000E+01 0. -1.
<mgrwt>
<rscale>  0 0.10032967E+04</rscale>
<asrwt>0</asrwt>
<pdfrwt beam="1">  1        2 0.71961775E-01 0.10032967E+04</pdfrwt>
<pdfrwt beam="2">  1       -2 0.82769469E-01 0.10032967E+04</pdfrwt>
<totfact> 0.10233460E+02</totfact>
</mgrwt>
</event>
<event>
 9    1  0.4321150E-036  0.9993293E+03  0.7818608E-02  0.8681677E-01
          1   -1    0    0  501    0  0.00000000000E+00  0.00000000000E+00  0.32494233796E+04  0.32494233796E+04  0.00000000000E+00 0.  1.
         -1   -1    0    0    0  501 -0.00000000000E+00 -0.00000000000E+00 -0.76833560558E+02  0.76833560558E+02  0.00000000000E+00 0.  1.
         36    2    1    2    0    0  0.00000000000E+00  0.28421709430E-13  0.31725898191E+04  0.33262569402E+04  0.99932931112E+03 0.  0.
         25    2    3    3    0    0 -0.13583693305E+02  0.13888480451E+03  0.65861542406E+03  0.68454470851E+03  0.12390994911E+03 0.  0.
         35    2    3    3    0    0  0.13583693305E+02 -0.13888480451E+03  0.25139743950E+04  0.26417122317E+04  0.79943902242E+03 0.  0.
         22    1    5    5    0    0 -0.36068673386E+02 -0.46614258400E+03  0.12330674237E+04  0.13187286033E+04  0.00000000000E+00 0.  1.
         22    1    5    5    0    0  0.49652366691E+02  0.32725777949E+03  0.12809069713E+04  0.13229836284E+04  0.00000000000E+00 0.  1.
          5    1    4    4  502    0  0.27033766431E+02  0.57273664880E+02  0.99590155654E+02  0.11811598672E+03  0.47000000000E+01 0. -1.
         -5    1    4    4    0  502 -0.40617459736E+02  0.81611139630E+02  0.55902526841E+03  0.56642872179E+03  0.47000000000E+01 0. -1.
<mgrwt>
<rscale>  0 0.99932931E+03</rscale>
<asrwt>0</asrwt>
<pdfrwt beam="1">  1        1 0.49991118E+00 0.99932931E+03</pdfrwt>
<pdfrwt beam="2">  1       -1 0.11820550E-01 0.99932931E+03</pdfrwt>
<totfact> 0.19269894E+01</totfact>
</mgrwt>
</event>
<event>
 9    1  0.4321150E-036  0.9995980E+03  0.7818608E-02  0.8681421E-01
          2   -1    0    0  501    0  0.00000000000E+00  0.00000000000E+00  0.55698896962E+03  0.55698896962E+03  0.00000000000E+00 0. -1.
         -2   -1    0    0    0  501 -0.00000000000E+00 -0.00000000000E+00 -0.44848115915E+03  0.44848115915E+03  0.00000000000E+00 0. -1.
         36    2    1    2    0    0 -0.14210854715E-13  0.14210854715E-13  0.10850781046E+03  0.10054701288E+04  0.99959803667E+03 0.  0.
         25    2    3    3    0    0 -0.29413506987E+02 -0.66297890111E+02  0.14194447676E+03  0.20256129015E+03  0.12498910815E+03 0.  0.
         35    2    3    3    0    0  0.29413506987E+02  0.66297890111E+02 -0.33436666301E+02  0.80290883862E+03  0.79892679756E+03 0.  0.
         22    1    5    5    0    0  0.34628705814E+03  0.20820536385E+03  0.12261354963E+03  0.42225381315E+03  0.00000000000E+00 0. -1.
         22    1    5    5    0    0 -0.31687355115E+03 -0.14190747374E+03 -0.15605021593E+03  0.38065502547E+03  0.00000000000E+00 0. -1.
          5    1    4    4  502    0  0.13169776407E+02 -0.12309982294E+02 -0.19531662516E+02  0.26991749023E+02  0.47000000000E+01 0. -1.
         -5    1    4    4    0  502 -0.42583283394E+02 -0.53987907817E+02  0.16147613928E+03  0.17556954113E+03  0.47000000000E+01 0. -1.
<mgrwt>
<rscale>  0 0.99959804E+03</rscale>
<asrwt>0</asrwt>
<pdfrwt beam="1">  1        2 0.85690611E-01 0.99959804E+03</pdfrwt>
<pdfrwt beam="2">  1       -2 0.68997102E-01 0.99959804E+03</pdfrwt>
<totfact> 0.12584810E+02</totfact>
</mgrwt>
</event>
<event>
 9    1  0.4321150E-036  0.9985992E+03  0.7818608E-02  0.8682373E-01
         -2   -1    0    0    0  501 -0.00000000000E+00  0.00000000000E+00  0.16457873155E+03  0.16457873155E+03  0.00000000000E+00 0.  1.
          2   -1    0    0  501    0  0.00000000000E+00 -0.00000000000E+00 -0.15147769533E+04  0.15147769533E+04  0.00000000000E+00 0.  1.
         36    2    1    2    0    0 -0.14210854715E-13  0.00000000000E+00 -0.13501982218E+04  0.16793556849E+04  0.99859915795E+03 0.  0.
         25    2    3    3    0    0 -0.87363174112E+02 -0.80741037109E+02 -0.38660223324E+03  0.42313070504E+03  0.12420494169E+03 0.  0.
         35    2    3    3    0    0  0.87363174112E+02  0.80741037109E+02 -0.96359598853E+03  0.12562249798E+04  0.79714022078E+03 0.  0.
         22    1    5    5    0    0  0.22442737838E+02  0.21048558313E+03 -0.10607203654E+04  0.10816355906E+04  0.00000000000E+00 0. -1.
         22    1    5    5    0    0  0.64920436274E+02 -0.12974454603E+03  0.97124376864E+02  0.17458938928E+03  0.00000000000E+00 0. -1.
          5    1    4    4  502    0 -0.96095410979E+02 -0.15259674529E+02 -0.29066502323E+03  0.30655412476E+03  0.47000000000E+01 0.  1.
         -5    1    4    4    0  502  0.87322368672E+01 -0.65481362580E+02 -0.95937210016E+02  0.11657658029E+03  0.47000000000E+01 0.  1.
<mgrwt>
<rscale>  0 0.99859916E+03</rscale>
<asrwt>0</asrwt>
<pdfrwt beam="1">  1        2 0.23304261E+00 0.99859916E+03</pdfrwt>
<pdfrwt beam="2">  1       -2 0.25319804E-01 0.99859916E+03</pdfrwt>
<totfact> 0.20843905E+02</totfact>
</mgrwt>
</event>
<event>
 9    1  0.4321150E-036  0.9974539E+03  0.7818608E-02  0.8683466E-01
         -1   -1    0    0    0  501 -0.00000000000E+00  0.00000000000E+00  0.34333040852E+03  0.34333040852E+03  0.00000000000E+00 0.  1.
          1   -1    0    0  501    0  0.00000000000E+00 -0.00000000000E+00 -0.72445835688E+03  0.72445835688E+03  0.00000000000E+00 0.  1.
         36    2    1    2    0    0  0.14210854715E-13 -0.35527136788E-13 -0.38112794836E+03  0.10677887654E+04  0.99745392600E+03 0.  0.
         25    2    3    3    0    0  0.12631194361E+03  0.26590233174E+02 -0.28853349997E+02  0.18384338118E+03  0.12768760863E+03 0.  0.
         35    2    3    3    0    0 -0.12631194361E+03 -0.26590233174E+02 -0.35227459836E+03  0.88394538422E+03  0.80037510083E+03 0.  0.
         22    1    5    5    0    0 -0.33652795871E+03  0.23267855473E+03 -0.14968810540E+02  0.40940742801E+03  0.00000000000E+00 0. -1.
         22    1    5    5    0    0  0.21021601510E+03 -0.25926878790E+03 -0.33730578782E+03  0.47453795621E+03  0.00000000000E+00 0. -1.
          5    1    4    4  502    0  0.22826939242E+02  0.59782440754E+02  0.16080313417E+02  0.66148891580E+02  0.47000000000E+01 0.  1.
         -5    1    4    4    0  502  0.10348500437E+03 -0.33192207580E+02 -0.44933663414E+02  0.11769448960E+03  0.47000000000E+01 0.  1.
<mgrwt>
<rscale>  0 0.99745393E+03</rscale>
<asrwt>0</asrwt>
<pdfrwt beam="1">  1        1 0.11145513E+00 0.99745393E+03</pdfrwt>
<pdfrwt beam="2">  1       -1 0.52820064E-01 0.99745393E+03</pdfrwt>
<totfact> 0.10713887E+02</totfact>
</mgrwt>
</event>
<event>
 9    1  0.4321150E-036  0.1000208E+04  0.7818608E-02  0.8680840E-01
         -1   -1    0    0    0  501 -0.00000000000E+00  0.00000000000E+00  0.21309050983E+03  0.21309050983E+03  0.00000000000E+00 0.  1.
          1   -1    0    0  501    0  0.00000000000E+00 -0.00000000000E+00 -0.11736984149E+04  0.11736984149E+04  0.00000000000E+00 0.  1.
         36    2    1    2    0    0  0.14210854715E-13  0.14210854715E-13 -0.96060790506E+03  0.13867889247E+04  0.10002079656E+04 0.  0.
         25    2    3    3    0    0 -0.68897378109E+02  0.10490416301E+03 -0.27806318215E+03  0.32964969562E+03  0.12489217922E+03 0.  0.
         35    2    3    3    0    0  0.68897378109E+02 -0.10490416301E+03 -0.68254472292E+03  0.10571392291E+04  0.79744863083E+03 0.  0.
         22    1    5    5    0    0  0.33308989128E+03  0.68151582859E+02 -0.41495432312E+02  0.34251333525E+03  0.00000000000E+00 0. -1.
         22    1    5    5    0    0 -0.26419251317E+03 -0.17305574587E+03 -0.64104929060E+03  0.71462589386E+03  0.00000000000E+00 0. -1.
          5    1    4    4  502    0 -0.80549490133E+02  0.12313271352E+02 -0.15449608448E+03  0.17473112811E+03  0.47000000000E+01 0.  1.
         -5    1    4    4    0  502  0.11652112024E+02  0.92590891655E+02 -0.12356709767E+03  0.15491856751E+03  0.47000000000E+01 0.  1.
<mgrwt>
<rscale>  0 0.10002080E+04</rscale>
<asrwt>0</asrwt>
<pdfrwt beam="1">  1        1 0.18056898E+00 0.10002080E+04</pdfrwt>
<pdfrwt beam="2">  1       -1 0.32783156E-01 0.10002080E+04</pdfrwt>
<totfact> 0.10763494E+02</totfact>
</mgrwt>
</event>
<event>
 9    1  0.4321150E-036  0.1000586E+04  0.7818608E-02  0.8680480E-01
         -2   -1    0    0    0  501 -0.00000000000E+00  0.00000000000E+00  0.46059572404E+03  0.46059572404E+03  0.00000000000E+00 0. -1.
          2   -1    0    0  501    0  0.00000000000E+00 -0.00000000000E+00 -0.54341162127E+03  0.54341162127E+03  0.00000000000E+00 0. -1.
         36    2    1    2    0    0  0.28421709430E-13  0.00000000000E+00 -0.82815897228E+02  0.10040073453E+04  0.10005859666E+04 0.  0.
         25    2    3    3    0    0 -0.11838931450E+03 -0.76304114469E+02  0.20131511885E+01  0.18761010377E+03  0.12391590126E+03 0.  0.
         35    2    3    3    0    0  0.11838931450E+03  0.76304114469E+02 -0.84829048416E+02  0.81639724154E+03  0.79966876947E+03 0.  0.
         22    1    5    5    0    0  0.38052523272E+03  0.28352667240E+03 -0.85870330649E+02  0.48224531141E+03  0.00000000000E+00 0.  1.
         22    1    5    5    0    0 -0.26213591822E+03 -0.20722255793E+03  0.10412822333E+01  0.33415193012E+03  0.00000000000E+00 0.  1.
          5    1    4    4  502    0 -0.38583492435E+02 -0.95279347512E+02 -0.14148137228E+02  0.10387059130E+03  0.47000000000E+01 0. -1.
         -5    1    4    4    0  502 -0.79805822062E+02  0.18975233043E+02  0.16161288416E+02  0.83739512462E+02  0.47000000000E+01 0. -1.
<mgrwt>
<rscale>  0 0.10005860E+04</rscale>
<asrwt>0</asrwt>
<pdfrwt beam="1">  1        2 0.83601788E-01 0.10005860E+04</pdfrwt>
<pdfrwt beam="2">  1       -2 0.70860881E-01 0.10005860E+04</pdfrwt>
<totfact> 0.12222768E+02</totfact>
</mgrwt>
</event>
<event>
 9    1  0.4321150E-036  0.1000091E+04  0.7818608E-02  0.8680951E-01
          2   -1    0    0  501    0  0.00000000000E+00  0.00000000000E+00  0.91429815931E+03  0.91429815931E+03  0.00000000000E+00 0. -1.
         -2   -1    0    0    0  501 -0.00000000000E+00 -0.00000000000E+00 -0.27348344087E+03  0.27348344087E+03  0.00000000000E+00 0. -1.
         36    2    1    2    0    0  0.00000000000E+00 -0.71054273576E-14  0.64081471844E+03  0.11877816002E+04  0.10000908091E+04 0.  0.
         25    2    3    3    0    0  0.78627303752E+02  0.51856625552E+02  0.21667952605E+03  0.26723573428E+03  0.12487416929E+03 0.  0.
         35    2    3    3    0    0 -0.78627303752E+02 -0.51856625552E+02  0.42413519239E+03  0.92054586590E+03  0.81156802998E+03 0.  0.
         22    1    5    5    0    0 -0.44604956805E+03 -0.12748425914E+02  0.25765286112E+03  0.51527442821E+03  0.00000000000E+00 0.  1.
         22    1    5    5    0    0  0.36742226430E+03 -0.39108199637E+02  0.16648233126E+03  0.40527143769E+03  0.00000000000E+00 0.  1.
          5    1    4    4  502    0  0.78990029869E+02  0.22256538018E+02  0.22205797644E+03  0.23678389557E+03  0.47000000000E+01 0. -1.
         -5    1    4    4    0  502 -0.36272611630E+00  0.29600087534E+02 -0.53784503819E+01  0.30451838709E+02  0.47000000000E+01 0. -1.
<mgrwt>
<rscale>  0 0.10000908E+04</rscale>
<asrwt>0</asrwt>
<pdfrwt beam="1">  1        2 0.14066125E+00 0.10000908E+04</pdfrwt>
<pdfrwt beam="2">  1       -2 0.42074376E-01 0.10000908E+04</pdfrwt>
<totfact> 0.18571734E+02</totfact>
</mgrwt>
</event>
<event>
 9    1  0.4321150E-036  0.9997252E+03  0.7818608E-02  0.8681300E-01
          2   -1    0    0  501    0  0.00000000000E+00  0.00000000000E+00  0.22015240107E+04  0.22015240107E+04  0.00000000000E+00 0. -1.
         -2   -1    0    0    0  501 -0.00000000000E+00 -0.00000000000E+00 -0.11349530157E+03  0.11349530157E+03  0.00000000000E+00 0. -1.
         36    2    1    2    0    0  0.17763568394E-13  0.00000000000E+00  0.20880287092E+04  0.23150193123E+04  0.99972522527E+03 0.  0.
         25    2    3    3    0    0 -0.23124357177E+02 -0.80213348105E+02  0.65365019209E+03  0.67066991383E+03  0.12478238089E+03 0.  0.
         35    2    3    3    0    0  0.23124357177E+02  0.80213348105E+02  0.14343785171E+04  0.16443493985E+04  0.79967136808E+03 0.  0.
         22    1    5    5    0    0 -0.14242200304E+03  0.32331557864E+03  0.12459023617E+04  0.12950249747E+04  0.00000000000E+00 0. -1.
         22    1    5    5    0    0  0.16554636022E+03 -0.24310223054E+03  0.18847615541E+03  0.34932442375E+03  0.00000000000E+00 0. -1.
          5    1    4    4  502    0 -0.44935725646E+02 -0.68622435895E+02  0.19857755315E+03  0.21490321720E+03  0.47000000000E+01 0. -1.
         -5    1    4    4    0  502  0.21811368468E+02 -0.11590912210E+02  0.45507263894E+03  0.45576669663E+03  0.47000000000E+01 0. -1.
<mgrwt>
<rscale>  0 0.99972523E+03</rscale>
<asrwt>0</asrwt>
<pdfrwt beam="1">  1        2 0.33869597E+00 0.99972523E+03</pdfrwt>
<pdfrwt beam="2">  1       -2 0.17460817E-01 0.99972523E+03</pdfrwt>
<totfact> 0.16206959E+02</totfact>
</mgrwt>
</event>
<event>
 9    1  0.4321150E-036  0.1000554E+04  0.7818608E-02  0.8680510E-01
         -1   -1    0    0    0  501 -0.00000000000E+00  0.00000000000E+00  0.29402820614E+03  0.29402820614E+03  0.00000000000E+00 0. -1.
          1   -1    0    0  501    0  0.00000000000E+00 -0.00000000000E+00 -0.85120126124E+03  0.85120126124E+03  0.00000000000E+00 0. -1.
         36    2    1    2    0    0  0.00000000000E+00 -0.35527136788E-13 -0.55717305510E+03  0.11452294674E+04  0.10005542062E+04 0.  0.
         25    2    3    3    0    0 -0.11380525214E+03  0.49439782072E+02 -0.18190763657E+03  0.25323143212E+03  0.12505935594E+03 0.  0.
         35    2    3    3    0    0  0.11380525214E+03 -0.49439782072E+02 -0.37526541854E+03  0.89199803526E+03  0.79965019420E+03 0.  0.
         22    1    5    5    0    0  0.30062639025E+03 -0.33298197131E+03 -0.31240662185E+03  0.54667276968E+03  0.00000000000E+00 0.  1.
         22    1    5    5    0    0 -0.18682113811E+03  0.28354218924E+03 -0.62858796685E+02  0.34532526557E+03  0.00000000000E+00 0.  1.
          5    1    4    4  502    0 -0.12338992223E+03  0.77480678748E+02 -0.14424253102E+03  0.20507639124E+03  0.47000000000E+01 0.  1.
         -5    1    4    4    0  502  0.95846700886E+01 -0.28040896675E+02 -0.37665105547E+02  0.48155040888E+02  0.47000000000E+01 0.  1.
<mgrwt>
<rscale>  0 0.10005542E+04</rscale>
<asrwt>0</asrwt>
<pdfrwt beam="1">  1        1 0.13095404E+00 0.10005542E+04</pdfrwt>
<pdfrwt beam="2">  1       -1 0.45235109E-01 0.10005542E+04</pdfrwt>
<totfact> 0.10983607E+02</totfact>
</mgrwt>
</event>
<event>
 9    1  0.4321150E-036  0.1001043E+04  0.7818608E-02  0.8680045E-01
         -1   -1    0    0    0  501 -0.00000000000E+00  0.00000000000E+00  0.15760188213E+03  0.15760188213E+03  0.00000000000E+00 0.  1.
          1   -1    0    0  501    0  0.00000000000E+00 -0.00000000000E+00 -0.15895870735E+04  0.15895870735E+04  0.00000000000E+00 0.  1.
         36    2    1    2    0    0  0.14210854715E-13  0.00000000000E+00 -0.14319851914E+04  0.17471889556E+04  0.10010432850E+04 0.  0.
         25    2    3    3    0    0 -0.78104389446E+02 -0.10186271073E+03 -0.17256822751E+03  0.24894401703E+03  0.12536755156E+03 0.  0.
         35    2    3    3    0    0  0.78104389446E+02  0.10186271073E+03 -0.12594169639E+04  0.14982449386E+04  0.80133045597E+03 0.  0.
         22    1    5    5    0    0  0.24268970454E+03  0.23287015568E+03 -0.12424851096E+04  0.12872047427E+04  0.00000000000E+00 0.  1.
         22    1    5    5    0    0 -0.16458531510E+03 -0.13100744496E+03 -0.16931854252E+02  0.21104019586E+03  0.00000000000E+00 0.  1.
          5    1    4    4  502    0 -0.97633892414E+02 -0.28405962714E+02 -0.11430441273E+03  0.15305836937E+03  0.47000000000E+01 0. -1.
         -5    1    4    4    0  502  0.19529502968E+02 -0.73456748013E+02 -0.58263814781E+02  0.95885647663E+02  0.47000000000E+01 0. -1.
<mgrwt>
<rscale>  0 0.10010433E+04</rscale>
<asrwt>0</asrwt>
<pdfrwt beam="1">  1        1 0.24455185E+00 0.10010433E+04</pdfrwt>
<pdfrwt beam="2">  1       -1 0.24246444E-01 0.10010433E+04</pdfrwt>
<totfact> 0.89852198E+01</totfact>
</mgrwt>
</event>
<event>
 9    1  0.4321150E-036  0.1000303E+04  0.7818608E-02  0.8680749E-01
          1   -1    0    0  501    0  0.00000000000E+00  0.00000000000E+00  0.10388862617E+04  0.10388862617E+04  0.00000000000E+00 0. -1.
         -1   -1    0    0    0  501 -0.00000000000E+00 -0.00000000000E+00 -0.24078837898E+03  0.24078837898E+03  0.00000000000E+00 0. -1.
         36    2    1    2    0    0 -0.14210854715E-13  0.00000000000E+00  0.79809788273E+03  0.12796746407E+04  0.10003034318E+04 0.  0.
         25    2    3    3    0    0 -0.57869275439E+02  0.12652004539E+03  0.17435687582E+03  0.25539256311E+03  0.12437389685E+03 0.  0.
         35    2    3    3    0    0  0.57869275439E+02 -0.12652004539E+03  0.62374100690E+03  0.10242820776E+04  0.80046533705E+03 0.  0.
         22    1    5    5    0    0 -0.21824094912E+03  0.19371962317E+02 -0.96382968783E+02  0.23936177947E+03  0.00000000000E+00 0. -1.
         22    1    5    5    0    0  0.27611022456E+03 -0.14589200771E+03  0.72012397569E+03  0.78492029811E+03  0.00000000000E+00 0. -1.
          5    1    4    4  502    0 -0.73939624027E+00 -0.13435646022E+02  0.70500547565E+02  0.71926910804E+02  0.47000000000E+01 0.  1.
         -5    1    4    4    0  502 -0.57129879199E+02  0.13995569141E+03  0.10385632826E+03  0.18346565230E+03  0.47000000000E+01 0.  1.
<mgrwt>
<rscale>  0 0.10003034E+04</rscale>
<asrwt>0</asrwt>
<pdfrwt beam="1">  1        1 0.15982865E+00 0.10003034E+04</pdfrwt>
<pdfrwt beam="2">  1       -1 0.37044367E-01 0.10003034E+04</pdfrwt>
<totfact> 0.11033636E+02</totfact>
</mgrwt>
</event>
<event>
 9    1  0.4321150E-036  0.1000579E+04  0.7818608E-02  0.8680487E-01
         -1   -1    0    0    0  501 -0.00000000000E+00  0.00000000000E+00  0.31669539845E+03  0.31669539845E+03  0.00000000000E+00 0.  1.
          1   -1    0    0  501    0  0.00000000000E+00 -0.00000000000E+00 -0.79031598180E+03  0.79031598180E+03  0.00000000000E+00 0.  1.
         36    2    1    2    0    0  0.00000000000E+00  0.71054273576E-14 -0.47362058335E+03  0.11070113802E+04  0.10005787021E+04 0.  0.
         25    2    3    3    0    0  0.29794750348E+02 -0.99721111702E+01  0.62057468726E+02  0.14400544958E+03  0.12609230720E+03 0.  0.
         35    2    3    3    0    0 -0.29794750348E+02  0.99721111702E+01 -0.53567805208E+03  0.96300593066E+03  0.79965134707E+03 0.  0.
         22    1    5    5    0    0 -0.24765001431E+02 -0.92303067195E+02 -0.73379422072E+03  0.73999129715E+03  0.00000000000E+00 0.  1.
         22    1    5    5    0    0 -0.50297489173E+01  0.10227517836E+03  0.19811616864E+03  0.22301463351E+03  0.00000000000E+00 0.  1.
          5    1    4    4  502    0  0.57416981051E+02 -0.40510920710E+02  0.72696933953E+02  0.10121649379E+03  0.47000000000E+01 0.  1.
         -5    1    4    4    0  502 -0.27622230703E+02  0.30538809539E+02 -0.10639465228E+02  0.42788955788E+02  0.47000000000E+01 0.  1.
<mgrwt>
<rscale>  0 0.10005787E+04</rscale>
<asrwt>0</asrwt>
<pdfrwt beam="1">  1        1 0.12158707E+00 0.10005787E+04</pdfrwt>
<pdfrwt beam="2">  1       -1 0.48722370E-01 0.10005787E+04</pdfrwt>
<totfact> 0.10836370E+02</totfact>
</mgrwt>
</event>
<event>
 9    1 -0.4321150E-036  0.9996447E+03  0.7818608E-02  0.8681376E-01
         -1   -1    0    0    0  501 -0.00000000000E+00  0.00000000000E+00  0.33282598139E+04  0.33282598139E+04  0.00000000000E+00 0.  1.
          1   -1    0    0  501    0  0.00000000000E+00 -0.00000000000E+00 -0.75060967460E+02  0.75060967460E+02  0.00000000000E+00 0.  1.
         36    2    1    2    0    0  0.00000000000E+00 -0.28421709430E-13  0.32531988464E+04  0.34033207813E+04  0.99964474007E+03 0.  0.
         25    2    3    3    0    0  0.12681962973E+03  0.53700137183E+02  0.71094022032E+03  0.73480864036E+03  0.12466281668E+03 0.  0.
         35    2    3    3    0    0 -0.12681962973E+03 -0.53700137183E+02  0.25422586261E+04  0.26685121409E+04  0.79931921117E+03 0.  0.
         22    1    5    5    0    0 -0.16894067204E+03 -0.41302569640E+03  0.15183282009E+04  0.15825459558E+04  0.00000000000E+00 0. -1.
         22    1    5    5    0    0  0.42121042307E+02  0.35932555922E+03  0.10239304252E+04  0.10859661852E+04  0.00000000000E+00 0. -1.
          5    1    4    4  502    0  0.62717364793E+02  0.32857517747E+02  0.11556434367E+03  0.13561081021E+03  0.47000000000E+01 0. -1.
         -5    1    4    4    0  502  0.64102264938E+02  0.20842619436E+02  0.59537587665E+03  0.59919783015E+03  0.47000000000E+01 0. -1.
<mgrwt>
<rscale>  0 0.99964474E+03</rscale>
<asrwt>0</asrwt>
<pdfrwt beam="1">  1        1 0.11547844E-01 0.99964474E+03</pdfrwt>
<pdfrwt beam="2">  1       -1 0.51203986E+00 0.99964474E+03</pdfrwt>
<totfact>-0.29093473E+00</totfact>
</mgrwt>
</event>
<event>
 9    1  0.4321150E-036  0.1000566E+04  0.7818608E-02  0.8680499E-01
         -2   -1    0    0    0  501 -0.00000000000E+00  0.00000000000E+00  0.97049477780E+02  0.97049477780E+02  0.00000000000E+00 0.  1.
          2   -1    0    0  501    0  0.00000000000E+00 -0.00000000000E+00 -0.25789218407E+04  0.25789218407E+04  0.00000000000E+00 0.  1.
         36    2    1    2    0    0  0.00000000000E+00  0.00000000000E+00 -0.24818723630E+04  0.26759713185E+04  0.10005658756E+04 0.  0.
         25    2    3    3    0    0 -0.62231192596E+02  0.81060974935E+02 -0.72631930237E+03  0.74405724290E+03  0.12505138437E+03 0.  0.
         35    2    3    3    0    0  0.62231192596E+02 -0.81060974935E+02 -0.17555530606E+04  0.19319140756E+04  0.79992614911E+03 0.  0.
         22    1    5    5    0    0 -0.14623153619E+03 -0.30781237065E+02  0.13376894490E+02  0.15003362303E+03  0.00000000000E+00 0.  1.
         22    1    5    5    0    0  0.20846272879E+03 -0.50279737870E+02 -0.17689299551E+04  0.17818804526E+04  0.00000000000E+00 0.  1.
          5    1    4    4  502    0  0.25619466908E+02 -0.56363204228E+01 -0.27015858724E+03  0.27146984630E+03  0.47000000000E+01 0. -1.
         -5    1    4    4    0  502 -0.87850659504E+02  0.86697295358E+02 -0.45616071513E+03  0.47258739660E+03  0.47000000000E+01 0. -1.
<mgrwt>
<rscale>  0 0.10005659E+04</rscale>
<asrwt>0</asrwt>
<pdfrwt beam="1">  1        2 0.39675722E+00 0.10005659E+04</pdfrwt>
<pdfrwt beam="2">  1       -2 0.14930688E-01 0.10005659E+04</pdfrwt>
<totfact> 0.12555720E+02</totfact>
</mgrwt>
</event>
<event>
 9    1  0.4321150E-036  0.9997017E+03  0.7818608E-02  0.8681322E-01
          2   -1    0    0  501    0  0.00000000000E+00  0.00000000000E+00  0.79996911032E+03  0.79996911032E+03  0.00000000000E+00 0.  1.
         -2   -1    0    0    0  501 -0.00000000000E+00 -0.00000000000E+00 -0.31232567175E+03  0.31232567175E+03  0.00000000000E+00 0.  1.
         36    2    1    2    0    0 -0.28421709430E-13 -0.14210854715E-13  0.48764343856E+03  0.11122947821E+04  0.99970173505E+03 0.  0.
         25    2    3    3    0    0 -0.12427930898E+03 -0.49078393463E+02  0.83115549290E+02  0.20588092988E+03  0.13275815383E+03 0.  0.
         35    2    3    3    0    0  0.12427930898E+03  0.49078393463E+02  0.40452788927E+03  0.90641385219E+03  0.80005576237E+03 0.  0.
         22    1    5    5    0    0 -0.30770179572E+03  0.13626357601E+03  0.48756124247E+02  0.34003722868E+03  0.00000000000E+00 0. -1.
         22    1    5    5    0    0  0.43198110470E+03 -0.87185182544E+02  0.35577176503E+03  0.56637662352E+03  0.00000000000E+00 0. -1.
          5    1    4    4  502    0 -0.55743307546E+02  0.10365110635E+01  0.10420051393E+03  0.11827183855E+03  0.47000000000E+01 0. -1.
         -5    1    4    4    0  502 -0.68536001437E+02 -0.50114904526E+02 -0.21084964643E+02  0.87609091324E+02  0.47000000000E+01 0. -1.
<mgrwt>
<rscale>  0 0.99970174E+03</rscale>
<asrwt>0</asrwt>
<pdfrwt beam="1">  1        2 0.12307217E+00 0.99970174E+03</pdfrwt>
<pdfrwt beam="2">  1       -2 0.48050104E-01 0.99970174E+03</pdfrwt>
<totfact> 0.17107844E+02</totfact>
</mgrwt>
</event>
<event>
 9    1  0.4321150E-036  0.1000093E+04  0.7818608E-02  0.8680949E-01
         -2   -1    0    0    0  501 -0.00000000000E+00  0.00000000000E+00  0.10749041661E+03  0.10749041661E+03  0.00000000000E+00 0. -1.
          2   -1    0    0  501    0  0.00000000000E+00 -0.00000000000E+00 -0.23262230087E+04  0.23262230087E+04  0.00000000000E+00 0. -1.
         36    2    1    2    0    0  0.21316282073E-13  0.14210854715E-13 -0.22187325921E+04  0.24337134253E+04  0.10000933563E+04 0.  0.
         25    2    3    3    0    0 -0.26517183609E+02 -0.11274026602E+03 -0.22594926610E+03  0.28336373121E+03  0.12581098801E+03 0.  0.
         35    2    3    3    0    0  0.26517183609E+02  0.11274026602E+03 -0.19927833260E+04  0.21503496941E+04  0.79962797222E+03 0.  0.
         22    1    5    5    0    0  0.19674907908E+03 -0.12453750934E+03 -0.17641973813E+04  0.17794977357E+04  0.00000000000E+00 0.  1.
         22    1    5    5    0    0 -0.17023189547E+03  0.23727777535E+03 -0.22858594473E+03  0.37085195839E+03  0.00000000000E+00 0.  1.
          5    1    4    4  502    0  0.10666422801E+02 -0.10162220648E+03 -0.73436070452E+02  0.12591978347E+03  0.47000000000E+01 0.  1.
         -5    1    4    4    0  502 -0.37183606410E+02 -0.11118059539E+02 -0.15251319565E+03  0.15744394774E+03  0.47000000000E+01 0.  1.
<mgrwt>
<rscale>  0 0.10000934E+04</rscale>
<asrwt>0</asrwt>
<pdfrwt beam="1">  1        2 0.35788047E+00 0.10000934E+04</pdfrwt>
<pdfrwt beam="2">  1       -2 0.16536987E-01 0.10000934E+04</pdfrwt>
<totfact> 0.15019873E+02</totfact>
</mgrwt>
</event>
<event>
 9    1  0.4321150E-036  0.9998732E+03  0.7818608E-02  0.8681159E-01
          2   -1    0    0  501    0  0.00000000000E+00  0.00000000000E+00  0.38947496499E+04  0.38947496499E+04  0.00000000000E+00 0.  1.
         -2   -1    0    0    0  501 -0.00000000000E+00 -0.00000000000E+00 -0.64172701548E+02  0.64172701548E+02  0.00000000000E+00 0.  1.
         36    2    1    2    0    0  0.14210854715E-13  0.00000000000E+00  0.38305769483E+04  0.39589223514E+04  0.99987320574E+03 0.  0.
         25    2    3    3    0    0 -0.38542660970E+02  0.13206779957E+03  0.62713272960E+03  0.65424279230E+03  0.12574072667E+03 0.  0.
         35    2    3    3    0    0  0.38542660970E+02 -0.13206779957E+03  0.32034442187E+04  0.33046795591E+04  0.79995292711E+03 0.  0.
         22    1    5    5    0    0  0.25544376322E+02  0.32100079214E+02  0.31196236483E+04  0.31198933696E+04  0.00000000000E+00 0. -1.
         22    1    5    5    0    0  0.12998284647E+02 -0.16416787879E+03  0.83820570398E+02  0.18478618956E+03  0.00000000000E+00 0. -1.
          5    1    4    4  502    0 -0.44754316044E+02  0.13838161574E+03  0.38002669991E+03  0.40693341350E+03  0.47000000000E+01 0. -1.
         -5    1    4    4    0  502  0.62116550747E+01 -0.63138161685E+01  0.24710602969E+03  0.24730937880E+03  0.47000000000E+01 0. -1.
<mgrwt>
<rscale>  0 0.99987321E+03</rscale>
<asrwt>0</asrwt>
<pdfrwt beam="1">  1        2 0.59919207E+00 0.99987321E+03</pdfrwt>
<pdfrwt beam="2">  1       -2 0.98727263E-02 0.99987321E+03</pdfrwt>
<totfact> 0.28522074E+01</totfact>
</mgrwt>
</event>
<event>
 9    1  0.4321150E-036  0.9998975E+03  0.7818608E-02  0.8681136E-01
          1   -1    0    0  501    0  0.00000000000E+00  0.00000000000E+00  0.55390693574E+03  0.55390693574E+03  0.00000000000E+00 0.  1.
         -1   -1    0    0    0  501 -0.00000000000E+00 -0.00000000000E+00 -0.45124688188E+03  0.45124688188E+03  0.00000000000E+00 0.  1.
         36    2    1    2    0    0  0.88817841970E-14  0.28421709430E-13  0.10266005386E+03  0.10051538176E+04  0.99989754996E+03 0.  0.
         25    2    3    3    0    0  0.49507051392E+01  0.12858638635E+03  0.74957920966E+02  0.19376415452E+03  0.12396325838E+03 0.  0.
         35    2    3    3    0    0 -0.49507051392E+01 -0.12858638635E+03  0.27702132891E+02  0.81138966310E+03  0.80064149841E+03 0.  0.
         22    1    5    5    0    0  0.26777662728E+03 -0.35882401165E+03 -0.34658946360E+02  0.44906595954E+03  0.00000000000E+00 0. -1.
         22    1    5    5    0    0 -0.27272733242E+03  0.23023762530E+03  0.62361079251E+02  0.36232370356E+03  0.00000000000E+00 0. -1.
          5    1    4    4  502    0  0.10787303021E+02 -0.13430542981E+02 -0.16800418043E+02  0.24517125395E+02  0.47000000000E+01 0.  1.
         -5    1    4    4    0  502 -0.58365978819E+01  0.14201692933E+03  0.91758339010E+02  0.16924702913E+03  0.47000000000E+01 0.  1.
<mgrwt>
<rscale>  0 0.99989755E+03</rscale>
<asrwt>0</asrwt>
<pdfrwt beam="1">  1        1 0.85216452E-01 0.99989755E+03</pdfrwt>
<pdfrwt beam="2">  1       -1 0.69422597E-01 0.99989755E+03</pdfrwt>
<totfact> 0.94413656E+01</totfact>
</mgrwt>
</event>
<event>
 9    1  0.4321150E-036  0.1000619E+04  0.7818608E-02  0.8680448E-01
          1   -1    0    0  501    0  0.00000000000E+00  0.00000000000E+00  0.33497880554E+03  0.33497880554E+03  0.00000000000E+00 0. -1.
         -1   -1    0    0    0  501 -0.00000000000E+00 -0.00000000000E+00 -0.74724076014E+03  0.74724076014E+03  0.00000000000E+00 0. -1.
         36    2    1    2    0    0  0.28421709430E-13  0.14210854715E-13 -0.41226195459E+03  0.10822195657E+04  0.10006194427E+04 0.  0.
         25    2    3    3    0    0  0.85042623291E+02 -0.43109200065E+02 -0.18904625659E+03  0.24588878133E+03  0.12502861571E+03 0.  0.
         35    2    3    3    0    0 -0.85042623291E+02  0.43109200065E+02 -0.22321569800E+03  0.83633078435E+03  0.80033323191E+03 0.  0.
         22    1    5    5    0    0  0.16390609743E+03  0.34659607241E+03  0.27476135682E+01  0.38340787103E+03  0.00000000000E+00 0.  1.
         22    1    5    5    0    0 -0.24894872072E+03 -0.30348687235E+03 -0.22596331157E+03  0.45292291332E+03  0.00000000000E+00 0.  1.
          5    1    4    4  502    0  0.98745030795E+02 -0.28675662643E+02 -0.19831549574E+03  0.22343679326E+03  0.47000000000E+01 0.  1.
         -5    1    4    4    0  502 -0.13702407504E+02 -0.14433537422E+02  0.92692391442E+01  0.22451988068E+02  0.47000000000E+01 0.  1.
<mgrwt>
<rscale>  0 0.10006194E+04</rscale>
<asrwt>0</asrwt>
<pdfrwt beam="1">  1        1 0.51535201E-01 0.10006194E+04</pdfrwt>
<pdfrwt beam="2">  1       -1 0.11496012E+00 0.10006194E+04</pdfrwt>
<totfact> 0.62701625E+01</totfact>
</mgrwt>
</event>
<event>
 9    1  0.4321150E-036  0.1000606E+04  0.7818608E-02  0.8680461E-01
          2   -1    0    0  501    0  0.00000000000E+00  0.00000000000E+00  0.28647371692E+04  0.28647371692E+04  0.00000000000E+00 0.  1.
         -2   -1    0    0    0  501 -0.00000000000E+00 -0.00000000000E+00 -0.87373794903E+02  0.87373794903E+02  0.00000000000E+00 0.  1.
         36    2    1    2    0    0  0.00000000000E+00 -0.17763568394E-13  0.27773633743E+04  0.29521109641E+04  0.10006057323E+04 0.  0.
         25    2    3    3    0    0  0.13761763757E+03 -0.30169052573E+02  0.55654182649E+03  0.58757842005E+03  0.12514315472E+03 0.  0.
         35    2    3    3    0    0 -0.13761763757E+03  0.30169052573E+02  0.22208215478E+04  0.23645325441E+04  0.79944794627E+03 0.  0.
         22    1    5    5    0    0 -0.38113166587E+02  0.20867919187E+03  0.21305994317E+04  0.21411337083E+04  0.00000000000E+00 0.  1.
         22    1    5    5    0    0 -0.99504470982E+02 -0.17851013930E+03  0.90222116143E+02  0.22339883576E+03  0.00000000000E+00 0.  1.
          5    1    4    4  502    0  0.13081293931E+03  0.20056213462E+02  0.33410560320E+03  0.35939243298E+03  0.47000000000E+01 0.  1.
         -5    1    4    4    0  502  0.68046982610E+01 -0.50225266035E+02  0.22243622329E+03  0.22818598708E+03  0.47000000000E+01 0.  1.
<mgrwt>
<rscale>  0 0.10006057E+04</rscale>
<asrwt>0</asrwt>
<pdfrwt beam="1">  1        2 0.44072872E+00 0.10006057E+04</pdfrwt>
<pdfrwt beam="2">  1       -2 0.13442124E-01 0.10006057E+04</pdfrwt>
<totfact> 0.98643556E+01</totfact>
</mgrwt>
</event>
<event>
 9    1  0.4321150E-036  0.9993201E+03  0.7818608E-02  0.8681686E-01
         -2   -1    0    0    0  501 -0.00000000000E+00  0.00000000000E+00  0.29496308539E+03  0.29496308539E+03  0.00000000000E+00 0.  1.
          2   -1    0    0  501    0  0.00000000000E+00 -0.00000000000E+00 -0.84641151139E+03  0.84641151139E+03  0.00000000000E+00 0.  1.
         36    2    1    2    0    0 -0.21316282073E-13  0.00000000000E+00 -0.55144842600E+03  0.11413745968E+04  0.99932007066E+03 0.  0.
         25    2    3    3    0    0  0.61775975357E+01  0.10872884582E+03 -0.20594387253E+03  0.26470904427E+03  0.12568959727E+03 0.  0.
         35    2    3    3    0    0 -0.61775975357E+01 -0.10872884582E+03 -0.34550455347E+03  0.87666555251E+03  0.79831633445E+03 0.  0.
         22    1    5    5    0    0 -0.25777914084E+03 -0.24673869872E+03 -0.44728501940E+03  0.57218350158E+03  0.00000000000E+00 0. -1.
         22    1    5    5    0    0  0.25160154331E+03  0.13800985290E+03  0.10178046593E+03  0.30448205093E+03  0.00000000000E+00 0. -1.
          5    1    4    4  502    0 -0.58423123986E+02  0.60420596124E+02 -0.88367804949E+02  0.12204453615E+03  0.47000000000E+01 0. -1.
         -5    1    4    4    0  502  0.64600721521E+02  0.48308249699E+02 -0.11757606758E+03  0.14266450812E+03  0.47000000000E+01 0. -1.
<mgrwt>
<rscale>  0 0.99932007E+03</rscale>
<asrwt>0</asrwt>
<pdfrwt beam="1">  1        2 0.13021715E+00 0.99932007E+03</pdfrwt>
<pdfrwt beam="2">  1       -2 0.45378937E-01 0.99932007E+03</pdfrwt>
<totfact> 0.17789023E+02</totfact>
</mgrwt>
</event>
<event>
 9    1  0.4321150E-036  0.9994274E+03  0.7818608E-02  0.8681583E-01
          1   -1    0    0  501    0  0.00000000000E+00  0.00000000000E+00  0.63429168090E+03  0.63429168090E+03  0.00000000000E+00 0.  1.
         -1   -1    0    0    0  501 -0.00000000000E+00 -0.00000000000E+00 -0.39368922817E+03  0.39368922817E+03  0.00000000000E+00 0.  1.
         36    2    1    2    0    0  0.14210854715E-13  0.00000000000E+00  0.24060245272E+03  0.10279809091E+04  0.99942744066E+03 0.  0.
         25    2    3    3    0    0  0.80605431721E+02  0.71185305817E+02  0.13535368952E+03  0.21350801893E+03  0.12530151434E+03 0.  0.
         35    2    3    3    0    0 -0.80605431721E+02 -0.71185305817E+02  0.10524876320E+03  0.81447289013E+03  0.80045249904E+03 0.  0.
         22    1    5    5    0    0 -0.29828634258E+03 -0.91785883033E+02  0.36152295950E+03  0.47759631567E+03  0.00000000000E+00 0. -1.
         22    1    5    5    0    0  0.21768091086E+03  0.20600577216E+02 -0.25627419630E+03  0.33687657446E+03  0.00000000000E+00 0. -1.
          5    1    4    4  502    0  0.20324756180E+02  0.51573003767E+02  0.13912065785E+03  0.14983163174E+03  0.47000000000E+01 0.  1.
         -5    1    4    4    0  502  0.60280675541E+02  0.19612302050E+02 -0.37669683239E+01  0.63676387191E+02  0.47000000000E+01 0.  1.
<mgrwt>
<rscale>  0 0.99942744E+03</rscale>
<asrwt>0</asrwt>
<pdfrwt beam="1">  1        1 0.97583335E-01 0.99942744E+03</pdfrwt>
<pdfrwt beam="2">  1       -1 0.60567574E-01 0.99942744E+03</pdfrwt>
<totfact> 0.10113900E+02</totfact>
</mgrwt>
</event>
<event>
 9    1  0.4321150E-036  0.1000685E+04  0.7818608E-02  0.8680386E-01
          2   -1    0    0  501    0  0.00000000000E+00  0.00000000000E+00  0.11397407890E+04  0.11397407890E+04  0.00000000000E+00 0. -1.
         -2   -1    0    0    0  501 -0.00000000000E+00 -0.00000000000E+00 -0.21964889659E+03  0.21964889659E+03  0.00000000000E+00 0. -1.
         36    2    1    2    0    0 -0.14210854715E-13 -0.14210854715E-13  0.92009189238E+03  0.13593896856E+04  0.10006853785E+04 0.  0.
         25    2    3    3    0    0  0.52871893454E+02  0.57082767330E+02  0.13884033146E+02  0.14742176680E+03  0.12444489346E+03 0.  0.
         35    2    3    3    0    0 -0.52871893454E+02 -0.57082767330E+02  0.90620785923E+03  0.12119679187E+04  0.80099917135E+03 0.  0.
         22    1    5    5    0    0  0.26690472976E+03  0.22862059015E+03  0.26310718975E+03  0.43901127810E+03  0.00000000000E+00 0.  1.
         22    1    5    5    0    0 -0.31977662321E+03 -0.28570335748E+03  0.64310066949E+03  0.77295664065E+03  0.00000000000E+00 0.  1.
          5    1    4    4  502    0  0.88333419269E+01 -0.11298723776E+02  0.54384168606E+02  0.56439497548E+02  0.47000000000E+01 0.  1.
         -5    1    4    4    0  502  0.44038551527E+02  0.68381491106E+02 -0.40500135460E+02  0.90982269255E+02  0.47000000000E+01 0.  1.
<mgrwt>
<rscale>  0 0.10006854E+04</rscale>
<asrwt>0</asrwt>
<pdfrwt beam="1">  1        2 0.17534473E+00 0.10006854E+04</pdfrwt>
<pdfrwt beam="2">  1       -2 0.33792139E-01 0.10006854E+04</pdfrwt>
<totfact> 0.20348002E+02</totfact>
</mgrwt>
</event>
<event>
 9    1  0.4321150E-036  0.9969586E+03  0.7818608E-02  0.8683940E-01
          1   -1    0    0  501    0  0.00000000000E+00  0.00000000000E+00  0.27928374549E+04  0.27928374549E+04  0.00000000000E+00 0.  1.
         -1   -1    0    0    0  501 -0.00000000000E+00 -0.00000000000E+00 -0.88971020700E+02  0.88971020700E+02  0.00000000000E+00 0.  1.
         36    2    1    2    0    0 -0.71054273576E-14  0.00000000000E+00  0.27038664342E+04  0.28818084756E+04  0.99695857288E+03 0.  0.
         25    2    3    3    0    0 -0.14605808234E+02  0.13216161003E+03  0.54123460089E+03  0.57212759476E+03  0.12928677692E+03 0.  0.
         35    2    3    3    0    0  0.14605808234E+02 -0.13216161003E+03  0.21626318333E+04  0.23096808808E+04  0.79998081482E+03 0.  0.
         22    1    5    5    0    0 -0.29934208243E+03  0.15810739333E+03  0.13455970168E+04  0.13875283643E+04  0.00000000000E+00 0.  1.
         22    1    5    5    0    0  0.31394789067E+03 -0.29026900335E+03  0.81703481654E+03  0.92215251656E+03  0.00000000000E+00 0.  1.
          5    1    4    4  502    0 -0.85535285127E+01  0.14640607145E+03  0.34084998912E+03  0.37109123635E+03  0.47000000000E+01 0.  1.
         -5    1    4    4    0  502 -0.60522797217E+01 -0.14244461423E+02  0.20038461176E+03  0.20103635841E+03  0.47000000000E+01 0.  1.
<mgrwt>
<rscale>  0 0.99695857E+03</rscale>
<asrwt>0</asrwt>
<pdfrwt beam="1">  1        1 0.42966723E+00 0.99695857E+03</pdfrwt>
<pdfrwt beam="2">  1       -1 0.13687851E-01 0.99695857E+03</pdfrwt>
<totfact> 0.32710695E+01</totfact>
</mgrwt>
</event>
<event>
 9    1  0.4321150E-036  0.9992747E+03  0.7818608E-02  0.8681729E-01
          2   -1    0    0  501    0  0.00000000000E+00  0.00000000000E+00  0.23409715693E+04  0.23409715693E+04  0.00000000000E+00 0. -1.
         -2   -1    0    0    0  501 -0.00000000000E+00 -0.00000000000E+00 -0.10663840634E+03  0.10663840634E+03  0.00000000000E+00 0. -1.
         36    2    1    2    0    0  0.28421709430E-13  0.00000000000E+00  0.22343331629E+04  0.24476099756E+04  0.99927469182E+03 0.  0.
         25    2    3    3    0    0 -0.53190763657E+02 -0.10265923138E+03  0.56630345284E+03  0.59329416675E+03  0.13390366864E+03 0.  0.
         35    2    3    3    0    0  0.53190763657E+02  0.10265923138E+03  0.16680297101E+04  0.18543158089E+04  0.80174548961E+03 0.  0.
         22    1    5    5    0    0 -0.36712681479E+03 -0.32294569291E+02  0.74937800584E+03  0.83510025325E+03  0.00000000000E+00 0.  1.
         22    1    5    5    0    0  0.42031757845E+03  0.13495380067E+03  0.91865170426E+03  0.10192155556E+04  0.00000000000E+00 0.  1.
          5    1    4    4  502    0  0.43770490199E+02 -0.44950546693E+02  0.17242337692E+03  0.18354377780E+03  0.47000000000E+01 0. -1.
         -5    1    4    4    0  502 -0.96961253856E+02 -0.57708684682E+02  0.39388007592E+03  0.40975038895E+03  0.47000000000E+01 0. -1.
<mgrwt>
<rscale>  0 0.99927469E+03</rscale>
<asrwt>0</asrwt>
<pdfrwt beam="1">  1        2 0.36014943E+00 0.99927469E+03</pdfrwt>
<pdfrwt beam="2">  1       -2 0.16405910E-01 0.99927469E+03</pdfrwt>
<totfact> 0.14920718E+02</totfact>
</mgrwt>
</event>
<event>
 9    1  0.4321150E-036  0.9996378E+03  0.7818608E-02  0.8681383E-01
         -2   -1    0    0    0  501 -0.00000000000E+00  0.00000000000E+00  0.17936996469E+03  0.17936996469E+03  0.00000000000E+00 0.  1.
          2   -1    0    0  501    0  0.00000000000E+00 -0.00000000000E+00 -0.13927578607E+04  0.13927578607E+04  0.00000000000E+00 0.  1.
         36    2    1    2    0    0  0.71054273576E-14  0.00000000000E+00 -0.12133878960E+04  0.15721278254E+04  0.99963779101E+03 0.  0.
         25    2    3    3    0    0  0.46853384855E+02 -0.12885582515E+03 -0.26857299733E+03  0.32667512315E+03  0.12564281852E+03 0.  0.
         35    2    3    3    0    0 -0.46853384855E+02  0.12885582515E+03 -0.94481489870E+03  0.12454527023E+04  0.79979883560E+03 0.  0.
         22    1    5    5    0    0 -0.20827757794E+03  0.23428318812E+03 -0.34990704140E+02  0.31542433496E+03  0.00000000000E+00 0.  1.
         22    1    5    5    0    0  0.16142419309E+03 -0.10542736298E+03 -0.90982419456E+03  0.93002836730E+03  0.00000000000E+00 0.  1.
          5    1    4    4  502    0  0.45908735926E+02 -0.17270268995E+02 -0.17234341438E+03  0.17924903544E+03  0.47000000000E+01 0. -1.
         -5    1    4    4    0  502  0.94464892850E+00 -0.11158555615E+03 -0.96229582945E+02  0.14742608771E+03  0.47000000000E+01 0. -1.
<mgrwt>
<rscale>  0 0.99963779E+03</rscale>
<asrwt>0</asrwt>
<pdfrwt beam="1">  1        2 0.21427044E+00 0.99963779E+03</pdfrwt>
<pdfrwt beam="2">  1       -2 0.27595380E-01 0.99963779E+03</pdfrwt>
<totfact> 0.20965560E+02</totfact>
</mgrwt>
</event>
<event>
 9    1  0.4321150E-036  0.1000221E+04  0.7818608E-02  0.8680828E-01
         -1   -1    0    0    0  501 -0.00000000000E+00  0.00000000000E+00  0.12144404936E+03  0.12144404936E+03  0.00000000000E+00 0.  1.
          1   -1    0    0  501    0  0.00000000000E+00 -0.00000000000E+00 -0.20594699251E+04  0.20594699251E+04  0.00000000000E+00 0.  1.
         36    2    1    2    0    0  0.14210854715E-13  0.28421709430E-13 -0.19380258757E+04  0.21809139744E+04  0.10002207101E+04 0.  0.
         25    2    3    3    0    0 -0.34628890482E+02  0.12578086202E+03 -0.46806219148E+03  0.50162654627E+03  0.12460734939E+03 0.  0.
         35    2    3    3    0    0  0.34628890482E+02 -0.12578086202E+03 -0.14699636842E+04  0.16792874281E+04  0.80136948290E+03 0.  0.
         22    1    5    5    0    0 -0.24939858917E+03 -0.36397424070E+03 -0.79431333902E+03  0.90863115989E+03  0.00000000000E+00 0. -1.
         22    1    5    5    0    0  0.28402747965E+03  0.23819337868E+03 -0.67565034518E+03  0.77065626825E+03  0.00000000000E+00 0. -1.
          5    1    4    4  502    0 -0.19539932179E+01  0.85265554702E+01 -0.26246411475E+03  0.26265190228E+03  0.47000000000E+01 0.  1.
         -5    1    4    4    0  502 -0.32674897264E+02  0.11725430655E+03 -0.20559807673E+03  0.23897464399E+03  0.47000000000E+01 0.  1.
<mgrwt>
<rscale>  0 0.10002207E+04</rscale>
<asrwt>0</asrwt>
<pdfrwt beam="1">  1        1 0.31684153E+00 0.10002207E+04</pdfrwt>
<pdfrwt beam="2">  1       -1 0.18683700E-01 0.10002207E+04</pdfrwt>
<totfact> 0.64734694E+01</totfact>
</mgrwt>
</event>
<event>
 9    1  0.4321150E-036  0.1000475E+04  0.7818608E-02  0.8680586E-01
         -2   -1    0    0    0  501 -0.00000000000E+00  0.00000000000E+00  0.59174422385E+02  0.59174422385E+02  0.00000000000E+00 0.  1.
          2   -1    0    0  501    0  0.00000000000E+00 -0.00000000000E+00 -0.42288123428E+04  0.42288123428E+04  0.00000000000E+00 0.  1.
         36    2    1    2    0    0 -0.56843418861E-13 -0.14210854715E-13 -0.41696379205E+04  0.42879867652E+04  0.10004749427E+04 0.  0.
         25    2    3    3    0    0 -0.12984432862E+03 -0.24971189925E+02 -0.99700117923E+03  0.10134514790E+04  0.12485767443E+03 0.  0.
         35    2    3    3    0    0  0.12984432862E+03  0.24971189925E+02 -0.31726367412E+04  0.32745352862E+04  0.79967139443E+03 0.  0.
         22    1    5    5    0    0 -0.13840261924E+03  0.13149771455E+03 -0.27835246817E+04  0.27900639039E+04  0.00000000000E+00 0. -1.
         22    1    5    5    0    0  0.26824694786E+03 -0.10652652462E+03 -0.38911205952E+03  0.48447138239E+03  0.00000000000E+00 0. -1.
          5    1    4    4  502    0 -0.12096605758E+02 -0.49769505276E+01 -0.56636392161E+03  0.56653444698E+03  0.47000000000E+01 0. -1.
         -5    1    4    4    0  502 -0.11774772286E+03 -0.19994239397E+02 -0.43063725762E+03  0.44691703201E+03  0.47000000000E+01 0. -1.
<mgrwt>
<rscale>  0 0.10004749E+04</rscale>
<asrwt>0</asrwt>
<pdfrwt beam="1">  1        2 0.65058675E+00 0.10004749E+04</pdfrwt>
<pdfrwt beam="2">  1       -2 0.91037540E-02 0.10004749E+04</pdfrwt>
<totfact> 0.16437250E+01</totfact>
</mgrwt>
</event>
<event>
 9    1  0.4321150E-036  0.9996176E+03  0.7818608E-02  0.8681402E-01
          1   -1    0    0  501    0  0.00000000000E+00  0.00000000000E+00  0.69432629206E+03  0.69432629206E+03  0.00000000000E+00 0.  1.
         -1   -1    0    0    0  501 -0.00000000000E+00 -0.00000000000E+00 -0.35978593276E+03  0.35978593276E+03  0.00000000000E+00 0.  1.
         36    2    1    2    0    0  0.00000000000E+00 -0.14210854715E-13  0.33454035930E+03  0.10541122248E+04  0.99961759214E+03 0.  0.
         25    2    3    3    0    0  0.90685321180E+02 -0.10081391703E+03  0.32040001723E+02  0.18800349139E+03  0.12621995770E+03 0.  0.
         35    2    3    3    0    0 -0.90685321180E+02  0.10081391703E+03  0.30250035758E+03  0.86610873343E+03  0.80015660870E+03 0.  0.
         22    1    5    5    0    0  0.38732098732E+02  0.36177849913E+03  0.41673311241E+03  0.55321817114E+03  0.00000000000E+00 0.  1.
         22    1    5    5    0    0 -0.12941741991E+03 -0.26096458211E+03 -0.11423275483E+03  0.31289056228E+03  0.00000000000E+00 0.  1.
          5    1    4    4  502    0 -0.13576336623E+02 -0.72732879312E+01 -0.30532066982E+02  0.34518324809E+02  0.47000000000E+01 0.  1.
         -5    1    4    4    0  502  0.10426165780E+03 -0.93540629096E+02  0.62572068705E+02  0.15348516659E+03  0.47000000000E+01 0.  1.
<mgrwt>
<rscale>  0 0.99961759E+03</rscale>
<asrwt>0</asrwt>
<pdfrwt beam="1">  1        1 0.10681943E+00 0.99961759E+03</pdfrwt>
<pdfrwt beam="2">  1       -1 0.55351682E-01 0.99961759E+03</pdfrwt>
<totfact> 0.10475739E+02</totfact>
</mgrwt>
</event>
<event>
 9    1  0.4321150E-036  0.1000365E+04  0.7818608E-02  0.8680690E-01
          1   -1    0    0  501    0  0.00000000000E+00  0.00000000000E+00  0.29991804203E+03  0.29991804203E+03  0.00000000000E+00 0.  1.
         -1   -1    0    0    0  501 -0.00000000000E+00 -0.00000000000E+00 -0.83417030562E+03  0.83417030562E+03  0.00000000000E+00 0.  1.
         36    2    1    2    0    0  0.00000000000E+00  0.14210854715E-13 -0.53425226359E+03  0.11340883476E+04  0.10003653828E+04 0.  0.
         25    2    3    3    0    0 -0.11407331611E+03 -0.59459440729E+02 -0.36458170277E+02  0.18380727462E+03  0.12612600637E+03 0.  0.
         35    2    3    3    0    0  0.11407331611E+03  0.59459440729E+02 -0.49779409331E+03  0.95028107303E+03  0.79917896111E+03 0.  0.
         22    1    5    5    0    0 -0.29797082689E+03 -0.14492978111E+03 -0.30906816795E+03  0.45311630689E+03  0.00000000000E+00 0. -1.
         22    1    5    5    0    0  0.41204414300E+03  0.20438922184E+03 -0.18872592536E+03  0.49716476614E+03  0.00000000000E+00 0. -1.
          5    1    4    4  502    0 -0.47646936868E+02  0.24900376838E+02 -0.52322619117E+02  0.75166520678E+02  0.47000000000E+01 0.  1.
         -5    1    4    4    0  502 -0.66426379241E+02 -0.84359817567E+02  0.15864448841E+02  0.10864075394E+03  0.47000000000E+01 0.  1.
<mgrwt>
<rscale>  0 0.10003654E+04</rscale>
<asrwt>0</asrwt>
<pdfrwt beam="1">  1        1 0.46141238E-01 0.10003654E+04</pdfrwt>
<pdfrwt beam="2">  1       -1 0.12833389E+00 0.10003654E+04</pdfrwt>
<totfact> 0.55074783E+01</totfact>
</mgrwt>
</event>
<event>
 9    1  0.4321150E-036  0.1000041E+04  0.7818608E-02  0.8680999E-01
          1   -1    0    0  501    0  0.00000000000E+00  0.00000000000E+00  0.14466452515E+03  0.14466452515E+03  0.00000000000E+00 0.  1.
         -1   -1    0    0    0  501 -0.00000000000E+00 -0.00000000000E+00 -0.17282787438E+04  0.17282787438E+04  0.00000000000E+00 0.  1.
         36    2    1    2    0    0  0.28421709430E-13 -0.35527136788E-14 -0.15836142187E+04  0.18729432690E+04  0.10000412467E+04 0.  0.
         25    2    3    3    0    0  0.13209144259E+03  0.23658957266E+02 -0.37421031306E+03  0.41677309854E+03  0.12513417518E+03 0.  0.
         35    2    3    3    0    0 -0.13209144259E+03 -0.23658957266E+02 -0.12094039056E+04  0.14561701704E+04  0.79985365090E+03 0.  0.
         22    1    5    5    0    0 -0.35844729205E+03  0.25539806352E+03 -0.78610996892E+03  0.90093369083E+03  0.00000000000E+00 0.  1.
         22    1    5    5    0    0  0.22635584946E+03 -0.27905702079E+03 -0.42329393668E+03  0.55523647959E+03  0.00000000000E+00 0.  1.
          5    1    4    4  502    0 -0.88142633194E+01 -0.29349189804E+02 -0.88817745175E+02  0.94073099438E+02  0.47000000000E+01 0. -1.
         -5    1    4    4    0  502  0.14090570591E+03  0.53008147070E+02 -0.28539256789E+03  0.32269999910E+03  0.47000000000E+01 0. -1.
<mgrwt>
<rscale>  0 0.10000412E+04</rscale>
<asrwt>0</asrwt>
<pdfrwt beam="1">  1        1 0.22256082E-01 0.10000412E+04</pdfrwt>
<pdfrwt beam="2">  1       -1 0.26588902E+00 0.10000412E+04</pdfrwt>
<totfact> 0.89398995E+00</totfact>
</mgrwt>
</event>
<event>
 9    1  0.4321150E-036  0.9992717E+03  0.7818608E-02  0.8681732E-01
          1   -1    0    0  501    0  0.00000000000E+00  0.00000000000E+00  0.14337790347E+04  0.14337790347E+04  0.00000000000E+00 0.  1.
         -1   -1    0    0    0  501 -0.00000000000E+00 -0.00000000000E+00 -0.17411049518E+03  0.17411049518E+03  0.00000000000E+00 0.  1.
         36    2    1    2    0    0 -0.21316282073E-13  0.00000000000E+00  0.12596685396E+04  0.16078895299E+04  0.99927169023E+03 0.  0.
         25    2    3    3    0    0  0.83817239225E+01 -0.13417606708E+03  0.19952290662E+03  0.27098271418E+03  0.12469471058E+03 0.  0.
         35    2    3    3    0    0 -0.83817239225E+01  0.13417606708E+03  0.10601456329E+04  0.13369068157E+04  0.80332907371E+03 0.  0.
         22    1    5    5    0    0  0.35559530453E+03 -0.10806332332E+03  0.40949215344E+03  0.55300047575E+03  0.00000000000E+00 0.  1.
         22    1    5    5    0    0 -0.36397702845E+03  0.24223939040E+03  0.65065347949E+03  0.78390633999E+03  0.00000000000E+00 0.  1.
          5    1    4    4  502    0  0.13233860801E+02 -0.14115909908E+02 -0.15085420402E+02  0.24981070692E+02  0.47000000000E+01 0. -1.
         -5    1    4    4    0  502 -0.48521368789E+01 -0.12006015717E+03  0.21460832702E+03  0.24600164349E+03  0.47000000000E+01 0. -1.
<mgrwt>
<rscale>  0 0.99927169E+03</rscale>
<asrwt>0</asrwt>
<pdfrwt beam="1">  1        1 0.22058138E+00 0.99927169E+03</pdfrwt>
<pdfrwt beam="2">  1       -1 0.26786231E-01 0.99927169E+03</pdfrwt>
<totfact> 0.98108821E+01</totfact>
</mgrwt>
</event>
<event>
 9    1  0.4321150E-036  0.9998998E+03  0.7818608E-02  0.8681133E-01
         -1   -1    0    0    0  501 -0.00000000000E+00  0.00000000000E+00  0.56244185299E+03  0.56244185299E+03  0.00000000000E+00 0.  1.
          1   -1    0    0  501    0  0.00000000000E+00 -0.00000000000E+00 -0.44440128752E+03  0.44440128752E+03  0.00000000000E+00 0.  1.
         36    2    1    2    0    0 -0.28421709430E-13 -0.21316282073E-13  0.11804056547E+03  0.10068431405E+04  0.99989976222E+03 0.  0.
         25    2    3    3    0    0 -0.84025194890E+02  0.59908722428E+02  0.11924829848E+03  0.20102745286E+03  0.12466993107E+03 0.  0.
         35    2    3    3    0    0  0.84025194890E+02 -0.59908722428E+02 -0.12077330154E+01  0.80581568765E+03  0.79917968908E+03 0.  0.
         22    1    5    5    0    0  0.11010652084E+03  0.22541227954E+03  0.29935493194E+03  0.39057331831E+03  0.00000000000E+00 0.  1.
         22    1    5    5    0    0 -0.26081325952E+02 -0.28532100197E+03 -0.30056266495E+03  0.41524236934E+03  0.00000000000E+00 0.  1.
          5    1    4    4  502    0 -0.11329076675E+03  0.37118108571E+02  0.67171497947E+02  0.13691841348E+03  0.47000000000E+01 0. -1.
         -5    1    4    4    0  502  0.29265571856E+02  0.22790613857E+02  0.52076800535E+02  0.64109039378E+02  0.47000000000E+01 0. -1.
<mgrwt>
<rscale>  0 0.99989976E+03</rscale>
<asrwt>0</asrwt>
<pdfrwt beam="1">  1        1 0.68369429E-01 0.99989976E+03</pdfrwt>
<pdfrwt beam="2">  1       -1 0.86529516E-01 0.99989976E+03</pdfrwt>
<totfact> 0.81432518E+01</totfact>
</mgrwt>
</event>
<event>
 9    1  0.4321150E-036  0.9994081E+03  0.7818608E-02  0.8681602E-01
          2   -1    0    0  501    0  0.00000000000E+00  0.00000000000E+00  0.18699998178E+04  0.18699998178E+04  0.00000000000E+00 0.  1.
         -2   -1    0    0    0  501 -0.00000000000E+00 -0.00000000000E+00 -0.13353164734E+03  0.13353164734E+03  0.00000000000E+00 0.  1.
         36    2    1    2    0    0 -0.28421709430E-13 -0.14210854715E-13  0.17364681704E+04  0.20035314651E+04  0.99940813726E+03 0.  0.
         25    2    3    3    0    0  0.38879737078E+02 -0.51659591450E+02  0.77037986431E+02  0.16006075684E+03  0.12451605190E+03 0.  0.
         35    2    3    3    0    0 -0.38879737078E+02  0.51659591450E+02  0.16594301840E+04  0.18434707083E+04  0.80030954598E+03 0.  0.
         22    1    5    5    0    0 -0.28038169466E+03  0.26756633925E+03  0.13137588996E+04  0.13697328524E+04  0.00000000000E+00 0. -1.
         22    1    5    5    0    0  0.24150195759E+03 -0.21590674780E+03  0.34567128441E+03  0.47373785592E+03  0.00000000000E+00 0. -1.
          5    1    4    4  502    0  0.25687142424E+01 -0.74077852081E+02  0.88587253033E+02  0.11560241287E+03  0.47000000000E+01 0. -1.
         -5    1    4    4    0  502  0.36311022835E+02  0.22418260631E+02 -0.11549266602E+02  0.44458343965E+02  0.47000000000E+01 0. -1.
<mgrwt>
<rscale>  0 0.99940814E+03</rscale>
<asrwt>0</asrwt>
<pdfrwt beam="1">  1        2 0.28769226E+00 0.99940814E+03</pdfrwt>
<pdfrwt beam="2">  1       -2 0.20543332E-01 0.99940814E+03</pdfrwt>
<totfact> 0.18965782E+02</totfact>
</mgrwt>
</event>
<event>
 9    1  0.4321150E-036  0.9996713E+03  0.7818608E-02  0.8681351E-01
         -2   -1    0    0    0  501 -0.00000000000E+00  0.00000000000E+00  0.10987350320E+03  0.10987350320E+03  0.00000000000E+00 0. -1.
          2   -1    0    0  501    0  0.00000000000E+00 -0.00000000000E+00 -0.22738483555E+04  0.22738483555E+04  0.00000000000E+00 0. -1.
         36    2    1    2    0    0  0.00000000000E+00  0.00000000000E+00 -0.21639748523E+04  0.23837218587E+04  0.99967131512E+03 0.  0.
         25    2    3    3    0    0 -0.52178787963E+02 -0.67496445975E+02 -0.14407403919E+03  0.20890996477E+03  0.12493057463E+03 0.  0.
         35    2    3    3    0    0  0.52178787963E+02  0.67496445975E+02 -0.20199008131E+04  0.21748118940E+04  0.80157911841E+03 0.  0.
         22    1    5    5    0    0  0.92543522378E+02 -0.52323680922E+02  0.38098976484E+02  0.11293185170E+03  0.00000000000E+00 0.  1.
         22    1    5    5    0    0 -0.40364734415E+02  0.11982012690E+03 -0.20579997896E+04  0.20618800423E+04  0.00000000000E+00 0.  1.
          5    1    4    4  502    0 -0.31221337425E+02  0.32536002959E+02 -0.24482137883E+02  0.51525027652E+02  0.47000000000E+01 0. -1.
         -5    1    4    4    0  502 -0.20957450538E+02 -0.10003244893E+03 -0.11959190131E+03  0.15738493712E+03  0.47000000000E+01 0. -1.
<mgrwt>
<rscale>  0 0.99967132E+03</rscale>
<asrwt>0</asrwt>
<pdfrwt beam="1">  1        2 0.34982280E+00 0.99967132E+03</pdfrwt>
<pdfrwt beam="2">  1       -2 0.16903617E-01 0.99967132E+03</pdfrwt>
<totfact> 0.15537704E+02</totfact>
</mgrwt>
</event>
<event>
 9    1  0.4321150E-036  0.1000273E+04  0.7818608E-02  0.8680778E-01
          1   -1    0    0  501    0  0.00000000000E+00  0.00000000000E+00  0.14138421472E+04  0.14138421472E+04  0.00000000000E+00 0. -1.
         -1   -1    0    0    0  501 -0.00000000000E+00 -0.00000000000E+00 -0.17691986462E+03  0.17691986462E+03  0.00000000000E+00 0. -1.
         36    2    1    2    0    0  0.00000000000E+00  0.00000000000E+00  0.12369222825E+04  0.15907620118E+04  0.10002734851E+04 0.  0.
         25    2    3    3    0    0  0.13613909233E+03 -0.29520088460E+02  0.24394622994E+03  0.30761688063E+03  0.12535188097E+03 0.  0.
         35    2    3    3    0    0 -0.13613909233E+03  0.29520088460E+02  0.99297605260E+03  0.12831451311E+04  0.80065891518E+03 0.  0.
         22    1    5    5    0    0 -0.16986931148E+03 -0.49614281813E+02  0.11177053555E+04  0.11316282171E+04  0.00000000000E+00 0. -1.
         22    1    5    5    0    0  0.33730219150E+02  0.79134370273E+02 -0.12472930291E+03  0.15151691406E+03  0.00000000000E+00 0. -1.
          5    1    4    4  502    0  0.14173637116E+03 -0.85153500891E+00  0.13898995509E+03  0.19857044502E+03  0.47000000000E+01 0.  1.
         -5    1    4    4    0  502 -0.55972788297E+01 -0.28668553451E+02  0.10495627486E+03  0.10904643561E+03  0.47000000000E+01 0.  1.
<mgrwt>
<rscale>  0 0.10002735E+04</rscale>
<asrwt>0</asrwt>
<pdfrwt beam="1">  1        1 0.21751417E+00 0.10002735E+04</pdfrwt>
<pdfrwt beam="2">  1       -1 0.27218442E-01 0.10002735E+04</pdfrwt>
<totfact> 0.98676608E+01</totfact>
</mgrwt>
</event>
<event>
 9    1  0.4321150E-036  0.1000297E+04  0.7818608E-02  0.8680755E-01
          1   -1    0    0  501    0  0.00000000000E+00  0.00000000000E+00  0.94760728883E+03  0.94760728883E+03  0.00000000000E+00 0. -1.
         -1   -1    0    0    0  501 -0.00000000000E+00 -0.00000000000E+00 -0.26397930360E+03  0.26397930360E+03  0.00000000000E+00 0. -1.
         36    2    1    2    0    0 -0.42632564146E-13  0.28421709430E-13  0.68362798523E+03  0.12115865924E+04  0.10002973802E+04 0.  0.
         25    2    3    3    0    0  0.11218996044E+03  0.68252846910E+02  0.71837026888E+02  0.19564269093E+03  0.12597803676E+03 0.  0.
         35    2    3    3    0    0 -0.11218996044E+03 -0.68252846910E+02  0.61179095834E+03  0.10159439015E+04  0.80038040703E+03 0.  0.
         22    1    5    5    0    0 -0.45563665330E+03 -0.89058084455E+02  0.39237850119E+03  0.60786264109E+03  0.00000000000E+00 0. -1.
         22    1    5    5    0    0  0.34344669286E+03  0.20805237545E+02  0.21941245715E+03  0.40808126041E+03  0.00000000000E+00 0. -1.
          5    1    4    4  502    0 -0.65071304318E+01 -0.23575983803E+02 -0.72540434496E+01  0.25939948055E+02  0.47000000000E+01 0.  1.
         -5    1    4    4    0  502  0.11869709087E+03  0.91828830713E+02  0.79091070337E+02  0.16970274287E+03  0.47000000000E+01 0.  1.
<mgrwt>
<rscale>  0 0.10002974E+04</rscale>
<asrwt>0</asrwt>
<pdfrwt beam="1">  1        1 0.14578574E+00 0.10002974E+04</pdfrwt>
<pdfrwt beam="2">  1       -1 0.40612201E-01 0.10002974E+04</pdfrwt>
<totfact> 0.11084552E+02</totfact>
</mgrwt>
</event>
<event>
 9    1  0.4321150E-036  0.9991803E+03  0.7818608E-02  0.8681819E-01
         -2   -1    0    0    0  501 -0.00000000000E+00  0.00000000000E+00  0.77921381976E+02  0.77921381976E+02  0.00000000000E+00 0.  1.
          2   -1    0    0  501    0  0.00000000000E+00 -0.00000000000E+00 -0.32031041044E+04  0.32031041044E+04  0.00000000000E+00 0.  1.
         36    2    1    2    0    0  0.14210854715E-13  0.28421709430E-13 -0.31251827224E+04  0.32810254864E+04  0.99918026087E+03 0.  0.
         25    2    3    3    0    0 -0.43161689829E+02 -0.13136932970E+03 -0.67450540736E+03  0.69976830605E+03  0.12488917226E+03 0.  0.
         35    2    3    3    0    0  0.43161689829E+02  0.13136932970E+03 -0.24506773151E+04  0.25812571803E+04  0.79871678093E+03 0.  0.
         22    1    5    5    0    0 -0.16578635964E+03 -0.13816638096E+03 -0.16866876057E+03  0.27390548856E+03  0.00000000000E+00 0.  1.
         22    1    5    5    0    0  0.20894804947E+03  0.26953571066E+03 -0.22820085545E+04  0.23073516918E+04  0.00000000000E+00 0.  1.
          5    1    4    4  502    0 -0.26325208170E+02  0.25231289996E+01 -0.26099917904E+02  0.37452349455E+02  0.47000000000E+01 0. -1.
         -5    1    4    4    0  502 -0.16836481659E+02 -0.13389245870E+03 -0.64840548945E+03  0.66231595660E+03  0.47000000000E+01 0. -1.
<mgrwt>
<rscale>  0 0.99918026E+03</rscale>
<asrwt>0</asrwt>
<pdfrwt beam="1">  1        2 0.49278519E+00 0.99918026E+03</pdfrwt>
<pdfrwt beam="2">  1       -2 0.11987906E-01 0.99918026E+03</pdfrwt>
<totfact> 0.70540518E+01</totfact>
</mgrwt>
</event>
<event>
 9    1  0.4321150E-036  0.9996800E+03  0.7818608E-02  0.8681343E-01
          2   -1    0    0  501    0  0.00000000000E+00  0.00000000000E+00  0.76222745070E+03  0.76222745070E+03  0.00000000000E+00 0.  1.
         -2   -1    0    0    0  501 -0.00000000000E+00 -0.00000000000E+00 -0.32777624131E+03  0.32777624131E+03  0.00000000000E+00 0.  1.
         36    2    1    2    0    0 -0.21316282073E-13 -0.42632564146E-13  0.43445120938E+03  0.10900036920E+04  0.99968004644E+03 0.  0.
         25    2    3    3    0    0  0.10932112480E+01  0.10008465026E+03 -0.13946845141E+02  0.16183212921E+03  0.12640012353E+03 0.  0.
         35    2    3    3    0    0 -0.10932112480E+01 -0.10008465026E+03  0.44839805452E+03  0.92817156279E+03  0.80648837707E+03 0.  0.
         22    1    5    5    0    0  0.32707067660E+03  0.17924998307E+03  0.14061071411E+03  0.39859397492E+03  0.00000000000E+00 0.  1.
         22    1    5    5    0    0 -0.32816388785E+03 -0.27933463332E+03  0.30778734042E+03  0.52957758788E+03  0.00000000000E+00 0.  1.
          5    1    4    4  502    0  0.61632082718E+02  0.34156144905E+02 -0.14998330622E+02  0.72195538479E+02  0.47000000000E+01 0.  1.
         -5    1    4    4    0  502 -0.60538871470E+02  0.65928505352E+02  0.10514854806E+01  0.89636590735E+02  0.47000000000E+01 0.  1.
<mgrwt>
<rscale>  0 0.99968005E+03</rscale>
<asrwt>0</asrwt>
<pdfrwt beam="1">  1        2 0.11726576E+00 0.99968005E+03</pdfrwt>
<pdfrwt beam="2">  1       -2 0.50427114E-01 0.99968005E+03</pdfrwt>
<totfact> 0.16528085E+02</totfact>
</mgrwt>
</event>
<event>
 9    1  0.4321150E-036  0.1000308E+04  0.7818608E-02  0.8680745E-01
         -2   -1    0    0    0  501 -0.00000000000E+00  0.00000000000E+00  0.14773939988E+03  0.14773939988E+03  0.00000000000E+00 0. -1.
          2   -1    0    0  501    0  0.00000000000E+00 -0.00000000000E+00 -0.16932102834E+04  0.16932102834E+04  0.00000000000E+00 0. -1.
         36    2    1    2    0    0  0.00000000000E+00  0.00000000000E+00 -0.15454708835E+04  0.18409496833E+04  0.10003076949E+04 0.  0.
         25    2    3    3    0    0  0.11484693456E+03  0.82088402143E+02 -0.29694171795E+03  0.35172522474E+03  0.12493168418E+03 0.  0.
         35    2    3    3    0    0 -0.11484693456E+03 -0.82088402143E+02 -0.12485291656E+04  0.14892244586E+04  0.79939732706E+03 0.  0.
         22    1    5    5    0    0 -0.82567944164E+02 -0.43865654429E+03 -0.79116123409E+03  0.90839040483E+03  0.00000000000E+00 0. -1.
         22    1    5    5    0    0 -0.32278990398E+02  0.35656814215E+03 -0.45736793150E+03  0.58083405374E+03  0.00000000000E+00 0. -1.
          5    1    4    4  502    0  0.45239397511E+02  0.10032408968E+03 -0.22141808773E+03  0.24730464135E+03  0.47000000000E+01 0. -1.
         -5    1    4    4    0  502  0.69607537051E+02 -0.18235687535E+02 -0.75523630222E+02  0.10442058339E+03  0.47000000000E+01 0. -1.
<mgrwt>
<rscale>  0 0.10003077E+04</rscale>
<asrwt>0</asrwt>
<pdfrwt beam="1">  1        2 0.26049390E+00 0.10003077E+04</pdfrwt>
<pdfrwt beam="2">  1       -2 0.22729137E-01 0.10003077E+04</pdfrwt>
<totfact> 0.20001785E+02</totfact>
</mgrwt>
</event>
<event>
 9    1  0.4321150E-036  0.9972193E+03  0.7818608E-02  0.8683691E-01
         -2   -1    0    0    0  501 -0.00000000000E+00  0.00000000000E+00  0.72966301522E+03  0.72966301522E+03  0.00000000000E+00 0. -1.
          2   -1    0    0  501    0  0.00000000000E+00 -0.00000000000E+00 -0.34072106596E+03  0.34072106596E+03  0.00000000000E+00 0. -1.
         36    2    1    2    0    0  0.00000000000E+00 -0.15987211555E-13  0.38894194926E+03  0.10703840812E+04  0.99721925441E+03 0.  0.
         25    2    3    3    0    0  0.12346984723E+03 -0.89734228786E+01  0.12673844167E+03  0.21647778170E+03  0.12439723421E+03 0.  0.
         35    2    3    3    0    0 -0.12346984723E+03  0.89734228786E+01  0.26220350758E+03  0.85390629949E+03  0.80316870172E+03 0.  0.
         22    1    5    5    0    0 -0.12395296576E+03  0.15766399939E+03 -0.25003089401E+03  0.32052725685E+03  0.00000000000E+00 0. -1.
         22    1    5    5    0    0  0.48311853230E+00 -0.14869057651E+03  0.51223440160E+03  0.53337904264E+03  0.00000000000E+00 0. -1.
          5    1    4    4  502    0 -0.24005835388E+02  0.10411547601E+02  0.21820987772E+02  0.34393690751E+02  0.47000000000E+01 0.  1.
         -5    1    4    4    0  502  0.14747568261E+03 -0.19384970480E+02  0.10491745390E+03  0.18208409095E+03  0.47000000000E+01 0.  1.
<mgrwt>
<rscale>  0 0.99721925E+03</rscale>
<asrwt>0</asrwt>
<pdfrwt beam="1">  1        2 0.52418626E-01 0.99721925E+03</pdfrwt>
<pdfrwt beam="2">  1       -2 0.11225585E+00 0.99721925E+03</pdfrwt>
<totfact> 0.70050501E+01</totfact>
</mgrwt>
</event>
<event>
 9    1  0.4321150E-036  0.1000640E+04  0.7818608E-02  0.8680429E-01
          2   -1    0    0  501    0  0.00000000000E+00  0.00000000000E+00  0.16491975257E+04  0.16491975257E+04  0.00000000000E+00 0. -1.
         -2   -1    0    0    0  501 -0.00000000000E+00 -0.00000000000E+00 -0.15178287079E+03  0.15178287079E+03  0.00000000000E+00 0. -1.
         36    2    1    2    0    0  0.00000000000E+00 -0.14210854715E-13  0.14974146549E+04  0.18009803965E+04  0.10006396653E+04 0.  0.
         25    2    3    3    0    0  0.56600651488E+02 -0.37159060084E+01  0.42309703791E+02  0.14020052267E+03  0.12103154058E+03 0.  0.
         35    2    3    3    0    0 -0.56600651488E+02  0.37159060084E+01  0.14551049511E+04  0.16607798738E+04  0.79852484545E+03 0.  0.
         22    1    5    5    0    0 -0.57715671164E+02 -0.19243038596E+03  0.86495826757E+01  0.20108547292E+03  0.00000000000E+00 0.  1.
         22    1    5    5    0    0  0.11150196756E+01  0.19614629197E+03  0.14464553684E+04  0.14596944009E+04  0.00000000000E+00 0.  1.
          5    1    4    4  502    0  0.86900872751E+02 -0.10365806003E+02  0.14499932419E+00  0.87643155145E+02  0.47000000000E+01 0.  1.
         -5    1    4    4    0  502 -0.30300221263E+02  0.66498999946E+01  0.42164704466E+02  0.52557367526E+02  0.47000000000E+01 0.  1.
<mgrwt>
<rscale>  0 0.10006397E+04</rscale>
<asrwt>0</asrwt>
<pdfrwt beam="1">  1        2 0.25372268E+00 0.10006397E+04</pdfrwt>
<pdfrwt beam="2">  1       -2 0.23351212E-01 0.10006397E+04</pdfrwt>
<totfact> 0.20196262E+02</totfact>
</mgrwt>
</event>
<event>
 9    1  0.4321150E-036  0.1000043E+04  0.7818608E-02  0.8680997E-01
         -1   -1    0    0    0  501 -0.00000000000E+00  0.00000000000E+00  0.36106064337E+03  0.36106064337E+03  0.00000000000E+00 0. -1.
          1   -1    0    0  501    0  0.00000000000E+00 -0.00000000000E+00 -0.69246431191E+03  0.69246431191E+03  0.00000000000E+00 0. -1.
         36    2    1    2    0    0 -0.53290705182E-14  0.28421709430E-13 -0.33140366854E+03  0.10535249553E+04  0.10000432190E+04 0.  0.
         25    2    3    3    0    0  0.13789777306E+02 -0.51381861017E+02 -0.19910014523E+03  0.24101137607E+03  0.12496144192E+03 0.  0.
         35    2    3    3    0    0 -0.13789777306E+02  0.51381861017E+02 -0.13230352331E+03  0.81251357920E+03  0.79990239436E+03 0.  0.
         22    1    5    5    0    0  0.88523117086E+02 -0.18157091933E+03  0.26957790245E+03  0.33686286008E+03  0.00000000000E+00 0. -1.
         22    1    5    5    0    0 -0.10231289439E+03  0.23295278035E+03 -0.40188142576E+03  0.47565071913E+03  0.00000000000E+00 0. -1.
          5    1    4    4  502    0  0.16702699900E+02  0.64510022989E+01  0.12001213763E+02  0.22061612507E+02  0.47000000000E+01 0.  1.
         -5    1    4    4    0  502 -0.29129225941E+01 -0.57832863315E+02 -0.21110135899E+03  0.21894976357E+03  0.47000000000E+01 0.  1.
<mgrwt>
<rscale>  0 0.10000432E+04</rscale>
<asrwt>0</asrwt>
<pdfrwt beam="1">  1        1 0.10653297E+00 0.10000432E+04</pdfrwt>
<pdfrwt beam="2">  1       -1 0.55547791E-01 0.10000432E+04</pdfrwt>
<totfact> 0.10448492E+02</totfact>
</mgrwt>
</event>
<event>
 9    1  0.4321150E-036  0.1002755E+04  0.7818608E-02  0.8678419E-01
         -1   -1    0    0    0  501 -0.00000000000E+00  0.00000000000E+00  0.29702885788E+03  0.29702885788E+03  0.00000000000E+00 0.  1.
          1   -1    0    0  501    0  0.00000000000E+00 -0.00000000000E+00 -0.84631292103E+03  0.84631292103E+03  0.00000000000E+00 0.  1.
         36    2    1    2    0    0 -0.28421709430E-13  0.35527136788E-13 -0.54928406315E+03  0.11433417789E+04  0.10027549259E+04 0.  0.
         25    2    3    3    0    0  0.14131242382E+03  0.30501727326E+02 -0.80958367549E+02  0.20576344618E+03  0.12200320493E+03 0.  0.
         35    2    3    3    0    0 -0.14131242382E+03 -0.30501727326E+02 -0.46832569560E+03  0.93757833272E+03  0.79926504761E+03 0.  0.
         22    1    5    5    0    0 -0.23165611642E+03 -0.34802830291E+03 -0.43888044839E+03  0.60613884868E+03  0.00000000000E+00 0.  1.
         22    1    5    5    0    0  0.90343692593E+02  0.31752657559E+03 -0.29445247212E+02  0.33143948404E+03  0.00000000000E+00 0.  1.
          5    1    4    4  502    0  0.36135450090E+02  0.66843623030E+02 -0.46359144889E+02  0.89135296083E+02  0.47000000000E+01 0.  1.
         -5    1    4    4    0  502  0.10517697373E+03 -0.36341895704E+02 -0.34599222660E+02  0.11662815010E+03  0.47000000000E+01 0.  1.
<mgrwt>
<rscale>  0 0.10027549E+04</rscale>
<asrwt>0</asrwt>
<pdfrwt beam="1">  1        1 0.13020199E+00 0.10027549E+04</pdfrwt>
<pdfrwt beam="2">  1       -1 0.45696748E-01 0.10027549E+04</pdfrwt>
<totfact> 0.10885132E+02</totfact>
</mgrwt>
</event>
<event>
 9    1  0.4321150E-036  0.9975900E+03  0.7818608E-02  0.8683336E-01
         -2   -1    0    0    0  501 -0.00000000000E+00  0.00000000000E+00  0.70895476116E+02  0.70895476116E+02  0.00000000000E+00 0.  1.
          2   -1    0    0  501    0  0.00000000000E+00 -0.00000000000E+00 -0.35093414932E+04  0.35093414932E+04  0.00000000000E+00 0.  1.
         36    2    1    2    0    0 -0.28421709430E-13 -0.21316282073E-13 -0.34384460171E+04  0.35802369693E+04  0.99758996790E+03 0.  0.
         25    2    3    3    0    0 -0.10045007493E+03 -0.32207068595E+02 -0.94168659647E+03  0.95621187697E+03  0.12821854342E+03 0.  0.
         35    2    3    3    0    0  0.10045007493E+03  0.32207068595E+02 -0.24967594206E+04  0.26240250923E+04  0.80035777498E+03 0.  0.
         22    1    5    5    0    0  0.30239775862E+03  0.32924109039E+03 -0.13173239656E+04  0.13911098196E+04  0.00000000000E+00 0. -1.
         22    1    5    5    0    0 -0.20194768368E+03 -0.29703402180E+03 -0.11794354550E+04  0.12329152727E+04  0.00000000000E+00 0. -1.
          5    1    4    4  502    0 -0.72502207340E+00  0.43468676011E+01 -0.55884038521E+03  0.55887752420E+03  0.47000000000E+01 0.  1.
         -5    1    4    4    0  502 -0.99725052859E+02 -0.36553936196E+02 -0.38284621126E+03  0.39733435277E+03  0.47000000000E+01 0.  1.
<mgrwt>
<rscale>  0 0.99758997E+03</rscale>
<asrwt>0</asrwt>
<pdfrwt beam="1">  1        2 0.53989846E+00 0.99758997E+03</pdfrwt>
<pdfrwt beam="2">  1       -2 0.10907001E-01 0.99758997E+03</pdfrwt>
<totfact> 0.49298299E+01</totfact>
</mgrwt>
</event>
<event>
 9    1  0.4321150E-036  0.1000390E+04  0.7818608E-02  0.8680666E-01
         -3   -1    0    0    0  501 -0.00000000000E+00  0.00000000000E+00  0.23742297649E+03  0.23742297649E+03  0.00000000000E+00 0. -1.
          3   -1    0    0  501    0  0.00000000000E+00 -0.00000000000E+00 -0.10537949081E+04  0.10537949081E+04  0.00000000000E+00 0. -1.
         36    2    1    2    0    0 -0.28421709430E-13  0.71054273576E-14 -0.81637193166E+03  0.12912178846E+04  0.10003901713E+04 0.  0.
         25    2    3    3    0    0  0.14095068622E+03 -0.57042035997E+01 -0.16246441132E+03  0.24823264394E+03  0.12379469571E+03 0.  0.
         35    2    3    3    0    0 -0.14095068622E+03  0.57042035997E+01 -0.65390752033E+03  0.10429852407E+04  0.80020218276E+03 0.  0.
         22    1    5    5    0    0 -0.41836397423E+03  0.19757444278E+03 -0.46689626806E+03  0.65730982079E+03  0.00000000000E+00 0.  1.
         22    1    5    5    0    0  0.27741328801E+03 -0.19187023918E+03 -0.18701125227E+03  0.38567541991E+03  0.00000000000E+00 0.  1.
          5    1    4    4  502    0 -0.21546927261E+02  0.10214092463E+02 -0.22685988900E+02  0.33246681813E+02  0.47000000000E+01 0. -1.
         -5    1    4    4    0  502  0.16249761348E+03 -0.15918296063E+02 -0.13977842242E+03  0.21498596213E+03  0.47000000000E+01 0. -1.
<mgrwt>
<rscale>  0 0.10003902E+04</rscale>
<asrwt>0</asrwt>
<pdfrwt beam="1">  1        3 0.16212230E+00 0.10003902E+04</pdfrwt>
<pdfrwt beam="2">  1       -3 0.36526611E-01 0.10003902E+04</pdfrwt>
<totfact> 0.80889351E+00</totfact>
</mgrwt>
</event>
<event>
 9    1  0.4321150E-036  0.1000069E+04  0.7818608E-02  0.8680972E-01
         -1   -1    0    0    0  501 -0.00000000000E+00  0.00000000000E+00  0.21047802436E+03  0.21047802436E+03  0.00000000000E+00 0. -1.
          1   -1    0    0  501    0  0.00000000000E+00 -0.00000000000E+00 -0.11879363905E+04  0.11879363905E+04  0.00000000000E+00 0. -1.
         36    2    1    2    0    0  0.00000000000E+00  0.00000000000E+00 -0.97745836610E+03  0.13984144148E+04  0.10000690067E+04 0.  0.
         25    2    3    3    0    0  0.79013258768E+02 -0.11786614327E+03 -0.17294810149E+03  0.25549702842E+03  0.12341864904E+03 0.  0.
         35    2    3    3    0    0 -0.79013258768E+02  0.11786614327E+03 -0.80451026461E+03  0.11429173864E+04  0.79930461245E+03 0.  0.
         22    1    5    5    0    0  0.19035877869E+02  0.42279424918E+03 -0.22142158868E+03  0.47764512111E+03  0.00000000000E+00 0.  1.
         22    1    5    5    0    0 -0.98049136637E+02 -0.30492810591E+03 -0.58308867592E+03  0.66527226528E+03  0.00000000000E+00 0.  1.
          5    1    4    4  502    0  0.90984333819E+02 -0.47789030519E+02 -0.52366612850E+02  0.11543956246E+03  0.47000000000E+01 0.  1.
         -5    1    4    4    0  502 -0.11971075052E+02 -0.70077112751E+02 -0.12058148864E+03  0.14005746596E+03  0.47000000000E+01 0.  1.
<mgrwt>
<rscale>  0 0.10000690E+04</rscale>
<asrwt>0</asrwt>
<pdfrwt beam="1">  1        1 0.18275944E+00 0.10000690E+04</pdfrwt>
<pdfrwt beam="2">  1       -1 0.32381235E-01 0.10000690E+04</pdfrwt>
<totfact> 0.10728220E+02</totfact>
</mgrwt>
</event>
<event>
 9    1  0.4321150E-036  0.9996033E+03  0.7818608E-02  0.8681416E-01
          2   -1    0    0  501    0  0.00000000000E+00  0.00000000000E+00  0.26481988179E+04  0.26481988179E+04  0.00000000000E+00 0.  1.
         -2   -1    0    0    0  501 -0.00000000000E+00 -0.00000000000E+00 -0.94328902850E+02  0.94328902850E+02  0.00000000000E+00 0.  1.
         36    2    1    2    0    0  0.28421709430E-13  0.35527136788E-14  0.25538699150E+04  0.27425277207E+04  0.99960329935E+03 0.  0.
         25    2    3    3    0    0  0.12927159020E+03 -0.22655893250E+02  0.31274060725E+03  0.36008057454E+03  0.12094171821E+03 0.  0.
         35    2    3    3    0    0 -0.12927159020E+03  0.22655893250E+02  0.22411293078E+04  0.23824471462E+04  0.79760227975E+03 0.  0.
         22    1    5    5    0    0 -0.30337131397E+03 -0.25519488337E+03  0.17325917829E+04  0.17773668357E+04  0.00000000000E+00 0. -1.
         22    1    5    5    0    0  0.17409972377E+03  0.27785077662E+03  0.50853752491E+03  0.60508031047E+03  0.00000000000E+00 0. -1.
          5    1    4    4  502    0  0.14634045684E+03 -0.32858907619E+01  0.22471042124E+03  0.26822227685E+03  0.47000000000E+01 0.  1.
         -5    1    4    4    0  502 -0.17068866639E+02 -0.19370002488E+02  0.88030186008E+02  0.91858297683E+02  0.47000000000E+01 0.  1.
<mgrwt>
<rscale>  0 0.99960330E+03</rscale>
<asrwt>0</asrwt>
<pdfrwt beam="1">  1        2 0.40741514E+00 0.99960330E+03</pdfrwt>
<pdfrwt beam="2">  1       -2 0.14512141E-01 0.99960330E+03</pdfrwt>
<totfact> 0.11926465E+02</totfact>
</mgrwt>
</event>
<event>
 9    1  0.4321150E-036  0.1000636E+04  0.7818608E-02  0.8680432E-01
         -2   -1    0    0    0  501 -0.00000000000E+00  0.00000000000E+00  0.70386865768E+03  0.70386865768E+03  0.00000000000E+00 0.  1.
          2   -1    0    0  501    0  0.00000000000E+00 -0.00000000000E+00 -0.35563210927E+03  0.35563210927E+03  0.00000000000E+00 0.  1.
         36    2    1    2    0    0  0.14210854715E-13  0.28421709430E-13  0.34823654841E+03  0.10595007669E+04  0.10006363883E+04 0.  0.
         25    2    3    3    0    0  0.10050584053E+03 -0.64412496639E+02  0.14540247096E+03  0.22579588998E+03  0.12486597482E+03 0.  0.
         35    2    3    3    0    0 -0.10050584053E+03  0.64412496639E+02  0.20283407745E+03  0.83370487696E+03  0.79979482694E+03 0.  0.
         22    1    5    5    0    0  0.13142337206E+03 -0.31486133914E+03  0.18650846808E+03  0.38883823664E+03  0.00000000000E+00 0. -1.
         22    1    5    5    0    0 -0.23192921258E+03  0.37927383578E+03  0.16325609370E+02  0.44486664033E+03  0.00000000000E+00 0. -1.
          5    1    4    4  502    0  0.11734429269E+03 -0.84420353328E+02  0.13294528003E+03  0.19645105387E+03  0.47000000000E+01 0.  1.
         -5    1    4    4    0  502 -0.16838452165E+02  0.20007856689E+02  0.12457190928E+02  0.29344836112E+02  0.47000000000E+01 0.  1.
<mgrwt>
<rscale>  0 0.10006364E+04</rscale>
<asrwt>0</asrwt>
<pdfrwt beam="1">  1        2 0.54712632E-01 0.10006364E+04</pdfrwt>
<pdfrwt beam="2">  1       -2 0.10828749E+00 0.10006364E+04</pdfrwt>
<totfact> 0.73112825E+01</totfact>
</mgrwt>
</event>
<event>
 9    1  0.4321150E-036  0.9995272E+03  0.7818608E-02  0.8681488E-01
         -1   -1    0    0    0  501 -0.00000000000E+00  0.00000000000E+00  0.30956094440E+03  0.30956094440E+03  0.00000000000E+00 0. -1.
          1   -1    0    0  501    0  0.00000000000E+00 -0.00000000000E+00 -0.80683193376E+03  0.80683193376E+03  0.00000000000E+00 0. -1.
         36    2    1    2    0    0  0.35527136788E-14  0.28421709430E-13 -0.49727098936E+03  0.11163928782E+04  0.99952719901E+03 0.  0.
         25    2    3    3    0    0  0.22280649463E+02 -0.68535238307E+02 -0.22752904005E+03  0.26940397711E+03  0.12496212461E+03 0.  0.
         35    2    3    3    0    0 -0.22280649463E+02  0.68535238307E+02 -0.26974194931E+03  0.84698890105E+03  0.79964740546E+03 0.  0.
         22    1    5    5    0    0 -0.56078611131E+01 -0.30704120687E+03  0.96740641401E+02  0.32196972299E+03  0.00000000000E+00 0.  1.
         22    1    5    5    0    0 -0.16672788350E+02  0.37557644518E+03 -0.36648259071E+03  0.52501917807E+03  0.00000000000E+00 0.  1.
          5    1    4    4  502    0 -0.70176183980E+01 -0.98789907258E+02 -0.18165168027E+03  0.20694954866E+03  0.47000000000E+01 0. -1.
         -5    1    4    4    0  502  0.29298267861E+02  0.30254668951E+02 -0.45877359775E+02  0.62454428449E+02  0.47000000000E+01 0. -1.
<mgrwt>
<rscale>  0 0.99952720E+03</rscale>
<asrwt>0</asrwt>
<pdfrwt beam="1">  1        1 0.12412799E+00 0.99952720E+03</pdfrwt>
<pdfrwt beam="2">  1       -1 0.47624761E-01 0.99952720E+03</pdfrwt>
<totfact> 0.10926641E+02</totfact>
</mgrwt>
</event>
<event>
 9    1  0.4321150E-036  0.1000424E+04  0.7818608E-02  0.8680635E-01
          2   -1    0    0  501    0  0.00000000000E+00  0.00000000000E+00  0.30729859824E+04  0.30729859824E+04  0.00000000000E+00 0. -1.
         -2   -1    0    0    0  501 -0.00000000000E+00 -0.00000000000E+00 -0.81423049046E+02  0.81423049046E+02  0.00000000000E+00 0. -1.
         36    2    1    2    0    0 -0.14210854715E-13  0.71054273576E-14  0.29915629334E+04  0.31544090315E+04  0.10004236870E+04 0.  0.
         25    2    3    3    0    0 -0.12202288982E+03  0.25321064249E+02  0.75131188918E+03  0.77172907328E+03  0.12476163587E+03 0.  0.
         35    2    3    3    0    0  0.12202288982E+03 -0.25321064249E+02  0.22402510442E+04  0.23826799582E+04  0.80181562732E+03 0.  0.
         22    1    5    5    0    0 -0.25226110733E+03 -0.82961150061E+02  0.17133527000E+04  0.17338095897E+04  0.00000000000E+00 0.  1.
         22    1    5    5    0    0  0.37428399715E+03  0.57640085812E+02  0.52689834423E+03  0.64887036854E+03  0.00000000000E+00 0.  1.
          5    1    4    4  502    0 -0.90265095778E+02 -0.38460333523E+02  0.53480004554E+03  0.54374641468E+03  0.47000000000E+01 0. -1.
         -5    1    4    4    0  502 -0.31757794038E+02  0.63781397772E+02  0.21651184364E+03  0.22798265860E+03  0.47000000000E+01 0. -1.
<mgrwt>
<rscale>  0 0.10004237E+04</rscale>
<asrwt>0</asrwt>
<pdfrwt beam="1">  1        2 0.47276698E+00 0.10004237E+04</pdfrwt>
<pdfrwt beam="2">  1       -2 0.12526625E-01 0.10004237E+04</pdfrwt>
<totfact> 0.80650209E+01</totfact>
</mgrwt>
</event>
<event>
 9    1  0.4321150E-036  0.1003053E+04  0.7818608E-02  0.8678136E-01
         -3   -1    0    0    0  501 -0.00000000000E+00  0.00000000000E+00  0.94273705108E+03  0.94273705108E+03  0.00000000000E+00 0.  1.
          3   -1    0    0  501    0  0.00000000000E+00 -0.00000000000E+00 -0.26680718252E+03  0.26680718252E+03  0.00000000000E+00 0.  1.
         36    2    1    2    0    0 -0.14210854715E-13 -0.28421709430E-13  0.67592986857E+03  0.12095442336E+04  0.10030533714E+04 0.  0.
         25    2    3    3    0    0 -0.85841871255E+02 -0.11678281757E+03  0.12991791434E+03  0.23040358372E+03  0.12328865959E+03 0.  0.
         35    2    3    3    0    0  0.85841871255E+02  0.11678281757E+03  0.54601195422E+03  0.97914064988E+03  0.79973764746E+03 0.  0.
         22    1    5    5    0    0  0.99582202607E+02 -0.20391277013E+03  0.61087449134E+03  0.65166300882E+03  0.00000000000E+00 0.  1.
         22    1    5    5    0    0 -0.13740331352E+02  0.32069558770E+03 -0.64862537116E+02  0.32747764106E+03  0.00000000000E+00 0.  1.
          5    1    4    4  502    0 -0.81086081501E+02 -0.12795925498E+03  0.66233350516E+02  0.16540093793E+03  0.47000000000E+01 0. -1.
         -5    1    4    4    0  502 -0.47557897540E+01  0.11176437413E+02  0.63684563825E+02  0.65002645785E+02  0.47000000000E+01 0. -1.
<mgrwt>
<rscale>  0 0.10030534E+04</rscale>
<asrwt>0</asrwt>
<pdfrwt beam="1">  1        3 0.41047259E-01 0.10030534E+04</pdfrwt>
<pdfrwt beam="2">  1       -3 0.14503647E+00 0.10030534E+04</pdfrwt>
<totfact> 0.67623827E+00</totfact>
</mgrwt>
</event>
<event>
 9    1  0.4321150E-036  0.9995172E+03  0.7818608E-02  0.8681498E-01
         -2   -1    0    0    0  501 -0.00000000000E+00  0.00000000000E+00  0.11567348184E+04  0.11567348184E+04  0.00000000000E+00 0.  1.
          2   -1    0    0  501    0  0.00000000000E+00 -0.00000000000E+00 -0.21591695750E+03  0.21591695750E+03  0.00000000000E+00 0.  1.
         36    2    1    2    0    0  0.71054273576E-14  0.00000000000E+00  0.94081786086E+03  0.13726517759E+04  0.99951720868E+03 0.  0.
         25    2    3    3    0    0  0.84550339806E+01  0.13625582507E+03  0.21613864784E+03  0.28501448930E+03  0.12601669158E+03 0.  0.
         35    2    3    3    0    0 -0.84550339806E+01 -0.13625582507E+03  0.72467921302E+03  0.10876372866E+04  0.79947343161E+03 0.  0.
         22    1    5    5    0    0 -0.73264172414E+02  0.30245903681E+03  0.11083096947E+03  0.33035225397E+03  0.00000000000E+00 0.  1.
         22    1    5    5    0    0  0.64809138433E+02 -0.43871486188E+03  0.61384824355E+03  0.75728503259E+03  0.00000000000E+00 0.  1.
          5    1    4    4  502    0  0.36182530939E+02  0.10345789586E+03  0.64321384938E+02  0.12716934505E+03  0.47000000000E+01 0. -1.
         -5    1    4    4    0  502 -0.27727496958E+02  0.32797929215E+02  0.15181726290E+03  0.15784514425E+03  0.47000000000E+01 0. -1.
<mgrwt>
<rscale>  0 0.99951721E+03</rscale>
<asrwt>0</asrwt>
<pdfrwt beam="1">  1        2 0.33217994E-01 0.99951721E+03</pdfrwt>
<pdfrwt beam="2">  1       -2 0.17795920E+00 0.99951721E+03</pdfrwt>
<totfact> 0.32860230E+01</totfact>
</mgrwt>
</event>
<event>
 9    1  0.4321150E-036  0.1000089E+04  0.7818608E-02  0.8680954E-01
          2   -1    0    0  501    0  0.00000000000E+00  0.00000000000E+00  0.60978135320E+03  0.60978135320E+03  0.00000000000E+00 0.  1.
         -2   -1    0    0    0  501 -0.00000000000E+00 -0.00000000000E+00 -0.41005565497E+03  0.41005565497E+03  0.00000000000E+00 0.  1.
         36    2    1    2    0    0  0.00000000000E+00  0.28421709430E-13  0.19972569822E+03  0.10198370082E+04  0.10000885804E+04 0.  0.
         25    2    3    3    0    0  0.10950396119E+03 -0.74225781338E+02  0.12268242624E+03  0.21747652852E+03  0.12142684471E+03 0.  0.
         35    2    3    3    0    0 -0.10950396119E+03  0.74225781338E+02  0.77043271979E+02  0.80236047965E+03  0.78762052374E+03 0.  0.
         22    1    5    5    0    0 -0.15326144028E+03 -0.27231196021E+03 -0.18730496805E+03  0.36431582975E+03  0.00000000000E+00 0. -1.
         22    1    5    5    0    0  0.43757479090E+02  0.34653774155E+03  0.26434824003E+03  0.43804464990E+03  0.00000000000E+00 0. -1.
          5    1    4    4  502    0  0.84913716522E+02 -0.10341990381E+03  0.66786509025E+02  0.14962801725E+03  0.47000000000E+01 0. -1.
         -5    1    4    4    0  502  0.24590244672E+02  0.29194122472E+02  0.55895917219E+02  0.67848511271E+02  0.47000000000E+01 0. -1.
<mgrwt>
<rscale>  0 0.10000886E+04</rscale>
<asrwt>0</asrwt>
<pdfrwt beam="1">  1        2 0.93812516E-01 0.10000886E+04</pdfrwt>
<pdfrwt beam="2">  1       -2 0.63085485E-01 0.10000886E+04</pdfrwt>
<totfact> 0.13697090E+02</totfact>
</mgrwt>
</event>
<event>
 9    1  0.4321150E-036  0.1000093E+04  0.7818608E-02  0.8680950E-01
         -2   -1    0    0    0  501 -0.00000000000E+00  0.00000000000E+00  0.71962708719E+03  0.71962708719E+03  0.00000000000E+00 0. -1.
          2   -1    0    0  501    0  0.00000000000E+00 -0.00000000000E+00 -0.34746667621E+03  0.34746667621E+03  0.00000000000E+00 0. -1.
         36    2    1    2    0    0  0.14210854715E-13  0.14210854715E-13  0.37216041099E+03  0.10670937634E+04  0.10000928599E+04 0.  0.
         25    2    3    3    0    0 -0.12366440814E+03 -0.51970802591E+02  0.23987606011E+02  0.18407491390E+03  0.12375103443E+03 0.  0.
         35    2    3    3    0    0  0.12366440814E+03  0.51970802591E+02  0.34817280498E+03  0.88301884950E+03  0.80031502315E+03 0.  0.
         22    1    5    5    0    0 -0.14177071392E+03  0.26086814778E+03  0.44199102057E+03  0.53245393051E+03  0.00000000000E+00 0.  1.
         22    1    5    5    0    0  0.26543512206E+03 -0.20889734519E+03 -0.93818215589E+02  0.35056491899E+03  0.00000000000E+00 0.  1.
          5    1    4    4  502    0 -0.13647552791E+03 -0.72463173992E+02  0.32600579872E+02  0.15799167418E+03  0.47000000000E+01 0. -1.
         -5    1    4    4    0  502  0.12811119771E+02  0.20492371401E+02 -0.86129738614E+01  0.26083239718E+02  0.47000000000E+01 0. -1.
<mgrwt>
<rscale>  0 0.10000929E+04</rscale>
<asrwt>0</asrwt>
<pdfrwt beam="1">  1        2 0.53456412E-01 0.10000929E+04</pdfrwt>
<pdfrwt beam="2">  1       -2 0.11071186E+00 0.10000929E+04</pdfrwt>
<totfact> 0.70968708E+01</totfact>
</mgrwt>
</event>
<event>
 9    1  0.4321150E-036  0.9999763E+03  0.7818608E-02  0.8681061E-01
         -1   -1    0    0    0  501 -0.00000000000E+00  0.00000000000E+00  0.36697628509E+03  0.36697628509E+03  0.00000000000E+00 0.  1.
          1   -1    0    0  501    0  0.00000000000E+00 -0.00000000000E+00 -0.68121059998E+03  0.68121059998E+03  0.00000000000E+00 0.  1.
         36    2    1    2    0    0  0.42632564146E-13 -0.14210854715E-13 -0.31423431489E+03  0.10481868851E+04  0.99997627041E+03 0.  0.
         25    2    3    3    0    0 -0.12069727564E+03  0.49609843613E+02 -0.14352507852E+02  0.18258982731E+03  0.12690185824E+03 0.  0.
         35    2    3    3    0    0  0.12069727564E+03 -0.49609843613E+02 -0.29988180704E+03  0.86559705777E+03  0.80143633514E+03 0.  0.
         22    1    5    5    0    0 -0.39072778710E+02 -0.99616750095E+02 -0.55237550505E+03  0.56264453922E+03  0.00000000000E+00 0.  1.
         22    1    5    5    0    0  0.15977005435E+03  0.50006906481E+02  0.25249369800E+03  0.30295251855E+03  0.00000000000E+00 0.  1.
          5    1    4    4  502    0 -0.61293691315E+02 -0.38218808723E+01 -0.63664337958E+02  0.88581946784E+02  0.47000000000E+01 0.  1.
         -5    1    4    4    0  502 -0.59403584325E+02  0.53431724486E+02  0.49311830106E+02  0.94007880524E+02  0.47000000000E+01 0.  1.
<mgrwt>
<rscale>  0 0.99997627E+03</rscale>
<asrwt>0</asrwt>
<pdfrwt beam="1">  1        1 0.10480163E+00 0.99997627E+03</pdfrwt>
<pdfrwt beam="2">  1       -1 0.56457891E-01 0.99997627E+03</pdfrwt>
<totfact> 0.10388659E+02</totfact>
</mgrwt>
</event>
<event>
 9    1  0.4321150E-036  0.9996138E+03  0.7818608E-02  0.8681406E-01
          2   -1    0    0  501    0  0.00000000000E+00  0.00000000000E+00  0.20444555995E+04  0.20444555995E+04  0.00000000000E+00 0.  1.
         -2   -1    0    0    0  501 -0.00000000000E+00 -0.00000000000E+00 -0.12218752103E+03  0.12218752103E+03  0.00000000000E+00 0.  1.
         36    2    1    2    0    0  0.00000000000E+00 -0.14210854715E-13  0.19222680785E+04  0.21666431205E+04  0.99961384858E+03 0.  0.
         25    2    3    3    0    0 -0.82906061643E+02 -0.83111836575E+02  0.51884719701E+03  0.54691838788E+03  0.12702880270E+03 0.  0.
         35    2    3    3    0    0  0.82906061643E+02  0.83111836575E+02  0.14034208815E+04  0.16197247327E+04  0.80008564957E+03 0.  0.
         22    1    5    5    0    0 -0.14472710887E+03  0.38293944921E+03  0.53856638755E+03  0.67649265451E+03  0.00000000000E+00 0. -1.
         22    1    5    5    0    0  0.22763317051E+03 -0.29982761264E+03  0.86485449392E+03  0.94323207816E+03  0.00000000000E+00 0. -1.
          5    1    4    4  502    0 -0.52345387094E+02 -0.83202738565E+02  0.16792915317E+03  0.19464076074E+03  0.47000000000E+01 0.  1.
         -5    1    4    4    0  502 -0.30560674549E+02  0.90901990435E-01  0.35091804384E+03  0.35227762714E+03  0.47000000000E+01 0.  1.
<mgrwt>
<rscale>  0 0.99961385E+03</rscale>
<asrwt>0</asrwt>
<pdfrwt beam="1">  1        2 0.31453161E+00 0.99961385E+03</pdfrwt>
<pdfrwt beam="2">  1       -2 0.18798082E-01 0.99961385E+03</pdfrwt>
<totfact> 0.17595030E+02</totfact>
</mgrwt>
</event>
<event>
 9    1  0.4321150E-036  0.9996301E+03  0.7818608E-02  0.8681390E-01
          1   -1    0    0  501    0  0.00000000000E+00  0.00000000000E+00  0.94551571898E+03  0.94551571898E+03  0.00000000000E+00 0.  1.
         -1   -1    0    0    0  501 -0.00000000000E+00 -0.00000000000E+00 -0.26421037263E+03  0.26421037263E+03  0.00000000000E+00 0.  1.
         36    2    1    2    0    0  0.00000000000E+00  0.28421709430E-13  0.68130534635E+03  0.12097260916E+04  0.99963005245E+03 0.  0.
         25    2    3    3    0    0  0.86363997721E+02  0.89479008722E+02  0.20757023887E+03  0.27186407476E+03  0.12393319964E+03 0.  0.
         35    2    3    3    0    0 -0.86363997721E+02 -0.89479008722E+02  0.47373510747E+03  0.93786201686E+03  0.79980933822E+03 0.  0.
         22    1    5    5    0    0 -0.22257127419E+03  0.28542764417E+03  0.66850738744E+02  0.36807055495E+03  0.00000000000E+00 0. -1.
         22    1    5    5    0    0  0.13620727647E+03 -0.37490665289E+03  0.40688436873E+03  0.56979146190E+03  0.00000000000E+00 0. -1.
          5    1    4    4  502    0  0.48445826545E+02  0.16710511944E+02  0.17674421852E+03  0.18408380727E+03  0.47000000000E+01 0.  1.
         -5    1    4    4    0  502  0.37918171176E+02  0.72768496778E+02  0.30826020353E+02  0.87780267484E+02  0.47000000000E+01 0.  1.
<mgrwt>
<rscale>  0 0.99963005E+03</rscale>
<asrwt>0</asrwt>
<pdfrwt beam="1">  1        1 0.14546396E+00 0.99963005E+03</pdfrwt>
<pdfrwt beam="2">  1       -1 0.40647750E-01 0.99963005E+03</pdfrwt>
<totfact> 0.11111391E+02</totfact>
</mgrwt>
</event>
<event>
 9    1  0.4321150E-036  0.1000011E+04  0.7818608E-02  0.8681027E-01
         -1   -1    0    0    0  501 -0.00000000000E+00  0.00000000000E+00  0.48667878362E+03  0.48667878362E+03  0.00000000000E+00 0. -1.
          1   -1    0    0  501    0  0.00000000000E+00 -0.00000000000E+00 -0.51369721370E+03  0.51369721370E+03  0.00000000000E+00 0. -1.
         36    2    1    2    0    0  0.00000000000E+00  0.28421709430E-13 -0.27018430074E+02  0.10003759973E+04  0.10000110702E+04 0.  0.
         25    2    3    3    0    0  0.10651979565E+03  0.64330961417E+02 -0.81698780513E+02  0.19500297238E+03  0.12596241121E+03 0.  0.
         35    2    3    3    0    0 -0.10651979565E+03 -0.64330961417E+02  0.54680350439E+02  0.80537302494E+03  0.79382040105E+03 0.  0.
         22    1    5    5    0    0  0.26001998163E+02  0.35173959366E+03 -0.50293041103E+02  0.35626708469E+03  0.00000000000E+00 0. -1.
         22    1    5    5    0    0 -0.13252179381E+03 -0.41607055507E+03  0.10497339154E+03  0.44910594025E+03  0.00000000000E+00 0. -1.
          5    1    4    4  502    0  0.12287816108E+03  0.24003352186E+02 -0.84532580787E+02  0.15113917626E+03  0.47000000000E+01 0.  1.
         -5    1    4    4    0  502 -0.16358365429E+02  0.40327609231E+02  0.28338002740E+01  0.43863796117E+02  0.47000000000E+01 0.  1.
<mgrwt>
<rscale>  0 0.10000111E+04</rscale>
<asrwt>0</asrwt>
<pdfrwt beam="1">  1        1 0.79030340E-01 0.10000111E+04</pdfrwt>
<pdfrwt beam="2">  1       -1 0.74873659E-01 0.10000111E+04</pdfrwt>
<totfact> 0.90243502E+01</totfact>
</mgrwt>
</event>
<event>
 9    1  0.4321150E-036  0.9997997E+03  0.7818608E-02  0.8681229E-01
          2   -1    0    0  501    0  0.00000000000E+00  0.00000000000E+00  0.15928778416E+04  0.15928778416E+04  0.00000000000E+00 0.  1.
         -2   -1    0    0    0  501 -0.00000000000E+00 -0.00000000000E+00 -0.15688577594E+03  0.15688577594E+03  0.00000000000E+00 0.  1.
         36    2    1    2    0    0  0.00000000000E+00  0.28421709430E-13  0.14359920657E+04  0.17497636176E+04  0.99979973227E+03 0.  0.
         25    2    3    3    0    0  0.72128264518E+02  0.83169332350E+02  0.11850215220E+03  0.20458376830E+03  0.12526824734E+03 0.  0.
         35    2    3    3    0    0 -0.72128264518E+02 -0.83169332350E+02  0.13174899135E+04  0.15451798493E+04  0.79980089400E+03 0.  0.
         22    1    5    5    0    0 -0.11206276031E+03 -0.35916047216E+03  0.11714555787E+04  0.12303911898E+04  0.00000000000E+00 0.  1.
         22    1    5    5    0    0  0.39934495792E+02  0.27599113981E+03  0.14603433481E+03  0.31478865951E+03  0.00000000000E+00 0.  1.
          5    1    4    4  502    0  0.80445478350E+02  0.10951416063E+03  0.11113718436E+03  0.17560862768E+03  0.47000000000E+01 0.  1.
         -5    1    4    4    0  502 -0.83172138314E+01 -0.26344828282E+02  0.73649678315E+01  0.28975140625E+02  0.47000000000E+01 0.  1.
<mgrwt>
<rscale>  0 0.99979973E+03</rscale>
<asrwt>0</asrwt>
<pdfrwt beam="1">  1        2 0.24505812E+00 0.99979973E+03</pdfrwt>
<pdfrwt beam="2">  1       -2 0.24136274E-01 0.99979973E+03</pdfrwt>
<totfact> 0.20496854E+02</totfact>
</mgrwt>
</event>
<event>
 9    1  0.4321150E-036  0.9959266E+03  0.7818608E-02  0.8684927E-01
         -2   -1    0    0    0  501 -0.00000000000E+00  0.00000000000E+00  0.12683207859E+03  0.12683207859E+03  0.00000000000E+00 0. -1.
          2   -1    0    0  501    0  0.00000000000E+00 -0.00000000000E+00 -0.19550844628E+04  0.19550844628E+04  0.00000000000E+00 0. -1.
         36    2    1    2    0    0 -0.17763568394E-14  0.28421709430E-13 -0.18282523842E+04  0.20819165414E+04  0.99592655601E+03 0.  0.
         25    2    3    3    0    0 -0.11898260065E+02  0.10952449061E+03 -0.17199351422E+03  0.23938747923E+03  0.12484956405E+03 0.  0.
         35    2    3    3    0    0  0.11898260065E+02 -0.10952449061E+03 -0.16562588700E+04  0.18425290622E+04  0.79973915614E+03 0.  0.
         22    1    5    5    0    0 -0.60476708268E+02 -0.41009588277E+03 -0.52025635303E+03  0.66520879292E+03  0.00000000000E+00 0.  1.
         22    1    5    5    0    0  0.72374968333E+02  0.30057139216E+03 -0.11360025170E+04  0.11773202692E+04  0.00000000000E+00 0.  1.
          5    1    4    4  502    0 -0.13451947553E+02  0.10646771673E+03 -0.19120628283E+03  0.21931316010E+03  0.47000000000E+01 0. -1.
         -5    1    4    4    0  502  0.15536874881E+01  0.30567738790E+01  0.19212768605E+02  0.20074319138E+02  0.47000000000E+01 0. -1.
<mgrwt>
<rscale>  0 0.99592656E+03</rscale>
<asrwt>0</asrwt>
<pdfrwt beam="1">  1        2 0.30078221E+00 0.99592656E+03</pdfrwt>
<pdfrwt beam="2">  1       -2 0.19512628E-01 0.99592656E+03</pdfrwt>
<totfact> 0.18553295E+02</totfact>
</mgrwt>
</event>
<event>
 9    1  0.4321150E-036  0.9999034E+03  0.7818608E-02  0.8681130E-01
          2   -1    0    0  501    0  0.00000000000E+00  0.00000000000E+00  0.40302054207E+04  0.40302054207E+04  0.00000000000E+00 0. -1.
         -2   -1    0    0    0  501 -0.00000000000E+00 -0.00000000000E+00 -0.62019597681E+02  0.62019597681E+02  0.00000000000E+00 0. -1.
         36    2    1    2    0    0  0.21316282073E-13  0.00000000000E+00  0.39681858230E+04  0.40922250184E+04  0.99990343287E+03 0.  0.
         25    2    3    3    0    0  0.52609170988E+02  0.76601616396E+02  0.12771031105E+04  0.12865621031E+04  0.12495662421E+03 0.  0.
         35    2    3    3    0    0 -0.52609170988E+02 -0.76601616396E+02  0.26910827126E+04  0.28056629153E+04  0.78815144213E+03 0.  0.
         22    1    5    5    0    0 -0.39769256310E+03 -0.13945361933E+03  0.17845437446E+04  0.18336311142E+04  0.00000000000E+00 0. -1.
         22    1    5    5    0    0  0.34508339211E+03  0.62852002933E+02  0.90653896795E+03  0.97203180102E+03  0.00000000000E+00 0. -1.
          5    1    4    4  502    0  0.84389297132E+02  0.84015599819E+02  0.86969915681E+03  0.87782622873E+03  0.47000000000E+01 0.  1.
         -5    1    4    4    0  502 -0.31780126144E+02 -0.74139834231E+01  0.40740395364E+03  0.40873587439E+03  0.47000000000E+01 0.  1.
<mgrwt>
<rscale>  0 0.99990343E+03</rscale>
<asrwt>0</asrwt>
<pdfrwt beam="1">  1        2 0.62003140E+00 0.99990343E+03</pdfrwt>
<pdfrwt beam="2">  1       -2 0.95414797E-02 0.99990343E+03</pdfrwt>
<totfact> 0.23061625E+01</totfact>
</mgrwt>
</event>
<event>
 9    1  0.4321150E-036  0.9940193E+03  0.7818608E-02  0.8686754E-01
         -2   -1    0    0    0  501 -0.00000000000E+00  0.00000000000E+00  0.29209515968E+03  0.29209515968E+03  0.00000000000E+00 0. -1.
          2   -1    0    0  501    0  0.00000000000E+00 -0.00000000000E+00 -0.84567852571E+03  0.84567852571E+03  0.00000000000E+00 0. -1.
         36    2    1    2    0    0 -0.28421709430E-13 -0.14210854715E-13 -0.55358336603E+03  0.11377736854E+04  0.99401932377E+03 0.  0.
         25    2    3    3    0    0 -0.10042599544E+03  0.83273345784E+02 -0.13406842525E+03  0.22477854891E+03  0.12462432637E+03 0.  0.
         35    2    3    3    0    0  0.10042599544E+03 -0.83273345784E+02 -0.41951494078E+03  0.91299513648E+03  0.80034211624E+03 0.  0.
         22    1    5    5    0    0  0.35850795202E+03  0.21147015272E+03 -0.25468305280E+03  0.48796622274E+03  0.00000000000E+00 0. -1.
         22    1    5    5    0    0 -0.25808195658E+03 -0.29474349850E+03 -0.16483188798E+03  0.42502891374E+03  0.00000000000E+00 0. -1.
          5    1    4    4  502    0 -0.12128115153E+03  0.34194685599E+02 -0.84262555613E+02  0.15165969312E+03  0.47000000000E+01 0.  1.
         -5    1    4    4    0  502  0.20855156091E+02  0.49078660185E+02 -0.49805869635E+02  0.73118855784E+02  0.47000000000E+01 0.  1.
<mgrwt>
<rscale>  0 0.99401932E+03</rscale>
<asrwt>0</asrwt>
<pdfrwt beam="1">  1        2 0.13010439E+00 0.99401932E+03</pdfrwt>
<pdfrwt beam="2">  1       -2 0.44937717E-01 0.99401932E+03</pdfrwt>
<totfact> 0.18155269E+02</totfact>
</mgrwt>
</event>
<event>
 9    1  0.4321150E-036  0.1006957E+04  0.7818608E-02  0.8674441E-01
          2   -1    0    0  501    0  0.00000000000E+00  0.00000000000E+00  0.14990154820E+04  0.14990154820E+04  0.00000000000E+00 0.  1.
         -2   -1    0    0    0  501 -0.00000000000E+00 -0.00000000000E+00 -0.16910459018E+03  0.16910459018E+03  0.00000000000E+00 0.  1.
         36    2    1    2    0    0 -0.14210854715E-13  0.00000000000E+00  0.13299108918E+04  0.16681200722E+04  0.10069566004E+04 0.  0.
         25    2    3    3    0    0  0.72942350073E+02 -0.13151832815E+03  0.24335875649E+03  0.31041342307E+03  0.12047967375E+03 0.  0.
         35    2    3    3    0    0 -0.72942350073E+02  0.13151832815E+03  0.10865521353E+04  0.13577066491E+04  0.80009633495E+03 0.  0.
         22    1    5    5    0    0 -0.31378212645E+03  0.74862977336E+02  0.95777109644E+02  0.33650697316E+03  0.00000000000E+00 0. -1.
         22    1    5    5    0    0  0.24083977637E+03  0.56655350813E+02  0.99077502567E+03  0.10211996759E+04  0.00000000000E+00 0. -1.
          5    1    4    4  502    0  0.32581925210E+02 -0.18003505728E+02  0.15874093179E+03  0.16311493339E+03  0.47000000000E+01 0. -1.
         -5    1    4    4    0  502  0.40360424863E+02 -0.11351482242E+03  0.84617824698E+02  0.14729848968E+03  0.47000000000E+01 0. -1.
<mgrwt>
<rscale>  0 0.10069566E+04</rscale>
<asrwt>0</asrwt>
<pdfrwt beam="1">  1        2 0.23061776E+00 0.10069566E+04</pdfrwt>
<pdfrwt beam="2">  1       -2 0.26016092E-01 0.10069566E+04</pdfrwt>
<totfact> 0.20272401E+02</totfact>
</mgrwt>
</event>
<event>
 9    1  0.4321150E-036  0.1002089E+04  0.7818608E-02  0.8679052E-01
         -1   -1    0    0    0  501 -0.00000000000E+00  0.00000000000E+00  0.40737587862E+03  0.40737587862E+03  0.00000000000E+00 0. -1.
          1   -1    0    0  501    0  0.00000000000E+00 -0.00000000000E+00 -0.61624996413E+03  0.61624996413E+03  0.00000000000E+00 0. -1.
         36    2    1    2    0    0 -0.14210854715E-13  0.00000000000E+00 -0.20887408551E+03  0.10236258428E+04  0.10020885601E+04 0.  0.
         25    2    3    3    0    0  0.75743488230E+02  0.10984823358E+03  0.16653938948E+02  0.18351538508E+03  0.12488727897E+03 0.  0.
         35    2    3    3    0    0 -0.75743488230E+02 -0.10984823358E+03 -0.22552802446E+03  0.84011045768E+03  0.79819733203E+03 0.  0.
         22    1    5    5    0    0  0.18203733261E+03  0.83296877827E+02  0.21539654139E+03  0.29406058961E+03  0.00000000000E+00 0.  1.
         22    1    5    5    0    0 -0.25778082084E+03 -0.19314511140E+03 -0.44092456585E+03  0.54604986807E+03  0.00000000000E+00 0.  1.
          5    1    4    4  502    0 -0.26309591669E+02  0.58398475448E+02 -0.12601358863E+02  0.65448153477E+02  0.47000000000E+01 0. -1.
         -5    1    4    4    0  502  0.10205307990E+03  0.51449758129E+02  0.29255297810E+02  0.11806723160E+03  0.47000000000E+01 0. -1.
<mgrwt>
<rscale>  0 0.10020886E+04</rscale>
<asrwt>0</asrwt>
<pdfrwt beam="1">  1        1 0.94807687E-01 0.10020886E+04</pdfrwt>
<pdfrwt beam="2">  1       -1 0.62673212E-01 0.10020886E+04</pdfrwt>
<totfact> 0.98797730E+01</totfact>
</mgrwt>
</event>
<event>
 9    1  0.4321150E-036  0.9994284E+03  0.7818608E-02  0.8681582E-01
          2   -1    0    0  501    0  0.00000000000E+00  0.00000000000E+00  0.10115139006E+04  0.10115139006E+04  0.00000000000E+00 0. -1.
         -2   -1    0    0    0  501 -0.00000000000E+00 -0.00000000000E+00 -0.24687182588E+03  0.24687182588E+03  0.00000000000E+00 0. -1.
         36    2    1    2    0    0  0.00000000000E+00  0.00000000000E+00  0.76464207470E+03  0.12583857265E+04  0.99942840373E+03 0.  0.
         25    2    3    3    0    0  0.12849730206E+03 -0.49475101023E+02  0.11252456578E+03  0.21752215138E+03  0.12527875390E+03 0.  0.
         35    2    3    3    0    0 -0.12849730206E+03  0.49475101023E+02  0.65211750892E+03  0.10408635751E+04  0.79948758230E+03 0.  0.
         22    1    5    5    0    0  0.31886756660E+03  0.19986104529E+02  0.44291037143E+03  0.54611863777E+03  0.00000000000E+00 0. -1.
         22    1    5    5    0    0 -0.44736486866E+03  0.29488996494E+02  0.20920713749E+03  0.49474493732E+03  0.00000000000E+00 0. -1.
          5    1    4    4  502    0  0.11034068538E+03  0.13999259467E+02  0.10105118781E+03  0.15034785890E+03  0.47000000000E+01 0.  1.
         -5    1    4    4    0  502  0.18156616675E+02 -0.63474360491E+02  0.11473377969E+02  0.67174292484E+02  0.47000000000E+01 0.  1.
<mgrwt>
<rscale>  0 0.99942840E+03</rscale>
<asrwt>0</asrwt>
<pdfrwt beam="1">  1        2 0.15561752E+00 0.99942840E+03</pdfrwt>
<pdfrwt beam="2">  1       -2 0.37980281E-01 0.99942840E+03</pdfrwt>
<totfact> 0.19581565E+02</totfact>
</mgrwt>
</event>
<event>
 9    1  0.4321150E-036  0.1001161E+04  0.7818608E-02  0.8679933E-01
          2   -1    0    0  501    0  0.00000000000E+00  0.00000000000E+00  0.23759620911E+04  0.23759620911E+04  0.00000000000E+00 0.  1.
         -2   -1    0    0    0  501 -0.00000000000E+00 -0.00000000000E+00 -0.10546499256E+03  0.10546499256E+03  0.00000000000E+00 0.  1.
         36    2    1    2    0    0 -0.14210854715E-13 -0.28421709430E-13  0.22704970985E+04  0.24814270837E+04  0.10011609746E+04 0.  0.
         25    2    3    3    0    0 -0.20427135354E+02  0.10784870214E+03  0.23104152649E+03  0.28969523780E+03  0.13599460809E+03 0.  0.
         35    2    3    3    0    0  0.20427135354E+02 -0.10784870214E+03  0.20394555721E+04  0.21917318459E+04  0.79514831532E+03 0.  0.
         22    1    5    5    0    0 -0.16054676088E+03  0.18368071297E+03  0.16691685335E+04  0.16869017339E+04  0.00000000000E+00 0.  1.
         22    1    5    5    0    0  0.18097389623E+03 -0.29152941511E+03  0.37028703860E+03  0.50483011197E+03  0.00000000000E+00 0.  1.
          5    1    4    4  502    0 -0.75509757131E+02  0.75709786664E+02  0.11431391507E+03  0.15659966921E+03  0.47000000000E+01 0.  1.
         -5    1    4    4    0  502  0.55082621777E+02  0.32138915474E+02  0.11672761143E+03  0.13309556859E+03  0.47000000000E+01 0.  1.
<mgrwt>
<rscale>  0 0.10011610E+04</rscale>
<asrwt>0</asrwt>
<pdfrwt beam="1">  1        2 0.36553259E+00 0.10011610E+04</pdfrwt>
<pdfrwt beam="2">  1       -2 0.16225385E-01 0.10011610E+04</pdfrwt>
<totfact> 0.14490878E+02</totfact>
</mgrwt>
</event>
<event>
 9    1  0.4321150E-036  0.9943575E+03  0.7818608E-02  0.8686430E-01
          2   -1    0    0  501    0  0.00000000000E+00  0.00000000000E+00  0.28074018237E+04  0.28074018237E+04  0.00000000000E+00 0. -1.
         -2   -1    0    0    0  501 -0.00000000000E+00 -0.00000000000E+00 -0.88048206462E+02  0.88048206462E+02  0.00000000000E+00 0. -1.
         36    2    1    2    0    0 -0.28421709430E-13  0.35527136788E-14  0.27193536172E+04  0.28954500301E+04  0.99435747172E+03 0.  0.
         25    2    3    3    0    0  0.96264596469E+02 -0.11013813446E+02  0.23321862322E+03  0.28189288129E+03  0.12523774865E+03 0.  0.
         35    2    3    3    0    0 -0.96264596469E+02  0.11013813446E+02  0.24861349940E+04  0.26135571488E+04  0.80026594660E+03 0.  0.
         22    1    5    5    0    0 -0.41195886655E+03  0.87070230265E+02  0.88805469521E+03  0.98281863760E+03  0.00000000000E+00 0.  1.
         22    1    5    5    0    0  0.31569427008E+03 -0.76056416819E+02  0.15980802988E+04  0.16307385112E+04  0.00000000000E+00 0.  1.
          5    1    4    4  502    0  0.78191285041E+02 -0.94906934967E+01  0.24656897655E+03  0.25888665573E+03  0.47000000000E+01 0.  1.
         -5    1    4    4    0  502  0.18073311428E+02 -0.15231199493E+01 -0.13350353332E+02  0.23006225558E+02  0.47000000000E+01 0.  1.
<mgrwt>
<rscale>  0 0.99435747E+03</rscale>
<asrwt>0</asrwt>
<pdfrwt beam="1">  1        2 0.43190790E+00 0.99435747E+03</pdfrwt>
<pdfrwt beam="2">  1       -2 0.13545880E-01 0.99435747E+03</pdfrwt>
<totfact> 0.10608549E+02</totfact>
</mgrwt>
</event>
<event>
 9    1  0.4321150E-036  0.1000116E+04  0.7818608E-02  0.8680927E-01
         -2   -1    0    0    0  501 -0.00000000000E+00  0.00000000000E+00  0.16461599203E+03  0.16461599203E+03  0.00000000000E+00 0. -1.
          2   -1    0    0  501    0  0.00000000000E+00 -0.00000000000E+00 -0.15190398106E+04  0.15190398106E+04  0.00000000000E+00 0. -1.
         36    2    1    2    0    0  0.00000000000E+00  0.35527136788E-14 -0.13544238186E+04  0.16836558026E+04  0.10001164839E+04 0.  0.
         25    2    3    3    0    0 -0.12375696611E+03 -0.28156219070E+02 -0.15076242435E+03  0.23326289134E+03  0.12479466553E+03 0.  0.
         35    2    3    3    0    0  0.12375696611E+03  0.28156219070E+02 -0.12036613942E+04  0.14503929113E+04  0.79920603467E+03 0.  0.
         22    1    5    5    0    0  0.18716646008E+03  0.37862805785E+03 -0.45201750760E+03  0.61863585181E+03  0.00000000000E+00 0.  1.
         22    1    5    5    0    0 -0.63409493979E+02 -0.35047183878E+03 -0.75164388662E+03  0.83175705948E+03  0.00000000000E+00 0.  1.
          5    1    4    4  502    0  0.50184040164E+01 -0.47126245445E+02 -0.44206003078E+02  0.64979443648E+02  0.47000000000E+01 0.  1.
         -5    1    4    4    0  502 -0.12877537012E+03  0.18970026376E+02 -0.10655642128E+03  0.16828344769E+03  0.47000000000E+01 0.  1.
<mgrwt>
<rscale>  0 0.10001165E+04</rscale>
<asrwt>0</asrwt>
<pdfrwt beam="1">  1        2 0.23369844E+00 0.10001165E+04</pdfrwt>
<pdfrwt beam="2">  1       -2 0.25325537E-01 0.10001165E+04</pdfrwt>
<totfact> 0.20719993E+02</totfact>
</mgrwt>
</event>
<event>
 9    1  0.4321150E-036  0.9986650E+03  0.7818608E-02  0.8682310E-01
          1   -1    0    0  501    0  0.00000000000E+00  0.00000000000E+00  0.19932905253E+04  0.19932905253E+04  0.00000000000E+00 0.  1.
         -1   -1    0    0    0  501 -0.00000000000E+00 -0.00000000000E+00 -0.12508609567E+03  0.12508609567E+03  0.00000000000E+00 0.  1.
         36    2    1    2    0    0  0.71054273576E-14  0.28421709430E-13  0.18682044296E+04  0.21183766210E+04  0.99866496755E+03 0.  0.
         25    2    3    3    0    0 -0.23264198743E+02  0.13541846852E+03  0.38453435406E+03  0.42706087064E+03  0.12503972655E+03 0.  0.
         35    2    3    3    0    0  0.23264198743E+02 -0.13541846852E+03  0.14836700755E+04  0.16913157503E+04  0.80024539340E+03 0.  0.
         22    1    5    5    0    0 -0.32474806390E+03  0.93954829481E+02  0.98497450993E+03  0.10413758208E+04  0.00000000000E+00 0. -1.
         22    1    5    5    0    0  0.34801226265E+03 -0.22937329800E+03  0.49869556562E+03  0.64993992949E+03  0.00000000000E+00 0. -1.
          5    1    4    4  502    0 -0.64538035082E+02  0.12678943894E+03  0.27641326005E+03  0.31091333219E+03  0.47000000000E+01 0.  1.
         -5    1    4    4    0  502  0.41273836340E+02  0.86290295769E+01  0.10812109401E+03  0.11614753845E+03  0.47000000000E+01 0.  1.
<mgrwt>
<rscale>  0 0.99866497E+03</rscale>
<asrwt>0</asrwt>
<pdfrwt beam="1">  1        1 0.30666006E+00 0.99866497E+03</pdfrwt>
<pdfrwt beam="2">  1       -1 0.19244016E-01 0.99866497E+03</pdfrwt>
<totfact> 0.68621411E+01</totfact>
</mgrwt>
</event>
<event>
 9    1  0.4321150E-036  0.1000039E+04  0.7818608E-02  0.8681001E-01
          1   -1    0    0  501    0  0.00000000000E+00  0.00000000000E+00  0.91007595240E+03  0.91007595240E+03  0.00000000000E+00 0.  1.
         -1   -1    0    0    0  501 -0.00000000000E+00 -0.00000000000E+00 -0.27472394602E+03  0.27472394602E+03  0.00000000000E+00 0.  1.
         36    2    1    2    0    0 -0.14210854715E-13 -0.71054273576E-14  0.63535200638E+03  0.11847998984E+04  0.10000393129E+04 0.  0.
         25    2    3    3    0    0  0.66325123220E+02  0.38832657870E+02 -0.17709042688E+02  0.14912759005E+03  0.12656393892E+03 0.  0.
         35    2    3    3    0    0 -0.66325123220E+02 -0.38832657870E+02  0.65306104907E+03  0.10356723084E+04  0.80013836255E+03 0.  0.
         22    1    5    5    0    0 -0.30060097054E+03 -0.87423010194E+02 -0.27516632122E+02  0.31426245599E+03  0.00000000000E+00 0.  1.
         22    1    5    5    0    0  0.23427584732E+03  0.48590352324E+02  0.68057768119E+03  0.72140985238E+03  0.00000000000E+00 0.  1.
          5    1    4    4  502    0  0.29090305919E+02 -0.92817552863E+01 -0.64972424054E+02  0.71943747241E+02  0.47000000000E+01 0. -1.
         -5    1    4    4    0  502  0.37234817301E+02  0.48114413156E+02  0.47263381366E+02  0.77183842810E+02  0.47000000000E+01 0. -1.
<mgrwt>
<rscale>  0 0.10000393E+04</rscale>
<asrwt>0</asrwt>
<pdfrwt beam="1">  1        1 0.14001168E+00 0.10000393E+04</pdfrwt>
<pdfrwt beam="2">  1       -1 0.42265223E-01 0.10000393E+04</pdfrwt>
<totfact> 0.11079310E+02</totfact>
</mgrwt>
</event>
<event>
 9    1  0.4321150E-036  0.9999856E+03  0.7818608E-02  0.8681052E-01
         -2   -1    0    0    0  501 -0.00000000000E+00  0.00000000000E+00  0.12377423697E+03  0.12377423697E+03  0.00000000000E+00 0. -1.
          2   -1    0    0  501    0  0.00000000000E+00 -0.00000000000E+00 -0.20197483049E+04  0.20197483049E+04  0.00000000000E+00 0. -1.
         36    2    1    2    0    0  0.42632564146E-13  0.00000000000E+00 -0.18959740679E+04  0.21435225418E+04  0.99998561049E+03 0.  0.
         25    2    3    3    0    0 -0.22593545222E+02 -0.13652266750E+03 -0.40994683276E+03  0.45003846984E+03  0.12381159729E+03 0.  0.
         35    2    3    3    0    0  0.22593545222E+02  0.13652266750E+03 -0.14860272351E+04  0.16934840720E+04  0.80028897997E+03 0.  0.
         22    1    5    5    0    0  0.35512045705E+03  0.23202809125E+03 -0.10783792852E+04  0.11588138146E+04  0.00000000000E+00 0.  1.
         22    1    5    5    0    0 -0.33252691183E+03 -0.95505423748E+02 -0.40764794998E+03  0.53467025743E+03  0.00000000000E+00 0.  1.
          5    1    4    4  502    0 -0.24427144053E+02 -0.56433129169E+02 -0.44926628354E+02  0.76301214732E+02  0.47000000000E+01 0.  1.
         -5    1    4    4    0  502  0.18335988307E+01 -0.80089538332E+02 -0.36502020440E+03  0.37373725511E+03  0.47000000000E+01 0.  1.
<mgrwt>
<rscale>  0 0.99998561E+03</rscale>
<asrwt>0</asrwt>
<pdfrwt beam="1">  1        2 0.31073051E+00 0.99998561E+03</pdfrwt>
<pdfrwt beam="2">  1       -2 0.19042190E-01 0.99998561E+03</pdfrwt>
<totfact> 0.17777458E+02</totfact>
</mgrwt>
</event>
<event>
 9    1  0.4321150E-036  0.1001855E+04  0.7818608E-02  0.8679273E-01
          2   -1    0    0  501    0  0.00000000000E+00  0.00000000000E+00  0.67707796835E+03  0.67707796835E+03  0.00000000000E+00 0.  1.
         -2   -1    0    0    0  501 -0.00000000000E+00 -0.00000000000E+00 -0.37060479511E+03  0.37060479511E+03  0.00000000000E+00 0.  1.
         36    2    1    2    0    0  0.00000000000E+00  0.00000000000E+00  0.30647317324E+03  0.10476827635E+04  0.10018549630E+04 0.  0.
         25    2    3    3    0    0 -0.79470254429E+02  0.81952643363E+02 -0.27237438549E+02  0.17213395502E+03  0.12592244962E+03 0.  0.
         35    2    3    3    0    0  0.79470254429E+02 -0.81952643363E+02  0.33371061179E+03  0.87554880845E+03  0.80136832134E+03 0.  0.
         22    1    5    5    0    0 -0.84019324136E+02  0.81494579523E+02  0.54798036839E+03  0.56034194691E+03  0.00000000000E+00 0.  1.
         22    1    5    5    0    0  0.16348957857E+03 -0.16344722289E+03 -0.21426975660E+03  0.31520686154E+03  0.00000000000E+00 0.  1.
          5    1    4    4  502    0 -0.31366533563E+02 -0.22540493914E+02  0.24427957816E+02  0.45942882112E+02  0.47000000000E+01 0.  1.
         -5    1    4    4    0  502 -0.48103720866E+02  0.10449313728E+03 -0.51665396365E+02  0.12619107290E+03  0.47000000000E+01 0.  1.
<mgrwt>
<rscale>  0 0.10018550E+04</rscale>
<asrwt>0</asrwt>
<pdfrwt beam="1">  1        2 0.10416584E+00 0.10018550E+04</pdfrwt>
<pdfrwt beam="2">  1       -2 0.57016123E-01 0.10018550E+04</pdfrwt>
<totfact> 0.14912216E+02</totfact>
</mgrwt>
</event>
<event>
 9    1  0.4321150E-036  0.9990346E+03  0.7818608E-02  0.8681958E-01
         -2   -1    0    0    0  501 -0.00000000000E+00  0.00000000000E+00  0.32235572858E+03  0.32235572858E+03  0.00000000000E+00 0.  1.
          2   -1    0    0  501    0  0.00000000000E+00 -0.00000000000E+00 -0.77404407291E+03  0.77404407291E+03  0.00000000000E+00 0.  1.
         36    2    1    2    0    0  0.00000000000E+00  0.00000000000E+00 -0.45168834433E+03  0.10963998015E+04  0.99903461616E+03 0.  0.
         25    2    3    3    0    0 -0.57597497500E+02 -0.41498668570E+02 -0.21667945631E+03  0.26001046027E+03  0.12496336043E+03 0.  0.
         35    2    3    3    0    0  0.57597497500E+02  0.41498668570E+02 -0.23500888802E+03  0.83638934121E+03  0.79954883618E+03 0.  0.
         22    1    5    5    0    0  0.41922018768E+03  0.96838178910E+02 -0.18021190654E+03  0.46647564772E+03  0.00000000000E+00 0.  1.
         22    1    5    5    0    0 -0.36162269018E+03 -0.55339510340E+02 -0.54796981481E+02  0.36991369350E+03  0.00000000000E+00 0.  1.
          5    1    4    4  502    0  0.24438371480E+02  0.17358663610E+01 -0.13202700214E+03  0.13436318888E+03  0.47000000000E+01 0. -1.
         -5    1    4    4    0  502 -0.82035868979E+02 -0.43234534931E+02 -0.84652454175E+02  0.12564727139E+03  0.47000000000E+01 0. -1.
<mgrwt>
<rscale>  0 0.99903462E+03</rscale>
<asrwt>0</asrwt>
<pdfrwt beam="1">  1        2 0.11908370E+00 0.99903462E+03</pdfrwt>
<pdfrwt beam="2">  1       -2 0.49593189E-01 0.99903462E+03</pdfrwt>
<totfact> 0.16758319E+02</totfact>
</mgrwt>
</event>
<event>
 9    1  0.4321150E-036  0.1000494E+04  0.7818608E-02  0.8680568E-01
         -2   -1    0    0    0  501 -0.00000000000E+00  0.00000000000E+00  0.29690259433E+03  0.29690259433E+03  0.00000000000E+00 0. -1.
          2   -1    0    0  501    0  0.00000000000E+00 -0.00000000000E+00 -0.84285907453E+03  0.84285907453E+03  0.00000000000E+00 0. -1.
         36    2    1    2    0    0 -0.71054273576E-14  0.00000000000E+00 -0.54595648019E+03  0.11397616689E+04  0.10004939698E+04 0.  0.
         25    2    3    3    0    0 -0.68605082864E+01 -0.11204547723E+03 -0.10464729650E+02  0.16888821253E+03  0.12574761319E+03 0.  0.
         35    2    3    3    0    0  0.68605082864E+01  0.11204547723E+03 -0.53549175054E+03  0.97087345633E+03  0.80202406308E+03 0.  0.
         22    1    5    5    0    0  0.14731106740E+03  0.10279480870E+03  0.17248824444E+03  0.24903718145E+03  0.00000000000E+00 0.  1.
         22    1    5    5    0    0 -0.14045055912E+03  0.92506685254E+01 -0.70797999498E+03  0.72183627487E+03  0.00000000000E+00 0.  1.
          5    1    4    4  502    0  0.24052106919E+02  0.13592983717E+01 -0.40609607673E+02  0.47450835342E+02  0.47000000000E+01 0.  1.
         -5    1    4    4    0  502 -0.30912615205E+02 -0.11340477560E+03  0.30144878023E+02  0.12143737719E+03  0.47000000000E+01 0.  1.
<mgrwt>
<rscale>  0 0.10004940E+04</rscale>
<asrwt>0</asrwt>
<pdfrwt beam="1">  1        2 0.12967063E+00 0.10004940E+04</pdfrwt>
<pdfrwt beam="2">  1       -2 0.45677322E-01 0.10004940E+04</pdfrwt>
<totfact> 0.17659304E+02</totfact>
</mgrwt>
</event>
<event>
 9    1  0.4321150E-036  0.9982662E+03  0.7818608E-02  0.8682691E-01
          1   -1    0    0  501    0  0.00000000000E+00  0.00000000000E+00  0.11872370077E+04  0.11872370077E+04  0.00000000000E+00 0.  1.
         -1   -1    0    0    0  501 -0.00000000000E+00 -0.00000000000E+00 -0.20984338141E+03  0.20984338141E+03  0.00000000000E+00 0.  1.
         36    2    1    2    0    0  0.28421709430E-13 -0.88817841970E-15  0.97739362633E+03  0.13970803891E+04  0.99826615336E+03 0.  0.
         25    2    3    3    0    0 -0.11223527707E+03 -0.19345920888E+01  0.58737134458E+02  0.17405714818E+03  0.11935384284E+03 0.  0.
         35    2    3    3    0    0  0.11223527707E+03  0.19345920888E+01  0.91865649187E+03  0.12230232410E+04  0.79953461327E+03 0.  0.
         22    1    5    5    0    0  0.44020748042E+03 -0.59697415891E+02  0.68196496397E+03  0.81389349387E+03  0.00000000000E+00 0. -1.
         22    1    5    5    0    0 -0.32797220335E+03  0.61632007980E+02  0.23669152791E+03  0.40912974710E+03  0.00000000000E+00 0. -1.
          5    1    4    4  502    0 -0.43229917727E+02 -0.96814069291E+01  0.87940487795E+02  0.98580803508E+02  0.47000000000E+01 0.  1.
         -5    1    4    4    0  502 -0.69005359348E+02  0.77468148403E+01 -0.29203353337E+02  0.75476344672E+02  0.47000000000E+01 0.  1.
<mgrwt>
<rscale>  0 0.99826615E+03</rscale>
<asrwt>0</asrwt>
<pdfrwt beam="1">  1        1 0.18265184E+00 0.99826615E+03</pdfrwt>
<pdfrwt beam="2">  1       -1 0.32283598E-01 0.99826615E+03</pdfrwt>
<totfact> 0.10799032E+02</totfact>
</mgrwt>
</event>
<event>
 9    1  0.4321150E-036  0.1000144E+04  0.7818608E-02  0.8680901E-01
         -1   -1    0    0    0  501 -0.00000000000E+00  0.00000000000E+00  0.12195996601E+04  0.12195996601E+04  0.00000000000E+00 0. -1.
          1   -1    0    0  501    0  0.00000000000E+00 -0.00000000000E+00 -0.20504443461E+03  0.20504443461E+03  0.00000000000E+00 0. -1.
         36    2    1    2    0    0  0.00000000000E+00  0.00000000000E+00  0.10145552255E+04  0.14246440947E+04  0.10001442351E+04 0.  0.
         25    2    3    3    0    0  0.82450431217E+02 -0.87207522868E+02  0.88562588541E+02  0.19486594272E+03  0.12540405851E+03 0.  0.
         35    2    3    3    0    0 -0.82450431217E+02  0.87207522868E+02  0.92599263695E+03  0.12297781520E+04  0.80030538783E+03 0.  0.
         22    1    5    5    0    0  0.32526194900E+03  0.99434762771E+02  0.66096973082E+03  0.74334621313E+03  0.00000000000E+00 0.  1.
         22    1    5    5    0    0 -0.40771238022E+03 -0.12227239903E+02  0.26502290614E+03  0.48643193887E+03  0.00000000000E+00 0.  1.
          5    1    4    4  502    0 -0.28191094641E+01 -0.50171785384E+02 -0.17806031620E+02  0.53519157213E+02  0.47000000000E+01 0. -1.
         -5    1    4    4    0  502  0.85269540682E+02 -0.37035737484E+02  0.10636862016E+03  0.14134678551E+03  0.47000000000E+01 0. -1.
<mgrwt>
<rscale>  0 0.10001442E+04</rscale>
<asrwt>0</asrwt>
<pdfrwt beam="1">  1        1 0.31545298E-01 0.10001442E+04</pdfrwt>
<pdfrwt beam="2">  1       -1 0.18763071E+00 0.10001442E+04</pdfrwt>
<totfact> 0.28530155E+01</totfact>
</mgrwt>
</event>
<event>
 9    1  0.4321150E-036  0.1000144E+04  0.7818608E-02  0.8680901E-01
         -2   -1    0    0    0  501 -0.00000000000E+00  0.00000000000E+00  0.23453594869E+04  0.23453594869E+04  0.00000000000E+00 0.  1.
          2   -1    0    0  501    0  0.00000000000E+00 -0.00000000000E+00 -0.10662418890E+03  0.10662418890E+03  0.00000000000E+00 0.  1.
         36    2    1    2    0    0  0.28421709430E-13  0.00000000000E+00  0.22387352980E+04  0.24519836758E+04  0.10001440955E+04 0.  0.
         25    2    3    3    0    0 -0.88992101254E+02 -0.93114693562E+02  0.52252655906E+03  0.55355105536E+03  0.12959485222E+03 0.  0.
         35    2    3    3    0    0  0.88992101254E+02  0.93114693562E+02  0.17162087389E+04  0.18984326204E+04  0.80130146542E+03 0.  0.
         22    1    5    5    0    0 -0.34520265827E+03 -0.48460738235E+02  0.86174146444E+03  0.92957607002E+03  0.00000000000E+00 0.  1.
         22    1    5    5    0    0  0.43419475953E+03  0.14157543180E+03  0.85446727449E+03  0.96885655040E+03  0.00000000000E+00 0.  1.
          5    1    4    4  502    0 -0.10533296226E+03 -0.37923209684E+02  0.23583281503E+03  0.26109846690E+03  0.47000000000E+01 0. -1.
         -5    1    4    4    0  502  0.16340861005E+02 -0.55191483879E+02  0.28669374404E+03  0.29245258847E+03  0.47000000000E+01 0. -1.
<mgrwt>
<rscale>  0 0.10001441E+04</rscale>
<asrwt>0</asrwt>
<pdfrwt beam="1">  1        2 0.16403723E-01 0.10001441E+04</pdfrwt>
<pdfrwt beam="2">  1       -2 0.36082450E+00 0.10001441E+04</pdfrwt>
<totfact> 0.60845726E+00</totfact>
</mgrwt>
</event>
<event>
 9    1  0.4321150E-036  0.1000561E+04  0.7818608E-02  0.8680504E-01
         -2   -1    0    0    0  501 -0.00000000000E+00  0.00000000000E+00  0.33892769485E+03  0.33892769485E+03  0.00000000000E+00 0.  1.
          2   -1    0    0  501    0  0.00000000000E+00 -0.00000000000E+00 -0.73844857867E+03  0.73844857867E+03  0.00000000000E+00 0.  1.
         36    2    1    2    0    0  0.00000000000E+00  0.00000000000E+00 -0.39952088381E+03  0.10773762735E+04  0.10005611916E+04 0.  0.
         25    2    3    3    0    0 -0.11063546383E+03 -0.81861151661E+02 -0.34014526250E+02  0.18703832660E+03  0.12200366229E+03 0.  0.
         35    2    3    3    0    0  0.11063546383E+03  0.81861151661E+02 -0.36550635756E+03  0.89033794693E+03  0.80010331102E+03 0.  0.
         22    1    5    5    0    0  0.34390038722E+03 -0.23259298201E+03 -0.13797491169E+03  0.43749748327E+03  0.00000000000E+00 0. -1.
         22    1    5    5    0    0 -0.23326492338E+03  0.31445413368E+03 -0.22753144587E+03  0.45284046366E+03  0.00000000000E+00 0. -1.
          5    1    4    4  502    0 -0.88979478478E+01 -0.78341288070E+02  0.18446253662E+01  0.79006477805E+02  0.47000000000E+01 0. -1.
         -5    1    4    4    0  502 -0.10173751599E+03 -0.35198635906E+01 -0.35859151616E+02  0.10803184879E+03  0.47000000000E+01 0. -1.
<mgrwt>
<rscale>  0 0.10005612E+04</rscale>
<asrwt>0</asrwt>
<pdfrwt beam="1">  1        2 0.11360747E+00 0.10005612E+04</pdfrwt>
<pdfrwt beam="2">  1       -2 0.52142722E-01 0.10005612E+04</pdfrwt>
<totfact> 0.16080563E+02</totfact>
</mgrwt>
</event>
<event>
 9    1  0.4321150E-036  0.1000115E+04  0.7818608E-02  0.8680928E-01
         -1   -1    0    0    0  501 -0.00000000000E+00  0.00000000000E+00  0.31950899806E+03  0.31950899806E+03  0.00000000000E+00 0.  1.
          1   -1    0    0  501    0  0.00000000000E+00 -0.00000000000E+00 -0.78263096958E+03  0.78263096958E+03  0.00000000000E+00 0.  1.
         36    2    1    2    0    0  0.71054273576E-14  0.42632564146E-13 -0.46312197152E+03  0.11021399676E+04  0.10001152672E+04 0.  0.
         25    2    3    3    0    0 -0.95726924372E+01  0.36052562826E+01  0.66606958969E+02  0.14208105063E+03  0.12508358666E+03 0.  0.
         35    2    3    3    0    0  0.95726924372E+01 -0.36052562826E+01 -0.52972893049E+03  0.96005891701E+03  0.80062210188E+03 0.  0.
         22    1    5    5    0    0 -0.97755609081E+02 -0.31268371968E+03 -0.54124661422E+03  0.63267303172E+03  0.00000000000E+00 0. -1.
         22    1    5    5    0    0  0.10732830152E+03  0.30907846340E+03  0.11517683736E+02  0.32738588528E+03  0.00000000000E+00 0. -1.
          5    1    4    4  502    0 -0.50467388670E+02 -0.35521682419E+02  0.11511329791E+02  0.62955126515E+02  0.47000000000E+01 0. -1.
         -5    1    4    4    0  502  0.40894696232E+02  0.39126938701E+02  0.55095629178E+02  0.79125924112E+02  0.47000000000E+01 0. -1.
<mgrwt>
<rscale>  0 0.10001153E+04</rscale>
<asrwt>0</asrwt>
<pdfrwt beam="1">  1        1 0.12040476E+00 0.10001153E+04</pdfrwt>
<pdfrwt beam="2">  1       -1 0.49155231E-01 0.10001153E+04</pdfrwt>
<totfact> 0.10831268E+02</totfact>
</mgrwt>
</event>
<event>
 9    1  0.4321150E-036  0.1000541E+04  0.7818608E-02  0.8680523E-01
          1   -1    0    0  501    0  0.00000000000E+00  0.00000000000E+00  0.42665532448E+03  0.42665532448E+03  0.00000000000E+00 0. -1.
         -1   -1    0    0    0  501 -0.00000000000E+00 -0.00000000000E+00 -0.58658723820E+03  0.58658723820E+03  0.00000000000E+00 0. -1.
         36    2    1    2    0    0  0.00000000000E+00  0.00000000000E+00 -0.15993191373E+03  0.10132425627E+04  0.10005409906E+04 0.  0.
         25    2    3    3    0    0 -0.62379517912E+02  0.41472182865E+02  0.91038337136E+02  0.17147491666E+03  0.12451715548E+03 0.  0.
         35    2    3    3    0    0  0.62379517912E+02 -0.41472182865E+02 -0.25097025086E+03  0.84176764601E+03  0.79998472289E+03 0.  0.
         22    1    5    5    0    0 -0.26901676642E+03 -0.83573633570E+02 -0.38902325679E+03  0.48030580589E+03  0.00000000000E+00 0.  1.
         22    1    5    5    0    0  0.33139628433E+03  0.42101450705E+02  0.13805300593E+03  0.36146184013E+03  0.00000000000E+00 0.  1.
          5    1    4    4  502    0 -0.26004965221E+02  0.66882177767E+02  0.20683534927E+01  0.71943394452E+02  0.47000000000E+01 0.  1.
         -5    1    4    4    0  502 -0.36374552691E+02 -0.25409994903E+02  0.88969983643E+02  0.99531522212E+02  0.47000000000E+01 0.  1.
<mgrwt>
<rscale>  0 0.10005410E+04</rscale>
<asrwt>0</asrwt>
<pdfrwt beam="1">  1        1 0.65639281E-01 0.10005410E+04</pdfrwt>
<pdfrwt beam="2">  1       -1 0.90244191E-01 0.10005410E+04</pdfrwt>
<totfact> 0.78646272E+01</totfact>
</mgrwt>
</event>
<event>
 9    1  0.4321150E-036  0.9996386E+03  0.7818608E-02  0.8681382E-01
         -2   -1    0    0    0  501 -0.00000000000E+00  0.00000000000E+00  0.20178827192E+03  0.20178827192E+03  0.00000000000E+00 0.  1.
          2   -1    0    0  501    0  0.00000000000E+00 -0.00000000000E+00 -0.12380270526E+04  0.12380270526E+04  0.00000000000E+00 0.  1.
         36    2    1    2    0    0  0.00000000000E+00 -0.28421709430E-13 -0.10362387807E+04  0.14398153245E+04  0.99963861378E+03 0.  0.
         25    2    3    3    0    0 -0.34327796639E+02 -0.10208509988E+03 -0.63031528997E+02  0.17530777089E+03  0.12312625896E+03 0.  0.
         35    2    3    3    0    0  0.34327796639E+02  0.10208509988E+03 -0.97320725172E+03  0.12645075537E+04  0.80015450585E+03 0.  0.
         22    1    5    5    0    0  0.24491842682E+03  0.38395039232E+03 -0.53875603904E+03  0.70545092612E+03  0.00000000000E+00 0.  1.
         22    1    5    5    0    0 -0.21059063018E+03 -0.28186529245E+03 -0.43445121267E+03  0.55905662754E+03  0.00000000000E+00 0.  1.
          5    1    4    4  502    0 -0.47691784541E+02 -0.30557021186E+02 -0.82178737049E+02  0.99918330047E+02  0.47000000000E+01 0.  1.
         -5    1    4    4    0  502  0.13363987903E+02 -0.71528078690E+02  0.19147208052E+02  0.75389440838E+02  0.47000000000E+01 0.  1.
<mgrwt>
<rscale>  0 0.99963861E+03</rscale>
<asrwt>0</asrwt>
<pdfrwt beam="1">  1        2 0.19046570E+00 0.99963861E+03</pdfrwt>
<pdfrwt beam="2">  1       -2 0.31044349E-01 0.99963861E+03</pdfrwt>
<totfact> 0.20804254E+02</totfact>
</mgrwt>
</event>
<event>
 9    1  0.4321150E-036  0.9996896E+03  0.7818608E-02  0.8681334E-01
         -1   -1    0    0    0  501 -0.00000000000E+00  0.00000000000E+00  0.13713771791E+03  0.13713771791E+03  0.00000000000E+00 0. -1.
          1   -1    0    0  501    0  0.00000000000E+00 -0.00000000000E+00 -0.18218535041E+04  0.18218535041E+04  0.00000000000E+00 0. -1.
         36    2    1    2    0    0  0.00000000000E+00  0.00000000000E+00 -0.16847157862E+04  0.19589912220E+04  0.99968961567E+03 0.  0.
         25    2    3    3    0    0  0.58990481467E+02 -0.46477352545E+02 -0.54535256108E+03  0.56465629937E+03  0.12564752021E+03 0.  0.
         35    2    3    3    0    0 -0.58990481467E+02  0.46477352545E+02 -0.11393632252E+04  0.13943349227E+04  0.80023827488E+03 0.  0.
         22    1    5    5    0    0 -0.15817925602E+03 -0.12150024546E+03 -0.11785944181E+04  0.11953525794E+04  0.00000000000E+00 0.  1.
         22    1    5    5    0    0  0.99188774554E+02  0.16797759800E+03  0.39231192976E+02  0.19898234326E+03  0.00000000000E+00 0.  1.
          5    1    4    4  502    0  0.17662439594E+02 -0.29872534502E+02 -0.49890819863E+03  0.50013579231E+03  0.47000000000E+01 0. -1.
         -5    1    4    4    0  502  0.41328041873E+02 -0.16604818043E+02 -0.46444362446E+02  0.64520507052E+02  0.47000000000E+01 0. -1.
<mgrwt>
<rscale>  0 0.99968962E+03</rscale>
<asrwt>0</asrwt>
<pdfrwt beam="1">  1        1 0.28028515E+00 0.99968962E+03</pdfrwt>
<pdfrwt beam="2">  1       -1 0.21098111E-01 0.99968962E+03</pdfrwt>
<totfact> 0.77730298E+01</totfact>
</mgrwt>
</event>
<event>
 9    1  0.4321150E-036  0.1000898E+04  0.7818608E-02  0.8680183E-01
          1   -1    0    0  501    0  0.00000000000E+00  0.00000000000E+00  0.39696269769E+03  0.39696269769E+03  0.00000000000E+00 0.  1.
         -1   -1    0    0    0  501 -0.00000000000E+00 -0.00000000000E+00 -0.63091404559E+03  0.63091404559E+03  0.00000000000E+00 0.  1.
         36    2    1    2    0    0  0.14210854715E-13 -0.28421709430E-13 -0.23395134790E+03  0.10278767433E+04  0.10008982796E+04 0.  0.
         25    2    3    3    0    0 -0.94178582383E+02 -0.10120526745E+03 -0.12179905259E+02  0.18635595474E+03  0.12437073705E+03 0.  0.
         35    2    3    3    0    0  0.94178582383E+02  0.10120526745E+03 -0.22177144264E+03  0.84152078855E+03  0.79991409117E+03 0.  0.
         22    1    5    5    0    0  0.28018596964E+03 -0.26234876161E+03 -0.15847430057E+02  0.38416427650E+03  0.00000000000E+00 0.  1.
         22    1    5    5    0    0 -0.18600738725E+03  0.36355402906E+03 -0.20592401258E+03  0.45735651205E+03  0.00000000000E+00 0.  1.
          5    1    4    4  502    0 -0.91582215801E+02 -0.40348419422E+02 -0.52547242957E+02  0.11313089739E+03  0.47000000000E+01 0. -1.
         -5    1    4    4    0  502 -0.25963665819E+01 -0.60856848026E+02  0.40367337698E+02  0.73225057350E+02  0.47000000000E+01 0. -1.
<mgrwt>
<rscale>  0 0.10008983E+04</rscale>
<asrwt>0</asrwt>
<pdfrwt beam="1">  1        1 0.61071184E-01 0.10008983E+04</pdfrwt>
<pdfrwt beam="2">  1       -1 0.97063700E-01 0.10008983E+04</pdfrwt>
<totfact> 0.73943964E+01</totfact>
</mgrwt>
</event>
<event>
 9    1  0.4321150E-036  0.9999438E+03  0.7818608E-02  0.8681091E-01
          1   -1    0    0  501    0  0.00000000000E+00  0.00000000000E+00  0.17435016804E+04  0.17435016804E+04  0.00000000000E+00 0.  1.
         -1   -1    0    0    0  501 -0.00000000000E+00 -0.00000000000E+00 -0.14337348092E+03  0.14337348092E+03  0.00000000000E+00 0.  1.
         36    2    1    2    0    0  0.24868995752E-13  0.00000000000E+00  0.16001281995E+04  0.18868751613E+04  0.99994380824E+03 0.  0.
         25    2    3    3    0    0 -0.21987605387E+02  0.38685856222E+02  0.55147792988E+03  0.56736341964E+03  0.12567136722E+03 0.  0.
         35    2    3    3    0    0  0.21987605387E+02 -0.38685856222E+02  0.10486502696E+04  0.13195117417E+04  0.79966480367E+03 0.  0.
         22    1    5    5    0    0 -0.35613388190E+03 -0.58376006439E+02  0.26035481879E+03  0.44499857486E+03  0.00000000000E+00 0. -1.
         22    1    5    5    0    0  0.37812148729E+03  0.19690150218E+02  0.78829545082E+03  0.87451316682E+03  0.00000000000E+00 0. -1.
          5    1    4    4  502    0  0.20901155317E+02 -0.54238800897E+01  0.43491984207E+03  0.43548092472E+03  0.47000000000E+01 0. -1.
         -5    1    4    4    0  502 -0.42888760704E+02  0.44109736311E+02  0.11655808780E+03  0.13188249491E+03  0.47000000000E+01 0. -1.
<mgrwt>
<rscale>  0 0.99994381E+03</rscale>
<asrwt>0</asrwt>
<pdfrwt beam="1">  1        1 0.26823101E+00 0.99994381E+03</pdfrwt>
<pdfrwt beam="2">  1       -1 0.22057460E-01 0.99994381E+03</pdfrwt>
<totfact> 0.81952556E+01</totfact>
</mgrwt>
</event>
<event>
 9    1  0.4321150E-036  0.9998913E+03  0.7818608E-02  0.8681141E-01
         -2   -1    0    0    0  501 -0.00000000000E+00  0.00000000000E+00  0.29952334038E+03  0.29952334038E+03  0.00000000000E+00 0. -1.
          2   -1    0    0  501    0  0.00000000000E+00 -0.00000000000E+00 -0.83447813231E+03  0.83447813231E+03  0.00000000000E+00 0. -1.
         36    2    1    2    0    0  0.14210854715E-13  0.00000000000E+00 -0.53495479193E+03  0.11340014727E+04  0.99989134942E+03 0.  0.
         25    2    3    3    0    0 -0.45026927937E+02 -0.11889422780E+03 -0.35302906971E+02  0.18199475827E+03  0.12534965159E+03 0.  0.
         35    2    3    3    0    0  0.45026927937E+02  0.11889422780E+03 -0.49965188496E+03  0.95200671442E+03  0.80031338644E+03 0.  0.
         22    1    5    5    0    0  0.37260781168E+03 -0.92347394831E+02 -0.38967952307E+03  0.54700525898E+03  0.00000000000E+00 0.  1.
         22    1    5    5    0    0 -0.32758088374E+03  0.21124162263E+03 -0.10997236189E+03  0.40500145544E+03  0.00000000000E+00 0.  1.
          5    1    4    4  502    0 -0.63799984036E+02 -0.51981351521E+02 -0.66270740413E+02  0.10576577851E+03  0.47000000000E+01 0. -1.
         -5    1    4    4    0  502  0.18773056098E+02 -0.66912876276E+02  0.30967833442E+02  0.76228979758E+02  0.47000000000E+01 0. -1.
<mgrwt>
<rscale>  0 0.99989135E+03</rscale>
<asrwt>0</asrwt>
<pdfrwt beam="1">  1        2 0.12838125E+00 0.99989135E+03</pdfrwt>
<pdfrwt beam="2">  1       -2 0.46080515E-01 0.99989135E+03</pdfrwt>
<totfact> 0.17587297E+02</totfact>
</mgrwt>
</event>
<event>
 9    1  0.4321150E-036  0.9994574E+03  0.7818608E-02  0.8681555E-01
         -1   -1    0    0    0  501 -0.00000000000E+00  0.00000000000E+00  0.84019966167E+03  0.84019966167E+03  0.00000000000E+00 0. -1.
          1   -1    0    0  501    0  0.00000000000E+00 -0.00000000000E+00 -0.29722553542E+03  0.29722553542E+03  0.00000000000E+00 0. -1.
         36    2    1    2    0    0  0.00000000000E+00  0.14210854715E-13  0.54297412625E+03  0.11374251971E+04  0.99945744141E+03 0.  0.
         25    2    3    3    0    0  0.62093675761E+02 -0.10679931254E+03  0.17418510979E+03  0.24771073253E+03  0.12553261252E+03 0.  0.
         35    2    3    3    0    0 -0.62093675761E+02  0.10679931254E+03  0.36878901646E+03  0.88971446456E+03  0.80020295679E+03 0.  0.
         22    1    5    5    0    0  0.11846180052E+03 -0.55500222876E+02 -0.21825017116E+03  0.25445355201E+03  0.00000000000E+00 0.  1.
         22    1    5    5    0    0 -0.18055547628E+03  0.16229953542E+03  0.58703918761E+03  0.63526091255E+03  0.00000000000E+00 0.  1.
          5    1    4    4  502    0  0.93527243432E+02 -0.39757589376E+02  0.94927747594E+02  0.13914517038E+03  0.47000000000E+01 0. -1.
         -5    1    4    4    0  502 -0.31433567671E+02 -0.67041723169E+02  0.79257362200E+02  0.10856556215E+03  0.47000000000E+01 0. -1.
<mgrwt>
<rscale>  0 0.99945744E+03</rscale>
<asrwt>0</asrwt>
<pdfrwt beam="1">  1        1 0.45727006E-01 0.99945744E+03</pdfrwt>
<pdfrwt beam="2">  1       -1 0.12926149E+00 0.99945744E+03</pdfrwt>
<totfact> 0.54704121E+01</totfact>
</mgrwt>
</event>
<event>
 9    1  0.4321150E-036  0.9996160E+03  0.7818608E-02  0.8681404E-01
          2   -1    0    0  501    0  0.00000000000E+00  0.00000000000E+00  0.20857579422E+04  0.20857579422E+04  0.00000000000E+00 0.  1.
         -2   -1    0    0    0  501 -0.00000000000E+00 -0.00000000000E+00 -0.11976846732E+03  0.11976846732E+03  0.00000000000E+00 0.  1.
         36    2    1    2    0    0  0.00000000000E+00  0.21316282073E-13  0.19659894749E+04  0.22055264095E+04  0.99961599015E+03 0.  0.
         25    2    3    3    0    0  0.13722567961E+03 -0.11785852849E+02  0.32917072485E+03  0.37832894872E+03  0.12573636652E+03 0.  0.
         35    2    3    3    0    0 -0.13722567961E+03  0.11785852849E+02  0.16368187500E+04  0.18271974608E+04  0.80031565451E+03 0.  0.
         22    1    5    5    0    0 -0.37434177511E+03 -0.25174091285E+03  0.10292347376E+04  0.11237568229E+04  0.00000000000E+00 0.  1.
         22    1    5    5    0    0  0.23711609550E+03  0.26352676570E+03  0.60758401240E+03  0.70344063794E+03  0.00000000000E+00 0.  1.
          5    1    4    4  502    0  0.15009246342E+02  0.35394228696E+02  0.22447176857E+02  0.44765998812E+02  0.47000000000E+01 0.  1.
         -5    1    4    4    0  502  0.12221643327E+03 -0.47180081545E+02  0.30672354799E+03  0.33356294990E+03  0.47000000000E+01 0.  1.
<mgrwt>
<rscale>  0 0.99961599E+03</rscale>
<asrwt>0</asrwt>
<pdfrwt beam="1">  1        2 0.32088581E+00 0.99961599E+03</pdfrwt>
<pdfrwt beam="2">  1       -2 0.18425920E-01 0.99961599E+03</pdfrwt>
<totfact> 0.17244326E+02</totfact>
</mgrwt>
</event>
<event>
 9    1  0.4321150E-036  0.1000087E+04  0.7818608E-02  0.8680955E-01
         -1   -1    0    0    0  501 -0.00000000000E+00  0.00000000000E+00  0.65056217716E+03  0.65056217716E+03  0.00000000000E+00 0.  1.
          1   -1    0    0  501    0  0.00000000000E+00 -0.00000000000E+00 -0.38434977445E+03  0.38434977445E+03  0.00000000000E+00 0.  1.
         36    2    1    2    0    0  0.00000000000E+00 -0.28421709430E-13  0.26621240271E+03  0.10349119516E+04  0.10000868483E+04 0.  0.
         25    2    3    3    0    0  0.97895951075E+02  0.14635274378E+02  0.15390252289E+03  0.22133529723E+03  0.12452115785E+03 0.  0.
         35    2    3    3    0    0 -0.97895951075E+02 -0.14635274378E+02  0.11230987981E+03  0.81357665439E+03  0.79968472223E+03 0.  0.
         22    1    5    5    0    0  0.78132298187E+02  0.33785932727E+03  0.21292675124E+03  0.40692921060E+03  0.00000000000E+00 0. -1.
         22    1    5    5    0    0 -0.17602824926E+03 -0.35249460164E+03 -0.10061687143E+03  0.40664744379E+03  0.00000000000E+00 0. -1.
          5    1    4    4  502    0  0.72086014922E+02  0.59002510724E+02  0.51143728442E+02  0.10637415465E+03  0.47000000000E+01 0.  1.
         -5    1    4    4    0  502  0.25809936154E+02 -0.44367236346E+02  0.10275879445E+03  0.11496114258E+03  0.47000000000E+01 0.  1.
<mgrwt>
<rscale>  0 0.10000868E+04</rscale>
<asrwt>0</asrwt>
<pdfrwt beam="1">  1        1 0.59130735E-01 0.10000868E+04</pdfrwt>
<pdfrwt beam="2">  1       -1 0.10008649E+00 0.10000868E+04</pdfrwt>
<totfact> 0.72107874E+01</totfact>
</mgrwt>
</event>
<event>
 9    1  0.4321150E-036  0.1000189E+04  0.7818608E-02  0.8680858E-01
         -2   -1    0    0    0  501 -0.00000000000E+00  0.00000000000E+00  0.17310899139E+03  0.17310899139E+03  0.00000000000E+00 0.  1.
          2   -1    0    0  501    0  0.00000000000E+00 -0.00000000000E+00 -0.14447238877E+04  0.14447238877E+04  0.00000000000E+00 0.  1.
         36    2    1    2    0    0 -0.71054273576E-14 -0.31974423109E-13 -0.12716148963E+04  0.16178328791E+04  0.10001893721E+04 0.  0.
         25    2    3    3    0    0  0.42421442886E+01 -0.17872693139E+02 -0.13554892720E+02  0.12650691765E+03  0.12443004520E+03 0.  0.
         35    2    3    3    0    0 -0.42421442886E+01  0.17872693139E+02 -0.12580600036E+04  0.14913259614E+04  0.80062520672E+03 0.  0.
         22    1    5    5    0    0 -0.13261640653E+03 -0.30586713115E+03 -0.22774851984E+03  0.40374645693E+03  0.00000000000E+00 0. -1.
         22    1    5    5    0    0  0.12837426224E+03  0.32373982429E+03 -0.10303114837E+04  0.10875795045E+04  0.00000000000E+00 0. -1.
          5    1    4    4  502    0  0.38207829481E+02 -0.42994710706E+02 -0.45372268918E+02  0.73410599841E+02  0.47000000000E+01 0. -1.
         -5    1    4    4    0  502 -0.33965685192E+02  0.25122017567E+02  0.31817376197E+02  0.53096317813E+02  0.47000000000E+01 0. -1.
<mgrwt>
<rscale>  0 0.10001894E+04</rscale>
<asrwt>0</asrwt>
<pdfrwt beam="1">  1        2 0.22226521E+00 0.10001894E+04</pdfrwt>
<pdfrwt beam="2">  1       -2 0.26632153E-01 0.10001894E+04</pdfrwt>
<totfact> 0.20871645E+02</totfact>
</mgrwt>
</event>
<event>
 9    1  0.4321150E-036  0.1000081E+04  0.7818608E-02  0.8680961E-01
          2   -1    0    0  501    0  0.00000000000E+00  0.00000000000E+00  0.13428538754E+04  0.13428538754E+04  0.00000000000E+00 0. -1.
         -2   -1    0    0    0  501 -0.00000000000E+00 -0.00000000000E+00 -0.18620069307E+03  0.18620069307E+03  0.00000000000E+00 0. -1.
         36    2    1    2    0    0  0.00000000000E+00  0.00000000000E+00  0.11566531824E+04  0.15290545685E+04  0.10000806413E+04 0.  0.
         25    2    3    3    0    0 -0.12966499414E+03 -0.53890595276E+02  0.24336585032E+03  0.30734051620E+03  0.12455540467E+03 0.  0.
         35    2    3    3    0    0  0.12966499414E+03  0.53890595276E+02  0.91328733204E+03  0.12217140523E+04  0.79923355019E+03 0.  0.
         22    1    5    5    0    0  0.36783293866E+03 -0.20057315789E+03  0.29651209312E+03  0.51327388770E+03  0.00000000000E+00 0. -1.
         22    1    5    5    0    0 -0.23816794452E+03  0.25446375317E+03  0.61677523892E+03  0.70844016460E+03  0.00000000000E+00 0. -1.
          5    1    4    4  502    0 -0.64097573247E+02 -0.51821161894E+02  0.22407669299E+03  0.23880198085E+03  0.47000000000E+01 0.  1.
         -5    1    4    4    0  502 -0.65567420891E+02 -0.20694333824E+01  0.19289157322E+02  0.68538535343E+02  0.47000000000E+01 0.  1.
<mgrwt>
<rscale>  0 0.10000806E+04</rscale>
<asrwt>0</asrwt>
<pdfrwt beam="1">  1        2 0.20659290E+00 0.10000806E+04</pdfrwt>
<pdfrwt beam="2">  1       -2 0.28646261E-01 0.10000806E+04</pdfrwt>
<totfact> 0.20932906E+02</totfact>
</mgrwt>
</event>
<event>
 9    1  0.4321150E-036  0.1000165E+04  0.7818608E-02  0.8680881E-01
          2   -1    0    0  501    0  0.00000000000E+00  0.00000000000E+00  0.31019270423E+04  0.31019270423E+04  0.00000000000E+00 0.  1.
         -2   -1    0    0    0  501 -0.00000000000E+00 -0.00000000000E+00 -0.80621674938E+02  0.80621674938E+02  0.00000000000E+00 0.  1.
         36    2    1    2    0    0  0.42632564146E-13 -0.14210854715E-13  0.30213053673E+04  0.31825487172E+04  0.10001650937E+04 0.  0.
         25    2    3    3    0    0  0.85032815247E+02 -0.10389857065E+03  0.42736081995E+03  0.46487862164E+03  0.12429549379E+03 0.  0.
         35    2    3    3    0    0 -0.85032815247E+02  0.10389857065E+03  0.25939445474E+04  0.27176700956E+04  0.79947291436E+03 0.  0.
         22    1    5    5    0    0 -0.43551851552E+03  0.18330123030E+02  0.16653073291E+04  0.17214124640E+04  0.00000000000E+00 0. -1.
         22    1    5    5    0    0  0.35048570028E+03  0.85568447618E+02  0.92863721824E+03  0.99625763155E+03  0.00000000000E+00 0. -1.
          5    1    4    4  502    0  0.12056042738E+02 -0.11801569357E+02  0.25855981779E+03  0.25915226139E+03  0.47000000000E+01 0.  1.
         -5    1    4    4    0  502  0.72976772510E+02 -0.92097001291E+02  0.16880100216E+03  0.20572636025E+03  0.47000000000E+01 0.  1.
<mgrwt>
<rscale>  0 0.10001651E+04</rscale>
<asrwt>0</asrwt>
<pdfrwt beam="1">  1        2 0.47721945E+00 0.10001651E+04</pdfrwt>
<pdfrwt beam="2">  1       -2 0.12403337E-01 0.10001651E+04</pdfrwt>
<totfact> 0.78341496E+01</totfact>
</mgrwt>
</event>
<event>
 9    1  0.4321150E-036  0.9988791E+03  0.7818608E-02  0.8682106E-01
          2   -1    0    0  501    0  0.00000000000E+00  0.00000000000E+00  0.32059293693E+04  0.32059293693E+04  0.00000000000E+00 0. -1.
         -2   -1    0    0    0  501 -0.00000000000E+00 -0.00000000000E+00 -0.77805782655E+02  0.77805782655E+02  0.00000000000E+00 0. -1.
         36    2    1    2    0    0  0.35527136788E-14  0.14210854715E-13  0.31281235867E+04  0.32837351520E+04  0.99887905918E+03 0.  0.
         25    2    3    3    0    0 -0.26623035620E+02  0.56933775080E+02  0.17634237351E+03  0.22496331185E+03  0.12474621523E+03 0.  0.
         35    2    3    3    0    0  0.26623035620E+02 -0.56933775080E+02  0.29517812132E+04  0.30587718401E+04  0.79945143618E+03 0.  0.
         22    1    5    5    0    0 -0.25632108695E+02  0.40176433697E+02  0.29480465570E+04  0.29484317277E+04  0.00000000000E+00 0. -1.
         22    1    5    5    0    0  0.52255144315E+02 -0.97110208778E+02  0.37346561986E+01  0.11034011244E+03  0.00000000000E+00 0. -1.
          5    1    4    4  502    0  0.31003242414E+02 -0.79215839589E+01  0.11273661557E+03  0.11728421472E+03  0.47000000000E+01 0.  1.
         -5    1    4    4    0  502 -0.57626278033E+02  0.64855359039E+02  0.63605757939E+02  0.10767909713E+03  0.47000000000E+01 0.  1.
<mgrwt>
<rscale>  0 0.99887906E+03</rscale>
<asrwt>0</asrwt>
<pdfrwt beam="1">  1        2 0.49321980E+00 0.99887906E+03</pdfrwt>
<pdfrwt beam="2">  1       -2 0.11970123E-01 0.99887906E+03</pdfrwt>
<totfact> 0.70392707E+01</totfact>
</mgrwt>
</event>
<event>
 9    1  0.4321150E-036  0.1000072E+04  0.7818608E-02  0.8680969E-01
         -1   -1    0    0    0  501 -0.00000000000E+00  0.00000000000E+00  0.30479227816E+03  0.30479227816E+03  0.00000000000E+00 0. -1.
          1   -1    0    0  501    0  0.00000000000E+00 -0.00000000000E+00 -0.82034879880E+03  0.82034879880E+03  0.00000000000E+00 0. -1.
         36    2    1    2    0    0  0.71054273576E-14  0.00000000000E+00 -0.51555652064E+03  0.11251410770E+04  0.10000719560E+04 0.  0.
         25    2    3    3    0    0 -0.56268323325E+02 -0.80755073194E+02 -0.21445342578E+03  0.26687410149E+03  0.12467561173E+03 0.  0.
         35    2    3    3    0    0  0.56268323325E+02  0.80755073194E+02 -0.30110309486E+03  0.85826697547E+03  0.79766635970E+03 0.  0.
         22    1    5    5    0    0 -0.19968856338E+03  0.14281303327E+03 -0.48051102162E+03  0.53959422413E+03  0.00000000000E+00 0.  1.
         22    1    5    5    0    0  0.25595688671E+03 -0.62057960076E+02  0.17940792676E+03  0.31867275134E+03  0.00000000000E+00 0.  1.
          5    1    4    4  502    0 -0.24018322372E+02 -0.52860367970E+02 -0.21623016039E+03  0.22393898851E+03  0.47000000000E+01 0. -1.
         -5    1    4    4    0  502 -0.32250000953E+02 -0.27894705224E+02  0.17767346096E+01  0.42935112983E+02  0.47000000000E+01 0. -1.
<mgrwt>
<rscale>  0 0.10000720E+04</rscale>
<asrwt>0</asrwt>
<pdfrwt beam="1">  1        1 0.12620751E+00 0.10000720E+04</pdfrwt>
<pdfrwt beam="2">  1       -1 0.46891120E-01 0.10000720E+04</pdfrwt>
<totfact> 0.10938669E+02</totfact>
</mgrwt>
</event>
<event>
 9    1  0.4321150E-036  0.9994520E+03  0.7818608E-02  0.8681560E-01
          2   -1    0    0  501    0  0.00000000000E+00  0.00000000000E+00  0.27506880633E+04  0.27506880633E+04  0.00000000000E+00 0.  1.
         -2   -1    0    0    0  501 -0.00000000000E+00 -0.00000000000E+00 -0.90786759383E+02  0.90786759383E+02  0.00000000000E+00 0.  1.
         36    2    1    2    0    0 -0.28421709430E-13  0.42632564146E-13  0.26599013039E+04  0.28414748226E+04  0.99945196050E+03 0.  0.
         25    2    3    3    0    0 -0.12893620757E+03  0.19414987734E+02  0.35737156769E+03  0.40030880152E+03  0.12462428258E+03 0.  0.
         35    2    3    3    0    0  0.12893620757E+03 -0.19414987734E+02  0.23025297362E+04  0.24411660211E+04  0.80040419121E+03 0.  0.
         22    1    5    5    0    0 -0.17028656425E+03  0.28768694518E+03  0.61471263851E+03  0.69973775112E+03  0.00000000000E+00 0. -1.
         22    1    5    5    0    0  0.29922277182E+03 -0.30710193292E+03  0.16878170977E+04  0.17414282700E+04  0.00000000000E+00 0. -1.
          5    1    4    4  502    0 -0.11637963590E+03  0.15465964314E+02  0.36564994414E+03  0.38406430107E+03  0.47000000000E+01 0.  1.
         -5    1    4    4    0  502 -0.12556571675E+02  0.39490234200E+01 -0.82783764528E+01  0.16244500451E+02  0.47000000000E+01 0.  1.
<mgrwt>
<rscale>  0 0.99945196E+03</rscale>
<asrwt>0</asrwt>
<pdfrwt beam="1">  1        2 0.42318271E+00 0.99945196E+03</pdfrwt>
<pdfrwt beam="2">  1       -2 0.13967196E-01 0.99945196E+03</pdfrwt>
<totfact> 0.10956955E+02</totfact>
</mgrwt>
</event>
<event>
 9    1  0.4321150E-036  0.9997513E+03  0.7818608E-02  0.8681275E-01
         -2   -1    0    0    0  501 -0.00000000000E+00  0.00000000000E+00  0.51159147716E+03  0.51159147716E+03  0.00000000000E+00 0. -1.
          2   -1    0    0  501    0  0.00000000000E+00 -0.00000000000E+00 -0.48842810080E+03  0.48842810080E+03  0.00000000000E+00 0. -1.
         36    2    1    2    0    0 -0.14210854715E-13  0.00000000000E+00  0.23163376369E+02  0.10000195780E+04  0.99975127622E+03 0.  0.
         25    2    3    3    0    0 -0.53805700569E+02  0.76552894257E+02  0.10773574231E+03  0.18996485242E+03  0.12539639529E+03 0.  0.
         35    2    3    3    0    0  0.53805700569E+02 -0.76552894257E+02 -0.84572365945E+02  0.81005472554E+03  0.80017546466E+03 0.  0.
         22    1    5    5    0    0 -0.14612721765E+03  0.31960735358E+03  0.27083720068E+02  0.35247064004E+03  0.00000000000E+00 0. -1.
         22    1    5    5    0    0  0.19993291822E+03 -0.39616024784E+03 -0.11165608601E+03  0.45758408549E+03  0.00000000000E+00 0. -1.
          5    1    4    4  502    0  0.24469234289E+02  0.55048760114E+02  0.74885439010E+01  0.60887418294E+02  0.47000000000E+01 0.  1.
         -5    1    4    4    0  502 -0.78274934858E+02  0.21504134143E+02  0.10024719841E+03  0.12907743413E+03  0.47000000000E+01 0.  1.
<mgrwt>
<rscale>  0 0.99975128E+03</rscale>
<asrwt>0</asrwt>
<pdfrwt beam="1">  1        2 0.75142785E-01 0.99975128E+03</pdfrwt>
<pdfrwt beam="2">  1       -2 0.78706381E-01 0.99975128E+03</pdfrwt>
<totfact> 0.10940978E+02</totfact>
</mgrwt>
</event>
<event>
 9    1  0.4321150E-036  0.9998223E+03  0.7818608E-02  0.8681207E-01
          2   -1    0    0  501    0  0.00000000000E+00  0.00000000000E+00  0.17714477961E+04  0.17714477961E+04  0.00000000000E+00 0. -1.
         -2   -1    0    0    0  501 -0.00000000000E+00 -0.00000000000E+00 -0.14107733502E+03  0.14107733502E+03  0.00000000000E+00 0. -1.
         36    2    1    2    0    0  0.14210854715E-13  0.14210854715E-13  0.16303704611E+04  0.19125251312E+04  0.99982225263E+03 0.  0.
         25    2    3    3    0    0 -0.11902503955E+03  0.55226120921E+02  0.22510418366E+03  0.28905350272E+03  0.12515250483E+03 0.  0.
         35    2    3    3    0    0  0.11902503955E+03 -0.55226120921E+02  0.14052662775E+04  0.16234716284E+04  0.80229042952E+03 0.  0.
         22    1    5    5    0    0 -0.12481265572E+03  0.23732309789E+03  0.11090156154E+04  0.11409715540E+04  0.00000000000E+00 0.  1.
         22    1    5    5    0    0  0.24383769528E+03 -0.29254921881E+03  0.29625066205E+03  0.48250007443E+03  0.00000000000E+00 0.  1.
          5    1    4    4  502    0 -0.94421632282E+02 -0.34483293972E+01  0.19857922209E+03  0.21996166272E+03  0.47000000000E+01 0.  1.
         -5    1    4    4    0  502 -0.24603407273E+02  0.58674450319E+02  0.26524961566E+02  0.69091840008E+02  0.47000000000E+01 0.  1.
<mgrwt>
<rscale>  0 0.99982225E+03</rscale>
<asrwt>0</asrwt>
<pdfrwt beam="1">  1        2 0.27253042E+00 0.99982225E+03</pdfrwt>
<pdfrwt beam="2">  1       -2 0.21704207E-01 0.99982225E+03</pdfrwt>
<totfact> 0.19591242E+02</totfact>
</mgrwt>
</event>
<event>
 9    1  0.4321150E-036  0.1000119E+04  0.7818608E-02  0.8680924E-01
          1   -1    0    0  501    0  0.00000000000E+00  0.00000000000E+00  0.20937586766E+03  0.20937586766E+03  0.00000000000E+00 0. -1.
         -1   -1    0    0    0  501 -0.00000000000E+00 -0.00000000000E+00 -0.11943101191E+04  0.11943101191E+04  0.00000000000E+00 0. -1.
         36    2    1    2    0    0  0.00000000000E+00 -0.14210854715E-13 -0.98493425144E+03  0.14036859868E+04  0.10001194277E+04 0.  0.
         25    2    3    3    0    0  0.55624143582E+02  0.70345498393E+02 -0.34716838037E+02  0.15805201638E+03  0.12542984711E+03 0.  0.
         35    2    3    3    0    0 -0.55624143582E+02 -0.70345498393E+02 -0.95021741340E+03  0.12456339704E+04  0.80040509800E+03 0.  0.
         22    1    5    5    0    0 -0.10622218449E+03  0.11933867593E+03  0.92490618909E+02  0.18460603088E+03  0.00000000000E+00 0. -1.
         22    1    5    5    0    0  0.50598040910E+02 -0.18968417432E+03 -0.10427080323E+04  0.10610279395E+04  0.00000000000E+00 0. -1.
          5    1    4    4  502    0  0.30353189935E+02  0.50681407721E+02 -0.81743434726E+02  0.10096534231E+03  0.47000000000E+01 0.  1.
         -5    1    4    4    0  502  0.25270953647E+02  0.19664090672E+02  0.47026596689E+02  0.57086674070E+02  0.47000000000E+01 0.  1.
<mgrwt>
<rscale>  0 0.10001194E+04</rscale>
<asrwt>0</asrwt>
<pdfrwt beam="1">  1        1 0.32211672E-01 0.10001194E+04</pdfrwt>
<pdfrwt beam="2">  1       -1 0.18374002E+00 0.10001194E+04</pdfrwt>
<totfact> 0.29938716E+01</totfact>
</mgrwt>
</event>
<event>
 9    1  0.4321150E-036  0.1000552E+04  0.7818608E-02  0.8680512E-01
         -2   -1    0    0    0  501 -0.00000000000E+00  0.00000000000E+00  0.14189293899E+04  0.14189293899E+04  0.00000000000E+00 0.  1.
          2   -1    0    0  501    0  0.00000000000E+00 -0.00000000000E+00 -0.17638391173E+03  0.17638391173E+03  0.00000000000E+00 0.  1.
         36    2    1    2    0    0  0.00000000000E+00  0.00000000000E+00  0.12425454782E+04  0.15953133016E+04  0.10005524799E+04 0.  0.
         25    2    3    3    0    0  0.13328158830E+03  0.42937451792E+02  0.27684273449E+03  0.33459900967E+03  0.12532753523E+03 0.  0.
         35    2    3    3    0    0 -0.13328158830E+03 -0.42937451792E+02  0.96570274369E+03  0.12607142920E+04  0.79825505338E+03 0.  0.
         22    1    5    5    0    0  0.30052616806E+03 -0.21450442736E+02  0.14996309305E+03  0.33654870147E+03  0.00000000000E+00 0. -1.
         22    1    5    5    0    0 -0.43380775636E+03 -0.21487009056E+02  0.81573965064E+03  0.92416559050E+03  0.00000000000E+00 0. -1.
          5    1    4    4  502    0  0.11225752773E+03  0.70219380924E+02  0.26763922746E+03  0.29863918039E+03  0.47000000000E+01 0. -1.
         -5    1    4    4    0  502  0.21024060573E+02 -0.27281929132E+02  0.92035070292E+01  0.35959829279E+02  0.47000000000E+01 0. -1.
<mgrwt>
<rscale>  0 0.10005525E+04</rscale>
<asrwt>0</asrwt>
<pdfrwt beam="1">  1        2 0.27135987E-01 0.10005525E+04</pdfrwt>
<pdfrwt beam="2">  1       -2 0.21829682E+00 0.10005525E+04</pdfrwt>
<totfact> 0.21833652E+01</totfact>
</mgrwt>
</event>
<event>
 9    1  0.4321150E-036  0.9998115E+03  0.7818608E-02  0.8681218E-01
         -2   -1    0    0    0  501 -0.00000000000E+00  0.00000000000E+00  0.11668736349E+03  0.11668736349E+03  0.00000000000E+00 0.  1.
          2   -1    0    0  501    0  0.00000000000E+00 -0.00000000000E+00 -0.21416693097E+04  0.21416693097E+04  0.00000000000E+00 0.  1.
         36    2    1    2    0    0 -0.10658141036E-13  0.28421709430E-13 -0.20249819462E+04  0.22583566732E+04  0.99981147265E+03 0.  0.
         25    2    3    3    0    0 -0.28564439611E+02  0.62719981198E+02 -0.10665340768E+03  0.17935868761E+03  0.12666833147E+03 0.  0.
         35    2    3    3    0    0  0.28564439611E+02 -0.62719981198E+02 -0.19183285385E+04  0.20789979856E+04  0.79843504372E+03 0.  0.
         22    1    5    5    0    0 -0.94674476528E+02 -0.29914416259E+03 -0.28445858783E+03  0.42351762031E+03  0.00000000000E+00 0.  1.
         22    1    5    5    0    0  0.12323891614E+03  0.23642418140E+03 -0.16338699507E+04  0.16554803653E+04  0.00000000000E+00 0.  1.
          5    1    4    4  502    0  0.13066036051E+02  0.74252992972E+02 -0.11250538068E+03  0.13551302132E+03  0.47000000000E+01 0. -1.
         -5    1    4    4    0  502 -0.41630475662E+02 -0.11533011774E+02  0.58519730033E+01  0.43845666291E+02  0.47000000000E+01 0. -1.
<mgrwt>
<rscale>  0 0.99981147E+03</rscale>
<asrwt>0</asrwt>
<pdfrwt beam="1">  1        2 0.32948757E+00 0.99981147E+03</pdfrwt>
<pdfrwt beam="2">  1       -2 0.17951903E-01 0.99981147E+03</pdfrwt>
<totfact> 0.16742952E+02</totfact>
</mgrwt>
</event>
<event>
 9    1  0.4321150E-036  0.1000554E+04  0.7818608E-02  0.8680511E-01
         -1   -1    0    0    0  501 -0.00000000000E+00  0.00000000000E+00  0.29579869467E+03  0.29579869467E+03  0.00000000000E+00 0.  1.
          1   -1    0    0  501    0  0.00000000000E+00 -0.00000000000E+00 -0.84610606458E+03  0.84610606458E+03  0.00000000000E+00 0.  1.
         36    2    1    2    0    0  0.14210854715E-13  0.14210854715E-13 -0.55030736990E+03  0.11419047593E+04  0.10005539855E+04 0.  0.
         25    2    3    3    0    0 -0.10709551261E+03 -0.61031197935E+02 -0.25340341811E+02  0.17705259168E+03  0.12454409402E+03 0.  0.
         35    2    3    3    0    0  0.10709551261E+03  0.61031197935E+02 -0.52496702809E+03  0.96485216757E+03  0.80009691209E+03 0.  0.
         22    1    5    5    0    0 -0.10816953699E+03 -0.33866902752E+03 -0.22638362668E+03  0.42148179719E+03  0.00000000000E+00 0.  1.
         22    1    5    5    0    0  0.21526504960E+03  0.39970022545E+03 -0.29858340141E+03  0.54337037038E+03  0.00000000000E+00 0.  1.
          5    1    4    4  502    0 -0.31248555837E+02  0.34704337617E+02  0.13433439902E+02  0.48820186387E+02  0.47000000000E+01 0. -1.
         -5    1    4    4    0  502 -0.75846956778E+02 -0.95735535552E+02 -0.38773781713E+02  0.12823240530E+03  0.47000000000E+01 0. -1.
<mgrwt>
<rscale>  0 0.10005540E+04</rscale>
<asrwt>0</asrwt>
<pdfrwt beam="1">  1        1 0.13017016E+00 0.10005540E+04</pdfrwt>
<pdfrwt beam="2">  1       -1 0.45507492E-01 0.10005540E+04</pdfrwt>
<totfact> 0.10974206E+02</totfact>
</mgrwt>
</event>
<event>
 9    1  0.4321150E-036  0.9997702E+03  0.7818608E-02  0.8681257E-01
          2   -1    0    0  501    0  0.00000000000E+00  0.00000000000E+00  0.76179721852E+03  0.76179721852E+03  0.00000000000E+00 0.  1.
         -2   -1    0    0    0  501 -0.00000000000E+00 -0.00000000000E+00 -0.32802048024E+03  0.32802048024E+03  0.00000000000E+00 0.  1.
         36    2    1    2    0    0 -0.71054273576E-14  0.00000000000E+00  0.43377673828E+03  0.10898176988E+04  0.99977015252E+03 0.  0.
         25    2    3    3    0    0  0.20160175458E+02 -0.10774851034E+03  0.17677201985E+03  0.24255898874E+03  0.12478117591E+03 0.  0.
         35    2    3    3    0    0 -0.20160175458E+02  0.10774851034E+03  0.25700471843E+03  0.84725871002E+03  0.79986231457E+03 0.  0.
         22    1    5    5    0    0  0.13663735032E+03 -0.15555369329E+03 -0.20597176416E+03  0.29204637411E+03  0.00000000000E+00 0.  1.
         22    1    5    5    0    0 -0.15679752577E+03  0.26330220364E+03  0.46297648258E+03  0.55521233592E+03  0.00000000000E+00 0.  1.
          5    1    4    4  502    0  0.29800914042E+02  0.15866202395E+02  0.11668939245E+02  0.36028946685E+02  0.47000000000E+01 0. -1.
         -5    1    4    4    0  502 -0.96407385838E+01 -0.12361471274E+03  0.16510308060E+03  0.20653004205E+03  0.47000000000E+01 0. -1.
<mgrwt>
<rscale>  0 0.99977015E+03</rscale>
<asrwt>0</asrwt>
<pdfrwt beam="1">  1        2 0.11719957E+00 0.99977015E+03</pdfrwt>
<pdfrwt beam="2">  1       -2 0.50464690E-01 0.99977015E+03</pdfrwt>
<totfact> 0.16515190E+02</totfact>
</mgrwt>
</event>
<event>
 9    1  0.4321150E-036  0.9912140E+03  0.7818608E-02  0.8689450E-01
         -2   -1    0    0    0  501 -0.00000000000E+00  0.00000000000E+00  0.30414091258E+03  0.30414091258E+03  0.00000000000E+00 0. -1.
          2   -1    0    0  501    0  0.00000000000E+00 -0.00000000000E+00 -0.80760692133E+03  0.80760692133E+03  0.00000000000E+00 0. -1.
         36    2    1    2    0    0  0.10658141036E-13  0.00000000000E+00 -0.50346600874E+03  0.11117478339E+04  0.99121401536E+03 0.  0.
         25    2    3    3    0    0  0.15803305881E+02  0.13290542388E+03 -0.78379143430E+02  0.19894539194E+03  0.12458885454E+03 0.  0.
         35    2    3    3    0    0 -0.15803305881E+02 -0.13290542388E+03 -0.42508686531E+03  0.91280244197E+03  0.79661525144E+03 0.  0.
         22    1    5    5    0    0  0.24204954693E+03 -0.33504518079E+03 -0.41394331069E+03  0.58497206840E+03  0.00000000000E+00 0.  1.
         22    1    5    5    0    0 -0.25785285281E+03  0.20213975691E+03 -0.11143554623E+02  0.32783037357E+03  0.00000000000E+00 0.  1.
          5    1    4    4  502    0  0.72730601781E+01  0.12346304997E+03 -0.45178833248E+01  0.12384879241E+03  0.47000000000E+01 0. -1.
         -5    1    4    4    0  502  0.85302457030E+01  0.94423739149E+01 -0.73861260105E+02  0.75096599531E+02  0.47000000000E+01 0. -1.
<mgrwt>
<rscale>  0 0.99121402E+03</rscale>
<asrwt>0</asrwt>
<pdfrwt beam="1">  1        2 0.12424722E+00 0.99121402E+03</pdfrwt>
<pdfrwt beam="2">  1       -2 0.46790910E-01 0.99121402E+03</pdfrwt>
<totfact> 0.17813409E+02</totfact>
</mgrwt>
</event>
<event>
 9    1  0.4321150E-036  0.1000520E+04  0.7818608E-02  0.8680543E-01
          1   -1    0    0  501    0  0.00000000000E+00  0.00000000000E+00  0.76687614492E+03  0.76687614492E+03  0.00000000000E+00 0.  1.
         -1   -1    0    0    0  501 -0.00000000000E+00 -0.00000000000E+00 -0.32633703718E+03  0.32633703718E+03  0.00000000000E+00 0.  1.
         36    2    1    2    0    0  0.28421709430E-13  0.00000000000E+00  0.44053910774E+03  0.10932131821E+04  0.10005200428E+04 0.  0.
         25    2    3    3    0    0  0.80400749933E+02  0.43915947550E+02  0.20059972293E+03  0.25250268889E+03  0.12298157592E+03 0.  0.
         35    2    3    3    0    0 -0.80400749933E+02 -0.43915947550E+02  0.23993938480E+03  0.84071049321E+03  0.80051879052E+03 0.  0.
         22    1    5    5    0    0 -0.15060895280E+03 -0.12599960954E+03  0.51180058524E+03  0.54817770596E+03  0.00000000000E+00 0.  1.
         22    1    5    5    0    0  0.70208202866E+02  0.82083661988E+02 -0.27186120043E+03  0.29253278725E+03  0.00000000000E+00 0.  1.
          5    1    4    4  502    0 -0.32214201881E+02  0.61504012307E+01  0.58579587100E+02  0.67299630481E+02  0.47000000000E+01 0. -1.
         -5    1    4    4    0  502  0.11261495181E+03  0.37765546319E+02  0.14202013583E+03  0.18520305841E+03  0.47000000000E+01 0. -1.
<mgrwt>
<rscale>  0 0.10005200E+04</rscale>
<asrwt>0</asrwt>
<pdfrwt beam="1">  1        1 0.11798094E+00 0.10005200E+04</pdfrwt>
<pdfrwt beam="2">  1       -1 0.50205698E-01 0.10005200E+04</pdfrwt>
<totfact> 0.10761256E+02</totfact>
</mgrwt>
</event>
<event>
 9    1  0.4321150E-036  0.1000552E+04  0.7818608E-02  0.8680512E-01
         -1   -1    0    0    0  501 -0.00000000000E+00  0.00000000000E+00  0.16378204676E+03  0.16378204676E+03  0.00000000000E+00 0.  1.
          1   -1    0    0  501    0  0.00000000000E+00 -0.00000000000E+00 -0.15281059286E+04  0.15281059286E+04  0.00000000000E+00 0.  1.
         36    2    1    2    0    0  0.14210854715E-13  0.00000000000E+00 -0.13643238818E+04  0.16918879753E+04  0.10005524807E+04 0.  0.
         25    2    3    3    0    0  0.39101377144E+02 -0.13262232374E+03 -0.21487014978E+03  0.28463719782E+03  0.12542549449E+03 0.  0.
         35    2    3    3    0    0 -0.39101377144E+02  0.13262232374E+03 -0.11494537320E+04  0.14072507775E+04  0.79999579392E+03 0.  0.
         22    1    5    5    0    0 -0.33190109054E+03  0.21149747097E+02 -0.15938685932E+03  0.36879508759E+03  0.00000000000E+00 0. -1.
         22    1    5    5    0    0  0.29279971340E+03  0.11147257664E+03 -0.99006687270E+03  0.10384556899E+04  0.00000000000E+00 0. -1.
          5    1    4    4  502    0  0.71985102156E+01  0.27250409697E+01 -0.11009326035E+03  0.11046203136E+03  0.47000000000E+01 0. -1.
         -5    1    4    4    0  502  0.31902866929E+02 -0.13534736471E+03 -0.10477688942E+03  0.17417516645E+03  0.47000000000E+01 0. -1.
<mgrwt>
<rscale>  0 0.10005525E+04</rscale>
<asrwt>0</asrwt>
<pdfrwt beam="1">  1        1 0.23509321E+00 0.10005525E+04</pdfrwt>
<pdfrwt beam="2">  1       -1 0.25197239E-01 0.10005525E+04</pdfrwt>
<totfact> 0.93141540E+01</totfact>
</mgrwt>
</event>
<event>
 9    1  0.4321150E-036  0.1000130E+04  0.7818608E-02  0.8680915E-01
         -1   -1    0    0    0  501 -0.00000000000E+00  0.00000000000E+00  0.23980998050E+03  0.23980998050E+03  0.00000000000E+00 0.  1.
          1   -1    0    0  501    0  0.00000000000E+00 -0.00000000000E+00 -0.10427622299E+04  0.10427622299E+04  0.00000000000E+00 0.  1.
         36    2    1    2    0    0  0.00000000000E+00  0.00000000000E+00 -0.80295224943E+03  0.12825722104E+04  0.10001295717E+04 0.  0.
         25    2    3    3    0    0 -0.88059036201E+02 -0.99990681316E+02 -0.91323209453E+02  0.20441039670E+03  0.12526432647E+03 0.  0.
         35    2    3    3    0    0  0.88059036201E+02  0.99990681316E+02 -0.71162903997E+03  0.10781618137E+04  0.79891456105E+03 0.  0.
         22    1    5    5    0    0  0.25771483199E+03 -0.82775987573E+02  0.51309769371E+02  0.27550225259E+03  0.00000000000E+00 0.  1.
         22    1    5    5    0    0 -0.16965579579E+03  0.18276666889E+03 -0.76293880934E+03  0.80265956115E+03  0.00000000000E+00 0.  1.
          5    1    4    4  502    0  0.50825252980E+01  0.93011258423E+01 -0.55010065553E+02  0.56218682993E+02  0.47000000000E+01 0.  1.
         -5    1    4    4    0  502 -0.93141561499E+02 -0.10929180716E+03 -0.36313143900E+02  0.14819171370E+03  0.47000000000E+01 0.  1.
<mgrwt>
<rscale>  0 0.10001296E+04</rscale>
<asrwt>0</asrwt>
<pdfrwt beam="1">  1        1 0.16042496E+00 0.10001296E+04</pdfrwt>
<pdfrwt beam="2">  1       -1 0.36893843E-01 0.10001296E+04</pdfrwt>
<totfact> 0.11035732E+02</totfact>
</mgrwt>
</event>
<event>
 9    1  0.4321150E-036  0.9988108E+03  0.7818608E-02  0.8682171E-01
          2   -1    0    0  501    0  0.00000000000E+00  0.00000000000E+00  0.21816314038E+03  0.21816314038E+03  0.00000000000E+00 0.  1.
         -2   -1    0    0    0  501 -0.00000000000E+00 -0.00000000000E+00 -0.11432075969E+04  0.11432075969E+04  0.00000000000E+00 0.  1.
         36    2    1    2    0    0  0.28421709430E-13  0.28421709430E-13 -0.92504445647E+03  0.13613707372E+04  0.99881081179E+03 0.  0.
         25    2    3    3    0    0  0.45342487785E+02 -0.12224088408E+03 -0.24890025187E+03  0.30621510341E+03  0.12172747938E+03 0.  0.
         35    2    3    3    0    0 -0.45342487785E+02  0.12224088408E+03 -0.67614420460E+03  0.10551556338E+04  0.79948961921E+03 0.  0.
         22    1    5    5    0    0  0.30885119603E+03 -0.16800039400E+03 -0.31284384812E+03  0.47062136265E+03  0.00000000000E+00 0.  1.
         22    1    5    5    0    0 -0.35419368382E+03  0.29024127808E+03 -0.36330035648E+03  0.58453427118E+03  0.00000000000E+00 0.  1.
          5    1    4    4  502    0  0.41889815493E+02  0.91854950224E+01 -0.37184679445E+02  0.56955424204E+02  0.47000000000E+01 0. -1.
         -5    1    4    4    0  502  0.34526722911E+01 -0.13142637911E+03 -0.21171557242E+03  0.24925967921E+03  0.47000000000E+01 0. -1.
<mgrwt>
<rscale>  0 0.99881081E+03</rscale>
<asrwt>0</asrwt>
<pdfrwt beam="1">  1        2 0.33563560E-01 0.99881081E+03</pdfrwt>
<pdfrwt beam="2">  1       -2 0.17587809E+00 0.99881081E+03</pdfrwt>
<totfact> 0.33640030E+01</totfact>
</mgrwt>
</event>
<event>
 9    1  0.4321150E-036  0.1000932E+04  0.7818608E-02  0.8680151E-01
          1   -1    0    0  501    0  0.00000000000E+00  0.00000000000E+00  0.11702502885E+04  0.11702502885E+04  0.00000000000E+00 0. -1.
         -1   -1    0    0    0  501 -0.00000000000E+00 -0.00000000000E+00 -0.21402791702E+03  0.21402791702E+03  0.00000000000E+00 0. -1.
         36    2    1    2    0    0 -0.14210854715E-13  0.00000000000E+00  0.95622237151E+03  0.13842782055E+04  0.10009320289E+04 0.  0.
         25    2    3    3    0    0  0.17063801474E+02  0.14078807161E+03  0.17279365443E+03  0.25592268179E+03  0.12460464525E+03 0.  0.
         35    2    3    3    0    0 -0.17063801474E+02 -0.14078807161E+03  0.78342871708E+03  0.11283555238E+04  0.79957062153E+03 0.  0.
         22    1    5    5    0    0 -0.29227981805E+03 -0.31678857799E+03  0.23743963885E+03  0.49209762983E+03  0.00000000000E+00 0.  1.
         22    1    5    5    0    0  0.27521601658E+03  0.17600050639E+03  0.54598907824E+03  0.63625789392E+03  0.00000000000E+00 0.  1.
          5    1    4    4  502    0 -0.31155084082E+01  0.15275307921E+02  0.11508919788E+03  0.11623534271E+03  0.47000000000E+01 0. -1.
         -5    1    4    4    0  502  0.20179309882E+02  0.12551276369E+03  0.57704456543E+02  0.13968733909E+03  0.47000000000E+01 0. -1.
<mgrwt>
<rscale>  0 0.10009320E+04</rscale>
<asrwt>0</asrwt>
<pdfrwt beam="1">  1        1 0.18003850E+00 0.10009320E+04</pdfrwt>
<pdfrwt beam="2">  1       -1 0.32927373E-01 0.10009320E+04</pdfrwt>
<totfact> 0.10745385E+02</totfact>
</mgrwt>
</event>
<event>
 9    1  0.4321150E-036  0.9998668E+03  0.7818608E-02  0.8681165E-01
          2   -1    0    0  501    0  0.00000000000E+00  0.00000000000E+00  0.15051909942E+04  0.15051909942E+04  0.00000000000E+00 0. -1.
         -2   -1    0    0    0  501 -0.00000000000E+00 -0.00000000000E+00 -0.16604762351E+03  0.16604762351E+03  0.00000000000E+00 0. -1.
         36    2    1    2    0    0  0.42632564146E-13 -0.28421709430E-13  0.13391433707E+04  0.16712386177E+04  0.99986676617E+03 0.  0.
         25    2    3    3    0    0 -0.12130205139E+03 -0.41750069023E+02  0.34525929563E+03  0.38889034185E+03  0.12479767956E+03 0.  0.
         35    2    3    3    0    0  0.12130205139E+03  0.41750069023E+02  0.99388407509E+03  0.12823482759E+04  0.80009642547E+03 0.  0.
         22    1    5    5    0    0  0.41367178301E+03  0.21744575234E+03  0.53111488643E+03  0.70745319411E+03  0.00000000000E+00 0.  1.
         22    1    5    5    0    0 -0.29236973161E+03 -0.17569568332E+03  0.46276918866E+03  0.57489508179E+03  0.00000000000E+00 0.  1.
          5    1    4    4  502    0  0.16573630739E+02 -0.18345540501E+02  0.12813737193E+03  0.13058529847E+03  0.47000000000E+01 0. -1.
         -5    1    4    4    0  502 -0.13787568213E+03 -0.23404528521E+02  0.21712192371E+03  0.25830504338E+03  0.47000000000E+01 0. -1.
<mgrwt>
<rscale>  0 0.99986677E+03</rscale>
<asrwt>0</asrwt>
<pdfrwt beam="1">  1        2 0.23156784E+00 0.99986677E+03</pdfrwt>
<pdfrwt beam="2">  1       -2 0.25545789E-01 0.99986677E+03</pdfrwt>
<totfact> 0.20774972E+02</totfact>
</mgrwt>
</event>
<event>
 9    1  0.4321150E-036  0.9991403E+03  0.7818608E-02  0.8681857E-01
         -2   -1    0    0    0  501 -0.00000000000E+00  0.00000000000E+00  0.96206483031E+02  0.96206483031E+02  0.00000000000E+00 0.  1.
          2   -1    0    0  501    0  0.00000000000E+00 -0.00000000000E+00 -0.25941115326E+04  0.25941115326E+04  0.00000000000E+00 0.  1.
         36    2    1    2    0    0 -0.42632564146E-13 -0.14210854715E-13 -0.24979050495E+04  0.26903180156E+04  0.99914032476E+03 0.  0.
         25    2    3    3    0    0 -0.54299178806E+02 -0.10134884251E+03 -0.67951528805E+03  0.70050766043E+03  0.12549887218E+03 0.  0.
         35    2    3    3    0    0  0.54299178806E+02  0.10134884251E+03 -0.18183897615E+04  0.19898103552E+04  0.79973991784E+03 0.  0.
         22    1    5    5    0    0  0.34212581059E+03 -0.11416817161E+03 -0.13611444291E+04  0.14081188155E+04  0.00000000000E+00 0. -1.
         22    1    5    5    0    0 -0.28782663178E+03  0.21551701413E+03 -0.45724533237E+03  0.58169153967E+03  0.00000000000E+00 0. -1.
          5    1    4    4  502    0 -0.84684797043E+02 -0.10924374712E+03 -0.56403278441E+03  0.58074158024E+03  0.47000000000E+01 0.  1.
         -5    1    4    4    0  502  0.30385618237E+02  0.78949046035E+01 -0.11548250364E+03  0.11976608018E+03  0.47000000000E+01 0.  1.
<mgrwt>
<rscale>  0 0.99914032E+03</rscale>
<asrwt>0</asrwt>
<pdfrwt beam="1">  1        2 0.39909406E+00 0.99914032E+03</pdfrwt>
<pdfrwt beam="2">  1       -2 0.14800998E-01 0.99914032E+03</pdfrwt>
<totfact> 0.12468720E+02</totfact>
</mgrwt>
</event>
<event>
 9    1  0.4321150E-036  0.9988177E+03  0.7818608E-02  0.8682165E-01
         -1   -1    0    0    0  501 -0.00000000000E+00  0.00000000000E+00  0.16331056771E+03  0.16331056771E+03  0.00000000000E+00 0.  1.
          1   -1    0    0  501    0  0.00000000000E+00 -0.00000000000E+00 -0.15272080514E+04  0.15272080514E+04  0.00000000000E+00 0.  1.
         36    2    1    2    0    0 -0.14210854715E-13  0.00000000000E+00 -0.13638974837E+04  0.16905186191E+04  0.99881772890E+03 0.  0.
         25    2    3    3    0    0 -0.74938329791E+02 -0.36422706473E+02 -0.66144221385E+02  0.16359059199E+03  0.12427572951E+03 0.  0.
         35    2    3    3    0    0  0.74938329791E+02  0.36422706473E+02 -0.12977532623E+04  0.15269280271E+04  0.80025202491E+03 0.  0.
         22    1    5    5    0    0  0.25457775804E+03  0.34178302594E+03 -0.88991820237E+03  0.98670151445E+03  0.00000000000E+00 0. -1.
         22    1    5    5    0    0 -0.17963942825E+03 -0.30536031947E+03 -0.40783505994E+03  0.54022651268E+03  0.00000000000E+00 0. -1.
          5    1    4    4  502    0 -0.50817302914E+02 -0.76249460011E+02 -0.71725842832E+02  0.11646057254E+03  0.47000000000E+01 0.  1.
         -5    1    4    4    0  502 -0.24121026877E+02  0.39826753538E+02  0.55816214476E+01  0.47130019446E+02  0.47000000000E+01 0.  1.
<mgrwt>
<rscale>  0 0.99881773E+03</rscale>
<asrwt>0</asrwt>
<pdfrwt beam="1">  1        1 0.23495510E+00 0.99881773E+03</pdfrwt>
<pdfrwt beam="2">  1       -1 0.25124701E-01 0.99881773E+03</pdfrwt>
<totfact> 0.93744424E+01</totfact>
</mgrwt>
</event>
<event>
 9    1  0.4321150E-036  0.1000626E+04  0.7818608E-02  0.8680442E-01
         -2   -1    0    0    0  501 -0.00000000000E+00  0.00000000000E+00  0.23072813896E+04  0.23072813896E+04  0.00000000000E+00 0. -1.
          2   -1    0    0  501    0  0.00000000000E+00 -0.00000000000E+00 -0.10848828554E+03  0.10848828554E+03  0.00000000000E+00 0. -1.
         36    2    1    2    0    0  0.28421709430E-13  0.14210854715E-13  0.21987931040E+04  0.24157696751E+04  0.10006258086E+04 0.  0.
         25    2    3    3    0    0 -0.13998837450E+03 -0.16122770254E+02  0.41160905625E+03  0.45278630514E+03  0.12544614069E+03 0.  0.
         35    2    3    3    0    0  0.13998837450E+03  0.16122770254E+02  0.17871840478E+04  0.19629833700E+04  0.79963754379E+03 0.  0.
         22    1    5    5    0    0 -0.20669038794E+03  0.26072441661E+03  0.44693314684E+03  0.55717804661E+03  0.00000000000E+00 0. -1.
         22    1    5    5    0    0  0.34667876244E+03 -0.24460164635E+03  0.13402509009E+04  0.14058053233E+04  0.00000000000E+00 0. -1.
          5    1    4    4  502    0 -0.10866581066E+03  0.24001185828E+02  0.15344266637E+03  0.18960764011E+03  0.47000000000E+01 0. -1.
         -5    1    4    4    0  502 -0.31322563845E+02 -0.40123956082E+02  0.25816638989E+03  0.26317866503E+03  0.47000000000E+01 0. -1.
<mgrwt>
<rscale>  0 0.10006258E+04</rscale>
<asrwt>0</asrwt>
<pdfrwt beam="1">  1        2 0.16690507E-01 0.10006258E+04</pdfrwt>
<pdfrwt beam="2">  1       -2 0.35496633E+00 0.10006258E+04</pdfrwt>
<totfact> 0.63682179E+00</totfact>
</mgrwt>
</event>
<event>
 9    1  0.4321150E-036  0.9997580E+03  0.7818608E-02  0.8681268E-01
         -2   -1    0    0    0  501 -0.00000000000E+00  0.00000000000E+00  0.26772277303E+03  0.26772277303E+03  0.00000000000E+00 0. -1.
          2   -1    0    0  501    0  0.00000000000E+00 -0.00000000000E+00 -0.93334978902E+03  0.93334978902E+03  0.00000000000E+00 0. -1.
         36    2    1    2    0    0  0.00000000000E+00  0.00000000000E+00 -0.66562701599E+03  0.12010725621E+04  0.99975795816E+03 0.  0.
         25    2    3    3    0    0 -0.12302130994E+03 -0.61848552720E+02 -0.10466334648E+03  0.21350385683E+03  0.12517984906E+03 0.  0.
         35    2    3    3    0    0  0.12302130994E+03  0.61848552720E+02 -0.56096366951E+03  0.98756870523E+03  0.80103197369E+03 0.  0.
         22    1    5    5    0    0 -0.86520729705E+01  0.39276556643E+03 -0.48368433440E+03  0.62312934764E+03  0.00000000000E+00 0. -1.
         22    1    5    5    0    0  0.13167338291E+03 -0.33091701371E+03 -0.77279335111E+02  0.36443935760E+03  0.00000000000E+00 0. -1.
          5    1    4    4  502    0 -0.13698401522E+03 -0.44044000134E+02 -0.11859097761E+03  0.18652186023E+03  0.47000000000E+01 0. -1.
         -5    1    4    4    0  502  0.13962705279E+02 -0.17804552587E+02  0.13927631130E+02  0.26981996598E+02  0.47000000000E+01 0. -1.
<mgrwt>
<rscale>  0 0.99975796E+03</rscale>
<asrwt>0</asrwt>
<pdfrwt beam="1">  1        2 0.14359228E+00 0.99975796E+03</pdfrwt>
<pdfrwt beam="2">  1       -2 0.41188119E-01 0.99975796E+03</pdfrwt>
<totfact> 0.18805793E+02</totfact>
</mgrwt>
</event>
<event>
 9    1  0.4321150E-036  0.9999301E+03  0.7818608E-02  0.8681105E-01
          2   -1    0    0  501    0  0.00000000000E+00  0.00000000000E+00  0.85854089199E+03  0.85854089199E+03  0.00000000000E+00 0.  1.
         -2   -1    0    0    0  501 -0.00000000000E+00 -0.00000000000E+00 -0.29115099894E+03  0.29115099894E+03  0.00000000000E+00 0.  1.
         36    2    1    2    0    0 -0.14210854715E-13  0.00000000000E+00  0.56738989305E+03  0.11496918909E+04  0.99993007423E+03 0.  0.
         25    2    3    3    0    0 -0.52959602203E+02  0.83838900075E+02 -0.86391892203E+01  0.16004050013E+03  0.12531817690E+03 0.  0.
         35    2    3    3    0    0  0.52959602203E+02 -0.83838900075E+02  0.57602908227E+03  0.98965139080E+03  0.79860296210E+03 0.  0.
         22    1    5    5    0    0 -0.58135850537E+02 -0.16876986558E+03 -0.16044905654E+03  0.24001446704E+03  0.00000000000E+00 0. -1.
         22    1    5    5    0    0  0.11109545274E+03  0.84930965510E+02  0.73647813881E+03  0.74963692376E+03  0.00000000000E+00 0. -1.
          5    1    4    4  502    0 -0.81928759231E+02  0.91055965368E+02  0.12417204087E+02  0.12320627977E+03  0.47000000000E+01 0. -1.
         -5    1    4    4    0  502  0.28969157028E+02 -0.72170652930E+01 -0.21056393307E+02  0.36834220359E+02  0.47000000000E+01 0. -1.
<mgrwt>
<rscale>  0 0.99993007E+03</rscale>
<asrwt>0</asrwt>
<pdfrwt beam="1">  1        2 0.13208321E+00 0.99993007E+03</pdfrwt>
<pdfrwt beam="2">  1       -2 0.44792462E-01 0.99993007E+03</pdfrwt>
<totfact> 0.17906164E+02</totfact>
</mgrwt>
</event>
<event>
 9    1  0.4321150E-036  0.9998729E+03  0.7818608E-02  0.8681159E-01
         -1   -1    0    0    0  501 -0.00000000000E+00  0.00000000000E+00  0.40414677574E+03  0.40414677574E+03  0.00000000000E+00 0.  1.
          1   -1    0    0  501    0  0.00000000000E+00 -0.00000000000E+00 -0.61842986647E+03  0.61842986647E+03  0.00000000000E+00 0.  1.
         36    2    1    2    0    0  0.28421709430E-13  0.14210854715E-13 -0.21428309073E+03  0.10225766422E+04  0.99987286503E+03 0.  0.
         25    2    3    3    0    0 -0.86519832890E+02  0.84528099825E+01 -0.14944594052E+03  0.21401278021E+03  0.12613583739E+03 0.  0.
         35    2    3    3    0    0  0.86519832890E+02 -0.84528099825E+01 -0.64837150207E+02  0.80856386200E+03  0.80125809288E+03 0.  0.
         22    1    5    5    0    0  0.39135433674E+03  0.19191843172E+03  0.10801659985E+02  0.43601327638E+03  0.00000000000E+00 0. -1.
         22    1    5    5    0    0 -0.30483450385E+03 -0.20037124170E+03 -0.75638810193E+02  0.37255058562E+03  0.00000000000E+00 0. -1.
          5    1    4    4  502    0 -0.37738936946E+02 -0.58610048936E+02 -0.62060458209E+02  0.93450284490E+02  0.47000000000E+01 0.  1.
         -5    1    4    4    0  502 -0.48780895944E+02  0.67062858918E+02 -0.87385482309E+02  0.12056249572E+03  0.47000000000E+01 0.  1.
<mgrwt>
<rscale>  0 0.99987287E+03</rscale>
<asrwt>0</asrwt>
<pdfrwt beam="1">  1        1 0.95143057E-01 0.99987287E+03</pdfrwt>
<pdfrwt beam="2">  1       -1 0.62176427E-01 0.99987287E+03</pdfrwt>
<totfact> 0.99827828E+01</totfact>
</mgrwt>
</event>
<event>
 9    1  0.4321150E-036  0.1005839E+04  0.7818608E-02  0.8675498E-01
         -1   -1    0    0    0  501 -0.00000000000E+00  0.00000000000E+00  0.25836291133E+03  0.25836291133E+03  0.00000000000E+00 0.  1.
          1   -1    0    0  501    0  0.00000000000E+00 -0.00000000000E+00 -0.97896324547E+03  0.97896324547E+03  0.00000000000E+00 0.  1.
         36    2    1    2    0    0  0.42632564146E-13  0.00000000000E+00 -0.72060033414E+03  0.12373261568E+04  0.10058385441E+04 0.  0.
         25    2    3    3    0    0 -0.71634625738E+02 -0.56736340717E+01  0.19127206144E+02  0.14648736843E+03  0.12621010009E+03 0.  0.
         35    2    3    3    0    0  0.71634625738E+02  0.56736340717E+01 -0.73972754029E+03  0.10908387884E+04  0.79847900324E+03 0.  0.
         22    1    5    5    0    0 -0.33928078070E+03 -0.69315680267E+02 -0.50313084189E+03  0.61078372256E+03  0.00000000000E+00 0. -1.
         22    1    5    5    0    0  0.41091540644E+03  0.74989314339E+02 -0.23659669839E+03  0.48005506580E+03  0.00000000000E+00 0. -1.
          5    1    4    4  502    0 -0.80243986785E+02 -0.43444500669E+02 -0.17426297552E+02  0.93017675202E+02  0.47000000000E+01 0.  1.
         -5    1    4    4    0  502  0.86093610471E+01  0.37770866597E+02  0.36553503696E+02  0.53469693225E+02  0.47000000000E+01 0.  1.
<mgrwt>
<rscale>  0 0.10058385E+04</rscale>
<asrwt>0</asrwt>
<pdfrwt beam="1">  1        1 0.15060973E+00 0.10058385E+04</pdfrwt>
<pdfrwt beam="2">  1       -1 0.39748139E-01 0.10058385E+04</pdfrwt>
<totfact> 0.10859723E+02</totfact>
</mgrwt>
</event>
<event>
 9    1  0.4321150E-036  0.1002357E+04  0.7818608E-02  0.8678797E-01
         -2   -1    0    0    0  501 -0.00000000000E+00  0.00000000000E+00  0.78576085456E+02  0.78576085456E+02  0.00000000000E+00 0.  1.
          2   -1    0    0  501    0  0.00000000000E+00 -0.00000000000E+00 -0.31966462886E+04  0.31966462886E+04  0.00000000000E+00 0.  1.
         36    2    1    2    0    0 -0.14210854715E-13  0.00000000000E+00 -0.31180702032E+04  0.32752223741E+04  0.10023571259E+04 0.  0.
         25    2    3    3    0    0  0.39477269218E+02  0.13792876506E+03 -0.62175068832E+03  0.65001011263E+03  0.12392105988E+03 0.  0.
         35    2    3    3    0    0 -0.39477269218E+02 -0.13792876506E+03 -0.24963195149E+04  0.26252122615E+04  0.79971588606E+03 0.  0.
         22    1    5    5    0    0  0.23821049869E+03 -0.39694719295E+02 -0.21786681769E+04  0.21920116189E+04  0.00000000000E+00 0.  1.
         22    1    5    5    0    0 -0.27768776790E+03 -0.98234045768E+02 -0.31765133796E+03  0.43320064254E+03  0.00000000000E+00 0.  1.
          5    1    4    4  502    0  0.30981058036E+02  0.16087511213E+03 -0.51807198665E+03  0.54337951839E+03  0.47000000000E+01 0. -1.
         -5    1    4    4    0  502  0.84962111818E+01 -0.22946347062E+02 -0.10367870168E+03  0.10663059424E+03  0.47000000000E+01 0. -1.
<mgrwt>
<rscale>  0 0.10023571E+04</rscale>
<asrwt>0</asrwt>
<pdfrwt beam="1">  1        2 0.49179165E+00 0.10023571E+04</pdfrwt>
<pdfrwt beam="2">  1       -2 0.12088631E-01 0.10023571E+04</pdfrwt>
<totfact> 0.70292974E+01</totfact>
</mgrwt>
</event>
<event>
 9    1  0.4321150E-036  0.1005176E+04  0.7818608E-02  0.8676125E-01
         -2   -1    0    0    0  501 -0.00000000000E+00  0.00000000000E+00  0.79682478180E+03  0.79682478180E+03  0.00000000000E+00 0.  1.
          2   -1    0    0  501    0  0.00000000000E+00 -0.00000000000E+00 -0.31700141293E+03  0.31700141293E+03  0.00000000000E+00 0.  1.
         36    2    1    2    0    0  0.28421709430E-13  0.14210854715E-13  0.47982336887E+03  0.11138261947E+04  0.10051757691E+04 0.  0.
         25    2    3    3    0    0  0.13085073284E+03  0.38201900901E+01  0.17389375983E+02  0.17967760860E+03  0.12184065208E+03 0.  0.
         35    2    3    3    0    0 -0.13085073284E+03 -0.38201900901E+01  0.46243399289E+03  0.93414858612E+03  0.80103175657E+03 0.  0.
         22    1    5    5    0    0 -0.29154638448E+03  0.21685101212E+03  0.53954387542E+03  0.65048539512E+03  0.00000000000E+00 0. -1.
         22    1    5    5    0    0  0.16069565164E+03 -0.22067120222E+03 -0.77109882531E+02  0.28366319100E+03  0.00000000000E+00 0. -1.
          5    1    4    4  502    0  0.44652295029E+02 -0.28138939417E+02 -0.44132273983E+02  0.68959226864E+02  0.47000000000E+01 0. -1.
         -5    1    4    4    0  502  0.86198437812E+02  0.31959129507E+02  0.61521649966E+02  0.11071838174E+03  0.47000000000E+01 0. -1.
<mgrwt>
<rscale>  0 0.10051758E+04</rscale>
<asrwt>0</asrwt>
<pdfrwt beam="1">  1        2 0.48769448E-01 0.10051758E+04</pdfrwt>
<pdfrwt beam="2">  1       -2 0.12258843E+00 0.10051758E+04</pdfrwt>
<totfact> 0.60431188E+01</totfact>
</mgrwt>
</event>
<event>
 9    1  0.4321150E-036  0.1000421E+04  0.7818608E-02  0.8680637E-01
         -1   -1    0    0    0  501 -0.00000000000E+00  0.00000000000E+00  0.15837760513E+03  0.15837760513E+03  0.00000000000E+00 0. -1.
          1   -1    0    0  501    0  0.00000000000E+00 -0.00000000000E+00 -0.15798368662E+04  0.15798368662E+04  0.00000000000E+00 0. -1.
         36    2    1    2    0    0  0.28421709430E-13 -0.14210854715E-13 -0.14214592611E+04  0.17382144713E+04  0.10004214699E+04 0.  0.
         25    2    3    3    0    0  0.65386992240E+02  0.18817217009E+02 -0.48178263583E+03  0.50234960062E+03  0.12494425418E+03 0.  0.
         35    2    3    3    0    0 -0.65386992240E+02 -0.18817217009E+02 -0.93967662525E+03  0.12358648707E+04  0.79983765365E+03 0.  0.
         22    1    5    5    0    0  0.23219189092E+03  0.18969723295E+03 -0.92056393541E+02  0.31364389678E+03  0.00000000000E+00 0.  1.
         22    1    5    5    0    0 -0.29757888316E+03 -0.20851444996E+03 -0.84762023171E+03  0.92222097392E+03  0.00000000000E+00 0.  1.
          5    1    4    4  502    0 -0.32630215430E+02  0.23068830272E+02 -0.92608378834E+02  0.10097179665E+03  0.47000000000E+01 0.  1.
         -5    1    4    4    0  502  0.98017207669E+02 -0.42516132621E+01 -0.38917425699E+03  0.40137780397E+03  0.47000000000E+01 0.  1.
<mgrwt>
<rscale>  0 0.10004215E+04</rscale>
<asrwt>0</asrwt>
<pdfrwt beam="1">  1        1 0.24305182E+00 0.10004215E+04</pdfrwt>
<pdfrwt beam="2">  1       -1 0.24365786E-01 0.10004215E+04</pdfrwt>
<totfact> 0.90548424E+01</totfact>
</mgrwt>
</event>
<event>
 9    1  0.4321150E-036  0.1000476E+04  0.7818608E-02  0.8680585E-01
         -2   -1    0    0    0  501 -0.00000000000E+00  0.00000000000E+00  0.27261523088E+03  0.27261523088E+03  0.00000000000E+00 0.  1.
          2   -1    0    0  501    0  0.00000000000E+00 -0.00000000000E+00 -0.91791715744E+03  0.91791715744E+03  0.00000000000E+00 0.  1.
         36    2    1    2    0    0  0.00000000000E+00  0.14210854715E-13 -0.64530192656E+03  0.11905323883E+04  0.10004762822E+04 0.  0.
         25    2    3    3    0    0 -0.17300702414E+02  0.11901773740E+03 -0.36174014170E+02  0.17735317208E+03  0.12522400818E+03 0.  0.
         35    2    3    3    0    0  0.17300702414E+02 -0.11901773740E+03 -0.60912791239E+03  0.10131792162E+04  0.80064397485E+03 0.  0.
         22    1    5    5    0    0 -0.39088713114E+03 -0.78477079030E+02 -0.27853610393E+03  0.48634736806E+03  0.00000000000E+00 0. -1.
         22    1    5    5    0    0  0.40818783355E+03 -0.40540658371E+02 -0.33059180846E+03  0.52683184819E+03  0.00000000000E+00 0. -1.
          5    1    4    4  502    0  0.12167821541E-01  0.21564538661E+02  0.44436100624E+02  0.49615385863E+02  0.47000000000E+01 0.  1.
         -5    1    4    4    0  502 -0.17312870235E+02  0.97453198740E+02 -0.80610114794E+02  0.12773778622E+03  0.47000000000E+01 0.  1.
<mgrwt>
<rscale>  0 0.10004763E+04</rscale>
<asrwt>0</asrwt>
<pdfrwt beam="1">  1        2 0.14121803E+00 0.10004763E+04</pdfrwt>
<pdfrwt beam="2">  1       -2 0.41940804E-01 0.10004763E+04</pdfrwt>
<totfact> 0.18584659E+02</totfact>
</mgrwt>
</event>
<event>
 9    1  0.4321150E-036  0.1001581E+04  0.7818608E-02  0.8679534E-01
         -1   -1    0    0    0  501 -0.00000000000E+00  0.00000000000E+00  0.46030960429E+03  0.46030960429E+03  0.00000000000E+00 0.  1.
          1   -1    0    0  501    0  0.00000000000E+00 -0.00000000000E+00 -0.54483110217E+03  0.54483110217E+03  0.00000000000E+00 0.  1.
         36    2    1    2    0    0  0.00000000000E+00  0.71054273576E-14 -0.84521497879E+02  0.10051407065E+04  0.10015807287E+04 0.  0.
         25    2    3    3    0    0  0.91441412917E+02  0.20902803096E+02  0.88509104165E+02  0.17948994547E+03  0.12483717327E+03 0.  0.
         35    2    3    3    0    0 -0.91441412917E+02 -0.20902803096E+02 -0.17303060204E+03  0.82565076099E+03  0.80184857093E+03 0.  0.
         22    1    5    5    0    0  0.48799108219E+02  0.32448283991E+03 -0.28690630990E+03  0.43587348740E+03  0.00000000000E+00 0. -1.
         22    1    5    5    0    0 -0.14024052114E+03 -0.34538564301E+03  0.11387570786E+03  0.38977727358E+03  0.00000000000E+00 0. -1.
          5    1    4    4  502    0  0.10059138978E+03  0.50697173600E+02  0.36188446715E+02  0.11840829694E+03  0.47000000000E+01 0. -1.
         -5    1    4    4    0  502 -0.91499768671E+01 -0.29794370504E+02  0.52320657450E+02  0.61081648524E+02  0.47000000000E+01 0. -1.
<mgrwt>
<rscale>  0 0.10015807E+04</rscale>
<asrwt>0</asrwt>
<pdfrwt beam="1">  1        1 0.83820169E-01 0.10015807E+04</pdfrwt>
<pdfrwt beam="2">  1       -1 0.70816862E-01 0.10015807E+04</pdfrwt>
<totfact> 0.92899544E+01</totfact>
</mgrwt>
</event>
<event>
 9    1  0.4321150E-036  0.9996717E+03  0.7818608E-02  0.8681351E-01
         -2   -1    0    0    0  501 -0.00000000000E+00  0.00000000000E+00  0.43040375634E+03  0.43040375634E+03  0.00000000000E+00 0.  1.
          2   -1    0    0  501    0  0.00000000000E+00 -0.00000000000E+00 -0.58046862757E+03  0.58046862757E+03  0.00000000000E+00 0.  1.
         36    2    1    2    0    0 -0.35527136788E-14  0.14210854715E-13 -0.15006487123E+03  0.10108723839E+04  0.99967170160E+03 0.  0.
         25    2    3    3    0    0 -0.25787383585E+02  0.25245945968E+02 -0.16669986622E+03  0.21017265479E+03  0.12280615817E+03 0.  0.
         35    2    3    3    0    0  0.25787383585E+02 -0.25245945968E+02  0.16634994997E+02  0.80069972912E+03  0.79971306492E+03 0.  0.
         22    1    5    5    0    0  0.18592327189E+02  0.22984517534E+03  0.32622110444E+03  0.39949303904E+03  0.00000000000E+00 0. -1.
         22    1    5    5    0    0  0.71950563959E+01 -0.25509112131E+03 -0.30958610944E+03  0.40120669008E+03  0.00000000000E+00 0. -1.
          5    1    4    4  502    0  0.35524352732E+02  0.49356166818E+01 -0.56763760840E+01  0.36614903994E+02  0.47000000000E+01 0. -1.
         -5    1    4    4    0  502 -0.61311736317E+02  0.20310329286E+02 -0.16102349014E+03  0.17355775080E+03  0.47000000000E+01 0. -1.
<mgrwt>
<rscale>  0 0.99967170E+03</rscale>
<asrwt>0</asrwt>
<pdfrwt beam="1">  1        2 0.89302866E-01 0.99967170E+03</pdfrwt>
<pdfrwt beam="2">  1       -2 0.66215963E-01 0.99967170E+03</pdfrwt>
<totfact> 0.13099545E+02</totfact>
</mgrwt>
</event>
<event>
 9    1  0.4321150E-036  0.1000153E+04  0.7818608E-02  0.8680892E-01
         -2   -1    0    0    0  501 -0.00000000000E+00  0.00000000000E+00  0.30715535981E+03  0.30715535981E+03  0.00000000000E+00 0. -1.
          2   -1    0    0  501    0  0.00000000000E+00 -0.00000000000E+00 -0.81416946128E+03  0.81416946128E+03  0.00000000000E+00 0. -1.
         36    2    1    2    0    0 -0.28421709430E-13  0.00000000000E+00 -0.50701410147E+03  0.11213248211E+04  0.10001530159E+04 0.  0.
         25    2    3    3    0    0  0.10629096905E+03 -0.90810208741E+02 -0.11085761936E+03  0.21740069062E+03  0.12421507316E+03 0.  0.
         35    2    3    3    0    0 -0.10629096905E+03  0.90810208741E+02 -0.39615648211E+03  0.90392413047E+03  0.80037154573E+03 0.  0.
         22    1    5    5    0    0  0.20540773191E+03  0.27710862153E+03  0.27389102287E+02  0.34602266888E+03  0.00000000000E+00 0. -1.
         22    1    5    5    0    0 -0.31169870096E+03 -0.18629841278E+03 -0.42354558439E+03  0.55790146159E+03  0.00000000000E+00 0. -1.
          5    1    4    4  502    0  0.11776757267E+03 -0.43456975591E+02 -0.11220298395E+03  0.16843191357E+03  0.47000000000E+01 0.  1.
         -5    1    4    4    0  502 -0.11476603624E+02 -0.47353233150E+02  0.13453645870E+01  0.48968777056E+02  0.47000000000E+01 0.  1.
<mgrwt>
<rscale>  0 0.10001530E+04</rscale>
<asrwt>0</asrwt>
<pdfrwt beam="1">  1        2 0.12525684E+00 0.10001530E+04</pdfrwt>
<pdfrwt beam="2">  1       -2 0.47254672E-01 0.10001530E+04</pdfrwt>
<totfact> 0.17284001E+02</totfact>
</mgrwt>
</event>
<event>
 9    1  0.4321150E-036  0.1001907E+04  0.7818608E-02  0.8679224E-01
          2   -1    0    0  501    0  0.00000000000E+00  0.00000000000E+00  0.81396656402E+03  0.81396656402E+03  0.00000000000E+00 0.  1.
         -2   -1    0    0    0  501 -0.00000000000E+00 -0.00000000000E+00 -0.30831023222E+03  0.30831023222E+03  0.00000000000E+00 0.  1.
         36    2    1    2    0    0  0.00000000000E+00  0.35527136788E-13  0.50565633180E+03  0.11222767962E+04  0.10019066231E+04 0.  0.
         25    2    3    3    0    0  0.35958394026E+02  0.36946363413E+02 -0.63105195154E+02  0.13937148337E+03  0.11306681587E+03 0.  0.
         35    2    3    3    0    0 -0.35958394026E+02 -0.36946363413E+02  0.56876152696E+03  0.98290531287E+03  0.79997196179E+03 0.  0.
         22    1    5    5    0    0 -0.72779120519E+02 -0.41518208448E+03  0.30665886777E+03  0.52126061125E+03  0.00000000000E+00 0. -1.
         22    1    5    5    0    0  0.36820726493E+02  0.37823572106E+03  0.26210265919E+03  0.46164470163E+03  0.00000000000E+00 0. -1.
          5    1    4    4  502    0  0.55560737020E+02  0.42163294302E+02 -0.84398302283E+02  0.10958969985E+03  0.47000000000E+01 0.  1.
         -5    1    4    4    0  502 -0.19602342994E+02 -0.52169308886E+01  0.21293107128E+02  0.29781783525E+02  0.47000000000E+01 0.  1.
<mgrwt>
<rscale>  0 0.10019066E+04</rscale>
<asrwt>0</asrwt>
<pdfrwt beam="1">  1        2 0.12522562E+00 0.10019066E+04</pdfrwt>
<pdfrwt beam="2">  1       -2 0.47432344E-01 0.10019066E+04</pdfrwt>
<totfact> 0.17161115E+02</totfact>
</mgrwt>
</event>
<event>
 9    1  0.4321150E-036  0.1000502E+04  0.7818608E-02  0.8680560E-01
          2   -1    0    0  501    0  0.00000000000E+00  0.00000000000E+00  0.11338114994E+04  0.11338114994E+04  0.00000000000E+00 0. -1.
         -2   -1    0    0    0  501 -0.00000000000E+00 -0.00000000000E+00 -0.22071667653E+03  0.22071667653E+03  0.00000000000E+00 0. -1.
         36    2    1    2    0    0  0.00000000000E+00  0.00000000000E+00  0.91309482288E+03  0.13545281759E+04  0.10005020859E+04 0.  0.
         25    2    3    3    0    0 -0.11060333297E+03 -0.70990206008E+02  0.24253605427E+03  0.30371005745E+03  0.12705650224E+03 0.  0.
         35    2    3    3    0    0  0.11060333297E+03  0.70990206008E+02  0.67055876861E+03  0.10508181185E+04  0.79830880576E+03 0.  0.
         22    1    5    5    0    0  0.17675117706E+03  0.20148569456E+03 -0.85034619949E+02  0.28119094988E+03  0.00000000000E+00 0.  1.
         22    1    5    5    0    0 -0.66147844087E+02 -0.13049548856E+03  0.75559338856E+03  0.76962716860E+03  0.00000000000E+00 0.  1.
          5    1    4    4  502    0 -0.93753992698E+02 -0.10515075182E+03  0.21238629269E+03  0.25490492164E+03  0.47000000000E+01 0. -1.
         -5    1    4    4    0  502 -0.16849340276E+02  0.34160545812E+02  0.30149761584E+02  0.48805135811E+02  0.47000000000E+01 0. -1.
<mgrwt>
<rscale>  0 0.10005021E+04</rscale>
<asrwt>0</asrwt>
<pdfrwt beam="1">  1        2 0.17443254E+00 0.10005021E+04</pdfrwt>
<pdfrwt beam="2">  1       -2 0.33956412E-01 0.10005021E+04</pdfrwt>
<totfact> 0.20331534E+02</totfact>
</mgrwt>
</event>
<event>
 9    1  0.4321150E-036  0.1002601E+04  0.7818608E-02  0.8678565E-01
          1   -1    0    0  501    0  0.00000000000E+00  0.00000000000E+00  0.70493300861E+03  0.70493300861E+03  0.00000000000E+00 0. -1.
         -1   -1    0    0    0  501 -0.00000000000E+00 -0.00000000000E+00 -0.35649065757E+03  0.35649065757E+03  0.00000000000E+00 0. -1.
         36    2    1    2    0    0  0.71054273576E-14 -0.71054273576E-14  0.34844235104E+03  0.10614236662E+04  0.10026006818E+04 0.  0.
         25    2    3    3    0    0  0.28273590719E+02 -0.29096963564E+02  0.21033350594E+03  0.24876302916E+03  0.12647858213E+03 0.  0.
         35    2    3    3    0    0 -0.28273590719E+02  0.29096963564E+02  0.13810884510E+03  0.81266063702E+03  0.79981074552E+03 0.  0.
         22    1    5    5    0    0  0.32311263386E+03  0.64255687565E+02 -0.14510577729E+03  0.35998090804E+03  0.00000000000E+00 0.  1.
         22    1    5    5    0    0 -0.35138622458E+03 -0.35158724001E+02  0.28321462239E+03  0.45267972899E+03  0.00000000000E+00 0.  1.
          5    1    4    4  502    0 -0.18540896030E+02 -0.29064642526E+02  0.16409150222E+01  0.34832468659E+02  0.47000000000E+01 0.  1.
         -5    1    4    4    0  502  0.46814486750E+02 -0.32321038315E-01  0.20869259092E+03  0.21393056050E+03  0.47000000000E+01 0.  1.
<mgrwt>
<rscale>  0 0.10026007E+04</rscale>
<asrwt>0</asrwt>
<pdfrwt beam="1">  1        1 0.10845123E+00 0.10026007E+04</pdfrwt>
<pdfrwt beam="2">  1       -1 0.54844717E-01 0.10026007E+04</pdfrwt>
<totfact> 0.10410758E+02</totfact>
</mgrwt>
</event>
<event>
 9    1  0.4321150E-036  0.9966096E+03  0.7818608E-02  0.8684273E-01
         -1   -1    0    0    0  501 -0.00000000000E+00  0.00000000000E+00  0.33322000054E+03  0.33322000054E+03  0.00000000000E+00 0.  1.
          1   -1    0    0  501    0  0.00000000000E+00 -0.00000000000E+00 -0.74517632228E+03  0.74517632228E+03  0.00000000000E+00 0.  1.
         36    2    1    2    0    0  0.00000000000E+00 -0.46185277824E-13 -0.41195632175E+03  0.10783963228E+04  0.99660956149E+03 0.  0.
         25    2    3    3    0    0  0.68150314067E+02  0.28079582426E+02  0.46979270605E+02  0.15313308926E+03  0.12573687965E+03 0.  0.
         35    2    3    3    0    0 -0.68150314067E+02 -0.28079582426E+02 -0.45893559235E+03  0.92526323356E+03  0.80003577745E+03 0.  0.
         22    1    5    5    0    0  0.15765941228E+02 -0.38231886015E+03 -0.63683387232E+02  0.38790701146E+03  0.00000000000E+00 0.  1.
         22    1    5    5    0    0 -0.83916255295E+02  0.35423927772E+03 -0.39525220512E+03  0.53735622210E+03  0.00000000000E+00 0.  1.
          5    1    4    4  502    0  0.15183393255E+02  0.29836746423E+02 -0.39255780787E+02  0.51806111541E+02  0.47000000000E+01 0. -1.
         -5    1    4    4    0  502  0.52966920812E+02 -0.17571639969E+01  0.86235051391E+02  0.10132697772E+03  0.47000000000E+01 0. -1.
<mgrwt>
<rscale>  0 0.99660956E+03</rscale>
<asrwt>0</asrwt>
<pdfrwt beam="1">  1        1 0.11464251E+00 0.99660956E+03</pdfrwt>
<pdfrwt beam="2">  1       -1 0.51264616E-01 0.99660956E+03</pdfrwt>
<totfact> 0.10838684E+02</totfact>
</mgrwt>
</event>
<event>
 9    1  0.4321150E-036  0.9992257E+03  0.7818608E-02  0.8681776E-01
         -2   -1    0    0    0  501 -0.00000000000E+00  0.00000000000E+00  0.35374236974E+03  0.35374236974E+03  0.00000000000E+00 0.  1.
          2   -1    0    0  501    0  0.00000000000E+00 -0.00000000000E+00 -0.70563504417E+03  0.70563504417E+03  0.00000000000E+00 0.  1.
         36    2    1    2    0    0  0.00000000000E+00  0.00000000000E+00 -0.35189267443E+03  0.10593774139E+04  0.99922572564E+03 0.  0.
         25    2    3    3    0    0  0.10905466155E+03 -0.49207617979E+02 -0.13608493491E+03  0.22193751099E+03  0.12815163052E+03 0.  0.
         35    2    3    3    0    0 -0.10905466155E+03  0.49207617979E+02 -0.21580773953E+03  0.83743990291E+03  0.80026139584E+03 0.  0.
         22    1    5    5    0    0  0.26042691872E+03  0.14361384120E+03 -0.32522438669E+03  0.44070173255E+03  0.00000000000E+00 0.  1.
         22    1    5    5    0    0 -0.36948158027E+03 -0.94406223219E+02  0.10941664716E+03  0.39673817036E+03  0.00000000000E+00 0.  1.
          5    1    4    4  502    0  0.12014007140E+03  0.37168410506E+01 -0.10307537374E+03  0.15841109284E+03  0.47000000000E+01 0. -1.
         -5    1    4    4    0  502 -0.11085409848E+02 -0.52924459030E+02 -0.33009561170E+02  0.63526418156E+02  0.47000000000E+01 0. -1.
<mgrwt>
<rscale>  0 0.99922573E+03</rscale>
<asrwt>0</asrwt>
<pdfrwt beam="1">  1        2 0.10855924E+00 0.99922573E+03</pdfrwt>
<pdfrwt beam="2">  1       -2 0.54421904E-01 0.99922573E+03</pdfrwt>
<totfact> 0.15599138E+02</totfact>
</mgrwt>
</event>
<event>
 9    1  0.4321150E-036  0.1000246E+04  0.7818608E-02  0.8680803E-01
         -2   -1    0    0    0  501 -0.00000000000E+00  0.00000000000E+00  0.97444273559E+03  0.97444273559E+03  0.00000000000E+00 0. -1.
          2   -1    0    0  501    0  0.00000000000E+00 -0.00000000000E+00 -0.25668325772E+03  0.25668325772E+03  0.00000000000E+00 0. -1.
         36    2    1    2    0    0  0.00000000000E+00  0.21316282073E-13  0.71775947787E+03  0.12311259933E+04  0.10002462414E+04 0.  0.
         25    2    3    3    0    0 -0.15573143324E+02  0.50812159267E+02 -0.19526258139E+02  0.14183620158E+03  0.13004551126E+03 0.  0.
         35    2    3    3    0    0  0.15573143324E+02 -0.50812159267E+02  0.73728573601E+03  0.10892897917E+04  0.80008599259E+03 0.  0.
         22    1    5    5    0    0  0.76702873268E+02 -0.29935024437E+03  0.77148151152E+03  0.83107016682E+03  0.00000000000E+00 0.  1.
         22    1    5    5    0    0 -0.61129729944E+02  0.24853808510E+03 -0.34195775508E+02  0.25821962492E+03  0.00000000000E+00 0.  1.
          5    1    4    4  502    0 -0.62977663224E+02 -0.74987923472E+01  0.16549870845E+01  0.63617976501E+02  0.47000000000E+01 0.  1.
         -5    1    4    4    0  502  0.47404519901E+02  0.58310951615E+02 -0.21181245223E+02  0.78218225078E+02  0.47000000000E+01 0.  1.
<mgrwt>
<rscale>  0 0.10002462E+04</rscale>
<asrwt>0</asrwt>
<pdfrwt beam="1">  1        2 0.39489732E-01 0.10002462E+04</pdfrwt>
<pdfrwt beam="2">  1       -2 0.14991427E+00 0.10002462E+04</pdfrwt>
<totfact> 0.44406101E+01</totfact>
</mgrwt>
</event>
<event>
 9    1  0.4321150E-036  0.9978159E+03  0.7818608E-02  0.8683121E-01
         -2   -1    0    0    0  501 -0.00000000000E+00  0.00000000000E+00  0.88089425284E+02  0.88089425284E+02  0.00000000000E+00 0. -1.
          2   -1    0    0  501    0  0.00000000000E+00 -0.00000000000E+00 -0.28256418187E+04  0.28256418187E+04  0.00000000000E+00 0. -1.
         36    2    1    2    0    0  0.00000000000E+00  0.28421709430E-13 -0.27375523934E+04  0.29137312440E+04  0.99781594268E+03 0.  0.
         25    2    3    3    0    0  0.97452007370E+02  0.94628057481E+02 -0.56785897010E+03  0.59710525451E+03  0.12497804619E+03 0.  0.
         35    2    3    3    0    0 -0.97452007370E+02 -0.94628057481E+02 -0.21696934233E+04  0.23166259895E+04  0.80045928126E+03 0.  0.
         22    1    5    5    0    0  0.23757092168E+03  0.19586865277E+03 -0.48442741632E+03  0.57399860074E+03  0.00000000000E+00 0. -1.
         22    1    5    5    0    0 -0.33502292905E+03 -0.29049671026E+03 -0.16852660070E+04  0.17426273887E+04  0.00000000000E+00 0. -1.
          5    1    4    4  502    0  0.72628725288E+02  0.63002825128E+02 -0.15633021212E+03  0.18359061232E+03  0.47000000000E+01 0. -1.
         -5    1    4    4    0  502  0.24823282083E+02  0.31625232353E+02 -0.41152875799E+03  0.41351464219E+03  0.47000000000E+01 0. -1.
<mgrwt>
<rscale>  0 0.99781594E+03</rscale>
<asrwt>0</asrwt>
<pdfrwt beam="1">  1        2 0.43471412E+00 0.99781594E+03</pdfrwt>
<pdfrwt beam="2">  1       -2 0.13552219E-01 0.99781594E+03</pdfrwt>
<totfact> 0.10316463E+02</totfact>
</mgrwt>
</event>
<event>
 9    1  0.4321150E-036  0.9972110E+03  0.7818608E-02  0.8683698E-01
          1   -1    0    0  501    0  0.00000000000E+00  0.00000000000E+00  0.48420857348E+03  0.48420857348E+03  0.00000000000E+00 0. -1.
         -1   -1    0    0    0  501 -0.00000000000E+00 -0.00000000000E+00 -0.51343045717E+03  0.51343045717E+03  0.00000000000E+00 0. -1.
         36    2    1    2    0    0 -0.28421709430E-13 -0.71054273576E-14 -0.29221883691E+02  0.99763903065E+03  0.99721096915E+03 0.  0.
         25    2    3    3    0    0  0.23113303158E+00 -0.45185320765E+02  0.12477615445E+03  0.18215809153E+03  0.12478267090E+03 0.  0.
         35    2    3    3    0    0 -0.23113303158E+00  0.45185320765E+02 -0.15399803815E+03  0.81548093912E+03  0.79953236312E+03 0.  0.
         22    1    5    5    0    0  0.38024234053E+03  0.13967793235E+03 -0.11734595711E+03  0.42173953569E+03  0.00000000000E+00 0. -1.
         22    1    5    5    0    0 -0.38047347356E+03 -0.94492611590E+02 -0.36652081033E+02  0.39374140342E+03  0.00000000000E+00 0. -1.
          5    1    4    4  502    0  0.47071411262E+02 -0.18216195848E+02  0.11679430506E+03  0.12732064736E+03  0.47000000000E+01 0.  1.
         -5    1    4    4    0  502 -0.46840278231E+02 -0.26969124917E+02  0.79818493899E+01  0.54837444171E+02  0.47000000000E+01 0.  1.
<mgrwt>
<rscale>  0 0.99721097E+03</rscale>
<asrwt>0</asrwt>
<pdfrwt beam="1">  1        1 0.74493626E-01 0.99721097E+03</pdfrwt>
<pdfrwt beam="2">  1       -1 0.78989302E-01 0.99721097E+03</pdfrwt>
<totfact> 0.87802734E+01</totfact>
</mgrwt>
</event>
<event>
 9    1  0.4321150E-036  0.1000020E+04  0.7818608E-02  0.8681019E-01
          1   -1    0    0  501    0  0.00000000000E+00  0.00000000000E+00  0.11198956919E+04  0.11198956919E+04  0.00000000000E+00 0. -1.
         -1   -1    0    0    0  501 -0.00000000000E+00 -0.00000000000E+00 -0.22324410181E+03  0.22324410181E+03  0.00000000000E+00 0. -1.
         36    2    1    2    0    0 -0.14210854715E-13 -0.71054273576E-14  0.89665159006E+03  0.13431397937E+04  0.10000202155E+04 0.  0.
         25    2    3    3    0    0 -0.61967987873E+02  0.48411446719E+02  0.12710341737E+02  0.14853627664E+03  0.12537054278E+03 0.  0.
         35    2    3    3    0    0  0.61967987873E+02 -0.48411446719E+02  0.88394124832E+03  0.11946035170E+04  0.79971353169E+03 0.  0.
         22    1    5    5    0    0  0.17895871744E+03  0.30144615884E+03  0.16697761548E+03  0.38830082835E+03  0.00000000000E+00 0.  1.
         22    1    5    5    0    0 -0.11699072957E+03 -0.34985760556E+03  0.71696363285E+03  0.80630268869E+03  0.00000000000E+00 0.  1.
          5    1    4    4  502    0 -0.67739597271E+02  0.81936438729E+02 -0.10733508370E+02  0.10695574427E+03  0.47000000000E+01 0. -1.
         -5    1    4    4    0  502  0.57716093981E+01 -0.33524992010E+02  0.23443850107E+02  0.41580532369E+02  0.47000000000E+01 0. -1.
<mgrwt>
<rscale>  0 0.10000202E+04</rscale>
<asrwt>0</asrwt>
<pdfrwt beam="1">  1        1 0.17229164E+00 0.10000202E+04</pdfrwt>
<pdfrwt beam="2">  1       -1 0.34345247E-01 0.10000202E+04</pdfrwt>
<totfact> 0.10904642E+02</totfact>
</mgrwt>
</event>
<event>
 9    1  0.4321150E-036  0.1002140E+04  0.7818608E-02  0.8679002E-01
         -2   -1    0    0    0  501 -0.00000000000E+00  0.00000000000E+00  0.35541690040E+03  0.35541690040E+03  0.00000000000E+00 0.  1.
          2   -1    0    0  501    0  0.00000000000E+00 -0.00000000000E+00 -0.70641358804E+03  0.70641358804E+03  0.00000000000E+00 0.  1.
         36    2    1    2    0    0 -0.71054273576E-14  0.35527136788E-14 -0.35099668764E+03  0.10618304884E+04  0.10021403651E+04 0.  0.
         25    2    3    3    0    0 -0.63639808521E+02 -0.23839019830E+02 -0.20019050588E+03  0.24497146799E+03  0.12375967594E+03 0.  0.
         35    2    3    3    0    0  0.63639808521E+02  0.23839019830E+02 -0.15080618176E+03  0.81685902046E+03  0.79993614167E+03 0.  0.
         22    1    5    5    0    0 -0.10592111607E+03 -0.23493478750E+03  0.21652928929E+03  0.33659852989E+03  0.00000000000E+00 0. -1.
         22    1    5    5    0    0  0.16956092459E+03  0.25877380733E+03 -0.36733547104E+03  0.48026049056E+03  0.00000000000E+00 0. -1.
          5    1    4    4  502    0  0.33213148457E+01  0.26900326217E+02 -0.13701753567E+03  0.13975175764E+03  0.47000000000E+01 0. -1.
         -5    1    4    4    0  502 -0.66961123367E+02 -0.50739346048E+02 -0.63172970210E+02  0.10521971034E+03  0.47000000000E+01 0. -1.
<mgrwt>
<rscale>  0 0.10021404E+04</rscale>
<asrwt>0</asrwt>
<pdfrwt beam="1">  1        2 0.10867901E+00 0.10021404E+04</pdfrwt>
<pdfrwt beam="2">  1       -2 0.54679523E-01 0.10021404E+04</pdfrwt>
<totfact> 0.15427236E+02</totfact>
</mgrwt>
</event>
<event>
 9    1  0.4321150E-036  0.1001047E+04  0.7818608E-02  0.8680041E-01
         -1   -1    0    0    0  501 -0.00000000000E+00  0.00000000000E+00  0.43569174678E+03  0.43569174678E+03  0.00000000000E+00 0. -1.
          1   -1    0    0  501    0  0.00000000000E+00 -0.00000000000E+00 -0.57500290993E+03  0.57500290993E+03  0.00000000000E+00 0. -1.
         36    2    1    2    0    0  0.00000000000E+00 -0.28421709430E-13 -0.13931116315E+03  0.10106946567E+04  0.10010474958E+04 0.  0.
         25    2    3    3    0    0  0.85669660553E+02 -0.10592641013E+03 -0.64000445865E+02  0.19528915769E+03  0.12442709889E+03 0.  0.
         35    2    3    3    0    0 -0.85669660553E+02  0.10592641013E+03 -0.75310717288E+02  0.81540549901E+03  0.80040910076E+03 0.  0.
         22    1    5    5    0    0 -0.36085472529E+03  0.13921622198E+03  0.19068864617E+03  0.43123015781E+03  0.00000000000E+00 0. -1.
         22    1    5    5    0    0  0.27518506474E+03 -0.33289811851E+02 -0.26599936346E+03  0.38417534120E+03  0.00000000000E+00 0. -1.
          5    1    4    4  502    0  0.95802152041E+02 -0.87615029114E+02 -0.22603787740E+01  0.12992938457E+03  0.47000000000E+01 0. -1.
         -5    1    4    4    0  502 -0.10132491488E+02 -0.18311381019E+02 -0.61740067091E+02  0.65359773125E+02  0.47000000000E+01 0. -1.
<mgrwt>
<rscale>  0 0.10010475E+04</rscale>
<asrwt>0</asrwt>
<pdfrwt beam="1">  1        1 0.88461986E-01 0.10010475E+04</pdfrwt>
<pdfrwt beam="2">  1       -1 0.67029499E-01 0.10010475E+04</pdfrwt>
<totfact> 0.95887730E+01</totfact>
</mgrwt>
</event>
<event>
 9    1  0.4321150E-036  0.9994013E+03  0.7818608E-02  0.8681608E-01
         -1   -1    0    0    0  501 -0.00000000000E+00  0.00000000000E+00  0.13907019870E+03  0.13907019870E+03  0.00000000000E+00 0. -1.
          1   -1    0    0  501    0  0.00000000000E+00 -0.00000000000E+00 -0.17955012886E+04  0.17955012886E+04  0.00000000000E+00 0. -1.
         36    2    1    2    0    0  0.00000000000E+00 -0.14210854715E-13 -0.16564310899E+04  0.19345714873E+04  0.99940126271E+03 0.  0.
         25    2    3    3    0    0 -0.99638218549E+02 -0.70495942566E+02 -0.17658513990E+03  0.24771204016E+03  0.12361832668E+03 0.  0.
         35    2    3    3    0    0  0.99638218549E+02  0.70495942566E+02 -0.14798459500E+04  0.16868594471E+04  0.80040821222E+03 0.  0.
         22    1    5    5    0    0  0.56139111819E+01 -0.31651566070E+03 -0.10680499402E+04  0.11139768195E+04  0.00000000000E+00 0. -1.
         22    1    5    5    0    0  0.94024307368E+02  0.38701160327E+03 -0.41179600974E+03  0.57288262766E+03  0.00000000000E+00 0. -1.
          5    1    4    4  502    0 -0.12173608802E+03 -0.28264717044E+02 -0.13773428252E+03  0.18604137157E+03  0.47000000000E+01 0. -1.
         -5    1    4    4    0  502  0.22097869471E+02 -0.42231225522E+02 -0.38850857381E+02  0.61670668583E+02  0.47000000000E+01 0. -1.
<mgrwt>
<rscale>  0 0.99940126E+03</rscale>
<asrwt>0</asrwt>
<pdfrwt beam="1">  1        1 0.27623095E+00 0.99940126E+03</pdfrwt>
<pdfrwt beam="2">  1       -1 0.21395416E-01 0.99940126E+03</pdfrwt>
<totfact> 0.79253722E+01</totfact>
</mgrwt>
</event>
<event>
 9    1  0.4321150E-036  0.1000251E+04  0.7818608E-02  0.8680799E-01
         -1   -1    0    0    0  501 -0.00000000000E+00  0.00000000000E+00  0.97160200465E+03  0.97160200465E+03  0.00000000000E+00 0.  1.
          1   -1    0    0  501    0  0.00000000000E+00 -0.00000000000E+00 -0.25743625144E+03  0.25743625144E+03  0.00000000000E+00 0.  1.
         36    2    1    2    0    0 -0.28421709430E-13 -0.14210854715E-13  0.71416575321E+03  0.12290382561E+04  0.10002511244E+04 0.  0.
         25    2    3    3    0    0 -0.95313189793E+02  0.95622998495E+02  0.18241847007E+03  0.25904845908E+03  0.12490493960E+03 0.  0.
         35    2    3    3    0    0  0.95313189793E+02 -0.95622998495E+02  0.53174728314E+03  0.96998979701E+03  0.79993541689E+03 0.  0.
         22    1    5    5    0    0 -0.16465979069E+03  0.23979968576E+03  0.15803527859E+01  0.29089385259E+03  0.00000000000E+00 0.  1.
         22    1    5    5    0    0  0.25997298048E+03 -0.33542268425E+03  0.53016693035E+03  0.67909594442E+03  0.00000000000E+00 0.  1.
          5    1    4    4  502    0 -0.12497340193E+03  0.71674539082E+02  0.15617823259E+03  0.21253075325E+03  0.47000000000E+01 0. -1.
         -5    1    4    4    0  502  0.29660212135E+02  0.23948459413E+02  0.26240237484E+02  0.46517705827E+02  0.47000000000E+01 0. -1.
<mgrwt>
<rscale>  0 0.10002511E+04</rscale>
<asrwt>0</asrwt>
<pdfrwt beam="1">  1        1 0.39605577E-01 0.10002511E+04</pdfrwt>
<pdfrwt beam="2">  1       -1 0.14947723E+00 0.10002511E+04</pdfrwt>
<totfact> 0.44315967E+01</totfact>
</mgrwt>
</event>
<event>
 9    1  0.4321150E-036  0.9998044E+03  0.7818608E-02  0.8681224E-01
          4   -1    0    0  501    0  0.00000000000E+00  0.00000000000E+00  0.51240532848E+03  0.51240532848E+03  0.00000000000E+00 0.  1.
         -4   -1    0    0    0  501 -0.00000000000E+00 -0.00000000000E+00 -0.48770419331E+03  0.48770419331E+03  0.00000000000E+00 0.  1.
         36    2    1    2    0    0 -0.71054273576E-14  0.00000000000E+00  0.24701135171E+02  0.10001095218E+04  0.99980443562E+03 0.  0.
         25    2    3    3    0    0  0.22487615640E+02  0.11900326697E+03 -0.66200384338E+02  0.18570673466E+03  0.12424584503E+03 0.  0.
         35    2    3    3    0    0 -0.22487615640E+02 -0.11900326697E+03  0.90901519509E+02  0.81440278713E+03  0.80020081419E+03 0.  0.
         22    1    5    5    0    0  0.12807620062E+03  0.70313869267E+02 -0.31197171572E+03  0.34449079057E+03  0.00000000000E+00 0.  1.
         22    1    5    5    0    0 -0.15056381626E+03 -0.18931713623E+03  0.40287323523E+03  0.46991199656E+03  0.00000000000E+00 0.  1.
          5    1    4    4  502    0  0.31069680422E+02  0.87990239276E+02 -0.10133297189E+03  0.13783348085E+03  0.47000000000E+01 0.  1.
         -5    1    4    4    0  502 -0.85820647817E+01  0.31013027689E+02  0.35132587557E+02  0.47873253815E+02  0.47000000000E+01 0.  1.
<mgrwt>
<rscale>  0 0.99980444E+03</rscale>
<asrwt>0</asrwt>
<pdfrwt beam="1">  1        4 0.78831589E-01 0.99980444E+03</pdfrwt>
<pdfrwt beam="2">  1       -4 0.75031414E-01 0.99980444E+03</pdfrwt>
<totfact> 0.53120497E+00</totfact>
</mgrwt>
</event>
<event>
 9    1  0.4321150E-036  0.9996997E+03  0.7818608E-02  0.8681324E-01
          1   -1    0    0  501    0  0.00000000000E+00  0.00000000000E+00  0.73010213946E+03  0.73010213946E+03  0.00000000000E+00 0. -1.
         -1   -1    0    0    0  501 -0.00000000000E+00 -0.00000000000E+00 -0.34221222664E+03  0.34221222664E+03  0.00000000000E+00 0. -1.
         36    2    1    2    0    0  0.71054273576E-14  0.00000000000E+00  0.38788991282E+03  0.10723143661E+04  0.99969971254E+03 0.  0.
         25    2    3    3    0    0 -0.13771462344E+02 -0.13981242848E+03  0.73466569083E+02  0.20149574837E+03  0.12436250040E+03 0.  0.
         35    2    3    3    0    0  0.13771462344E+02  0.13981242848E+03  0.31442334374E+03  0.87081861772E+03  0.79982864262E+03 0.  0.
         22    1    5    5    0    0  0.29952415202E+03  0.30286559804E+03  0.15408150087E+02  0.42623901653E+03  0.00000000000E+00 0.  1.
         22    1    5    5    0    0 -0.28575268968E+03 -0.16305316956E+03  0.29901519365E+03  0.44457960119E+03  0.00000000000E+00 0.  1.
          5    1    4    4  502    0 -0.17287487482E+02 -0.58335800201E+02 -0.31350537070E+02  0.68606624921E+02  0.47000000000E+01 0. -1.
         -5    1    4    4    0  502  0.35160251377E+01 -0.81476628284E+02  0.10481710615E+03  0.13288912345E+03  0.47000000000E+01 0. -1.
<mgrwt>
<rscale>  0 0.99969971E+03</rscale>
<asrwt>0</asrwt>
<pdfrwt beam="1">  1        1 0.11232341E+00 0.99969971E+03</pdfrwt>
<pdfrwt beam="2">  1       -1 0.52648035E-01 0.99969971E+03</pdfrwt>
<totfact> 0.10647477E+02</totfact>
</mgrwt>
</event>
<event>
 9    1  0.4321150E-036  0.1000188E+04  0.7818608E-02  0.8680859E-01
          1   -1    0    0  501    0  0.00000000000E+00  0.00000000000E+00  0.99427097911E+03  0.99427097911E+03  0.00000000000E+00 0. -1.
         -1   -1    0    0    0  501 -0.00000000000E+00 -0.00000000000E+00 -0.25153514961E+03  0.25153514961E+03  0.00000000000E+00 0. -1.
         36    2    1    2    0    0  0.71054273576E-14  0.28421709430E-13  0.74273582950E+03  0.12458061287E+04  0.10001881813E+04 0.  0.
         25    2    3    3    0    0 -0.25878009538E+01  0.11158694807E+03  0.30405371347E+02  0.16969184865E+03  0.12414706280E+03 0.  0.
         35    2    3    3    0    0  0.25878009538E+01 -0.11158694807E+03  0.71233045815E+03  0.10761142801E+04  0.79884223628E+03 0.  0.
         22    1    5    5    0    0  0.73317175923E+02  0.26323710250E+03  0.62883994255E+03  0.68564484521E+03  0.00000000000E+00 0. -1.
         22    1    5    5    0    0 -0.70729374969E+02 -0.37482405056E+03  0.83490515600E+02  0.39046943486E+03  0.00000000000E+00 0. -1.
          5    1    4    4  502    0  0.21331136108E+02  0.75784999408E+02 -0.38918591752E+02  0.87949589464E+02  0.47000000000E+01 0. -1.
         -5    1    4    4    0  502 -0.23918937062E+02  0.35801948658E+02  0.69323963099E+02  0.81742259191E+02  0.47000000000E+01 0. -1.
<mgrwt>
<rscale>  0 0.10001882E+04</rscale>
<asrwt>0</asrwt>
<pdfrwt beam="1">  1        1 0.15296476E+00 0.10001882E+04</pdfrwt>
<pdfrwt beam="2">  1       -1 0.38697716E-01 0.10001882E+04</pdfrwt>
<totfact> 0.11078033E+02</totfact>
</mgrwt>
</event>
<event>
 9    1  0.4321150E-036  0.9997991E+03  0.7818608E-02  0.8681229E-01
         -2   -1    0    0    0  501 -0.00000000000E+00  0.00000000000E+00  0.59721477784E+03  0.59721477784E+03  0.00000000000E+00 0. -1.
          2   -1    0    0  501    0  0.00000000000E+00 -0.00000000000E+00 -0.41844169392E+03  0.41844169392E+03  0.00000000000E+00 0. -1.
         36    2    1    2    0    0 -0.35527136788E-13  0.00000000000E+00  0.17877308392E+03  0.10156564718E+04  0.99979910637E+03 0.  0.
         25    2    3    3    0    0 -0.12833928394E+02 -0.10627456106E+03 -0.58019616277E+02  0.17461613040E+03  0.12516199533E+03 0.  0.
         35    2    3    3    0    0  0.12833928394E+02  0.10627456106E+03  0.23679270020E+03  0.84104034136E+03  0.79988691756E+03 0.  0.
         22    1    5    5    0    0  0.36383671554E+03  0.14902717480E+03  0.28300588429E+03  0.48443635800E+03  0.00000000000E+00 0.  1.
         22    1    5    5    0    0 -0.35100278715E+03 -0.42752613749E+02 -0.46213184097E+02  0.35660398336E+03  0.00000000000E+00 0.  1.
          5    1    4    4  502    0  0.21602165948E+02 -0.61513508741E+02 -0.88692886793E+02  0.11017750904E+03  0.47000000000E+01 0. -1.
         -5    1    4    4    0  502 -0.34436094342E+02 -0.44761052314E+02  0.30673270516E+02  0.64438621353E+02  0.47000000000E+01 0. -1.
<mgrwt>
<rscale>  0 0.99979911E+03</rscale>
<asrwt>0</asrwt>
<pdfrwt beam="1">  1        2 0.64375645E-01 0.99979911E+03</pdfrwt>
<pdfrwt beam="2">  1       -2 0.91879197E-01 0.99979911E+03</pdfrwt>
<totfact> 0.90885764E+01</totfact>
</mgrwt>
</event>
<event>
 9    1  0.4321150E-036  0.1000777E+04  0.7818608E-02  0.8680299E-01
          2   -1    0    0  501    0  0.00000000000E+00  0.00000000000E+00  0.19368436257E+04  0.19368436257E+04  0.00000000000E+00 0. -1.
         -2   -1    0    0    0  501 -0.00000000000E+00 -0.00000000000E+00 -0.12927657733E+03  0.12927657733E+03  0.00000000000E+00 0. -1.
         36    2    1    2    0    0  0.71054273576E-14  0.00000000000E+00  0.18075670484E+04  0.20661202030E+04  0.10007767278E+04 0.  0.
         25    2    3    3    0    0 -0.51208037851E+02 -0.13079282483E+03  0.32544355904E+03  0.37601424462E+03  0.12547579792E+03 0.  0.
         35    2    3    3    0    0  0.51208037851E+02  0.13079282483E+03  0.14821234894E+04  0.16901059584E+04  0.80002442892E+03 0.  0.
         22    1    5    5    0    0  0.16224383606E+03 -0.23219330901E+03  0.11543147923E+04  0.11885619188E+04  0.00000000000E+00 0. -1.
         22    1    5    5    0    0 -0.11103579821E+03  0.36298613384E+03  0.32780869709E+03  0.50154403967E+03  0.00000000000E+00 0. -1.
          5    1    4    4  502    0 -0.57513620788E+02 -0.70174465447E+02  0.73792402904E+02  0.11704563599E+03  0.47000000000E+01 0. -1.
         -5    1    4    4    0  502  0.63055829368E+01 -0.60618359384E+02  0.25165115614E+03  0.25896860863E+03  0.47000000000E+01 0. -1.
<mgrwt>
<rscale>  0 0.10007767E+04</rscale>
<asrwt>0</asrwt>
<pdfrwt beam="1">  1        2 0.29797592E+00 0.10007767E+04</pdfrwt>
<pdfrwt beam="2">  1       -2 0.19888706E-01 0.10007767E+04</pdfrwt>
<totfact> 0.18384229E+02</totfact>
</mgrwt>
</event>
<event>
 9    1  0.4321150E-036  0.1000577E+04  0.7818608E-02  0.8680489E-01
         -2   -1    0    0    0  501 -0.00000000000E+00  0.00000000000E+00  0.34078346526E+03  0.34078346526E+03  0.00000000000E+00 0. -1.
          2   -1    0    0  501    0  0.00000000000E+00 -0.00000000000E+00 -0.73445061060E+03  0.73445061060E+03  0.00000000000E+00 0. -1.
         36    2    1    2    0    0  0.71054273576E-14  0.00000000000E+00 -0.39366714535E+03  0.10752340759E+04  0.10005770818E+04 0.  0.
         25    2    3    3    0    0  0.12697509263E+01 -0.13391554257E+03 -0.26552179062E+02  0.18481751462E+03  0.12456930075E+03 0.  0.
         35    2    3    3    0    0 -0.12697509263E+01  0.13391554257E+03 -0.36711496629E+03  0.89041656124E+03  0.80008328894E+03 0.  0.
         22    1    5    5    0    0 -0.17085462532E+03 -0.65588128010E+02 -0.54431061631E+03  0.57425356121E+03  0.00000000000E+00 0. -1.
         22    1    5    5    0    0  0.16958487440E+03  0.19950367058E+03  0.17719565002E+03  0.31616300003E+03  0.00000000000E+00 0. -1.
          5    1    4    4  502    0  0.23922998126E+02 -0.13644311496E+03 -0.54070216116E+02  0.14877738984E+03  0.47000000000E+01 0. -1.
         -5    1    4    4    0  502 -0.22653247200E+02  0.25275723820E+01  0.27518037054E+02  0.36040124780E+02  0.47000000000E+01 0. -1.
<mgrwt>
<rscale>  0 0.10005771E+04</rscale>
<asrwt>0</asrwt>
<pdfrwt beam="1">  1        2 0.11299240E+00 0.10005771E+04</pdfrwt>
<pdfrwt beam="2">  1       -2 0.52428226E-01 0.10005771E+04</pdfrwt>
<totfact> 0.16012330E+02</totfact>
</mgrwt>
</event>
<event>
 9    1  0.4321150E-036  0.9997918E+03  0.7818608E-02  0.8681236E-01
         -2   -1    0    0    0  501 -0.00000000000E+00  0.00000000000E+00  0.14122118622E+03  0.14122118622E+03  0.00000000000E+00 0. -1.
          2   -1    0    0  501    0  0.00000000000E+00 -0.00000000000E+00 -0.17695354023E+04  0.17695354023E+04  0.00000000000E+00 0. -1.
         36    2    1    2    0    0 -0.71054273576E-14 -0.71054273576E-14 -0.16283142161E+04  0.19107565885E+04  0.99979175545E+03 0.  0.
         25    2    3    3    0    0  0.58957813664E+02  0.59766663463E+02 -0.50781164789E+03  0.53120187719E+03  0.13135709630E+03 0.  0.
         35    2    3    3    0    0 -0.58957813664E+02 -0.59766663463E+02 -0.11205025682E+04  0.13795547114E+04  0.80037311197E+03 0.  0.
         22    1    5    5    0    0 -0.32270042009E+03 -0.13499268580E+02 -0.10557732850E+04  0.11040720179E+04  0.00000000000E+00 0.  1.
         22    1    5    5    0    0  0.26374260642E+03 -0.46267394883E+02 -0.64729283182E+02  0.27548269342E+03  0.00000000000E+00 0.  1.
          5    1    4    4  502    0  0.82429775788E+02  0.80510370025E+02 -0.30772309321E+03  0.32862163610E+03  0.47000000000E+01 0. -1.
         -5    1    4    4    0  502 -0.23471962124E+02 -0.20743706562E+02 -0.20008855468E+03  0.20258024109E+03  0.47000000000E+01 0. -1.
<mgrwt>
<rscale>  0 0.99979176E+03</rscale>
<asrwt>0</asrwt>
<pdfrwt beam="1">  1        2 0.27223620E+00 0.99979176E+03</pdfrwt>
<pdfrwt beam="2">  1       -2 0.21726338E-01 0.99979176E+03</pdfrwt>
<totfact> 0.19605055E+02</totfact>
</mgrwt>
</event>
<event>
 9    1  0.4321150E-036  0.1006502E+04  0.7818608E-02  0.8674871E-01
          2   -1    0    0  501    0  0.00000000000E+00  0.00000000000E+00  0.69947868092E+03  0.69947868092E+03  0.00000000000E+00 0.  1.
         -2   -1    0    0    0  501 -0.00000000000E+00 -0.00000000000E+00 -0.36207177831E+03  0.36207177831E+03  0.00000000000E+00 0.  1.
         36    2    1    2    0    0  0.00000000000E+00  0.88817841970E-15  0.33740690260E+03  0.10615504592E+04  0.10065018428E+04 0.  0.
         25    2    3    3    0    0  0.13020432865E+03 -0.47265128683E+01  0.13575329933E+03  0.22676114780E+03  0.12655493965E+03 0.  0.
         35    2    3    3    0    0 -0.13020432865E+03  0.47265128683E+01  0.20165360328E+03  0.83478931144E+03  0.79952080126E+03 0.  0.
         22    1    5    5    0    0 -0.93518337152E+02  0.10240689291E+02 -0.30889046935E+03  0.32289916872E+03  0.00000000000E+00 0.  1.
         22    1    5    5    0    0 -0.36685991496E+02 -0.55141764230E+01  0.51054407263E+03  0.51189014272E+03  0.00000000000E+00 0.  1.
          5    1    4    4  502    0  0.13489208317E+03 -0.19303577416E+02  0.15183079792E+03  0.20406661510E+03  0.47000000000E+01 0.  1.
         -5    1    4    4    0  502 -0.46877545240E+01  0.14577064548E+02 -0.16077498590E+02  0.22694532694E+02  0.47000000000E+01 0.  1.
<mgrwt>
<rscale>  0 0.10065018E+04</rscale>
<asrwt>0</asrwt>
<pdfrwt beam="1">  1        2 0.10761210E+00 0.10065018E+04</pdfrwt>
<pdfrwt beam="2">  1       -2 0.55703351E-01 0.10065018E+04</pdfrwt>
<totfact> 0.15031826E+02</totfact>
</mgrwt>
</event>
<event>
 9    1  0.4321150E-036  0.1000366E+04  0.7818608E-02  0.8680689E-01
         -2   -1    0    0    0  501 -0.00000000000E+00  0.00000000000E+00  0.87555295976E+02  0.87555295976E+02  0.00000000000E+00 0.  1.
          2   -1    0    0  501    0  0.00000000000E+00 -0.00000000000E+00 -0.28574289108E+04  0.28574289108E+04  0.00000000000E+00 0.  1.
         36    2    1    2    0    0 -0.35527136788E-14  0.00000000000E+00 -0.27698736148E+04  0.29449842068E+04  0.10003660011E+04 0.  0.
         25    2    3    3    0    0  0.79282132093E+01  0.10801526795E+03 -0.25605710812E+03  0.30488337818E+03  0.12513383634E+03 0.  0.
         35    2    3    3    0    0 -0.79282132093E+01 -0.10801526795E+03 -0.25138165067E+04  0.26401008286E+04  0.79945531526E+03 0.  0.
         22    1    5    5    0    0  0.21977093315E+03 -0.24623432354E+03 -0.22164102346E+04  0.22408491545E+04  0.00000000000E+00 0. -1.
         22    1    5    5    0    0 -0.22769914636E+03  0.13821905559E+03 -0.29740627207E+03  0.39925167407E+03  0.00000000000E+00 0. -1.
          5    1    4    4  502    0  0.27120709620E+02  0.64190819143E+02 -0.24606184044E+03  0.25578216019E+03  0.47000000000E+01 0.  1.
         -5    1    4    4    0  502 -0.19192496410E+02  0.43824448807E+02 -0.99952676773E+01  0.49101217985E+02  0.47000000000E+01 0.  1.
<mgrwt>
<rscale>  0 0.10003660E+04</rscale>
<asrwt>0</asrwt>
<pdfrwt beam="1">  1        2 0.43960436E+00 0.10003660E+04</pdfrwt>
<pdfrwt beam="2">  1       -2 0.13470048E-01 0.10003660E+04</pdfrwt>
<totfact> 0.99385072E+01</totfact>
</mgrwt>
</event>
<event>
 9    1  0.4321150E-036  0.9977370E+03  0.7818608E-02  0.8683196E-01
          1   -1    0    0  501    0  0.00000000000E+00  0.00000000000E+00  0.58836407729E+03  0.58836407729E+03  0.00000000000E+00 0. -1.
         -1   -1    0    0    0  501 -0.00000000000E+00 -0.00000000000E+00 -0.42298601408E+03  0.42298601408E+03  0.00000000000E+00 0. -1.
         36    2    1    2    0    0 -0.71054273576E-14  0.00000000000E+00  0.16537806320E+03  0.10113500914E+04  0.99773699115E+03 0.  0.
         25    2    3    3    0    0  0.22432999588E+02  0.13448442995E+03  0.53311600393E+02  0.19229374970E+03  0.12468142631E+03 0.  0.
         35    2    3    3    0    0 -0.22432999588E+02 -0.13448442995E+03  0.11206646281E+03  0.81905634167E+03  0.79981566462E+03 0.  0.
         22    1    5    5    0    0 -0.89916552985E+02 -0.38398783044E+03  0.30331512670E+03  0.49752558377E+03  0.00000000000E+00 0.  1.
         22    1    5    5    0    0  0.67483553397E+02  0.24950340049E+03 -0.19124866389E+03  0.32153075790E+03  0.00000000000E+00 0.  1.
          5    1    4    4  502    0  0.15192383924E+01 -0.19939196119E+02 -0.11399688115E+02  0.23493031228E+02  0.47000000000E+01 0.  1.
         -5    1    4    4    0  502  0.20913761195E+02  0.15442362607E+03  0.64711288508E+02  0.16880071847E+03  0.47000000000E+01 0.  1.
<mgrwt>
<rscale>  0 0.99773699E+03</rscale>
<asrwt>0</asrwt>
<pdfrwt beam="1">  1        1 0.90517550E-01 0.99773699E+03</pdfrwt>
<pdfrwt beam="2">  1       -1 0.65074771E-01 0.99773699E+03</pdfrwt>
<totfact> 0.98312014E+01</totfact>
</mgrwt>
</event>
<event>
 9    1  0.4321150E-036  0.9999542E+03  0.7818608E-02  0.8681082E-01
         -2   -1    0    0    0  501 -0.00000000000E+00  0.00000000000E+00  0.35737117398E+03  0.35737117398E+03  0.00000000000E+00 0.  1.
          2   -1    0    0  501    0  0.00000000000E+00 -0.00000000000E+00 -0.69948876187E+03  0.69948876187E+03  0.00000000000E+00 0.  1.
         36    2    1    2    0    0 -0.14210854715E-13  0.00000000000E+00 -0.34211758788E+03  0.10568599358E+04  0.99995423898E+03 0.  0.
         25    2    3    3    0    0 -0.10574463470E+03  0.90076952328E+02 -0.52754177555E+02  0.19521290954E+03  0.12660683904E+03 0.  0.
         35    2    3    3    0    0  0.10574463470E+03 -0.90076952328E+02 -0.28936341033E+03  0.86164702631E+03  0.79963030808E+03 0.  0.
         22    1    5    5    0    0 -0.24254270521E+03  0.74271610216E+01 -0.41334558182E+03  0.47930856093E+03  0.00000000000E+00 0.  1.
         22    1    5    5    0    0  0.34828733991E+03 -0.97504113350E+02  0.12398217149E+03  0.38233846538E+03  0.00000000000E+00 0.  1.
          5    1    4    4  502    0 -0.57384096385E+02  0.77517972031E+02 -0.90558748630E+02  0.13238182450E+03  0.47000000000E+01 0. -1.
         -5    1    4    4    0  502 -0.48360538316E+02  0.12558980297E+02  0.37804571075E+02  0.62831085033E+02  0.47000000000E+01 0. -1.
<mgrwt>
<rscale>  0 0.99995424E+03</rscale>
<asrwt>0</asrwt>
<pdfrwt beam="1">  1        2 0.10761365E+00 0.99995424E+03</pdfrwt>
<pdfrwt beam="2">  1       -2 0.54980182E-01 0.99995424E+03</pdfrwt>
<totfact> 0.15442290E+02</totfact>
</mgrwt>
</event>
<event>
 9    1  0.4321150E-036  0.9999589E+03  0.7818608E-02  0.8681077E-01
         -1   -1    0    0    0  501 -0.00000000000E+00  0.00000000000E+00  0.25521713299E+03  0.25521713299E+03  0.00000000000E+00 0. -1.
          1   -1    0    0  501    0  0.00000000000E+00 -0.00000000000E+00 -0.97947747830E+03  0.97947747830E+03  0.00000000000E+00 0. -1.
         36    2    1    2    0    0 -0.14210854715E-13 -0.28421709430E-13 -0.72426034531E+03  0.12346946113E+04  0.99995886684E+03 0.  0.
         25    2    3    3    0    0  0.24107388763E+02  0.94862001472E+02 -0.26505596496E+03  0.30744748626E+03  0.12119953270E+03 0.  0.
         35    2    3    3    0    0 -0.24107388763E+02 -0.94862001472E+02 -0.45920438035E+03  0.92724712504E+03  0.79958651967E+03 0.  0.
         22    1    5    5    0    0  0.19988167580E+03  0.26002406893E+03 -0.33843401851E+02  0.32971286992E+03  0.00000000000E+00 0. -1.
         22    1    5    5    0    0 -0.22398906457E+03 -0.35488607040E+03 -0.42536097850E+03  0.59753425512E+03  0.00000000000E+00 0. -1.
          5    1    4    4  502    0  0.60855610696E+02  0.82715160677E+01 -0.10635951572E+03  0.12290752587E+03  0.47000000000E+01 0. -1.
         -5    1    4    4    0  502 -0.36748221933E+02  0.86590485404E+02 -0.15869644924E+03  0.18453996039E+03  0.47000000000E+01 0. -1.
<mgrwt>
<rscale>  0 0.99995887E+03</rscale>
<asrwt>0</asrwt>
<pdfrwt beam="1">  1        1 0.15068884E+00 0.99995887E+03</pdfrwt>
<pdfrwt beam="2">  1       -1 0.39264174E-01 0.99995887E+03</pdfrwt>
<totfact> 0.11094210E+02</totfact>
</mgrwt>
</event>
<event>
 9    1  0.4321150E-036  0.9977668E+03  0.7818608E-02  0.8683168E-01
          2   -1    0    0  501    0  0.00000000000E+00  0.00000000000E+00  0.18040748078E+04  0.18040748078E+04  0.00000000000E+00 0.  1.
         -2   -1    0    0    0  501 -0.00000000000E+00 -0.00000000000E+00 -0.13795693020E+03  0.13795693020E+03  0.00000000000E+00 0.  1.
         36    2    1    2    0    0 -0.71054273576E-14  0.56843418861E-13  0.16661178776E+04  0.19420317380E+04  0.99776675096E+03 0.  0.
         25    2    3    3    0    0  0.42269174077E+00  0.81904961254E+02  0.52771826684E+03  0.54849948934E+03  0.12512601368E+03 0.  0.
         35    2    3    3    0    0 -0.42269174077E+00 -0.81904961254E+02  0.11383996107E+04  0.13935322486E+04  0.79954352784E+03 0.  0.
         22    1    5    5    0    0 -0.12123171649E+03  0.33836557346E+03  0.60593440210E+03  0.70451748739E+03  0.00000000000E+00 0. -1.
         22    1    5    5    0    0  0.12080902475E+03 -0.42027053471E+03  0.53246520864E+03  0.68901476125E+03  0.00000000000E+00 0. -1.
          5    1    4    4  502    0  0.52979933136E+02  0.77911254059E+02  0.38181772047E+03  0.39329873950E+03  0.47000000000E+01 0. -1.
         -5    1    4    4    0  502 -0.52557241395E+02  0.39937071949E+01  0.14590054637E+03  0.15520074984E+03  0.47000000000E+01 0. -1.
<mgrwt>
<rscale>  0 0.99776675E+03</rscale>
<asrwt>0</asrwt>
<pdfrwt beam="1">  1        2 0.27754995E+00 0.99776675E+03</pdfrwt>
<pdfrwt beam="2">  1       -2 0.21224144E-01 0.99776675E+03</pdfrwt>
<totfact> 0.19524744E+02</totfact>
</mgrwt>
</event>
<event>
 9    1  0.4321150E-036  0.1000250E+04  0.7818608E-02  0.8680800E-01
         -2   -1    0    0    0  501 -0.00000000000E+00  0.00000000000E+00  0.24346067967E+03  0.24346067967E+03  0.00000000000E+00 0.  1.
          2   -1    0    0  501    0  0.00000000000E+00 -0.00000000000E+00 -0.10273735952E+04  0.10273735952E+04  0.00000000000E+00 0.  1.
         36    2    1    2    0    0  0.00000000000E+00 -0.71054273576E-14 -0.78391291552E+03  0.12708342749E+04  0.10002501163E+04 0.  0.
         25    2    3    3    0    0 -0.12196095471E+03 -0.29410263334E+01 -0.60432122011E+02  0.18521216338E+03  0.12557221024E+03 0.  0.
         35    2    3    3    0    0  0.12196095471E+03  0.29410263334E+01 -0.72348079351E+03  0.10856221115E+04  0.80016734891E+03 0.  0.
         22    1    5    5    0    0  0.15626463192E+02 -0.36237976604E+03 -0.56942412273E+03  0.67513488484E+03  0.00000000000E+00 0. -1.
         22    1    5    5    0    0  0.10633449152E+03  0.36532079237E+03 -0.15405667079E+03  0.41048722665E+03  0.00000000000E+00 0. -1.
          5    1    4    4  502    0 -0.10604731237E+03 -0.36642057810E+02  0.20397234766E+01  0.11231617574E+03  0.47000000000E+01 0.  1.
         -5    1    4    4    0  502 -0.15913642342E+02  0.33701031477E+02 -0.62471845487E+02  0.72895987638E+02  0.47000000000E+01 0.  1.
<mgrwt>
<rscale>  0 0.10002501E+04</rscale>
<asrwt>0</asrwt>
<pdfrwt beam="1">  1        2 0.15805748E+00 0.10002501E+04</pdfrwt>
<pdfrwt beam="2">  1       -2 0.37455489E-01 0.10002501E+04</pdfrwt>
<totfact> 0.19651261E+02</totfact>
</mgrwt>
</event>
<event>
 9    1  0.4321150E-036  0.9996467E+03  0.7818608E-02  0.8681374E-01
          3   -1    0    0  501    0  0.00000000000E+00  0.00000000000E+00  0.19101439903E+03  0.19101439903E+03  0.00000000000E+00 0.  1.
         -3   -1    0    0    0  501 -0.00000000000E+00 -0.00000000000E+00 -0.13078773438E+04  0.13078773438E+04  0.00000000000E+00 0.  1.
         36    2    1    2    0    0  0.00000000000E+00  0.00000000000E+00 -0.11168629448E+04  0.14988917429E+04  0.99964674729E+03 0.  0.
         25    2    3    3    0    0  0.13509453379E+03 -0.26388852375E+02 -0.24563721287E+03  0.30805123963E+03  0.12494407271E+03 0.  0.
         35    2    3    3    0    0 -0.13509453379E+03  0.26388852375E+02 -0.87122573194E+03  0.11908405032E+04  0.80007494872E+03 0.  0.
         22    1    5    5    0    0  0.17800888773E+03  0.92848538720E+02  0.57225586291E+02  0.20876489882E+03  0.00000000000E+00 0.  1.
         22    1    5    5    0    0 -0.31310342151E+03 -0.66459686345E+02 -0.92845131823E+03  0.98207560442E+03  0.00000000000E+00 0.  1.
          5    1    4    4  502    0  0.90609413712E+02 -0.35810590857E+01 -0.45217998699E+02  0.10143789846E+03  0.47000000000E+01 0. -1.
         -5    1    4    4    0  502  0.44485120073E+02 -0.22807793290E+02 -0.20041921417E+03  0.20661334117E+03  0.47000000000E+01 0. -1.
<mgrwt>
<rscale>  0 0.99964675E+03</rscale>
<asrwt>0</asrwt>
<pdfrwt beam="1">  1        3 0.29386831E-01 0.99964675E+03</pdfrwt>
<pdfrwt beam="2">  1       -3 0.20121190E+00 0.99964675E+03</pdfrwt>
<totfact> 0.44598094E+00</totfact>
</mgrwt>
</event>
<event>
 9    1  0.4321150E-036  0.9998265E+03  0.7818608E-02  0.8681203E-01
          1   -1    0    0  501    0  0.00000000000E+00  0.00000000000E+00  0.23368766836E+04  0.23368766836E+04  0.00000000000E+00 0. -1.
         -1   -1    0    0    0  501 -0.00000000000E+00 -0.00000000000E+00 -0.10694327465E+03  0.10694327465E+03  0.00000000000E+00 0. -1.
         36    2    1    2    0    0  0.71054273576E-14 -0.28421709430E-13  0.22299334090E+04  0.24438199583E+04  0.99982647495E+03 0.  0.
         25    2    3    3    0    0  0.29431765540E+02 -0.12393300516E+03  0.27465670189E+03  0.32774938142E+03  0.12552981535E+03 0.  0.
         35    2    3    3    0    0 -0.29431765540E+02  0.12393300516E+03  0.19552767071E+04  0.21160705768E+04  0.79901318284E+03 0.  0.
         22    1    5    5    0    0 -0.39509511790E+03  0.18171866812E+03  0.95039548745E+03  0.10451666896E+04  0.00000000000E+00 0. -1.
         22    1    5    5    0    0  0.36566335236E+03 -0.57785662961E+02  0.10048812196E+04  0.10709038872E+04  0.00000000000E+00 0. -1.
          5    1    4    4  502    0 -0.28641925443E+02 -0.11451187967E+03  0.16110839005E+03  0.19977821158E+03  0.47000000000E+01 0.  1.
         -5    1    4    4    0  502  0.58073690983E+02 -0.94211254962E+01  0.11354831183E+03  0.12797116984E+03  0.47000000000E+01 0.  1.
<mgrwt>
<rscale>  0 0.99982647E+03</rscale>
<asrwt>0</asrwt>
<pdfrwt beam="1">  1        1 0.35951945E+00 0.99982647E+03</pdfrwt>
<pdfrwt beam="2">  1       -1 0.16452813E-01 0.99982647E+03</pdfrwt>
<totfact> 0.50891642E+01</totfact>
</mgrwt>
</event>
<event>
 9    1  0.4321150E-036  0.1000016E+04  0.7818608E-02  0.8681023E-01
         -2   -1    0    0    0  501 -0.00000000000E+00  0.00000000000E+00  0.63880356475E+02  0.63880356475E+02  0.00000000000E+00 0. -1.
          2   -1    0    0  501    0  0.00000000000E+00 -0.00000000000E+00 -0.39136895680E+04  0.39136895680E+04  0.00000000000E+00 0. -1.
         36    2    1    2    0    0  0.28421709430E-13 -0.14210854715E-13 -0.38498092115E+04  0.39775699245E+04  0.10000157693E+04 0.  0.
         25    2    3    3    0    0  0.12218927922E+03  0.40835989106E+02 -0.94361792414E+03  0.96053516718E+03  0.12496088453E+03 0.  0.
         35    2    3    3    0    0 -0.12218927922E+03 -0.40835989106E+02 -0.29061912874E+04  0.30170347573E+04  0.79997070565E+03 0.  0.
         22    1    5    5    0    0  0.21587569114E+01  0.17920943228E+03 -0.11179571081E+03  0.21123200943E+03  0.00000000000E+00 0. -1.
         22    1    5    5    0    0 -0.12434803614E+03 -0.22004542139E+03 -0.27943955766E+04  0.28058027479E+04  0.00000000000E+00 0. -1.
          5    1    4    4  502    0  0.12061373349E+03  0.62299951014E+02 -0.55825142254E+03  0.57453955248E+03  0.47000000000E+01 0.  1.
         -5    1    4    4    0  502  0.15755457325E+01 -0.21463961908E+02 -0.38536650160E+03  0.38599561469E+03  0.47000000000E+01 0.  1.
<mgrwt>
<rscale>  0 0.10000158E+04</rscale>
<asrwt>0</asrwt>
<pdfrwt beam="1">  1        2 0.60210619E+00 0.10000158E+04</pdfrwt>
<pdfrwt beam="2">  1       -2 0.98277455E-02 0.10000158E+04</pdfrwt>
<totfact> 0.27695359E+01</totfact>
</mgrwt>
</event>
<event>
 9    1  0.4321150E-036  0.1000585E+04  0.7818608E-02  0.8680481E-01
          2   -1    0    0  501    0  0.00000000000E+00  0.00000000000E+00  0.67571430593E+03  0.67571430593E+03  0.00000000000E+00 0.  1.
         -2   -1    0    0    0  501 -0.00000000000E+00 -0.00000000000E+00 -0.37041177403E+03  0.37041177403E+03  0.00000000000E+00 0.  1.
         36    2    1    2    0    0  0.00000000000E+00  0.28421709430E-13  0.30530253190E+03  0.10461260800E+04  0.10005848985E+04 0.  0.
         25    2    3    3    0    0 -0.11944134025E+03  0.75078457129E+02  0.75044916270E+02  0.20249985210E+03  0.12438425206E+03 0.  0.
         35    2    3    3    0    0  0.11944134025E+03 -0.75078457129E+02  0.23025761563E+03  0.84362622786E+03  0.79923940987E+03 0.  0.
         22    1    5    5    0    0  0.33938476451E+03  0.23587247849E+03  0.20648387258E+03  0.46201020998E+03  0.00000000000E+00 0. -1.
         22    1    5    5    0    0 -0.21994342426E+03 -0.31095093562E+03  0.23773743048E+02  0.38161601787E+03  0.00000000000E+00 0. -1.
          5    1    4    4  502    0 -0.74671794928E+02 -0.18876738862E+02  0.57524839072E+01  0.77378222382E+02  0.47000000000E+01 0. -1.
         -5    1    4    4    0  502 -0.44769545317E+02  0.93955195991E+02  0.69292432363E+02  0.12512162972E+03  0.47000000000E+01 0. -1.
<mgrwt>
<rscale>  0 0.10005849E+04</rscale>
<asrwt>0</asrwt>
<pdfrwt beam="1">  1        2 0.10395605E+00 0.10005849E+04</pdfrwt>
<pdfrwt beam="2">  1       -2 0.56986427E-01 0.10005849E+04</pdfrwt>
<totfact> 0.14965502E+02</totfact>
</mgrwt>
</event>
<event>
 9    1  0.4321150E-036  0.1000708E+04  0.7818608E-02  0.8680364E-01
          2   -1    0    0  501    0  0.00000000000E+00  0.00000000000E+00  0.69757261916E+03  0.69757261916E+03  0.00000000000E+00 0. -1.
         -2   -1    0    0    0  501 -0.00000000000E+00 -0.00000000000E+00 -0.35889355902E+03  0.35889355902E+03  0.00000000000E+00 0. -1.
         36    2    1    2    0    0 -0.71054273576E-14  0.00000000000E+00  0.33867906015E+03  0.10564661782E+04  0.10007083890E+04 0.  0.
         25    2    3    3    0    0  0.36450172293E+02  0.59950387180E+02  0.19203394421E+03  0.24015783114E+03  0.12600033391E+03 0.  0.
         35    2    3    3    0    0 -0.36450172293E+02 -0.59950387180E+02  0.14664511594E+03  0.81630834704E+03  0.79995741352E+03 0.  0.
         22    1    5    5    0    0 -0.86228767350E+02  0.36453674027E+03  0.47825584254E+02  0.37763702392E+03  0.00000000000E+00 0.  1.
         22    1    5    5    0    0  0.49778595057E+02 -0.42448712745E+03  0.98819531686E+02  0.43867132313E+03  0.00000000000E+00 0.  1.
          5    1    4    4  502    0 -0.29824849168E+02 -0.18928799854E+02  0.81670457710E+02  0.89106535980E+02  0.47000000000E+01 0.  1.
         -5    1    4    4    0  502  0.66275021461E+02  0.78879187033E+02  0.11036348650E+03  0.15105129516E+03  0.47000000000E+01 0.  1.
<mgrwt>
<rscale>  0 0.10007084E+04</rscale>
<asrwt>0</asrwt>
<pdfrwt beam="1">  1        2 0.10731886E+00 0.10007084E+04</pdfrwt>
<pdfrwt beam="2">  1       -2 0.55214394E-01 0.10007084E+04</pdfrwt>
<totfact> 0.15359878E+02</totfact>
</mgrwt>
</event>
<event>
 9    1  0.4321150E-036  0.9999275E+03  0.7818608E-02  0.8681107E-01
          2   -1    0    0  501    0  0.00000000000E+00  0.00000000000E+00  0.20880061975E+04  0.20880061975E+04  0.00000000000E+00 0.  1.
         -2   -1    0    0    0  501 -0.00000000000E+00 -0.00000000000E+00 -0.11971408635E+03  0.11971408635E+03  0.00000000000E+00 0.  1.
         36    2    1    2    0    0  0.00000000000E+00  0.71054273576E-14  0.19682921111E+04  0.22077202838E+04  0.99992750582E+03 0.  0.
         25    2    3    3    0    0  0.13083843058E+03 -0.30240441294E+02  0.27811415584E+03  0.33249564254E+03  0.12317747126E+03 0.  0.
         35    2    3    3    0    0 -0.13083843058E+03  0.30240441294E+02  0.16901779553E+04  0.18752246413E+04  0.80108224018E+03 0.  0.
         22    1    5    5    0    0 -0.19333042092E+03  0.49917013324E+02  0.16594223821E+02  0.20035899814E+03  0.00000000000E+00 0.  1.
         22    1    5    5    0    0  0.62491990339E+02 -0.19676572031E+02  0.16735837314E+04  0.16748656431E+04  0.00000000000E+00 0.  1.
          5    1    4    4  502    0  0.74390999453E+02  0.33087341097E+02  0.20419184476E+03  0.21987540201E+03  0.47000000000E+01 0.  1.
         -5    1    4    4    0  502  0.56447431129E+02 -0.63327782390E+02  0.73922311075E+02  0.11262024054E+03  0.47000000000E+01 0.  1.
<mgrwt>
<rscale>  0 0.99992751E+03</rscale>
<asrwt>0</asrwt>
<pdfrwt beam="1">  1        2 0.32123170E+00 0.99992751E+03</pdfrwt>
<pdfrwt beam="2">  1       -2 0.18417553E-01 0.99992751E+03</pdfrwt>
<totfact> 0.17206539E+02</totfact>
</mgrwt>
</event>
<event>
 9    1  0.4321150E-036  0.1000686E+04  0.7818608E-02  0.8680385E-01
          1   -1    0    0  501    0  0.00000000000E+00  0.00000000000E+00  0.38730673340E+03  0.38730673340E+03  0.00000000000E+00 0.  1.
         -1   -1    0    0    0  501 -0.00000000000E+00 -0.00000000000E+00 -0.64636882389E+03  0.64636882389E+03  0.00000000000E+00 0.  1.
         36    2    1    2    0    0  0.28421709430E-13  0.00000000000E+00 -0.25906209049E+03  0.10336755573E+04  0.10006857604E+04 0.  0.
         25    2    3    3    0    0 -0.84509377285E+02 -0.80842530063E+02  0.34510287006E+02  0.17414125713E+03  0.12432565306E+03 0.  0.
         35    2    3    3    0    0  0.84509377285E+02  0.80842530063E+02 -0.29357237749E+03  0.85953430016E+03  0.79933542572E+03 0.  0.
         22    1    5    5    0    0 -0.33263635595E+03  0.52401532100E+02 -0.28528291261E+03  0.44133797264E+03  0.00000000000E+00 0.  1.
         22    1    5    5    0    0  0.41714573324E+03  0.28440997964E+02 -0.82894648874E+01  0.41819632752E+03  0.00000000000E+00 0.  1.
          5    1    4    4  502    0 -0.40279893283E+02  0.28758790340E+02  0.24531409535E+02  0.55438415187E+02  0.47000000000E+01 0. -1.
         -5    1    4    4    0  502 -0.44229484003E+02 -0.10960132040E+03  0.99788774707E+01  0.11870284194E+03  0.47000000000E+01 0. -1.
<mgrwt>
<rscale>  0 0.10006858E+04</rscale>
<asrwt>0</asrwt>
<pdfrwt beam="1">  1        1 0.59585652E-01 0.10006858E+04</pdfrwt>
<pdfrwt beam="2">  1       -1 0.99441357E-01 0.10006858E+04</pdfrwt>
<totfact> 0.72413208E+01</totfact>
</mgrwt>
</event>
<event>
 9    1  0.4321150E-036  0.9995425E+03  0.7818608E-02  0.8681474E-01
          2   -1    0    0  501    0  0.00000000000E+00  0.00000000000E+00  0.11511621579E+04  0.11511621579E+04  0.00000000000E+00 0. -1.
         -2   -1    0    0    0  501 -0.00000000000E+00 -0.00000000000E+00 -0.21697316146E+03  0.21697316146E+03  0.00000000000E+00 0. -1.
         36    2    1    2    0    0  0.00000000000E+00  0.21316282073E-13  0.93418899644E+03  0.13681353194E+04  0.99954248085E+03 0.  0.
         25    2    3    3    0    0 -0.12461762589E+03 -0.61504369882E+02  0.18404753999E+03  0.26252628568E+03  0.12543609329E+03 0.  0.
         35    2    3    3    0    0  0.12461762589E+03  0.61504369882E+02  0.75014145645E+03  0.11056090337E+04  0.80021671470E+03 0.  0.
         22    1    5    5    0    0  0.70436304469E+02  0.41860488534E+03  0.54302529027E+03  0.68925161508E+03  0.00000000000E+00 0. -1.
         22    1    5    5    0    0  0.54181321423E+02 -0.35710051546E+03  0.20711616618E+03  0.41635741860E+03  0.00000000000E+00 0. -1.
          5    1    4    4  502    0 -0.14151218011E+03 -0.42323519783E+02  0.18468142479E+03  0.23652969393E+03  0.47000000000E+01 0. -1.
         -5    1    4    4    0  502  0.16894554223E+02 -0.19180850099E+02 -0.63388479898E+00  0.25996591755E+02  0.47000000000E+01 0. -1.
<mgrwt>
<rscale>  0 0.99954248E+03</rscale>
<asrwt>0</asrwt>
<pdfrwt beam="1">  1        2 0.17710187E+00 0.99954248E+03</pdfrwt>
<pdfrwt beam="2">  1       -2 0.33380487E-01 0.99954248E+03</pdfrwt>
<totfact> 0.20490507E+02</totfact>
</mgrwt>
</event>
<event>
 9    1  0.4321150E-036  0.9995770E+03  0.7818608E-02  0.8681441E-01
          1   -1    0    0  501    0  0.00000000000E+00  0.00000000000E+00  0.46813846977E+03  0.46813846977E+03  0.00000000000E+00 0.  1.
         -1   -1    0    0    0  501 -0.00000000000E+00 -0.00000000000E+00 -0.53357830538E+03  0.53357830538E+03  0.00000000000E+00 0.  1.
         36    2    1    2    0    0 -0.14210854715E-13 -0.14210854715E-13 -0.65439835604E+02  0.10017167751E+04  0.99957697329E+03 0.  0.
         25    2    3    3    0    0  0.35410687207E+02 -0.10706148525E+02 -0.14675653867E+03  0.19616394820E+03  0.12479693323E+03 0.  0.
         35    2    3    3    0    0 -0.35410687207E+02  0.10706148525E+02  0.81316703068E+02  0.80555282695E+03  0.80058379476E+03 0.  0.
         22    1    5    5    0    0  0.40664917973E+02  0.26118433744E+03  0.34458270126E+03  0.43429037715E+03  0.00000000000E+00 0. -1.
         22    1    5    5    0    0 -0.76075605180E+02 -0.25047818891E+03 -0.26326599820E+03  0.37126244980E+03  0.00000000000E+00 0. -1.
          5    1    4    4  502    0  0.81607546439E+02  0.16348312579E+01 -0.85307429920E+02  0.11816053448E+03  0.47000000000E+01 0.  1.
         -5    1    4    4    0  502 -0.46196859232E+02 -0.12340979783E+02 -0.61449108752E+02  0.78003413716E+02  0.47000000000E+01 0.  1.
<mgrwt>
<rscale>  0 0.99957697E+03</rscale>
<asrwt>0</asrwt>
<pdfrwt beam="1">  1        1 0.72021303E-01 0.99957697E+03</pdfrwt>
<pdfrwt beam="2">  1       -1 0.82088970E-01 0.99957697E+03</pdfrwt>
<totfact> 0.84837516E+01</totfact>
</mgrwt>
</event>
<event>
 9    1  0.4321150E-036  0.1001355E+04  0.7818608E-02  0.8679749E-01
         -1   -1    0    0    0  501 -0.00000000000E+00  0.00000000000E+00  0.64049075961E+03  0.64049075961E+03  0.00000000000E+00 0. -1.
          1   -1    0    0  501    0  0.00000000000E+00 -0.00000000000E+00 -0.39138420791E+03  0.39138420791E+03  0.00000000000E+00 0. -1.
         36    2    1    2    0    0  0.00000000000E+00  0.00000000000E+00  0.24910655170E+03  0.10318749675E+04  0.10013550192E+04 0.  0.
         25    2    3    3    0    0 -0.38943733809E+01 -0.91097135410E+02  0.15921206615E+03  0.22161605188E+03  0.12430341194E+03 0.  0.
         35    2    3    3    0    0  0.38943733809E+01  0.91097135410E+02  0.89894485550E+02  0.81025891564E+03  0.80007789472E+03 0.  0.
         22    1    5    5    0    0  0.15956588698E+02  0.14622481686E+03 -0.34325761872E+03  0.37344625129E+03  0.00000000000E+00 0. -1.
         22    1    5    5    0    0 -0.12062215317E+02 -0.55127681451E+02  0.43315210427E+03  0.43681266435E+03  0.00000000000E+00 0. -1.
          5    1    4    4  502    0 -0.29864426539E+02 -0.30357934775E+02 -0.63392293432E+01  0.43310091260E+02  0.47000000000E+01 0.  1.
         -5    1    4    4    0  502  0.25970053158E+02 -0.60739200635E+02  0.16555129549E+03  0.17830596062E+03  0.47000000000E+01 0.  1.
<mgrwt>
<rscale>  0 0.10013550E+04</rscale>
<asrwt>0</asrwt>
<pdfrwt beam="1">  1        1 0.60212955E-01 0.10013550E+04</pdfrwt>
<pdfrwt beam="2">  1       -1 0.98537040E-01 0.10013550E+04</pdfrwt>
<totfact> 0.72874790E+01</totfact>
</mgrwt>
</event>
<event>
 9    1  0.4321150E-036  0.9989936E+03  0.7818608E-02  0.8681997E-01
         -2   -1    0    0    0  501 -0.00000000000E+00  0.00000000000E+00  0.82301002544E+02  0.82301002544E+02  0.00000000000E+00 0.  1.
          2   -1    0    0  501    0  0.00000000000E+00 -0.00000000000E+00 -0.30315188141E+04  0.30315188141E+04  0.00000000000E+00 0.  1.
         36    2    1    2    0    0  0.00000000000E+00  0.00000000000E+00 -0.29492178116E+04  0.31138198166E+04  0.99899356881E+03 0.  0.
         25    2    3    3    0    0  0.57998969617E+02 -0.10595288113E+03 -0.32180197306E+03  0.36487920501E+03  0.12243541518E+03 0.  0.
         35    2    3    3    0    0 -0.57998969617E+02  0.10595288113E+03 -0.26274158385E+04  0.27489406116E+04  0.79923125840E+03 0.  0.
         22    1    5    5    0    0 -0.13787575708E+03 -0.12002191589E+02 -0.22597656572E+02  0.14022992218E+03  0.00000000000E+00 0.  1.
         22    1    5    5    0    0  0.79876787463E+02  0.11795507271E+03 -0.26048181819E+04  0.26087106894E+04  0.00000000000E+00 0.  1.
          5    1    4    4  502    0  0.92840710308E+01 -0.52860041120E+02 -0.27170354579E+03  0.27699329364E+03  0.47000000000E+01 0. -1.
         -5    1    4    4    0  502  0.48714898586E+02 -0.53092840005E+02 -0.50098427267E+02  0.87885911378E+02  0.47000000000E+01 0. -1.
<mgrwt>
<rscale>  0 0.99899357E+03</rscale>
<asrwt>0</asrwt>
<pdfrwt beam="1">  1        2 0.46638754E+00 0.99899357E+03</pdfrwt>
<pdfrwt beam="2">  1       -2 0.12661692E-01 0.99899357E+03</pdfrwt>
<totfact> 0.84517165E+01</totfact>
</mgrwt>
</event>
<event>
 9    1  0.4321150E-036  0.9997857E+03  0.7818608E-02  0.8681242E-01
          2   -1    0    0  501    0  0.00000000000E+00  0.00000000000E+00  0.38505980613E+03  0.38505980613E+03  0.00000000000E+00 0.  1.
         -2   -1    0    0    0  501 -0.00000000000E+00 -0.00000000000E+00 -0.64897151892E+03  0.64897151892E+03  0.00000000000E+00 0.  1.
         36    2    1    2    0    0  0.00000000000E+00  0.00000000000E+00 -0.26391171279E+03  0.10340313250E+04  0.99978567155E+03 0.  0.
         25    2    3    3    0    0  0.42113290016E+02  0.77321844426E+01  0.88838804946E+02  0.15872149432E+03  0.12436584588E+03 0.  0.
         35    2    3    3    0    0 -0.42113290016E+02 -0.77321844426E+01 -0.35275051773E+03  0.87530983073E+03  0.79993815770E+03 0.  0.
         22    1    5    5    0    0 -0.13895616684E+03 -0.24247199101E+03  0.14624500496E+03  0.31541890274E+03  0.00000000000E+00 0. -1.
         22    1    5    5    0    0  0.96842876820E+02  0.23473980657E+03 -0.49899552270E+03  0.55989092799E+03  0.00000000000E+00 0. -1.
          5    1    4    4  502    0  0.27502739579E+02  0.58084498152E+02  0.11945470537E+02  0.65536202791E+02  0.47000000000E+01 0. -1.
         -5    1    4    4    0  502  0.14610550438E+02 -0.50352313709E+02  0.76893334409E+02  0.93185291525E+02  0.47000000000E+01 0. -1.
<mgrwt>
<rscale>  0 0.99978567E+03</rscale>
<asrwt>0</asrwt>
<pdfrwt beam="1">  1        2 0.59239970E-01 0.99978567E+03</pdfrwt>
<pdfrwt beam="2">  1       -2 0.99841772E-01 0.99978567E+03</pdfrwt>
<totfact> 0.81768236E+01</totfact>
</mgrwt>
</event>
<event>
 9    1  0.4321150E-036  0.9994112E+03  0.7818608E-02  0.8681599E-01
         -2   -1    0    0    0  501 -0.00000000000E+00  0.00000000000E+00  0.77858296528E+02  0.77858296528E+02  0.00000000000E+00 0. -1.
          2   -1    0    0  501    0  0.00000000000E+00 -0.00000000000E+00 -0.32071817367E+04  0.32071817367E+04  0.00000000000E+00 0. -1.
         36    2    1    2    0    0  0.71054273576E-14  0.00000000000E+00 -0.31293234402E+04  0.32850400332E+04  0.99941124003E+03 0.  0.
         25    2    3    3    0    0  0.21801915338E+01  0.31629362250E+02 -0.10342192431E+04  0.10422098007E+04  0.12484652946E+03 0.  0.
         35    2    3    3    0    0 -0.21801915338E+01 -0.31629362250E+02 -0.20951041970E+04  0.22428302326E+04  0.79988792085E+03 0.  0.
         22    1    5    5    0    0  0.24189939676E+03  0.25538088558E+03 -0.55321510463E+03  0.65557735383E+03  0.00000000000E+00 0.  1.
         22    1    5    5    0    0 -0.24407958829E+03 -0.28701024783E+03 -0.15418890924E+04  0.15872528788E+04  0.00000000000E+00 0.  1.
          5    1    4    4  502    0  0.53360856862E+02 -0.36639010771E+01 -0.26010969825E+03  0.26559358114E+03  0.47000000000E+01 0. -1.
         -5    1    4    4    0  502 -0.51180665329E+02  0.35293263328E+02 -0.77410954488E+03  0.77661621952E+03  0.47000000000E+01 0. -1.
<mgrwt>
<rscale>  0 0.99941124E+03</rscale>
<asrwt>0</asrwt>
<pdfrwt beam="1">  1        2 0.49341245E+00 0.99941124E+03</pdfrwt>
<pdfrwt beam="2">  1       -2 0.11978203E-01 0.99941124E+03</pdfrwt>
<totfact> 0.70171096E+01</totfact>
</mgrwt>
</event>
<event>
 9    1  0.4321150E-036  0.1000131E+04  0.7818608E-02  0.8680914E-01
          2   -1    0    0  501    0  0.00000000000E+00  0.00000000000E+00  0.13615360042E+04  0.13615360042E+04  0.00000000000E+00 0. -1.
         -2   -1    0    0    0  501 -0.00000000000E+00 -0.00000000000E+00 -0.18366412315E+03  0.18366412315E+03  0.00000000000E+00 0. -1.
         36    2    1    2    0    0 -0.71054273576E-14  0.28421709430E-13  0.11778718810E+04  0.15452001274E+04  0.10001306242E+04 0.  0.
         25    2    3    3    0    0  0.16965097137E+01  0.13983810500E+03  0.21986741551E+03  0.28896829160E+03  0.12491364775E+03 0.  0.
         35    2    3    3    0    0 -0.16965097137E+01 -0.13983810500E+03  0.95800446554E+03  0.12562318357E+04  0.80049253301E+03 0.  0.
         22    1    5    5    0    0  0.54549023998E+02 -0.26101320226E+03  0.10568989713E+04  0.10900178546E+04  0.00000000000E+00 0.  1.
         22    1    5    5    0    0 -0.56245533711E+02  0.12117509726E+03 -0.98894505775E+02  0.16621398115E+03  0.00000000000E+00 0.  1.
          5    1    4    4  502    0 -0.46995199151E+02  0.88366431460E+02  0.67342536148E+02  0.12072399151E+03  0.47000000000E+01 0. -1.
         -5    1    4    4    0  502  0.48691708865E+02  0.51471673543E+02  0.15252487936E+03  0.16824430009E+03  0.47000000000E+01 0. -1.
<mgrwt>
<rscale>  0 0.10001306E+04</rscale>
<asrwt>0</asrwt>
<pdfrwt beam="1">  1        2 0.20946707E+00 0.10001306E+04</pdfrwt>
<pdfrwt beam="2">  1       -2 0.28256020E-01 0.10001306E+04</pdfrwt>
<totfact> 0.20934477E+02</totfact>
</mgrwt>
</event>
<event>
 9    1  0.4321150E-036  0.1004050E+04  0.7818608E-02  0.8677191E-01
          2   -1    0    0  501    0  0.00000000000E+00  0.00000000000E+00  0.12477998526E+04  0.12477998526E+04  0.00000000000E+00 0.  1.
         -2   -1    0    0    0  501 -0.00000000000E+00 -0.00000000000E+00 -0.20197865289E+03  0.20197865289E+03  0.00000000000E+00 0.  1.
         36    2    1    2    0    0 -0.14210854715E-13  0.14210854715E-13  0.10458211997E+04  0.14497785055E+04  0.10040496667E+04 0.  0.
         25    2    3    3    0    0  0.12597236284E+03 -0.16301956779E+02  0.10847433676E+03  0.21079269797E+03  0.12857717445E+03 0.  0.
         35    2    3    3    0    0 -0.12597236284E+03  0.16301956779E+02  0.93734686299E+03  0.12389858076E+04  0.80020741047E+03 0.  0.
         22    1    5    5    0    0 -0.72327991176E+02 -0.39035725819E+03  0.40744712098E+03  0.56887897107E+03  0.00000000000E+00 0. -1.
         22    1    5    5    0    0 -0.53644371667E+02  0.40665921497E+03  0.52989974200E+03  0.67010683649E+03  0.00000000000E+00 0. -1.
          5    1    4    4  502    0  0.12220233888E+03  0.18687703191E+02  0.34017674392E+02  0.12830406872E+03  0.47000000000E+01 0. -1.
         -5    1    4    4    0  502  0.37700239610E+01 -0.34989659970E+02  0.74456662368E+02  0.82488629256E+02  0.47000000000E+01 0. -1.
<mgrwt>
<rscale>  0 0.10040497E+04</rscale>
<asrwt>0</asrwt>
<pdfrwt beam="1">  1        2 0.19196920E+00 0.10040497E+04</pdfrwt>
<pdfrwt beam="2">  1       -2 0.31073640E-01 0.10040497E+04</pdfrwt>
<totfact> 0.20496302E+02</totfact>
</mgrwt>
</event>
<event>
 9    1  0.4321150E-036  0.1001459E+04  0.7818608E-02  0.8679650E-01
         -2   -1    0    0    0  501 -0.00000000000E+00  0.00000000000E+00  0.21236699252E+03  0.21236699252E+03  0.00000000000E+00 0. -1.
          2   -1    0    0  501    0  0.00000000000E+00 -0.00000000000E+00 -0.11806445707E+04  0.11806445707E+04  0.00000000000E+00 0. -1.
         36    2    1    2    0    0  0.00000000000E+00 -0.42632564146E-13 -0.96827757818E+03  0.13930115632E+04  0.10014588094E+04 0.  0.
         25    2    3    3    0    0 -0.90017397478E+02 -0.79027184770E+02 -0.73191019302E+02  0.19102851822E+03  0.12956288699E+03 0.  0.
         35    2    3    3    0    0  0.90017397478E+02  0.79027184770E+02 -0.89508655887E+03  0.12019830450E+04  0.79324325701E+03 0.  0.
         22    1    5    5    0    0 -0.11995388763E+03  0.37999370765E+03 -0.64407814748E+03  0.75737758950E+03  0.00000000000E+00 0. -1.
         22    1    5    5    0    0  0.20997128511E+03 -0.30096652288E+03 -0.25100841139E+03  0.44460545549E+03  0.00000000000E+00 0. -1.
          5    1    4    4  502    0 -0.84135158743E+02 -0.13068438548E+02 -0.88501508047E+02  0.12289880369E+03  0.47000000000E+01 0. -1.
         -5    1    4    4    0  502 -0.58822387351E+01 -0.65958746222E+02  0.15310488745E+02  0.68129714526E+02  0.47000000000E+01 0. -1.
<mgrwt>
<rscale>  0 0.10014588E+04</rscale>
<asrwt>0</asrwt>
<pdfrwt beam="1">  1        2 0.18163763E+00 0.10014588E+04</pdfrwt>
<pdfrwt beam="2">  1       -2 0.32671844E-01 0.10014588E+04</pdfrwt>
<totfact> 0.20474112E+02</totfact>
</mgrwt>
</event>
<event>
 9    1  0.4321150E-036  0.9995526E+03  0.7818608E-02  0.8681464E-01
          3   -1    0    0  501    0  0.00000000000E+00  0.00000000000E+00  0.25162698289E+03  0.25162698289E+03  0.00000000000E+00 0. -1.
         -3   -1    0    0    0  501 -0.00000000000E+00 -0.00000000000E+00 -0.99264525912E+03  0.99264525912E+03  0.00000000000E+00 0. -1.
         36    2    1    2    0    0 -0.35527136788E-14 -0.21316282073E-13 -0.74101827624E+03  0.12442722420E+04  0.99955256316E+03 0.  0.
         25    2    3    3    0    0 -0.16117434445E+02 -0.22491710904E+02  0.31278006676E+02  0.13165823785E+03  0.12485963775E+03 0.  0.
         35    2    3    3    0    0  0.16117434445E+02  0.22491710904E+02 -0.77229628291E+03  0.11126140042E+04  0.80043908257E+03 0.  0.
         22    1    5    5    0    0 -0.12218508183E+03  0.21777107502E+03 -0.82975843103E+03  0.86651744888E+03  0.00000000000E+00 0. -1.
         22    1    5    5    0    0  0.13830251627E+03 -0.19527936411E+03  0.57462148121E+02  0.24609655528E+03  0.00000000000E+00 0. -1.
          5    1    4    4  502    0  0.23132957000E+02  0.25749748646E+02 -0.28638931410E+02  0.45171469394E+02  0.47000000000E+01 0.  1.
         -5    1    4    4    0  502 -0.39250391445E+02 -0.48241459550E+02  0.59916938086E+02  0.86486768455E+02  0.47000000000E+01 0.  1.
<mgrwt>
<rscale>  0 0.99955256E+03</rscale>
<asrwt>0</asrwt>
<pdfrwt beam="1">  1        3 0.38711843E-01 0.99955256E+03</pdfrwt>
<pdfrwt beam="2">  1       -3 0.15271466E+00 0.99955256E+03</pdfrwt>
<totfact> 0.64952097E+00</totfact>
</mgrwt>
</event>
<event>
 9    1  0.4321150E-036  0.1000732E+04  0.7818608E-02  0.8680342E-01
          2   -1    0    0  501    0  0.00000000000E+00  0.00000000000E+00  0.16945025748E+04  0.16945025748E+04  0.00000000000E+00 0.  1.
         -2   -1    0    0    0  501 -0.00000000000E+00 -0.00000000000E+00 -0.14775188756E+03  0.14775188756E+03  0.00000000000E+00 0.  1.
         36    2    1    2    0    0  0.00000000000E+00 -0.14210854715E-13  0.15467506872E+04  0.18422544623E+04  0.10007316402E+04 0.  0.
         25    2    3    3    0    0 -0.11547879244E+03  0.43655151087E+02  0.17044104972E+03  0.24462389668E+03  0.12469793774E+03 0.  0.
         35    2    3    3    0    0  0.11547879244E+03 -0.43655151087E+02  0.13763096375E+04  0.15976305657E+04  0.80184417586E+03 0.  0.
         22    1    5    5    0    0  0.33450720414E+03 -0.13700139011E+03  0.23361564853E+03  0.43039600574E+03  0.00000000000E+00 0.  1.
         22    1    5    5    0    0 -0.21902841170E+03  0.93346239019E+02  0.11426939890E+04  0.11672345599E+04  0.00000000000E+00 0.  1.
          5    1    4    4  502    0 -0.12160267771E+03  0.66227686461E+02  0.17182904534E+03  0.22072749829E+03  0.47000000000E+01 0.  1.
         -5    1    4    4    0  502  0.61238852699E+01 -0.22572535374E+02 -0.13879956195E+01  0.23896398387E+02  0.47000000000E+01 0.  1.
<mgrwt>
<rscale>  0 0.10007316E+04</rscale>
<asrwt>0</asrwt>
<pdfrwt beam="1">  1        2 0.26069269E+00 0.10007316E+04</pdfrwt>
<pdfrwt beam="2">  1       -2 0.22731061E-01 0.10007316E+04</pdfrwt>
<totfact> 0.19965323E+02</totfact>
</mgrwt>
</event>
<event>
 9    1  0.4321150E-036  0.1000224E+04  0.7818608E-02  0.8680825E-01
          2   -1    0    0  501    0  0.00000000000E+00  0.00000000000E+00  0.83257691487E+03  0.83257691487E+03  0.00000000000E+00 0.  1.
         -2   -1    0    0    0  501 -0.00000000000E+00 -0.00000000000E+00 -0.30040718068E+03  0.30040718068E+03  0.00000000000E+00 0.  1.
         36    2    1    2    0    0  0.00000000000E+00 -0.14210854715E-13  0.53216973419E+03  0.11329840956E+04  0.10002241423E+04 0.  0.
         25    2    3    3    0    0 -0.68437857859E+02  0.10387936139E+03  0.17099133040E+03  0.24679779459E+03  0.12726529076E+03 0.  0.
         35    2    3    3    0    0  0.68437857859E+02 -0.10387936139E+03  0.36117840379E+03  0.88618630096E+03  0.79962594914E+03 0.  0.
         22    1    5    5    0    0 -0.14049626783E+03  0.28109017158E+03  0.31632392776E+03  0.44588307111E+03  0.00000000000E+00 0. -1.
         22    1    5    5    0    0  0.20893412569E+03 -0.38496953297E+03  0.44854476030E+02  0.44030322984E+03  0.00000000000E+00 0. -1.
          5    1    4    4  502    0  0.25420259238E+00 -0.85693398763E+00  0.10506945992E+03  0.10517832649E+03  0.47000000000E+01 0. -1.
         -5    1    4    4    0  502 -0.68692060452E+02  0.10473629538E+03  0.65921870477E+02  0.14161946810E+03  0.47000000000E+01 0. -1.
<mgrwt>
<rscale>  0 0.10002241E+04</rscale>
<asrwt>0</asrwt>
<pdfrwt beam="1">  1        2 0.12808876E+00 0.10002241E+04</pdfrwt>
<pdfrwt beam="2">  1       -2 0.46216490E-01 0.10002241E+04</pdfrwt>
<totfact> 0.17538029E+02</totfact>
</mgrwt>
</event>
<event>
 9    1  0.4321150E-036  0.9994307E+03  0.7818608E-02  0.8681580E-01
         -2   -1    0    0    0  501 -0.00000000000E+00  0.00000000000E+00  0.32185680366E+03  0.32185680366E+03  0.00000000000E+00 0. -1.
          2   -1    0    0  501    0  0.00000000000E+00 -0.00000000000E+00 -0.77585886145E+03  0.77585886145E+03  0.00000000000E+00 0. -1.
         36    2    1    2    0    0  0.21316282073E-13 -0.14210854715E-13 -0.45400205779E+03  0.10977156651E+04  0.99943074444E+03 0.  0.
         25    2    3    3    0    0  0.19956561265E+02 -0.98088754001E+02  0.20283325875E+02  0.16172240008E+03  0.12539160012E+03 0.  0.
         35    2    3    3    0    0 -0.19956561265E+02  0.98088754001E+02 -0.47428538367E+03  0.93599326502E+03  0.80069788248E+03 0.  0.
         22    1    5    5    0    0  0.30055809359E+03  0.29854225992E+03 -0.30373873590E+03  0.52126755919E+03  0.00000000000E+00 0. -1.
         22    1    5    5    0    0 -0.32051465485E+03 -0.20045350592E+03 -0.17054664777E+03  0.41472570583E+03  0.00000000000E+00 0. -1.
          5    1    4    4  502    0  0.24835854988E+01 -0.10102189961E+03  0.60255848817E+02  0.11774739791E+03  0.47000000000E+01 0. -1.
         -5    1    4    4    0  502  0.17472975767E+02  0.29331456123E+01 -0.39972522942E+02  0.43975002168E+02  0.47000000000E+01 0. -1.
<mgrwt>
<rscale>  0 0.99943074E+03</rscale>
<asrwt>0</asrwt>
<pdfrwt beam="1">  1        2 0.11936290E+00 0.99943074E+03</pdfrwt>
<pdfrwt beam="2">  1       -2 0.49516432E-01 0.99943074E+03</pdfrwt>
<totfact> 0.16759954E+02</totfact>
</mgrwt>
</event>
<event>
 9    1  0.4321150E-036  0.1000824E+04  0.7818608E-02  0.8680254E-01
          2   -1    0    0  501    0  0.00000000000E+00  0.00000000000E+00  0.88303892999E+03  0.88303892999E+03  0.00000000000E+00 0.  1.
         -2   -1    0    0    0  501 -0.00000000000E+00 -0.00000000000E+00 -0.28357997828E+03  0.28357997828E+03  0.00000000000E+00 0.  1.
         36    2    1    2    0    0 -0.14210854715E-13  0.00000000000E+00  0.59945895171E+03  0.11666189083E+04  0.10008239817E+04 0.  0.
         25    2    3    3    0    0  0.25369571589E+02  0.11956424697E+03  0.10851287484E+02  0.17350066116E+03  0.12266011849E+03 0.  0.
         35    2    3    3    0    0 -0.25369571589E+02 -0.11956424697E+03  0.58860766423E+03  0.99311824712E+03  0.79049708795E+03 0.  0.
         22    1    5    5    0    0  0.23837153673E+03  0.18823563610E+03  0.48911108163E+03  0.57574585921E+03  0.00000000000E+00 0.  1.
         22    1    5    5    0    0 -0.26374110832E+03 -0.30779988307E+03  0.99496582595E+02  0.41737238790E+03  0.00000000000E+00 0.  1.
          5    1    4    4  502    0  0.82140126465E+01  0.98123335741E+02 -0.47061045153E+02  0.10923594185E+03  0.47000000000E+01 0. -1.
         -5    1    4    4    0  502  0.17155558942E+02  0.21440911229E+02  0.57912332636E+02  0.64264719313E+02  0.47000000000E+01 0. -1.
<mgrwt>
<rscale>  0 0.10008240E+04</rscale>
<asrwt>0</asrwt>
<pdfrwt beam="1">  1        2 0.13585214E+00 0.10008240E+04</pdfrwt>
<pdfrwt beam="2">  1       -2 0.43627689E-01 0.10008240E+04</pdfrwt>
<totfact> 0.18151832E+02</totfact>
</mgrwt>
</event>
<event>
 9    1  0.4321150E-036  0.9991151E+03  0.7818608E-02  0.8681881E-01
         -2   -1    0    0    0  501 -0.00000000000E+00  0.00000000000E+00  0.32591729149E+03  0.32591729149E+03  0.00000000000E+00 0. -1.
          2   -1    0    0  501    0  0.00000000000E+00 -0.00000000000E+00 -0.76570886230E+03  0.76570886230E+03  0.00000000000E+00 0. -1.
         36    2    1    2    0    0  0.00000000000E+00  0.14210854715E-13 -0.43979157080E+03  0.10916261538E+04  0.99911512544E+03 0.  0.
         25    2    3    3    0    0  0.13003694017E+03 -0.40360426333E+02 -0.52019471600E+02  0.19216929563E+03  0.12523754603E+03 0.  0.
         35    2    3    3    0    0 -0.13003694017E+03  0.40360426333E+02 -0.38777209920E+03  0.89945685816E+03  0.80007303976E+03 0.  0.
         22    1    5    5    0    0 -0.25052462534E+03  0.20941024009E+03 -0.54753581258E+03  0.63750349223E+03  0.00000000000E+00 0. -1.
         22    1    5    5    0    0  0.12048768517E+03 -0.16904981376E+03  0.15976371337E+03  0.26195336593E+03  0.00000000000E+00 0. -1.
          5    1    4    4  502    0  0.76809596528E+02  0.31632903541E+02  0.90470355024E+01  0.83691657628E+02  0.47000000000E+01 0.  1.
         -5    1    4    4    0  502  0.53227343640E+02 -0.71993329874E+02 -0.61066507103E+02  0.10847763800E+03  0.47000000000E+01 0.  1.
<mgrwt>
<rscale>  0 0.99911513E+03</rscale>
<asrwt>0</asrwt>
<pdfrwt beam="1">  1        2 0.11780136E+00 0.99911513E+03</pdfrwt>
<pdfrwt beam="2">  1       -2 0.50141122E-01 0.99911513E+03</pdfrwt>
<totfact> 0.16621405E+02</totfact>
</mgrwt>
</event>
<event>
 9    1  0.4321150E-036  0.9990169E+03  0.7818608E-02  0.8681975E-01
          2   -1    0    0  501    0  0.00000000000E+00  0.00000000000E+00  0.46186010319E+03  0.46186010319E+03  0.00000000000E+00 0. -1.
         -2   -1    0    0    0  501 -0.00000000000E+00 -0.00000000000E+00 -0.54022565509E+03  0.54022565509E+03  0.00000000000E+00 0. -1.
         36    2    1    2    0    0 -0.71054273576E-14  0.14210854715E-13 -0.78365551899E+02  0.10020857583E+04  0.99901687035E+03 0.  0.
         25    2    3    3    0    0  0.29804586204E+02 -0.12362002226E+03 -0.70319057521E+02  0.19195699221E+03  0.12542923800E+03 0.  0.
         35    2    3    3    0    0 -0.29804586204E+02  0.12362002226E+03 -0.80464943772E+01  0.81012876607E+03  0.80004602885E+03 0.  0.
         22    1    5    5    0    0 -0.17200761290E+03 -0.25338571568E+03  0.19077456408E+03  0.36081279648E+03  0.00000000000E+00 0.  1.
         22    1    5    5    0    0  0.14220302669E+03  0.37700573794E+03 -0.19882105846E+03  0.44931596959E+03  0.00000000000E+00 0.  1.
          5    1    4    4  502    0  0.28978872962E+02 -0.78252063844E+02  0.24195206215E+02  0.87009531534E+02  0.47000000000E+01 0.  1.
         -5    1    4    4    0  502  0.82571324245E+00 -0.45367958419E+02 -0.94514263736E+02  0.10494746068E+03  0.47000000000E+01 0.  1.
<mgrwt>
<rscale>  0 0.99901687E+03</rscale>
<asrwt>0</asrwt>
<pdfrwt beam="1">  1        2 0.71055401E-01 0.99901687E+03</pdfrwt>
<pdfrwt beam="2">  1       -2 0.83111639E-01 0.99901687E+03</pdfrwt>
<totfact> 0.10284272E+02</totfact>
</mgrwt>
</event>
<event>
 9    1  0.4321150E-036  0.1001662E+04  0.7818608E-02  0.8679457E-01
          1   -1    0    0  501    0  0.00000000000E+00  0.00000000000E+00  0.65272614218E+03  0.65272614218E+03  0.00000000000E+00 0.  1.
         -1   -1    0    0    0  501 -0.00000000000E+00 -0.00000000000E+00 -0.38428338828E+03  0.38428338828E+03  0.00000000000E+00 0.  1.
         36    2    1    2    0    0  0.00000000000E+00 -0.71054273576E-14  0.26844275391E+03  0.10370095305E+04  0.10016622455E+04 0.  0.
         25    2    3    3    0    0  0.12534054579E+03 -0.55407500402E+02  0.80779568944E+02  0.20315448892E+03  0.12635728744E+03 0.  0.
         35    2    3    3    0    0 -0.12534054579E+03  0.55407500402E+02  0.18766318496E+03  0.83385504154E+03  0.80082239966E+03 0.  0.
         22    1    5    5    0    0  0.43272599087E+02 -0.85248630958E+02 -0.29149970259E+03  0.30677666718E+03  0.00000000000E+00 0.  1.
         22    1    5    5    0    0 -0.16861314488E+03  0.14065613136E+03  0.47916288756E+03  0.52707837437E+03  0.00000000000E+00 0.  1.
          5    1    4    4  502    0  0.32318116480E+02 -0.94872424670E+01  0.92591208021E+02  0.98639192136E+02  0.47000000000E+01 0. -1.
         -5    1    4    4    0  502  0.93022429310E+02 -0.45920257935E+02 -0.11811639077E+02  0.10451529678E+03  0.47000000000E+01 0. -1.
<mgrwt>
<rscale>  0 0.10016622E+04</rscale>
<asrwt>0</asrwt>
<pdfrwt beam="1">  1        1 0.10041941E+00 0.10016622E+04</pdfrwt>
<pdfrwt beam="2">  1       -1 0.59120521E-01 0.10016622E+04</pdfrwt>
<totfact> 0.10148172E+02</totfact>
</mgrwt>
</event>
<event>
 9    1  0.4321150E-036  0.1001678E+04  0.7818608E-02  0.8679442E-01
          2   -1    0    0  501    0  0.00000000000E+00  0.00000000000E+00  0.23906709437E+04  0.23906709437E+04  0.00000000000E+00 0. -1.
         -2   -1    0    0    0  501 -0.00000000000E+00 -0.00000000000E+00 -0.10492437772E+03  0.10492437772E+03  0.00000000000E+00 0. -1.
         36    2    1    2    0    0 -0.31974423109E-13  0.00000000000E+00  0.22857465660E+04  0.24955953214E+04  0.10016779145E+04 0.  0.
         25    2    3    3    0    0  0.12183442175E+01 -0.13989642561E+03  0.49493999170E+03  0.52937527713E+03  0.12530001752E+03 0.  0.
         35    2    3    3    0    0 -0.12183442175E+01  0.13989642561E+03  0.17908065743E+04  0.19662200443E+04  0.79966279258E+03 0.  0.
         22    1    5    5    0    0 -0.32601263452E+03 -0.83652579030E+02  0.12649409668E+04  0.13089528797E+04  0.00000000000E+00 0. -1.
         22    1    5    5    0    0  0.32479429031E+03  0.22354900464E+03  0.52586560748E+03  0.65726716457E+03  0.00000000000E+00 0. -1.
          5    1    4    4  502    0 -0.30494559661E+02 -0.12558760572E+03  0.46679809567E+03  0.48438075623E+03  0.47000000000E+01 0.  1.
         -5    1    4    4    0  502  0.31712903879E+02 -0.14308819889E+02  0.28141896025E+02  0.44994520899E+02  0.47000000000E+01 0.  1.
<mgrwt>
<rscale>  0 0.10016779E+04</rscale>
<asrwt>0</asrwt>
<pdfrwt beam="1">  1        2 0.36779549E+00 0.10016779E+04</pdfrwt>
<pdfrwt beam="2">  1       -2 0.16142214E-01 0.10016779E+04</pdfrwt>
<totfact> 0.14324472E+02</totfact>
</mgrwt>
</event>
<event>
 9    1  0.4321150E-036  0.1000466E+04  0.7818608E-02  0.8680594E-01
          2   -1    0    0  501    0  0.00000000000E+00  0.00000000000E+00  0.10045038410E+04  0.10045038410E+04  0.00000000000E+00 0.  1.
         -2   -1    0    0    0  501 -0.00000000000E+00 -0.00000000000E+00 -0.24911109774E+03  0.24911109774E+03  0.00000000000E+00 0.  1.
         36    2    1    2    0    0 -0.14210854715E-13 -0.14210854715E-13  0.75539274331E+03  0.12536149388E+04  0.10004660005E+04 0.  0.
         25    2    3    3    0    0 -0.52783423023E+02 -0.10954114565E+03  0.22855818621E+03  0.28757693048E+03  0.12520500839E+03 0.  0.
         35    2    3    3    0    0  0.52783423023E+02  0.10954114565E+03  0.52683455710E+03  0.96603800830E+03  0.80055570112E+03 0.  0.
         22    1    5    5    0    0 -0.10183677049E+03  0.20514013114E+03  0.68674408482E+03  0.72392723340E+03  0.00000000000E+00 0. -1.
         22    1    5    5    0    0  0.15462019352E+03 -0.95598985490E+02 -0.15990952772E+03  0.24211077490E+03  0.00000000000E+00 0. -1.
          5    1    4    4  502    0  0.40368545566E+02 -0.31473335345E+02  0.51475315293E+02  0.72746054143E+02  0.47000000000E+01 0. -1.
         -5    1    4    4    0  502 -0.93151968588E+02 -0.78067810305E+02  0.17708287091E+03  0.21483087634E+03  0.47000000000E+01 0. -1.
<mgrwt>
<rscale>  0 0.10004660E+04</rscale>
<asrwt>0</asrwt>
<pdfrwt beam="1">  1        2 0.15453905E+00 0.10004660E+04</pdfrwt>
<pdfrwt beam="2">  1       -2 0.38324785E-01 0.10004660E+04</pdfrwt>
<totfact> 0.19444413E+02</totfact>
</mgrwt>
</event>
<event>
 9    1  0.4321150E-036  0.9989825E+03  0.7818608E-02  0.8682008E-01
         -1   -1    0    0    0  501 -0.00000000000E+00  0.00000000000E+00  0.94413935139E+03  0.94413935139E+03  0.00000000000E+00 0.  1.
          1   -1    0    0  501    0  0.00000000000E+00 -0.00000000000E+00 -0.26425281791E+03  0.26425281791E+03  0.00000000000E+00 0.  1.
         36    2    1    2    0    0  0.14210854715E-13 -0.28421709430E-13  0.67988653349E+03  0.12083921693E+04  0.99898245050E+03 0.  0.
         25    2    3    3    0    0 -0.84497945500E+02  0.74917524644E+02  0.35088209696E+02  0.17377235597E+03  0.12733071487E+03 0.  0.
         35    2    3    3    0    0  0.84497945500E+02 -0.74917524644E+02  0.64479832379E+03  0.10346198133E+04  0.80119956407E+03 0.  0.
         22    1    5    5    0    0 -0.52473939715E+02  0.35029061743E+03  0.21294843418E+03  0.41328448632E+03  0.00000000000E+00 0. -1.
         22    1    5    5    0    0  0.13697188521E+03 -0.42520814208E+03  0.43184988961E+03  0.62133532700E+03  0.00000000000E+00 0. -1.
          5    1    4    4  502    0 -0.42758869089E+02  0.10099235741E+03  0.52074480845E+02  0.12149740202E+03  0.47000000000E+01 0. -1.
         -5    1    4    4    0  502 -0.41739076411E+02 -0.26074832768E+02 -0.16986271150E+02  0.52274953956E+02  0.47000000000E+01 0. -1.
<mgrwt>
<rscale>  0 0.99898245E+03</rscale>
<asrwt>0</asrwt>
<pdfrwt beam="1">  1        1 0.40654280E-01 0.99898245E+03</pdfrwt>
<pdfrwt beam="2">  1       -1 0.14525221E+00 0.99898245E+03</pdfrwt>
<totfact> 0.46502893E+01</totfact>
</mgrwt>
</event>
<event>
 9    1  0.4321150E-036  0.1000200E+04  0.7818608E-02  0.8680847E-01
          2   -1    0    0  501    0  0.00000000000E+00  0.00000000000E+00  0.23172343849E+04  0.23172343849E+04  0.00000000000E+00 0. -1.
         -2   -1    0    0    0  501 -0.00000000000E+00 -0.00000000000E+00 -0.10793048639E+03  0.10793048639E+03  0.00000000000E+00 0. -1.
         36    2    1    2    0    0  0.28421709430E-13  0.00000000000E+00  0.22093038985E+04  0.24251648713E+04  0.10002004484E+04 0.  0.
         25    2    3    3    0    0 -0.30658851464E+02 -0.13542867525E+03  0.46206404620E+03  0.49853972229E+03  0.12552999905E+03 0.  0.
         35    2    3    3    0    0  0.30658851464E+02  0.13542867525E+03  0.17472398524E+04  0.19266251490E+04  0.79984778050E+03 0.  0.
         22    1    5    5    0    0  0.26930812468E+03 -0.11817733608E+03  0.23975518731E+03  0.37944077090E+03  0.00000000000E+00 0.  1.
         22    1    5    5    0    0 -0.23864927321E+03  0.25360601133E+03  0.15074846650E+04  0.15471843781E+04  0.00000000000E+00 0.  1.
          5    1    4    4  502    0  0.33872113168E+02 -0.10749468941E+03  0.33154641196E+03  0.35021071027E+03  0.47000000000E+01 0. -1.
         -5    1    4    4    0  502 -0.64530964632E+02 -0.27933985836E+02  0.13051763423E+03  0.14832901202E+03  0.47000000000E+01 0. -1.
<mgrwt>
<rscale>  0 0.10002004E+04</rscale>
<asrwt>0</asrwt>
<pdfrwt beam="1">  1        2 0.35649756E+00 0.10002004E+04</pdfrwt>
<pdfrwt beam="2">  1       -2 0.16604692E-01 0.10002004E+04</pdfrwt>
<totfact> 0.15099766E+02</totfact>
</mgrwt>
</event>
<event>
 9    1  0.4321150E-036  0.9997363E+03  0.7818608E-02  0.8681289E-01
          1   -1    0    0  501    0  0.00000000000E+00  0.00000000000E+00  0.19513561737E+04  0.19513561737E+04  0.00000000000E+00 0.  1.
         -1   -1    0    0    0  501 -0.00000000000E+00 -0.00000000000E+00 -0.12804847254E+03  0.12804847254E+03  0.00000000000E+00 0.  1.
         36    2    1    2    0    0  0.21316282073E-13  0.00000000000E+00  0.18233077011E+04  0.20794046462E+04  0.99973632008E+03 0.  0.
         25    2    3    3    0    0 -0.27323547760E+02 -0.56520518462E+02  0.82298957556E+02  0.16241253422E+03  0.12515417527E+03 0.  0.
         35    2    3    3    0    0  0.27323547760E+02  0.56520518462E+02  0.17410087436E+04  0.19169921120E+04  0.79987884518E+03 0.  0.
         22    1    5    5    0    0  0.34067853177E+03  0.78475231756E+02  0.36433650190E+03  0.50493693728E+03  0.00000000000E+00 0. -1.
         22    1    5    5    0    0 -0.31335498401E+03 -0.21954713294E+02  0.13766722417E+04  0.14120551747E+04  0.00000000000E+00 0. -1.
          5    1    4    4  502    0  0.40086809673E+02 -0.47972440987E+02  0.10715439161E+02  0.63602028587E+02  0.47000000000E+01 0. -1.
         -5    1    4    4    0  502 -0.67410357433E+02 -0.85480774751E+01  0.71583518395E+02  0.98810505634E+02  0.47000000000E+01 0. -1.
<mgrwt>
<rscale>  0 0.99973632E+03</rscale>
<asrwt>0</asrwt>
<pdfrwt beam="1">  1        1 0.30020862E+00 0.99973632E+03</pdfrwt>
<pdfrwt beam="2">  1       -1 0.19699766E-01 0.99973632E+03</pdfrwt>
<totfact> 0.70639851E+01</totfact>
</mgrwt>
</event>
<event>
 9    1  0.4321150E-036  0.9995310E+03  0.7818608E-02  0.8681485E-01
         -3   -1    0    0    0  501 -0.00000000000E+00  0.00000000000E+00  0.53984259654E+03  0.53984259654E+03  0.00000000000E+00 0.  1.
          3   -1    0    0  501    0  0.00000000000E+00 -0.00000000000E+00 -0.46266365526E+03  0.46266365526E+03  0.00000000000E+00 0.  1.
         36    2    1    2    0    0  0.00000000000E+00 -0.28421709430E-13  0.77178941286E+02  0.10025062518E+04  0.99953098798E+03 0.  0.
         25    2    3    3    0    0  0.29675992324E+02  0.13930242565E+03  0.40914382279E+02  0.19414997436E+03  0.12543681897E+03 0.  0.
         35    2    3    3    0    0 -0.29675992324E+02 -0.13930242565E+03  0.36264559007E+02  0.80835627744E+03  0.79488296166E+03 0.  0.
         22    1    5    5    0    0 -0.18326195829E+03  0.18995127215E+03 -0.23622201129E+03  0.35421359342E+03  0.00000000000E+00 0.  1.
         22    1    5    5    0    0  0.15358596596E+03 -0.32925369780E+03  0.27248657030E+03  0.45414268402E+03  0.00000000000E+00 0.  1.
          5    1    4    4  502    0 -0.31178094032E+02  0.11538776387E+02 -0.21009975330E+02  0.39607145458E+02  0.47000000000E+01 0. -1.
         -5    1    4    4    0  502  0.60854086356E+02  0.12776364926E+03  0.61924357609E+02  0.15454282890E+03  0.47000000000E+01 0. -1.
<mgrwt>
<rscale>  0 0.99953099E+03</rscale>
<asrwt>0</asrwt>
<pdfrwt beam="1">  1        3 0.71179024E-01 0.99953099E+03</pdfrwt>
<pdfrwt beam="2">  1       -3 0.83052707E-01 0.99953099E+03</pdfrwt>
<totfact> 0.98069355E+00</totfact>
</mgrwt>
</event>
<event>
 9    1  0.4321150E-036  0.1000997E+04  0.7818608E-02  0.8680090E-01
          1   -1    0    0  501    0  0.00000000000E+00  0.00000000000E+00  0.12798260683E+04  0.12798260683E+04  0.00000000000E+00 0. -1.
         -1   -1    0    0    0  501 -0.00000000000E+00 -0.00000000000E+00 -0.19572856900E+03  0.19572856900E+03  0.00000000000E+00 0. -1.
         36    2    1    2    0    0 -0.28421709430E-13 -0.14210854715E-13  0.10840974993E+04  0.14755546373E+04  0.10009965533E+04 0.  0.
         25    2    3    3    0    0 -0.11717520738E+03 -0.39466983121E+02  0.10325714039E+03  0.20378028848E+03  0.12480663824E+03 0.  0.
         35    2    3    3    0    0  0.11717520738E+03  0.39466983121E+02  0.98084035895E+03  0.12717743489E+04  0.80004656907E+03 0.  0.
         22    1    5    5    0    0 -0.11071549885E+03 -0.10414065227E+03 -0.83813202876E+02  0.17357375988E+03  0.00000000000E+00 0.  1.
         22    1    5    5    0    0  0.22789070623E+03  0.14360763539E+03  0.10646535618E+04  0.10982005890E+04  0.00000000000E+00 0.  1.
          5    1    4    4  502    0 -0.10744509194E+03 -0.48426136240E+02  0.12879323468E+03  0.17464056159E+03  0.47000000000E+01 0.  1.
         -5    1    4    4    0  502 -0.97301154400E+01  0.89591531189E+01 -0.25536094292E+02  0.29139726882E+02  0.47000000000E+01 0.  1.
<mgrwt>
<rscale>  0 0.10009966E+04</rscale>
<asrwt>0</asrwt>
<pdfrwt beam="1">  1        1 0.19689631E+00 0.10009966E+04</pdfrwt>
<pdfrwt beam="2">  1       -1 0.30112088E-01 0.10009966E+04</pdfrwt>
<totfact> 0.10391199E+02</totfact>
</mgrwt>
</event>
<event>
 9    1  0.4321150E-036  0.1010606E+04  0.7818608E-02  0.8671003E-01
          2   -1    0    0  501    0  0.00000000000E+00  0.00000000000E+00  0.17028742689E+04  0.17028742689E+04  0.00000000000E+00 0. -1.
         -2   -1    0    0    0  501 -0.00000000000E+00 -0.00000000000E+00 -0.14994137653E+03  0.14994137653E+03  0.00000000000E+00 0. -1.
         36    2    1    2    0    0  0.71054273576E-14 -0.28421709430E-13  0.15529328923E+04  0.18528156454E+04  0.10106063763E+04 0.  0.
         25    2    3    3    0    0  0.12628406660E+02  0.94536978945E+02  0.84903037923E+02  0.17895543789E+03  0.12537864993E+03 0.  0.
         35    2    3    3    0    0 -0.12628406660E+02 -0.94536978945E+02  0.14680298544E+04  0.16738602075E+04  0.79849835554E+03 0.  0.
         22    1    5    5    0    0  0.30474510626E+03 -0.29121464294E+03  0.65086633434E+03  0.77543699501E+03  0.00000000000E+00 0. -1.
         22    1    5    5    0    0 -0.31737351292E+03  0.19667766399E+03  0.81716352008E+03  0.89842321250E+03  0.00000000000E+00 0. -1.
          5    1    4    4  502    0  0.46860796095E+02  0.76877175822E+02  0.51977041509E+01  0.90305816543E+02  0.47000000000E+01 0. -1.
         -5    1    4    4    0  502 -0.34232389435E+02  0.17659803123E+02  0.79705333772E+02  0.88649621345E+02  0.47000000000E+01 0. -1.
<mgrwt>
<rscale>  0 0.10106064E+04</rscale>
<asrwt>0</asrwt>
<pdfrwt beam="1">  1        2 0.26198064E+00 0.10106064E+04</pdfrwt>
<pdfrwt beam="2">  1       -2 0.23067905E-01 0.10106064E+04</pdfrwt>
<totfact> 0.19245929E+02</totfact>
</mgrwt>
</event>
<event>
 9    1  0.4321150E-036  0.9985176E+03  0.7818608E-02  0.8682451E-01
          1   -1    0    0  501    0  0.00000000000E+00  0.00000000000E+00  0.33208359260E+03  0.33208359260E+03  0.00000000000E+00 0. -1.
         -1   -1    0    0    0  501 -0.00000000000E+00 -0.00000000000E+00 -0.75059218144E+03  0.75059218144E+03  0.00000000000E+00 0. -1.
         36    2    1    2    0    0  0.00000000000E+00 -0.14210854715E-13 -0.41850858883E+03  0.10826757740E+04  0.99851759763E+03 0.  0.
         25    2    3    3    0    0 -0.12015532279E+03  0.56263516684E+02 -0.39941304919E+02  0.18663717642E+03  0.12504096481E+03 0.  0.
         35    2    3    3    0    0  0.12015532279E+03 -0.56263516684E+02 -0.37856728391E+03  0.89603859762E+03  0.80122973926E+03 0.  0.
         22    1    5    5    0    0  0.30930741079E+03  0.28583166760E+03 -0.19004654587E+03  0.46204816434E+03  0.00000000000E+00 0. -1.
         22    1    5    5    0    0 -0.18915208800E+03 -0.34209518428E+03 -0.18852073804E+03  0.43399043328E+03  0.00000000000E+00 0. -1.
          5    1    4    4  502    0 -0.86353799745E+02 -0.21517852049E+02 -0.48165081098E+02  0.10130134118E+03  0.47000000000E+01 0.  1.
         -5    1    4    4    0  502 -0.33801523044E+02  0.77781368733E+02  0.82237761788E+01  0.85335835244E+02  0.47000000000E+01 0.  1.
<mgrwt>
<rscale>  0 0.99851760E+03</rscale>
<asrwt>0</asrwt>
<pdfrwt beam="1">  1        1 0.51089784E-01 0.99851760E+03</pdfrwt>
<pdfrwt beam="2">  1       -1 0.11547572E+00 0.99851760E+03</pdfrwt>
<totfact> 0.62754407E+01</totfact>
</mgrwt>
</event>
<event>
 9    1  0.4321150E-036  0.1000304E+04  0.7818608E-02  0.8680748E-01
         -1   -1    0    0    0  501 -0.00000000000E+00  0.00000000000E+00  0.18954273968E+03  0.18954273968E+03  0.00000000000E+00 0. -1.
          1   -1    0    0  501    0  0.00000000000E+00 -0.00000000000E+00 -0.13197666432E+04  0.13197666432E+04  0.00000000000E+00 0. -1.
         36    2    1    2    0    0 -0.14210854715E-13 -0.14210854715E-13 -0.11302239036E+04  0.15093093829E+04  0.10003043243E+04 0.  0.
         25    2    3    3    0    0  0.10267019765E+03 -0.50654970493E+02 -0.92129659461E+02  0.19326043050E+03  0.12551742637E+03 0.  0.
         35    2    3    3    0    0 -0.10267019765E+03  0.50654970493E+02 -0.10380942441E+04  0.13160489524E+04  0.80077343238E+03 0.  0.
         22    1    5    5    0    0  0.31294389524E+03  0.19525804853E+03 -0.47490504771E+03  0.60132719166E+03  0.00000000000E+00 0.  1.
         22    1    5    5    0    0 -0.41561409289E+03 -0.14460307804E+03 -0.56318919639E+03  0.71472176077E+03  0.00000000000E+00 0.  1.
          5    1    4    4  502    0  0.31455678734E+02 -0.60808326456E+00 -0.10076369673E+03  0.10566570905E+03  0.47000000000E+01 0.  1.
         -5    1    4    4    0  502  0.71214518914E+02 -0.50046887228E+02  0.86340372722E+01  0.87594721445E+02  0.47000000000E+01 0.  1.
<mgrwt>
<rscale>  0 0.10003043E+04</rscale>
<asrwt>0</asrwt>
<pdfrwt beam="1">  1        1 0.20304102E+00 0.10003043E+04</pdfrwt>
<pdfrwt beam="2">  1       -1 0.29160422E-01 0.10003043E+04</pdfrwt>
<totfact> 0.10264252E+02</totfact>
</mgrwt>
</event>
<event>
 9    1  0.4321150E-036  0.9996742E+03  0.7818608E-02  0.8681348E-01
         -1   -1    0    0    0  501 -0.00000000000E+00  0.00000000000E+00  0.89704267110E+02  0.89704267110E+02  0.00000000000E+00 0.  1.
          1   -1    0    0  501    0  0.00000000000E+00 -0.00000000000E+00 -0.27851194867E+04  0.27851194867E+04  0.00000000000E+00 0.  1.
         36    2    1    2    0    0  0.00000000000E+00  0.21316282073E-13 -0.26954152196E+04  0.28748237539E+04  0.99967415166E+03 0.  0.
         25    2    3    3    0    0  0.34601598922E+02  0.48620598684E+02 -0.87277462218E+03  0.88369020625E+03  0.12494641343E+03 0.  0.
         35    2    3    3    0    0 -0.34601598922E+02 -0.48620598684E+02 -0.18226405975E+04  0.19911335476E+04  0.79939528624E+03 0.  0.
         22    1    5    5    0    0 -0.32066886381E+03 -0.25570385344E+03 -0.66961350294E+03  0.78523577618E+03  0.00000000000E+00 0. -1.
         22    1    5    5    0    0  0.28606726489E+03  0.20708325475E+03 -0.11530270945E+04  0.12058977714E+04  0.00000000000E+00 0. -1.
          5    1    4    4  502    0  0.55209005857E+02  0.31438207688E+02 -0.83328732283E+03  0.83571900040E+03  0.47000000000E+01 0. -1.
         -5    1    4    4    0  502 -0.20607406935E+02  0.17182390996E+02 -0.39487299352E+02  0.47971205854E+02  0.47000000000E+01 0. -1.
<mgrwt>
<rscale>  0 0.99967415E+03</rscale>
<asrwt>0</asrwt>
<pdfrwt beam="1">  1        1 0.42847987E+00 0.99967415E+03</pdfrwt>
<pdfrwt beam="2">  1       -1 0.13800658E-01 0.99967415E+03</pdfrwt>
<totfact> 0.32687453E+01</totfact>
</mgrwt>
</event>
<event>
 9    1  0.4321150E-036  0.9998744E+03  0.7818608E-02  0.8681158E-01
         -2   -1    0    0    0  501 -0.00000000000E+00  0.00000000000E+00  0.19700043259E+03  0.19700043259E+03  0.00000000000E+00 0. -1.
          2   -1    0    0  501    0  0.00000000000E+00 -0.00000000000E+00 -0.12687138612E+04  0.12687138612E+04  0.00000000000E+00 0. -1.
         36    2    1    2    0    0  0.14210854715E-13  0.14210854715E-13 -0.10717134286E+04  0.14657142937E+04  0.99987435107E+03 0.  0.
         25    2    3    3    0    0  0.51447599484E+02  0.12032932360E+03 -0.27527854906E+03  0.32942281359E+03  0.12496042946E+03 0.  0.
         35    2    3    3    0    0 -0.51447599484E+02 -0.12032932360E+03 -0.79643487950E+03  0.11362914801E+04  0.79982736197E+03 0.  0.
         22    1    5    5    0    0  0.22336301318E+03  0.12517401197E+03  0.29457948218E+01  0.25606297397E+03  0.00000000000E+00 0. -1.
         22    1    5    5    0    0 -0.27481061267E+03 -0.24550333557E+03 -0.79938067432E+03  0.88022850618E+03  0.00000000000E+00 0. -1.
          5    1    4    4  502    0  0.75800562148E+02  0.90994232062E+02 -0.11697902761E+03  0.16652885153E+03  0.47000000000E+01 0. -1.
         -5    1    4    4    0  502 -0.24352962664E+02  0.29335091543E+02 -0.15829952145E+03  0.16289396207E+03  0.47000000000E+01 0. -1.
<mgrwt>
<rscale>  0 0.99987435E+03</rscale>
<asrwt>0</asrwt>
<pdfrwt beam="1">  1        2 0.19518675E+00 0.99987435E+03</pdfrwt>
<pdfrwt beam="2">  1       -2 0.30307758E-01 0.99987435E+03</pdfrwt>
<totfact> 0.20858793E+02</totfact>
</mgrwt>
</event>
<event>
 9    1  0.4321150E-036  0.1000129E+04  0.7818608E-02  0.8680915E-01
         -3   -1    0    0    0  501 -0.00000000000E+00  0.00000000000E+00  0.42404940763E+03  0.42404940763E+03  0.00000000000E+00 0. -1.
          3   -1    0    0  501    0  0.00000000000E+00 -0.00000000000E+00 -0.58970591651E+03  0.58970591651E+03  0.00000000000E+00 0. -1.
         36    2    1    2    0    0 -0.14210854715E-13  0.00000000000E+00 -0.16565650888E+03  0.10137553241E+04  0.10001288808E+04 0.  0.
         25    2    3    3    0    0 -0.75930195689E+02  0.14272701720E+02  0.93300548728E+02  0.16893946682E+03  0.11775587639E+03 0.  0.
         35    2    3    3    0    0  0.75930195689E+02 -0.14272701720E+02 -0.25895705761E+03  0.84481585732E+03  0.80042861671E+03 0.  0.
         22    1    5    5    0    0  0.61472096990E+02  0.32334304926E+03  0.10758479080E+03  0.34627161799E+03  0.00000000000E+00 0. -1.
         22    1    5    5    0    0  0.14458098699E+02 -0.33761575098E+03 -0.36654184841E+03  0.49854423932E+03  0.00000000000E+00 0. -1.
          5    1    4    4  502    0 -0.61182976927E+02 -0.19828907595E+02  0.11033424180E+03  0.12779779793E+03  0.47000000000E+01 0. -1.
         -5    1    4    4    0  502 -0.14747218762E+02  0.34101609315E+02 -0.17033693073E+02  0.41141668887E+02  0.47000000000E+01 0. -1.
<mgrwt>
<rscale>  0 0.10001289E+04</rscale>
<asrwt>0</asrwt>
<pdfrwt beam="1">  1        3 0.90723987E-01 0.10001289E+04</pdfrwt>
<pdfrwt beam="2">  1       -3 0.65238371E-01 0.10001289E+04</pdfrwt>
<totfact> 0.10157530E+01</totfact>
</mgrwt>
</event>
<event>
 9    1  0.4321150E-036  0.1000007E+04  0.7818608E-02  0.8681031E-01
         -1   -1    0    0    0  501 -0.00000000000E+00  0.00000000000E+00  0.91522873290E+03  0.91522873290E+03  0.00000000000E+00 0. -1.
          1   -1    0    0  501    0  0.00000000000E+00 -0.00000000000E+00 -0.27315962551E+03  0.27315962551E+03  0.00000000000E+00 0. -1.
         36    2    1    2    0    0  0.71054273576E-14 -0.28421709430E-13  0.64206910738E+03  0.11883883584E+04  0.10000070759E+04 0.  0.
         25    2    3    3    0    0 -0.61278394368E+02  0.11868148562E+03  0.17959049261E+03  0.25614430936E+03  0.12456655063E+03 0.  0.
         35    2    3    3    0    0  0.61278394368E+02 -0.11868148562E+03  0.46247861477E+03  0.93224404905E+03  0.79834338553E+03 0.  0.
         22    1    5    5    0    0  0.77744368123E+02  0.33302886256E+03  0.29019127379E+03  0.44851241394E+03  0.00000000000E+00 0. -1.
         22    1    5    5    0    0 -0.16465973756E+02 -0.45171034818E+03  0.17228734099E+03  0.48373163511E+03  0.00000000000E+00 0. -1.
          5    1    4    4  502    0 -0.60010968049E+02  0.11556228174E+03  0.19789982777E+03  0.23694385217E+03  0.47000000000E+01 0.  1.
         -5    1    4    4    0  502 -0.12674263185E+01  0.31192038847E+01 -0.18309335164E+02  0.19200457195E+02  0.47000000000E+01 0.  1.
<mgrwt>
<rscale>  0 0.10000071E+04</rscale>
<asrwt>0</asrwt>
<pdfrwt beam="1">  1        1 0.42024558E-01 0.10000071E+04</pdfrwt>
<pdfrwt beam="2">  1       -1 0.14080442E+00 0.10000071E+04</pdfrwt>
<totfact> 0.48574997E+01</totfact>
</mgrwt>
</event>
<event>
 9    1  0.4321150E-036  0.9992397E+03  0.7818608E-02  0.8681762E-01
         -2   -1    0    0    0  501 -0.00000000000E+00  0.00000000000E+00  0.19379578925E+03  0.19379578925E+03  0.00000000000E+00 0. -1.
          2   -1    0    0  501    0  0.00000000000E+00 -0.00000000000E+00 -0.12880569456E+04  0.12880569456E+04  0.00000000000E+00 0. -1.
         36    2    1    2    0    0  0.00000000000E+00  0.00000000000E+00 -0.10942611564E+04  0.14818527349E+04  0.99923973575E+03 0.  0.
         25    2    3    3    0    0 -0.75666540155E+02 -0.10204471469E+03 -0.11698148759E+03  0.21301622498E+03  0.12471044290E+03 0.  0.
         35    2    3    3    0    0  0.75666540155E+02  0.10204471469E+03 -0.97727966879E+03  0.12688365099E+04  0.79920710003E+03 0.  0.
         22    1    5    5    0    0  0.39273227507E+03  0.21692524035E+03 -0.70382317279E+03  0.83466296093E+03  0.00000000000E+00 0. -1.
         22    1    5    5    0    0 -0.31706573491E+03 -0.11488052566E+03 -0.27345649600E+03  0.43417354898E+03  0.00000000000E+00 0. -1.
          5    1    4    4  502    0 -0.72158313462E+02 -0.74692696777E+02 -0.12329104312E+02  0.10468962683E+03  0.47000000000E+01 0.  1.
         -5    1    4    4    0  502 -0.35082266930E+01 -0.27352017913E+02 -0.10465238328E+03  0.10832659814E+03  0.47000000000E+01 0.  1.
<mgrwt>
<rscale>  0 0.99923974E+03</rscale>
<asrwt>0</asrwt>
<pdfrwt beam="1">  1        2 0.19816261E+00 0.99923974E+03</pdfrwt>
<pdfrwt beam="2">  1       -2 0.29814736E-01 0.99923974E+03</pdfrwt>
<totfact> 0.20941833E+02</totfact>
</mgrwt>
</event>
<event>
 9    1  0.4321150E-036  0.1003540E+04  0.7818608E-02  0.8677674E-01
         -2   -1    0    0    0  501 -0.00000000000E+00  0.00000000000E+00  0.11196897855E+03  0.11196897855E+03  0.00000000000E+00 0.  1.
          2   -1    0    0  501    0  0.00000000000E+00 -0.00000000000E+00 -0.22485982214E+04  0.22485982214E+04  0.00000000000E+00 0.  1.
         36    2    1    2    0    0 -0.14210854715E-13 -0.14210854715E-13 -0.21366292429E+04  0.23605672000E+04  0.10035402255E+04 0.  0.
         25    2    3    3    0    0  0.42625356454E+02 -0.24622993933E+02 -0.72814612116E+03  0.74041716722E+03  0.12489033150E+03 0.  0.
         35    2    3    3    0    0 -0.42625356454E+02  0.24622993933E+02 -0.14084831217E+04  0.16201500328E+04  0.79914842906E+03 0.  0.
         22    1    5    5    0    0  0.83116245992E+02 -0.12828006909E+03 -0.14138728426E+04  0.14221112831E+04  0.00000000000E+00 0. -1.
         22    1    5    5    0    0 -0.12574160245E+03  0.15290306302E+03  0.53897209088E+01  0.19803874964E+03  0.00000000000E+00 0. -1.
          5    1    4    4  502    0  0.62622834577E+02 -0.63909218239E+02 -0.51019729425E+03  0.51800518979E+03  0.47000000000E+01 0.  1.
         -5    1    4    4    0  502 -0.19997478123E+02  0.39286224306E+02 -0.21794882691E+03  0.22241197743E+03  0.47000000000E+01 0.  1.
<mgrwt>
<rscale>  0 0.10035402E+04</rscale>
<asrwt>0</asrwt>
<pdfrwt beam="1">  1        2 0.34593815E+00 0.10035402E+04</pdfrwt>
<pdfrwt beam="2">  1       -2 0.17225999E-01 0.10035402E+04</pdfrwt>
<totfact> 0.15568044E+02</totfact>
</mgrwt>
</event>
<event>
 9    1  0.4321150E-036  0.9991119E+03  0.7818608E-02  0.8681884E-01
          2   -1    0    0  501    0  0.00000000000E+00  0.00000000000E+00  0.15622738773E+04  0.15622738773E+04  0.00000000000E+00 0.  1.
         -2   -1    0    0    0  501 -0.00000000000E+00 -0.00000000000E+00 -0.15973906147E+03  0.15973906147E+03  0.00000000000E+00 0.  1.
         36    2    1    2    0    0 -0.14210854715E-13 -0.14210854715E-13  0.14025348158E+04  0.17220129387E+04  0.99911193150E+03 0.  0.
         25    2    3    3    0    0  0.67065579351E+02  0.10564209565E+03  0.35807203036E+03  0.39952942889E+03  0.12549956699E+03 0.  0.
         35    2    3    3    0    0 -0.67065579351E+02 -0.10564209565E+03  0.10444627854E+04  0.13224835099E+04  0.80149989355E+03 0.  0.
         22    1    5    5    0    0 -0.22557462786E+03 -0.38535963629E+03  0.38812667953E+03  0.59163187996E+03  0.00000000000E+00 0. -1.
         22    1    5    5    0    0  0.15850904851E+03  0.27971754064E+03  0.65633610591E+03  0.73085162990E+03  0.00000000000E+00 0. -1.
          5    1    4    4  502    0  0.76010259426E+02  0.17238876733E+02  0.23520723314E+03  0.24782911639E+03  0.47000000000E+01 0. -1.
         -5    1    4    4    0  502 -0.89446800747E+01  0.88403218918E+02  0.12286479722E+03  0.15170031250E+03  0.47000000000E+01 0. -1.
<mgrwt>
<rscale>  0 0.99911193E+03</rscale>
<asrwt>0</asrwt>
<pdfrwt beam="1">  1        2 0.24034982E+00 0.99911193E+03</pdfrwt>
<pdfrwt beam="2">  1       -2 0.24575241E-01 0.99911193E+03</pdfrwt>
<totfact> 0.20659238E+02</totfact>
</mgrwt>
</event>
<event>
 9    1  0.4321150E-036  0.1001169E+04  0.7818608E-02  0.8679925E-01
         -1   -1    0    0    0  501 -0.00000000000E+00  0.00000000000E+00  0.87587832888E+03  0.87587832888E+03  0.00000000000E+00 0.  1.
          1   -1    0    0  501    0  0.00000000000E+00 -0.00000000000E+00 -0.28609570846E+03  0.28609570846E+03  0.00000000000E+00 0.  1.
         36    2    1    2    0    0  0.00000000000E+00 -0.21316282073E-13  0.58978262042E+03  0.11619740373E+04  0.10011693783E+04 0.  0.
         25    2    3    3    0    0 -0.13665770579E+03 -0.16154611778E+02  0.15219083560E+03  0.24026465055E+03  0.12501500642E+03 0.  0.
         35    2    3    3    0    0  0.13665770579E+03  0.16154611778E+02  0.43759178482E+03  0.92170938679E+03  0.79945314029E+03 0.  0.
         22    1    5    5    0    0  0.18784428800E+03 -0.26467567275E+03 -0.76707476058E+02  0.33350071239E+03  0.00000000000E+00 0.  1.
         22    1    5    5    0    0 -0.51186582209E+02  0.28083028453E+03  0.51429926088E+03  0.58820867441E+03  0.00000000000E+00 0.  1.
          5    1    4    4  502    0 -0.26511743096E+02 -0.28653519470E+02  0.11767092038E+03  0.12406624119E+03  0.47000000000E+01 0.  1.
         -5    1    4    4    0  502 -0.11014596269E+03  0.12498907692E+02  0.34519915219E+02  0.11619840936E+03  0.47000000000E+01 0.  1.
<mgrwt>
<rscale>  0 0.10011694E+04</rscale>
<asrwt>0</asrwt>
<pdfrwt beam="1">  1        1 0.44014725E-01 0.10011694E+04</pdfrwt>
<pdfrwt beam="2">  1       -1 0.13475051E+00 0.10011694E+04</pdfrwt>
<totfact> 0.51525407E+01</totfact>
</mgrwt>
</event>
<event>
 9    1  0.4321150E-036  0.1000009E+04  0.7818608E-02  0.8681030E-01
         -2   -1    0    0    0  501 -0.00000000000E+00  0.00000000000E+00  0.51465608253E+03  0.51465608253E+03  0.00000000000E+00 0.  1.
          2   -1    0    0  501    0  0.00000000000E+00 -0.00000000000E+00 -0.48576972081E+03  0.48576972081E+03  0.00000000000E+00 0.  1.
         36    2    1    2    0    0  0.14210854715E-13 -0.28421709430E-13  0.28886361722E+02  0.10004258033E+04  0.10000086830E+04 0.  0.
         25    2    3    3    0    0  0.70805004449E+02  0.11671533965E+03  0.43288952823E+02  0.19038134825E+03  0.12544044468E+03 0.  0.
         35    2    3    3    0    0 -0.70805004449E+02 -0.11671533965E+03 -0.14402591101E+02  0.81004445510E+03  0.79832873269E+03 0.  0.
         22    1    5    5    0    0 -0.35144027049E+03 -0.31019198983E+03 -0.19183218948E+02  0.46914531882E+03  0.00000000000E+00 0.  1.
         22    1    5    5    0    0  0.28063526604E+03  0.19347665019E+03  0.47806278470E+01  0.34089913628E+03  0.00000000000E+00 0.  1.
          5    1    4    4  502    0  0.87404739338E+02  0.11428901541E+03  0.25806160544E+00  0.14395736903E+03  0.47000000000E+01 0.  1.
         -5    1    4    4    0  502 -0.16599734889E+02  0.24263242355E+01  0.43030891218E+02  0.46423979221E+02  0.47000000000E+01 0.  1.
<mgrwt>
<rscale>  0 0.10000087E+04</rscale>
<asrwt>0</asrwt>
<pdfrwt beam="1">  1        2 0.74733803E-01 0.10000087E+04</pdfrwt>
<pdfrwt beam="2">  1       -2 0.79177859E-01 0.10000087E+04</pdfrwt>
<totfact> 0.10860457E+02</totfact>
</mgrwt>
</event>
<event>
 9    1  0.4321150E-036  0.9999228E+03  0.7818608E-02  0.8681111E-01
         -2   -1    0    0    0  501 -0.00000000000E+00  0.00000000000E+00  0.97048319467E+03  0.97048319467E+03  0.00000000000E+00 0. -1.
          2   -1    0    0  501    0  0.00000000000E+00 -0.00000000000E+00 -0.25756386472E+03  0.25756386472E+03  0.00000000000E+00 0. -1.
         36    2    1    2    0    0  0.71054273576E-14 -0.14210854715E-13  0.71291932995E+03  0.12280470594E+04  0.99992280154E+03 0.  0.
         25    2    3    3    0    0 -0.19652906360E+02 -0.12167995283E+03  0.51784219697E+02  0.18292576868E+03  0.12485184736E+03 0.  0.
         35    2    3    3    0    0  0.19652906360E+02  0.12167995283E+03  0.66113511025E+03  0.10451212907E+04  0.79999164410E+03 0.  0.
         22    1    5    5    0    0 -0.46757964740E+02 -0.21958725222E+03  0.66032838256E+03  0.69745139001E+03  0.00000000000E+00 0.  1.
         22    1    5    5    0    0  0.66410871100E+02  0.34126720505E+03  0.80672769079E+00  0.34766990070E+03  0.00000000000E+00 0.  1.
          5    1    4    4  502    0 -0.47916224350E+02 -0.69378325752E+02 -0.22761602398E+02  0.87461403966E+02  0.47000000000E+01 0. -1.
         -5    1    4    4    0  502  0.28263317990E+02 -0.52301627074E+02  0.74545822095E+02  0.95464364714E+02  0.47000000000E+01 0. -1.
<mgrwt>
<rscale>  0 0.99992280E+03</rscale>
<asrwt>0</asrwt>
<pdfrwt beam="1">  1        2 0.39625210E-01 0.99992280E+03</pdfrwt>
<pdfrwt beam="2">  1       -2 0.14930511E+00 0.99992280E+03</pdfrwt>
<totfact> 0.44742750E+01</totfact>
</mgrwt>
</event>
<event>
 9    1  0.4321150E-036  0.1001401E+04  0.7818608E-02  0.8679705E-01
         -3   -1    0    0    0  501 -0.00000000000E+00  0.00000000000E+00  0.23813796480E+03  0.23813796480E+03  0.00000000000E+00 0. -1.
          3   -1    0    0  501    0  0.00000000000E+00 -0.00000000000E+00 -0.10527551778E+04  0.10527551778E+04  0.00000000000E+00 0. -1.
         36    2    1    2    0    0 -0.14210854715E-13 -0.14210854715E-13 -0.81461721300E+03  0.12908931426E+04  0.10014009696E+04 0.  0.
         25    2    3    3    0    0  0.42317109711E+02  0.40093386997E+02  0.11974930088E+02  0.13901083651E+03  0.12562800747E+03 0.  0.
         35    2    3    3    0    0 -0.42317109711E+02 -0.40093386997E+02 -0.82659214309E+03  0.11518823061E+04  0.80011252873E+03 0.  0.
         22    1    5    5    0    0 -0.21054238912E+03  0.19709947384E+03 -0.13906651406E+02  0.28873810826E+03  0.00000000000E+00 0.  1.
         22    1    5    5    0    0  0.16822527941E+03 -0.23719286084E+03 -0.81268549168E+03  0.86314419783E+03  0.00000000000E+00 0.  1.
          5    1    4    4  502    0  0.79729586387E+02  0.31617780643E+02 -0.20750212306E+02  0.88369408219E+02  0.47000000000E+01 0. -1.
         -5    1    4    4    0  502 -0.37412476676E+02  0.84756063543E+01  0.32725142395E+02  0.50641428286E+02  0.47000000000E+01 0. -1.
<mgrwt>
<rscale>  0 0.10014010E+04</rscale>
<asrwt>0</asrwt>
<pdfrwt beam="1">  1        3 0.16196234E+00 0.10014010E+04</pdfrwt>
<pdfrwt beam="2">  1       -3 0.36636609E-01 0.10014010E+04</pdfrwt>
<totfact> 0.80619378E+00</totfact>
</mgrwt>
</event>
<event>
 9    1  0.4321150E-036  0.1000512E+04  0.7818608E-02  0.8680550E-01
          1   -1    0    0  501    0  0.00000000000E+00  0.00000000000E+00  0.11735928897E+04  0.11735928897E+04  0.00000000000E+00 0.  1.
         -1   -1    0    0    0  501 -0.00000000000E+00 -0.00000000000E+00 -0.21323942532E+03  0.21323942532E+03  0.00000000000E+00 0.  1.
         36    2    1    2    0    0 -0.71054273576E-14  0.00000000000E+00  0.96035346440E+03  0.13868323150E+04  0.10005124155E+04 0.  0.
         25    2    3    3    0    0 -0.13018568817E+02 -0.33298867165E+02 -0.95390554574E+01  0.12945301748E+03  0.12405157181E+03 0.  0.
         35    2    3    3    0    0  0.13018568817E+02  0.33298867165E+02  0.96989251986E+03  0.12573792976E+04  0.79939533410E+03 0.  0.
         22    1    5    5    0    0  0.10505805502E+03  0.22090516733E+03  0.10146099560E+04  0.10436808184E+04  0.00000000000E+00 0.  1.
         22    1    5    5    0    0 -0.92039486199E+02 -0.18760630017E+03 -0.44717436186E+02  0.21369847913E+03  0.00000000000E+00 0.  1.
          5    1    4    4  502    0  0.23986171031E+02 -0.48195939573E+02  0.38857452392E+02  0.66559571802E+02  0.47000000000E+01 0. -1.
         -5    1    4    4    0  502 -0.37004739848E+02  0.14897072408E+02 -0.48396507849E+02  0.62893445680E+02  0.47000000000E+01 0. -1.
<mgrwt>
<rscale>  0 0.10005124E+04</rscale>
<asrwt>0</asrwt>
<pdfrwt beam="1">  1        1 0.18055275E+00 0.10005124E+04</pdfrwt>
<pdfrwt beam="2">  1       -1 0.32806066E-01 0.10005124E+04</pdfrwt>
<totfact> 0.10752173E+02</totfact>
</mgrwt>
</event>
<event>
 9    1  0.4321150E-036  0.1002877E+04  0.7818608E-02  0.8678303E-01
          1   -1    0    0  501    0  0.00000000000E+00  0.00000000000E+00  0.14854280963E+04  0.14854280963E+04  0.00000000000E+00 0. -1.
         -1   -1    0    0    0  501 -0.00000000000E+00 -0.00000000000E+00 -0.16927159697E+03  0.16927159697E+03  0.00000000000E+00 0. -1.
         36    2    1    2    0    0 -0.14210854715E-13  0.00000000000E+00  0.13161564994E+04  0.16546996933E+04  0.10028774323E+04 0.  0.
         25    2    3    3    0    0 -0.45730632680E+02 -0.32896800603E+02  0.35719781815E+02  0.14405589280E+03  0.12768205505E+03 0.  0.
         35    2    3    3    0    0  0.45730632680E+02  0.32896800603E+02  0.12804367175E+04  0.15106438005E+04  0.79959553159E+03 0.  0.
         22    1    5    5    0    0 -0.23166403285E+03 -0.15158790604E+03  0.10948222026E+04  0.11292841859E+04  0.00000000000E+00 0.  1.
         22    1    5    5    0    0  0.27739466553E+03  0.18448470665E+03  0.18561451497E+03  0.38135961456E+03  0.00000000000E+00 0.  1.
          5    1    4    4  502    0 -0.72831728947E+02  0.22923951818E+02  0.27472601110E+02  0.81282237420E+02  0.47000000000E+01 0. -1.
         -5    1    4    4    0  502  0.27101096266E+02 -0.55820752421E+02  0.82471807055E+01  0.62773655376E+02  0.47000000000E+01 0. -1.
<mgrwt>
<rscale>  0 0.10028774E+04</rscale>
<asrwt>0</asrwt>
<pdfrwt beam="1">  1        1 0.22852739E+00 0.10028774E+04</pdfrwt>
<pdfrwt beam="2">  1       -1 0.26041785E-01 0.10028774E+04</pdfrwt>
<totfact> 0.94478948E+01</totfact>
</mgrwt>
</event>
<event>
 9    1  0.4321150E-036  0.1000575E+04  0.7818608E-02  0.8680491E-01
          2   -1    0    0  501    0  0.00000000000E+00  0.00000000000E+00  0.21581317172E+04  0.21581317172E+04  0.00000000000E+00 0. -1.
         -2   -1    0    0    0  501 -0.00000000000E+00 -0.00000000000E+00 -0.11597414448E+03  0.11597414448E+03  0.00000000000E+00 0. -1.
         36    2    1    2    0    0  0.00000000000E+00  0.28421709430E-13  0.20421575728E+04  0.22741058617E+04  0.10005747939E+04 0.  0.
         25    2    3    3    0    0 -0.57584300716E+02  0.93887380195E+02  0.19227810629E+03  0.25540990289E+03  0.12701400116E+03 0.  0.
         35    2    3    3    0    0  0.57584300716E+02 -0.93887380195E+02  0.18498794665E+04  0.20186959588E+04  0.80059261914E+03 0.  0.
         22    1    5    5    0    0 -0.99850913746E+02 -0.27651645436E+03  0.21026210304E+03  0.36144391886E+03  0.00000000000E+00 0.  1.
         22    1    5    5    0    0  0.15743521446E+03  0.18262907416E+03  0.16396173634E+04  0.16572520400E+04  0.00000000000E+00 0.  1.
          5    1    4    4  502    0 -0.17998221966E+02 -0.19930503518E+02 -0.13510624344E+01  0.27296086425E+02  0.47000000000E+01 0. -1.
         -5    1    4    4    0  502 -0.39586078750E+02  0.11381788371E+03  0.19362916872E+03  0.22811381647E+03  0.47000000000E+01 0. -1.
<mgrwt>
<rscale>  0 0.10005748E+04</rscale>
<asrwt>0</asrwt>
<pdfrwt beam="1">  1        2 0.33202024E+00 0.10005748E+04</pdfrwt>
<pdfrwt beam="2">  1       -2 0.17842178E-01 0.10005748E+04</pdfrwt>
<totfact> 0.16552297E+02</totfact>
</mgrwt>
</event>
<event>
 9    1  0.4321150E-036  0.9984108E+03  0.7818608E-02  0.8682553E-01
          2   -1    0    0  501    0  0.00000000000E+00  0.00000000000E+00  0.16051969697E+04  0.16051969697E+04  0.00000000000E+00 0. -1.
         -2   -1    0    0    0  501 -0.00000000000E+00 -0.00000000000E+00 -0.15524950720E+03  0.15524950720E+03  0.00000000000E+00 0. -1.
         36    2    1    2    0    0  0.00000000000E+00 -0.14210854715E-13  0.14499474625E+04  0.17604464769E+04  0.99841081424E+03 0.  0.
         25    2    3    3    0    0 -0.22211012512E+02 -0.97324742343E+02  0.43537549406E+03  0.46397507340E+03  0.12552136614E+03 0.  0.
         35    2    3    3    0    0  0.22211012512E+02  0.97324742343E+02  0.10145719684E+04  0.12964714035E+04  0.80094718077E+03 0.  0.
         22    1    5    5    0    0 -0.37252345582E+03  0.41478754960E+02  0.30777828635E+03  0.48499658328E+03  0.00000000000E+00 0.  1.
         22    1    5    5    0    0  0.39473446833E+03  0.55845987383E+02  0.70679368205E+03  0.81147482018E+03  0.00000000000E+00 0.  1.
          5    1    4    4  502    0 -0.73524408890E+02 -0.71390289337E+02  0.28654527572E+03  0.30435620111E+03  0.47000000000E+01 0.  1.
         -5    1    4    4    0  502  0.51313396377E+02 -0.25934453006E+02  0.14883021834E+03  0.15961887229E+03  0.47000000000E+01 0.  1.
<mgrwt>
<rscale>  0 0.99841081E+03</rscale>
<asrwt>0</asrwt>
<pdfrwt beam="1">  1        2 0.24695337E+00 0.99841081E+03</pdfrwt>
<pdfrwt beam="2">  1       -2 0.23884541E-01 0.99841081E+03</pdfrwt>
<totfact> 0.20548749E+02</totfact>
</mgrwt>
</event>
<event>
 9    1  0.4321150E-036  0.1000387E+04  0.7818608E-02  0.8680669E-01
         -2   -1    0    0    0  501 -0.00000000000E+00  0.00000000000E+00  0.44765430499E+03  0.44765430499E+03  0.00000000000E+00 0. -1.
          2   -1    0    0  501    0  0.00000000000E+00 -0.00000000000E+00 -0.55889903235E+03  0.55889903235E+03  0.00000000000E+00 0. -1.
         36    2    1    2    0    0  0.14210854715E-13 -0.14210854715E-13 -0.11124472736E+03  0.10065533373E+04  0.10003870409E+04 0.  0.
         25    2    3    3    0    0  0.79414864791E+02 -0.24704745824E+02 -0.13695858349E+03  0.20345122265E+03  0.12537025640E+03 0.  0.
         35    2    3    3    0    0 -0.79414864791E+02  0.24704745824E+02  0.25713856128E+02  0.80310211470E+03  0.79837006395E+03 0.  0.
         22    1    5    5    0    0 -0.26854301677E+03  0.93812508241E+02 -0.30427336459E+03  0.41653141413E+03  0.00000000000E+00 0.  1.
         22    1    5    5    0    0  0.18912815198E+03 -0.69107762418E+02  0.32998722072E+03  0.38657070056E+03  0.00000000000E+00 0.  1.
          5    1    4    4  502    0  0.73716125011E+02  0.40758261035E+02 -0.71608788279E+02  0.11065808370E+03  0.47000000000E+01 0.  1.
         -5    1    4    4    0  502  0.56987397797E+01 -0.65463006859E+02 -0.65349795208E+02  0.92793138948E+02  0.47000000000E+01 0.  1.
<mgrwt>
<rscale>  0 0.10003870E+04</rscale>
<asrwt>0</asrwt>
<pdfrwt beam="1">  1        2 0.85984466E-01 0.10003870E+04</pdfrwt>
<pdfrwt beam="2">  1       -2 0.68869893E-01 0.10003870E+04</pdfrwt>
<totfact> 0.12584425E+02</totfact>
</mgrwt>
</event>
<event>
 9    1  0.4321150E-036  0.9999347E+03  0.7818608E-02  0.8681100E-01
         -1   -1    0    0    0  501 -0.00000000000E+00  0.00000000000E+00  0.37280727820E+03  0.37280727820E+03  0.00000000000E+00 0. -1.
          1   -1    0    0  501    0  0.00000000000E+00 -0.00000000000E+00 -0.67050022268E+03  0.67050022268E+03  0.00000000000E+00 0. -1.
         36    2    1    2    0    0  0.28421709430E-13 -0.39079850467E-13 -0.29769294449E+03  0.10433075009E+04  0.99993472397E+03 0.  0.
         25    2    3    3    0    0 -0.12748661482E+03  0.18750465292E+02  0.19649393150E+01  0.17913434836E+03  0.12442201119E+03 0.  0.
         35    2    3    3    0    0  0.12748661482E+03 -0.18750465292E+02 -0.29965788380E+03  0.86417315252E+03  0.80024744505E+03 0.  0.
         22    1    5    5    0    0 -0.11653630544E+03 -0.33479761725E+03  0.16480874903E+02  0.35488276126E+03  0.00000000000E+00 0.  1.
         22    1    5    5    0    0  0.24402292026E+03  0.31604715196E+03 -0.31613875870E+03  0.50929039126E+03  0.00000000000E+00 0.  1.
          5    1    4    4  502    0  0.61033400133E+01 -0.19044316157E+02 -0.30220207488E+02  0.36541588332E+02  0.47000000000E+01 0. -1.
         -5    1    4    4    0  502 -0.13358995483E+03  0.37794781449E+02  0.32185146803E+02  0.14259276003E+03  0.47000000000E+01 0. -1.
<mgrwt>
<rscale>  0 0.99993472E+03</rscale>
<asrwt>0</asrwt>
<pdfrwt beam="1">  1        1 0.10315388E+00 0.99993472E+03</pdfrwt>
<pdfrwt beam="2">  1       -1 0.57354966E-01 0.99993472E+03</pdfrwt>
<totfact> 0.10327572E+02</totfact>
</mgrwt>
</event>
<event>
 9    1  0.4321150E-036  0.1003186E+04  0.7818608E-02  0.8678010E-01
          1   -1    0    0  501    0  0.00000000000E+00  0.00000000000E+00  0.23223379656E+04  0.23223379656E+04  0.00000000000E+00 0.  1.
         -1   -1    0    0    0  501 -0.00000000000E+00 -0.00000000000E+00 -0.10833720887E+03  0.10833720887E+03  0.00000000000E+00 0.  1.
         36    2    1    2    0    0  0.00000000000E+00  0.00000000000E+00  0.22140007568E+04  0.24306751745E+04  0.10031861507E+04 0.  0.
         25    2    3    3    0    0 -0.26495761525E+02  0.14264872488E+03  0.41074942166E+03  0.45313997241E+03  0.12478005897E+03 0.  0.
         35    2    3    3    0    0  0.26495761525E+02 -0.14264872488E+03  0.18032513351E+04  0.19775352021E+04  0.79867353394E+03 0.  0.
         22    1    5    5    0    0  0.22316909033E+03 -0.31538864910E+03  0.16003921830E+04  0.16463686046E+04  0.00000000000E+00 0. -1.
         22    1    5    5    0    0 -0.19667332880E+03  0.17273992422E+03  0.20285915209E+03  0.33116659745E+03  0.00000000000E+00 0. -1.
          5    1    4    4  502    0 -0.69649764551E+02  0.12129277555E+03  0.33740959052E+03  0.36528119152E+03  0.47000000000E+01 0.  1.
         -5    1    4    4    0  502  0.43154003026E+02  0.21355949336E+02  0.73339831135E+02  0.87858780893E+02  0.47000000000E+01 0.  1.
<mgrwt>
<rscale>  0 0.10031862E+04</rscale>
<asrwt>0</asrwt>
<pdfrwt beam="1">  1        1 0.35728273E+00 0.10031862E+04</pdfrwt>
<pdfrwt beam="2">  1       -1 0.16667265E-01 0.10031862E+04</pdfrwt>
<totfact> 0.51006432E+01</totfact>
</mgrwt>
</event>
<event>
 9    1  0.4321150E-036  0.1001355E+04  0.7818608E-02  0.8679749E-01
         -2   -1    0    0    0  501 -0.00000000000E+00  0.00000000000E+00  0.10415332680E+03  0.10415332680E+03  0.00000000000E+00 0.  1.
          2   -1    0    0  501    0  0.00000000000E+00 -0.00000000000E+00 -0.24068173029E+04  0.24068173029E+04  0.00000000000E+00 0.  1.
         36    2    1    2    0    0  0.00000000000E+00  0.00000000000E+00 -0.23026639761E+04  0.25109706297E+04  0.10013551400E+04 0.  0.
         25    2    3    3    0    0 -0.10388329572E+03 -0.73824363372E+02 -0.55413170911E+03  0.58415432020E+03  0.13391244532E+03 0.  0.
         35    2    3    3    0    0  0.10388329572E+03  0.73824363372E+02 -0.17485322670E+04  0.19268163095E+04  0.79938365389E+03 0.  0.
         22    1    5    5    0    0 -0.33449308392E+03 -0.60890134509E+02 -0.90360253555E+03  0.96544848331E+03  0.00000000000E+00 0. -1.
         22    1    5    5    0    0  0.43837637964E+03  0.13471449788E+03 -0.84492973141E+03  0.96136782616E+03  0.00000000000E+00 0. -1.
          5    1    4    4  502    0 -0.15650285413E+02  0.33137913786E+02 -0.56213902705E+02  0.67269202619E+02  0.47000000000E+01 0.  1.
         -5    1    4    4    0  502 -0.88233010304E+02 -0.10696227716E+03 -0.49791780640E+03  0.51688511758E+03  0.47000000000E+01 0.  1.
<mgrwt>
<rscale>  0 0.10013551E+04</rscale>
<asrwt>0</asrwt>
<pdfrwt beam="1">  1        2 0.37027957E+00 0.10013551E+04</pdfrwt>
<pdfrwt beam="2">  1       -2 0.16023589E-01 0.10013551E+04</pdfrwt>
<totfact> 0.14184860E+02</totfact>
</mgrwt>
</event>
<event>
 9    1  0.4321150E-036  0.9997590E+03  0.7818608E-02  0.8681267E-01
         -4   -1    0    0    0  501 -0.00000000000E+00  0.00000000000E+00  0.19241864480E+03  0.19241864480E+03  0.00000000000E+00 0. -1.
          4   -1    0    0  501    0  0.00000000000E+00 -0.00000000000E+00 -0.12986242995E+04  0.12986242995E+04  0.00000000000E+00 0. -1.
         36    2    1    2    0    0  0.00000000000E+00 -0.21316282073E-13 -0.11062056547E+04  0.14910429443E+04  0.99975902660E+03 0.  0.
         25    2    3    3    0    0  0.86895286617E+02  0.18283797317E+02 -0.37032981921E+03  0.40015360953E+03  0.12285620923E+03 0.  0.
         35    2    3    3    0    0 -0.86895286617E+02 -0.18283797317E+02 -0.73587583552E+03  0.10908893348E+04  0.80040065429E+03 0.  0.
         22    1    5    5    0    0 -0.21704247317E+03 -0.26090568871E+03 -0.74153335360E+03  0.81550654692E+03  0.00000000000E+00 0.  1.
         22    1    5    5    0    0  0.13014718655E+03  0.24262189139E+03  0.56575180829E+01  0.27538278788E+03  0.00000000000E+00 0.  1.
          5    1    4    4  502    0 -0.77876152285E+01  0.50340260248E+02 -0.13858241536E+03  0.14772259340E+03  0.47000000000E+01 0.  1.
         -5    1    4    4    0  502  0.94682901846E+02 -0.32056462931E+02 -0.23174740384E+03  0.25243101613E+03  0.47000000000E+01 0.  1.
<mgrwt>
<rscale>  0 0.99975903E+03</rscale>
<asrwt>0</asrwt>
<pdfrwt beam="1">  1        4 0.19978836E+00 0.99975903E+03</pdfrwt>
<pdfrwt beam="2">  1       -4 0.29602868E-01 0.99975903E+03</pdfrwt>
<totfact> 0.25727926E+00</totfact>
</mgrwt>
</event>
<event>
 9    1  0.4321150E-036  0.9997785E+03  0.7818608E-02  0.8681249E-01
         -1   -1    0    0    0  501 -0.00000000000E+00  0.00000000000E+00  0.67357528427E+03  0.67357528427E+03  0.00000000000E+00 0.  1.
          1   -1    0    0  501    0  0.00000000000E+00 -0.00000000000E+00 -0.37098932823E+03  0.37098932823E+03  0.00000000000E+00 0.  1.
         36    2    1    2    0    0 -0.14210854715E-13  0.00000000000E+00  0.30258595604E+03  0.10445646125E+04  0.99977845991E+03 0.  0.
         25    2    3    3    0    0 -0.52856035414E+02 -0.10297825273E+03 -0.26220034877E+02  0.17207987446E+03  0.12460221487E+03 0.  0.
         35    2    3    3    0    0  0.52856035414E+02  0.10297825273E+03  0.32880599092E+03  0.87248473804E+03  0.79982370397E+03 0.  0.
         22    1    5    5    0    0 -0.33606693303E+03 -0.11606780975E+03  0.92286147531E+02  0.36732744651E+03  0.00000000000E+00 0. -1.
         22    1    5    5    0    0  0.38892296844E+03  0.21904606248E+03  0.23651984339E+03  0.50515729153E+03  0.00000000000E+00 0. -1.
          5    1    4    4  502    0 -0.23443052827E+02 -0.55791660269E+02 -0.76025462762E+02  0.97284361896E+02  0.47000000000E+01 0. -1.
         -5    1    4    4    0  502 -0.29412982586E+02 -0.47186592466E+02  0.49805427885E+02  0.74795512566E+02  0.47000000000E+01 0. -1.
<mgrwt>
<rscale>  0 0.99977846E+03</rscale>
<asrwt>0</asrwt>
<pdfrwt beam="1">  1        1 0.57075281E-01 0.99977846E+03</pdfrwt>
<pdfrwt beam="2">  1       -1 0.10362697E+00 0.99977846E+03</pdfrwt>
<totfact> 0.69866980E+01</totfact>
</mgrwt>
</event>
<event>
 9    1  0.4321150E-036  0.9991170E+03  0.7818608E-02  0.8681879E-01
          2   -1    0    0  501    0  0.00000000000E+00  0.00000000000E+00  0.46871428339E+03  0.46871428339E+03  0.00000000000E+00 0. -1.
         -2   -1    0    0    0  501 -0.00000000000E+00 -0.00000000000E+00 -0.53243249877E+03  0.53243249877E+03  0.00000000000E+00 0. -1.
         36    2    1    2    0    0  0.00000000000E+00  0.14210854715E-13 -0.63718215384E+02  0.10011467822E+04  0.99911704443E+03 0.  0.
         25    2    3    3    0    0  0.29198868355E+02  0.11497745947E+03  0.58934514870E+02  0.18248264210E+03  0.12551592539E+03 0.  0.
         35    2    3    3    0    0 -0.29198868355E+02 -0.11497745947E+03 -0.12265273025E+03  0.81866414006E+03  0.80068401501E+03 0.  0.
         22    1    5    5    0    0 -0.39912299389E+02  0.30141140204E+03  0.13091101178E+03  0.33102797152E+03  0.00000000000E+00 0. -1.
         22    1    5    5    0    0  0.10713431034E+02 -0.41638886151E+03 -0.25356374204E+03  0.48763616854E+03  0.00000000000E+00 0. -1.
          5    1    4    4  502    0  0.60180198678E+02  0.94689086239E+02  0.81599885180E+02  0.13881034049E+03  0.47000000000E+01 0.  1.
         -5    1    4    4    0  502 -0.30981330323E+02  0.20288373226E+02 -0.22665370310E+02  0.43672301611E+02  0.47000000000E+01 0.  1.
<mgrwt>
<rscale>  0 0.99911704E+03</rscale>
<asrwt>0</asrwt>
<pdfrwt beam="1">  1        2 0.72109890E-01 0.99911704E+03</pdfrwt>
<pdfrwt beam="2">  1       -2 0.81912692E-01 0.99911704E+03</pdfrwt>
<totfact> 0.10461906E+02</totfact>
</mgrwt>
</event>
<event>
 9    1  0.4321150E-036  0.1000035E+04  0.7818608E-02  0.8681004E-01
         -1   -1    0    0    0  501 -0.00000000000E+00  0.00000000000E+00  0.22941983968E+03  0.22941983968E+03  0.00000000000E+00 0.  1.
          1   -1    0    0  501    0  0.00000000000E+00 -0.00000000000E+00 -0.10897825896E+04  0.10897825896E+04  0.00000000000E+00 0.  1.
         36    2    1    2    0    0 -0.14210854715E-13  0.14210854715E-13 -0.86036274992E+03  0.13192024293E+04  0.10000354933E+04 0.  0.
         25    2    3    3    0    0 -0.12190857253E+03 -0.67145024949E+02 -0.16584351877E+03  0.25024138929E+03  0.12548516152E+03 0.  0.
         35    2    3    3    0    0  0.12190857253E+03  0.67145024949E+02 -0.69451923115E+03  0.10689610400E+04  0.80059389714E+03 0.  0.
         22    1    5    5    0    0  0.20237207953E+03  0.74699514818E+02 -0.85901370579E+03  0.88568562302E+03  0.00000000000E+00 0.  1.
         22    1    5    5    0    0 -0.80463506993E+02 -0.75544898692E+01  0.16449447464E+03  0.18327541696E+03  0.00000000000E+00 0.  1.
          5    1    4    4  502    0 -0.11577678820E+03 -0.52139185791E+02 -0.18517640091E+03  0.22457771223E+03  0.47000000000E+01 0. -1.
         -5    1    4    4    0  502 -0.61317843389E+01 -0.15005839158E+02  0.19332882139E+02  0.25663677052E+02  0.47000000000E+01 0. -1.
<mgrwt>
<rscale>  0 0.10000355E+04</rscale>
<asrwt>0</asrwt>
<pdfrwt beam="1">  1        1 0.16765886E+00 0.10000355E+04</pdfrwt>
<pdfrwt beam="2">  1       -1 0.35295361E-01 0.10000355E+04</pdfrwt>
<totfact> 0.10965238E+02</totfact>
</mgrwt>
</event>
<event>
 9    1  0.4321150E-036  0.1000958E+04  0.7818608E-02  0.8680126E-01
         -1   -1    0    0    0  501 -0.00000000000E+00  0.00000000000E+00  0.15522716782E+03  0.15522716782E+03  0.00000000000E+00 0. -1.
          1   -1    0    0  501    0  0.00000000000E+00 -0.00000000000E+00 -0.16136295930E+04  0.16136295930E+04  0.00000000000E+00 0. -1.
         36    2    1    2    0    0  0.00000000000E+00  0.14210854715E-13 -0.14584024252E+04  0.17688567609E+04  0.10009578445E+04 0.  0.
         25    2    3    3    0    0  0.66875038063E+02  0.11970543864E+03 -0.22140018459E+03  0.28968651041E+03  0.12688013957E+03 0.  0.
         35    2    3    3    0    0 -0.66875038063E+02 -0.11970543864E+03 -0.12370022406E+04  0.14791702505E+04  0.79935500483E+03 0.  0.
         22    1    5    5    0    0  0.24019926406E+01  0.64700323261E+02  0.10469050683E+03  0.12309347512E+03  0.00000000000E+00 0. -1.
         22    1    5    5    0    0 -0.69277030704E+02 -0.18440576190E+03 -0.13416927475E+04  0.13560767753E+04  0.00000000000E+00 0. -1.
          5    1    4    4  502    0 -0.69519330792E+01  0.10255182802E+02 -0.12609904187E+03  0.12679336146E+03  0.47000000000E+01 0. -1.
         -5    1    4    4    0  502  0.73826971142E+02  0.10945025584E+03 -0.95301142721E+02  0.16289314895E+03  0.47000000000E+01 0. -1.
<mgrwt>
<rscale>  0 0.10009578E+04</rscale>
<asrwt>0</asrwt>
<pdfrwt beam="1">  1        1 0.24825073E+00 0.10009578E+04</pdfrwt>
<pdfrwt beam="2">  1       -1 0.23881100E-01 0.10009578E+04</pdfrwt>
<totfact> 0.88627990E+01</totfact>
</mgrwt>
</event>
<event>
 9    1  0.4321150E-036  0.1000730E+04  0.7818608E-02  0.8680343E-01
         -2   -1    0    0    0  501 -0.00000000000E+00  0.00000000000E+00  0.17069625918E+03  0.17069625918E+03  0.00000000000E+00 0. -1.
          2   -1    0    0  501    0  0.00000000000E+00 -0.00000000000E+00 -0.14667282334E+04  0.14667282334E+04  0.00000000000E+00 0. -1.
         36    2    1    2    0    0  0.00000000000E+00  0.00000000000E+00 -0.12960319742E+04  0.16374244926E+04  0.10007297791E+04 0.  0.
         25    2    3    3    0    0  0.96950363524E+02  0.69434269252E+02 -0.12210854566E+03  0.21204027376E+03  0.12581768572E+03 0.  0.
         35    2    3    3    0    0 -0.96950363524E+02 -0.69434269252E+02 -0.11739234286E+04  0.14253842188E+04  0.79962707833E+03 0.  0.
         22    1    5    5    0    0 -0.14645845967E+03  0.36918676250E+02 -0.12667909445E+04  0.12757634445E+04  0.00000000000E+00 0.  1.
         22    1    5    5    0    0  0.49508096145E+02 -0.10635294550E+03  0.92867515963E+02  0.14962077437E+03  0.00000000000E+00 0.  1.
          5    1    4    4  502    0  0.10266896313E+02 -0.79665394038E+00 -0.96911369608E+02  0.97570217673E+02  0.47000000000E+01 0.  1.
         -5    1    4    4    0  502  0.86683467211E+02  0.70230923192E+02 -0.25197176052E+02  0.11447005609E+03  0.47000000000E+01 0.  1.
<mgrwt>
<rscale>  0 0.10007298E+04</rscale>
<asrwt>0</asrwt>
<pdfrwt beam="1">  1        2 0.22565050E+00 0.10007298E+04</pdfrwt>
<pdfrwt beam="2">  1       -2 0.26260962E-01 0.10007298E+04</pdfrwt>
<totfact> 0.20794610E+02</totfact>
</mgrwt>
</event>
<event>
 9    1  0.4321150E-036  0.9977784E+03  0.7818608E-02  0.8683157E-01
         -1   -1    0    0    0  501 -0.00000000000E+00  0.00000000000E+00  0.14169181642E+03  0.14169181642E+03  0.00000000000E+00 0.  1.
          1   -1    0    0  501    0  0.00000000000E+00 -0.00000000000E+00 -0.17565616507E+04  0.17565616507E+04  0.00000000000E+00 0.  1.
         36    2    1    2    0    0  0.71054273576E-14  0.14210854715E-13 -0.16148698343E+04  0.18982534672E+04  0.99777835403E+03 0.  0.
         25    2    3    3    0    0 -0.21414678104E+02 -0.99666350822E+02 -0.49716697185E+03  0.52255190074E+03  0.12447297353E+03 0.  0.
         35    2    3    3    0    0  0.21414678104E+02  0.99666350822E+02 -0.11177028625E+04  0.13757015664E+04  0.79555209833E+03 0.  0.
         22    1    5    5    0    0  0.19025247129E+03 -0.15222843595E+03 -0.10322919728E+04  0.10606583883E+04  0.00000000000E+00 0. -1.
         22    1    5    5    0    0 -0.16883779318E+03  0.25189478678E+03 -0.85410889669E+02  0.31504317813E+03  0.00000000000E+00 0. -1.
          5    1    4    4  502    0  0.30257154169E+02  0.15664995906E+02 -0.11051298542E+03  0.11574151123E+03  0.47000000000E+01 0.  1.
         -5    1    4    4    0  502 -0.51671832273E+02 -0.11533134673E+03 -0.38665398643E+03  0.40681038951E+03  0.47000000000E+01 0.  1.
<mgrwt>
<rscale>  0 0.99777835E+03</rscale>
<asrwt>0</asrwt>
<pdfrwt beam="1">  1        1 0.27024024E+00 0.99777835E+03</pdfrwt>
<pdfrwt beam="2">  1       -1 0.21798742E-01 0.99777835E+03</pdfrwt>
<totfact> 0.81839472E+01</totfact>
</mgrwt>
</event>
<event>
 9    1  0.4321150E-036  0.9993592E+03  0.7818608E-02  0.8681648E-01
         -2   -1    0    0    0  501 -0.00000000000E+00  0.00000000000E+00  0.17002252894E+03  0.17002252894E+03  0.00000000000E+00 0.  1.
          2   -1    0    0  501    0  0.00000000000E+00 -0.00000000000E+00 -0.14685094467E+04  0.14685094467E+04  0.00000000000E+00 0.  1.
         36    2    1    2    0    0  0.28421709430E-13 -0.14210854715E-13 -0.12984869178E+04  0.16385319756E+04  0.99935917446E+03 0.  0.
         25    2    3    3    0    0 -0.34230768510E+02 -0.10795950842E+03 -0.10736974878E+03  0.19955807814E+03  0.12437106829E+03 0.  0.
         35    2    3    3    0    0  0.34230768510E+02  0.10795950842E+03 -0.11911171690E+04  0.14389738975E+04  0.79941151259E+03 0.  0.
         22    1    5    5    0    0  0.34198203987E+03 -0.13087753887E+03 -0.83255320475E+03  0.90951937006E+03  0.00000000000E+00 0. -1.
         22    1    5    5    0    0 -0.30775127136E+03  0.23883704729E+03 -0.35856396424E+03  0.52945452745E+03  0.00000000000E+00 0. -1.
          5    1    4    4  502    0  0.27961454358E+02 -0.44590531557E+02  0.84835901710E+01  0.53518405587E+02  0.47000000000E+01 0.  1.
         -5    1    4    4    0  502 -0.62192222868E+02 -0.63368976861E+02 -0.11585333895E+03  0.14603967255E+03  0.47000000000E+01 0.  1.
<mgrwt>
<rscale>  0 0.99935917E+03</rscale>
<asrwt>0</asrwt>
<pdfrwt beam="1">  1        2 0.22592453E+00 0.99935917E+03</pdfrwt>
<pdfrwt beam="2">  1       -2 0.26157312E-01 0.99935917E+03</pdfrwt>
<totfact> 0.20893451E+02</totfact>
</mgrwt>
</event>
<event>
 9    1  0.4321150E-036  0.1001444E+04  0.7818608E-02  0.8679664E-01
         -2   -1    0    0    0  501 -0.00000000000E+00  0.00000000000E+00  0.84925989594E+02  0.84925989594E+02  0.00000000000E+00 0. -1.
          2   -1    0    0  501    0  0.00000000000E+00 -0.00000000000E+00 -0.29522455238E+04  0.29522455238E+04  0.00000000000E+00 0. -1.
         36    2    1    2    0    0  0.28421709430E-13 -0.21316282073E-13 -0.28673195342E+04  0.30371715133E+04  0.10014437031E+04 0.  0.
         25    2    3    3    0    0 -0.11628540913E+03 -0.14475526354E+01 -0.29672167835E+03  0.34257330339E+03  0.12565158975E+03 0.  0.
         35    2    3    3    0    0  0.11628540913E+03  0.14475526354E+01 -0.25705978558E+04  0.26945982100E+04  0.79960101615E+03 0.  0.
         22    1    5    5    0    0 -0.32411396085E+03  0.12812264293E+03 -0.11849146679E+04  0.12351064899E+04  0.00000000000E+00 0.  1.
         22    1    5    5    0    0  0.44039936999E+03 -0.12667509029E+03 -0.13856831879E+04  0.14594917200E+04  0.00000000000E+00 0.  1.
          5    1    4    4  502    0 -0.61435215079E+02 -0.57025361842E+02 -0.98204768953E+02  0.12919924222E+03  0.47000000000E+01 0. -1.
         -5    1    4    4    0  502 -0.54850194055E+02  0.55577809206E+02 -0.19851690939E+03  0.21337406117E+03  0.47000000000E+01 0. -1.
<mgrwt>
<rscale>  0 0.10014437E+04</rscale>
<asrwt>0</asrwt>
<pdfrwt beam="1">  1        2 0.45419151E+00 0.10014437E+04</pdfrwt>
<pdfrwt beam="2">  1       -2 0.13065540E-01 0.10014437E+04</pdfrwt>
<totfact> 0.90612277E+01</totfact>
</mgrwt>
</event>
<event>
 9    1  0.4321150E-036  0.9990678E+03  0.7818608E-02  0.8681926E-01
         -1   -1    0    0    0  501 -0.00000000000E+00  0.00000000000E+00  0.12470229836E+03  0.12470229836E+03  0.00000000000E+00 0.  1.
          1   -1    0    0  501    0  0.00000000000E+00 -0.00000000000E+00 -0.20010384747E+04  0.20010384747E+04  0.00000000000E+00 0.  1.
         36    2    1    2    0    0  0.14210854715E-13 -0.14210854715E-13 -0.18763361763E+04  0.21257407730E+04  0.99906775925E+03 0.  0.
         25    2    3    3    0    0 -0.94275563458E+02  0.82202092368E+02 -0.21635797418E+03  0.27941872223E+03  0.12497593162E+03 0.  0.
         35    2    3    3    0    0  0.94275563458E+02 -0.82202092368E+02 -0.16599782021E+04  0.18463220508E+04  0.79858150358E+03 0.  0.
         22    1    5    5    0    0 -0.29840480536E+03  0.71358677734E+02 -0.11197816476E+04  0.11610548768E+04  0.00000000000E+00 0.  1.
         22    1    5    5    0    0  0.39268036882E+03 -0.15356077010E+03 -0.54019655453E+03  0.68526717395E+03  0.00000000000E+00 0.  1.
          5    1    4    4  502    0 -0.93803373274E+02  0.22187184666E+01 -0.92052220870E+02  0.13152831222E+03  0.47000000000E+01 0.  1.
         -5    1    4    4    0  502 -0.47219018398E+00  0.79983373901E+02 -0.12430575331E+03  0.14789041000E+03  0.47000000000E+01 0.  1.
<mgrwt>
<rscale>  0 0.99906776E+03</rscale>
<asrwt>0</asrwt>
<pdfrwt beam="1">  1        1 0.30785207E+00 0.99906776E+03</pdfrwt>
<pdfrwt beam="2">  1       -1 0.19184969E-01 0.99906776E+03</pdfrwt>
<totfact> 0.68110803E+01</totfact>
</mgrwt>
</event>
<event>
 9    1  0.4321150E-036  0.9996137E+03  0.7818608E-02  0.8681406E-01
          2   -1    0    0  501    0  0.00000000000E+00  0.00000000000E+00  0.20324974519E+03  0.20324974519E+03  0.00000000000E+00 0.  1.
         -2   -1    0    0    0  501 -0.00000000000E+00 -0.00000000000E+00 -0.12290637359E+04  0.12290637359E+04  0.00000000000E+00 0.  1.
         36    2    1    2    0    0  0.00000000000E+00  0.00000000000E+00 -0.10258139908E+04  0.14323134811E+04  0.99961370769E+03 0.  0.
         25    2    3    3    0    0 -0.12652938309E+03  0.38856708913E+02 -0.14132305225E+03  0.23408347352E+03  0.13154215622E+03 0.  0.
         35    2    3    3    0    0  0.12652938309E+03 -0.38856708913E+02 -0.88449093850E+03  0.11982300076E+04  0.79744053211E+03 0.  0.
         22    1    5    5    0    0 -0.54138052849E+02 -0.37851506717E+03 -0.62999740720E+03  0.73695408128E+03  0.00000000000E+00 0.  1.
         22    1    5    5    0    0  0.18066743593E+03  0.33965835826E+03 -0.25449353130E+03  0.46127592634E+03  0.00000000000E+00 0.  1.
          5    1    4    4  502    0 -0.10923166356E+03  0.57822751698E+02 -0.15982642688E+03  0.20209305695E+03  0.47000000000E+01 0. -1.
         -5    1    4    4    0  502 -0.17297719527E+02 -0.18966042785E+02  0.18503374625E+02  0.31990416569E+02  0.47000000000E+01 0. -1.
<mgrwt>
<rscale>  0 0.99961371E+03</rscale>
<asrwt>0</asrwt>
<pdfrwt beam="1">  1        2 0.31269191E-01 0.99961371E+03</pdfrwt>
<pdfrwt beam="2">  1       -2 0.18908673E+00 0.99961371E+03</pdfrwt>
<totfact> 0.29296227E+01</totfact>
</mgrwt>
</event>
<event>
 9    1  0.4321150E-036  0.1005949E+04  0.7818608E-02  0.8675393E-01
          2   -1    0    0  501    0  0.00000000000E+00  0.00000000000E+00  0.87232816687E+03  0.87232816687E+03  0.00000000000E+00 0. -1.
         -2   -1    0    0    0  501 -0.00000000000E+00 -0.00000000000E+00 -0.29000947764E+03  0.29000947764E+03  0.00000000000E+00 0. -1.
         36    2    1    2    0    0  0.14210854715E-13 -0.14210854715E-13  0.58231868923E+03  0.11623376445E+04  0.10059491757E+04 0.  0.
         25    2    3    3    0    0  0.12108165170E+03  0.31914619329E+02  0.19955560087E+03  0.26668485989E+03  0.12497626717E+03 0.  0.
         35    2    3    3    0    0 -0.12108165170E+03 -0.31914619329E+02  0.38276308836E+03  0.89565278462E+03  0.80000438716E+03 0.  0.
         22    1    5    5    0    0 -0.71100684503E+02  0.14197626722E+03 -0.21717197844E+03  0.26902831823E+03  0.00000000000E+00 0. -1.
         22    1    5    5    0    0 -0.49980967194E+02 -0.17389088655E+03  0.59993506680E+03  0.62662446639E+03  0.00000000000E+00 0. -1.
          5    1    4    4  502    0  0.45100045066E+02  0.75172228284E+02  0.82207081133E+02  0.12027041265E+03  0.47000000000E+01 0.  1.
         -5    1    4    4    0  502  0.75981606632E+02 -0.43257608955E+02  0.11734851973E+03  0.14641444725E+03  0.47000000000E+01 0.  1.
<mgrwt>
<rscale>  0 0.10059492E+04</rscale>
<asrwt>0</asrwt>
<pdfrwt beam="1">  1        2 0.13420433E+00 0.10059492E+04</pdfrwt>
<pdfrwt beam="2">  1       -2 0.44616843E-01 0.10059492E+04</pdfrwt>
<totfact> 0.17661846E+02</totfact>
</mgrwt>
</event>
<event>
 9    1  0.4321150E-036  0.9990613E+03  0.7818608E-02  0.8681932E-01
         -3   -1    0    0    0  501 -0.00000000000E+00  0.00000000000E+00  0.60384496581E+02  0.60384496581E+02  0.00000000000E+00 0. -1.
          3   -1    0    0  501    0  0.00000000000E+00 -0.00000000000E+00 -0.41323663944E+04  0.41323663944E+04  0.00000000000E+00 0. -1.
         36    2    1    2    0    0 -0.28421709430E-13  0.00000000000E+00 -0.40719818978E+04  0.41927508909E+04  0.99906128823E+03 0.  0.
         25    2    3    3    0    0 -0.13096113254E+03 -0.49009264531E+02 -0.71922841120E+03  0.74319461554E+03  0.12448294198E+03 0.  0.
         35    2    3    3    0    0  0.13096113254E+03  0.49009264531E+02 -0.33527534866E+04  0.34495562754E+04  0.79933086337E+03 0.  0.
         22    1    5    5    0    0 -0.20606655436E+03 -0.15756990722E+03 -0.44526169808E+03  0.51531512715E+03  0.00000000000E+00 0.  1.
         22    1    5    5    0    0  0.33702768690E+03  0.20657917175E+03 -0.29074917885E+04  0.29342411482E+04  0.00000000000E+00 0.  1.
          5    1    4    4  502    0 -0.34127325541E+02 -0.42687987636E+02 -0.82341216219E+02  0.98939903605E+02  0.47000000000E+01 0.  1.
         -5    1    4    4    0  502 -0.96833807003E+02 -0.63212768954E+01 -0.63688719498E+03  0.64425471194E+03  0.47000000000E+01 0.  1.
<mgrwt>
<rscale>  0 0.99906129E+03</rscale>
<asrwt>0</asrwt>
<pdfrwt beam="1">  1        3 0.63574855E+00 0.99906129E+03</pdfrwt>
<pdfrwt beam="2">  1       -3 0.92899244E-02 0.99906129E+03</pdfrwt>
<totfact> 0.13277257E+00</totfact>
</mgrwt>
</event>
<event>
 9    1  0.4321150E-036  0.1000232E+04  0.7818608E-02  0.8680817E-01
          2   -1    0    0  501    0  0.00000000000E+00  0.00000000000E+00  0.55796102680E+03  0.55796102680E+03  0.00000000000E+00 0. -1.
         -2   -1    0    0    0  501 -0.00000000000E+00 -0.00000000000E+00 -0.44826833266E+03  0.44826833266E+03  0.00000000000E+00 0. -1.
         36    2    1    2    0    0  0.28421709430E-13  0.17763568394E-14  0.10969269413E+03  0.10062293595E+04  0.10002324913E+04 0.  0.
         25    2    3    3    0    0  0.14130756118E+03  0.15396542852E+02  0.35991485814E+02  0.19079031581E+03  0.12206832995E+03 0.  0.
         35    2    3    3    0    0 -0.14130756118E+03 -0.15396542852E+02  0.73701208319E+02  0.81543904366E+03  0.79956493509E+03 0.  0.
         22    1    5    5    0    0 -0.39402714160E+03  0.12158804127E+03 -0.16266262681E+03  0.44328339722E+03  0.00000000000E+00 0. -1.
         22    1    5    5    0    0  0.25271958041E+03 -0.13698458412E+03  0.23636383513E+03  0.37215564643E+03  0.00000000000E+00 0. -1.
          5    1    4    4  502    0 -0.44821347203E+01  0.15044518819E+02 -0.27255984280E+02  0.31802606139E+02  0.47000000000E+01 0. -1.
         -5    1    4    4    0  502  0.14578969590E+03  0.35202403330E+00  0.63247470095E+02  0.15898770967E+03  0.47000000000E+01 0. -1.
<mgrwt>
<rscale>  0 0.10002325E+04</rscale>
<asrwt>0</asrwt>
<pdfrwt beam="1">  1        2 0.85840158E-01 0.10002325E+04</pdfrwt>
<pdfrwt beam="2">  1       -2 0.68964359E-01 0.10002325E+04</pdfrwt>
<totfact> 0.12571872E+02</totfact>
</mgrwt>
</event>
<event>
 9    1  0.4321150E-036  0.9998319E+03  0.7818608E-02  0.8681198E-01
         -2   -1    0    0    0  501 -0.00000000000E+00  0.00000000000E+00  0.12484497546E+03  0.12484497546E+03  0.00000000000E+00 0.  1.
          2   -1    0    0  501    0  0.00000000000E+00 -0.00000000000E+00 -0.20018102669E+04  0.20018102669E+04  0.00000000000E+00 0.  1.
         36    2    1    2    0    0 -0.71054273576E-14  0.56843418861E-13 -0.18769652914E+04  0.21266552424E+04  0.99983189316E+03 0.  0.
         25    2    3    3    0    0 -0.23642300771E+02  0.13103805463E+03 -0.25775369540E+03  0.31605043889E+03  0.12538334132E+03 0.  0.
         35    2    3    3    0    0  0.23642300771E+02 -0.13103805463E+03 -0.16192115960E+04  0.18106048035E+04  0.79919561526E+03 0.  0.
         22    1    5    5    0    0 -0.68518586890E+02 -0.45225639276E+03 -0.73921508897E+03  0.86929257980E+03  0.00000000000E+00 0. -1.
         22    1    5    5    0    0  0.92160887662E+02  0.32121833813E+03 -0.87999650708E+03  0.94131222367E+03  0.00000000000E+00 0. -1.
          5    1    4    4  502    0 -0.36745295667E+02  0.53229751734E+02 -0.21825720885E+03  0.22768821322E+03  0.47000000000E+01 0. -1.
         -5    1    4    4    0  502  0.13102994896E+02  0.77808302901E+02 -0.39496486549E+02  0.88362225670E+02  0.47000000000E+01 0. -1.
<mgrwt>
<rscale>  0 0.99983189E+03</rscale>
<asrwt>0</asrwt>
<pdfrwt beam="1">  1        2 0.30797080E+00 0.99983189E+03</pdfrwt>
<pdfrwt beam="2">  1       -2 0.19206920E-01 0.99983189E+03</pdfrwt>
<totfact> 0.17933382E+02</totfact>
</mgrwt>
</event>
<event>
 9    1  0.4321150E-036  0.9995892E+03  0.7818608E-02  0.8681429E-01
         -2   -1    0    0    0  501 -0.00000000000E+00  0.00000000000E+00  0.11912282547E+03  0.11912282547E+03  0.00000000000E+00 0. -1.
          2   -1    0    0  501    0  0.00000000000E+00 -0.00000000000E+00 -0.20969502835E+04  0.20969502835E+04  0.00000000000E+00 0. -1.
         36    2    1    2    0    0 -0.14210854715E-13  0.00000000000E+00 -0.19778274581E+04  0.22160731090E+04  0.99958920092E+03 0.  0.
         25    2    3    3    0    0 -0.35263496817E+01 -0.93475335304E+02 -0.59867861568E+03  0.61876240705E+03  0.12530266577E+03 0.  0.
         35    2    3    3    0    0  0.35263496817E+01  0.93475335304E+02 -0.13791488424E+04  0.15973107020E+04  0.80037483450E+03 0.  0.
         22    1    5    5    0    0  0.28951599471E+03  0.31644800306E+03 -0.89445373447E+03  0.99197093351E+03  0.00000000000E+00 0.  1.
         22    1    5    5    0    0 -0.28598964502E+03 -0.22297266776E+03 -0.48469510792E+03  0.60533976846E+03  0.00000000000E+00 0.  1.
          5    1    4    4  502    0 -0.63026695790E+02 -0.54692553268E+02 -0.36694670304E+03  0.37634507123E+03  0.47000000000E+01 0.  1.
         -5    1    4    4    0  502  0.59500346109E+02 -0.38782782036E+02 -0.23173191264E+03  0.24241733582E+03  0.47000000000E+01 0.  1.
<mgrwt>
<rscale>  0 0.99958920E+03</rscale>
<asrwt>0</asrwt>
<pdfrwt beam="1">  1        2 0.32260772E+00 0.99958920E+03</pdfrwt>
<pdfrwt beam="2">  1       -2 0.18326589E-01 0.99958920E+03</pdfrwt>
<totfact> 0.17149275E+02</totfact>
</mgrwt>
</event>
<event>
 9    1  0.4321150E-036  0.1000916E+04  0.7818608E-02  0.8680166E-01
         -2   -1    0    0    0  501 -0.00000000000E+00  0.00000000000E+00  0.34183324483E+03  0.34183324483E+03  0.00000000000E+00 0. -1.
          2   -1    0    0  501    0  0.00000000000E+00 -0.00000000000E+00 -0.73269082879E+03  0.73269082879E+03  0.00000000000E+00 0. -1.
         36    2    1    2    0    0 -0.24868995752E-13  0.00000000000E+00 -0.39085758396E+03  0.10745240736E+04  0.10009157476E+04 0.  0.
         25    2    3    3    0    0 -0.15583223437E+02 -0.86807424663E+02  0.42379838193E+02  0.15973393829E+03  0.12625575047E+03 0.  0.
         35    2    3    3    0    0  0.15583223437E+02  0.86807424663E+02 -0.43323742216E+03  0.91479013533E+03  0.80085451981E+03 0.  0.
         22    1    5    5    0    0 -0.34522125295E+03  0.19197885721E+03 -0.35461346073E+03  0.53083359128E+03  0.00000000000E+00 0.  1.
         22    1    5    5    0    0  0.36080447639E+03 -0.10517143255E+03 -0.78623961431E+02  0.38395654405E+03  0.00000000000E+00 0.  1.
          5    1    4    4  502    0 -0.26095872376E+02  0.27554535528E+02  0.35191895724E+01  0.38402105131E+02  0.47000000000E+01 0.  1.
         -5    1    4    4    0  502  0.10512648939E+02 -0.11436196019E+03  0.38860648621E+02  0.12133183316E+03  0.47000000000E+01 0.  1.
<mgrwt>
<rscale>  0 0.10009157E+04</rscale>
<asrwt>0</asrwt>
<pdfrwt beam="1">  1        2 0.11272167E+00 0.10009157E+04</pdfrwt>
<pdfrwt beam="2">  1       -2 0.52589730E-01 0.10009157E+04</pdfrwt>
<totfact> 0.15960568E+02</totfact>
</mgrwt>
</event>
<event>
 9    1  0.4321150E-036  0.9997115E+03  0.7818608E-02  0.8681313E-01
          2   -1    0    0  501    0  0.00000000000E+00  0.00000000000E+00  0.16799257532E+04  0.16799257532E+04  0.00000000000E+00 0. -1.
         -2   -1    0    0    0  501 -0.00000000000E+00 -0.00000000000E+00 -0.14873023832E+03  0.14873023832E+03  0.00000000000E+00 0. -1.
         36    2    1    2    0    0 -0.71054273576E-14  0.28421709430E-13  0.15311955149E+04  0.18286559915E+04  0.99971147363E+03 0.  0.
         25    2    3    3    0    0 -0.84043384192E+01 -0.89494324123E+02  0.82969549218E+02  0.17158676717E+03  0.12032541550E+03 0.  0.
         35    2    3    3    0    0  0.84043384192E+01  0.89494324123E+02  0.14482259657E+04  0.16570692244E+04  0.80027501504E+03 0.  0.
         22    1    5    5    0    0 -0.26606017085E+03  0.34074484084E+03  0.73925742725E+03  0.85638578037E+03  0.00000000000E+00 0.  1.
         22    1    5    5    0    0  0.27446450927E+03 -0.25125051672E+03  0.70896853843E+03  0.80068344399E+03  0.00000000000E+00 0.  1.
          5    1    4    4  502    0  0.44590859313E+02 -0.67131760993E+00  0.37700210699E+02  0.58584906660E+02  0.47000000000E+01 0.  1.
         -5    1    4    4    0  502 -0.52995197732E+02 -0.88823006513E+02  0.45269338518E+02  0.11300186051E+03  0.47000000000E+01 0.  1.
<mgrwt>
<rscale>  0 0.99971147E+03</rscale>
<asrwt>0</asrwt>
<pdfrwt beam="1">  1        2 0.25845010E+00 0.99971147E+03</pdfrwt>
<pdfrwt beam="2">  1       -2 0.22881576E-01 0.99971147E+03</pdfrwt>
<totfact> 0.20112207E+02</totfact>
</mgrwt>
</event>
<event>
 9    1  0.4321150E-036  0.9992503E+03  0.7818608E-02  0.8681752E-01
         -1   -1    0    0    0  501 -0.00000000000E+00  0.00000000000E+00  0.15704555475E+04  0.15704555475E+04  0.00000000000E+00 0. -1.
          1   -1    0    0  501    0  0.00000000000E+00 -0.00000000000E+00 -0.15895087026E+03  0.15895087026E+03  0.00000000000E+00 0. -1.
         36    2    1    2    0    0 -0.14210854715E-13  0.71054273576E-14  0.14115046773E+04  0.17294064178E+04  0.99925027091E+03 0.  0.
         25    2    3    3    0    0 -0.66122026148E+02 -0.58599779903E-02  0.52530197004E+02  0.15086659991E+03  0.12501674685E+03 0.  0.
         35    2    3    3    0    0  0.66122026148E+02  0.58599779903E-02  0.13589744803E+04  0.15785398179E+04  0.80037753357E+03 0.  0.
         22    1    5    5    0    0 -0.12455149624E+03  0.36799480290E+03  0.64235221335E+03  0.75069941799E+03  0.00000000000E+00 0. -1.
         22    1    5    5    0    0  0.19067352239E+03 -0.36798894292E+03  0.71662226690E+03  0.82784039988E+03  0.00000000000E+00 0. -1.
          5    1    4    4  502    0  0.67093562836E+01  0.44094106815E+02  0.47677909654E+02  0.65456693978E+02  0.47000000000E+01 0. -1.
         -5    1    4    4    0  502 -0.72831382432E+02 -0.44099966793E+02  0.48522873503E+01  0.85409905928E+02  0.47000000000E+01 0. -1.
<mgrwt>
<rscale>  0 0.99925027E+03</rscale>
<asrwt>0</asrwt>
<pdfrwt beam="1">  1        1 0.24453981E-01 0.99925027E+03</pdfrwt>
<pdfrwt beam="2">  1       -1 0.24160854E+00 0.99925027E+03</pdfrwt>
<totfact> 0.13505950E+01</totfact>
</mgrwt>
</event>
<event>
 9    1  0.4321150E-036  0.9994515E+03  0.7818608E-02  0.8681560E-01
          1   -1    0    0  501    0  0.00000000000E+00  0.00000000000E+00  0.67433391813E+03  0.67433391813E+03  0.00000000000E+00 0. -1.
         -1   -1    0    0    0  501 -0.00000000000E+00 -0.00000000000E+00 -0.37032963681E+03  0.37032963681E+03  0.00000000000E+00 0. -1.
         36    2    1    2    0    0  0.71054273576E-14  0.56843418861E-13  0.30400428131E+03  0.10446635549E+04  0.99945151957E+03 0.  0.
         25    2    3    3    0    0  0.10531716603E+02  0.13424543925E+03  0.81727352127E+02  0.20120156703E+03  0.12517969275E+03 0.  0.
         35    2    3    3    0    0 -0.10531716603E+02 -0.13424543925E+03  0.22227692918E+03  0.84346198791E+03  0.80242653046E+03 0.  0.
         22    1    5    5    0    0  0.12421399316E+03  0.29369880272E+03 -0.43738374450E+02  0.32187132245E+03  0.00000000000E+00 0. -1.
         22    1    5    5    0    0 -0.13474570976E+03 -0.42794424197E+03  0.26601530363E+03  0.52159066546E+03  0.00000000000E+00 0. -1.
          5    1    4    4  502    0  0.44838846133E+02  0.61410122359E+02 -0.12470159381E+02  0.77196632865E+02  0.47000000000E+01 0.  1.
         -5    1    4    4    0  502 -0.34307129530E+02  0.72835316888E+02  0.94197511509E+02  0.12400493416E+03  0.47000000000E+01 0.  1.
<mgrwt>
<rscale>  0 0.99945152E+03</rscale>
<asrwt>0</asrwt>
<pdfrwt beam="1">  1        1 0.10374368E+00 0.99945152E+03</pdfrwt>
<pdfrwt beam="2">  1       -1 0.56973791E-01 0.99945152E+03</pdfrwt>
<totfact> 0.10369897E+02</totfact>
</mgrwt>
</event>
<event>
 9    1  0.4321150E-036  0.9997136E+03  0.7818608E-02  0.8681311E-01
          2   -1    0    0  501    0  0.00000000000E+00  0.00000000000E+00  0.31949350970E+04  0.31949350970E+04  0.00000000000E+00 0.  1.
         -2   -1    0    0    0  501 -0.00000000000E+00 -0.00000000000E+00 -0.78204043552E+02  0.78204043552E+02  0.00000000000E+00 0.  1.
         36    2    1    2    0    0  0.00000000000E+00 -0.28421709430E-13  0.31167310534E+04  0.32731391405E+04  0.99971364594E+03 0.  0.
         25    2    3    3    0    0  0.74874516528E+02 -0.73066641429E+02  0.89292397296E+03  0.90763086054E+03  0.12464200816E+03 0.  0.
         35    2    3    3    0    0 -0.74874516528E+02  0.73066641429E+02  0.22238070805E+04  0.23655082800E+04  0.79960400466E+03 0.  0.
         22    1    5    5    0    0  0.86295378126E+02 -0.33550336381E+03  0.12522983281E+04  0.12993307901E+04  0.00000000000E+00 0. -1.
         22    1    5    5    0    0 -0.16116989465E+03  0.40857000524E+03  0.97150875233E+03  0.10661774899E+04  0.00000000000E+00 0. -1.
          5    1    4    4  502    0  0.79142584967E+02 -0.84968132087E+02  0.88365578193E+03  0.89126469871E+03  0.47000000000E+01 0.  1.
         -5    1    4    4    0  502 -0.42680684398E+01  0.11901490658E+02  0.92681910313E+01  0.16366161831E+02  0.47000000000E+01 0.  1.
<mgrwt>
<rscale>  0 0.99971365E+03</rscale>
<asrwt>0</asrwt>
<pdfrwt beam="1">  1        2 0.49152838E+00 0.99971365E+03</pdfrwt>
<pdfrwt beam="2">  1       -2 0.12031394E-01 0.99971365E+03</pdfrwt>
<totfact> 0.71047940E+01</totfact>
</mgrwt>
</event>
<event>
 9    1  0.4321150E-036  0.1001539E+04  0.7818608E-02  0.8679574E-01
         -2   -1    0    0    0  501 -0.00000000000E+00  0.00000000000E+00  0.16622376430E+03  0.16622376430E+03  0.00000000000E+00 0. -1.
          2   -1    0    0  501    0  0.00000000000E+00 -0.00000000000E+00 -0.15086300966E+04  0.15086300966E+04  0.00000000000E+00 0. -1.
         36    2    1    2    0    0 -0.71054273576E-14  0.28421709430E-13 -0.13424063323E+04  0.16748538609E+04  0.10015391627E+04 0.  0.
         25    2    3    3    0    0 -0.60184189950E+02  0.94133529313E+02 -0.39895772331E+03  0.43262240986E+03  0.12454568023E+03 0.  0.
         35    2    3    3    0    0  0.60184189950E+02 -0.94133529313E+02 -0.94344860898E+03  0.12422314510E+04  0.80035019966E+03 0.  0.
         22    1    5    5    0    0 -0.88811225996E+01 -0.32131192135E+03 -0.59433613126E+02  0.32688312821E+03  0.00000000000E+00 0. -1.
         22    1    5    5    0    0  0.69065312550E+02  0.22717839203E+03 -0.88401499586E+03  0.91534832283E+03  0.00000000000E+00 0. -1.
          5    1    4    4  502    0 -0.10552700397E+02  0.35021904590E+02 -0.13166687597E+02  0.39157948734E+02  0.47000000000E+01 0.  1.
         -5    1    4    4    0  502 -0.49631489553E+02  0.59111624723E+02 -0.38579103571E+03  0.39346446112E+03  0.47000000000E+01 0.  1.
<mgrwt>
<rscale>  0 0.10015392E+04</rscale>
<asrwt>0</asrwt>
<pdfrwt beam="1">  1        2 0.23209695E+00 0.10015392E+04</pdfrwt>
<pdfrwt beam="2">  1       -2 0.25572886E-01 0.10015392E+04</pdfrwt>
<totfact> 0.20642930E+02</totfact>
</mgrwt>
</event>
<event>
 9    1  0.4321150E-036  0.1000123E+04  0.7818608E-02  0.8680921E-01
          2   -1    0    0  501    0  0.00000000000E+00  0.00000000000E+00  0.14052194207E+04  0.14052194207E+04  0.00000000000E+00 0.  1.
         -2   -1    0    0    0  501 -0.00000000000E+00 -0.00000000000E+00 -0.17795186215E+03  0.17795186215E+03  0.00000000000E+00 0.  1.
         36    2    1    2    0    0  0.00000000000E+00 -0.35527136788E-14  0.12272675585E+04  0.15831712828E+04  0.10001228177E+04 0.  0.
         25    2    3    3    0    0 -0.13416355530E+03 -0.31346033219E+02  0.21217754963E+03  0.28213891144E+03  0.12490243957E+03 0.  0.
         35    2    3    3    0    0  0.13416355530E+03  0.31346033219E+02  0.10150900089E+04  0.13010323714E+04  0.80205677598E+03 0.  0.
         22    1    5    5    0    0 -0.77471337425E+01 -0.18491635832E+03 -0.60547179758E+02  0.19473068231E+03  0.00000000000E+00 0. -1.
         22    1    5    5    0    0  0.14191068904E+03  0.21626239154E+03  0.10756371887E+04  0.11063016891E+04  0.00000000000E+00 0. -1.
          5    1    4    4  502    0 -0.12871812113E+02 -0.38092124258E+02  0.35012197457E+01  0.40633016345E+02  0.47000000000E+01 0.  1.
         -5    1    4    4    0  502 -0.12129174318E+03  0.67460910394E+01  0.20867632989E+03  0.24150589509E+03  0.47000000000E+01 0.  1.
<mgrwt>
<rscale>  0 0.10001228E+04</rscale>
<asrwt>0</asrwt>
<pdfrwt beam="1">  1        2 0.21618760E+00 0.10001228E+04</pdfrwt>
<pdfrwt beam="2">  1       -2 0.27377210E-01 0.10001228E+04</pdfrwt>
<totfact> 0.20921024E+02</totfact>
</mgrwt>
</event>
<event>
 9    1  0.4321150E-036  0.1000082E+04  0.7818608E-02  0.8680960E-01
          1   -1    0    0  501    0  0.00000000000E+00  0.00000000000E+00  0.37170994616E+03  0.37170994616E+03  0.00000000000E+00 0.  1.
         -1   -1    0    0    0  501 -0.00000000000E+00 -0.00000000000E+00 -0.67267810288E+03  0.67267810288E+03  0.00000000000E+00 0.  1.
         36    2    1    2    0    0 -0.35527136788E-14  0.00000000000E+00 -0.30096815671E+03  0.10443880490E+04  0.10000822794E+04 0.  0.
         25    2    3    3    0    0  0.24524109032E+02  0.79134773547E+02 -0.16335465466E+03  0.22225693429E+03  0.12589542220E+03 0.  0.
         35    2    3    3    0    0 -0.24524109032E+02 -0.79134773547E+02 -0.13761350205E+03  0.82213111476E+03  0.80628676635E+03 0.  0.
         22    1    5    5    0    0 -0.10635511657E+03 -0.10797354991E+03 -0.46206142054E+03  0.48628227878E+03  0.00000000000E+00 0. -1.
         22    1    5    5    0    0  0.81831007541E+02  0.28838776360E+02  0.32444791849E+03  0.33584883598E+03  0.00000000000E+00 0. -1.
          5    1    4    4  502    0  0.56213051709E+02  0.74572987793E+02 -0.16522040561E+03  0.18984443664E+03  0.47000000000E+01 0. -1.
         -5    1    4    4    0  502 -0.31688942677E+02  0.45617857542E+01  0.18657509507E+01  0.32412497649E+02  0.47000000000E+01 0. -1.
<mgrwt>
<rscale>  0 0.10000823E+04</rscale>
<asrwt>0</asrwt>
<pdfrwt beam="1">  1        1 0.57186146E-01 0.10000823E+04</pdfrwt>
<pdfrwt beam="2">  1       -1 0.10348894E+00 0.10000823E+04</pdfrwt>
<totfact> 0.69896463E+01</totfact>
</mgrwt>
</event>
<event>
 9    1  0.4321150E-036  0.9996232E+03  0.7818608E-02  0.8681397E-01
         -1   -1    0    0    0  501 -0.00000000000E+00  0.00000000000E+00  0.37170917768E+03  0.37170917768E+03  0.00000000000E+00 0. -1.
          1   -1    0    0  501    0  0.00000000000E+00 -0.00000000000E+00 -0.67206212012E+03  0.67206212012E+03  0.00000000000E+00 0. -1.
         36    2    1    2    0    0  0.14210854715E-13 -0.71054273576E-14 -0.30035294244E+03  0.10437712978E+04  0.99962324506E+03 0.  0.
         25    2    3    3    0    0 -0.66346593165E+02 -0.13875680886E+02 -0.18454852673E+03  0.23302657258E+03  0.12509524317E+03 0.  0.
         35    2    3    3    0    0  0.66346593165E+02  0.13875680886E+02 -0.11580441571E+03  0.81074472522E+03  0.79956359461E+03 0.  0.
         22    1    5    5    0    0  0.15816566042E+03 -0.27679076950E+03  0.19637764254E+03  0.37442447129E+03  0.00000000000E+00 0.  1.
         22    1    5    5    0    0 -0.91819067254E+02  0.29066645038E+03 -0.31218205825E+03  0.43632025392E+03  0.00000000000E+00 0.  1.
          5    1    4    4  502    0 -0.18889780935E+02  0.54714407169E+02 -0.86908727276E+02  0.10452610704E+03  0.47000000000E+01 0.  1.
         -5    1    4    4    0  502 -0.47456812230E+02 -0.68590088055E+02 -0.97639799454E+02  0.12850046554E+03  0.47000000000E+01 0.  1.
<mgrwt>
<rscale>  0 0.99962325E+03</rscale>
<asrwt>0</asrwt>
<pdfrwt beam="1">  1        1 0.10339417E+00 0.99962325E+03</pdfrwt>
<pdfrwt beam="2">  1       -1 0.57186028E-01 0.99962325E+03</pdfrwt>
<totfact> 0.10349475E+02</totfact>
</mgrwt>
</event>
<event>
 9    1  0.4321150E-036  0.1000773E+04  0.7818608E-02  0.8680302E-01
         -1   -1    0    0    0  501 -0.00000000000E+00  0.00000000000E+00  0.62791020530E+02  0.62791020530E+02  0.00000000000E+00 0. -1.
          1   -1    0    0  501    0  0.00000000000E+00 -0.00000000000E+00 -0.39876167376E+04  0.39876167376E+04  0.00000000000E+00 0. -1.
         36    2    1    2    0    0 -0.14210854715E-13  0.00000000000E+00 -0.39248257170E+04  0.40504077581E+04  0.10007727503E+04 0.  0.
         25    2    3    3    0    0 -0.12524269224E+03 -0.53059238920E+02 -0.87924360320E+03  0.89860472012E+03  0.12617493594E+03 0.  0.
         35    2    3    3    0    0  0.12524269224E+03  0.53059238920E+02 -0.30455821138E+04  0.31518030380E+04  0.79986934139E+03 0.  0.
         22    1    5    5    0    0  0.24858669535E+03 -0.31640140233E+03 -0.18894973610E+04  0.19318658002E+04  0.00000000000E+00 0.  1.
         22    1    5    5    0    0 -0.12334400311E+03  0.36946064125E+03 -0.11560847528E+04  0.12199372378E+04  0.00000000000E+00 0.  1.
          5    1    4    4  502    0 -0.14629107298E+03 -0.59344356745E+02 -0.68011106992E+03  0.69820912923E+03  0.47000000000E+01 0. -1.
         -5    1    4    4    0  502  0.21048380741E+02  0.62851178251E+01 -0.19913253328E+03  0.20039559089E+03  0.47000000000E+01 0. -1.
<mgrwt>
<rscale>  0 0.10007728E+04</rscale>
<asrwt>0</asrwt>
<pdfrwt beam="1">  1        1 0.61347952E+00 0.10007728E+04</pdfrwt>
<pdfrwt beam="2">  1       -1 0.96601567E-02 0.10007728E+04</pdfrwt>
<totfact> 0.75149134E+00</totfact>
</mgrwt>
</event>
<event>
 9    1  0.4321150E-036  0.1000887E+04  0.7818608E-02  0.8680194E-01
          1   -1    0    0  501    0  0.00000000000E+00  0.00000000000E+00  0.18377337273E+04  0.18377337273E+04  0.00000000000E+00 0.  1.
         -1   -1    0    0    0  501 -0.00000000000E+00 -0.00000000000E+00 -0.13627854173E+03  0.13627854173E+03  0.00000000000E+00 0.  1.
         36    2    1    2    0    0  0.00000000000E+00  0.14210854715E-13  0.17014551856E+04  0.19740122690E+04  0.10008869515E+04 0.  0.
         25    2    3    3    0    0  0.96591222582E+02 -0.10166894335E+03  0.29356265694E+03  0.34876318312E+03  0.12565940487E+03 0.  0.
         35    2    3    3    0    0 -0.96591222582E+02  0.10166894335E+03  0.14078925286E+04  0.16252490859E+04  0.79975420019E+03 0.  0.
         22    1    5    5    0    0  0.28058120174E+03  0.27713750351E+03  0.73607892616E+03  0.83507077075E+03  0.00000000000E+00 0.  1.
         22    1    5    5    0    0 -0.37717242432E+03 -0.17546856016E+03  0.67181360246E+03  0.79017831514E+03  0.00000000000E+00 0.  1.
          5    1    4    4  502    0 -0.19609481140E+02 -0.42428001007E+02  0.13758561980E+03  0.14538418000E+03  0.47000000000E+01 0.  1.
         -5    1    4    4    0  502  0.11620070372E+03 -0.59240942344E+02  0.15597703714E+03  0.20337900312E+03  0.47000000000E+01 0.  1.
<mgrwt>
<rscale>  0 0.10008870E+04</rscale>
<asrwt>0</asrwt>
<pdfrwt beam="1">  1        1 0.28272825E+00 0.10008870E+04</pdfrwt>
<pdfrwt beam="2">  1       -1 0.20965931E-01 0.10008870E+04</pdfrwt>
<totfact> 0.76549293E+01</totfact>
</mgrwt>
</event>
<event>
 9    1  0.4321150E-036  0.1001176E+04  0.7818608E-02  0.8679919E-01
         -2   -1    0    0    0  501 -0.00000000000E+00  0.00000000000E+00  0.16827159215E+04  0.16827159215E+04  0.00000000000E+00 0. -1.
          2   -1    0    0  501    0  0.00000000000E+00 -0.00000000000E+00 -0.14891884692E+03  0.14891884692E+03  0.00000000000E+00 0. -1.
         36    2    1    2    0    0 -0.14210854715E-13 -0.21316282073E-13  0.15337970746E+04  0.18316347684E+04  0.10011755385E+04 0.  0.
         25    2    3    3    0    0 -0.84362925082E+02  0.39294447544E+02  0.48552964598E+03  0.51000337013E+03  0.12531258389E+03 0.  0.
         35    2    3    3    0    0  0.84362925082E+02 -0.39294447544E+02  0.10482674286E+04  0.13216313983E+04  0.79948970871E+03 0.  0.
         22    1    5    5    0    0 -0.11723664810E+03  0.29755817953E+03  0.17589549380E+03  0.36499935151E+03  0.00000000000E+00 0. -1.
         22    1    5    5    0    0  0.20159957318E+03 -0.33685262708E+03  0.87237193479E+03  0.95663204676E+03  0.00000000000E+00 0. -1.
          5    1    4    4  502    0 -0.11358760031E+03  0.49188354982E+02  0.36262183260E+03  0.38319488604E+03  0.47000000000E+01 0. -1.
         -5    1    4    4    0  502  0.29224675231E+02 -0.98939074386E+01  0.12290781338E+03  0.12680848409E+03  0.47000000000E+01 0. -1.
<mgrwt>
<rscale>  0 0.10011755E+04</rscale>
<asrwt>0</asrwt>
<pdfrwt beam="1">  1        2 0.22910593E-01 0.10011755E+04</pdfrwt>
<pdfrwt beam="2">  1       -2 0.25887936E+00 0.10011755E+04</pdfrwt>
<totfact> 0.14727166E+01</totfact>
</mgrwt>
</event>
<event>
 9    1  0.4321150E-036  0.1000214E+04  0.7818608E-02  0.8680834E-01
          2   -1    0    0  501    0  0.00000000000E+00  0.00000000000E+00  0.14692545771E+04  0.14692545771E+04  0.00000000000E+00 0. -1.
         -2   -1    0    0    0  501 -0.00000000000E+00 -0.00000000000E+00 -0.17022713382E+03  0.17022713382E+03  0.00000000000E+00 0. -1.
         36    2    1    2    0    0  0.28421709430E-13  0.00000000000E+00  0.12990274433E+04  0.16394817109E+04  0.10002139681E+04 0.  0.
         25    2    3    3    0    0  0.35757822357E+02 -0.62690610146E+02  0.47853713677E+02  0.15287836473E+03  0.12598842023E+03 0.  0.
         35    2    3    3    0    0 -0.35757822357E+02  0.62690610146E+02  0.12511737296E+04  0.14866033462E+04  0.79959056573E+03 0.  0.
         22    1    5    5    0    0  0.30308598880E+03  0.86900925928E+02  0.10396843444E+04  0.10864420939E+04  0.00000000000E+00 0. -1.
         22    1    5    5    0    0 -0.33884381116E+03 -0.24210315782E+02  0.21148938525E+03  0.40016125228E+03  0.00000000000E+00 0. -1.
          5    1    4    4  502    0 -0.33577313253E+02 -0.67379423226E+02  0.21842992813E+02  0.78527886605E+02  0.47000000000E+01 0. -1.
         -5    1    4    4    0  502  0.69335135610E+02  0.46888130806E+01  0.26010720864E+02  0.74350478129E+02  0.47000000000E+01 0. -1.
<mgrwt>
<rscale>  0 0.10002140E+04</rscale>
<asrwt>0</asrwt>
<pdfrwt beam="1">  1        2 0.22603916E+00 0.10002140E+04</pdfrwt>
<pdfrwt beam="2">  1       -2 0.26188791E-01 0.10002140E+04</pdfrwt>
<totfact> 0.20828257E+02</totfact>
</mgrwt>
</event>
<event>
 9    1  0.4321150E-036  0.1007008E+04  0.7818608E-02  0.8674393E-01
         -1   -1    0    0    0  501 -0.00000000000E+00  0.00000000000E+00  0.83248219317E+02  0.83248219317E+02  0.00000000000E+00 0. -1.
          1   -1    0    0  501    0  0.00000000000E+00 -0.00000000000E+00 -0.30453041312E+04  0.30453041312E+04  0.00000000000E+00 0. -1.
         36    2    1    2    0    0  0.35527136788E-14  0.56843418861E-13 -0.29620559119E+04  0.31285523505E+04  0.10070077382E+04 0.  0.
         25    2    3    3    0    0  0.70704898603E+01  0.14550003891E+03 -0.47030004407E+03  0.50818752630E+03  0.12590542990E+03 0.  0.
         35    2    3    3    0    0 -0.70704898603E+01 -0.14550003891E+03 -0.24917558678E+04  0.26203648242E+04  0.79764920491E+03 0.  0.
         22    1    5    5    0    0  0.12643107793E+02  0.25875711651E+03 -0.32247027299E+03  0.41364498121E+03  0.00000000000E+00 0.  1.
         22    1    5    5    0    0 -0.19713597653E+02 -0.40425715542E+03 -0.21692855948E+04  0.22067198430E+04  0.00000000000E+00 0.  1.
          5    1    4    4  502    0 -0.88001049016E+01 -0.90780520599E+01 -0.68143663513E+00  0.13505822129E+02  0.47000000000E+01 0.  1.
         -5    1    4    4    0  502  0.15870594762E+02  0.15457809097E+03 -0.46961860744E+03  0.49468170417E+03  0.47000000000E+01 0.  1.
<mgrwt>
<rscale>  0 0.10070077E+04</rscale>
<asrwt>0</asrwt>
<pdfrwt beam="1">  1        1 0.46850828E+00 0.10070077E+04</pdfrwt>
<pdfrwt beam="2">  1       -1 0.12807420E-01 0.10070077E+04</pdfrwt>
<totfact> 0.23918768E+01</totfact>
</mgrwt>
</event>
<event>
 9    1  0.4321150E-036  0.9992037E+03  0.7818608E-02  0.8681797E-01
          2   -1    0    0  501    0  0.00000000000E+00  0.00000000000E+00  0.16397129508E+04  0.16397129508E+04  0.00000000000E+00 0. -1.
         -2   -1    0    0    0  501 -0.00000000000E+00 -0.00000000000E+00 -0.15222299458E+03  0.15222299458E+03  0.00000000000E+00 0. -1.
         36    2    1    2    0    0  0.28421709430E-13 -0.28421709430E-13  0.14874899562E+04  0.17919359453E+04  0.99920371421E+03 0.  0.
         25    2    3    3    0    0 -0.66521881433E+02  0.10031792614E+03  0.39715580048E+03  0.43344829695E+03  0.12512333617E+03 0.  0.
         35    2    3    3    0    0  0.66521881433E+02 -0.10031792614E+03  0.10903341557E+04  0.13584876484E+04  0.80135589644E+03 0.  0.
         22    1    5    5    0    0 -0.16197603378E+03  0.28160331007E+03  0.67785626411E+03  0.75168196370E+03  0.00000000000E+00 0.  1.
         22    1    5    5    0    0  0.22849791521E+03 -0.38192123621E+03  0.41247789158E+03  0.60680568469E+03  0.00000000000E+00 0.  1.
          5    1    4    4  502    0 -0.65003217776E+01  0.11196508062E+03  0.26171785655E+03  0.28477492849E+03  0.47000000000E+01 0. -1.
         -5    1    4    4    0  502 -0.60021559656E+02 -0.11647154474E+02  0.13543794394E+03  0.14867336846E+03  0.47000000000E+01 0. -1.
<mgrwt>
<rscale>  0 0.99920371E+03</rscale>
<asrwt>0</asrwt>
<pdfrwt beam="1">  1        2 0.25226352E+00 0.99920371E+03</pdfrwt>
<pdfrwt beam="2">  1       -2 0.23418923E-01 0.99920371E+03</pdfrwt>
<totfact> 0.20342498E+02</totfact>
</mgrwt>
</event>
<event>
 9    1  0.4321150E-036  0.9999855E+03  0.7818608E-02  0.8681052E-01
         -2   -1    0    0    0  501 -0.00000000000E+00  0.00000000000E+00  0.45911793519E+03  0.45911793519E+03  0.00000000000E+00 0.  1.
          2   -1    0    0  501    0  0.00000000000E+00 -0.00000000000E+00 -0.54450661562E+03  0.54450661562E+03  0.00000000000E+00 0.  1.
         36    2    1    2    0    0  0.00000000000E+00  0.00000000000E+00 -0.85388680423E+02  0.10036245508E+04  0.99998550602E+03 0.  0.
         25    2    3    3    0    0  0.69969456362E+02 -0.40482273378E+02  0.98232543916E+02  0.17901680087E+03  0.12594777898E+03 0.  0.
         35    2    3    3    0    0 -0.69969456362E+02  0.40482273378E+02 -0.18362122434E+03  0.82460774994E+03  0.79982913672E+03 0.  0.
         22    1    5    5    0    0 -0.34746469954E+03  0.17528574298E+03  0.10399253276E+03  0.40282906547E+03  0.00000000000E+00 0.  1.
         22    1    5    5    0    0  0.27749524318E+03 -0.13480346960E+03 -0.28761375709E+03  0.42177868447E+03  0.00000000000E+00 0.  1.
          5    1    4    4  502    0 -0.90649008765E+01  0.15594848592E+02  0.77623995289E+02  0.79830735779E+02  0.47000000000E+01 0.  1.
         -5    1    4    4    0  502  0.79034357238E+02 -0.56077121970E+02  0.20608548627E+02  0.99186065095E+02  0.47000000000E+01 0.  1.
<mgrwt>
<rscale>  0 0.99998551E+03</rscale>
<asrwt>0</asrwt>
<pdfrwt beam="1">  1        2 0.83770248E-01 0.99998551E+03</pdfrwt>
<pdfrwt beam="2">  1       -2 0.70633529E-01 0.99998551E+03</pdfrwt>
<totfact> 0.12280194E+02</totfact>
</mgrwt>
</event>
<event>
 9    1  0.4321150E-036  0.1004299E+04  0.7818608E-02  0.8676955E-01
         -2   -1    0    0    0  501 -0.00000000000E+00  0.00000000000E+00  0.29717478250E+03  0.29717478250E+03  0.00000000000E+00 0.  1.
          2   -1    0    0  501    0  0.00000000000E+00 -0.00000000000E+00 -0.84850443105E+03  0.84850443105E+03  0.00000000000E+00 0.  1.
         36    2    1    2    0    0  0.14210854715E-13  0.14210854715E-13 -0.55132964854E+03  0.11456792136E+04  0.10042989988E+04 0.  0.
         25    2    3    3    0    0 -0.69072514875E+02 -0.12496496837E+03 -0.12040708371E+03  0.22457649738E+03  0.12469756106E+03 0.  0.
         35    2    3    3    0    0  0.69072514875E+02  0.12496496837E+03 -0.43092256483E+03  0.92110271617E+03  0.80146659396E+03 0.  0.
         22    1    5    5    0    0 -0.12039945643E+03  0.19452177067E+03  0.17140520749E+03  0.28585747065E+03  0.00000000000E+00 0.  1.
         22    1    5    5    0    0  0.18947197130E+03 -0.69556802299E+02 -0.60232777232E+03  0.63524524552E+03  0.00000000000E+00 0.  1.
          5    1    4    4  502    0  0.13917912347E+02 -0.21055353892E+02 -0.82225637918E+02  0.86140476796E+02  0.47000000000E+01 0.  1.
         -5    1    4    4    0  502 -0.82990427222E+02 -0.10390961448E+03 -0.38181445797E+02  0.13843602058E+03  0.47000000000E+01 0.  1.
<mgrwt>
<rscale>  0 0.10042990E+04</rscale>
<asrwt>0</asrwt>
<pdfrwt beam="1">  1        2 0.13053914E+00 0.10042990E+04</pdfrwt>
<pdfrwt beam="2">  1       -2 0.45719197E-01 0.10042990E+04</pdfrwt>
<totfact> 0.17471283E+02</totfact>
</mgrwt>
</event>
<event>
 9    1  0.4321150E-036  0.1000087E+04  0.7818608E-02  0.8680955E-01
          2   -1    0    0  501    0  0.00000000000E+00  0.00000000000E+00  0.10032054310E+04  0.10032054310E+04  0.00000000000E+00 0. -1.
         -2   -1    0    0    0  501 -0.00000000000E+00 -0.00000000000E+00 -0.24924463683E+03  0.24924463683E+03  0.00000000000E+00 0. -1.
         36    2    1    2    0    0 -0.71054273576E-14  0.00000000000E+00  0.75396079419E+03  0.12524500679E+04  0.10000871429E+04 0.  0.
         25    2    3    3    0    0 -0.48102574368E+02 -0.12893276820E+03  0.10744644982E+03  0.21472687713E+03  0.12500150321E+03 0.  0.
         35    2    3    3    0    0  0.48102574368E+02  0.12893276820E+03  0.64651434437E+03  0.10377231907E+04  0.79996944112E+03 0.  0.
         22    1    5    5    0    0  0.24846476215E+03  0.31024078664E+03  0.73527343963E+02  0.40421572710E+03  0.00000000000E+00 0. -1.
         22    1    5    5    0    0 -0.20036218778E+03 -0.18130801844E+03  0.57298700041E+03  0.63350746363E+03  0.00000000000E+00 0. -1.
          5    1    4    4  502    0 -0.50394524667E+02  0.51403909260E+01  0.20529196135E+02  0.54859544559E+02  0.47000000000E+01 0.  1.
         -5    1    4    4    0  502  0.22919502989E+01 -0.13407315912E+03  0.86917253684E+02  0.15986733257E+03  0.47000000000E+01 0.  1.
<mgrwt>
<rscale>  0 0.10000871E+04</rscale>
<asrwt>0</asrwt>
<pdfrwt beam="1">  1        2 0.15433929E+00 0.10000871E+04</pdfrwt>
<pdfrwt beam="2">  1       -2 0.38345329E-01 0.10000871E+04</pdfrwt>
<totfact> 0.19461161E+02</totfact>
</mgrwt>
</event>
<event>
 9    1  0.4321150E-036  0.1000144E+04  0.7818608E-02  0.8680901E-01
          1   -1    0    0  501    0  0.00000000000E+00  0.00000000000E+00  0.10818573398E+04  0.10818573398E+04  0.00000000000E+00 0.  1.
         -1   -1    0    0    0  501 -0.00000000000E+00 -0.00000000000E+00 -0.23115048947E+03  0.23115048947E+03  0.00000000000E+00 0.  1.
         36    2    1    2    0    0 -0.14210854715E-13  0.14210854715E-13  0.85070685038E+03  0.13130078293E+04  0.10001436970E+04 0.  0.
         25    2    3    3    0    0  0.67295941605E+02 -0.10238678646E+03  0.69313601796E+02  0.18846313769E+03  0.12530834399E+03 0.  0.
         35    2    3    3    0    0 -0.67295941605E+02  0.10238678646E+03  0.78139324858E+03  0.11245446916E+04  0.79938323522E+03 0.  0.
         22    1    5    5    0    0  0.24221232435E+03  0.66944176724E+02 -0.32199069967E+02  0.25334781028E+03  0.00000000000E+00 0.  1.
         22    1    5    5    0    0 -0.30950826596E+03  0.35442609736E+02  0.81359231855E+03  0.87119688135E+03  0.00000000000E+00 0.  1.
          5    1    4    4  502    0  0.43067601180E+02  0.19172650292E+02  0.21909015150E+01  0.47426773452E+02  0.47000000000E+01 0.  1.
         -5    1    4    4    0  502  0.24228340424E+02 -0.12155943675E+03  0.67122700281E+02  0.14103636423E+03  0.47000000000E+01 0.  1.
<mgrwt>
<rscale>  0 0.10001437E+04</rscale>
<asrwt>0</asrwt>
<pdfrwt beam="1">  1        1 0.16643959E+00 0.10001437E+04</pdfrwt>
<pdfrwt beam="2">  1       -1 0.35561614E-01 0.10001437E+04</pdfrwt>
<totfact> 0.10975405E+02</totfact>
</mgrwt>
</event>
<event>
 9    1  0.4321150E-036  0.9952538E+03  0.7818608E-02  0.8685571E-01
          2   -1    0    0  501    0  0.00000000000E+00  0.00000000000E+00  0.15564676051E+04  0.15564676051E+04  0.00000000000E+00 0. -1.
         -2   -1    0    0    0  501 -0.00000000000E+00 -0.00000000000E+00 -0.15909906468E+03  0.15909906468E+03  0.00000000000E+00 0. -1.
         36    2    1    2    0    0 -0.35527136788E-14  0.71054273576E-14  0.13973685405E+04  0.17155666698E+04  0.99525381723E+03 0.  0.
         25    2    3    3    0    0 -0.22295513652E+02 -0.68422056122E+01  0.48819543365E+03  0.50452845588E+03  0.12518097161E+03 0.  0.
         35    2    3    3    0    0  0.22295513652E+02  0.68422056122E+01  0.90917310681E+03  0.12110382139E+04  0.79967112724E+03 0.  0.
         22    1    5    5    0    0  0.54749967059E+01  0.39753150462E+03  0.56005076996E+03  0.68681739764E+03  0.00000000000E+00 0. -1.
         22    1    5    5    0    0  0.16820516946E+02 -0.39068929901E+03  0.34912233685E+03  0.52422081630E+03  0.00000000000E+00 0. -1.
          5    1    4    4  502    0 -0.71490825078E+02 -0.22506278066E+02  0.30807153924E+03  0.31709246902E+03  0.47000000000E+01 0.  1.
         -5    1    4    4    0  502  0.49195311426E+02  0.15664072454E+02  0.18012389441E+03  0.18743598686E+03  0.47000000000E+01 0.  1.
<mgrwt>
<rscale>  0 0.99525382E+03</rscale>
<asrwt>0</asrwt>
<pdfrwt beam="1">  1        2 0.23945654E+00 0.99525382E+03</pdfrwt>
<pdfrwt beam="2">  1       -2 0.24476780E-01 0.99525382E+03</pdfrwt>
<totfact> 0.20964443E+02</totfact>
</mgrwt>
</event>
<event>
 9    1  0.4321150E-036  0.9988866E+03  0.7818608E-02  0.8682099E-01
          2   -1    0    0  501    0  0.00000000000E+00  0.00000000000E+00  0.13475216827E+04  0.13475216827E+04  0.00000000000E+00 0. -1.
         -2   -1    0    0    0  501 -0.00000000000E+00 -0.00000000000E+00 -0.18511287235E+03  0.18511287235E+03  0.00000000000E+00 0. -1.
         36    2    1    2    0    0  0.00000000000E+00  0.14210854715E-13  0.11624088104E+04  0.15326345551E+04  0.99888659867E+03 0.  0.
         25    2    3    3    0    0 -0.98851009905E+02 -0.18829362752E+02  0.66484694749E+02  0.17321874973E+03  0.12433202951E+03 0.  0.
         35    2    3    3    0    0  0.98851009905E+02  0.18829362752E+02  0.10959241156E+04  0.13594158053E+04  0.79801979772E+03 0.  0.
         22    1    5    5    0    0  0.22454324815E+03  0.31187661248E+03  0.91586303238E+03  0.99322292854E+03  0.00000000000E+00 0. -1.
         22    1    5    5    0    0 -0.12569223824E+03 -0.29304724973E+03  0.18006108325E+03  0.36619287681E+03  0.00000000000E+00 0. -1.
          5    1    4    4  502    0 -0.10452486882E+03  0.11482465309E+02  0.63203183144E+01  0.10544824149E+03  0.47000000000E+01 0. -1.
         -5    1    4    4    0  502  0.56738589113E+01 -0.30311828061E+02  0.60164376435E+02  0.67770508240E+02  0.47000000000E+01 0. -1.
<mgrwt>
<rscale>  0 0.99888660E+03</rscale>
<asrwt>0</asrwt>
<pdfrwt beam="1">  1        2 0.20731102E+00 0.99888660E+03</pdfrwt>
<pdfrwt beam="2">  1       -2 0.28478904E-01 0.99888660E+03</pdfrwt>
<totfact> 0.21025613E+02</totfact>
</mgrwt>
</event>
<event>
 9    1  0.4321150E-036  0.1000343E+04  0.7818608E-02  0.8680712E-01
          1   -1    0    0  501    0  0.00000000000E+00  0.00000000000E+00  0.27560686864E+03  0.27560686864E+03  0.00000000000E+00 0. -1.
         -1   -1    0    0    0  501 -0.00000000000E+00 -0.00000000000E+00 -0.90771095090E+03  0.90771095090E+03  0.00000000000E+00 0. -1.
         36    2    1    2    0    0  0.00000000000E+00  0.28421709430E-13 -0.63210408226E+03  0.11833178195E+04  0.10003426869E+04 0.  0.
         25    2    3    3    0    0  0.92074477431E+02 -0.81447998934E+02 -0.38247982241E+02  0.17953594534E+03  0.12513497352E+03 0.  0.
         35    2    3    3    0    0 -0.92074477431E+02  0.81447998934E+02 -0.59385610002E+03  0.10037818742E+04  0.79987592633E+03 0.  0.
         22    1    5    5    0    0 -0.28561792129E+03  0.24370675017E+03 -0.64478665140E+03  0.74613698666E+03  0.00000000000E+00 0. -1.
         22    1    5    5    0    0  0.19354344386E+03 -0.16225875123E+03  0.50930551384E+02  0.25764488754E+03  0.00000000000E+00 0. -1.
          5    1    4    4  502    0  0.10732975003E+03 -0.48530542274E+02  0.10764093906E+02  0.11837586111E+03  0.47000000000E+01 0. -1.
         -5    1    4    4    0  502 -0.15255272600E+02 -0.32917456659E+02 -0.49012076147E+02  0.61160084232E+02  0.47000000000E+01 0. -1.
<mgrwt>
<rscale>  0 0.10003427E+04</rscale>
<asrwt>0</asrwt>
<pdfrwt beam="1">  1        1 0.42401057E-01 0.10003427E+04</pdfrwt>
<pdfrwt beam="2">  1       -1 0.13964784E+00 0.10003427E+04</pdfrwt>
<totfact> 0.49114471E+01</totfact>
</mgrwt>
</event>
<event>
 9    1  0.4321150E-036  0.9974306E+03  0.7818608E-02  0.8683489E-01
          2   -1    0    0  501    0  0.00000000000E+00  0.00000000000E+00  0.20495684488E+03  0.20495684488E+03  0.00000000000E+00 0. -1.
         -2   -1    0    0    0  501 -0.00000000000E+00 -0.00000000000E+00 -0.12135088035E+04  0.12135088035E+04  0.00000000000E+00 0. -1.
         36    2    1    2    0    0 -0.28421709430E-13 -0.28421709430E-13 -0.10085519586E+04  0.14184656483E+04  0.99743057019E+03 0.  0.
         25    2    3    3    0    0 -0.37711935103E+02 -0.12239561400E+03 -0.25477693862E+03  0.31129036124E+03  0.12485000669E+03 0.  0.
         35    2    3    3    0    0  0.37711935103E+02  0.12239561400E+03 -0.75377501996E+03  0.11071752871E+04  0.80078552639E+03 0.  0.
         22    1    5    5    0    0 -0.26236909682E+03 -0.10521923066E+03 -0.21230646430E+02  0.28347728272E+03  0.00000000000E+00 0.  1.
         22    1    5    5    0    0  0.30008103193E+03  0.22761484466E+03 -0.73254437353E+03  0.82369800438E+03  0.00000000000E+00 0.  1.
          5    1    4    4  502    0 -0.50398318941E+00 -0.22089434719E+02 -0.17823335551E+03  0.17965916660E+03  0.47000000000E+01 0.  1.
         -5    1    4    4    0  502 -0.37207951914E+02 -0.10030617928E+03 -0.76543583109E+02  0.13163119464E+03  0.47000000000E+01 0.  1.
<mgrwt>
<rscale>  0 0.99743057E+03</rscale>
<asrwt>0</asrwt>
<pdfrwt beam="1">  1        2 0.31531822E-01 0.99743057E+03</pdfrwt>
<pdfrwt beam="2">  1       -2 0.18669366E+00 0.99743057E+03</pdfrwt>
<totfact> 0.30177971E+01</totfact>
</mgrwt>
</event>
<event>
 9    1  0.4321150E-036  0.1000074E+04  0.7818608E-02  0.8680968E-01
          2   -1    0    0  501    0  0.00000000000E+00  0.00000000000E+00  0.18532099397E+04  0.18532099397E+04  0.00000000000E+00 0. -1.
         -2   -1    0    0    0  501 -0.00000000000E+00 -0.00000000000E+00 -0.13492101508E+03  0.13492101508E+03  0.00000000000E+00 0. -1.
         36    2    1    2    0    0  0.10658141036E-13  0.28421709430E-13  0.17182889246E+04  0.19881309548E+04  0.10000739297E+04 0.  0.
         25    2    3    3    0    0  0.62353072319E+01 -0.19001117505E+02  0.60387042780E+03  0.61675207627E+03  0.12378896753E+03 0.  0.
         35    2    3    3    0    0 -0.62353072319E+01  0.19001117505E+02  0.11144184968E+04  0.13713788785E+04  0.79896903624E+03 0.  0.
         22    1    5    5    0    0  0.16155432132E+03 -0.34443031594E+03  0.39709805752E+03  0.54992627557E+03  0.00000000000E+00 0.  1.
         22    1    5    5    0    0 -0.16778962855E+03  0.36343143344E+03  0.71732043929E+03  0.82145260295E+03  0.00000000000E+00 0.  1.
          5    1    4    4  502    0  0.24272369866E+02 -0.54381601106E+01  0.58850395116E+03  0.58904814069E+03  0.47000000000E+01 0. -1.
         -5    1    4    4    0  502 -0.18037062634E+02 -0.13562957394E+02  0.15366476640E+02  0.27703935570E+02  0.47000000000E+01 0. -1.
<mgrwt>
<rscale>  0 0.10000739E+04</rscale>
<asrwt>0</asrwt>
<pdfrwt beam="1">  1        2 0.28510920E+00 0.10000739E+04</pdfrwt>
<pdfrwt beam="2">  1       -2 0.20757081E-01 0.10000739E+04</pdfrwt>
<totfact> 0.19039537E+02</totfact>
</mgrwt>
</event>
<event>
 9    1  0.4321150E-036  0.1000097E+04  0.7818608E-02  0.8680945E-01
         -2   -1    0    0    0  501 -0.00000000000E+00  0.00000000000E+00  0.12179172687E+03  0.12179172687E+03  0.00000000000E+00 0. -1.
          2   -1    0    0  501    0  0.00000000000E+00 -0.00000000000E+00 -0.20530846388E+04  0.20530846388E+04  0.00000000000E+00 0. -1.
         36    2    1    2    0    0  0.14210854715E-13  0.71054273576E-14 -0.19312929119E+04  0.21748763656E+04  0.10000974424E+04 0.  0.
         25    2    3    3    0    0  0.12070698409E+03  0.37027157129E+02 -0.48636783187E+03  0.51786092410E+03  0.12524009923E+03 0.  0.
         35    2    3    3    0    0 -0.12070698409E+03 -0.37027157129E+02 -0.14449250800E+04  0.16570154415E+04  0.80121813525E+03 0.  0.
         22    1    5    5    0    0 -0.31120616795E+03  0.10755350191E+03 -0.13660804416E+04  0.14052020522E+04  0.00000000000E+00 0.  1.
         22    1    5    5    0    0  0.19049918386E+03 -0.14458065904E+03 -0.78844638446E+02  0.25181338931E+03  0.00000000000E+00 0.  1.
          5    1    4    4  502    0 -0.14221666765E+02 -0.22495190500E+02 -0.45092162758E+02  0.52570738471E+02  0.47000000000E+01 0.  1.
         -5    1    4    4    0  502  0.13492865085E+03  0.59522347629E+02 -0.44127566912E+03  0.46529018563E+03  0.47000000000E+01 0.  1.
<mgrwt>
<rscale>  0 0.10000974E+04</rscale>
<asrwt>0</asrwt>
<pdfrwt beam="1">  1        2 0.31585917E+00 0.10000974E+04</pdfrwt>
<pdfrwt beam="2">  1       -2 0.18737189E-01 0.10000974E+04</pdfrwt>
<totfact> 0.17493354E+02</totfact>
</mgrwt>
</event>
<event>
 9    1  0.4321150E-036  0.1000469E+04  0.7818608E-02  0.8680592E-01
          2   -1    0    0  501    0  0.00000000000E+00  0.00000000000E+00  0.12670927444E+04  0.12670927444E+04  0.00000000000E+00 0. -1.
         -2   -1    0    0    0  501 -0.00000000000E+00 -0.00000000000E+00 -0.19748709181E+03  0.19748709181E+03  0.00000000000E+00 0. -1.
         36    2    1    2    0    0  0.00000000000E+00 -0.28421709430E-13  0.10696056526E+04  0.14645798362E+04  0.10004688124E+04 0.  0.
         25    2    3    3    0    0 -0.83064003491E+02 -0.10906371829E+03  0.19899644989E+03  0.27212654140E+03  0.12513490377E+03 0.  0.
         35    2    3    3    0    0  0.83064003491E+02  0.10906371829E+03  0.87060920267E+03  0.11924532948E+04  0.80323717116E+03 0.  0.
         22    1    5    5    0    0  0.29989638469E+02 -0.34776025246E+03  0.30553745383E+03  0.46388544632E+03  0.00000000000E+00 0. -1.
         22    1    5    5    0    0  0.53074365022E+02  0.45682397075E+03  0.56507174883E+03  0.72856784846E+03  0.00000000000E+00 0. -1.
          5    1    4    4  502    0 -0.16005984955E+02 -0.10861579675E+03  0.81702039658E+02  0.13693391159E+03  0.47000000000E+01 0. -1.
         -5    1    4    4    0  502 -0.67058018536E+02 -0.44792153686E+00  0.11729441023E+03  0.13519262981E+03  0.47000000000E+01 0. -1.
<mgrwt>
<rscale>  0 0.10004688E+04</rscale>
<asrwt>0</asrwt>
<pdfrwt beam="1">  1        2 0.19493734E+00 0.10004688E+04</pdfrwt>
<pdfrwt beam="2">  1       -2 0.30382630E-01 0.10004688E+04</pdfrwt>
<totfact> 0.20810262E+02</totfact>
</mgrwt>
</event>
<event>
 9    1  0.4321150E-036  0.1000039E+04  0.7818608E-02  0.8681001E-01
          2   -1    0    0  501    0  0.00000000000E+00  0.00000000000E+00  0.96809487615E+03  0.96809487615E+03  0.00000000000E+00 0. -1.
         -2   -1    0    0    0  501 -0.00000000000E+00 -0.00000000000E+00 -0.25825945534E+03  0.25825945534E+03  0.00000000000E+00 0. -1.
         36    2    1    2    0    0  0.00000000000E+00  0.28421709430E-13  0.70983542081E+03  0.12263543315E+04  0.10000393101E+04 0.  0.
         25    2    3    3    0    0  0.13213860238E+03  0.45788112412E+02  0.11613541762E+03  0.22075606455E+03  0.12525431464E+03 0.  0.
         35    2    3    3    0    0 -0.13213860238E+03 -0.45788112412E+02  0.59370000319E+03  0.10055982669E+04  0.79949422712E+03 0.  0.
         22    1    5    5    0    0 -0.31648927079E+03  0.23325937680E+03  0.93893201530E+02  0.40421693270E+03  0.00000000000E+00 0.  1.
         22    1    5    5    0    0  0.18435066842E+03 -0.27904748921E+03  0.49980680166E+03  0.60138133423E+03  0.00000000000E+00 0.  1.
          5    1    4    4  502    0 -0.15876485929E+02 -0.15141552079E+02 -0.83189611275E+00  0.22452426505E+02  0.47000000000E+01 0.  1.
         -5    1    4    4    0  502  0.14801508831E+03  0.60929664491E+02  0.11696731374E+03  0.19830363805E+03  0.47000000000E+01 0.  1.
<mgrwt>
<rscale>  0 0.10000393E+04</rscale>
<asrwt>0</asrwt>
<pdfrwt beam="1">  1        2 0.14893767E+00 0.10000393E+04</pdfrwt>
<pdfrwt beam="2">  1       -2 0.39732224E-01 0.10000393E+04</pdfrwt>
<totfact> 0.19140865E+02</totfact>
</mgrwt>
</event>
<event>
 9    1  0.4321150E-036  0.9992670E+03  0.7818608E-02  0.8681736E-01
         -2   -1    0    0    0  501 -0.00000000000E+00  0.00000000000E+00  0.41227152556E+03  0.41227152556E+03  0.00000000000E+00 0. -1.
          2   -1    0    0  501    0  0.00000000000E+00 -0.00000000000E+00 -0.60550778803E+03  0.60550778803E+03  0.00000000000E+00 0. -1.
         36    2    1    2    0    0  0.71054273576E-14 -0.42632564146E-13 -0.19323626247E+03  0.10177793136E+04  0.99926697035E+03 0.  0.
         25    2    3    3    0    0 -0.22545939088E+02  0.66765322009E+02 -0.15901714474E+03  0.21403505509E+03  0.12473421702E+03 0.  0.
         35    2    3    3    0    0  0.22545939088E+02 -0.66765322009E+02 -0.34219117734E+02  0.80374425849E+03  0.79991746915E+03 0.  0.
         22    1    5    5    0    0 -0.11216764966E+03  0.34807697691E+03 -0.36976664979E+02  0.36756827562E+03  0.00000000000E+00 0.  1.
         22    1    5    5    0    0  0.13471358875E+03 -0.41484229892E+03  0.27575472453E+01  0.43617598287E+03  0.00000000000E+00 0.  1.
          5    1    4    4  502    0 -0.51734939228E+02 -0.12181791991E+01 -0.11886355396E+03  0.12972518012E+03  0.47000000000E+01 0.  1.
         -5    1    4    4    0  502  0.29189000140E+02  0.67983501208E+02 -0.40153590779E+02  0.84309874974E+02  0.47000000000E+01 0.  1.
<mgrwt>
<rscale>  0 0.99926697E+03</rscale>
<asrwt>0</asrwt>
<pdfrwt beam="1">  1        2 0.93155044E-01 0.99926697E+03</pdfrwt>
<pdfrwt beam="2">  1       -2 0.63426389E-01 0.99926697E+03</pdfrwt>
<totfact> 0.13655955E+02</totfact>
</mgrwt>
</event>
<event>
 9    1  0.4321150E-036  0.1000126E+04  0.7818608E-02  0.8680918E-01
          4   -1    0    0  501    0  0.00000000000E+00  0.00000000000E+00  0.44367528969E+03  0.44367528969E+03  0.00000000000E+00 0.  1.
         -4   -1    0    0    0  501 -0.00000000000E+00 -0.00000000000E+00 -0.56361751571E+03  0.56361751571E+03  0.00000000000E+00 0.  1.
         36    2    1    2    0    0  0.00000000000E+00  0.28421709430E-13 -0.11994222602E+03  0.10072928054E+04  0.10001263211E+04 0.  0.
         25    2    3    3    0    0  0.57233285450E+02  0.63376230620E+02 -0.12399813859E+03  0.19587554126E+03  0.12529762057E+03 0.  0.
         35    2    3    3    0    0 -0.57233285450E+02 -0.63376230620E+02  0.40559125720E+01  0.81141726414E+03  0.80690106615E+03 0.  0.
         22    1    5    5    0    0 -0.47055965399E+01 -0.29343866997E+03 -0.30454006214E+03  0.42293385431E+03  0.00000000000E+00 0. -1.
         22    1    5    5    0    0 -0.52527688910E+02  0.23006243935E+03  0.30859597471E+03  0.38848340983E+03  0.00000000000E+00 0. -1.
          5    1    4    4  502    0 -0.12808029734E+02  0.75193796696E+02 -0.86477041263E+02  0.11540589826E+03  0.47000000000E+01 0. -1.
         -5    1    4    4    0  502  0.70041315184E+02 -0.11817566076E+02 -0.37521097328E+02  0.80469643005E+02  0.47000000000E+01 0. -1.
<mgrwt>
<rscale>  0 0.10001263E+04</rscale>
<asrwt>0</asrwt>
<pdfrwt beam="1">  1        4 0.68257737E-01 0.10001263E+04</pdfrwt>
<pdfrwt beam="2">  1       -4 0.86710387E-01 0.10001263E+04</pdfrwt>
<totfact> 0.52165882E+00</totfact>
</mgrwt>
</event>
<event>
 9    1  0.4321150E-036  0.9953825E+03  0.7818608E-02  0.8685448E-01
         -2   -1    0    0    0  501 -0.00000000000E+00  0.00000000000E+00  0.14678684967E+03  0.14678684967E+03  0.00000000000E+00 0.  1.
          2   -1    0    0  501    0  0.00000000000E+00 -0.00000000000E+00 -0.16874575633E+04  0.16874575633E+04  0.00000000000E+00 0.  1.
         36    2    1    2    0    0  0.00000000000E+00 -0.17763568394E-13 -0.15406707136E+04  0.18342444130E+04  0.99538249867E+03 0.  0.
         25    2    3    3    0    0  0.13001782151E+03  0.97232385415E+01 -0.35790330087E+03  0.40080105201E+03  0.12468975595E+03 0.  0.
         35    2    3    3    0    0 -0.13001782151E+03 -0.97232385415E+01 -0.11827674128E+04  0.14334433610E+04  0.79926337406E+03 0.  0.
         22    1    5    5    0    0 -0.24295056792E+03 -0.35428117916E+03 -0.78755895435E+03  0.89710046201E+03  0.00000000000E+00 0. -1.
         22    1    5    5    0    0  0.11293274641E+03  0.34455794062E+03 -0.39520845842E+03  0.53634289896E+03  0.00000000000E+00 0. -1.
          5    1    4    4  502    0  0.90932657876E+02 -0.13626640087E+02 -0.33900102374E+03  0.35128082453E+03  0.47000000000E+01 0. -1.
         -5    1    4    4    0  502  0.39085163639E+02  0.23349878629E+02 -0.18902277132E+02  0.49520227477E+02  0.47000000000E+01 0. -1.
<mgrwt>
<rscale>  0 0.99538250E+03</rscale>
<asrwt>0</asrwt>
<pdfrwt beam="1">  1        2 0.25960885E+00 0.99538250E+03</pdfrwt>
<pdfrwt beam="2">  1       -2 0.22582593E-01 0.99538250E+03</pdfrwt>
<totfact> 0.20381464E+02</totfact>
</mgrwt>
</event>
<event>
 9    1  0.4321150E-036  0.1003736E+04  0.7818608E-02  0.8677488E-01
          2   -1    0    0  501    0  0.00000000000E+00  0.00000000000E+00  0.68483808421E+03  0.68483808421E+03  0.00000000000E+00 0.  1.
         -2   -1    0    0    0  501 -0.00000000000E+00 -0.00000000000E+00 -0.36778279736E+03  0.36778279736E+03  0.00000000000E+00 0.  1.
         36    2    1    2    0    0  0.00000000000E+00  0.28421709430E-13  0.31705528685E+03  0.10526208816E+04  0.10037363525E+04 0.  0.
         25    2    3    3    0    0 -0.29037474203E+02 -0.13573220815E+03  0.86445365912E+01  0.18687344699E+03  0.12482207312E+03 0.  0.
         35    2    3    3    0    0  0.29037474203E+02  0.13573220815E+03  0.30841075026E+03  0.86574743459E+03  0.79695358860E+03 0.  0.
         22    1    5    5    0    0  0.87563420527E+02 -0.12914313108E+03 -0.22120881618E+03  0.27070027941E+03  0.00000000000E+00 0.  1.
         22    1    5    5    0    0 -0.58525946324E+02  0.26487533923E+03  0.52961956644E+03  0.59504715517E+03  0.00000000000E+00 0.  1.
          5    1    4    4  502    0 -0.64321210528E+02 -0.12936356892E+03 -0.12324439937E+02  0.14507285379E+03  0.47000000000E+01 0.  1.
         -5    1    4    4    0  502  0.35283736325E+02 -0.63686392253E+01  0.20968976528E+02  0.41800593193E+02  0.47000000000E+01 0.  1.
<mgrwt>
<rscale>  0 0.10037364E+04</rscale>
<asrwt>0</asrwt>
<pdfrwt beam="1">  1        2 0.10535970E+00 0.10037364E+04</pdfrwt>
<pdfrwt beam="2">  1       -2 0.56581969E-01 0.10037364E+04</pdfrwt>
<totfact> 0.14939173E+02</totfact>
</mgrwt>
</event>
<event>
 9    1  0.4321150E-036  0.1004275E+04  0.7818608E-02  0.8676978E-01
         -2   -1    0    0    0  501 -0.00000000000E+00  0.00000000000E+00  0.10539019640E+03  0.10539019640E+03  0.00000000000E+00 0.  1.
          2   -1    0    0  501    0  0.00000000000E+00 -0.00000000000E+00 -0.23924620779E+04  0.23924620779E+04  0.00000000000E+00 0.  1.
         36    2    1    2    0    0  0.28421709430E-13 -0.14210854715E-13 -0.22870718815E+04  0.24978522743E+04  0.10042749589E+04 0.  0.
         25    2    3    3    0    0 -0.92633373337E+02  0.11342966296E+03 -0.44492042972E+03  0.48454578769E+03  0.12402903407E+03 0.  0.
         35    2    3    3    0    0  0.92633373337E+02 -0.11342966296E+03 -0.18421514518E+04  0.20133064866E+04  0.79902053006E+03 0.  0.
         22    1    5    5    0    0 -0.28347943697E+03 -0.19031116089E+02 -0.26272020856E+03  0.38696858083E+03  0.00000000000E+00 0.  1.
         22    1    5    5    0    0  0.37611281031E+03 -0.94398546870E+02 -0.15794312432E+04  0.16263379058E+04  0.00000000000E+00 0.  1.
          5    1    4    4  502    0 -0.71681028554E+02 -0.40765839824E+01 -0.18464402764E+03  0.19816734175E+03  0.47000000000E+01 0.  1.
         -5    1    4    4    0  502 -0.20952344783E+02  0.11750624694E+03 -0.26027640208E+03  0.28637844594E+03  0.47000000000E+01 0.  1.
<mgrwt>
<rscale>  0 0.10042750E+04</rscale>
<asrwt>0</asrwt>
<pdfrwt beam="1">  1        2 0.36807108E+00 0.10042750E+04</pdfrwt>
<pdfrwt beam="2">  1       -2 0.16213877E-01 0.10042750E+04</pdfrwt>
<totfact> 0.14182065E+02</totfact>
</mgrwt>
</event>
<event>
 9    1  0.4321150E-036  0.1000197E+04  0.7818608E-02  0.8680851E-01
          1   -1    0    0  501    0  0.00000000000E+00  0.00000000000E+00  0.17622977538E+03  0.17622977538E+03  0.00000000000E+00 0. -1.
         -1   -1    0    0    0  501 -0.00000000000E+00 -0.00000000000E+00 -0.14191606887E+04  0.14191606887E+04  0.00000000000E+00 0. -1.
         36    2    1    2    0    0  0.00000000000E+00 -0.28421709430E-13 -0.12429309134E+04  0.15953904641E+04  0.10001967194E+04 0.  0.
         25    2    3    3    0    0  0.19544716627E+02 -0.95200260958E+02 -0.76652542108E+02  0.17651625976E+03  0.12584630353E+03 0.  0.
         35    2    3    3    0    0 -0.19544716627E+02  0.95200260958E+02 -0.11662783712E+04  0.14188742043E+04  0.80221797717E+03 0.  0.
         22    1    5    5    0    0 -0.24678586486E+03  0.32593715399E+03 -0.93633120462E+03  0.10216919380E+04  0.00000000000E+00 0.  1.
         22    1    5    5    0    0  0.22724114824E+03 -0.23073689303E+03 -0.22994716663E+03  0.39718226634E+03  0.00000000000E+00 0.  1.
          5    1    4    4  502    0 -0.14426705200E+01 -0.38490763364E+02  0.33176836985E+02  0.51053037862E+02  0.47000000000E+01 0.  1.
         -5    1    4    4    0  502  0.20987387147E+02 -0.56709497594E+02 -0.10982937909E+03  0.12546322190E+03  0.47000000000E+01 0.  1.
<mgrwt>
<rscale>  0 0.10001967E+04</rscale>
<asrwt>0</asrwt>
<pdfrwt beam="1">  1        1 0.27112273E-01 0.10001967E+04</pdfrwt>
<pdfrwt beam="2">  1       -1 0.21833241E+00 0.10001967E+04</pdfrwt>
<totfact> 0.19019699E+01</totfact>
</mgrwt>
</event>
<event>
 9    1  0.4321150E-036  0.1000095E+04  0.7818608E-02  0.8680947E-01
          2   -1    0    0  501    0  0.00000000000E+00  0.00000000000E+00  0.25573585550E+04  0.25573585550E+04  0.00000000000E+00 0.  1.
         -2   -1    0    0    0  501 -0.00000000000E+00 -0.00000000000E+00 -0.97775746136E+02  0.97775746136E+02  0.00000000000E+00 0.  1.
         36    2    1    2    0    0  0.14210854715E-13 -0.14210854715E-13  0.24595828089E+04  0.26551343012E+04  0.10000952772E+04 0.  0.
         25    2    3    3    0    0  0.11042562944E+03 -0.95879212670E+02  0.37215759723E+03  0.41890440309E+03  0.12487184908E+03 0.  0.
         35    2    3    3    0    0 -0.11042562944E+03  0.95879212670E+02  0.20874252117E+04  0.22362298981E+04  0.78866564506E+03 0.  0.
         22    1    5    5    0    0  0.77184612824E+02 -0.70448912560E+02  0.19451413464E+04  0.19479464498E+04  0.00000000000E+00 0. -1.
         22    1    5    5    0    0 -0.18761024226E+03  0.16632812523E+03  0.14228386526E+03  0.28828344829E+03  0.00000000000E+00 0. -1.
          5    1    4    4  502    0  0.11199569706E+03 -0.50181481344E+02  0.15933173105E+03  0.20117133928E+03  0.47000000000E+01 0. -1.
         -5    1    4    4    0  502 -0.15700676165E+01 -0.45697731326E+02  0.21282586618E+03  0.21773306381E+03  0.47000000000E+01 0. -1.
<mgrwt>
<rscale>  0 0.10000953E+04</rscale>
<asrwt>0</asrwt>
<pdfrwt beam="1">  1        2 0.39343973E+00 0.10000953E+04</pdfrwt>
<pdfrwt beam="2">  1       -2 0.15042424E-01 0.10000953E+04</pdfrwt>
<totfact> 0.12784518E+02</totfact>
</mgrwt>
</event>
<event>
 9    1  0.4321150E-036  0.1000143E+04  0.7818608E-02  0.8680901E-01
         -4   -1    0    0    0  501 -0.00000000000E+00  0.00000000000E+00  0.42127230129E+03  0.42127230129E+03  0.00000000000E+00 0.  1.
          4   -1    0    0  501    0  0.00000000000E+00 -0.00000000000E+00 -0.59361070899E+03  0.59361070899E+03  0.00000000000E+00 0.  1.
         36    2    1    2    0    0  0.00000000000E+00  0.00000000000E+00 -0.17233840770E+03  0.10148830103E+04  0.10001434886E+04 0.  0.
         25    2    3    3    0    0 -0.76798883822E+02  0.94822929177E+02  0.38284058011E+02  0.17996138907E+03  0.12661349061E+03 0.  0.
         35    2    3    3    0    0  0.76798883822E+02 -0.94822929177E+02 -0.21062246571E+03  0.83492162120E+03  0.79865063328E+03 0.  0.
         22    1    5    5    0    0 -0.20382277535E+02  0.82499494999E+02 -0.48594669881E+03  0.49332119151E+03  0.00000000000E+00 0.  1.
         22    1    5    5    0    0  0.97181161358E+02 -0.17732242418E+03  0.27532423310E+03  0.34160042969E+03  0.00000000000E+00 0.  1.
          5    1    4    4  502    0 -0.87300060374E+02  0.37121016923E+02 -0.20086962185E+02  0.97081648567E+02  0.47000000000E+01 0.  1.
         -5    1    4    4    0  502  0.10501176552E+02  0.57701912254E+02  0.58371020195E+02  0.82879740500E+02  0.47000000000E+01 0.  1.
<mgrwt>
<rscale>  0 0.10001435E+04</rscale>
<asrwt>0</asrwt>
<pdfrwt beam="1">  1        4 0.91324725E-01 0.10001435E+04</pdfrwt>
<pdfrwt beam="2">  1       -4 0.64811123E-01 0.10001435E+04</pdfrwt>
<totfact> 0.51443075E+00</totfact>
</mgrwt>
</event>
<event>
 9    1  0.4321150E-036  0.9921091E+03  0.7818608E-02  0.8688589E-01
         -2   -1    0    0    0  501 -0.00000000000E+00  0.00000000000E+00  0.37581680828E+03  0.37581680828E+03  0.00000000000E+00 0.  1.
          2   -1    0    0  501    0  0.00000000000E+00 -0.00000000000E+00 -0.65476086445E+03  0.65476086445E+03  0.00000000000E+00 0.  1.
         36    2    1    2    0    0  0.00000000000E+00  0.14210854715E-13 -0.27894405617E+03  0.10305776727E+04  0.99210914372E+03 0.  0.
         25    2    3    3    0    0 -0.12256200766E+03 -0.14755797824E+02  0.19219501117E+01  0.17580923984E+03  0.12516395500E+03 0.  0.
         35    2    3    3    0    0  0.12256200766E+03  0.14755797824E+02 -0.28086600628E+03  0.85476843289E+03  0.79781212143E+03 0.  0.
         22    1    5    5    0    0  0.24180857973E+03  0.36134338692E+03 -0.10043650393E+03  0.44623751951E+03  0.00000000000E+00 0. -1.
         22    1    5    5    0    0 -0.11924657207E+03 -0.34658758909E+03 -0.18042950235E+03  0.40853091338E+03  0.00000000000E+00 0. -1.
          5    1    4    4  502    0 -0.56490599689E+02 -0.50745654933E+02 -0.43656720948E+02  0.87717208299E+02  0.47000000000E+01 0. -1.
         -5    1    4    4    0  502 -0.66071407967E+02  0.35989857110E+02  0.45578671060E+02  0.88092031541E+02  0.47000000000E+01 0. -1.
<mgrwt>
<rscale>  0 0.99210914E+03</rscale>
<asrwt>0</asrwt>
<pdfrwt beam="1">  1        2 0.10073244E+00 0.99210914E+03</pdfrwt>
<pdfrwt beam="2">  1       -2 0.57817971E-01 0.99210914E+03</pdfrwt>
<totfact> 0.15093437E+02</totfact>
</mgrwt>
</event>
<event>
 9    1  0.4321150E-036  0.1000657E+04  0.7818608E-02  0.8680412E-01
         -4   -1    0    0    0  501 -0.00000000000E+00  0.00000000000E+00  0.13362958962E+03  0.13362958962E+03  0.00000000000E+00 0. -1.
          4   -1    0    0  501    0  0.00000000000E+00 -0.00000000000E+00 -0.18733026222E+04  0.18733026222E+04  0.00000000000E+00 0. -1.
         36    2    1    2    0    0  0.00000000000E+00  0.14210854715E-13 -0.17396730326E+04  0.20069322119E+04  0.10006571054E+04 0.  0.
         25    2    3    3    0    0  0.13016761592E+01 -0.32164623755E+02 -0.51380191550E+02  0.13923725463E+03  0.12534285624E+03 0.  0.
         35    2    3    3    0    0 -0.13016761592E+01  0.32164623755E+02 -0.16882928411E+04  0.18676949572E+04  0.79806984575E+03 0.  0.
         22    1    5    5    0    0  0.62235770609E+02 -0.35992452510E+03 -0.10898387966E+04  0.11494205312E+04  0.00000000000E+00 0. -1.
         22    1    5    5    0    0 -0.63537446768E+02  0.39208914886E+03 -0.59845404447E+03  0.71827442606E+03  0.00000000000E+00 0. -1.
          5    1    4    4  502    0  0.50015978768E+02  0.11369331693E+02 -0.52744600900E+02  0.73722064264E+02  0.47000000000E+01 0. -1.
         -5    1    4    4    0  502 -0.48714302609E+02 -0.43533955449E+02  0.13644093496E+01  0.65515190365E+02  0.47000000000E+01 0. -1.
<mgrwt>
<rscale>  0 0.10006571E+04</rscale>
<asrwt>0</asrwt>
<pdfrwt beam="1">  1        4 0.28820040E+00 0.10006571E+04</pdfrwt>
<pdfrwt beam="2">  1       -4 0.20558399E-01 0.10006571E+04</pdfrwt>
<totfact> 0.12463296E+00</totfact>
</mgrwt>
</event>
<event>
 9    1  0.4321150E-036  0.1000093E+04  0.7818608E-02  0.8680949E-01
          2   -1    0    0  501    0  0.00000000000E+00  0.00000000000E+00  0.20798690864E+04  0.20798690864E+04  0.00000000000E+00 0. -1.
         -2   -1    0    0    0  501 -0.00000000000E+00 -0.00000000000E+00 -0.12022226525E+03  0.12022226525E+03  0.00000000000E+00 0. -1.
         36    2    1    2    0    0 -0.28421709430E-13  0.00000000000E+00  0.19596468211E+04  0.22000913516E+04  0.10000931416E+04 0.  0.
         25    2    3    3    0    0 -0.83044613560E+02 -0.48798934919E+02  0.14228304004E+03  0.21238943353E+03  0.12484816419E+03 0.  0.
         35    2    3    3    0    0  0.83044613560E+02  0.48798934919E+02  0.18173637811E+04  0.19877019181E+04  0.79929347456E+03 0.  0.
         22    1    5    5    0    0 -0.28908396472E+03  0.83505907792E+02  0.13798911685E+04  0.14123180988E+04  0.00000000000E+00 0. -1.
         22    1    5    5    0    0  0.37212857828E+03 -0.34706972873E+02  0.43747261259E+03  0.57538381930E+03  0.00000000000E+00 0. -1.
          5    1    4    4  502    0 -0.55206007998E+01 -0.65485868668E+02  0.24442832688E+02  0.70273879203E+02  0.47000000000E+01 0.  1.
         -5    1    4    4    0  502 -0.77524012761E+02  0.16686933749E+02  0.11784020735E+03  0.14211555432E+03  0.47000000000E+01 0.  1.
<mgrwt>
<rscale>  0 0.10000931E+04</rscale>
<asrwt>0</asrwt>
<pdfrwt beam="1">  1        2 0.31997983E+00 0.10000931E+04</pdfrwt>
<pdfrwt beam="2">  1       -2 0.18495735E-01 0.10000931E+04</pdfrwt>
<totfact> 0.17266473E+02</totfact>
</mgrwt>
</event>
<event>
 9    1  0.4321150E-036  0.1001744E+04  0.7818608E-02  0.8679379E-01
         -2   -1    0    0    0  501 -0.00000000000E+00  0.00000000000E+00  0.10482617638E+03  0.10482617638E+03  0.00000000000E+00 0. -1.
          2   -1    0    0  501    0  0.00000000000E+00 -0.00000000000E+00 -0.23932246103E+04  0.23932246103E+04  0.00000000000E+00 0. -1.
         36    2    1    2    0    0 -0.56843418861E-13  0.00000000000E+00 -0.22883984339E+04  0.24980507867E+04  0.10017436501E+04 0.  0.
         25    2    3    3    0    0  0.12993230398E+03  0.22235907053E+02 -0.33170024727E+03  0.37813584254E+03  0.12483918534E+03 0.  0.
         35    2    3    3    0    0 -0.12993230398E+03 -0.22235907053E+02 -0.19566981866E+04  0.21199149441E+04  0.80498120322E+03 0.  0.
         22    1    5    5    0    0 -0.39121963027E+03 -0.23477853441E+03 -0.87239045454E+03  0.98449929634E+03  0.00000000000E+00 0.  1.
         22    1    5    5    0    0  0.26128732629E+03  0.21254262736E+03 -0.10843077321E+04  0.11354156478E+04  0.00000000000E+00 0.  1.
          5    1    4    4  502    0  0.64238006111E+02 -0.45240667082E+01 -0.35827710037E+02  0.73842422869E+02  0.47000000000E+01 0. -1.
         -5    1    4    4    0  502  0.65694297869E+02  0.26759973761E+02 -0.29587253723E+03  0.30429341967E+03  0.47000000000E+01 0. -1.
<mgrwt>
<rscale>  0 0.10017437E+04</rscale>
<asrwt>0</asrwt>
<pdfrwt beam="1">  1        2 0.36818835E+00 0.10017437E+04</pdfrwt>
<pdfrwt beam="2">  1       -2 0.16127106E-01 0.10017437E+04</pdfrwt>
<totfact> 0.14296774E+02</totfact>
</mgrwt>
</event>
<event>
 9    1  0.4321150E-036  0.1000130E+04  0.7818608E-02  0.8680914E-01
          2   -1    0    0  501    0  0.00000000000E+00  0.00000000000E+00  0.12357719296E+04  0.12357719296E+04  0.00000000000E+00 0.  1.
         -2   -1    0    0    0  501 -0.00000000000E+00 -0.00000000000E+00 -0.20235540056E+03  0.20235540056E+03  0.00000000000E+00 0.  1.
         36    2    1    2    0    0  0.00000000000E+00  0.71054273576E-14  0.10334165291E+04  0.14381273302E+04  0.10001302392E+04 0.  0.
         25    2    3    3    0    0  0.99681731608E+02  0.45406304160E+02  0.29120262487E+03  0.33672972824E+03  0.12880124639E+03 0.  0.
         35    2    3    3    0    0 -0.99681731608E+02 -0.45406304160E+02  0.74221390420E+03  0.11013976020E+04  0.80634795090E+03 0.  0.
         22    1    5    5    0    0  0.18785886040E+03  0.77150485302E+02  0.76161524838E+03  0.78822644930E+03  0.00000000000E+00 0. -1.
         22    1    5    5    0    0 -0.28754059201E+03 -0.12255678946E+03 -0.19401344176E+02  0.31317115265E+03  0.00000000000E+00 0. -1.
          5    1    4    4  502    0 -0.10881720487E+02 -0.24687227064E+02  0.10860595581E+03  0.11200542245E+03  0.47000000000E+01 0.  1.
         -5    1    4    4    0  502  0.11056345210E+03  0.70093531224E+02  0.18259666906E+03  0.22472430579E+03  0.47000000000E+01 0.  1.
<mgrwt>
<rscale>  0 0.10001302E+04</rscale>
<asrwt>0</asrwt>
<pdfrwt beam="1">  1        2 0.19011876E+00 0.10001302E+04</pdfrwt>
<pdfrwt beam="2">  1       -2 0.31131601E-01 0.10001302E+04</pdfrwt>
<totfact> 0.20760623E+02</totfact>
</mgrwt>
</event>
<event>
 9    1  0.4321150E-036  0.1001307E+04  0.7818608E-02  0.8679795E-01
          1   -1    0    0  501    0  0.00000000000E+00  0.00000000000E+00  0.22210000557E+03  0.22210000557E+03  0.00000000000E+00 0. -1.
         -1   -1    0    0    0  501 -0.00000000000E+00 -0.00000000000E+00 -0.11285625005E+04  0.11285625005E+04  0.00000000000E+00 0. -1.
         36    2    1    2    0    0 -0.28421709430E-13  0.00000000000E+00 -0.90646249494E+03  0.13506625061E+04  0.10013066217E+04 0.  0.
         25    2    3    3    0    0 -0.74382889344E+02  0.11768351978E+03 -0.19664733346E+03  0.27161726279E+03  0.12539353505E+03 0.  0.
         35    2    3    3    0    0  0.74382889344E+02 -0.11768351978E+03 -0.70981516148E+03  0.10790452433E+04  0.80069897500E+03 0.  0.
         22    1    5    5    0    0 -0.24074300014E+03  0.14521033551E+02  0.49648990237E+02  0.24623784186E+03  0.00000000000E+00 0. -1.
         22    1    5    5    0    0  0.31512588949E+03 -0.13220455333E+03 -0.75946415172E+03  0.83280740144E+03  0.00000000000E+00 0. -1.
          5    1    4    4  502    0 -0.86847518113E+02  0.21615802170E+02 -0.82279686968E+02  0.12166252995E+03  0.47000000000E+01 0. -1.
         -5    1    4    4    0  502  0.12464628770E+02  0.96067717607E+02 -0.11436764649E+03  0.14995473284E+03  0.47000000000E+01 0. -1.
<mgrwt>
<rscale>  0 0.10013066E+04</rscale>
<asrwt>0</asrwt>
<pdfrwt beam="1">  1        1 0.34169231E-01 0.10013066E+04</pdfrwt>
<pdfrwt beam="2">  1       -1 0.17362500E+00 0.10013066E+04</pdfrwt>
<totfact> 0.33703540E+01</totfact>
</mgrwt>
</event>
<event>
 9    1  0.4321150E-036  0.1001050E+04  0.7818608E-02  0.8680039E-01
         -1   -1    0    0    0  501 -0.00000000000E+00  0.00000000000E+00  0.14790113309E+03  0.14790113309E+03  0.00000000000E+00 0. -1.
          1   -1    0    0  501    0  0.00000000000E+00 -0.00000000000E+00 -0.16938701557E+04  0.16938701557E+04  0.00000000000E+00 0. -1.
         36    2    1    2    0    0 -0.71054273576E-14  0.71054273576E-14 -0.15459690226E+04  0.18417712888E+04  0.10010500793E+04 0.  0.
         25    2    3    3    0    0  0.60366289211E+02 -0.27036914186E+02 -0.52175870601E+03  0.54067240607E+03  0.12537711030E+03 0.  0.
         35    2    3    3    0    0 -0.60366289211E+02  0.27036914186E+02 -0.10242103166E+04  0.13010988827E+04  0.79967271204E+03 0.  0.
         22    1    5    5    0    0 -0.33985086656E+03 -0.23389650640E+03 -0.44261490153E+03  0.60507366350E+03  0.00000000000E+00 0.  1.
         22    1    5    5    0    0  0.27948457735E+03  0.26093342058E+03 -0.58159541508E+03  0.69602521922E+03  0.00000000000E+00 0.  1.
          5    1    4    4  502    0  0.59839771813E+02  0.11157428956E+02 -0.10001754933E+03  0.11717886621E+03  0.47000000000E+01 0. -1.
         -5    1    4    4    0  502  0.52651739834E+00 -0.38194343142E+02 -0.42174115668E+03  0.42349353987E+03  0.47000000000E+01 0. -1.
<mgrwt>
<rscale>  0 0.10010501E+04</rscale>
<asrwt>0</asrwt>
<pdfrwt beam="1">  1        1 0.26059541E+00 0.10010501E+04</pdfrwt>
<pdfrwt beam="2">  1       -1 0.22754020E-01 0.10010501E+04</pdfrwt>
<totfact> 0.84327916E+01</totfact>
</mgrwt>
</event>
<event>
 9    1  0.4321150E-036  0.9976692E+03  0.7818608E-02  0.8683261E-01
         -2   -1    0    0    0  501 -0.00000000000E+00  0.00000000000E+00  0.47635699485E+03  0.47635699485E+03  0.00000000000E+00 0.  1.
          2   -1    0    0  501    0  0.00000000000E+00 -0.00000000000E+00 -0.52237287563E+03  0.52237287563E+03  0.00000000000E+00 0.  1.
         36    2    1    2    0    0  0.71054273576E-14  0.14210854715E-13 -0.46015880779E+02  0.99872987048E+03  0.99766923020E+03 0.  0.
         25    2    3    3    0    0  0.63444901678E+02 -0.98943132343E+02 -0.79257907191E+02  0.18878452405E+03  0.12467069296E+03 0.  0.
         35    2    3    3    0    0 -0.63444901678E+02  0.98943132343E+02  0.33242026412E+02  0.80994534643E+03  0.80068185498E+03 0.  0.
         22    1    5    5    0    0 -0.29221259954E+03 -0.10124279831E+03 -0.24754032645E+03  0.39612437536E+03  0.00000000000E+00 0.  1.
         22    1    5    5    0    0  0.22876769786E+03  0.20018593065E+03  0.28078235286E+03  0.41382097106E+03  0.00000000000E+00 0.  1.
          5    1    4    4  502    0  0.42120179072E+02 -0.12489115887E+03 -0.42021351856E+02  0.13841891150E+03  0.47000000000E+01 0.  1.
         -5    1    4    4    0  502  0.21324722606E+02  0.25948026524E+02 -0.37236555335E+02  0.50365612554E+02  0.47000000000E+01 0.  1.
<mgrwt>
<rscale>  0 0.99766923E+03</rscale>
<asrwt>0</asrwt>
<pdfrwt beam="1">  1        2 0.80365057E-01 0.99766923E+03</pdfrwt>
<pdfrwt beam="2">  1       -2 0.73285692E-01 0.99766923E+03</pdfrwt>
<totfact> 0.11885370E+02</totfact>
</mgrwt>
</event>
<event>
 9    1  0.4321150E-036  0.9984314E+03  0.7818608E-02  0.8682533E-01
          2   -1    0    0  501    0  0.00000000000E+00  0.00000000000E+00  0.86046158929E+03  0.86046158929E+03  0.00000000000E+00 0.  1.
         -2   -1    0    0    0  501 -0.00000000000E+00 -0.00000000000E+00 -0.28963095874E+03  0.28963095874E+03  0.00000000000E+00 0.  1.
         36    2    1    2    0    0 -0.14210854715E-13  0.00000000000E+00  0.57083063055E+03  0.11500925480E+04  0.99843139988E+03 0.  0.
         25    2    3    3    0    0  0.90066156686E+02 -0.72448613011E+02  0.19489656777E+03  0.25876441782E+03  0.12495454250E+03 0.  0.
         35    2    3    3    0    0 -0.90066156686E+02  0.72448613011E+02  0.37593406278E+03  0.89132813021E+03  0.79986167682E+03 0.  0.
         22    1    5    5    0    0  0.35214105814E+03  0.72068363630E+01  0.23189496766E+03  0.42169958424E+03  0.00000000000E+00 0.  1.
         22    1    5    5    0    0 -0.44220721483E+03  0.65241776648E+02  0.14403909511E+03  0.46962854597E+03  0.00000000000E+00 0.  1.
          5    1    4    4  502    0  0.56424413564E+02  0.15429610918E+02  0.13478524773E+03  0.14700659966E+03  0.47000000000E+01 0. -1.
         -5    1    4    4    0  502  0.33641743121E+02 -0.87878223929E+02  0.60111320047E+02  0.11175781816E+03  0.47000000000E+01 0. -1.
<mgrwt>
<rscale>  0 0.99843140E+03</rscale>
<asrwt>0</asrwt>
<pdfrwt beam="1">  1        2 0.13237870E+00 0.99843140E+03</pdfrwt>
<pdfrwt beam="2">  1       -2 0.44558609E-01 0.99843140E+03</pdfrwt>
<totfact> 0.18036956E+02</totfact>
</mgrwt>
</event>
<event>
 9    1  0.4321150E-036  0.1004359E+04  0.7818608E-02  0.8676898E-01
         -2   -1    0    0    0  501 -0.00000000000E+00  0.00000000000E+00  0.20944343010E+03  0.20944343010E+03  0.00000000000E+00 0.  1.
          2   -1    0    0  501    0  0.00000000000E+00 -0.00000000000E+00 -0.12040695101E+04  0.12040695101E+04  0.00000000000E+00 0.  1.
         36    2    1    2    0    0  0.14210854715E-13  0.71054273576E-14 -0.99462608004E+03  0.14135129402E+04  0.10043593944E+04 0.  0.
         25    2    3    3    0    0 -0.84917870437E+02 -0.59626131284E+02 -0.43105137663E+02  0.16760177763E+03  0.12436230426E+03 0.  0.
         35    2    3    3    0    0  0.84917870437E+02  0.59626131284E+02 -0.95152094238E+03  0.12459111626E+04  0.79758146988E+03 0.  0.
         22    1    5    5    0    0 -0.26386901488E+03 -0.71892309850E+02 -0.79660250959E+03  0.84224160400E+03  0.00000000000E+00 0.  1.
         22    1    5    5    0    0  0.34878688532E+03  0.13151844113E+03 -0.15491843279E+03  0.40366955861E+03  0.00000000000E+00 0.  1.
          5    1    4    4  502    0 -0.11709826137E+03 -0.39793200209E+02 -0.35535789990E+02  0.12876483980E+03  0.47000000000E+01 0. -1.
         -5    1    4    4    0  502  0.32180390934E+02 -0.19832931075E+02 -0.75693476736E+01  0.38836937828E+02  0.47000000000E+01 0. -1.
<mgrwt>
<rscale>  0 0.10043594E+04</rscale>
<asrwt>0</asrwt>
<pdfrwt beam="1">  1        2 0.18524147E+00 0.10043594E+04</pdfrwt>
<pdfrwt beam="2">  1       -2 0.32222065E-01 0.10043594E+04</pdfrwt>
<totfact> 0.20343375E+02</totfact>
</mgrwt>
</event>
<event>
 9    1  0.4321150E-036  0.9995623E+03  0.7818608E-02  0.8681455E-01
          2   -1    0    0  501    0  0.00000000000E+00  0.00000000000E+00  0.13518050844E+04  0.13518050844E+04  0.00000000000E+00 0. -1.
         -2   -1    0    0    0  501 -0.00000000000E+00 -0.00000000000E+00 -0.18477605599E+03  0.18477605599E+03  0.00000000000E+00 0. -1.
         36    2    1    2    0    0  0.28421709430E-13 -0.71054273576E-14  0.11670290284E+04  0.15365811403E+04  0.99956232813E+03 0.  0.
         25    2    3    3    0    0  0.11542497703E+03 -0.35513105610E+02  0.32520020483E+03  0.36878084733E+03  0.12514005813E+03 0.  0.
         35    2    3    3    0    0 -0.11542497703E+03  0.35513105610E+02  0.84182882354E+03  0.11678002930E+04  0.80031097095E+03 0.  0.
         22    1    5    5    0    0 -0.17466397503E+03  0.36016857603E+03  0.70465302820E+03  0.81041026492E+03  0.00000000000E+00 0. -1.
         22    1    5    5    0    0  0.59238998001E+02 -0.32465547042E+03  0.13717579534E+03  0.35739002810E+03  0.00000000000E+00 0. -1.
          5    1    4    4  502    0  0.12376954721E+02  0.38719960114E+02  0.43406663408E+02  0.59654444492E+02  0.47000000000E+01 0. -1.
         -5    1    4    4    0  502  0.10304802231E+03 -0.74233065724E+02  0.28179354142E+03  0.30912640284E+03  0.47000000000E+01 0. -1.
<mgrwt>
<rscale>  0 0.99956233E+03</rscale>
<asrwt>0</asrwt>
<pdfrwt beam="1">  1        2 0.20797001E+00 0.99956233E+03</pdfrwt>
<pdfrwt beam="2">  1       -2 0.28427086E-01 0.99956233E+03</pdfrwt>
<totfact> 0.20975606E+02</totfact>
</mgrwt>
</event>
<event>
 9    1  0.4321150E-036  0.1000385E+04  0.7818608E-02  0.8680671E-01
          2   -1    0    0  501    0  0.00000000000E+00  0.00000000000E+00  0.66455113318E+03  0.66455113318E+03  0.00000000000E+00 0. -1.
         -2   -1    0    0    0  501 -0.00000000000E+00 -0.00000000000E+00 -0.37648375867E+03  0.37648375867E+03  0.00000000000E+00 0. -1.
         36    2    1    2    0    0 -0.28421709430E-13  0.00000000000E+00  0.28806737451E+03  0.10410348918E+04  0.10003853426E+04 0.  0.
         25    2    3    3    0    0 -0.13319412222E+03 -0.33451407403E+02  0.84647372904E+02  0.20412392524E+03  0.12506689516E+03 0.  0.
         35    2    3    3    0    0  0.13319412222E+03  0.33451407403E+02  0.20342000160E+03  0.83691096660E+03  0.80011286586E+03 0.  0.
         22    1    5    5    0    0 -0.22456751940E+03 -0.14081797480E+03 -0.15009953046E+03  0.30461474331E+03  0.00000000000E+00 0. -1.
         22    1    5    5    0    0  0.35776164162E+03  0.17426938220E+03  0.35351953206E+03  0.53229622330E+03  0.00000000000E+00 0. -1.
          5    1    4    4  502    0 -0.96283944761E+02  0.28249938650E+02  0.85732478481E+02  0.13206363966E+03  0.47000000000E+01 0. -1.
         -5    1    4    4    0  502 -0.36910177455E+02 -0.61701346052E+02 -0.10851055777E+01  0.72060285585E+02  0.47000000000E+01 0. -1.
<mgrwt>
<rscale>  0 0.10003853E+04</rscale>
<asrwt>0</asrwt>
<pdfrwt beam="1">  1        2 0.10223864E+00 0.10003853E+04</pdfrwt>
<pdfrwt beam="2">  1       -2 0.57920578E-01 0.10003853E+04</pdfrwt>
<totfact> 0.14766800E+02</totfact>
</mgrwt>
</event>
<event>
 9    1  0.4321150E-036  0.1000261E+04  0.7818608E-02  0.8680790E-01
          2   -1    0    0  501    0  0.00000000000E+00  0.00000000000E+00  0.19283234564E+04  0.19283234564E+04  0.00000000000E+00 0.  1.
         -2   -1    0    0    0  501 -0.00000000000E+00 -0.00000000000E+00 -0.12971390111E+03  0.12971390111E+03  0.00000000000E+00 0.  1.
         36    2    1    2    0    0  0.71054273576E-14 -0.28421709430E-13  0.17986095552E+04  0.20580373575E+04  0.10002606823E+04 0.  0.
         25    2    3    3    0    0  0.71215970137E+01 -0.10650951303E+03  0.15110610414E+03  0.22358532389E+03  0.12554819331E+03 0.  0.
         35    2    3    3    0    0 -0.71215970137E+01  0.10650951303E+03  0.16475034511E+04  0.18344520336E+04  0.79971973124E+03 0.  0.
         22    1    5    5    0    0  0.26148827430E+03  0.34232736535E+03  0.70187548099E+03  0.82352494406E+03  0.00000000000E+00 0.  1.
         22    1    5    5    0    0 -0.26860987131E+03 -0.23581785233E+03  0.94562797012E+03  0.10109270895E+04  0.00000000000E+00 0.  1.
          5    1    4    4  502    0 -0.35998828700E+02 -0.33264577463E+01  0.87627066726E+02  0.94908238904E+02  0.47000000000E+01 0. -1.
         -5    1    4    4    0  502  0.43120425713E+02 -0.10318305528E+03  0.63479037409E+02  0.12867708499E+03  0.47000000000E+01 0. -1.
<mgrwt>
<rscale>  0 0.10002607E+04</rscale>
<asrwt>0</asrwt>
<pdfrwt beam="1">  1        2 0.29666513E+00 0.10002607E+04</pdfrwt>
<pdfrwt beam="2">  1       -2 0.19955986E-01 0.10002607E+04</pdfrwt>
<totfact> 0.18481832E+02</totfact>
</mgrwt>
</event>
<event>
 9    1  0.4321150E-036  0.1000594E+04  0.7818608E-02  0.8680473E-01
         -2   -1    0    0    0  501 -0.00000000000E+00  0.00000000000E+00  0.29268797964E+03  0.29268797964E+03  0.00000000000E+00 0.  1.
          2   -1    0    0  501    0  0.00000000000E+00 -0.00000000000E+00 -0.85516676145E+03  0.85516676145E+03  0.00000000000E+00 0.  1.
         36    2    1    2    0    0  0.71054273576E-14 -0.14210854715E-13 -0.56247878181E+03  0.11478547411E+04  0.10005938870E+04 0.  0.
         25    2    3    3    0    0 -0.36095649466E+02 -0.11131791170E+03 -0.18728983282E+02  0.17347116488E+03  0.12667634686E+03 0.  0.
         35    2    3    3    0    0  0.36095649466E+02  0.11131791170E+03 -0.54374979853E+03  0.97438357621E+03  0.80004058448E+03 0.  0.
         22    1    5    5    0    0 -0.14272487413E+03  0.42453565063E+03 -0.30107089259E+03  0.53967081700E+03  0.00000000000E+00 0. -1.
         22    1    5    5    0    0  0.17882052359E+03 -0.31321773893E+03 -0.24267890593E+03  0.43471275922E+03  0.00000000000E+00 0. -1.
          5    1    4    4  502    0 -0.34982168572E+01 -0.12091852332E+03  0.18927791448E+02  0.12253113112E+03  0.47000000000E+01 0. -1.
         -5    1    4    4    0  502 -0.32597432609E+02  0.96006116231E+01 -0.37656774729E+02  0.50940033758E+02  0.47000000000E+01 0. -1.
<mgrwt>
<rscale>  0 0.10005939E+04</rscale>
<asrwt>0</asrwt>
<pdfrwt beam="1">  1        2 0.13156412E+00 0.10005939E+04</pdfrwt>
<pdfrwt beam="2">  1       -2 0.45028920E-01 0.10005939E+04</pdfrwt>
<totfact> 0.17815588E+02</totfact>
</mgrwt>
</event>
<event>
 9    1  0.4321150E-036  0.9998534E+03  0.7818608E-02  0.8681178E-01
          2   -1    0    0  501    0  0.00000000000E+00  0.00000000000E+00  0.37614887532E+03  0.37614887532E+03  0.00000000000E+00 0. -1.
         -2   -1    0    0    0  501 -0.00000000000E+00 -0.00000000000E+00 -0.66443560791E+03  0.66443560791E+03  0.00000000000E+00 0. -1.
         36    2    1    2    0    0  0.14210854715E-13  0.28421709430E-13 -0.28828673259E+03  0.10405844832E+04  0.99985340253E+03 0.  0.
         25    2    3    3    0    0  0.85155278202E+02 -0.95250140432E+02 -0.11200350665E+03  0.21050891845E+03  0.12427875356E+03 0.  0.
         35    2    3    3    0    0 -0.85155278202E+02  0.95250140432E+02 -0.17628322594E+03  0.83007556479E+03  0.80101539114E+03 0.  0.
         22    1    5    5    0    0 -0.62156219072E+02 -0.33249661265E+03  0.55882396242E+02  0.34284141408E+03  0.00000000000E+00 0. -1.
         22    1    5    5    0    0 -0.22999059130E+02  0.42774675309E+03 -0.23216562218E+03  0.48723415071E+03  0.00000000000E+00 0. -1.
          5    1    4    4  502    0  0.61873922272E+02  0.16324020592E+02 -0.39883164929E+02  0.75548744201E+02  0.47000000000E+01 0.  1.
         -5    1    4    4    0  502  0.23281355930E+02 -0.11157416102E+03 -0.72120341719E+02  0.13496017424E+03  0.47000000000E+01 0.  1.
<mgrwt>
<rscale>  0 0.99985340E+03</rscale>
<asrwt>0</asrwt>
<pdfrwt beam="1">  1        2 0.57869057E-01 0.99985340E+03</pdfrwt>
<pdfrwt beam="2">  1       -2 0.10222086E+00 0.99985340E+03</pdfrwt>
<totfact> 0.79234094E+01</totfact>
</mgrwt>
</event>
<event>
 9    1  0.4321150E-036  0.9997067E+03  0.7818608E-02  0.8681317E-01
          1   -1    0    0  501    0  0.00000000000E+00  0.00000000000E+00  0.17486014834E+03  0.17486014834E+03  0.00000000000E+00 0. -1.
         -1   -1    0    0    0  501 -0.00000000000E+00 -0.00000000000E+00 -0.14288755295E+04  0.14288755295E+04  0.00000000000E+00 0. -1.
         36    2    1    2    0    0  0.00000000000E+00  0.28421709430E-13 -0.12540153812E+04  0.16037356779E+04  0.99970673111E+03 0.  0.
         25    2    3    3    0    0  0.25803630943E+00 -0.70307540653E+02 -0.42454144151E+03  0.44801308816E+03  0.12464780283E+03 0.  0.
         35    2    3    3    0    0 -0.25803630943E+00  0.70307540653E+02 -0.82947393967E+03  0.11557225897E+04  0.80170098597E+03 0.  0.
         22    1    5    5    0    0 -0.46501672510E+02 -0.16303160587E+03  0.99635983398E+02  0.19664444881E+03  0.00000000000E+00 0. -1.
         22    1    5    5    0    0  0.46243636201E+02  0.23333914653E+03 -0.92910992307E+03  0.95907814089E+03  0.00000000000E+00 0. -1.
          5    1    4    4  502    0  0.87319963796E+01 -0.90188484396E+02 -0.41341677853E+03  0.42325610834E+03  0.47000000000E+01 0. -1.
         -5    1    4    4    0  502 -0.84739600701E+01  0.19880943743E+02 -0.11124662978E+02  0.24756979819E+02  0.47000000000E+01 0. -1.
<mgrwt>
<rscale>  0 0.99970673E+03</rscale>
<asrwt>0</asrwt>
<pdfrwt beam="1">  1        1 0.26901561E-01 0.99970673E+03</pdfrwt>
<pdfrwt beam="2">  1       -1 0.21982701E+00 0.99970673E+03</pdfrwt>
<totfact> 0.18649172E+01</totfact>
</mgrwt>
</event>
<event>
 9    1  0.4321150E-036  0.1000243E+04  0.7818608E-02  0.8680807E-01
         -1   -1    0    0    0  501 -0.00000000000E+00  0.00000000000E+00  0.38046542648E+03  0.38046542648E+03  0.00000000000E+00 0. -1.
          1   -1    0    0  501    0  0.00000000000E+00 -0.00000000000E+00 -0.65740865997E+03  0.65740865997E+03  0.00000000000E+00 0. -1.
         36    2    1    2    0    0  0.71054273576E-14  0.00000000000E+00 -0.27694323350E+03  0.10378740865E+04  0.10002425030E+04 0.  0.
         25    2    3    3    0    0  0.32668906732E+02 -0.13650148493E+03 -0.47172210078E+02  0.19400633388E+03  0.12535281140E+03 0.  0.
         35    2    3    3    0    0 -0.32668906732E+02  0.13650148493E+03 -0.22977102342E+03  0.84386775257E+03  0.79976130675E+03 0.  0.
         22    1    5    5    0    0  0.15922542243E+03 -0.24863575907E+03  0.88985509645E+02  0.30836811891E+03  0.00000000000E+00 0.  1.
         22    1    5    5    0    0 -0.19189432916E+03  0.38513724400E+03 -0.31875653306E+03  0.53549963366E+03  0.00000000000E+00 0.  1.
          5    1    4    4  502    0  0.11516027609E+02 -0.15268768269E+03 -0.18036033308E+02  0.15425153430E+03  0.47000000000E+01 0.  1.
         -5    1    4    4    0  502  0.21152879123E+02  0.16186197754E+02 -0.29136176770E+02  0.39754799580E+02  0.47000000000E+01 0.  1.
<mgrwt>
<rscale>  0 0.10002425E+04</rscale>
<asrwt>0</asrwt>
<pdfrwt beam="1">  1        1 0.10113979E+00 0.10002425E+04</pdfrwt>
<pdfrwt beam="2">  1       -1 0.58533143E-01 0.10002425E+04</pdfrwt>
<totfact> 0.10234553E+02</totfact>
</mgrwt>
</event>
<event>
 9    1  0.4321150E-036  0.9997208E+03  0.7818608E-02  0.8681304E-01
         -1   -1    0    0    0  501 -0.00000000000E+00  0.00000000000E+00  0.21947607978E+03  0.21947607978E+03  0.00000000000E+00 0. -1.
          1   -1    0    0  501    0  0.00000000000E+00 -0.00000000000E+00 -0.11384403062E+04  0.11384403062E+04  0.00000000000E+00 0. -1.
         36    2    1    2    0    0  0.71054273576E-14 -0.14210854715E-13 -0.91896422641E+03  0.13579163860E+04  0.99972079195E+03 0.  0.
         25    2    3    3    0    0 -0.24229186699E+02  0.11688565725E+03 -0.77933170918E+02  0.18967254584E+03  0.12511109126E+03 0.  0.
         35    2    3    3    0    0  0.24229186699E+02 -0.11688565725E+03 -0.84103105549E+03  0.11682438401E+04  0.80200444097E+03 0.  0.
         22    1    5    5    0    0 -0.27356897844E+03 -0.15664637597E+03 -0.46307149891E+02  0.31862583888E+03  0.00000000000E+00 0. -1.
         22    1    5    5    0    0  0.29779816514E+03  0.39760718723E+02 -0.79472390560E+03  0.84961800125E+03  0.00000000000E+00 0. -1.
          5    1    4    4  502    0 -0.12288897043E+01  0.24958325900E+02  0.34308416118E+02  0.42703461431E+02  0.47000000000E+01 0.  1.
         -5    1    4    4    0  502 -0.23000296994E+02  0.91927331349E+02 -0.11224158704E+03  0.14696908441E+03  0.47000000000E+01 0.  1.
<mgrwt>
<rscale>  0 0.99972079E+03</rscale>
<asrwt>0</asrwt>
<pdfrwt beam="1">  1        1 0.17514467E+00 0.99972079E+03</pdfrwt>
<pdfrwt beam="2">  1       -1 0.33765550E-01 0.99972079E+03</pdfrwt>
<totfact> 0.10873751E+02</totfact>
</mgrwt>
</event>
<event>
 9    1  0.4321150E-036  0.9989984E+03  0.7818608E-02  0.8681992E-01
         -2   -1    0    0    0  501 -0.00000000000E+00  0.00000000000E+00  0.70595802732E+03  0.70595802732E+03  0.00000000000E+00 0. -1.
          2   -1    0    0  501    0  0.00000000000E+00 -0.00000000000E+00 -0.35341964082E+03  0.35341964082E+03  0.00000000000E+00 0. -1.
         36    2    1    2    0    0  0.00000000000E+00 -0.35527136788E-14  0.35253838650E+03  0.10593776681E+04  0.99899836326E+03 0.  0.
         25    2    3    3    0    0 -0.13413514759E+03  0.25761215168E+01  0.25334717803E+02  0.18441174544E+03  0.12396358219E+03 0.  0.
         35    2    3    3    0    0  0.13413514759E+03 -0.25761215168E+01  0.32720366869E+03  0.87496592270E+03  0.80031509473E+03 0.  0.
         22    1    5    5    0    0 -0.13946534926E+03 -0.36028759092E+02  0.51935625235E+03  0.53896156819E+03  0.00000000000E+00 0. -1.
         22    1    5    5    0    0  0.27360049686E+03  0.33452637575E+02 -0.19215258366E+03  0.33600435451E+03  0.00000000000E+00 0. -1.
          5    1    4    4  502    0 -0.13352763358E+03  0.30945344411E+02 -0.11556530442E+02  0.13763315977E+03  0.47000000000E+01 0. -1.
         -5    1    4    4    0  502 -0.60751400925E+00 -0.28369222894E+02  0.36891248245E+02  0.46778585677E+02  0.47000000000E+01 0. -1.
<mgrwt>
<rscale>  0 0.99899836E+03</rscale>
<asrwt>0</asrwt>
<pdfrwt beam="1">  1        2 0.54372253E-01 0.99899836E+03</pdfrwt>
<pdfrwt beam="2">  1       -2 0.10860893E+00 0.99899836E+03</pdfrwt>
<totfact> 0.73087714E+01</totfact>
</mgrwt>
</event>
<event>
 9    1  0.4321150E-036  0.9993211E+03  0.7818608E-02  0.8681685E-01
          2   -1    0    0  501    0  0.00000000000E+00  0.00000000000E+00  0.62366440817E+03  0.62366440817E+03  0.00000000000E+00 0.  1.
         -2   -1    0    0    0  501 -0.00000000000E+00 -0.00000000000E+00 -0.40031251838E+03  0.40031251838E+03  0.00000000000E+00 0.  1.
         36    2    1    2    0    0  0.14210854715E-13  0.00000000000E+00  0.22335188979E+03  0.10239769265E+04  0.99932110927E+03 0.  0.
         25    2    3    3    0    0 -0.81752552547E+02  0.10916078997E+03  0.68726269012E+02  0.19772977643E+03  0.12559540804E+03 0.  0.
         35    2    3    3    0    0  0.81752552547E+02 -0.10916078997E+03  0.15462562078E+03  0.82624715012E+03  0.80010981282E+03 0.  0.
         22    1    5    5    0    0 -0.27399987696E+03  0.19570895652E+03  0.11602522991E+03  0.35614573170E+03  0.00000000000E+00 0.  1.
         22    1    5    5    0    0  0.35575242951E+03 -0.30486974648E+03  0.38600390872E+02  0.47010141842E+03  0.00000000000E+00 0.  1.
          5    1    4    4  502    0 -0.11094102244E+03  0.68745932164E+02  0.68892003845E+02  0.14765538203E+03  0.47000000000E+01 0.  1.
         -5    1    4    4    0  502  0.29188469894E+02  0.40414857802E+02 -0.16573483304E+00  0.50074394394E+02  0.47000000000E+01 0.  1.
<mgrwt>
<rscale>  0 0.99932111E+03</rscale>
<asrwt>0</asrwt>
<pdfrwt beam="1">  1        2 0.95948370E-01 0.99932111E+03</pdfrwt>
<pdfrwt beam="2">  1       -2 0.61586541E-01 0.99932111E+03</pdfrwt>
<totfact> 0.14027001E+02</totfact>
</mgrwt>
</event>
<event>
 9    1  0.4321150E-036  0.9996909E+03  0.7818608E-02  0.8681332E-01
         -1   -1    0    0    0  501 -0.00000000000E+00  0.00000000000E+00  0.14793770785E+03  0.14793770785E+03  0.00000000000E+00 0.  1.
          1   -1    0    0  501    0  0.00000000000E+00 -0.00000000000E+00 -0.16888559838E+04  0.16888559838E+04  0.00000000000E+00 0.  1.
         36    2    1    2    0    0  0.14210854715E-13 -0.14210854715E-13 -0.15409182759E+04  0.18367936916E+04  0.99969091851E+03 0.  0.
         25    2    3    3    0    0  0.23229501611E+02 -0.94788332675E+02 -0.46699812976E+03  0.49358383246E+03  0.12654370273E+03 0.  0.
         35    2    3    3    0    0 -0.23229501611E+02  0.94788332675E+02 -0.10739201462E+04  0.13432098592E+04  0.80086441281E+03 0.  0.
         22    1    5    5    0    0 -0.55034652760E+02 -0.35326115253E+03 -0.48590687526E+03  0.60326424253E+03  0.00000000000E+00 0.  1.
         22    1    5    5    0    0  0.31805151149E+02  0.44804948521E+03 -0.58801327091E+03  0.73994561665E+03  0.00000000000E+00 0.  1.
          5    1    4    4  502    0 -0.46180187317E+02 -0.87988310196E+01 -0.10673938462E+03  0.11672795448E+03  0.47000000000E+01 0.  1.
         -5    1    4    4    0  502  0.69409688928E+02 -0.85989501656E+02 -0.36025874514E+03  0.37685587797E+03  0.47000000000E+01 0.  1.
<mgrwt>
<rscale>  0 0.99969092E+03</rscale>
<asrwt>0</asrwt>
<pdfrwt beam="1">  1        1 0.25982400E+00 0.99969092E+03</pdfrwt>
<pdfrwt beam="2">  1       -1 0.22759647E-01 0.99969092E+03</pdfrwt>
<totfact> 0.84990218E+01</totfact>
</mgrwt>
</event>
<event>
 9    1  0.4321150E-036  0.9887254E+03  0.7818608E-02  0.8691850E-01
         -2   -1    0    0    0  501 -0.00000000000E+00  0.00000000000E+00  0.19838784218E+03  0.19838784218E+03  0.00000000000E+00 0. -1.
          2   -1    0    0  501    0  0.00000000000E+00 -0.00000000000E+00 -0.12319025852E+04  0.12319025852E+04  0.00000000000E+00 0. -1.
         36    2    1    2    0    0 -0.71054273576E-14 -0.14210854715E-13 -0.10335147430E+04  0.14302904274E+04  0.98872543340E+03 0.  0.
         25    2    3    3    0    0  0.18682544355E+02 -0.12668701879E+03 -0.21665493724E+03  0.27936080715E+03  0.12126195014E+03 0.  0.
         35    2    3    3    0    0 -0.18682544355E+02  0.12668701879E+03 -0.81685980581E+03  0.11509296203E+04  0.80061252192E+03 0.  0.
         22    1    5    5    0    0 -0.17632818794E+03  0.53670875895E+02 -0.92705205487E+03  0.94519717796E+03  0.00000000000E+00 0.  1.
         22    1    5    5    0    0  0.15764564359E+03  0.73016142891E+02  0.11019224906E+03  0.20573244230E+03  0.00000000000E+00 0.  1.
          5    1    4    4  502    0  0.24561580687E+02  0.69774707314E+00 -0.11072347130E+03  0.11351447130E+03  0.47000000000E+01 0. -1.
         -5    1    4    4    0  502 -0.58790363322E+01 -0.12738476586E+03 -0.10593146593E+03  0.16584633585E+03  0.47000000000E+01 0. -1.
<mgrwt>
<rscale>  0 0.98872543E+03</rscale>
<asrwt>0</asrwt>
<pdfrwt beam="1">  1        2 0.18952348E+00 0.98872543E+03</pdfrwt>
<pdfrwt beam="2">  1       -2 0.30521206E-01 0.98872543E+03</pdfrwt>
<totfact> 0.21639871E+02</totfact>
</mgrwt>
</event>
<event>
 9    1  0.4321150E-036  0.9996104E+03  0.7818608E-02  0.8681409E-01
          1   -1    0    0  501    0  0.00000000000E+00  0.00000000000E+00  0.15935539803E+04  0.15935539803E+04  0.00000000000E+00 0.  1.
         -1   -1    0    0    0  501 -0.00000000000E+00 -0.00000000000E+00 -0.15675982197E+03  0.15675982197E+03  0.00000000000E+00 0.  1.
         36    2    1    2    0    0 -0.28421709430E-13  0.71054273576E-14  0.14367941583E+04  0.17503138022E+04  0.99961040059E+03 0.  0.
         25    2    3    3    0    0  0.57282386050E+02 -0.45287883813E+02  0.60404654746E+02  0.15696201467E+03  0.12512428846E+03 0.  0.
         35    2    3    3    0    0 -0.57282386050E+02  0.45287883813E+02  0.13763895036E+04  0.15933517876E+04  0.79936824384E+03 0.  0.
         22    1    5    5    0    0 -0.42356410396E+03  0.90432510823E+02  0.77201167685E+03  0.88520428059E+03  0.00000000000E+00 0.  1.
         22    1    5    5    0    0  0.36628171791E+03 -0.45144627009E+02  0.60437782671E+03  0.70814750698E+03  0.00000000000E+00 0.  1.
          5    1    4    4  502    0 -0.31409314438E+01 -0.62150189337E+02  0.69492204271E+02  0.93401113160E+02  0.47000000000E+01 0.  1.
         -5    1    4    4    0  502  0.60423317494E+02  0.16862305524E+02 -0.90875495251E+01  0.63560901511E+02  0.47000000000E+01 0.  1.
<mgrwt>
<rscale>  0 0.99961040E+03</rscale>
<asrwt>0</asrwt>
<pdfrwt beam="1">  1        1 0.24516214E+00 0.99961040E+03</pdfrwt>
<pdfrwt beam="2">  1       -1 0.24116897E-01 0.99961040E+03</pdfrwt>
<totfact> 0.90087609E+01</totfact>
</mgrwt>
</event>
<event>
 9    1  0.4321150E-036  0.1000178E+04  0.7818608E-02  0.8680869E-01
          2   -1    0    0  501    0  0.00000000000E+00  0.00000000000E+00  0.28756739140E+04  0.28756739140E+04  0.00000000000E+00 0. -1.
         -2   -1    0    0    0  501 -0.00000000000E+00 -0.00000000000E+00 -0.86967009413E+02  0.86967009413E+02  0.00000000000E+00 0. -1.
         36    2    1    2    0    0  0.00000000000E+00 -0.14210854715E-13  0.27887069045E+04  0.29626409234E+04  0.10001775049E+04 0.  0.
         25    2    3    3    0    0  0.70371483020E+02 -0.65816127491E+02  0.81921942554E+03  0.83474526370E+03  0.12804405427E+03 0.  0.
         35    2    3    3    0    0 -0.70371483020E+02  0.65816127491E+02  0.19694874790E+04  0.21278956597E+04  0.79985942528E+03 0.  0.
         22    1    5    5    0    0 -0.29308349115E+03  0.17983042550E+03  0.35534228210E+03  0.49447452126E+03  0.00000000000E+00 0.  1.
         22    1    5    5    0    0  0.22271200813E+03 -0.11401429801E+03  0.16141451969E+04  0.16334211384E+04  0.00000000000E+00 0.  1.
          5    1    4    4  502    0  0.11970133749E+02  0.35588809390E+02  0.30611639105E+03  0.30844640106E+03  0.47000000000E+01 0.  1.
         -5    1    4    4    0  502  0.58401349271E+02 -0.10140493688E+03  0.51310303449E+03  0.52629886264E+03  0.47000000000E+01 0.  1.
<mgrwt>
<rscale>  0 0.10001775E+04</rscale>
<asrwt>0</asrwt>
<pdfrwt beam="1">  1        2 0.44241130E+00 0.10001775E+04</pdfrwt>
<pdfrwt beam="2">  1       -2 0.13379542E-01 0.10001775E+04</pdfrwt>
<totfact> 0.97797283E+01</totfact>
</mgrwt>
</event>
<event>
 9    1  0.4321150E-036  0.9964887E+03  0.7818608E-02  0.8684389E-01
         -2   -1    0    0    0  501 -0.00000000000E+00  0.00000000000E+00  0.13264108573E+03  0.13264108573E+03  0.00000000000E+00 0. -1.
          2   -1    0    0  501    0  0.00000000000E+00 -0.00000000000E+00 -0.18715726285E+04  0.18715726285E+04  0.00000000000E+00 0. -1.
         36    2    1    2    0    0 -0.71054273576E-14 -0.14210854715E-13 -0.17389315427E+04  0.20042137142E+04  0.99648868626E+03 0.  0.
         25    2    3    3    0    0  0.34451157515E+02 -0.78588739200E+02 -0.53925270028E+03  0.56018605809E+03  0.12510744473E+03 0.  0.
         35    2    3    3    0    0 -0.34451157515E+02  0.78588739200E+02 -0.11996788424E+04  0.14440276561E+04  0.79913920839E+03 0.  0.
         22    1    5    5    0    0  0.24558486396E+02  0.10212882356E+03 -0.13113494671E+04  0.13155496344E+04  0.00000000000E+00 0.  1.
         22    1    5    5    0    0 -0.59009643911E+02 -0.23540084360E+02  0.11167062463E+03  0.12847802167E+03  0.00000000000E+00 0.  1.
          5    1    4    4  502    0 -0.10125030340E+02 -0.19188634210E+02 -0.77710289847E+01  0.23520178862E+02  0.47000000000E+01 0. -1.
         -5    1    4    4    0  502  0.44576187855E+02 -0.59400104990E+02 -0.53148167130E+03  0.53666587922E+03  0.47000000000E+01 0. -1.
<mgrwt>
<rscale>  0 0.99648869E+03</rscale>
<asrwt>0</asrwt>
<pdfrwt beam="1">  1        2 0.28793422E+00 0.99648869E+03</pdfrwt>
<pdfrwt beam="2">  1       -2 0.20406323E-01 0.99648869E+03</pdfrwt>
<totfact> 0.19148015E+02</totfact>
</mgrwt>
</event>
<event>
 9    1  0.4321150E-036  0.1000545E+04  0.7818608E-02  0.8680519E-01
         -1   -1    0    0    0  501 -0.00000000000E+00  0.00000000000E+00  0.10613929493E+04  0.10613929493E+04  0.00000000000E+00 0.  1.
          1   -1    0    0  501    0  0.00000000000E+00 -0.00000000000E+00 -0.23579648142E+03  0.23579648142E+03  0.00000000000E+00 0.  1.
         36    2    1    2    0    0  0.14210854715E-13  0.71054273576E-14  0.82559646784E+03  0.12971894307E+04  0.10005452970E+04 0.  0.
         25    2    3    3    0    0  0.12586906643E+03 -0.31970291878E+02  0.87964690813E+02  0.20069917014E+03  0.12520882005E+03 0.  0.
         35    2    3    3    0    0 -0.12586906643E+03  0.31970291878E+02  0.73763177703E+03  0.10964902605E+04  0.80082777895E+03 0.  0.
         22    1    5    5    0    0 -0.45695405279E+03  0.26509068786E+02  0.29829806489E+03  0.54634373119E+03  0.00000000000E+00 0.  1.
         22    1    5    5    0    0  0.33108498635E+03  0.54612230918E+01  0.43933371213E+03  0.55014652936E+03  0.00000000000E+00 0.  1.
          5    1    4    4  502    0  0.84878251672E+02 -0.72100805772E+02  0.89759518223E+02  0.14311430715E+03  0.47000000000E+01 0.  1.
         -5    1    4    4    0  502  0.40990814760E+02  0.40130513894E+02 -0.17948274105E+01  0.57584862989E+02  0.47000000000E+01 0.  1.
<mgrwt>
<rscale>  0 0.10005453E+04</rscale>
<asrwt>0</asrwt>
<pdfrwt beam="1">  1        1 0.36276383E-01 0.10005453E+04</pdfrwt>
<pdfrwt beam="2">  1       -1 0.16329122E+00 0.10005453E+04</pdfrwt>
<totfact> 0.38050531E+01</totfact>
</mgrwt>
</event>
<event>
 9    1  0.4321150E-036  0.1000278E+04  0.7818608E-02  0.8680774E-01
         -1   -1    0    0    0  501 -0.00000000000E+00  0.00000000000E+00  0.19942841190E+03  0.19942841190E+03  0.00000000000E+00 0. -1.
          1   -1    0    0  501    0  0.00000000000E+00 -0.00000000000E+00 -0.12542789095E+04  0.12542789095E+04  0.00000000000E+00 0. -1.
         36    2    1    2    0    0 -0.17763568394E-14  0.00000000000E+00 -0.10548504976E+04  0.14537073214E+04  0.10002776634E+04 0.  0.
         25    2    3    3    0    0  0.35732056371E+01  0.96488140438E+02 -0.33330046824E+03  0.36876060713E+03  0.12478963979E+03 0.  0.
         35    2    3    3    0    0 -0.35732056371E+01 -0.96488140438E+02 -0.72155002934E+03  0.10849467142E+04  0.80445770483E+03 0.  0.
         22    1    5    5    0    0 -0.56596801487E+02  0.33872751530E+03 -0.46127276844E+03  0.57507572933E+03  0.00000000000E+00 0. -1.
         22    1    5    5    0    0  0.53023595849E+02 -0.43521565574E+03 -0.26027726090E+03  0.50987098491E+03  0.00000000000E+00 0. -1.
          5    1    4    4  502    0 -0.12476748566E+02 -0.14098988913E+02 -0.16836547563E+03  0.16948001100E+03  0.47000000000E+01 0.  1.
         -5    1    4    4    0  502  0.16049954203E+02  0.11058712935E+03 -0.16493499261E+03  0.19928059613E+03  0.47000000000E+01 0.  1.
<mgrwt>
<rscale>  0 0.10002777E+04</rscale>
<asrwt>0</asrwt>
<pdfrwt beam="1">  1        1 0.19296598E+00 0.10002777E+04</pdfrwt>
<pdfrwt beam="2">  1       -1 0.30681294E-01 0.10002777E+04</pdfrwt>
<totfact> 0.10508440E+02</totfact>
</mgrwt>
</event>
<event>
 9    1  0.4321150E-036  0.9992067E+03  0.7818608E-02  0.8681794E-01
          2   -1    0    0  501    0  0.00000000000E+00  0.00000000000E+00  0.53963134060E+03  0.53963134060E+03  0.00000000000E+00 0.  1.
         -2   -1    0    0    0  501 -0.00000000000E+00 -0.00000000000E+00 -0.46254448769E+03  0.46254448769E+03  0.00000000000E+00 0.  1.
         36    2    1    2    0    0 -0.14210854715E-13  0.00000000000E+00  0.77086852906E+02  0.10021758283E+04  0.99920668929E+03 0.  0.
         25    2    3    3    0    0  0.62049903229E+02  0.30124167302E+02 -0.10593599247E+03  0.17834510435E+03  0.12580495141E+03 0.  0.
         35    2    3    3    0    0 -0.62049903229E+02 -0.30124167302E+02  0.18302284538E+03  0.82383072394E+03  0.80027622970E+03 0.  0.
         22    1    5    5    0    0 -0.41279061412E+03 -0.28389824373E+02  0.22432363931E+03  0.47066247820E+03  0.00000000000E+00 0.  1.
         22    1    5    5    0    0  0.35074071089E+03 -0.17343429295E+01 -0.41300793929E+02  0.35316824574E+03  0.00000000000E+00 0.  1.
          5    1    4    4  502    0  0.66545065399E+01  0.21458048771E+02 -0.11849266169E+03  0.12069519953E+03  0.47000000000E+01 0. -1.
         -5    1    4    4    0  502  0.55395396689E+02  0.86661185317E+01  0.12556669216E+02  0.57649904827E+02  0.47000000000E+01 0. -1.
<mgrwt>
<rscale>  0 0.99920669E+03</rscale>
<asrwt>0</asrwt>
<pdfrwt beam="1">  1        2 0.83020206E-01 0.99920669E+03</pdfrwt>
<pdfrwt beam="2">  1       -2 0.71160690E-01 0.99920669E+03</pdfrwt>
<totfact> 0.12209819E+02</totfact>
</mgrwt>
</event>
<event>
 9    1  0.4321150E-036  0.9996236E+03  0.7818608E-02  0.8681397E-01
         -2   -1    0    0    0  501 -0.00000000000E+00  0.00000000000E+00  0.14436327637E+03  0.14436327637E+03  0.00000000000E+00 0.  1.
          2   -1    0    0  501    0  0.00000000000E+00 -0.00000000000E+00 -0.17304388041E+04  0.17304388041E+04  0.00000000000E+00 0.  1.
         36    2    1    2    0    0  0.14210854715E-13 -0.42632564146E-13 -0.15860755277E+04  0.18748020805E+04  0.99962355978E+03 0.  0.
         25    2    3    3    0    0 -0.50025517698E+02  0.61475597419E+02 -0.51292284221E+03  0.53395442211E+03  0.12544194409E+03 0.  0.
         35    2    3    3    0    0  0.50025517698E+02 -0.61475597419E+02 -0.10731526855E+04  0.13408476583E+04  0.79995872080E+03 0.  0.
         22    1    5    5    0    0  0.22482163068E+03 -0.37801521236E+03 -0.53644895009E+03  0.69369859626E+03  0.00000000000E+00 0.  1.
         22    1    5    5    0    0 -0.17479611299E+03  0.31653961495E+03 -0.53670373542E+03  0.64714906208E+03  0.00000000000E+00 0.  1.
          5    1    4    4  502    0 -0.56494862482E+02  0.40615299938E+02 -0.10890888591E+03  0.12932326745E+03  0.47000000000E+01 0.  1.
         -5    1    4    4    0  502  0.64693447836E+01  0.20860297480E+02 -0.40401395630E+03  0.40463115466E+03  0.47000000000E+01 0.  1.
<mgrwt>
<rscale>  0 0.99962356E+03</rscale>
<asrwt>0</asrwt>
<pdfrwt beam="1">  1        2 0.26622137E+00 0.99962356E+03</pdfrwt>
<pdfrwt beam="2">  1       -2 0.22209734E-01 0.99962356E+03</pdfrwt>
<totfact> 0.19847120E+02</totfact>
</mgrwt>
</event>
<event>
 9    1  0.4321150E-036  0.9993811E+03  0.7818608E-02  0.8681628E-01
          1   -1    0    0  501    0  0.00000000000E+00  0.00000000000E+00  0.44787019586E+03  0.44787019586E+03  0.00000000000E+00 0.  1.
         -1   -1    0    0    0  501 -0.00000000000E+00 -0.00000000000E+00 -0.55750667558E+03  0.55750667558E+03  0.00000000000E+00 0.  1.
         36    2    1    2    0    0  0.00000000000E+00  0.00000000000E+00 -0.10963647971E+03  0.10053768714E+04  0.99938105643E+03 0.  0.
         25    2    3    3    0    0  0.10652412396E+03  0.89591888080E+02 -0.21657383428E+02  0.18805761765E+03  0.12458944540E+03 0.  0.
         35    2    3    3    0    0 -0.10652412396E+03 -0.89591888080E+02 -0.87979096282E+02  0.81731925379E+03  0.80056002013E+03 0.  0.
         22    1    5    5    0    0 -0.14205875902E+03 -0.16720132757E+03 -0.42034958034E+03  0.47416320465E+03  0.00000000000E+00 0.  1.
         22    1    5    5    0    0  0.35534635060E+02  0.77609439489E+02  0.33237048405E+03  0.34315604913E+03  0.00000000000E+00 0.  1.
          5    1    4    4  502    0 -0.21982803124E+02 -0.93823749296E+01 -0.55934395356E+01  0.24992982182E+02  0.47000000000E+01 0.  1.
         -5    1    4    4    0  502  0.12850692709E+03  0.98974263010E+02 -0.16063943893E+02  0.16306463547E+03  0.47000000000E+01 0.  1.
<mgrwt>
<rscale>  0 0.99938106E+03</rscale>
<asrwt>0</asrwt>
<pdfrwt beam="1">  1        1 0.68903107E-01 0.99938106E+03</pdfrwt>
<pdfrwt beam="2">  1       -1 0.85770258E-01 0.99938106E+03</pdfrwt>
<totfact> 0.82107735E+01</totfact>
</mgrwt>
</event>
<event>
 9    1  0.4321150E-036  0.1002186E+04  0.7818608E-02  0.8678959E-01
         -2   -1    0    0    0  501 -0.00000000000E+00  0.00000000000E+00  0.37206216939E+03  0.37206216939E+03  0.00000000000E+00 0. -1.
          2   -1    0    0  501    0  0.00000000000E+00 -0.00000000000E+00 -0.67487216088E+03  0.67487216088E+03  0.00000000000E+00 0. -1.
         36    2    1    2    0    0  0.00000000000E+00  0.14210854715E-13 -0.30280999149E+03  0.10469343303E+04  0.10021864103E+04 0.  0.
         25    2    3    3    0    0  0.10472804008E+03 -0.15245287498E+02 -0.16205689380E+03  0.23043425432E+03  0.12504850086E+03 0.  0.
         35    2    3    3    0    0 -0.10472804008E+03  0.15245287498E+02 -0.14075309768E+03  0.81650007595E+03  0.79728323597E+03 0.  0.
         22    1    5    5    0    0 -0.37351976179E+03 -0.11517302770E+03  0.13139635457E+03  0.41236736141E+03  0.00000000000E+00 0.  1.
         22    1    5    5    0    0  0.26879172172E+03  0.13041831520E+03 -0.27214945226E+03  0.40413271455E+03  0.00000000000E+00 0.  1.
          5    1    4    4  502    0  0.52835214963E+02 -0.56885394542E+02 -0.14004855255E+03  0.16019736304E+03  0.47000000000E+01 0.  1.
         -5    1    4    4    0  502  0.51892825113E+02  0.41640107044E+02 -0.22008341255E+02  0.70236891287E+02  0.47000000000E+01 0.  1.
<mgrwt>
<rscale>  0 0.10021864E+04</rscale>
<asrwt>0</asrwt>
<pdfrwt beam="1">  1        2 0.10382649E+00 0.10021864E+04</pdfrwt>
<pdfrwt beam="2">  1       -2 0.57240334E-01 0.10021864E+04</pdfrwt>
<totfact> 0.14850592E+02</totfact>
</mgrwt>
</event>
<event>
 9    1  0.4321150E-036  0.9966668E+03  0.7818608E-02  0.8684219E-01
         -2   -1    0    0    0  501 -0.00000000000E+00  0.00000000000E+00  0.28108699567E+03  0.28108699567E+03  0.00000000000E+00 0. -1.
          2   -1    0    0  501    0  0.00000000000E+00 -0.00000000000E+00 -0.88348506406E+03  0.88348506406E+03  0.00000000000E+00 0. -1.
         36    2    1    2    0    0 -0.14210854715E-13  0.71054273576E-14 -0.60239806839E+03  0.11645720597E+04  0.99666676953E+03 0.  0.
         25    2    3    3    0    0  0.11290416052E+03 -0.52519420138E+02 -0.48155873311E+02  0.18271733512E+03  0.12474372716E+03 0.  0.
         35    2    3    3    0    0 -0.11290416052E+03  0.52519420138E+02 -0.55424219508E+03  0.98185472460E+03  0.80084246295E+03 0.  0.
         22    1    5    5    0    0  0.20292507930E+03 -0.85141011390E+02 -0.59550585686E+03  0.63486597419E+03  0.00000000000E+00 0. -1.
         22    1    5    5    0    0 -0.31582923981E+03  0.13766043153E+03  0.41263661784E+02  0.34698875041E+03  0.00000000000E+00 0. -1.
          5    1    4    4  502    0  0.10108757493E+02 -0.17716609010E+02  0.38457668813E+02  0.43785242986E+02  0.47000000000E+01 0. -1.
         -5    1    4    4    0  502  0.10279540302E+03 -0.34802811128E+02 -0.86613542124E+02  0.13893209213E+03  0.47000000000E+01 0. -1.
<mgrwt>
<rscale>  0 0.99666677E+03</rscale>
<asrwt>0</asrwt>
<pdfrwt beam="1">  1        2 0.13592078E+00 0.99666677E+03</pdfrwt>
<pdfrwt beam="2">  1       -2 0.43244154E-01 0.99666677E+03</pdfrwt>
<totfact> 0.18454679E+02</totfact>
</mgrwt>
</event>
<event>
 9    1  0.4321150E-036  0.9992981E+03  0.7818608E-02  0.8681707E-01
         -2   -1    0    0    0  501 -0.00000000000E+00  0.00000000000E+00  0.10935516913E+04  0.10935516913E+04  0.00000000000E+00 0. -1.
          2   -1    0    0  501    0  0.00000000000E+00 -0.00000000000E+00 -0.22829206826E+03  0.22829206826E+03  0.00000000000E+00 0. -1.
         36    2    1    2    0    0  0.17763568394E-13  0.00000000000E+00  0.86525962303E+03  0.13218437596E+04  0.99929810839E+03 0.  0.
         25    2    3    3    0    0 -0.10583739677E+02 -0.14060437504E+03  0.16171643704E+03  0.24859518559E+03  0.12556175559E+03 0.  0.
         35    2    3    3    0    0  0.10583739677E+02  0.14060437504E+03  0.70354318599E+03  0.10732485740E+04  0.79812773485E+03 0.  0.
         22    1    5    5    0    0  0.36225365724E+03 -0.10907182180E+03  0.35376181700E+03  0.51794960919E+03  0.00000000000E+00 0. -1.
         22    1    5    5    0    0 -0.35166991756E+03  0.24967619683E+03  0.34978136899E+03  0.55529896477E+03  0.00000000000E+00 0. -1.
          5    1    4    4  502    0  0.17446401816E+02  0.16909317080E+02  0.63858252925E+01  0.25557204564E+02  0.47000000000E+01 0.  1.
         -5    1    4    4    0  502 -0.28030141493E+02 -0.15751369212E+03  0.15533061175E+03  0.22303798103E+03  0.47000000000E+01 0.  1.
<mgrwt>
<rscale>  0 0.99929811E+03</rscale>
<asrwt>0</asrwt>
<pdfrwt beam="1">  1        2 0.35121857E-01 0.99929811E+03</pdfrwt>
<pdfrwt beam="2">  1       -2 0.16823872E+00 0.99929811E+03</pdfrwt>
<totfact> 0.36436690E+01</totfact>
</mgrwt>
</event>
<event>
 9    1  0.4321150E-036  0.1001242E+04  0.7818608E-02  0.8679856E-01
          2   -1    0    0  501    0  0.00000000000E+00  0.00000000000E+00  0.11703974044E+04  0.11703974044E+04  0.00000000000E+00 0. -1.
         -2   -1    0    0    0  501 -0.00000000000E+00 -0.00000000000E+00 -0.21413379014E+03  0.21413379014E+03  0.00000000000E+00 0. -1.
         36    2    1    2    0    0  0.00000000000E+00  0.15987211555E-13  0.95626361424E+03  0.13845311945E+04  0.10012424925E+04 0.  0.
         25    2    3    3    0    0 -0.48631830102E+02  0.14413720900E+02  0.36603612211E+03  0.39014791140E+03  0.12514048039E+03 0.  0.
         35    2    3    3    0    0  0.48631830102E+02 -0.14413720900E+02  0.59022749213E+03  0.99438328313E+03  0.79865938362E+03 0.  0.
         22    1    5    5    0    0 -0.17467924140E+03  0.23875503697E+03  0.58637961642E+03  0.65677839459E+03  0.00000000000E+00 0.  1.
         22    1    5    5    0    0  0.22331107150E+03 -0.25316875787E+03  0.38478757096E+01  0.33760488853E+03  0.00000000000E+00 0.  1.
          5    1    4    4  502    0  0.37752204400E+02  0.28293078406E+02  0.12819311109E+03  0.13667951914E+03  0.47000000000E+01 0. -1.
         -5    1    4    4    0  502 -0.86384034502E+02 -0.13879357507E+02  0.23784301102E+03  0.25346839226E+03  0.47000000000E+01 0. -1.
<mgrwt>
<rscale>  0 0.10012425E+04</rscale>
<asrwt>0</asrwt>
<pdfrwt beam="1">  1        2 0.18006114E+00 0.10012425E+04</pdfrwt>
<pdfrwt beam="2">  1       -2 0.32943661E-01 0.10012425E+04</pdfrwt>
<totfact> 0.20448150E+02</totfact>
</mgrwt>
</event>
<event>
 9    1  0.4321150E-036  0.1001458E+04  0.7818608E-02  0.8679650E-01
          2   -1    0    0  501    0  0.00000000000E+00  0.00000000000E+00  0.13256105235E+04  0.13256105235E+04  0.00000000000E+00 0. -1.
         -2   -1    0    0    0  501 -0.00000000000E+00 -0.00000000000E+00 -0.18914283210E+03  0.18914283210E+03  0.00000000000E+00 0. -1.
         36    2    1    2    0    0  0.49737991503E-13 -0.71054273576E-14  0.11364676914E+04  0.15147533556E+04  0.10014583939E+04 0.  0.
         25    2    3    3    0    0  0.48255276988E+01 -0.47582813203E+02  0.12392116924E+02  0.13410810179E+03  0.12467561339E+03 0.  0.
         35    2    3    3    0    0 -0.48255276988E+01  0.47582813203E+02  0.11240755745E+04  0.13806452538E+04  0.80021747662E+03 0.  0.
         22    1    5    5    0    0 -0.33697831010E+03  0.36838895355E+02  0.94323926930E+03  0.10023032499E+04  0.00000000000E+00 0.  1.
         22    1    5    5    0    0  0.33215278240E+03  0.10743917848E+02  0.18083630520E+03  0.37834200389E+03  0.00000000000E+00 0.  1.
          5    1    4    4  502    0 -0.49687374219E+02 -0.36799460576E+02  0.38016689467E+02  0.72735095611E+02  0.47000000000E+01 0.  1.
         -5    1    4    4    0  502  0.54512901918E+02 -0.10783352628E+02 -0.25624572544E+02  0.61373006179E+02  0.47000000000E+01 0.  1.
<mgrwt>
<rscale>  0 0.10014584E+04</rscale>
<asrwt>0</asrwt>
<pdfrwt beam="1">  1        2 0.20394007E+00 0.10014584E+04</pdfrwt>
<pdfrwt beam="2">  1       -2 0.29098898E-01 0.10014584E+04</pdfrwt>
<totfact> 0.20817760E+02</totfact>
</mgrwt>
</event>
<event>
 9    1  0.4321150E-036  0.1000367E+04  0.7818608E-02  0.8680689E-01
          1   -1    0    0  501    0  0.00000000000E+00  0.00000000000E+00  0.14534770338E+04  0.14534770338E+04  0.00000000000E+00 0. -1.
         -1   -1    0    0    0  501 -0.00000000000E+00 -0.00000000000E+00 -0.17212752839E+03  0.17212752839E+03  0.00000000000E+00 0. -1.
         36    2    1    2    0    0  0.00000000000E+00  0.71054273576E-14  0.12813495054E+04  0.16256045622E+04  0.10003667515E+04 0.  0.
         25    2    3    3    0    0 -0.71930161031E+02  0.12544621282E+02  0.48148874771E+02  0.15306982667E+03  0.12562142375E+03 0.  0.
         35    2    3    3    0    0  0.71930161031E+02 -0.12544621282E+02  0.12332006306E+04  0.14725347355E+04  0.80140092108E+03 0.  0.
         22    1    5    5    0    0 -0.35563862056E+03  0.80033755100E+02  0.62103028071E+03  0.72011307442E+03  0.00000000000E+00 0. -1.
         22    1    5    5    0    0  0.42756878159E+03 -0.92578376381E+02  0.61217034991E+03  0.75242166108E+03  0.00000000000E+00 0. -1.
          5    1    4    4  502    0  0.59571551301E+01  0.54551803390E+02  0.75405941344E+01  0.55590804188E+02  0.47000000000E+01 0.  1.
         -5    1    4    4    0  502 -0.77887316161E+02 -0.42007182109E+02  0.40608280636E+02  0.97479022481E+02  0.47000000000E+01 0.  1.
<mgrwt>
<rscale>  0 0.10003668E+04</rscale>
<asrwt>0</asrwt>
<pdfrwt beam="1">  1        1 0.22361184E+00 0.10003668E+04</pdfrwt>
<pdfrwt beam="2">  1       -1 0.26481159E-01 0.10003668E+04</pdfrwt>
<totfact> 0.96820972E+01</totfact>
</mgrwt>
</event>
<event>
 9    1  0.4321150E-036  0.9999823E+03  0.7818608E-02  0.8681055E-01
          1   -1    0    0  501    0  0.00000000000E+00  0.00000000000E+00  0.25525752049E+04  0.25525752049E+04  0.00000000000E+00 0.  1.
         -1   -1    0    0    0  501 -0.00000000000E+00 -0.00000000000E+00 -0.97936843718E+02  0.97936843718E+02  0.00000000000E+00 0.  1.
         36    2    1    2    0    0 -0.10658141036E-13 -0.28421709430E-13  0.24546383612E+04  0.26505120486E+04  0.99998231769E+03 0.  0.
         25    2    3    3    0    0  0.15872674017E+02 -0.11001112569E+03  0.69574405348E+03  0.71547687900E+03  0.12447082739E+03 0.  0.
         35    2    3    3    0    0 -0.15872674017E+02  0.11001112569E+03  0.17588943077E+04  0.19350351696E+04  0.79893524922E+03 0.  0.
         22    1    5    5    0    0 -0.15764040947E+03 -0.31288895570E+03  0.62384778605E+03  0.71549707019E+03  0.00000000000E+00 0.  1.
         22    1    5    5    0    0  0.14176773545E+03  0.42290008138E+03  0.11350465217E+04  0.12195380994E+04  0.00000000000E+00 0.  1.
          5    1    4    4  502    0 -0.18774004273E+00  0.49932667796E-01  0.39111386206E+03  0.39114214915E+03  0.47000000000E+01 0. -1.
         -5    1    4    4    0  502  0.16060414060E+02 -0.11006105836E+03  0.30463019142E+03  0.32433472985E+03  0.47000000000E+01 0. -1.
<mgrwt>
<rscale>  0 0.99998232E+03</rscale>
<asrwt>0</asrwt>
<pdfrwt beam="1">  1        1 0.39270383E+00 0.99998232E+03</pdfrwt>
<pdfrwt beam="2">  1       -1 0.15067209E-01 0.99998232E+03</pdfrwt>
<totfact> 0.41405279E+01</totfact>
</mgrwt>
</event>
<event>
 9    1  0.4321150E-036  0.1000699E+04  0.7818608E-02  0.8680373E-01
          1   -1    0    0  501    0  0.00000000000E+00  0.00000000000E+00  0.10873198581E+04  0.10873198581E+04  0.00000000000E+00 0.  1.
         -1   -1    0    0    0  501 -0.00000000000E+00 -0.00000000000E+00 -0.23024466422E+03  0.23024466422E+03  0.00000000000E+00 0.  1.
         36    2    1    2    0    0  0.14210854715E-13  0.00000000000E+00  0.85707519383E+03  0.13175645223E+04  0.10006989470E+04 0.  0.
         25    2    3    3    0    0 -0.40191996134E+02 -0.12851630592E+03  0.10491609231E+03  0.21168258765E+03  0.12518104508E+03 0.  0.
         35    2    3    3    0    0  0.40191996134E+02  0.12851630592E+03  0.75215910152E+03  0.11058819346E+04  0.79943711565E+03 0.  0.
         22    1    5    5    0    0  0.28769189188E+03  0.33813874199E+03  0.25413958997E+03  0.51155778234E+03  0.00000000000E+00 0. -1.
         22    1    5    5    0    0 -0.24749989575E+03 -0.20962243607E+03  0.49801951155E+03  0.59432415228E+03  0.00000000000E+00 0. -1.
          5    1    4    4  502    0  0.11354393468E+02  0.20627103687E+02  0.40723641301E+01  0.24353106725E+02  0.47000000000E+01 0. -1.
         -5    1    4    4    0  502 -0.51546389602E+02 -0.14914340960E+03  0.10084372818E+03  0.18732948092E+03  0.47000000000E+01 0. -1.
<mgrwt>
<rscale>  0 0.10006989E+04</rscale>
<asrwt>0</asrwt>
<pdfrwt beam="1">  1        1 0.16727998E+00 0.10006989E+04</pdfrwt>
<pdfrwt beam="2">  1       -1 0.35422257E-01 0.10006989E+04</pdfrwt>
<totfact> 0.10943754E+02</totfact>
</mgrwt>
</event>
<event>
 9    1  0.4321150E-036  0.1000373E+04  0.7818608E-02  0.8680682E-01
          2   -1    0    0  501    0  0.00000000000E+00  0.00000000000E+00  0.18766907014E+04  0.18766907014E+04  0.00000000000E+00 0.  1.
         -2   -1    0    0    0  501 -0.00000000000E+00 -0.00000000000E+00 -0.13331272669E+03  0.13331272669E+03  0.00000000000E+00 0.  1.
         36    2    1    2    0    0 -0.71054273576E-14  0.00000000000E+00  0.17433779747E+04  0.20100034281E+04  0.10003734394E+04 0.  0.
         25    2    3    3    0    0  0.93777399861E+01 -0.11730301082E+03  0.47956997942E+03  0.50936961331E+03  0.12498839725E+03 0.  0.
         35    2    3    3    0    0 -0.93777399861E+01  0.11730301082E+03  0.12638079953E+04  0.15006338148E+04  0.80052686324E+03 0.  0.
         22    1    5    5    0    0 -0.34307859839E+03 -0.13007570101E+03  0.40403725486E+03  0.54577350245E+03  0.00000000000E+00 0. -1.
         22    1    5    5    0    0  0.33370085840E+03  0.24737871183E+03  0.85977074044E+03  0.95486031234E+03  0.00000000000E+00 0. -1.
          5    1    4    4  502    0  0.60623537323E+02 -0.50381151478E+02  0.31064909776E+03  0.32052835388E+03  0.47000000000E+01 0.  1.
         -5    1    4    4    0  502 -0.51245797337E+02 -0.66921859339E+02  0.16892088166E+03  0.18884125943E+03  0.47000000000E+01 0.  1.
<mgrwt>
<rscale>  0 0.10003734E+04</rscale>
<asrwt>0</asrwt>
<pdfrwt beam="1">  1        2 0.28872163E+00 0.10003734E+04</pdfrwt>
<pdfrwt beam="2">  1       -2 0.20509652E-01 0.10003734E+04</pdfrwt>
<totfact> 0.18854749E+02</totfact>
</mgrwt>
</event>
<event>
 9    1  0.4321150E-036  0.9893356E+03  0.7818608E-02  0.8691261E-01
         -1   -1    0    0    0  501 -0.00000000000E+00  0.00000000000E+00  0.10977250083E+03  0.10977250083E+03  0.00000000000E+00 0. -1.
          1   -1    0    0  501    0  0.00000000000E+00 -0.00000000000E+00 -0.22291212219E+04  0.22291212219E+04  0.00000000000E+00 0. -1.
         36    2    1    2    0    0  0.10658141036E-13  0.00000000000E+00 -0.21193487210E+04  0.23388937227E+04  0.98933555719E+03 0.  0.
         25    2    3    3    0    0  0.29555242278E+02  0.86747780611E+02 -0.60862370665E+03  0.62803194594E+03  0.12491044410E+03 0.  0.
         35    2    3    3    0    0 -0.29555242278E+02 -0.86747780611E+02 -0.15107250144E+04  0.17108617767E+04  0.79772129235E+03 0.  0.
         22    1    5    5    0    0  0.22675078989E+03 -0.18969314122E+03 -0.16802506682E+03  0.34004680799E+03  0.00000000000E+00 0.  1.
         22    1    5    5    0    0 -0.25630603217E+03  0.10294536061E+03 -0.13426999476E+04  0.13708149688E+04  0.00000000000E+00 0.  1.
          5    1    4    4  502    0 -0.22084516866E+02  0.48282455923E+01 -0.17399993635E+02  0.28911721139E+02  0.47000000000E+01 0.  1.
         -5    1    4    4    0  502  0.51639759144E+02  0.81919535018E+02 -0.59122371301E+03  0.59912022480E+03  0.47000000000E+01 0.  1.
<mgrwt>
<rscale>  0 0.98933556E+03</rscale>
<asrwt>0</asrwt>
<pdfrwt beam="1">  1        1 0.34294167E+00 0.98933556E+03</pdfrwt>
<pdfrwt beam="2">  1       -1 0.16888080E-01 0.98933556E+03</pdfrwt>
<totfact> 0.58099737E+01</totfact>
</mgrwt>
</event>
<event>
 9    1  0.4321150E-036  0.1000368E+04  0.7818608E-02  0.8680687E-01
          2   -1    0    0  501    0  0.00000000000E+00  0.00000000000E+00  0.11708551345E+04  0.11708551345E+04  0.00000000000E+00 0. -1.
         -2   -1    0    0    0  501 -0.00000000000E+00 -0.00000000000E+00 -0.21367651223E+03  0.21367651223E+03  0.00000000000E+00 0. -1.
         36    2    1    2    0    0  0.00000000000E+00  0.28421709430E-13  0.95717862232E+03  0.13845316468E+04  0.10003684151E+04 0.  0.
         25    2    3    3    0    0 -0.10512920157E+03 -0.93846052754E+02  0.14272412354E+03  0.23706024777E+03  0.12636516527E+03 0.  0.
         35    2    3    3    0    0  0.10512920157E+03  0.93846052754E+02  0.81445449878E+03  0.11474713990E+04  0.79592414860E+03 0.  0.
         22    1    5    5    0    0 -0.44109898345E+02  0.43373524516E+03  0.46991698934E+03  0.64101008018E+03  0.00000000000E+00 0.  1.
         22    1    5    5    0    0  0.14923909992E+03 -0.33988919240E+03  0.34453750944E+03  0.50646131883E+03  0.00000000000E+00 0.  1.
          5    1    4    4  502    0 -0.85210702022E+02 -0.24385568448E+02  0.14684411388E+02  0.89962445639E+02  0.47000000000E+01 0. -1.
         -5    1    4    4    0  502 -0.19918499551E+02 -0.69460484306E+02  0.12803971215E+03  0.14709780213E+03  0.47000000000E+01 0. -1.
<mgrwt>
<rscale>  0 0.10003684E+04</rscale>
<asrwt>0</asrwt>
<pdfrwt beam="1">  1        2 0.18013155E+00 0.10003684E+04</pdfrwt>
<pdfrwt beam="2">  1       -2 0.32873310E-01 0.10003684E+04</pdfrwt>
<totfact> 0.20516295E+02</totfact>
</mgrwt>
</event>
<event>
 9    1  0.4321150E-036  0.9964018E+03  0.7818608E-02  0.8684472E-01
         -1   -1    0    0    0  501 -0.00000000000E+00  0.00000000000E+00  0.18775013786E+03  0.18775013786E+03  0.00000000000E+00 0.  1.
          1   -1    0    0  501    0  0.00000000000E+00 -0.00000000000E+00 -0.13219918220E+04  0.13219918220E+04  0.00000000000E+00 0.  1.
         36    2    1    2    0    0  0.00000000000E+00  0.35527136788E-14 -0.11342416841E+04  0.15097419598E+04  0.99640182020E+03 0.  0.
         25    2    3    3    0    0 -0.13134383524E+03 -0.37696350448E+01 -0.16774165873E+03  0.24883634291E+03  0.12851789088E+03 0.  0.
         35    2    3    3    0    0  0.13134383524E+03  0.37696350448E+01 -0.96650002536E+03  0.12609056169E+04  0.79905898562E+03 0.  0.
         22    1    5    5    0    0 -0.22034324227E+03  0.24707360000E+03 -0.64806274923E+03  0.72772373547E+03  0.00000000000E+00 0. -1.
         22    1    5    5    0    0  0.35168707752E+03 -0.24330396495E+03 -0.31843727613E+03  0.53318188143E+03  0.00000000000E+00 0. -1.
          5    1    4    4  502    0 -0.10802020958E+03 -0.32984532620E+02 -0.47123797300E+02  0.12247076117E+03  0.47000000000E+01 0.  1.
         -5    1    4    4    0  502 -0.23323625668E+02  0.29214897576E+02 -0.12061786143E+03  0.12636558175E+03  0.47000000000E+01 0.  1.
<mgrwt>
<rscale>  0 0.99640182E+03</rscale>
<asrwt>0</asrwt>
<pdfrwt beam="1">  1        1 0.20338336E+00 0.99640182E+03</pdfrwt>
<pdfrwt beam="2">  1       -1 0.28884636E-01 0.99640182E+03</pdfrwt>
<totfact> 0.10396558E+02</totfact>
</mgrwt>
</event>
<event>
 9    1  0.4321150E-036  0.1000014E+04  0.7818608E-02  0.8681025E-01
         -1   -1    0    0    0  501 -0.00000000000E+00  0.00000000000E+00  0.79873181580E+03  0.79873181580E+03  0.00000000000E+00 0. -1.
          1   -1    0    0  501    0  0.00000000000E+00 -0.00000000000E+00 -0.31300499074E+03  0.31300499074E+03  0.00000000000E+00 0. -1.
         36    2    1    2    0    0 -0.71054273576E-14 -0.21316282073E-13  0.48572682506E+03  0.11117368065E+04  0.10000140891E+04 0.  0.
         25    2    3    3    0    0 -0.46159566208E+02  0.12618889910E+02  0.25140568251E+03  0.28456561165E+03  0.12443001326E+03 0.  0.
         35    2    3    3    0    0  0.46159566208E+02 -0.12618889910E+02  0.23432114255E+03  0.82717119488E+03  0.79184332154E+03 0.  0.
         22    1    5    5    0    0 -0.64934135032E+02 -0.34787499407E+03  0.30476878680E+03  0.46703047737E+03  0.00000000000E+00 0.  1.
         22    1    5    5    0    0  0.11109370124E+03  0.33525610416E+03 -0.70447644244E+02  0.36014071751E+03  0.00000000000E+00 0.  1.
          5    1    4    4  502    0 -0.76025440245E+02  0.44755370476E+02  0.15203951136E+03  0.17584371972E+03  0.47000000000E+01 0.  1.
         -5    1    4    4    0  502  0.29865874037E+02 -0.32136480566E+02  0.99366171153E+02  0.10872189193E+03  0.47000000000E+01 0.  1.
<mgrwt>
<rscale>  0 0.10000141E+04</rscale>
<asrwt>0</asrwt>
<pdfrwt beam="1">  1        1 0.48154614E-01 0.10000141E+04</pdfrwt>
<pdfrwt beam="2">  1       -1 0.12288182E+00 0.10000141E+04</pdfrwt>
<totfact> 0.58170939E+01</totfact>
</mgrwt>
</event>
<event>
 9    1  0.4321150E-036  0.1002056E+04  0.7818608E-02  0.8679082E-01
         -2   -1    0    0    0  501 -0.00000000000E+00  0.00000000000E+00  0.84786165361E+02  0.84786165361E+02  0.00000000000E+00 0. -1.
          2   -1    0    0  501    0  0.00000000000E+00 -0.00000000000E+00 -0.29607322549E+04  0.29607322549E+04  0.00000000000E+00 0. -1.
         36    2    1    2    0    0  0.71054273576E-13  0.00000000000E+00 -0.28759460896E+04  0.30455184203E+04  0.10020561552E+04 0.  0.
         25    2    3    3    0    0 -0.11199250022E+03  0.26544418695E+02 -0.79697603700E+03  0.81485193697E+03  0.12476357387E+03 0.  0.
         35    2    3    3    0    0  0.11199250022E+03 -0.26544418695E+02 -0.20789700526E+04  0.22306664833E+04  0.80031840792E+03 0.  0.
         22    1    5    5    0    0 -0.26891504291E+03 -0.27988948143E+02 -0.27025767866E+03  0.38227986396E+03  0.00000000000E+00 0.  1.
         22    1    5    5    0    0  0.38090754312E+03  0.14445294474E+01 -0.18087123739E+04  0.18483866194E+04  0.00000000000E+00 0.  1.
          5    1    4    4  502    0  0.27369516229E+02  0.65217421158E+01 -0.15478756648E+03  0.15739410496E+03  0.47000000000E+01 0. -1.
         -5    1    4    4    0  502 -0.13936201645E+03  0.20022676580E+02 -0.64218847052E+03  0.65745783201E+03  0.47000000000E+01 0. -1.
<mgrwt>
<rscale>  0 0.10020562E+04</rscale>
<asrwt>0</asrwt>
<pdfrwt beam="1">  1        2 0.45549720E+00 0.10020562E+04</pdfrwt>
<pdfrwt beam="2">  1       -2 0.13044028E-01 0.10020562E+04</pdfrwt>
<totfact> 0.89690346E+01</totfact>
</mgrwt>
</event>
<event>
 9    1  0.4321150E-036  0.1000473E+04  0.7818608E-02  0.8680588E-01
         -1   -1    0    0    0  501 -0.00000000000E+00  0.00000000000E+00  0.94315490834E+02  0.94315490834E+02  0.00000000000E+00 0. -1.
          1   -1    0    0  501    0  0.00000000000E+00 -0.00000000000E+00 -0.26531856533E+04  0.26531856533E+04  0.00000000000E+00 0. -1.
         36    2    1    2    0    0 -0.71054273576E-14  0.00000000000E+00 -0.25588701625E+04  0.27475011442E+04  0.10004729025E+04 0.  0.
         25    2    3    3    0    0  0.18834003155E+02 -0.47620725957E+02 -0.84160626743E+03  0.85240486473E+03  0.12518183103E+03 0.  0.
         35    2    3    3    0    0 -0.18834003155E+02  0.47620725957E+02 -0.17172638951E+04  0.18950962794E+04  0.79985759346E+03 0.  0.
         22    1    5    5    0    0  0.36788256038E+03  0.13683863887E+03 -0.68991526093E+03  0.79375402902E+03  0.00000000000E+00 0. -1.
         22    1    5    5    0    0 -0.38671656353E+03 -0.89217912917E+02 -0.10273486341E+04  0.11013422504E+04  0.00000000000E+00 0. -1.
          5    1    4    4  502    0 -0.16320797949E+02 -0.83256050254E+02 -0.53155949635E+03  0.53830802196E+03  0.47000000000E+01 0.  1.
         -5    1    4    4    0  502  0.35154801104E+02  0.35635324297E+02 -0.31004677108E+03  0.31409684277E+03  0.47000000000E+01 0.  1.
<mgrwt>
<rscale>  0 0.10004729E+04</rscale>
<asrwt>0</asrwt>
<pdfrwt beam="1">  1        1 0.40818247E+00 0.10004729E+04</pdfrwt>
<pdfrwt beam="2">  1       -1 0.14510073E-01 0.10004729E+04</pdfrwt>
<totfact> 0.37388246E+01</totfact>
</mgrwt>
</event>
<event>
 9    1  0.4321150E-036  0.1000304E+04  0.7818608E-02  0.8680749E-01
          2   -1    0    0  501    0  0.00000000000E+00  0.00000000000E+00  0.14673357389E+04  0.14673357389E+04  0.00000000000E+00 0.  1.
         -2   -1    0    0    0  501 -0.00000000000E+00 -0.00000000000E+00 -0.17048033152E+03  0.17048033152E+03  0.00000000000E+00 0.  1.
         36    2    1    2    0    0  0.14210854715E-13 -0.35527136788E-13  0.12968554073E+04  0.16378160704E+04  0.10003037203E+04 0.  0.
         25    2    3    3    0    0  0.50465363184E+02  0.97743804236E+01  0.30207367805E+02  0.13825936151E+03  0.12474323462E+03 0.  0.
         35    2    3    3    0    0 -0.50465363184E+02 -0.97743804236E+01  0.12666480395E+04  0.14995567089E+04  0.80101858632E+03 0.  0.
         22    1    5    5    0    0 -0.22033030274E+03  0.26692460374E+03  0.10590732002E+04  0.11141948796E+04  0.00000000000E+00 0.  1.
         22    1    5    5    0    0  0.16986493956E+03 -0.27669898416E+03  0.20757483939E+03  0.38536182929E+03  0.00000000000E+00 0.  1.
          5    1    4    4  502    0  0.34962828274E+02  0.64202817136E+02  0.35157563259E+02  0.81256048043E+02  0.47000000000E+01 0.  1.
         -5    1    4    4    0  502  0.15502534910E+02 -0.54428436713E+02 -0.49501954538E+01  0.57003313471E+02  0.47000000000E+01 0.  1.
<mgrwt>
<rscale>  0 0.10003037E+04</rscale>
<asrwt>0</asrwt>
<pdfrwt beam="1">  1        2 0.22574395E+00 0.10003037E+04</pdfrwt>
<pdfrwt beam="2">  1       -2 0.26227744E-01 0.10003037E+04</pdfrwt>
<totfact> 0.20825185E+02</totfact>
</mgrwt>
</event>
<event>
 9    1  0.4321150E-036  0.9991716E+03  0.7818608E-02  0.8681827E-01
          2   -1    0    0  501    0  0.00000000000E+00  0.00000000000E+00  0.43722508761E+03  0.43722508761E+03  0.00000000000E+00 0.  1.
         -2   -1    0    0    0  501 -0.00000000000E+00 -0.00000000000E+00 -0.57084089881E+03  0.57084089881E+03  0.00000000000E+00 0.  1.
         36    2    1    2    0    0  0.00000000000E+00  0.71054273576E-14 -0.13361581120E+03  0.10080659864E+04  0.99917158085E+03 0.  0.
         25    2    3    3    0    0  0.10552791237E+03  0.58477319504E+02 -0.94411563403E+02  0.19797580309E+03  0.12539991275E+03 0.  0.
         35    2    3    3    0    0 -0.10552791237E+03 -0.58477319504E+02 -0.39204247800E+02  0.81009018333E+03  0.80009586607E+03 0.  0.
         22    1    5    5    0    0 -0.85642367669E+02  0.15485205436E+03 -0.37334468100E+03  0.41315859510E+03  0.00000000000E+00 0.  1.
         22    1    5    5    0    0 -0.19885544700E+02 -0.21332937386E+03  0.33414043320E+03  0.39693158823E+03  0.00000000000E+00 0.  1.
          5    1    4    4  502    0  0.12919815157E+03  0.24344216313E+02 -0.78818435988E+02  0.15335983532E+03  0.47000000000E+01 0.  1.
         -5    1    4    4    0  502 -0.23670239203E+02  0.34133103191E+02 -0.15593127415E+02  0.44615967769E+02  0.47000000000E+01 0.  1.
<mgrwt>
<rscale>  0 0.99917158E+03</rscale>
<asrwt>0</asrwt>
<pdfrwt beam="1">  1        2 0.67265399E-01 0.99917158E+03</pdfrwt>
<pdfrwt beam="2">  1       -2 0.87821676E-01 0.99917158E+03</pdfrwt>
<totfact> 0.96187780E+01</totfact>
</mgrwt>
</event>
<event>
 9    1  0.4321150E-036  0.1000465E+04  0.7818608E-02  0.8680595E-01
          2   -1    0    0  501    0  0.00000000000E+00  0.00000000000E+00  0.36475522593E+03  0.36475522593E+03  0.00000000000E+00 0. -1.
         -2   -1    0    0    0  501 -0.00000000000E+00 -0.00000000000E+00 -0.68602887546E+03  0.68602887546E+03  0.00000000000E+00 0. -1.
         36    2    1    2    0    0  0.14210854715E-13  0.42632564146E-13 -0.32127364952E+03  0.10507841014E+04  0.10004651268E+04 0.  0.
         25    2    3    3    0    0 -0.33287217920E+02 -0.11943338211E+03  0.93337337213E+01  0.17595547341E+03  0.12450236302E+03 0.  0.
         35    2    3    3    0    0  0.33287217920E+02  0.11943338211E+03 -0.33060738325E+03  0.87482862798E+03  0.80040709320E+03 0.  0.
         22    1    5    5    0    0  0.95611408108E+02  0.38810196293E+03  0.52109199584E+02  0.40308813388E+03  0.00000000000E+00 0.  1.
         22    1    5    5    0    0 -0.62324190188E+02 -0.26866858082E+03 -0.38271658283E+03  0.47174049410E+03  0.00000000000E+00 0.  1.
          5    1    4    4  502    0 -0.60889673553E+02 -0.21252877472E+02 -0.23360202223E+02  0.68753372238E+02  0.47000000000E+01 0. -1.
         -5    1    4    4    0  502  0.27602455634E+02 -0.98180504637E+02  0.32693935944E+02  0.10720210117E+03  0.47000000000E+01 0. -1.
<mgrwt>
<rscale>  0 0.10004651E+04</rscale>
<asrwt>0</asrwt>
<pdfrwt beam="1">  1        2 0.56116189E-01 0.10004651E+04</pdfrwt>
<pdfrwt beam="2">  1       -2 0.10554290E+00 0.10004651E+04</pdfrwt>
<totfact> 0.75775094E+01</totfact>
</mgrwt>
</event>
<event>
 9    1  0.4321150E-036  0.9995746E+03  0.7818608E-02  0.8681443E-01
         -2   -1    0    0    0  501 -0.00000000000E+00  0.00000000000E+00  0.18097643136E+03  0.18097643136E+03  0.00000000000E+00 0. -1.
          2   -1    0    0  501    0  0.00000000000E+00 -0.00000000000E+00 -0.13802203229E+04  0.13802203229E+04  0.00000000000E+00 0. -1.
         36    2    1    2    0    0  0.00000000000E+00  0.71054273576E-14 -0.11992438916E+04  0.15611967543E+04  0.99957460659E+03 0.  0.
         25    2    3    3    0    0 -0.12482723677E+03 -0.13154983212E+02 -0.12951624864E+03  0.21964849531E+03  0.12536391109E+03 0.  0.
         35    2    3    3    0    0  0.12482723677E+03  0.13154983212E+02 -0.10697276429E+04  0.13415482590E+04  0.79979973025E+03 0.  0.
         22    1    5    5    0    0 -0.25318518030E+03 -0.59461669316E+02 -0.86970051500E+03  0.90775404788E+03  0.00000000000E+00 0. -1.
         22    1    5    5    0    0  0.37801241707E+03  0.72616652528E+02 -0.20002712794E+03  0.43379421112E+03  0.00000000000E+00 0. -1.
          5    1    4    4  502    0 -0.14540881426E+03 -0.30983621453E+02 -0.10011909853E+03  0.17930318445E+03  0.47000000000E+01 0. -1.
         -5    1    4    4    0  502  0.20581577489E+02  0.17828638242E+02 -0.29397150111E+02  0.40345310857E+02  0.47000000000E+01 0. -1.
<mgrwt>
<rscale>  0 0.99957461E+03</rscale>
<asrwt>0</asrwt>
<pdfrwt beam="1">  1        2 0.21234159E+00 0.99957461E+03</pdfrwt>
<pdfrwt beam="2">  1       -2 0.27842528E-01 0.99957461E+03</pdfrwt>
<totfact> 0.20975255E+02</totfact>
</mgrwt>
</event>
<event>
 9    1  0.4321150E-036  0.9986873E+03  0.7818608E-02  0.8682289E-01
         -1   -1    0    0    0  501 -0.00000000000E+00  0.00000000000E+00  0.32059347448E+03  0.32059347448E+03  0.00000000000E+00 0.  1.
          1   -1    0    0  501    0  0.00000000000E+00 -0.00000000000E+00 -0.77775783662E+03  0.77775783662E+03  0.00000000000E+00 0.  1.
         36    2    1    2    0    0 -0.28421709430E-13  0.00000000000E+00 -0.45716436213E+03  0.10983513111E+04  0.99868731272E+03 0.  0.
         25    2    3    3    0    0 -0.12387527966E+03  0.56178636436E+01 -0.13981062231E+03  0.22906002060E+03  0.13245692742E+03 0.  0.
         35    2    3    3    0    0  0.12387527966E+03 -0.56178636436E+01 -0.31735373982E+03  0.86929129051E+03  0.79973577279E+03 0.  0.
         22    1    5    5    0    0  0.56356060041E+02 -0.25710798490E+03  0.17237872826E+03  0.31463462518E+03  0.00000000000E+00 0. -1.
         22    1    5    5    0    0  0.67519219615E+02  0.25149012126E+03 -0.48973246808E+03  0.55465666533E+03  0.00000000000E+00 0. -1.
          5    1    4    4  502    0 -0.11353989946E+03  0.32756512181E+02 -0.39751604543E+02  0.12476609284E+03  0.47000000000E+01 0.  1.
         -5    1    4    4    0  502 -0.10335380195E+02 -0.27138648537E+02 -0.10005901777E+03  0.10429392775E+03  0.47000000000E+01 0.  1.
<mgrwt>
<rscale>  0 0.99868731E+03</rscale>
<asrwt>0</asrwt>
<pdfrwt beam="1">  1        1 0.11965505E+00 0.99868731E+03</pdfrwt>
<pdfrwt beam="2">  1       -1 0.49322073E-01 0.99868731E+03</pdfrwt>
<totfact> 0.10873866E+02</totfact>
</mgrwt>
</event>
<event>
 9    1  0.4321150E-036  0.9998055E+03  0.7818608E-02  0.8681223E-01
          2   -1    0    0  501    0  0.00000000000E+00  0.00000000000E+00  0.16834805056E+04  0.16834805056E+04  0.00000000000E+00 0. -1.
         -2   -1    0    0    0  501 -0.00000000000E+00 -0.00000000000E+00 -0.14844412080E+03  0.14844412080E+03  0.00000000000E+00 0. -1.
         36    2    1    2    0    0 -0.14210854715E-13  0.14210854715E-13  0.15350363848E+04  0.18319246264E+04  0.99980554818E+03 0.  0.
         25    2    3    3    0    0  0.26530791468E+02 -0.78047979497E+01  0.53911419418E+03  0.55409888485E+03  0.12496664378E+03 0.  0.
         35    2    3    3    0    0 -0.26530791468E+02  0.78047979497E+01  0.99592219060E+03  0.12778257415E+04  0.80013300035E+03 0.  0.
         22    1    5    5    0    0  0.91732105886E+02  0.22978345915E+03  0.99603966881E+03  0.10263090369E+04  0.00000000000E+00 0. -1.
         22    1    5    5    0    0 -0.11826289735E+03 -0.22197866120E+03 -0.11747820852E+00  0.25151670465E+03  0.00000000000E+00 0. -1.
          5    1    4    4  502    0 -0.49221596682E+02 -0.62890318717E+01  0.26605738666E+03  0.27068605523E+03  0.47000000000E+01 0. -1.
         -5    1    4    4    0  502  0.75752388150E+02 -0.15157660780E+01  0.27305680752E+03  0.28341282962E+03  0.47000000000E+01 0. -1.
<mgrwt>
<rscale>  0 0.99980555E+03</rscale>
<asrwt>0</asrwt>
<pdfrwt beam="1">  1        2 0.25899699E+00 0.99980555E+03</pdfrwt>
<pdfrwt beam="2">  1       -2 0.22837558E-01 0.99980555E+03</pdfrwt>
<totfact> 0.20087437E+02</totfact>
</mgrwt>
</event>
<event>
 9    1  0.4321150E-036  0.9996230E+03  0.7818608E-02  0.8681397E-01
          1   -1    0    0  501    0  0.00000000000E+00  0.00000000000E+00  0.36376966643E+03  0.36376966643E+03  0.00000000000E+00 0. -1.
         -1   -1    0    0    0  501 -0.00000000000E+00 -0.00000000000E+00 -0.68673003383E+03  0.68673003383E+03  0.00000000000E+00 0. -1.
         36    2    1    2    0    0  0.21316282073E-13  0.00000000000E+00 -0.32296036741E+03  0.10504997003E+04  0.99962303962E+03 0.  0.
         25    2    3    3    0    0 -0.51035362475E+02  0.90730811759E+02  0.35225942507E+02  0.16639020524E+03  0.12493256160E+03 0.  0.
         35    2    3    3    0    0  0.51035362475E+02 -0.90730811759E+02 -0.35818630991E+03  0.88410949503E+03  0.80157063205E+03 0.  0.
         22    1    5    5    0    0 -0.31188409423E+03 -0.23247151572E+03 -0.29767624813E+03  0.48982225608E+03  0.00000000000E+00 0. -1.
         22    1    5    5    0    0  0.36291945671E+03  0.14174070396E+03 -0.60510061787E+02  0.39428723894E+03  0.00000000000E+00 0. -1.
          5    1    4    4  502    0  0.35480543324E+02  0.40703249936E+02  0.38178948139E+02  0.66297402596E+02  0.47000000000E+01 0.  1.
         -5    1    4    4    0  502 -0.86515905799E+02  0.50027561822E+02 -0.29530056323E+01  0.10009280264E+03  0.47000000000E+01 0.  1.
<mgrwt>
<rscale>  0 0.99962304E+03</rscale>
<asrwt>0</asrwt>
<pdfrwt beam="1">  1        1 0.55964564E-01 0.99962304E+03</pdfrwt>
<pdfrwt beam="2">  1       -1 0.10565077E+00 0.99962304E+03</pdfrwt>
<totfact> 0.68607290E+01</totfact>
</mgrwt>
</event>
<event>
 9    1  0.4321150E-036  0.9862341E+03  0.7818608E-02  0.8694259E-01
          2   -1    0    0  501    0  0.00000000000E+00  0.00000000000E+00  0.15003215837E+04  0.15003215837E+04  0.00000000000E+00 0.  1.
         -2   -1    0    0    0  501 -0.00000000000E+00 -0.00000000000E+00 -0.16207488160E+03  0.16207488160E+03  0.00000000000E+00 0.  1.
         36    2    1    2    0    0  0.71054273576E-14 -0.28421709430E-13  0.13382467021E+04  0.16623964653E+04  0.98623413658E+03 0.  0.
         25    2    3    3    0    0  0.50377434191E+02 -0.10498863374E+03  0.31667922356E+03  0.35994977952E+03  0.12536990889E+03 0.  0.
         35    2    3    3    0    0 -0.50377434191E+02  0.10498863374E+03  0.10215674785E+04  0.13024466857E+04  0.79950406939E+03 0.  0.
         22    1    5    5    0    0 -0.19356044829E+03 -0.26215772211E+03  0.17787597493E+03  0.37125756674E+03  0.00000000000E+00 0. -1.
         22    1    5    5    0    0  0.14318301410E+03  0.36714635585E+03  0.84369150358E+03  0.93118911900E+03  0.00000000000E+00 0. -1.
          5    1    4    4  502    0  0.51698745128E+02 -0.13247308175E+03  0.24980065296E+03  0.28747927552E+03  0.47000000000E+01 0. -1.
         -5    1    4    4    0  502 -0.13213109370E+01  0.27484448007E+02  0.66878570599E+02  0.72470504001E+02  0.47000000000E+01 0. -1.
<mgrwt>
<rscale>  0 0.98623414E+03</rscale>
<asrwt>0</asrwt>
<pdfrwt beam="1">  1        2 0.23081870E+00 0.98623414E+03</pdfrwt>
<pdfrwt beam="2">  1       -2 0.24934598E-01 0.98623414E+03</pdfrwt>
<totfact> 0.21826991E+02</totfact>
</mgrwt>
</event>
<event>
 9    1  0.4321150E-036  0.1000519E+04  0.7818608E-02  0.8680544E-01
         -2   -1    0    0    0  501 -0.00000000000E+00  0.00000000000E+00  0.51314392974E+03  0.51314392974E+03  0.00000000000E+00 0.  1.
          2   -1    0    0  501    0  0.00000000000E+00 -0.00000000000E+00 -0.48769819636E+03  0.48769819636E+03  0.00000000000E+00 0.  1.
         36    2    1    2    0    0 -0.35527136788E-13  0.28421709430E-13  0.25445733379E+02  0.10008421261E+04  0.10005186035E+04 0.  0.
         25    2    3    3    0    0  0.57582168194E+02 -0.12308981352E+03 -0.32494560097E+02  0.18731426961E+03  0.12475548435E+03 0.  0.
         35    2    3    3    0    0 -0.57582168194E+02  0.12308981352E+03  0.57940293477E+02  0.81352785649E+03  0.80000230462E+03 0.  0.
         22    1    5    5    0    0  0.27855523088E+03  0.13526567600E+03  0.27422832883E+03  0.41363147376E+03  0.00000000000E+00 0. -1.
         22    1    5    5    0    0 -0.33613739908E+03 -0.12175862476E+02 -0.21628803535E+03  0.39989638273E+03  0.00000000000E+00 0. -1.
          5    1    4    4  502    0 -0.27925682852E+02 -0.44281516125E+02  0.24192137499E+02  0.57862301630E+02  0.47000000000E+01 0.  1.
         -5    1    4    4    0  502  0.85507851046E+02 -0.78808297396E+02 -0.56686697597E+02  0.12945196798E+03  0.47000000000E+01 0.  1.
<mgrwt>
<rscale>  0 0.10005186E+04</rscale>
<asrwt>0</asrwt>
<pdfrwt beam="1">  1        2 0.75030492E-01 0.10005186E+04</pdfrwt>
<pdfrwt beam="2">  1       -2 0.78945220E-01 0.10005186E+04</pdfrwt>
<totfact> 0.10883979E+02</totfact>
</mgrwt>
</event>
<event>
 9    1  0.4321150E-036  0.1000327E+04  0.7818608E-02  0.8680726E-01
         -2   -1    0    0    0  501 -0.00000000000E+00  0.00000000000E+00  0.36115076362E+03  0.36115076362E+03  0.00000000000E+00 0. -1.
          2   -1    0    0  501    0  0.00000000000E+00 -0.00000000000E+00 -0.69268487765E+03  0.69268487765E+03  0.00000000000E+00 0. -1.
         36    2    1    2    0    0 -0.14210854715E-13 -0.71054273576E-14 -0.33153411403E+03  0.10538356413E+04  0.10003272915E+04 0.  0.
         25    2    3    3    0    0 -0.12126215646E+03 -0.14673017228E+02  0.12454206635E+02  0.17584271000E+03  0.12587987677E+03 0.  0.
         35    2    3    3    0    0  0.12126215646E+03  0.14673017228E+02 -0.34398832067E+03  0.87799293126E+03  0.79851350306E+03 0.  0.
         22    1    5    5    0    0  0.15692136591E+03  0.27129827523E+03 -0.48919886933E+03  0.58098416758E+03  0.00000000000E+00 0.  1.
         22    1    5    5    0    0 -0.35659209457E+02 -0.25662525800E+03  0.14521054866E+03  0.29700876368E+03  0.00000000000E+00 0.  1.
          5    1    4    4  502    0 -0.23275237902E+02  0.51642882622E+02  0.74378641725E+01  0.57324827504E+02  0.47000000000E+01 0.  1.
         -5    1    4    4    0  502 -0.97986918554E+02 -0.66315899851E+02  0.50163424624E+01  0.11851788250E+03  0.47000000000E+01 0.  1.
<mgrwt>
<rscale>  0 0.10003273E+04</rscale>
<asrwt>0</asrwt>
<pdfrwt beam="1">  1        2 0.10656690E+00 0.10003273E+04</pdfrwt>
<pdfrwt beam="2">  1       -2 0.55561656E-01 0.10003273E+04</pdfrwt>
<totfact> 0.15295322E+02</totfact>
</mgrwt>
</event>
<event>
 9    1  0.4321150E-036  0.9978227E+03  0.7818608E-02  0.8683114E-01
          1   -1    0    0  501    0  0.00000000000E+00  0.00000000000E+00  0.11006687690E+04  0.11006687690E+04  0.00000000000E+00 0. -1.
         -1   -1    0    0    0  501 -0.00000000000E+00 -0.00000000000E+00 -0.22614661168E+03  0.22614661168E+03  0.00000000000E+00 0. -1.
         36    2    1    2    0    0  0.00000000000E+00 -0.28421709430E-13  0.87452215730E+03  0.13268153807E+04  0.99782265495E+03 0.  0.
         25    2    3    3    0    0  0.90250232382E+02 -0.97703695504E+02  0.21010060567E+03  0.27817902453E+03  0.12470039545E+03 0.  0.
         35    2    3    3    0    0 -0.90250232382E+02  0.97703695504E+02  0.66442155162E+03  0.10486363561E+04  0.80030687399E+03 0.  0.
         22    1    5    5    0    0 -0.23033558369E+03 -0.27839188796E+03  0.49537456646E+03  0.61314964364E+03  0.00000000000E+00 0. -1.
         22    1    5    5    0    0  0.14008535131E+03  0.37609558347E+03  0.16904698516E+03  0.43548671248E+03  0.00000000000E+00 0. -1.
          5    1    4    4  502    0  0.52525654859E+02 -0.11768492670E+03  0.19263326597E+03  0.23181533933E+03  0.47000000000E+01 0.  1.
         -5    1    4    4    0  502  0.37724577523E+02  0.19981231192E+02  0.17467339699E+02  0.46363685201E+02  0.47000000000E+01 0.  1.
<mgrwt>
<rscale>  0 0.99782265E+03</rscale>
<asrwt>0</asrwt>
<pdfrwt beam="1">  1        1 0.16933365E+00 0.99782265E+03</pdfrwt>
<pdfrwt beam="2">  1       -1 0.34791787E-01 0.99782265E+03</pdfrwt>
<totfact> 0.11031302E+02</totfact>
</mgrwt>
</event>
<event>
 9    1  0.4321150E-036  0.9992666E+03  0.7818608E-02  0.8681737E-01
          1   -1    0    0  501    0  0.00000000000E+00  0.00000000000E+00  0.28616175416E+03  0.28616175416E+03  0.00000000000E+00 0. -1.
         -1   -1    0    0    0  501 -0.00000000000E+00 -0.00000000000E+00 -0.87235076365E+03  0.87235076365E+03  0.00000000000E+00 0. -1.
         36    2    1    2    0    0  0.00000000000E+00  0.14210854715E-13 -0.58618900948E+03  0.11585125178E+04  0.99926658059E+03 0.  0.
         25    2    3    3    0    0  0.68958967272E+02 -0.11983061597E+03 -0.12907930433E+03  0.22674115013E+03  0.12504145978E+03 0.  0.
         35    2    3    3    0    0 -0.68958967272E+02  0.11983061597E+03 -0.45710970515E+03  0.93177136768E+03  0.80008367275E+03 0.  0.
         22    1    5    5    0    0 -0.12031814912E+03  0.29013629450E+03 -0.61715708997E+03  0.69248711186E+03  0.00000000000E+00 0. -1.
         22    1    5    5    0    0  0.51359181846E+02 -0.17030567852E+03  0.16004738482E+03  0.23928425582E+03  0.00000000000E+00 0. -1.
          5    1    4    4  502    0  0.68689460112E+02 -0.13806571863E+03 -0.13698264533E+03  0.20631703689E+03  0.47000000000E+01 0.  1.
         -5    1    4    4    0  502  0.26950715965E+00  0.18235102653E+02  0.79033409929E+01  0.20424113242E+02  0.47000000000E+01 0.  1.
<mgrwt>
<rscale>  0 0.99926658E+03</rscale>
<asrwt>0</asrwt>
<pdfrwt beam="1">  1        1 0.44024885E-01 0.99926658E+03</pdfrwt>
<pdfrwt beam="2">  1       -1 0.13420781E+00 0.99926658E+03</pdfrwt>
<totfact> 0.52079235E+01</totfact>
</mgrwt>
</event>
<event>
 9    1  0.4321150E-036  0.1001739E+04  0.7818608E-02  0.8679384E-01
          1   -1    0    0  501    0  0.00000000000E+00  0.00000000000E+00  0.58890657314E+03  0.58890657314E+03  0.00000000000E+00 0.  1.
         -1   -1    0    0    0  501 -0.00000000000E+00 -0.00000000000E+00 -0.42599327563E+03  0.42599327563E+03  0.00000000000E+00 0.  1.
         36    2    1    2    0    0  0.14210854715E-13  0.00000000000E+00  0.16291329751E+03  0.10148998488E+04  0.10017389683E+04 0.  0.
         25    2    3    3    0    0  0.76208618891E+02 -0.11796914448E+03  0.48902738624E+02  0.19448162802E+03  0.12532818178E+03 0.  0.
         35    2    3    3    0    0 -0.76208618891E+02  0.11796914448E+03  0.11401055889E+03  0.82041822076E+03  0.80022695329E+03 0.  0.
         22    1    5    5    0    0  0.20285385330E+03 -0.22811081884E+03  0.20356868312E+03  0.36691203335E+03  0.00000000000E+00 0. -1.
         22    1    5    5    0    0 -0.27906247220E+03  0.34607996332E+03 -0.89558124237E+02  0.45350618741E+03  0.00000000000E+00 0. -1.
          5    1    4    4  502    0  0.33206108046E+02 -0.15310118176E+02 -0.38186718073E+02  0.53078816559E+02  0.47000000000E+01 0. -1.
         -5    1    4    4    0  502  0.43002510845E+02 -0.10265902631E+03  0.87089456697E+02  0.14140281146E+03  0.47000000000E+01 0. -1.
<mgrwt>
<rscale>  0 0.10017390E+04</rscale>
<asrwt>0</asrwt>
<pdfrwt beam="1">  1        1 0.90601011E-01 0.10017390E+04</pdfrwt>
<pdfrwt beam="2">  1       -1 0.65537427E-01 0.10017390E+04</pdfrwt>
<totfact> 0.96798203E+01</totfact>
</mgrwt>
</event>
<event>
 9    1  0.4321150E-036  0.1000488E+04  0.7818608E-02  0.8680573E-01
          2   -1    0    0  501    0  0.00000000000E+00  0.00000000000E+00  0.80286248190E+03  0.80286248190E+03  0.00000000000E+00 0.  1.
         -2   -1    0    0    0  501 -0.00000000000E+00 -0.00000000000E+00 -0.31168982915E+03  0.31168982915E+03  0.00000000000E+00 0.  1.
         36    2    1    2    0    0  0.00000000000E+00  0.28421709430E-13  0.49117265275E+03  0.11145523110E+04  0.10004880205E+04 0.  0.
         25    2    3    3    0    0 -0.14855649103E+03 -0.34827265658E+02  0.83855801454E+02  0.21442437057E+03  0.12515608573E+03 0.  0.
         35    2    3    3    0    0  0.14855649103E+03  0.34827265658E+02  0.40731685130E+03  0.90012794048E+03  0.78806175038E+03 0.  0.
         22    1    5    5    0    0  0.27879378534E+03 -0.32008026653E+03  0.20604206459E+03  0.47183756119E+03  0.00000000000E+00 0.  1.
         22    1    5    5    0    0 -0.13023729431E+03  0.35490753218E+03  0.20127478671E+03  0.42829037929E+03  0.00000000000E+00 0.  1.
          5    1    4    4  502    0 -0.49279113176E+02 -0.72796644773E+02  0.56378902257E+02  0.10453924194E+03  0.47000000000E+01 0.  1.
         -5    1    4    4    0  502 -0.99277377855E+02  0.37969379116E+02  0.27476899197E+02  0.10988512863E+03  0.47000000000E+01 0.  1.
<mgrwt>
<rscale>  0 0.10004880E+04</rscale>
<asrwt>0</asrwt>
<pdfrwt beam="1">  1        2 0.12351730E+00 0.10004880E+04</pdfrwt>
<pdfrwt beam="2">  1       -2 0.47952282E-01 0.10004880E+04</pdfrwt>
<totfact> 0.17096887E+02</totfact>
</mgrwt>
</event>
<event>
 9    1  0.4321150E-036  0.1001342E+04  0.7818608E-02  0.8679761E-01
         -2   -1    0    0    0  501 -0.00000000000E+00  0.00000000000E+00  0.27032538819E+03  0.27032538819E+03  0.00000000000E+00 0.  1.
          2   -1    0    0  501    0  0.00000000000E+00 -0.00000000000E+00 -0.92729578684E+03  0.92729578684E+03  0.00000000000E+00 0.  1.
         36    2    1    2    0    0  0.00000000000E+00  0.00000000000E+00 -0.65697039865E+03  0.11976211750E+04  0.10013422862E+04 0.  0.
         25    2    3    3    0    0 -0.18484905738E+02  0.12994396869E+03 -0.18693947552E+03  0.26060565107E+03  0.12546637447E+03 0.  0.
         35    2    3    3    0    0  0.18484905738E+02 -0.12994396869E+03 -0.47003092313E+03  0.93701552396E+03  0.79990117934E+03 0.  0.
         22    1    5    5    0    0 -0.11663995669E+03 -0.44910819164E+03 -0.26854852019E+03  0.53611692287E+03  0.00000000000E+00 0. -1.
         22    1    5    5    0    0  0.13512486243E+03  0.31916422295E+03 -0.20148240295E+03  0.40089860109E+03  0.00000000000E+00 0. -1.
          5    1    4    4  502    0 -0.59422461064E+02  0.19013744022E+02 -0.54223446683E+02  0.82793861553E+02  0.47000000000E+01 0.  1.
         -5    1    4    4    0  502  0.40937555326E+02  0.11093022467E+03 -0.13271602883E+03  0.17781178952E+03  0.47000000000E+01 0.  1.
<mgrwt>
<rscale>  0 0.10013423E+04</rscale>
<asrwt>0</asrwt>
<pdfrwt beam="1">  1        2 0.14266089E+00 0.10013423E+04</pdfrwt>
<pdfrwt beam="2">  1       -2 0.41588522E-01 0.10013423E+04</pdfrwt>
<totfact> 0.18625784E+02</totfact>
</mgrwt>
</event>
<event>
 9    1  0.4321150E-036  0.1000064E+04  0.7818608E-02  0.8680977E-01
          1   -1    0    0  501    0  0.00000000000E+00  0.00000000000E+00  0.32896098141E+03  0.32896098141E+03  0.00000000000E+00 0.  1.
         -1   -1    0    0    0  501 -0.00000000000E+00 -0.00000000000E+00 -0.76006623772E+03  0.76006623772E+03  0.00000000000E+00 0.  1.
         36    2    1    2    0    0  0.00000000000E+00 -0.42632564146E-13 -0.43110525631E+03  0.10890272191E+04  0.10000642689E+04 0.  0.
         25    2    3    3    0    0  0.68894504458E+02  0.69663438549E+02 -0.19111973045E+03  0.24864364848E+03  0.12528952529E+03 0.  0.
         35    2    3    3    0    0 -0.68894504458E+02 -0.69663438549E+02 -0.23998552587E+03  0.84038357065E+03  0.79940730906E+03 0.  0.
         22    1    5    5    0    0  0.66118501008E+02  0.35349526626E+03 -0.81192525926E+02  0.36867707511E+03  0.00000000000E+00 0. -1.
         22    1    5    5    0    0 -0.13501300547E+03 -0.42315870481E+03 -0.15879299994E+03  0.47170649554E+03  0.00000000000E+00 0. -1.
          5    1    4    4  502    0 -0.14467350726E+02  0.73752897174E+02 -0.95982748474E+02  0.12199824623E+03  0.47000000000E+01 0. -1.
         -5    1    4    4    0  502  0.83361855185E+02 -0.40894586248E+01 -0.95136981975E+02  0.12664540225E+03  0.47000000000E+01 0. -1.
<mgrwt>
<rscale>  0 0.10000643E+04</rscale>
<asrwt>0</asrwt>
<pdfrwt beam="1">  1        1 0.50609382E-01 0.10000643E+04</pdfrwt>
<pdfrwt beam="2">  1       -1 0.11693327E+00 0.10000643E+04</pdfrwt>
<totfact> 0.61621613E+01</totfact>
</mgrwt>
</event>
<event>
 9    1  0.4321150E-036  0.1004528E+04  0.7818608E-02  0.8676738E-01
         -1   -1    0    0    0  501 -0.00000000000E+00  0.00000000000E+00  0.20111255251E+03  0.20111255251E+03  0.00000000000E+00 0. -1.
          1   -1    0    0  501    0  0.00000000000E+00 -0.00000000000E+00 -0.12543675168E+04  0.12543675168E+04  0.00000000000E+00 0. -1.
         36    2    1    2    0    0 -0.56843418861E-13  0.00000000000E+00 -0.10532549643E+04  0.14554800693E+04  0.10045278554E+04 0.  0.
         25    2    3    3    0    0 -0.12034633448E+03 -0.63124484993E+02 -0.27268072445E+03  0.32934479107E+03  0.12508106607E+03 0.  0.
         35    2    3    3    0    0  0.12034633448E+03  0.63124484993E+02 -0.78057423981E+03  0.11261352782E+04  0.80026032024E+03 0.  0.
         22    1    5    5    0    0 -0.30860422716E+03  0.98678159253E+02 -0.54873349332E+03  0.63724594532E+03  0.00000000000E+00 0. -1.
         22    1    5    5    0    0  0.42895056164E+03 -0.35553674261E+02 -0.23184074649E+03  0.48888933290E+03  0.00000000000E+00 0. -1.
          5    1    4    4  502    0 -0.11187080593E+03 -0.30092713062E+02 -0.27113654319E+03  0.29488601807E+03  0.47000000000E+01 0.  1.
         -5    1    4    4    0  502 -0.84755285508E+01 -0.33031771931E+02 -0.15441812597E+01  0.34458773003E+02  0.47000000000E+01 0.  1.
<mgrwt>
<rscale>  0 0.10045279E+04</rscale>
<asrwt>0</asrwt>
<pdfrwt beam="1">  1        1 0.19297963E+00 0.10045279E+04</pdfrwt>
<pdfrwt beam="2">  1       -1 0.30940391E-01 0.10045279E+04</pdfrwt>
<totfact> 0.10352443E+02</totfact>
</mgrwt>
</event>
<event>
 9    1  0.4321150E-036  0.9993970E+03  0.7818608E-02  0.8681612E-01
         -1   -1    0    0    0  501 -0.00000000000E+00  0.00000000000E+00  0.11612577825E+03  0.11612577825E+03  0.00000000000E+00 0. -1.
          1   -1    0    0  501    0  0.00000000000E+00 -0.00000000000E+00 -0.21502425234E+04  0.21502425234E+04  0.00000000000E+00 0. -1.
         36    2    1    2    0    0  0.00000000000E+00  0.00000000000E+00 -0.20341167452E+04  0.22663683017E+04  0.99939699112E+03 0.  0.
         25    2    3    3    0    0  0.97314148858E+02 -0.11924999135E+03 -0.37768947359E+03  0.42652845910E+03  0.12484624123E+03 0.  0.
         35    2    3    3    0    0 -0.97314148858E+02  0.11924999135E+03 -0.16564272716E+04  0.18398398426E+04  0.78585541692E+03 0.  0.
         22    1    5    5    0    0 -0.20893832640E+03 -0.30074811664E+03 -0.75416257327E+03  0.83837094464E+03  0.00000000000E+00 0.  1.
         22    1    5    5    0    0  0.11162417754E+03  0.41999810799E+03 -0.90226469830E+03  0.10014688979E+04  0.00000000000E+00 0.  1.
          5    1    4    4  502    0 -0.19074169497E+02  0.10457369617E+02 -0.27779379078E+02  0.35594443714E+02  0.47000000000E+01 0.  1.
         -5    1    4    4    0  502  0.11638831836E+03 -0.12970736097E+03 -0.34991009451E+03  0.39093401538E+03  0.47000000000E+01 0.  1.
<mgrwt>
<rscale>  0 0.99939699E+03</rscale>
<asrwt>0</asrwt>
<pdfrwt beam="1">  1        1 0.33080653E+00 0.99939699E+03</pdfrwt>
<pdfrwt beam="2">  1       -1 0.17865505E-01 0.99939699E+03</pdfrwt>
<totfact> 0.60171181E+01</totfact>
</mgrwt>
</event>
<event>
 9    1  0.4321150E-036  0.1000514E+04  0.7818608E-02  0.8680549E-01
          2   -1    0    0  501    0  0.00000000000E+00  0.00000000000E+00  0.15503791274E+03  0.15503791274E+03  0.00000000000E+00 0. -1.
         -2   -1    0    0    0  501 -0.00000000000E+00 -0.00000000000E+00 -0.16141667776E+04  0.16141667776E+04  0.00000000000E+00 0. -1.
         36    2    1    2    0    0  0.00000000000E+00  0.00000000000E+00 -0.14591288648E+04  0.17692046903E+04  0.10005139639E+04 0.  0.
         25    2    3    3    0    0  0.65071474463E+02 -0.74454690943E+02 -0.10983167280E+03  0.19340901927E+03  0.12476479709E+03 0.  0.
         35    2    3    3    0    0 -0.65071474463E+02  0.74454690943E+02 -0.13492971920E+04  0.15757956710E+04  0.80793024865E+03 0.  0.
         22    1    5    5    0    0  0.34345192169E+03  0.14477686615E+03 -0.84104124266E+03  0.91992930997E+03  0.00000000000E+00 0.  1.
         22    1    5    5    0    0 -0.40852339615E+03 -0.70322175207E+02 -0.50825594936E+03  0.65586636107E+03  0.00000000000E+00 0.  1.
          5    1    4    4  502    0 -0.98539416295E+00 -0.86871660367E+02 -0.84907264910E+02  0.12156886942E+03  0.47000000000E+01 0.  1.
         -5    1    4    4    0  502  0.66056868626E+02  0.12416969424E+02 -0.24924407895E+02  0.71840149855E+02  0.47000000000E+01 0.  1.
<mgrwt>
<rscale>  0 0.10005140E+04</rscale>
<asrwt>0</asrwt>
<pdfrwt beam="1">  1        2 0.23851988E-01 0.10005140E+04</pdfrwt>
<pdfrwt beam="2">  1       -2 0.24833334E+00 0.10005140E+04</pdfrwt>
<totfact> 0.16318375E+01</totfact>
</mgrwt>
</event>
<event>
 9    1  0.4321150E-036  0.1000594E+04  0.7818608E-02  0.8680473E-01
          2   -1    0    0  501    0  0.00000000000E+00  0.00000000000E+00  0.24392283974E+03  0.24392283974E+03  0.00000000000E+00 0.  1.
         -2   -1    0    0    0  501 -0.00000000000E+00 -0.00000000000E+00 -0.10261321197E+04  0.10261321197E+04  0.00000000000E+00 0.  1.
         36    2    1    2    0    0  0.00000000000E+00  0.00000000000E+00 -0.78220927992E+03  0.12700549594E+04  0.10005939448E+04 0.  0.
         25    2    3    3    0    0  0.75926237635E+02 -0.89133519933E+02 -0.24668962928E+03  0.30018665169E+03  0.12468630527E+03 0.  0.
         35    2    3    3    0    0 -0.75926237635E+02  0.89133519933E+02 -0.53551965064E+03  0.96986830772E+03  0.80009603183E+03 0.  0.
         22    1    5    5    0    0 -0.35229877984E+01  0.48131861664E+02 -0.74391346285E+03  0.74547724832E+03  0.00000000000E+00 0.  1.
         22    1    5    5    0    0 -0.72403249836E+02  0.41001658269E+02  0.20839381221E+03  0.22439105940E+03  0.00000000000E+00 0.  1.
          5    1    4    4  502    0  0.57346498154E+02 -0.12092376885E+03 -0.19442157382E+03  0.23607841301E+03  0.47000000000E+01 0.  1.
         -5    1    4    4    0  502  0.18579739481E+02  0.31790248913E+02 -0.52268055462E+02  0.64108238682E+02  0.47000000000E+01 0.  1.
<mgrwt>
<rscale>  0 0.10005939E+04</rscale>
<asrwt>0</asrwt>
<pdfrwt beam="1">  1        2 0.37526591E-01 0.10005939E+04</pdfrwt>
<pdfrwt beam="2">  1       -2 0.15786648E+00 0.10005939E+04</pdfrwt>
<totfact> 0.40625797E+01</totfact>
</mgrwt>
</event>
<event>
 9    1  0.4321150E-036  0.1000407E+04  0.7818608E-02  0.8680650E-01
         -1   -1    0    0    0  501 -0.00000000000E+00  0.00000000000E+00  0.95680373535E+02  0.95680373535E+02  0.00000000000E+00 0.  1.
          1   -1    0    0  501    0  0.00000000000E+00 -0.00000000000E+00 -0.26149944992E+04  0.26149944992E+04  0.00000000000E+00 0.  1.
         36    2    1    2    0    0 -0.71054273576E-14 -0.14210854715E-13 -0.25193141256E+04  0.27106748727E+04  0.10004072180E+04 0.  0.
         25    2    3    3    0    0  0.59069400763E+02  0.12347817442E+03 -0.53144919542E+03  0.56282010926E+03  0.12486862862E+03 0.  0.
         35    2    3    3    0    0 -0.59069400763E+02 -0.12347817442E+03 -0.19878649302E+04  0.21478547634E+04  0.80183355530E+03 0.  0.
         22    1    5    5    0    0  0.28385901337E+03  0.99280940620E+02 -0.13988264872E+04  0.14307858630E+04  0.00000000000E+00 0. -1.
         22    1    5    5    0    0 -0.34292841413E+03 -0.22275911504E+03 -0.58903844305E+03  0.71706890042E+03  0.00000000000E+00 0. -1.
          5    1    4    4  502    0  0.44639811142E+02  0.28994838085E+02 -0.37953315371E+03  0.38327655569E+03  0.47000000000E+01 0.  1.
         -5    1    4    4    0  502  0.14429589622E+02  0.94483336333E+02 -0.15191604171E+03  0.17954355357E+03  0.47000000000E+01 0.  1.
<mgrwt>
<rscale>  0 0.10004072E+04</rscale>
<asrwt>0</asrwt>
<pdfrwt beam="1">  1        1 0.40230686E+00 0.10004072E+04</pdfrwt>
<pdfrwt beam="2">  1       -1 0.14720057E-01 0.10004072E+04</pdfrwt>
<totfact> 0.38862889E+01</totfact>
</mgrwt>
</event>
<event>
 9    1  0.4321150E-036  0.1000564E+04  0.7818608E-02  0.8680501E-01
          2   -1    0    0  501    0  0.00000000000E+00  0.00000000000E+00  0.23705720233E+04  0.23705720233E+04  0.00000000000E+00 0.  1.
         -2   -1    0    0    0  501 -0.00000000000E+00 -0.00000000000E+00 -0.10557871663E+03  0.10557871663E+03  0.00000000000E+00 0.  1.
         36    2    1    2    0    0 -0.35527136788E-13 -0.14210854715E-13  0.22649933067E+04  0.24761507399E+04  0.10005637449E+04 0.  0.
         25    2    3    3    0    0 -0.41413741839E+02  0.12759449883E+03  0.30825057388E+03  0.35774280188E+03  0.12233577505E+03 0.  0.
         35    2    3    3    0    0  0.41413741839E+02 -0.12759449883E+03  0.19567427328E+04  0.21184079381E+04  0.80050897279E+03 0.  0.
         22    1    5    5    0    0 -0.22382933518E+03  0.21272619504E+03  0.12729134911E+04  0.13098323408E+04  0.00000000000E+00 0.  1.
         22    1    5    5    0    0  0.26524307702E+03 -0.34032069387E+03  0.68382924172E+03  0.80857559721E+03  0.00000000000E+00 0.  1.
          5    1    4    4  502    0 -0.35491461393E+02  0.11685052829E+03  0.12785364731E+03  0.17686812863E+03  0.47000000000E+01 0. -1.
         -5    1    4    4    0  502 -0.59222804458E+01  0.10743970537E+02  0.18039692656E+03  0.18087467325E+03  0.47000000000E+01 0. -1.
<mgrwt>
<rscale>  0 0.10005637E+04</rscale>
<asrwt>0</asrwt>
<pdfrwt beam="1">  1        2 0.36470335E+00 0.10005637E+04</pdfrwt>
<pdfrwt beam="2">  1       -2 0.16242881E-01 0.10005637E+04</pdfrwt>
<totfact> 0.14572066E+02</totfact>
</mgrwt>
</event>
<event>
 9    1  0.4321150E-036  0.9995310E+03  0.7818608E-02  0.8681485E-01
          2   -1    0    0  501    0  0.00000000000E+00  0.00000000000E+00  0.64288038088E+03  0.64288038088E+03  0.00000000000E+00 0.  1.
         -2   -1    0    0    0  501 -0.00000000000E+00 -0.00000000000E+00 -0.38851015085E+03  0.38851015085E+03  0.00000000000E+00 0.  1.
         36    2    1    2    0    0  0.14210854715E-13  0.00000000000E+00  0.25437023003E+03  0.10313905317E+04  0.99953099752E+03 0.  0.
         25    2    3    3    0    0 -0.63379334903E+02  0.13274786070E+03  0.58724266794E+02  0.19368159706E+03  0.11146787392E+03 0.  0.
         35    2    3    3    0    0  0.63379334903E+02 -0.13274786070E+03  0.19564596324E+03  0.83770893467E+03  0.80114916319E+03 0.  0.
         22    1    5    5    0    0 -0.15679080868E+03 -0.31093080037E+03  0.36760727827E+03  0.50635603219E+03  0.00000000000E+00 0. -1.
         22    1    5    5    0    0  0.22017014358E+03  0.17818293967E+03 -0.17196131503E+03  0.33135290248E+03  0.00000000000E+00 0. -1.
          5    1    4    4  502    0 -0.75441476135E+01 -0.19483931521E+02  0.13360907387E+02  0.25241663909E+02  0.47000000000E+01 0. -1.
         -5    1    4    4    0  502 -0.55835187289E+02  0.15223179222E+03  0.45363359408E+02  0.16843993315E+03  0.47000000000E+01 0. -1.
<mgrwt>
<rscale>  0 0.99953100E+03</rscale>
<asrwt>0</asrwt>
<pdfrwt beam="1">  1        2 0.98904674E-01 0.99953100E+03</pdfrwt>
<pdfrwt beam="2">  1       -2 0.59770792E-01 0.99953100E+03</pdfrwt>
<totfact> 0.14399061E+02</totfact>
</mgrwt>
</event>
<event>
 9    1  0.4321150E-036  0.1000345E+04  0.7818608E-02  0.8680710E-01
         -1   -1    0    0    0  501 -0.00000000000E+00  0.00000000000E+00  0.85533183376E+03  0.85533183376E+03  0.00000000000E+00 0.  1.
          1   -1    0    0  501    0  0.00000000000E+00 -0.00000000000E+00 -0.29248590648E+03  0.29248590648E+03  0.00000000000E+00 0.  1.
         36    2    1    2    0    0 -0.14210854715E-13 -0.21316282073E-13  0.56284592728E+03  0.11478177402E+04  0.10003449540E+04 0.  0.
         25    2    3    3    0    0 -0.10360085460E+03  0.87973948367E+01 -0.19580157378E+01  0.16257282913E+03  0.12496223317E+03 0.  0.
         35    2    3    3    0    0  0.10360085460E+03 -0.87973948368E+01  0.56480394302E+03  0.98524491111E+03  0.80055824872E+03 0.  0.
         22    1    5    5    0    0 -0.10151642689E+02  0.34970875440E+03  0.58798383848E+02  0.35476262303E+03  0.00000000000E+00 0. -1.
         22    1    5    5    0    0  0.11375249728E+03 -0.35850614924E+03  0.50600555917E+03  0.63048228809E+03  0.00000000000E+00 0. -1.
          5    1    4    4  502    0 -0.12187926721E+03 -0.24035861461E+02  0.31712785129E+01  0.12435604295E+03  0.47000000000E+01 0. -1.
         -5    1    4    4    0  502  0.18278412611E+02  0.32833256298E+02 -0.51292942507E+01  0.38216786184E+02  0.47000000000E+01 0. -1.
<mgrwt>
<rscale>  0 0.10003450E+04</rscale>
<asrwt>0</asrwt>
<pdfrwt beam="1">  1        1 0.44997832E-01 0.10003450E+04</pdfrwt>
<pdfrwt beam="2">  1       -1 0.13158951E+00 0.10003450E+04</pdfrwt>
<totfact> 0.53316023E+01</totfact>
</mgrwt>
</event>
<event>
 9    1  0.4321150E-036  0.9997068E+03  0.7818608E-02  0.8681317E-01
          3   -1    0    0  501    0  0.00000000000E+00  0.00000000000E+00  0.57842492711E+03  0.57842492711E+03  0.00000000000E+00 0. -1.
         -3   -1    0    0    0  501 -0.00000000000E+00 -0.00000000000E+00 -0.43195480267E+03  0.43195480267E+03  0.00000000000E+00 0. -1.
         36    2    1    2    0    0 -0.28421709430E-13 -0.71054273576E-14  0.14647012444E+03  0.10103797298E+04  0.99970680751E+03 0.  0.
         25    2    3    3    0    0  0.12153149766E+03  0.10448349580E+02 -0.40531609254E+02  0.17940444190E+03  0.12515618040E+03 0.  0.
         35    2    3    3    0    0 -0.12153149766E+03 -0.10448349580E+02  0.18700173369E+03  0.83097528787E+03  0.80041939489E+03 0.  0.
         22    1    5    5    0    0 -0.46175827743E+03 -0.60331235589E+02  0.10068829445E+03  0.47644380298E+03  0.00000000000E+00 0. -1.
         22    1    5    5    0    0  0.34022677976E+03  0.49882886009E+02  0.86313439241E+02  0.35453148489E+03  0.00000000000E+00 0. -1.
          5    1    4    4  502    0 -0.14884724448E+02 -0.28782807741E+02 -0.75728097515E+01  0.33607179156E+02  0.47000000000E+01 0.  1.
         -5    1    4    4    0  502  0.13641622211E+03  0.39231157320E+02 -0.32958799502E+02  0.14579726275E+03  0.47000000000E+01 0.  1.
<mgrwt>
<rscale>  0 0.99970681E+03</rscale>
<asrwt>0</asrwt>
<pdfrwt beam="1">  1        3 0.88988450E-01 0.99970681E+03</pdfrwt>
<pdfrwt beam="2">  1       -3 0.66454585E-01 0.99970681E+03</pdfrwt>
<totfact> 0.10175204E+01</totfact>
</mgrwt>
</event>
<event>
 9    1  0.4321150E-036  0.1000291E+04  0.7818608E-02  0.8680761E-01
         -2   -1    0    0    0  501 -0.00000000000E+00  0.00000000000E+00  0.25224392811E+03  0.25224392811E+03  0.00000000000E+00 0. -1.
          2   -1    0    0  501    0  0.00000000000E+00 -0.00000000000E+00 -0.99168059669E+03  0.99168059669E+03  0.00000000000E+00 0. -1.
         36    2    1    2    0    0  0.23980817332E-13 -0.35527136788E-14 -0.73943666859E+03  0.12439245248E+04  0.10002907760E+04 0.  0.
         25    2    3    3    0    0 -0.40977753420E+01 -0.15670451850E+02 -0.31346999319E+03  0.33790195868E+03  0.12510772248E+03 0.  0.
         35    2    3    3    0    0  0.40977753420E+01  0.15670451850E+02 -0.42596667539E+03  0.90602256612E+03  0.79947915980E+03 0.  0.
         22    1    5    5    0    0 -0.34175854921E+03 -0.27775894936E+02  0.15855403911E+02  0.34325180281E+03  0.00000000000E+00 0. -1.
         22    1    5    5    0    0  0.34585632455E+03  0.43446346786E+02 -0.44182207931E+03  0.56277076332E+03  0.00000000000E+00 0. -1.
          5    1    4    4  502    0 -0.10407950331E+02 -0.58406740644E+02 -0.26983615115E+03  0.27632102933E+03  0.47000000000E+01 0. -1.
         -5    1    4    4    0  502  0.63101749894E+01  0.42736288795E+02 -0.43633842046E+02  0.61580929353E+02  0.47000000000E+01 0. -1.
<mgrwt>
<rscale>  0 0.10002908E+04</rscale>
<asrwt>0</asrwt>
<pdfrwt beam="1">  1        2 0.15256625E+00 0.10002908E+04</pdfrwt>
<pdfrwt beam="2">  1       -2 0.38806758E-01 0.10002908E+04</pdfrwt>
<totfact> 0.19343758E+02</totfact>
</mgrwt>
</event>
<event>
 9    1  0.4321150E-036  0.1000057E+04  0.7818608E-02  0.8680984E-01
         -2   -1    0    0    0  501 -0.00000000000E+00  0.00000000000E+00  0.13399668733E+03  0.13399668733E+03  0.00000000000E+00 0.  1.
          2   -1    0    0  501    0  0.00000000000E+00 -0.00000000000E+00 -0.18659304471E+04  0.18659304471E+04  0.00000000000E+00 0.  1.
         36    2    1    2    0    0  0.00000000000E+00  0.00000000000E+00 -0.17319337598E+04  0.19999271344E+04  0.10000569958E+04 0.  0.
         25    2    3    3    0    0 -0.93245468228E+02  0.47777515575E+02 -0.51557921110E+03  0.54065842133E+03  0.12454797185E+03 0.  0.
         35    2    3    3    0    0  0.93245468228E+02 -0.47777515575E+02 -0.12163545487E+04  0.14592687131E+04  0.79935560338E+03 0.  0.
         22    1    5    5    0    0  0.10443466014E+02 -0.98334681817E+02  0.99242458313E+02  0.14009939744E+03  0.00000000000E+00 0. -1.
         22    1    5    5    0    0  0.82802002214E+02  0.50557166242E+02 -0.13155970070E+04  0.13191693157E+04  0.00000000000E+00 0. -1.
          5    1    4    4  502    0 -0.86578238865E+02  0.86916034941E+02 -0.39114880213E+03  0.40996300318E+03  0.47000000000E+01 0.  1.
         -5    1    4    4    0  502 -0.66672293629E+01 -0.39138519365E+02 -0.12443040898E+03  0.13069541814E+03  0.47000000000E+01 0.  1.
<mgrwt>
<rscale>  0 0.10000570E+04</rscale>
<asrwt>0</asrwt>
<pdfrwt beam="1">  1        2 0.28706623E+00 0.10000570E+04</pdfrwt>
<pdfrwt beam="2">  1       -2 0.20614875E-01 0.10000570E+04</pdfrwt>
<totfact> 0.18951841E+02</totfact>
</mgrwt>
</event>
<event>
 9    1  0.4321150E-036  0.9996020E+03  0.7818608E-02  0.8681417E-01
          1   -1    0    0  501    0  0.00000000000E+00  0.00000000000E+00  0.67472233261E+03  0.67472233261E+03  0.00000000000E+00 0.  1.
         -1   -1    0    0    0  501 -0.00000000000E+00 -0.00000000000E+00 -0.37022787537E+03  0.37022787537E+03  0.00000000000E+00 0.  1.
         36    2    1    2    0    0  0.28421709430E-13 -0.28421709430E-13  0.30449445725E+03  0.10449502080E+04  0.99960195211E+03 0.  0.
         25    2    3    3    0    0 -0.33396674677E+02 -0.75403315658E+02  0.17811762148E+03  0.23238452645E+03  0.12440129887E+03 0.  0.
         35    2    3    3    0    0  0.33396674677E+02  0.75403315658E+02  0.12637683577E+03  0.81256568153E+03  0.79843026263E+03 0.  0.
         22    1    5    5    0    0  0.26339117118E+03 -0.27675306032E+03  0.57856022702E+02  0.38641232488E+03  0.00000000000E+00 0.  1.
         22    1    5    5    0    0 -0.22999449650E+03  0.35215637598E+03  0.68520813066E+02  0.42615335665E+03  0.00000000000E+00 0.  1.
          5    1    4    4  502    0 -0.23652464393E+02 -0.49824722725E+02  0.33834138679E+01  0.55457006373E+02  0.47000000000E+01 0.  1.
         -5    1    4    4    0  502 -0.97442102842E+01 -0.25578592933E+02  0.17473420761E+03  0.17692752008E+03  0.47000000000E+01 0.  1.
<mgrwt>
<rscale>  0 0.99960195E+03</rscale>
<asrwt>0</asrwt>
<pdfrwt beam="1">  1        1 0.10380344E+00 0.99960195E+03</pdfrwt>
<pdfrwt beam="2">  1       -1 0.56958135E-01 0.99960195E+03</pdfrwt>
<totfact> 0.10366115E+02</totfact>
</mgrwt>
</event>
<event>
 9    1  0.4321150E-036  0.9992253E+03  0.7818608E-02  0.8681776E-01
          1   -1    0    0  501    0  0.00000000000E+00  0.00000000000E+00  0.39044267862E+03  0.39044267862E+03  0.00000000000E+00 0. -1.
         -1   -1    0    0    0  501 -0.00000000000E+00 -0.00000000000E+00 -0.63930716386E+03  0.63930716386E+03  0.00000000000E+00 0. -1.
         36    2    1    2    0    0  0.28421709430E-13  0.14210854715E-13 -0.24886448524E+03  0.10297498425E+04  0.99922530295E+03 0.  0.
         25    2    3    3    0    0 -0.11419906018E+03  0.33630265328E+02  0.27642728690E+02  0.17489961492E+03  0.12511328769E+03 0.  0.
         35    2    3    3    0    0  0.11419906018E+03 -0.33630265328E+02 -0.27650721393E+03  0.85485022755E+03  0.80008765276E+03 0.  0.
         22    1    5    5    0    0  0.39177813184E+03 -0.22371633979E+03 -0.60853470234E+02  0.45523867379E+03  0.00000000000E+00 0. -1.
         22    1    5    5    0    0 -0.27757907166E+03  0.19008607446E+03 -0.21565374370E+03  0.39961155376E+03  0.00000000000E+00 0. -1.
          5    1    4    4  502    0 -0.11882240099E+03  0.54384162108E+02  0.53335370282E+02  0.14122022443E+03  0.47000000000E+01 0. -1.
         -5    1    4    4    0  502  0.46233408081E+01 -0.20753896780E+02 -0.25692641592E+02  0.33679390490E+02  0.47000000000E+01 0. -1.
<mgrwt>
<rscale>  0 0.99922530E+03</rscale>
<asrwt>0</asrwt>
<pdfrwt beam="1">  1        1 0.60068105E-01 0.99922530E+03</pdfrwt>
<pdfrwt beam="2">  1       -1 0.98354948E-01 0.99922530E+03</pdfrwt>
<totfact> 0.73429394E+01</totfact>
</mgrwt>
</event>
<event>
 9    1  0.4321150E-036  0.9996781E+03  0.7818608E-02  0.8681345E-01
          2   -1    0    0  501    0  0.00000000000E+00  0.00000000000E+00  0.47054896343E+03  0.47054896343E+03  0.00000000000E+00 0.  1.
         -2   -1    0    0    0  501 -0.00000000000E+00 -0.00000000000E+00 -0.53095232427E+03  0.53095232427E+03  0.00000000000E+00 0.  1.
         36    2    1    2    0    0 -0.28421709430E-13 -0.14210854715E-13 -0.60403360846E+02  0.10015012877E+04  0.99967807981E+03 0.  0.
         25    2    3    3    0    0 -0.66316451911E+02  0.11648451741E+03 -0.48255623315E+02  0.18978662644E+03  0.12539475190E+03 0.  0.
         35    2    3    3    0    0  0.66316451911E+02 -0.11648451741E+03 -0.12147737531E+02  0.81171466126E+03  0.80047898735E+03 0.  0.
         22    1    5    5    0    0  0.21995370612E+03  0.26957423307E+03  0.13169715103E+03  0.37201349379E+03  0.00000000000E+00 0. -1.
         22    1    5    5    0    0 -0.15363725421E+03 -0.38605875048E+03 -0.14384488856E+03  0.43970116747E+03  0.00000000000E+00 0. -1.
          5    1    4    4  502    0 -0.33094683859E+02  0.10261598822E+03  0.22515124050E+02  0.11024663237E+03  0.47000000000E+01 0.  1.
         -5    1    4    4    0  502 -0.33221768052E+02  0.13868529195E+02 -0.70770747365E+02  0.79539994073E+02  0.47000000000E+01 0.  1.
<mgrwt>
<rscale>  0 0.99967808E+03</rscale>
<asrwt>0</asrwt>
<pdfrwt beam="1">  1        2 0.72392148E-01 0.99967808E+03</pdfrwt>
<pdfrwt beam="2">  1       -2 0.81684973E-01 0.99967808E+03</pdfrwt>
<totfact> 0.10482748E+02</totfact>
</mgrwt>
</event>
<event>
 9    1  0.4321150E-036  0.9991022E+03  0.7818608E-02  0.8681893E-01
         -2   -1    0    0    0  501 -0.00000000000E+00  0.00000000000E+00  0.11140488095E+03  0.11140488095E+03  0.00000000000E+00 0. -1.
          2   -1    0    0  501    0  0.00000000000E+00 -0.00000000000E+00 -0.22400390442E+04  0.22400390442E+04  0.00000000000E+00 0. -1.
         36    2    1    2    0    0  0.28421709430E-13  0.00000000000E+00 -0.21286341633E+04  0.23514439252E+04  0.99910216302E+03 0.  0.
         25    2    3    3    0    0 -0.77275610565E+02 -0.10106011992E+03 -0.25198280524E+03  0.30847963509E+03  0.12441737540E+03 0.  0.
         35    2    3    3    0    0  0.77275610565E+02  0.10106011992E+03 -0.18766513581E+04  0.20429642901E+04  0.79730678104E+03 0.  0.
         22    1    5    5    0    0 -0.29013906586E+03  0.23840442371E+03 -0.12358484460E+04  0.12916418731E+04  0.00000000000E+00 0. -1.
         22    1    5    5    0    0  0.36741467642E+03 -0.13734430379E+03 -0.64080291208E+03  0.75132241705E+03  0.00000000000E+00 0. -1.
          5    1    4    4  502    0 -0.50235290600E+02 -0.11544715169E+03 -0.24674761691E+03  0.27705253239E+03  0.47000000000E+01 0.  1.
         -5    1    4    4    0  502 -0.27040319965E+02  0.14387031768E+02 -0.52351883250E+01  0.31427102693E+02  0.47000000000E+01 0.  1.
<mgrwt>
<rscale>  0 0.99910216E+03</rscale>
<asrwt>0</asrwt>
<pdfrwt beam="1">  1        2 0.34462137E+00 0.99910216E+03</pdfrwt>
<pdfrwt beam="2">  1       -2 0.17139213E-01 0.99910216E+03</pdfrwt>
<totfact> 0.15885257E+02</totfact>
</mgrwt>
</event>
<event>
 9    1  0.4321150E-036  0.1000512E+04  0.7818608E-02  0.8680551E-01
          2   -1    0    0  501    0  0.00000000000E+00  0.00000000000E+00  0.47462107166E+03  0.47462107166E+03  0.00000000000E+00 0.  1.
         -2   -1    0    0    0  501 -0.00000000000E+00 -0.00000000000E+00 -0.52727508645E+03  0.52727508645E+03  0.00000000000E+00 0.  1.
         36    2    1    2    0    0  0.00000000000E+00 -0.71054273576E-14 -0.52654014791E+02  0.10018961581E+04  0.10005116023E+04 0.  0.
         25    2    3    3    0    0 -0.12575109076E+03 -0.57160300724E+02  0.16169320934E+02  0.18699903715E+03  0.12500622444E+03 0.  0.
         35    2    3    3    0    0  0.12575109076E+03  0.57160300724E+02 -0.68823335725E+02  0.81489712096E+03  0.80015000431E+03 0.  0.
         22    1    5    5    0    0 -0.13333185113E+02 -0.57264249878E+02  0.35214498599E+03  0.35701969035E+03  0.00000000000E+00 0. -1.
         22    1    5    5    0    0  0.13908427587E+03  0.11442455060E+03 -0.42096832171E+03  0.45787743061E+03  0.00000000000E+00 0. -1.
          5    1    4    4  502    0 -0.13296809044E+03 -0.84495089597E+02  0.12560025400E+02  0.15811317934E+03  0.47000000000E+01 0.  1.
         -5    1    4    4    0  502  0.72169996824E+01  0.27334788873E+02  0.36092955341E+01  0.28885857809E+02  0.47000000000E+01 0.  1.
<mgrwt>
<rscale>  0 0.10005116E+04</rscale>
<asrwt>0</asrwt>
<pdfrwt beam="1">  1        2 0.73018626E-01 0.10005116E+04</pdfrwt>
<pdfrwt beam="2">  1       -2 0.81119244E-01 0.10005116E+04</pdfrwt>
<totfact> 0.10548348E+02</totfact>
</mgrwt>
</event>
<event>
 9    1  0.4321150E-036  0.1001243E+04  0.7818608E-02  0.8679855E-01
         -2   -1    0    0    0  501 -0.00000000000E+00  0.00000000000E+00  0.11198688349E+04  0.11198688349E+04  0.00000000000E+00 0. -1.
          2   -1    0    0  501    0  0.00000000000E+00 -0.00000000000E+00 -0.22379585547E+03  0.22379585547E+03  0.00000000000E+00 0. -1.
         36    2    1    2    0    0 -0.14210854715E-13 -0.35527136788E-13  0.89607297942E+03  0.13436646904E+04  0.10012432350E+04 0.  0.
         25    2    3    3    0    0  0.69839925113E+02  0.26678982273E+02  0.33287913748E+03  0.36302998005E+03  0.12406797738E+03 0.  0.
         35    2    3    3    0    0 -0.69839925113E+02 -0.26678982273E+02  0.56319384193E+03  0.98063471031E+03  0.79929202939E+03 0.  0.
         22    1    5    5    0    0 -0.60531705499E+02 -0.41181293308E+03  0.26461540052E+03  0.49322944906E+03  0.00000000000E+00 0. -1.
         22    1    5    5    0    0 -0.93082196131E+01  0.38513395081E+03  0.29857844141E+03  0.48740526125E+03  0.00000000000E+00 0. -1.
          5    1    4    4  502    0  0.95302085389E+02  0.35772906986E+02  0.17275011228E+03  0.20056639710E+03  0.47000000000E+01 0.  1.
         -5    1    4    4    0  502 -0.25462160277E+02 -0.90939247123E+01  0.16012902521E+03  0.16246358296E+03  0.47000000000E+01 0.  1.
<mgrwt>
<rscale>  0 0.10012432E+04</rscale>
<asrwt>0</asrwt>
<pdfrwt beam="1">  1        2 0.34430132E-01 0.10012432E+04</pdfrwt>
<pdfrwt beam="2">  1       -2 0.17228751E+00 0.10012432E+04</pdfrwt>
<totfact> 0.34742508E+01</totfact>
</mgrwt>
</event>
<event>
 9    1  0.4321150E-036  0.9998178E+03  0.7818608E-02  0.8681211E-01
          2   -1    0    0  501    0  0.00000000000E+00  0.00000000000E+00  0.70039083367E+03  0.70039083367E+03  0.00000000000E+00 0. -1.
         -2   -1    0    0    0  501 -0.00000000000E+00 -0.00000000000E+00 -0.35681352667E+03  0.35681352667E+03  0.00000000000E+00 0. -1.
         36    2    1    2    0    0 -0.14210854715E-13  0.00000000000E+00  0.34357730701E+03  0.10572043603E+04  0.99981783022E+03 0.  0.
         25    2    3    3    0    0  0.10941671480E+03 -0.12982050066E+02  0.15438034400E+03  0.22721515463E+03  0.12511148939E+03 0.  0.
         35    2    3    3    0    0 -0.10941671480E+03  0.12982050066E+02  0.18919696301E+03  0.82998920571E+03  0.80059105646E+03 0.  0.
         22    1    5    5    0    0  0.51528280617E+02 -0.67130497773E+01 -0.30524645636E+03  0.30963789797E+03  0.00000000000E+00 0.  1.
         22    1    5    5    0    0 -0.16094499542E+03  0.19695099843E+02  0.49444341937E+03  0.52035130774E+03  0.00000000000E+00 0.  1.
          5    1    4    4  502    0  0.91326565517E+02 -0.33339710032E+02  0.16968788308E+03  0.19562245653E+03  0.47000000000E+01 0.  1.
         -5    1    4    4    0  502  0.18090149286E+02  0.20357659966E+02 -0.15307539082E+02  0.31592698099E+02  0.47000000000E+01 0.  1.
<mgrwt>
<rscale>  0 0.99981783E+03</rscale>
<asrwt>0</asrwt>
<pdfrwt beam="1">  1        2 0.10775244E+00 0.99981783E+03</pdfrwt>
<pdfrwt beam="2">  1       -2 0.54894389E-01 0.99981783E+03</pdfrwt>
<totfact> 0.15467226E+02</totfact>
</mgrwt>
</event>
<event>
 9    1  0.4321150E-036  0.9992165E+03  0.7818608E-02  0.8681784E-01
         -2   -1    0    0    0  501 -0.00000000000E+00  0.00000000000E+00  0.28148916541E+03  0.28148916541E+03  0.00000000000E+00 0.  1.
          2   -1    0    0  501    0  0.00000000000E+00 -0.00000000000E+00 -0.88674253740E+03  0.88674253740E+03  0.00000000000E+00 0.  1.
         36    2    1    2    0    0  0.00000000000E+00  0.71054273576E-14 -0.60525337199E+03  0.11682317028E+04  0.99921652665E+03 0.  0.
         25    2    3    3    0    0  0.13695922494E+03 -0.24716030049E+02 -0.11478518553E+03  0.21957230637E+03  0.12517047363E+03 0.  0.
         35    2    3    3    0    0 -0.13695922494E+03  0.24716030049E+02 -0.49046818646E+03  0.94865939643E+03  0.80001681049E+03 0.  0.
         22    1    5    5    0    0 -0.13427789938E+03  0.18546539926E+03  0.15953495158E+03  0.27906875382E+03  0.00000000000E+00 0. -1.
         22    1    5    5    0    0 -0.26813255574E+01 -0.16074936921E+03 -0.65000313804E+03  0.66959064261E+03  0.00000000000E+00 0. -1.
          5    1    4    4  502    0  0.28419000699E+02  0.22114026509E+02  0.18997393949E+02  0.40983664380E+02  0.47000000000E+01 0. -1.
         -5    1    4    4    0  502  0.10854022424E+03 -0.46830056558E+02 -0.13378257948E+03  0.17858864199E+03  0.47000000000E+01 0. -1.
<mgrwt>
<rscale>  0 0.99921653E+03</rscale>
<asrwt>0</asrwt>
<pdfrwt beam="1">  1        2 0.13642193E+00 0.99921653E+03</pdfrwt>
<pdfrwt beam="2">  1       -2 0.43306026E-01 0.99921653E+03</pdfrwt>
<totfact> 0.18311376E+02</totfact>
</mgrwt>
</event>
<event>
 9    1  0.4321150E-036  0.9939295E+03  0.7818608E-02  0.8686840E-01
          2   -1    0    0  501    0  0.00000000000E+00  0.00000000000E+00  0.98556710736E+03  0.98556710736E+03  0.00000000000E+00 0. -1.
         -2   -1    0    0    0  501 -0.00000000000E+00 -0.00000000000E+00 -0.25059073472E+03  0.25059073472E+03  0.00000000000E+00 0. -1.
         36    2    1    2    0    0 -0.28421709430E-13  0.00000000000E+00  0.73497637264E+03  0.12361578421E+04  0.99392954588E+03 0.  0.
         25    2    3    3    0    0 -0.11802076352E+03  0.38085355865E+02  0.19787948059E+03  0.26479882146E+03  0.12483081373E+03 0.  0.
         35    2    3    3    0    0  0.11802076352E+03 -0.38085355865E+02  0.53709689205E+03  0.97135902061E+03  0.79980365123E+03 0.  0.
         22    1    5    5    0    0 -0.91625326500E+02  0.35242473011E+03  0.27628082959E+03  0.45708805240E+03  0.00000000000E+00 0. -1.
         22    1    5    5    0    0  0.20964609002E+03 -0.39051008597E+03  0.26081606246E+03  0.51427096821E+03  0.00000000000E+00 0. -1.
          5    1    4    4  502    0  0.58171293953E+01 -0.27414176635E+02  0.68027536327E+02  0.73723888759E+02  0.47000000000E+01 0. -1.
         -5    1    4    4    0  502 -0.12383789291E+03  0.65499532500E+02  0.12985194427E+03  0.19107493271E+03  0.47000000000E+01 0. -1.
<mgrwt>
<rscale>  0 0.99392955E+03</rscale>
<asrwt>0</asrwt>
<pdfrwt beam="1">  1        2 0.15162571E+00 0.99392955E+03</pdfrwt>
<pdfrwt beam="2">  1       -2 0.38552421E-01 0.99392955E+03</pdfrwt>
<totfact> 0.19763082E+02</totfact>
</mgrwt>
</event>
<event>
 9    1  0.4321150E-036  0.1000114E+04  0.7818608E-02  0.8680929E-01
          2   -1    0    0  501    0  0.00000000000E+00  0.00000000000E+00  0.74752974831E+03  0.74752974831E+03  0.00000000000E+00 0. -1.
         -2   -1    0    0    0  501 -0.00000000000E+00 -0.00000000000E+00 -0.33451117796E+03  0.33451117796E+03  0.00000000000E+00 0. -1.
         36    2    1    2    0    0 -0.28421709430E-13  0.00000000000E+00  0.41301857036E+03  0.10820409263E+04  0.10001141068E+04 0.  0.
         25    2    3    3    0    0 -0.64141107828E+02  0.94735960687E+02 -0.17963029489E+01  0.17013598641E+03  0.12591283972E+03 0.  0.
         35    2    3    3    0    0  0.64141107828E+02 -0.94735960687E+02  0.41481487331E+03  0.91190493986E+03  0.80399642802E+03 0.  0.
         22    1    5    5    0    0 -0.33621427088E+03 -0.11174385034E+03  0.36403388133E+03  0.50798365209E+03  0.00000000000E+00 0.  1.
         22    1    5    5    0    0  0.40035537871E+03  0.17007889656E+02  0.50780991979E+02  0.40392128777E+03  0.00000000000E+00 0.  1.
          5    1    4    4  502    0 -0.12484639969E+02  0.43180992145E+01 -0.52413697771E+02  0.54256777734E+02  0.47000000000E+01 0. -1.
         -5    1    4    4    0  502 -0.51656467860E+02  0.90417861473E+02  0.50617394823E+02  0.11587920868E+03  0.47000000000E+01 0. -1.
<mgrwt>
<rscale>  0 0.10001141E+04</rscale>
<asrwt>0</asrwt>
<pdfrwt beam="1">  1        2 0.11500458E+00 0.10001141E+04</pdfrwt>
<pdfrwt beam="2">  1       -2 0.51463258E-01 0.10001141E+04</pdfrwt>
<totfact> 0.16260695E+02</totfact>
</mgrwt>
</event>
<event>
 9    1  0.4321150E-036  0.1000017E+04  0.7818608E-02  0.8681022E-01
          2   -1    0    0  501    0  0.00000000000E+00  0.00000000000E+00  0.32994991686E+03  0.32994991686E+03  0.00000000000E+00 0.  1.
         -2   -1    0    0    0  501 -0.00000000000E+00 -0.00000000000E+00 -0.75771613118E+03  0.75771613118E+03  0.00000000000E+00 0.  1.
         36    2    1    2    0    0  0.21316282073E-13  0.00000000000E+00 -0.42776621433E+03  0.10876660480E+04  0.10000167488E+04 0.  0.
         25    2    3    3    0    0  0.58657273339E+02 -0.12840807108E+03 -0.80781619915E+02  0.20536848120E+03  0.12538434719E+03 0.  0.
         35    2    3    3    0    0 -0.58657273339E+02  0.12840807108E+03 -0.34698459441E+03  0.88229756684E+03  0.79882499915E+03 0.  0.
         22    1    5    5    0    0  0.22861533078E+03  0.31653575327E+03 -0.37028343579E+03  0.53811678601E+03  0.00000000000E+00 0. -1.
         22    1    5    5    0    0 -0.28727260412E+03 -0.18812768219E+03  0.23298841376E+02  0.34418078083E+03  0.00000000000E+00 0. -1.
          5    1    4    4  502    0  0.27805581971E+02 -0.31529372057E+02  0.32303786593E+02  0.53224771670E+02  0.47000000000E+01 0. -1.
         -5    1    4    4    0  502  0.30851691368E+02 -0.96878699020E+02 -0.11308540651E+03  0.15214370953E+03  0.47000000000E+01 0. -1.
<mgrwt>
<rscale>  0 0.10000167E+04</rscale>
<asrwt>0</asrwt>
<pdfrwt beam="1">  1        2 0.50761526E-01 0.10000167E+04</pdfrwt>
<pdfrwt beam="2">  1       -2 0.11657171E+00 0.10000167E+04</pdfrwt>
<totfact> 0.65904775E+01</totfact>
</mgrwt>
</event>
<event>
 9    1  0.4321150E-036  0.1000042E+04  0.7818608E-02  0.8680998E-01
          2   -1    0    0  501    0  0.00000000000E+00  0.00000000000E+00  0.13660324440E+04  0.13660324440E+04  0.00000000000E+00 0. -1.
         -2   -1    0    0    0  501 -0.00000000000E+00 -0.00000000000E+00 -0.18302711605E+03  0.18302711605E+03  0.00000000000E+00 0. -1.
         36    2    1    2    0    0  0.00000000000E+00 -0.71054273576E-14  0.11830053280E+04  0.15490595601E+04  0.10000419564E+04 0.  0.
         25    2    3    3    0    0 -0.13590149197E+03 -0.19828380680E+02  0.18239415572E+03  0.26019102073E+03  0.12477723763E+03 0.  0.
         35    2    3    3    0    0  0.13590149197E+03  0.19828380680E+02  0.10006111723E+04  0.12888685393E+04  0.80068533986E+03 0.  0.
         22    1    5    5    0    0  0.34775907211E+03 -0.16341661046E+03  0.92057548864E+03  0.99754728765E+03  0.00000000000E+00 0.  1.
         22    1    5    5    0    0 -0.21185758014E+03  0.18324499114E+03  0.80035683622E+02  0.29132125170E+03  0.00000000000E+00 0.  1.
          5    1    4    4  502    0  0.67004669619E+01  0.32281369574E+02  0.39232973447E+02  0.51461629245E+02  0.47000000000E+01 0. -1.
         -5    1    4    4    0  502 -0.14260195893E+03 -0.52109750253E+02  0.14316118227E+03  0.20872939149E+03  0.47000000000E+01 0. -1.
<mgrwt>
<rscale>  0 0.10000420E+04</rscale>
<asrwt>0</asrwt>
<pdfrwt beam="1">  1        2 0.21015883E+00 0.10000420E+04</pdfrwt>
<pdfrwt beam="2">  1       -2 0.28158019E-01 0.10000420E+04</pdfrwt>
<totfact> 0.20941521E+02</totfact>
</mgrwt>
</event>
<event>
 9    1  0.4321150E-036  0.1000538E+04  0.7818608E-02  0.8680526E-01
          1   -1    0    0  501    0  0.00000000000E+00  0.00000000000E+00  0.66523597754E+03  0.66523597754E+03  0.00000000000E+00 0.  1.
         -1   -1    0    0    0  501 -0.00000000000E+00 -0.00000000000E+00 -0.37621090625E+03  0.37621090625E+03  0.00000000000E+00 0.  1.
         36    2    1    2    0    0 -0.71054273576E-14  0.14210854715E-13  0.28902507129E+03  0.10414468838E+04  0.10005379153E+04 0.  0.
         25    2    3    3    0    0  0.31714656616E+02  0.77381470425E+02  0.16687339592E+03  0.22652470594E+03  0.12834718823E+03 0.  0.
         35    2    3    3    0    0 -0.31714656616E+02 -0.77381470425E+02  0.12215167537E+03  0.81492217785E+03  0.80136347106E+03 0.  0.
         22    1    5    5    0    0  0.62595209243E+02 -0.17725490664E+03 -0.30940323448E+03  0.36203290410E+03  0.00000000000E+00 0.  1.
         22    1    5    5    0    0 -0.94309865859E+02  0.99873436212E+02  0.43155490985E+03  0.45288927375E+03  0.00000000000E+00 0.  1.
          5    1    4    4  502    0  0.64099436084E+02  0.52948059106E+01  0.36790257039E+02  0.74245442209E+02  0.47000000000E+01 0.  1.
         -5    1    4    4    0  502 -0.32384779467E+02  0.72086664514E+02  0.13008313888E+03  0.15227926373E+03  0.47000000000E+01 0.  1.
<mgrwt>
<rscale>  0 0.10005379E+04</rscale>
<asrwt>0</asrwt>
<pdfrwt beam="1">  1        1 0.10234400E+00 0.10005379E+04</pdfrwt>
<pdfrwt beam="2">  1       -1 0.57878601E-01 0.10005379E+04</pdfrwt>
<totfact> 0.10271427E+02</totfact>
</mgrwt>
</event>
<event>
 9    1  0.4321150E-036  0.1000204E+04  0.7818608E-02  0.8680843E-01
          1   -1    0    0  501    0  0.00000000000E+00  0.00000000000E+00  0.60485084627E+03  0.60485084627E+03  0.00000000000E+00 0. -1.
         -1   -1    0    0    0  501 -0.00000000000E+00 -0.00000000000E+00 -0.41349398943E+03  0.41349398943E+03  0.00000000000E+00 0. -1.
         36    2    1    2    0    0  0.21316282073E-13  0.00000000000E+00  0.19135685684E+03  0.10183448357E+04  0.10002043580E+04 0.  0.
         25    2    3    3    0    0 -0.12479941427E+02 -0.13771572447E+03  0.14132144631E+02  0.18622659494E+03  0.12393247131E+03 0.  0.
         35    2    3    3    0    0  0.12479941427E+02  0.13771572447E+03  0.17722471220E+03  0.83211824076E+03  0.80118087739E+03 0.  0.
         22    1    5    5    0    0  0.33459277747E+03  0.22402326533E+03 -0.80533172561E+02  0.41063894363E+03  0.00000000000E+00 0. -1.
         22    1    5    5    0    0 -0.32211283604E+03 -0.86307540858E+02  0.25775788477E+03  0.42147929713E+03  0.00000000000E+00 0. -1.
          5    1    4    4  502    0  0.39006337997E+02 -0.10404045223E+03 -0.23894064567E+02  0.11374940187E+03  0.47000000000E+01 0. -1.
         -5    1    4    4    0  502 -0.51486279423E+02 -0.33675272243E+02  0.38026209198E+02  0.72477193071E+02  0.47000000000E+01 0. -1.
<mgrwt>
<rscale>  0 0.10002044E+04</rscale>
<asrwt>0</asrwt>
<pdfrwt beam="1">  1        1 0.93053976E-01 0.10002044E+04</pdfrwt>
<pdfrwt beam="2">  1       -1 0.63614460E-01 0.10002044E+04</pdfrwt>
<totfact> 0.98669899E+01</totfact>
</mgrwt>
</event>
<event>
 9    1  0.4321150E-036  0.1002299E+04  0.7818608E-02  0.8678851E-01
         -1   -1    0    0    0  501 -0.00000000000E+00  0.00000000000E+00  0.16032420641E+03  0.16032420641E+03  0.00000000000E+00 0.  1.
          1   -1    0    0  501    0  0.00000000000E+00 -0.00000000000E+00 -0.15665195218E+04  0.15665195218E+04  0.00000000000E+00 0.  1.
         36    2    1    2    0    0  0.14210854715E-13 -0.14210854715E-13 -0.14061953154E+04  0.17268437282E+04  0.10022993548E+04 0.  0.
         25    2    3    3    0    0  0.99956664390E+02 -0.10178192871E+03 -0.34996278855E+03  0.39393925744E+03  0.11119032969E+03 0.  0.
         35    2    3    3    0    0 -0.99956664390E+02  0.10178192871E+03 -0.10562325269E+04  0.13329044708E+04  0.80041007095E+03 0.  0.
         22    1    5    5    0    0  0.10134131276E+03  0.42235734526E+03 -0.57680013739E+03  0.72204860450E+03  0.00000000000E+00 0.  1.
         22    1    5    5    0    0 -0.20129797715E+03 -0.32057541655E+03 -0.47943238946E+03  0.61085586628E+03  0.00000000000E+00 0.  1.
          5    1    4    4  502    0  0.53737897863E+02 -0.43953819360E+01 -0.21196596376E+03  0.21876640702E+03  0.47000000000E+01 0.  1.
         -5    1    4    4    0  502  0.46218766527E+02 -0.97386546775E+02 -0.13799682479E+03  0.17517285042E+03  0.47000000000E+01 0.  1.
<mgrwt>
<rscale>  0 0.10022994E+04</rscale>
<asrwt>0</asrwt>
<pdfrwt beam="1">  1        1 0.24100301E+00 0.10022994E+04</pdfrwt>
<pdfrwt beam="2">  1       -1 0.24665262E-01 0.10022994E+04</pdfrwt>
<totfact> 0.90648942E+01</totfact>
</mgrwt>
</event>
<event>
 9    1  0.4321150E-036  0.9995161E+03  0.7818608E-02  0.8681499E-01
          2   -1    0    0  501    0  0.00000000000E+00  0.00000000000E+00  0.15211045187E+04  0.15211045187E+04  0.00000000000E+00 0. -1.
         -2   -1    0    0    0  501 -0.00000000000E+00 -0.00000000000E+00 -0.16419521746E+03  0.16419521746E+03  0.00000000000E+00 0. -1.
         36    2    1    2    0    0 -0.14210854715E-13  0.00000000000E+00  0.13569093012E+04  0.16852997361E+04  0.99951605735E+03 0.  0.
         25    2    3    3    0    0 -0.56762636521E+02 -0.12216409711E+03  0.18770800187E+03  0.26224934072E+03  0.12407400702E+03 0.  0.
         35    2    3    3    0    0  0.56762636521E+02  0.12216409711E+03  0.11692012993E+04  0.14230503954E+04  0.79993417603E+03 0.  0.
         22    1    5    5    0    0 -0.97119653575E+02 -0.13571725802E+03  0.11029767872E+04  0.11155309025E+04  0.00000000000E+00 0.  1.
         22    1    5    5    0    0  0.15388229010E+03  0.25788135513E+03  0.66224512112E+02  0.30751949293E+03  0.00000000000E+00 0.  1.
          5    1    4    4  502    0  0.20361024652E+02  0.97703848204E+01  0.42908610429E+01  0.23463444608E+02  0.47000000000E+01 0. -1.
         -5    1    4    4    0  502 -0.77123661173E+02 -0.13193448193E+03  0.18341714083E+03  0.23878589611E+03  0.47000000000E+01 0. -1.
<mgrwt>
<rscale>  0 0.99951606E+03</rscale>
<asrwt>0</asrwt>
<pdfrwt beam="1">  1        2 0.23401607E+00 0.99951606E+03</pdfrwt>
<pdfrwt beam="2">  1       -2 0.25260804E-01 0.99951606E+03</pdfrwt>
<totfact> 0.20758569E+02</totfact>
</mgrwt>
</event>
<event>
 9    1  0.4321150E-036  0.1000322E+04  0.7818608E-02  0.8680731E-01
          2   -1    0    0  501    0  0.00000000000E+00  0.00000000000E+00  0.51018714640E+03  0.51018714640E+03  0.00000000000E+00 0.  1.
         -2   -1    0    0    0  501 -0.00000000000E+00 -0.00000000000E+00 -0.49033231030E+03  0.49033231030E+03  0.00000000000E+00 0.  1.
         36    2    1    2    0    0  0.00000000000E+00  0.00000000000E+00  0.19854836099E+02  0.10005194567E+04  0.10003224324E+04 0.  0.
         25    2    3    3    0    0 -0.11893018194E+03 -0.11269415635E+02  0.77078644669E+02  0.18962202952E+03  0.12547513184E+03 0.  0.
         35    2    3    3    0    0  0.11893018194E+03  0.11269415635E+02 -0.57223808569E+02  0.81089742718E+03  0.80000542826E+03 0.  0.
         22    1    5    5    0    0 -0.73924668967E+02  0.36570111507E+03  0.85727802636E+02  0.38282034741E+03  0.00000000000E+00 0.  1.
         22    1    5    5    0    0  0.19285485091E+03 -0.35443169943E+03 -0.14295161121E+03  0.42807707978E+03  0.00000000000E+00 0.  1.
          5    1    4    4  502    0 -0.10101783836E+03  0.36323997908E+02  0.86186372062E+02  0.13774693180E+03  0.47000000000E+01 0.  1.
         -5    1    4    4    0  502 -0.17912343581E+02 -0.47593413543E+02 -0.91077273935E+01  0.51875097720E+02  0.47000000000E+01 0.  1.
<mgrwt>
<rscale>  0 0.10003224E+04</rscale>
<asrwt>0</asrwt>
<pdfrwt beam="1">  1        2 0.78490331E-01 0.10003224E+04</pdfrwt>
<pdfrwt beam="2">  1       -2 0.75435739E-01 0.10003224E+04</pdfrwt>
<totfact> 0.11452398E+02</totfact>
</mgrwt>
</event>
<event>
 9    1  0.4321150E-036  0.1000125E+04  0.7818608E-02  0.8680919E-01
          3   -1    0    0  501    0  0.00000000000E+00  0.00000000000E+00  0.27502855167E+03  0.27502855167E+03  0.00000000000E+00 0. -1.
         -3   -1    0    0    0  501 -0.00000000000E+00 -0.00000000000E+00 -0.90922440803E+03  0.90922440803E+03  0.00000000000E+00 0. -1.
         36    2    1    2    0    0  0.14210854715E-13  0.00000000000E+00 -0.63419585636E+03  0.11842529597E+04  0.10001253363E+04 0.  0.
         25    2    3    3    0    0 -0.12395814250E+02 -0.13410414383E+03 -0.15901267911E+03  0.24292998176E+03  0.12486939703E+03 0.  0.
         35    2    3    3    0    0  0.12395814250E+02  0.13410414383E+03 -0.47518317725E+03  0.94132297795E+03  0.80134407046E+03 0.  0.
         22    1    5    5    0    0  0.26717062727E+03  0.11063196200E+03  0.10467080148E+03  0.30753138340E+03  0.00000000000E+00 0. -1.
         22    1    5    5    0    0 -0.25477481302E+03  0.23472181829E+02 -0.57985397873E+03  0.63379159455E+03  0.00000000000E+00 0. -1.
          5    1    4    4  502    0 -0.66031776869E+01 -0.26070958146E+02  0.19908679957E+02  0.33789678185E+02  0.47000000000E+01 0. -1.
         -5    1    4    4    0  502 -0.57926365634E+01 -0.10803318568E+03 -0.17892135907E+03  0.20914030357E+03  0.47000000000E+01 0. -1.
<mgrwt>
<rscale>  0 0.10001253E+04</rscale>
<asrwt>0</asrwt>
<pdfrwt beam="1">  1        3 0.42312085E-01 0.10001253E+04</pdfrwt>
<pdfrwt beam="2">  1       -3 0.13988068E+00 0.10001253E+04</pdfrwt>
<totfact> 0.70912563E+00</totfact>
</mgrwt>
</event>
<event>
 9    1  0.4321150E-036  0.1005725E+04  0.7818608E-02  0.8675605E-01
         -1   -1    0    0    0  501 -0.00000000000E+00  0.00000000000E+00  0.54271764981E+03  0.54271764981E+03  0.00000000000E+00 0.  1.
          1   -1    0    0  501    0  0.00000000000E+00 -0.00000000000E+00 -0.46593416648E+03  0.46593416648E+03  0.00000000000E+00 0.  1.
         36    2    1    2    0    0  0.00000000000E+00 -0.42632564146E-13  0.76783483330E+02  0.10086518163E+04  0.10057250038E+04 0.  0.
         25    2    3    3    0    0  0.13995676539E+03 -0.22883764893E+01 -0.20999034064E+02  0.18864586911E+03  0.12471235567E+03 0.  0.
         35    2    3    3    0    0 -0.13995676539E+03  0.22883764893E+01  0.97782517395E+02  0.82000594718E+03  0.80203191948E+03 0.  0.
         22    1    5    5    0    0 -0.99911073826E+02 -0.38964492270E+03 -0.36192539162E+02  0.40387533763E+03  0.00000000000E+00 0. -1.
         22    1    5    5    0    0 -0.40045691564E+02  0.39193329919E+03  0.13397505656E+03  0.41613060955E+03  0.00000000000E+00 0. -1.
          5    1    4    4  502    0  0.36428248949E+02  0.22452328039E+02 -0.61150923678E+02  0.74784021171E+02  0.47000000000E+01 0.  1.
         -5    1    4    4    0  502  0.10352851644E+03 -0.24740704528E+02  0.40151889613E+02  0.11386184794E+03  0.47000000000E+01 0.  1.
<mgrwt>
<rscale>  0 0.10057250E+04</rscale>
<asrwt>0</asrwt>
<pdfrwt beam="1">  1        1 0.71682180E-01 0.10057250E+04</pdfrwt>
<pdfrwt beam="2">  1       -1 0.83495023E-01 0.10057250E+04</pdfrwt>
<totfact> 0.82318240E+01</totfact>
</mgrwt>
</event>
<event>
 9    1  0.4321150E-036  0.9982768E+03  0.7818608E-02  0.8682681E-01
         -1   -1    0    0    0  501 -0.00000000000E+00  0.00000000000E+00  0.16188293417E+03  0.16188293417E+03  0.00000000000E+00 0. -1.
          1   -1    0    0  501    0  0.00000000000E+00 -0.00000000000E+00 -0.15390080027E+04  0.15390080027E+04  0.00000000000E+00 0. -1.
         36    2    1    2    0    0  0.00000000000E+00  0.00000000000E+00 -0.13771250685E+04  0.17008909368E+04  0.99827677762E+03 0.  0.
         25    2    3    3    0    0 -0.77165422821E+02  0.68789048750E+02 -0.36716524701E+03  0.40207331625E+03  0.12714636182E+03 0.  0.
         35    2    3    3    0    0  0.77165422821E+02 -0.68789048750E+02 -0.10099598215E+04  0.12988176206E+04  0.81007526491E+03 0.  0.
         22    1    5    5    0    0 -0.11493484339E+03 -0.46257055427E+02 -0.10844853742E+04  0.10915393993E+04  0.00000000000E+00 0. -1.
         22    1    5    5    0    0  0.19210026621E+03 -0.22531993323E+02  0.74525552718E+02  0.20727822126E+03  0.00000000000E+00 0. -1.
          5    1    4    4  502    0 -0.22510484173E+01  0.22720067428E+02  0.11853834684E+01  0.23340176025E+02  0.47000000000E+01 0.  1.
         -5    1    4    4    0  502 -0.74914374404E+02  0.46068981322E+02 -0.36835063048E+03  0.37873314023E+03  0.47000000000E+01 0.  1.
<mgrwt>
<rscale>  0 0.99827678E+03</rscale>
<asrwt>0</asrwt>
<pdfrwt beam="1">  1        1 0.23677045E+00 0.99827678E+03</pdfrwt>
<pdfrwt beam="2">  1       -1 0.24905068E-01 0.99827678E+03</pdfrwt>
<totfact> 0.93321045E+01</totfact>
</mgrwt>
</event>
<event>
 9    1  0.4321150E-036  0.1002312E+04  0.7818608E-02  0.8678839E-01
         -2   -1    0    0    0  501 -0.00000000000E+00  0.00000000000E+00  0.66261012183E+03  0.66261012183E+03  0.00000000000E+00 0. -1.
          2   -1    0    0  501    0  0.00000000000E+00 -0.00000000000E+00 -0.37904266500E+03  0.37904266500E+03  0.00000000000E+00 0. -1.
         36    2    1    2    0    0  0.00000000000E+00  0.00000000000E+00  0.28356745683E+03  0.10416527868E+04  0.10023123394E+04 0.  0.
         25    2    3    3    0    0  0.67144709128E+02 -0.66136404961E+02 -0.56705283064E+02  0.16722851970E+03  0.12596607737E+03 0.  0.
         35    2    3    3    0    0 -0.67144709128E+02  0.66136404961E+02  0.34027273989E+03  0.87442426714E+03  0.79996864027E+03 0.  0.
         22    1    5    5    0    0  0.12301008845E+03  0.21361038869E+03 -0.17730455124E+03  0.30364087984E+03  0.00000000000E+00 0.  1.
         22    1    5    5    0    0 -0.19015479758E+03 -0.14747398373E+03  0.51757729113E+03  0.57078338730E+03  0.00000000000E+00 0.  1.
          5    1    4    4  502    0  0.50901890291E+01  0.20587842502E+01 -0.73104460961E+02  0.73460879585E+02  0.47000000000E+01 0.  1.
         -5    1    4    4    0  502  0.62054520099E+02 -0.68195189211E+02  0.16399177897E+02  0.93767640111E+02  0.47000000000E+01 0.  1.
<mgrwt>
<rscale>  0 0.10023123E+04</rscale>
<asrwt>0</asrwt>
<pdfrwt beam="1">  1        2 0.58314256E-01 0.10023123E+04</pdfrwt>
<pdfrwt beam="2">  1       -2 0.10194002E+00 0.10023123E+04</pdfrwt>
<totfact> 0.79075454E+01</totfact>
</mgrwt>
</event>
<event>
 9    1  0.4321150E-036  0.1001826E+04  0.7818608E-02  0.8679301E-01
          1   -1    0    0  501    0  0.00000000000E+00  0.00000000000E+00  0.18140055242E+04  0.18140055242E+04  0.00000000000E+00 0. -1.
         -1   -1    0    0    0  501 -0.00000000000E+00 -0.00000000000E+00 -0.13832023425E+03  0.13832023425E+03  0.00000000000E+00 0. -1.
         36    2    1    2    0    0 -0.46185277824E-13 -0.71054273576E-14  0.16756852899E+04  0.19523257584E+04  0.10018256716E+04 0.  0.
         25    2    3    3    0    0  0.11613994221E+02  0.56613377542E+02  0.66418559199E+02  0.15389851992E+03  0.12622745363E+03 0.  0.
         35    2    3    3    0    0 -0.11613994221E+02 -0.56613377542E+02  0.16092667307E+04  0.17984272385E+04  0.80078783847E+03 0.  0.
         22    1    5    5    0    0  0.33537617908E+03 -0.45215583591E+02  0.12650564501E+04  0.13095378775E+04  0.00000000000E+00 0.  1.
         22    1    5    5    0    0 -0.34699017331E+03 -0.11397793951E+02  0.34421028058E+03  0.48888936104E+03  0.00000000000E+00 0.  1.
          5    1    4    4  502    0 -0.10390388242E+02  0.94117080794E+02  0.40799727380E+02  0.10321188313E+03  0.47000000000E+01 0. -1.
         -5    1    4    4    0  502  0.22004382463E+02 -0.37503703252E+02  0.25618831819E+02  0.50686636789E+02  0.47000000000E+01 0. -1.
<mgrwt>
<rscale>  0 0.10018257E+04</rscale>
<asrwt>0</asrwt>
<pdfrwt beam="1">  1        1 0.27907776E+00 0.10018257E+04</pdfrwt>
<pdfrwt beam="2">  1       -1 0.21280037E-01 0.10018257E+04</pdfrwt>
<totfact> 0.77598443E+01</totfact>
</mgrwt>
</event>
<event>
 9    1  0.4321150E-036  0.1001219E+04  0.7818608E-02  0.8679878E-01
         -2   -1    0    0    0  501 -0.00000000000E+00  0.00000000000E+00  0.97629626185E+02  0.97629626185E+02  0.00000000000E+00 0. -1.
          2   -1    0    0  501    0  0.00000000000E+00 -0.00000000000E+00 -0.25669446302E+04  0.25669446302E+04  0.00000000000E+00 0. -1.
         36    2    1    2    0    0  0.00000000000E+00  0.00000000000E+00 -0.24693150040E+04  0.26645742564E+04  0.10012189464E+04 0.  0.
         25    2    3    3    0    0  0.97166907519E+02  0.56736156354E+02 -0.69931968982E+03  0.71918401570E+03  0.12456813602E+03 0.  0.
         35    2    3    3    0    0 -0.97166907519E+02 -0.56736156354E+02 -0.17699953142E+04  0.19453902407E+04  0.79937436594E+03 0.  0.
         22    1    5    5    0    0  0.15565903927E+03 -0.36607583801E+03 -0.73093059065E+03  0.83216631993E+03  0.00000000000E+00 0.  1.
         22    1    5    5    0    0 -0.25282594679E+03  0.30933968166E+03 -0.10390647235E+04  0.11132239207E+04  0.00000000000E+00 0.  1.
          5    1    4    4  502    0 -0.25058179191E+02  0.31499860537E+02 -0.12360920588E+03  0.13008258660E+03  0.47000000000E+01 0. -1.
         -5    1    4    4    0  502  0.12222508671E+03  0.25236295817E+02 -0.57571048394E+03  0.58910142910E+03  0.47000000000E+01 0. -1.
<mgrwt>
<rscale>  0 0.10012189E+04</rscale>
<asrwt>0</asrwt>
<pdfrwt beam="1">  1        2 0.39491459E+00 0.10012189E+04</pdfrwt>
<pdfrwt beam="2">  1       -2 0.15019941E-01 0.10012189E+04</pdfrwt>
<totfact> 0.12643647E+02</totfact>
</mgrwt>
</event>
<event>
 9    1  0.4321150E-036  0.9987660E+03  0.7818608E-02  0.8682214E-01
         -2   -1    0    0    0  501 -0.00000000000E+00  0.00000000000E+00  0.11895724763E+03  0.11895724763E+03  0.00000000000E+00 0.  1.
          2   -1    0    0  501    0  0.00000000000E+00 -0.00000000000E+00 -0.20964119688E+04  0.20964119688E+04  0.00000000000E+00 0.  1.
         36    2    1    2    0    0 -0.14210854715E-13 -0.28421709430E-13 -0.19774547212E+04  0.22153692165E+04  0.99876603408E+03 0.  0.
         25    2    3    3    0    0  0.17776537730E+01 -0.12803946083E+03 -0.26152431398E+03  0.31700129138E+03  0.12529001698E+03 0.  0.
         35    2    3    3    0    0 -0.17776537730E+01  0.12803946083E+03 -0.17159304072E+04  0.18983679251E+04  0.80186429834E+03 0.  0.
         22    1    5    5    0    0  0.38666631760E+03  0.14686140138E+03 -0.10285322006E+04  0.11085836008E+04  0.00000000000E+00 0.  1.
         22    1    5    5    0    0 -0.38844397137E+03 -0.18821940551E+02 -0.68739820662E+03  0.78978432423E+03  0.00000000000E+00 0.  1.
          5    1    4    4  502    0 -0.46212180215E+02 -0.11411137434E+03 -0.21873765232E+03  0.25104824615E+03  0.47000000000E+01 0. -1.
         -5    1    4    4    0  502  0.47989833988E+02 -0.13928086491E+02 -0.42786661663E+02  0.65953045235E+02  0.47000000000E+01 0. -1.
<mgrwt>
<rscale>  0 0.99876603E+03</rscale>
<asrwt>0</asrwt>
<pdfrwt beam="1">  1        2 0.32252491E+00 0.99876603E+03</pdfrwt>
<pdfrwt beam="2">  1       -2 0.18301115E-01 0.99876603E+03</pdfrwt>
<totfact> 0.17202565E+02</totfact>
</mgrwt>
</event>
<event>
 9    1  0.4321150E-036  0.1000408E+04  0.7818608E-02  0.8680649E-01
          2   -1    0    0  501    0  0.00000000000E+00  0.00000000000E+00  0.88094410881E+03  0.88094410881E+03  0.00000000000E+00 0.  1.
         -2   -1    0    0    0  501 -0.00000000000E+00 -0.00000000000E+00 -0.28401814193E+03  0.28401814193E+03  0.00000000000E+00 0.  1.
         36    2    1    2    0    0  0.00000000000E+00 -0.14210854715E-13  0.59692596688E+03  0.11649622507E+04  0.10004081346E+04 0.  0.
         25    2    3    3    0    0  0.10600166924E+03  0.81524896079E+02  0.16659623243E+03  0.24760695840E+03  0.12518881192E+03 0.  0.
         35    2    3    3    0    0 -0.10600166924E+03 -0.81524896079E+02  0.43032973445E+03  0.91735529233E+03  0.79904592449E+03 0.  0.
         22    1    5    5    0    0  0.22394728736E+03 -0.23852977208E+03  0.44420237338E+03  0.55169247612E+03  0.00000000000E+00 0. -1.
         22    1    5    5    0    0 -0.32994895660E+03  0.15700487600E+03 -0.13872638926E+02  0.36566281621E+03  0.00000000000E+00 0. -1.
          5    1    4    4  502    0  0.15241146900E+02  0.31954796972E+02  0.13459373615E+03  0.13925144674E+03  0.47000000000E+01 0. -1.
         -5    1    4    4    0  502  0.90760522336E+02  0.49570099107E+02  0.32002496275E+02  0.10835551166E+03  0.47000000000E+01 0. -1.
<mgrwt>
<rscale>  0 0.10004081E+04</rscale>
<asrwt>0</asrwt>
<pdfrwt beam="1">  1        2 0.13552986E+00 0.10004081E+04</pdfrwt>
<pdfrwt beam="2">  1       -2 0.43695099E-01 0.10004081E+04</pdfrwt>
<totfact> 0.18155641E+02</totfact>
</mgrwt>
</event>
<event>
 9    1  0.4321150E-036  0.9911535E+03  0.7818608E-02  0.8689508E-01
          1   -1    0    0  501    0  0.00000000000E+00  0.00000000000E+00  0.15700300271E+04  0.15700300271E+04  0.00000000000E+00 0.  1.
         -1   -1    0    0    0  501 -0.00000000000E+00 -0.00000000000E+00 -0.15642779109E+03  0.15642779109E+03  0.00000000000E+00 0.  1.
         36    2    1    2    0    0  0.00000000000E+00 -0.21316282073E-13  0.14136022360E+04  0.17264578181E+04  0.99115352811E+03 0.  0.
         25    2    3    3    0    0 -0.12775186181E+03  0.35396679249E+02  0.25765433154E+03  0.31431167850E+03  0.12178921784E+03 0.  0.
         35    2    3    3    0    0  0.12775186181E+03 -0.35396679249E+02  0.11559479044E+04  0.14121461396E+04  0.80022977879E+03 0.  0.
         22    1    5    5    0    0 -0.15198271827E+03  0.11649339679E+03 -0.21253659828E+02  0.19266856569E+03  0.00000000000E+00 0.  1.
         22    1    5    5    0    0  0.27973458008E+03 -0.15189007604E+03  0.11772015642E+04  0.12194775739E+04  0.00000000000E+00 0.  1.
          5    1    4    4  502    0 -0.84078261754E+02 -0.26245320353E+02  0.72134358313E+02  0.11394484012E+03  0.47000000000E+01 0.  1.
         -5    1    4    4    0  502 -0.43673600060E+02  0.61641999602E+02  0.18551997323E+03  0.20036683839E+03  0.47000000000E+01 0.  1.
<mgrwt>
<rscale>  0 0.99115353E+03</rscale>
<asrwt>0</asrwt>
<pdfrwt beam="1">  1        1 0.24154307E+00 0.99115353E+03</pdfrwt>
<pdfrwt beam="2">  1       -1 0.24065815E-01 0.99115353E+03</pdfrwt>
<totfact> 0.94004032E+01</totfact>
</mgrwt>
</event>
<event>
 9    1  0.4321150E-036  0.9988723E+03  0.7818608E-02  0.8682113E-01
          2   -1    0    0  501    0  0.00000000000E+00  0.00000000000E+00  0.10841695425E+04  0.10841695425E+04  0.00000000000E+00 0. -1.
         -2   -1    0    0    0  501 -0.00000000000E+00 -0.00000000000E+00 -0.23007145847E+03  0.23007145847E+03  0.00000000000E+00 0. -1.
         36    2    1    2    0    0  0.00000000000E+00 -0.35527136788E-14  0.85409808405E+03  0.13142410010E+04  0.99887229991E+03 0.  0.
         25    2    3    3    0    0  0.13212283542E+03  0.16933973043E+02  0.10569492635E+03  0.21054191011E+03  0.12415021294E+03 0.  0.
         35    2    3    3    0    0 -0.13212283542E+03 -0.16933973043E+02  0.74840315770E+03  0.11036990909E+04  0.80018822392E+03 0.  0.
         22    1    5    5    0    0  0.28500614256E+03 -0.39519779203E+02  0.59093985856E+03  0.65726724449E+03  0.00000000000E+00 0. -1.
         22    1    5    5    0    0 -0.41712897798E+03  0.22585806160E+02  0.15746329915E+03  0.44643184641E+03  0.00000000000E+00 0. -1.
          5    1    4    4  502    0  0.72116864868E+02 -0.49138677567E+02  0.27033188038E+02  0.91478604531E+02  0.47000000000E+01 0. -1.
         -5    1    4    4    0  502  0.60005970551E+02  0.66072650610E+02  0.78661738313E+02  0.11906330558E+03  0.47000000000E+01 0. -1.
<mgrwt>
<rscale>  0 0.99887230E+03</rscale>
<asrwt>0</asrwt>
<pdfrwt beam="1">  1        2 0.16679531E+00 0.99887230E+03</pdfrwt>
<pdfrwt beam="2">  1       -2 0.35395610E-01 0.99887230E+03</pdfrwt>
<totfact> 0.20165397E+02</totfact>
</mgrwt>
</event>
<event>
 9    1  0.4321150E-036  0.1000628E+04  0.7818608E-02  0.8680440E-01
          2   -1    0    0  501    0  0.00000000000E+00  0.00000000000E+00  0.93697647860E+03  0.93697647860E+03  0.00000000000E+00 0.  1.
         -2   -1    0    0    0  501 -0.00000000000E+00 -0.00000000000E+00 -0.26715072620E+03  0.26715072620E+03  0.00000000000E+00 0.  1.
         36    2    1    2    0    0  0.00000000000E+00  0.00000000000E+00  0.66982575240E+03  0.12041272048E+04  0.10006276964E+04 0.  0.
         25    2    3    3    0    0  0.12398428858E+03  0.62409883797E+02  0.10453716926E+03  0.21368476718E+03  0.12436262524E+03 0.  0.
         35    2    3    3    0    0 -0.12398428858E+03 -0.62409883797E+02  0.56528858314E+03  0.99044243763E+03  0.80134757915E+03 0.  0.
         22    1    5    5    0    0  0.15195910790E+03 -0.53191159015E+02  0.67456078364E+03  0.69350783751E+03  0.00000000000E+00 0. -1.
         22    1    5    5    0    0 -0.27594339647E+03 -0.92187247824E+01 -0.10927220050E+03  0.29693460012E+03  0.00000000000E+00 0. -1.
          5    1    4    4  502    0  0.96815772760E+02  0.98762682077E+02  0.63250165258E+02  0.15215135435E+03  0.47000000000E+01 0.  1.
         -5    1    4    4    0  502  0.27168515816E+02 -0.36352798280E+02  0.41287004000E+02  0.61533412824E+02  0.47000000000E+01 0.  1.
<mgrwt>
<rscale>  0 0.10006277E+04</rscale>
<asrwt>0</asrwt>
<pdfrwt beam="1">  1        2 0.14415023E+00 0.10006277E+04</pdfrwt>
<pdfrwt beam="2">  1       -2 0.41100112E-01 0.10006277E+04</pdfrwt>
<totfact> 0.18781439E+02</totfact>
</mgrwt>
</event>
<event>
 9    1  0.4321150E-036  0.9988757E+03  0.7818608E-02  0.8682109E-01
          2   -1    0    0  501    0  0.00000000000E+00  0.00000000000E+00  0.10335013239E+04  0.10335013239E+04  0.00000000000E+00 0.  1.
         -2   -1    0    0    0  501 -0.00000000000E+00 -0.00000000000E+00 -0.24135255777E+03  0.24135255777E+03  0.00000000000E+00 0.  1.
         36    2    1    2    0    0  0.00000000000E+00  0.42632564146E-13  0.79214876613E+03  0.12748538817E+04  0.99887574398E+03 0.  0.
         25    2    3    3    0    0  0.33500678728E+02 -0.11838013441E+03  0.64975678363E+02  0.18681144030E+03  0.12466163704E+03 0.  0.
         35    2    3    3    0    0 -0.33500678728E+02  0.11838013441E+03  0.72717308777E+03  0.10880424414E+04  0.79994968776E+03 0.  0.
         22    1    5    5    0    0 -0.24691337914E+03 -0.26850491174E+03  0.28458403438E+03  0.46265448993E+03  0.00000000000E+00 0. -1.
         22    1    5    5    0    0  0.21341270041E+03  0.38688504615E+03  0.44258905339E+03  0.62538795145E+03  0.00000000000E+00 0. -1.
          5    1    4    4  502    0  0.49764682072E+02 -0.15160216051E+02 -0.15890777740E+02  0.54598191817E+02  0.47000000000E+01 0.  1.
         -5    1    4    4    0  502 -0.16264003344E+02 -0.10321991836E+03  0.80866456103E+02  0.13221324848E+03  0.47000000000E+01 0.  1.
<mgrwt>
<rscale>  0 0.99887574E+03</rscale>
<asrwt>0</asrwt>
<pdfrwt beam="1">  1        2 0.15900020E+00 0.99887574E+03</pdfrwt>
<pdfrwt beam="2">  1       -2 0.37131163E-01 0.99887574E+03</pdfrwt>
<totfact> 0.19802550E+02</totfact>
</mgrwt>
</event>
<event>
 9    1  0.4321150E-036  0.9997566E+03  0.7818608E-02  0.8681270E-01
          2   -1    0    0  501    0  0.00000000000E+00  0.00000000000E+00  0.24898686010E+04  0.24898686010E+04  0.00000000000E+00 0. -1.
         -2   -1    0    0    0  501 -0.00000000000E+00 -0.00000000000E+00 -0.10035803492E+03  0.10035803492E+03  0.00000000000E+00 0. -1.
         36    2    1    2    0    0  0.14210854715E-13  0.00000000000E+00  0.23895105661E+04  0.25902266359E+04  0.99975661037E+03 0.  0.
         25    2    3    3    0    0  0.94150013813E+02 -0.33129770440E+02  0.18862514155E+03  0.24725679693E+03  0.12487863234E+03 0.  0.
         35    2    3    3    0    0 -0.94150013813E+02  0.33129770440E+02  0.22008854245E+04  0.23429698390E+04  0.79727611758E+03 0.  0.
         22    1    5    5    0    0 -0.35192931550E+03  0.18161718824E+03  0.18040610926E+04  0.18470179945E+04  0.00000000000E+00 0. -1.
         22    1    5    5    0    0  0.25777930169E+03 -0.14848741780E+03  0.39682433190E+03  0.49595184445E+03  0.00000000000E+00 0. -1.
          5    1    4    4  502    0 -0.56105566111E+00 -0.66049478237E+01 -0.17237463283E+02  0.19056764144E+02  0.47000000000E+01 0.  1.
         -5    1    4    4    0  502  0.94711069474E+02 -0.26524822617E+02  0.20586260484E+03  0.22820003279E+03  0.47000000000E+01 0.  1.
<mgrwt>
<rscale>  0 0.99975661E+03</rscale>
<asrwt>0</asrwt>
<pdfrwt beam="1">  1        2 0.38305666E+00 0.99975661E+03</pdfrwt>
<pdfrwt beam="2">  1       -2 0.15439699E-01 0.99975661E+03</pdfrwt>
<totfact> 0.13455817E+02</totfact>
</mgrwt>
</event>
<event>
 9    1  0.4321150E-036  0.1000145E+04  0.7818608E-02  0.8680900E-01
          2   -1    0    0  501    0  0.00000000000E+00  0.00000000000E+00  0.14780434925E+04  0.14780434925E+04  0.00000000000E+00 0. -1.
         -2   -1    0    0    0  501 -0.00000000000E+00 -0.00000000000E+00 -0.16919163331E+03  0.16919163331E+03  0.00000000000E+00 0. -1.
         36    2    1    2    0    0  0.56843418861E-13 -0.17763568394E-13  0.13088518592E+04  0.16472351258E+04  0.10001451747E+04 0.  0.
         25    2    3    3    0    0 -0.12808695705E+03  0.17239824122E+02  0.15742252171E+03  0.23934979980E+03  0.12570996865E+03 0.  0.
         35    2    3    3    0    0  0.12808695705E+03 -0.17239824122E+02  0.11514293375E+04  0.14078853260E+04  0.79978002721E+03 0.  0.
         22    1    5    5    0    0  0.31005169843E+03  0.11464194162E+03  0.11908478017E+03  0.35136308193E+03  0.00000000000E+00 0.  1.
         22    1    5    5    0    0 -0.18196474138E+03 -0.13188176575E+03  0.10323445573E+04  0.10565222441E+04  0.00000000000E+00 0.  1.
          5    1    4    4  502    0  0.84795290138E+01 -0.74867025004E+01 -0.14088676534E+02  0.18669063530E+02  0.47000000000E+01 0.  1.
         -5    1    4    4    0  502 -0.13656648607E+03  0.24726526623E+02  0.17151119825E+03  0.22068073627E+03  0.47000000000E+01 0.  1.
<mgrwt>
<rscale>  0 0.10001452E+04</rscale>
<asrwt>0</asrwt>
<pdfrwt beam="1">  1        2 0.22739130E+00 0.10001452E+04</pdfrwt>
<pdfrwt beam="2">  1       -2 0.26029483E-01 0.10001452E+04</pdfrwt>
<totfact> 0.20816061E+02</totfact>
</mgrwt>
</event>
<event>
 9    1  0.4321150E-036  0.1000247E+04  0.7818608E-02  0.8680803E-01
         -1   -1    0    0    0  501 -0.00000000000E+00  0.00000000000E+00  0.10459903191E+04  0.10459903191E+04  0.00000000000E+00 0.  1.
          1   -1    0    0  501    0  0.00000000000E+00 -0.00000000000E+00 -0.23912616324E+03  0.23912616324E+03  0.00000000000E+00 0.  1.
         36    2    1    2    0    0 -0.35527136788E-13 -0.14210854715E-13  0.80686415586E+03  0.12851164823E+04  0.10002472730E+04 0.  0.
         25    2    3    3    0    0  0.21687202063E+02 -0.99914383367E+02  0.27795111623E+03  0.32037472611E+03  0.12218806562E+03 0.  0.
         35    2    3    3    0    0 -0.21687202063E+02  0.99914383367E+02  0.52891303963E+03  0.96474175623E+03  0.80032770413E+03 0.  0.
         22    1    5    5    0    0 -0.37963256966E+03  0.20781296001E+03  0.27339279663E+03  0.51190891333E+03  0.00000000000E+00 0. -1.
         22    1    5    5    0    0  0.35794536760E+03 -0.10789857665E+03  0.25552024299E+03  0.45283284290E+03  0.00000000000E+00 0. -1.
          5    1    4    4  502    0  0.22511247005E+02 -0.10991202878E+03  0.12906402737E+03  0.17107607510E+03  0.47000000000E+01 0. -1.
         -5    1    4    4    0  502 -0.82404494165E+00  0.99976454094E+01  0.14888708886E+03  0.14929865101E+03  0.47000000000E+01 0. -1.
<mgrwt>
<rscale>  0 0.10002473E+04</rscale>
<asrwt>0</asrwt>
<pdfrwt beam="1">  1        1 0.36788641E-01 0.10002473E+04</pdfrwt>
<pdfrwt beam="2">  1       -1 0.16092159E+00 0.10002473E+04</pdfrwt>
<totfact> 0.39109856E+01</totfact>
</mgrwt>
</event>
<event>
 9    1  0.4321150E-036  0.1000322E+04  0.7818608E-02  0.8680731E-01
          1   -1    0    0  501    0  0.00000000000E+00  0.00000000000E+00  0.27202868098E+03  0.27202868098E+03  0.00000000000E+00 0.  1.
         -1   -1    0    0    0  501 -0.00000000000E+00 -0.00000000000E+00 -0.91961359579E+03  0.91961359579E+03  0.00000000000E+00 0.  1.
         36    2    1    2    0    0  0.28421709430E-13  0.21316282073E-13 -0.64758491481E+03  0.11916422768E+04  0.10003224950E+04 0.  0.
         25    2    3    3    0    0  0.84502845351E+02 -0.58268616140E+02 -0.23863495636E+03  0.28820887185E+03  0.12482687578E+03 0.  0.
         35    2    3    3    0    0 -0.84502845351E+02  0.58268616140E+02 -0.40894995846E+03  0.90343340493E+03  0.79900931541E+03 0.  0.
         22    1    5    5    0    0 -0.42674979506E+03 -0.74472856021E+02 -0.27264707949E+03  0.51185742529E+03  0.00000000000E+00 0. -1.
         22    1    5    5    0    0  0.34224694971E+03  0.13274147216E+03 -0.13630287897E+03  0.39157597964E+03  0.00000000000E+00 0. -1.
          5    1    4    4  502    0  0.84151915633E+01 -0.17234271566E+02 -0.18567057533E+03  0.18671766952E+03  0.47000000000E+01 0.  1.
         -5    1    4    4    0  502  0.76087653787E+02 -0.41034344574E+02 -0.52964381023E+02  0.10149120233E+03  0.47000000000E+01 0.  1.
<mgrwt>
<rscale>  0 0.10003225E+04</rscale>
<asrwt>0</asrwt>
<pdfrwt beam="1">  1        1 0.41850566E-01 0.10003225E+04</pdfrwt>
<pdfrwt beam="2">  1       -1 0.14147902E+00 0.10003225E+04</pdfrwt>
<totfact> 0.48194888E+01</totfact>
</mgrwt>
</event>
<event>
 9    1  0.4321150E-036  0.9998171E+03  0.7818608E-02  0.8681212E-01
          2   -1    0    0  501    0  0.00000000000E+00  0.00000000000E+00  0.55407683434E+03  0.55407683434E+03  0.00000000000E+00 0.  1.
         -2   -1    0    0    0  501 -0.00000000000E+00 -0.00000000000E+00 -0.45103588149E+03  0.45103588149E+03  0.00000000000E+00 0.  1.
         36    2    1    2    0    0  0.14210854715E-13  0.21316282073E-13  0.10304095284E+03  0.10051127158E+04  0.99981705004E+03 0.  0.
         25    2    3    3    0    0 -0.35170538993E+02 -0.36676320987E+02  0.15070438384E+03  0.20193007469E+03  0.12442597968E+03 0.  0.
         35    2    3    3    0    0  0.35170538993E+02  0.36676320987E+02 -0.47663431001E+02  0.80318264114E+03  0.80015525558E+03 0.  0.
         22    1    5    5    0    0 -0.15013277531E+03 -0.31152277784E+03 -0.17648392315E+03  0.38824330833E+03  0.00000000000E+00 0. -1.
         22    1    5    5    0    0  0.18530331430E+03  0.34819909882E+03  0.12882049215E+03  0.41493933281E+03  0.00000000000E+00 0. -1.
          5    1    4    4  502    0 -0.63719600330E+02 -0.65920958855E+02  0.89701046379E+02  0.12835157967E+03  0.47000000000E+01 0.  1.
         -5    1    4    4    0  502  0.28549061337E+02  0.29244637868E+02  0.61003337465E+02  0.73578495019E+02  0.47000000000E+01 0.  1.
<mgrwt>
<rscale>  0 0.99981705E+03</rscale>
<asrwt>0</asrwt>
<pdfrwt beam="1">  1        2 0.85242590E-01 0.99981705E+03</pdfrwt>
<pdfrwt beam="2">  1       -2 0.69390135E-01 0.99981705E+03</pdfrwt>
<totfact> 0.12507153E+02</totfact>
</mgrwt>
</event>
<event>
 9    1  0.4321150E-036  0.9999903E+03  0.7818608E-02  0.8681047E-01
         -2   -1    0    0    0  501 -0.00000000000E+00  0.00000000000E+00  0.83433459999E+02  0.83433459999E+02  0.00000000000E+00 0. -1.
          2   -1    0    0  501    0  0.00000000000E+00 -0.00000000000E+00 -0.29963416344E+04  0.29963416344E+04  0.00000000000E+00 0. -1.
         36    2    1    2    0    0  0.00000000000E+00 -0.17763568394E-13 -0.29129081744E+04  0.30797750944E+04  0.99999029974E+03 0.  0.
         25    2    3    3    0    0 -0.13087408375E+03 -0.81771022111E+01 -0.70501380440E+03  0.72788489864E+03  0.12480813470E+03 0.  0.
         35    2    3    3    0    0  0.13087408375E+03  0.81771022111E+01 -0.22078943700E+04  0.23518901957E+04  0.79962181873E+03 0.  0.
         22    1    5    5    0    0  0.21325844773E+03 -0.25745813946E+03 -0.19299645395E+04  0.19587054355E+04  0.00000000000E+00 0. -1.
         22    1    5    5    0    0 -0.82384363988E+02  0.26563524167E+03 -0.27792983046E+03  0.39318476027E+03  0.00000000000E+00 0. -1.
          5    1    4    4  502    0 -0.23987636271E+02 -0.64430940359E+01 -0.14525657534E+02  0.29154843190E+02  0.47000000000E+01 0. -1.
         -5    1    4    4    0  502 -0.10688644748E+03 -0.17340081752E+01 -0.69048814686E+03  0.69873005545E+03  0.47000000000E+01 0. -1.
<mgrwt>
<rscale>  0 0.99999030E+03</rscale>
<asrwt>0</asrwt>
<pdfrwt beam="1">  1        2 0.46097562E+00 0.99999030E+03</pdfrwt>
<pdfrwt beam="2">  1       -2 0.12835917E-01 0.99999030E+03</pdfrwt>
<totfact> 0.87231660E+01</totfact>
</mgrwt>
</event>
<event>
 9    1  0.4321150E-036  0.9996082E+03  0.7818608E-02  0.8681411E-01
          2   -1    0    0  501    0  0.00000000000E+00  0.00000000000E+00  0.13465457320E+04  0.13465457320E+04  0.00000000000E+00 0.  1.
         -2   -1    0    0    0  501 -0.00000000000E+00 -0.00000000000E+00 -0.18551478124E+03  0.18551478124E+03  0.00000000000E+00 0.  1.
         36    2    1    2    0    0 -0.14210854715E-13  0.28421709430E-13  0.11610309507E+04  0.15320605132E+04  0.99960819703E+03 0.  0.
         25    2    3    3    0    0  0.12291943028E+02 -0.13572980771E+03  0.18691525802E+03  0.26329102931E+03  0.12574251416E+03 0.  0.
         35    2    3    3    0    0 -0.12291943028E+02  0.13572980771E+03  0.97411569272E+03  0.12687694839E+04  0.80143680220E+03 0.  0.
         22    1    5    5    0    0 -0.23065704160E+03 -0.13122578651E+03  0.86839883380E+03  0.90804152572E+03  0.00000000000E+00 0. -1.
         22    1    5    5    0    0  0.21836509857E+03  0.26695559422E+03  0.10571685892E+03  0.36072795819E+03  0.00000000000E+00 0. -1.
          5    1    4    4  502    0 -0.33903869545E+02 -0.11744767907E+03  0.82469052053E+02  0.14753529827E+03  0.47000000000E+01 0. -1.
         -5    1    4    4    0  502  0.46195812573E+02 -0.18282128645E+02  0.10444620597E+03  0.11575573104E+03  0.47000000000E+01 0. -1.
<mgrwt>
<rscale>  0 0.99960820E+03</rscale>
<asrwt>0</asrwt>
<pdfrwt beam="1">  1        2 0.20716088E+00 0.99960820E+03</pdfrwt>
<pdfrwt beam="2">  1       -2 0.28540736E-01 0.99960820E+03</pdfrwt>
<totfact> 0.20970339E+02</totfact>
</mgrwt>
</event>
<event>
 9    1  0.4321150E-036  0.1000169E+04  0.7818608E-02  0.8680877E-01
          2   -1    0    0  501    0  0.00000000000E+00  0.00000000000E+00  0.17695933963E+04  0.17695933963E+04  0.00000000000E+00 0.  1.
         -2   -1    0    0    0  501 -0.00000000000E+00 -0.00000000000E+00 -0.14132309476E+03  0.14132309476E+03  0.00000000000E+00 0.  1.
         36    2    1    2    0    0  0.14210854715E-13 -0.71054273576E-14  0.16282703016E+04  0.19109164911E+04  0.10001688162E+04 0.  0.
         25    2    3    3    0    0  0.12556973804E+03 -0.17527293982E+02  0.19230774917E+03  0.26241958782E+03  0.12572511497E+03 0.  0.
         35    2    3    3    0    0 -0.12556973804E+03  0.17527293982E+02  0.14359625524E+04  0.16484969033E+04  0.79967407301E+03 0.  0.
         22    1    5    5    0    0 -0.28455307823E+03 -0.24461368512E+03  0.32633170033E+03  0.49729135114E+03  0.00000000000E+00 0. -1.
         22    1    5    5    0    0  0.15898334019E+03  0.26214097910E+03  0.11096308521E+04  0.11512055521E+04  0.00000000000E+00 0. -1.
          5    1    4    4  502    0  0.50090352763E+02 -0.10763153029E+02  0.17783160311E+03  0.18512443914E+03  0.47000000000E+01 0.  1.
         -5    1    4    4    0  502  0.75479385276E+02 -0.67641409529E+01  0.14476146067E+02  0.77295148680E+02  0.47000000000E+01 0.  1.
<mgrwt>
<rscale>  0 0.10001688E+04</rscale>
<asrwt>0</asrwt>
<pdfrwt beam="1">  1        2 0.27224512E+00 0.10001688E+04</pdfrwt>
<pdfrwt beam="2">  1       -2 0.21742016E-01 0.10001688E+04</pdfrwt>
<totfact> 0.19578907E+02</totfact>
</mgrwt>
</event>
<event>
 9    1  0.4321150E-036  0.9992550E+03  0.7818608E-02  0.8681748E-01
         -2   -1    0    0    0  501 -0.00000000000E+00  0.00000000000E+00  0.56065043767E+03  0.56065043767E+03  0.00000000000E+00 0. -1.
          2   -1    0    0  501    0  0.00000000000E+00 -0.00000000000E+00 -0.44524645334E+03  0.44524645334E+03  0.00000000000E+00 0. -1.
         36    2    1    2    0    0  0.56843418861E-13  0.71054273576E-14  0.11540398433E+03  0.10058968910E+04  0.99925496033E+03 0.  0.
         25    2    3    3    0    0 -0.13512149981E+03 -0.14545607547E+02  0.50537637670E+02  0.19156036384E+03  0.12518756233E+03 0.  0.
         35    2    3    3    0    0  0.13512149981E+03  0.14545607547E+02  0.64866346659E+02  0.81433652718E+03  0.80029178563E+03 0.  0.
         22    1    5    5    0    0  0.40452365483E+03  0.46602631905E+02 -0.18339093251E+03  0.44659089416E+03  0.00000000000E+00 0.  1.
         22    1    5    5    0    0 -0.26940215502E+03 -0.32057024358E+02  0.24825727917E+03  0.36774563302E+03  0.00000000000E+00 0.  1.
          5    1    4    4  502    0 -0.85203910229E+02  0.52971300630E+02  0.32345278457E+02  0.10551763856E+03  0.47000000000E+01 0. -1.
         -5    1    4    4    0  502 -0.49917589578E+02 -0.67516908177E+02  0.18192359213E+02  0.86042725276E+02  0.47000000000E+01 0. -1.
<mgrwt>
<rscale>  0 0.99925496E+03</rscale>
<asrwt>0</asrwt>
<pdfrwt beam="1">  1        2 0.68499454E-01 0.99925496E+03</pdfrwt>
<pdfrwt beam="2">  1       -2 0.86253914E-01 0.99925496E+03</pdfrwt>
<totfact> 0.98289742E+01</totfact>
</mgrwt>
</event>
<event>
 9    1  0.4321150E-036  0.9989668E+03  0.7818608E-02  0.8682022E-01
         -2   -1    0    0    0  501 -0.00000000000E+00  0.00000000000E+00  0.31958359959E+03  0.31958359959E+03  0.00000000000E+00 0.  1.
          2   -1    0    0  501    0  0.00000000000E+00 -0.00000000000E+00 -0.78065227814E+03  0.78065227814E+03  0.00000000000E+00 0.  1.
         36    2    1    2    0    0  0.00000000000E+00  0.42632564146E-13 -0.46106867854E+03  0.11002358777E+04  0.99896679640E+03 0.  0.
         25    2    3    3    0    0 -0.10112943772E+02  0.12101664839E+03 -0.16108076968E+03  0.23729330949E+03  0.12495519016E+03 0.  0.
         35    2    3    3    0    0  0.10112943772E+02 -0.12101664839E+03 -0.29998790887E+03  0.86294256824E+03  0.79995614242E+03 0.  0.
         22    1    5    5    0    0  0.11741246365E+03  0.18290491314E+03 -0.45578567284E+03  0.50495591237E+03  0.00000000000E+00 0.  1.
         22    1    5    5    0    0 -0.10729951988E+03 -0.30392156152E+03  0.15579776397E+03  0.35798665587E+03  0.00000000000E+00 0.  1.
          5    1    4    4  502    0 -0.32132543686E+02  0.26715154721E+02  0.76026023786E+01  0.42732767502E+02  0.47000000000E+01 0.  1.
         -5    1    4    4    0  502  0.22019599914E+02  0.94301493665E+02 -0.16868337206E+03  0.19456054198E+03  0.47000000000E+01 0.  1.
<mgrwt>
<rscale>  0 0.99896680E+03</rscale>
<asrwt>0</asrwt>
<pdfrwt beam="1">  1        2 0.12010035E+00 0.99896680E+03</pdfrwt>
<pdfrwt beam="2">  1       -2 0.49166708E-01 0.99896680E+03</pdfrwt>
<totfact> 0.16865623E+02</totfact>
</mgrwt>
</event>
<event>
 9    1  0.4321150E-036  0.9997641E+03  0.7818608E-02  0.8681263E-01
         -2   -1    0    0    0  501 -0.00000000000E+00  0.00000000000E+00  0.55181913983E+03  0.55181913983E+03  0.00000000000E+00 0. -1.
          2   -1    0    0  501    0  0.00000000000E+00 -0.00000000000E+00 -0.45283327046E+03  0.45283327046E+03  0.00000000000E+00 0. -1.
         36    2    1    2    0    0 -0.28421709430E-13  0.42632564146E-13  0.98985869370E+02  0.10046524103E+04  0.99976410376E+03 0.  0.
         25    2    3    3    0    0 -0.11994203811E+03 -0.53741992097E+02  0.68111126937E+02  0.19335040898E+03  0.12438231715E+03 0.  0.
         35    2    3    3    0    0  0.11994203811E+03  0.53741992097E+02  0.30874742433E+02  0.81130200131E+03  0.79998962081E+03 0.  0.
         22    1    5    5    0    0 -0.34523336003E+02 -0.36085698407E+03 -0.34154244630E+02  0.36411006043E+03  0.00000000000E+00 0.  1.
         22    1    5    5    0    0  0.15446537411E+03  0.41459897616E+03  0.65028987063E+02  0.44719194089E+03  0.00000000000E+00 0.  1.
          5    1    4    4  502    0 -0.44956473622E+01  0.56168723899E+01 -0.29589182958E+02  0.30811845916E+02  0.47000000000E+01 0. -1.
         -5    1    4    4    0  502 -0.11544639074E+03 -0.59358864487E+02  0.97700309895E+02  0.16253856306E+03  0.47000000000E+01 0. -1.
<mgrwt>
<rscale>  0 0.99976410E+03</rscale>
<asrwt>0</asrwt>
<pdfrwt beam="1">  1        2 0.69666658E-01 0.99976410E+03</pdfrwt>
<pdfrwt beam="2">  1       -2 0.84895252E-01 0.99976410E+03</pdfrwt>
<totfact> 0.10007317E+02</totfact>
</mgrwt>
</event>
<event>
 9    1  0.4321150E-036  0.9997605E+03  0.7818608E-02  0.8681266E-01
          1   -1    0    0  501    0  0.00000000000E+00  0.00000000000E+00  0.19067305087E+04  0.19067305087E+04  0.00000000000E+00 0. -1.
         -1   -1    0    0    0  501 -0.00000000000E+00 -0.00000000000E+00 -0.13105169893E+03  0.13105169893E+03  0.00000000000E+00 0. -1.
         36    2    1    2    0    0  0.14210854715E-13 -0.28421709430E-13  0.17756788098E+04  0.20377822076E+04  0.99976051644E+03 0.  0.
         25    2    3    3    0    0  0.76178871402E+02 -0.98334231704E+02  0.45532779237E+03  0.48840068794E+03  0.12545513899E+03 0.  0.
         35    2    3    3    0    0 -0.76178871402E+02  0.98334231704E+02  0.13203510174E+04  0.15493815197E+04  0.80111387632E+03 0.  0.
         22    1    5    5    0    0  0.74307875525E+02  0.43532861697E+03  0.71383505161E+03  0.83940046821E+03  0.00000000000E+00 0.  1.
         22    1    5    5    0    0 -0.15048674693E+03 -0.33699438527E+03  0.60651596578E+03  0.70998105147E+03  0.00000000000E+00 0.  1.
          5    1    4    4  502    0  0.50627175668E+02 -0.87222066774E+01  0.31935599253E+03  0.32349579251E+03  0.47000000000E+01 0. -1.
         -5    1    4    4    0  502  0.25551695735E+02 -0.89612025027E+02  0.13597179983E+03  0.16490489542E+03  0.47000000000E+01 0. -1.
<mgrwt>
<rscale>  0 0.99976052E+03</rscale>
<asrwt>0</asrwt>
<pdfrwt beam="1">  1        1 0.29334313E+00 0.99976052E+03</pdfrwt>
<pdfrwt beam="2">  1       -1 0.20161801E-01 0.99976052E+03</pdfrwt>
<totfact> 0.73064092E+01</totfact>
</mgrwt>
</event>
<event>
 9    1  0.4321150E-036  0.1001364E+04  0.7818608E-02  0.8679741E-01
         -2   -1    0    0    0  501 -0.00000000000E+00  0.00000000000E+00  0.12472518250E+03  0.12472518250E+03  0.00000000000E+00 0. -1.
          2   -1    0    0  501    0  0.00000000000E+00 -0.00000000000E+00 -0.20098765412E+04  0.20098765412E+04  0.00000000000E+00 0. -1.
         36    2    1    2    0    0  0.42632564146E-13  0.28421709430E-13 -0.18851513587E+04  0.21346017237E+04  0.10013635072E+04 0.  0.
         25    2    3    3    0    0  0.66753502260E+02 -0.81741254047E+02 -0.15759212624E+03  0.22690978281E+03  0.12455965882E+03 0.  0.
         35    2    3    3    0    0 -0.66753502260E+02  0.81741254047E+02 -0.17275592324E+04  0.19076919409E+04  0.80230292096E+03 0.  0.
         22    1    5    5    0    0 -0.36385200541E+03  0.24529713898E+03 -0.70552503352E+03  0.83085771415E+03  0.00000000000E+00 0. -1.
         22    1    5    5    0    0  0.29709850315E+03 -0.16355588493E+03 -0.10220341989E+04  0.10768342267E+04  0.00000000000E+00 0. -1.
          5    1    4    4  502    0  0.53024817007E+02 -0.80756926936E+02 -0.34091228991E+02  0.10255542092E+03  0.47000000000E+01 0.  1.
         -5    1    4    4    0  502  0.13728685253E+02 -0.98432711058E+00 -0.12350089725E+03  0.12435436189E+03  0.47000000000E+01 0.  1.
<mgrwt>
<rscale>  0 0.10013635E+04</rscale>
<asrwt>0</asrwt>
<pdfrwt beam="1">  1        2 0.30921173E+00 0.10013635E+04</pdfrwt>
<pdfrwt beam="2">  1       -2 0.19188492E-01 0.10013635E+04</pdfrwt>
<totfact> 0.17773623E+02</totfact>
</mgrwt>
</event>
<event>
 9    1  0.4321150E-036  0.1000011E+04  0.7818608E-02  0.8681028E-01
          1   -1    0    0  501    0  0.00000000000E+00  0.00000000000E+00  0.60805368569E+03  0.60805368569E+03  0.00000000000E+00 0.  1.
         -1   -1    0    0    0  501 -0.00000000000E+00 -0.00000000000E+00 -0.41115665110E+03  0.41115665110E+03  0.00000000000E+00 0.  1.
         36    2    1    2    0    0  0.00000000000E+00  0.00000000000E+00  0.19689703458E+03  0.10192103368E+04  0.10000106341E+04 0.  0.
         25    2    3    3    0    0 -0.89237487431E+02 -0.81076976359E+02 -0.37010856257E+02  0.17760138540E+03  0.12504256617E+03 0.  0.
         35    2    3    3    0    0  0.89237487431E+02  0.81076976359E+02  0.23390789084E+03  0.84160895139E+03  0.79940973250E+03 0.  0.
         22    1    5    5    0    0  0.16484004144E+02  0.25957646263E+03 -0.22496745206E+03  0.34389244951E+03  0.00000000000E+00 0. -1.
         22    1    5    5    0    0  0.72753483288E+02 -0.17849948627E+03  0.45887534290E+03  0.49771650189E+03  0.00000000000E+00 0. -1.
          5    1    4    4  502    0 -0.38437917000E+02 -0.84880062265E+02  0.25603123817E+02  0.96745585856E+02  0.47000000000E+01 0. -1.
         -5    1    4    4    0  502 -0.50799570431E+02  0.38030859059E+01 -0.62613980074E+02  0.80855799539E+02  0.47000000000E+01 0. -1.
<mgrwt>
<rscale>  0 0.10000106E+04</rscale>
<asrwt>0</asrwt>
<pdfrwt beam="1">  1        1 0.93546721E-01 0.10000106E+04</pdfrwt>
<pdfrwt beam="2">  1       -1 0.63254869E-01 0.10000106E+04</pdfrwt>
<totfact> 0.98993079E+01</totfact>
</mgrwt>
</event>
<event>
 9    1  0.4321150E-036  0.9963911E+03  0.7818608E-02  0.8684482E-01
         -2   -1    0    0    0  501 -0.00000000000E+00  0.00000000000E+00  0.19299985064E+03  0.19299985064E+03  0.00000000000E+00 0. -1.
          2   -1    0    0  501    0  0.00000000000E+00 -0.00000000000E+00 -0.12860052727E+04  0.12860052727E+04  0.00000000000E+00 0. -1.
         36    2    1    2    0    0 -0.71054273576E-14  0.14210854715E-13 -0.10930054221E+04  0.14790051233E+04  0.99639113918E+03 0.  0.
         25    2    3    3    0    0  0.45491509344E+02  0.10211079384E+03 -0.31902153672E+03  0.36028510425E+03  0.12463756981E+03 0.  0.
         35    2    3    3    0    0 -0.45491509344E+02 -0.10211079384E+03 -0.77398388533E+03  0.11187200191E+04  0.79999208417E+03 0.  0.
         22    1    5    5    0    0 -0.25075371452E+03 -0.38230053819E+03 -0.38987791411E+03  0.60086264217E+03  0.00000000000E+00 0.  1.
         22    1    5    5    0    0  0.20526220517E+03  0.28018974435E+03 -0.38410597123E+03  0.51785737693E+03  0.00000000000E+00 0.  1.
          5    1    4    4  502    0  0.22613976700E+02  0.54937094940E+02 -0.30396496268E+02  0.66899277485E+02  0.47000000000E+01 0. -1.
         -5    1    4    4    0  502  0.22877532644E+02  0.47173698900E+02 -0.28862504045E+03  0.29338582676E+03  0.47000000000E+01 0. -1.
<mgrwt>
<rscale>  0 0.99639114E+03</rscale>
<asrwt>0</asrwt>
<pdfrwt beam="1">  1        2 0.19784697E+00 0.99639114E+03</pdfrwt>
<pdfrwt beam="2">  1       -2 0.29692284E-01 0.99639114E+03</pdfrwt>
<totfact> 0.21157462E+02</totfact>
</mgrwt>
</event>
<event>
 9    1  0.4321150E-036  0.1000334E+04  0.7818608E-02  0.8680720E-01
         -3   -1    0    0    0  501 -0.00000000000E+00  0.00000000000E+00  0.14388079673E+03  0.14388079673E+03  0.00000000000E+00 0.  1.
          3   -1    0    0  501    0  0.00000000000E+00 -0.00000000000E+00 -0.17387108666E+04  0.17387108666E+04  0.00000000000E+00 0.  1.
         36    2    1    2    0    0  0.00000000000E+00 -0.21316282073E-13 -0.15948300698E+04  0.18825916633E+04  0.10003341537E+04 0.  0.
         25    2    3    3    0    0 -0.90476248069E+02 -0.40943919866E+02 -0.48281202269E+03  0.50959291623E+03  0.12928702557E+03 0.  0.
         35    2    3    3    0    0  0.90476248069E+02  0.40943919866E+02 -0.11120180472E+04  0.13729987471E+04  0.79917398996E+03 0.  0.
         22    1    5    5    0    0  0.10805293614E+03 -0.36942690076E+03 -0.64438648188E+03  0.75059017449E+03  0.00000000000E+00 0. -1.
         22    1    5    5    0    0 -0.17576688076E+02  0.41037082062E+03 -0.46763156528E+03  0.62240857259E+03  0.00000000000E+00 0. -1.
          5    1    4    4  502    0  0.24536441767E+02 -0.25331643319E+02 -0.21131290043E+03  0.21428709951E+03  0.47000000000E+01 0. -1.
         -5    1    4    4    0  502 -0.11501268984E+03 -0.15612276547E+02 -0.27149912225E+03  0.29530581672E+03  0.47000000000E+01 0. -1.
<mgrwt>
<rscale>  0 0.10003342E+04</rscale>
<asrwt>0</asrwt>
<pdfrwt beam="1">  1        3 0.26749400E+00 0.10003342E+04</pdfrwt>
<pdfrwt beam="2">  1       -3 0.22135506E-01 0.10003342E+04</pdfrwt>
<totfact> 0.45943958E+00</totfact>
</mgrwt>
</event>
<event>
 9    1  0.4321150E-036  0.9972175E+03  0.7818608E-02  0.8683692E-01
          2   -1    0    0  501    0  0.00000000000E+00  0.00000000000E+00  0.12730744471E+04  0.12730744471E+04  0.00000000000E+00 0.  1.
         -2   -1    0    0    0  501 -0.00000000000E+00 -0.00000000000E+00 -0.19528369139E+03  0.19528369139E+03  0.00000000000E+00 0.  1.
         36    2    1    2    0    0  0.00000000000E+00  0.14210854715E-13  0.10777907557E+04  0.14683581385E+04  0.99721748369E+03 0.  0.
         25    2    3    3    0    0 -0.78630000840E+02 -0.51064926521E+02  0.34538029312E+03  0.37907150685E+03  0.12496942299E+03 0.  0.
         35    2    3    3    0    0  0.78630000840E+02  0.51064926521E+02  0.73241046255E+03  0.10892866316E+04  0.80083080384E+03 0.  0.
         22    1    5    5    0    0 -0.33347859909E+03 -0.11813459228E+03  0.39618917477E+03  0.53115875230E+03  0.00000000000E+00 0. -1.
         22    1    5    5    0    0  0.41210859993E+03  0.16919951880E+03  0.33622128778E+03  0.55812787930E+03  0.00000000000E+00 0. -1.
          5    1    4    4  502    0  0.33535383933E+02 -0.52263947172E+01  0.62031353316E+02  0.70865477995E+02  0.47000000000E+01 0. -1.
         -5    1    4    4    0  502 -0.11216538477E+03 -0.45838531804E+02  0.28334893980E+03  0.30820602886E+03  0.47000000000E+01 0. -1.
<mgrwt>
<rscale>  0 0.99721748E+03</rscale>
<asrwt>0</asrwt>
<pdfrwt beam="1">  1        2 0.19585760E+00 0.99721748E+03</pdfrwt>
<pdfrwt beam="2">  1       -2 0.30043646E-01 0.99721748E+03</pdfrwt>
<totfact> 0.21070944E+02</totfact>
</mgrwt>
</event>
<event>
 9    1  0.4321150E-036  0.1000259E+04  0.7818608E-02  0.8680791E-01
          2   -1    0    0  501    0  0.00000000000E+00  0.00000000000E+00  0.22719599224E+04  0.22719599224E+04  0.00000000000E+00 0. -1.
         -2   -1    0    0    0  501 -0.00000000000E+00 -0.00000000000E+00 -0.11009424887E+03  0.11009424887E+03  0.00000000000E+00 0. -1.
         36    2    1    2    0    0  0.14210854715E-13 -0.28421709430E-13  0.21618656735E+04  0.23820541713E+04  0.10002594086E+04 0.  0.
         25    2    3    3    0    0  0.73576542352E+02  0.47339891588E+02  0.17990592351E+03  0.24318401017E+03  0.13826694676E+03 0.  0.
         35    2    3    3    0    0 -0.73576542352E+02 -0.47339891588E+02  0.19819597500E+04  0.21388701611E+04  0.79934131784E+03 0.  0.
         22    1    5    5    0    0 -0.18208355443E+03 -0.35649687970E+03  0.61959464112E+03  0.73765978970E+03  0.00000000000E+00 0. -1.
         22    1    5    5    0    0  0.10850701208E+03  0.30915698811E+03  0.13623651089E+04  0.14012103714E+04  0.00000000000E+00 0. -1.
          5    1    4    4  502    0 -0.31537252652E+02  0.24328693003E+02  0.10386718307E+03  0.11134166034E+03  0.47000000000E+01 0.  1.
         -5    1    4    4    0  502  0.10511379500E+03  0.23011198585E+02  0.76038740442E+02  0.13184234983E+03  0.47000000000E+01 0.  1.
<mgrwt>
<rscale>  0 0.10002594E+04</rscale>
<asrwt>0</asrwt>
<pdfrwt beam="1">  1        2 0.34953226E+00 0.10002594E+04</pdfrwt>
<pdfrwt beam="2">  1       -2 0.16937578E-01 0.10002594E+04</pdfrwt>
<totfact> 0.15524345E+02</totfact>
</mgrwt>
</event>
<event>
 9    1  0.4321150E-036  0.1002521E+04  0.7818608E-02  0.8678641E-01
         -2   -1    0    0    0  501 -0.00000000000E+00  0.00000000000E+00  0.24333699835E+03  0.24333699835E+03  0.00000000000E+00 0.  1.
          2   -1    0    0  501    0  0.00000000000E+00 -0.00000000000E+00 -0.10325677260E+04  0.10325677260E+04  0.00000000000E+00 0.  1.
         36    2    1    2    0    0  0.14210854715E-13 -0.14210854715E-13 -0.78923072765E+03  0.12759047243E+04  0.10025206851E+04 0.  0.
         25    2    3    3    0    0  0.74265910542E+02  0.12082928453E+03 -0.18253187531E+03  0.26275425956E+03  0.12492707449E+03 0.  0.
         35    2    3    3    0    0 -0.74265910542E+02 -0.12082928453E+03 -0.60669885233E+03  0.10131504648E+04  0.79892128862E+03 0.  0.
         22    1    5    5    0    0 -0.34880715304E+03 -0.13890017471E+03 -0.33006623838E+02  0.37689405111E+03  0.00000000000E+00 0. -1.
         22    1    5    5    0    0  0.27454124250E+03  0.18070890179E+02 -0.57369222849E+03  0.63625641367E+03  0.00000000000E+00 0. -1.
          5    1    4    4  502    0  0.22172460945E+02  0.11170605574E+03 -0.59112415513E+02  0.12839870942E+03  0.47000000000E+01 0. -1.
         -5    1    4    4    0  502  0.52093449597E+02  0.91232287881E+01 -0.12341945980E+03  0.13435555013E+03  0.47000000000E+01 0. -1.
<mgrwt>
<rscale>  0 0.10025207E+04</rscale>
<asrwt>0</asrwt>
<pdfrwt beam="1">  1        2 0.15885657E+00 0.10025207E+04</pdfrwt>
<pdfrwt beam="2">  1       -2 0.37436461E-01 0.10025207E+04</pdfrwt>
<totfact> 0.19524162E+02</totfact>
</mgrwt>
</event>
<event>
 9    1  0.4321150E-036  0.1001126E+04  0.7818608E-02  0.8679967E-01
          1   -1    0    0  501    0  0.00000000000E+00  0.00000000000E+00  0.86874831948E+03  0.86874831948E+03  0.00000000000E+00 0. -1.
         -1   -1    0    0    0  501 -0.00000000000E+00 -0.00000000000E+00 -0.28841857936E+03  0.28841857936E+03  0.00000000000E+00 0. -1.
         36    2    1    2    0    0  0.00000000000E+00  0.14210854715E-13  0.58032974012E+03  0.11571668988E+04  0.10011256787E+04 0.  0.
         25    2    3    3    0    0 -0.23626591730E+02 -0.12254351306E+03  0.32687593711E+02  0.17978908499E+03  0.12522183462E+03 0.  0.
         35    2    3    3    0    0  0.23626591730E+02  0.12254351306E+03  0.54764214641E+03  0.97737781385E+03  0.79986270200E+03 0.  0.
         22    1    5    5    0    0  0.32098900347E+02 -0.21989149084E+03 -0.10080552199E+03  0.24401713139E+03  0.00000000000E+00 0. -1.
         22    1    5    5    0    0 -0.84723086163E+01  0.34243500391E+03  0.64844766840E+03  0.73336068246E+03  0.00000000000E+00 0. -1.
          5    1    4    4  502    0 -0.71623641291E+02 -0.96649997018E+02  0.10922645947E+02  0.12088243094E+03  0.47000000000E+01 0. -1.
         -5    1    4    4    0  502  0.47997049560E+02 -0.25893516047E+02  0.21764947765E+02  0.58906654047E+02  0.47000000000E+01 0. -1.
<mgrwt>
<rscale>  0 0.10011257E+04</rscale>
<asrwt>0</asrwt>
<pdfrwt beam="1">  1        1 0.13365359E+00 0.10011257E+04</pdfrwt>
<pdfrwt beam="2">  1       -1 0.44372090E-01 0.10011257E+04</pdfrwt>
<totfact> 0.10989047E+02</totfact>
</mgrwt>
</event>
<event>
 9    1  0.4321150E-036  0.9989408E+03  0.7818608E-02  0.8682047E-01
         -2   -1    0    0    0  501 -0.00000000000E+00  0.00000000000E+00  0.13742441925E+03  0.13742441925E+03  0.00000000000E+00 0. -1.
          2   -1    0    0  501    0  0.00000000000E+00 -0.00000000000E+00 -0.18153301625E+04  0.18153301625E+04  0.00000000000E+00 0. -1.
         36    2    1    2    0    0 -0.28421709430E-13  0.00000000000E+00 -0.16779057433E+04  0.19527545818E+04  0.99894082573E+03 0.  0.
         25    2    3    3    0    0  0.99117307122E+02  0.87582052777E+02 -0.40436592447E+03  0.44319841078E+03  0.12416993960E+03 0.  0.
         35    2    3    3    0    0 -0.99117307122E+02 -0.87582052777E+02 -0.12735398188E+04  0.15095561710E+04  0.79960071709E+03 0.  0.
         22    1    5    5    0    0 -0.44426500589E+03 -0.12423095974E+03 -0.67289543783E+03  0.81583883033E+03  0.00000000000E+00 0. -1.
         22    1    5    5    0    0  0.34514769877E+03  0.36648906960E+02 -0.60064438097E+03  0.69371734066E+03  0.00000000000E+00 0. -1.
          5    1    4    4  502    0  0.47836127488E+02 -0.20929986892E+02 -0.19398898171E+03  0.20094818852E+03  0.47000000000E+01 0. -1.
         -5    1    4    4    0  502  0.51281179633E+02  0.10851203967E+03 -0.21037694276E+03  0.24225022225E+03  0.47000000000E+01 0. -1.
<mgrwt>
<rscale>  0 0.99894083E+03</rscale>
<asrwt>0</asrwt>
<pdfrwt beam="1">  1        2 0.27928156E+00 0.99894083E+03</pdfrwt>
<pdfrwt beam="2">  1       -2 0.21142218E-01 0.99894083E+03</pdfrwt>
<totfact> 0.19371179E+02</totfact>
</mgrwt>
</event>
<event>
 9    1  0.4321150E-036  0.9956926E+03  0.7818608E-02  0.8685151E-01
         -2   -1    0    0    0  501 -0.00000000000E+00  0.00000000000E+00  0.98764353049E+02  0.98764353049E+02  0.00000000000E+00 0.  1.
          2   -1    0    0  501    0  0.00000000000E+00 -0.00000000000E+00 -0.25095180498E+04  0.25095180498E+04  0.00000000000E+00 0.  1.
         36    2    1    2    0    0  0.00000000000E+00  0.00000000000E+00 -0.24107536968E+04  0.26082824029E+04  0.99569257636E+03 0.  0.
         25    2    3    3    0    0 -0.98570118124E+02 -0.25640436865E+02 -0.67961675730E+03  0.69840896084E+03  0.12458988561E+03 0.  0.
         35    2    3    3    0    0  0.98570118124E+02  0.25640436865E+02 -0.17311369395E+04  0.19098734420E+04  0.80025493510E+03 0.  0.
         22    1    5    5    0    0 -0.27584313061E+03  0.13566122181E+03 -0.31173836214E+03  0.43780612860E+03  0.00000000000E+00 0.  1.
         22    1    5    5    0    0  0.37441324873E+03 -0.11002078494E+03 -0.14193985773E+04  0.14720673134E+04  0.00000000000E+00 0.  1.
          5    1    4    4  502    0 -0.27316691071E+02  0.49573865985E+02 -0.26492110004E+03  0.27094104349E+03  0.47000000000E+01 0. -1.
         -5    1    4    4    0  502 -0.71253427054E+02 -0.75214302850E+02 -0.41469565726E+03  0.42746791736E+03  0.47000000000E+01 0. -1.
<mgrwt>
<rscale>  0 0.99569258E+03</rscale>
<asrwt>0</asrwt>
<pdfrwt beam="1">  1        2 0.38607972E+00 0.99569258E+03</pdfrwt>
<pdfrwt beam="2">  1       -2 0.15194515E-01 0.99569258E+03</pdfrwt>
<totfact> 0.13448239E+02</totfact>
</mgrwt>
</event>
<event>
 9    1  0.4321150E-036  0.9995166E+03  0.7818608E-02  0.8681498E-01
          2   -1    0    0  501    0  0.00000000000E+00  0.00000000000E+00  0.13186948410E+04  0.13186948410E+04  0.00000000000E+00 0.  1.
         -2   -1    0    0    0  501 -0.00000000000E+00 -0.00000000000E+00 -0.18939814672E+03  0.18939814672E+03  0.00000000000E+00 0.  1.
         36    2    1    2    0    0 -0.14210854715E-13 -0.71054273576E-14  0.11292966943E+04  0.15080929877E+04  0.99951660110E+03 0.  0.
         25    2    3    3    0    0  0.12664962565E+03  0.47355657893E+02  0.15756406743E+03  0.24227061605E+03  0.12484362236E+03 0.  0.
         35    2    3    3    0    0 -0.12664962565E+03 -0.47355657893E+02  0.97173262684E+03  0.12658223717E+04  0.79984954368E+03 0.  0.
         22    1    5    5    0    0 -0.20358466943E+03  0.25614506641E+03  0.10399385784E+03  0.34332453327E+03  0.00000000000E+00 0. -1.
         22    1    5    5    0    0  0.76935043779E+02 -0.30350072431E+03  0.86773876900E+03  0.92249783839E+03  0.00000000000E+00 0. -1.
          5    1    4    4  502    0  0.88110126226E+02  0.97220185682E+01  0.16532100769E+03  0.18764604331E+03  0.47000000000E+01 0. -1.
         -5    1    4    4    0  502  0.38539499420E+02  0.37633639325E+02 -0.77569402535E+01  0.54624572735E+02  0.47000000000E+01 0. -1.
<mgrwt>
<rscale>  0 0.99951660E+03</rscale>
<asrwt>0</asrwt>
<pdfrwt beam="1">  1        2 0.20287612E+00 0.99951660E+03</pdfrwt>
<pdfrwt beam="2">  1       -2 0.29138177E-01 0.99951660E+03</pdfrwt>
<totfact> 0.20959001E+02</totfact>
</mgrwt>
</event>
<event>
 9    1  0.4321150E-036  0.1001246E+04  0.7818608E-02  0.8679853E-01
          1   -1    0    0  501    0  0.00000000000E+00  0.00000000000E+00  0.15008115101E+03  0.15008115101E+03  0.00000000000E+00 0. -1.
         -1   -1    0    0    0  501 -0.00000000000E+00 -0.00000000000E+00 -0.16699183447E+04  0.16699183447E+04  0.00000000000E+00 0. -1.
         36    2    1    2    0    0 -0.14210854715E-13  0.00000000000E+00 -0.15198371937E+04  0.18199994957E+04  0.10012457586E+04 0.  0.
         25    2    3    3    0    0 -0.19091667263E+02 -0.10298840673E+03 -0.47284284121E+03  0.50000436913E+03  0.12430974615E+03 0.  0.
         35    2    3    3    0    0  0.19091667263E+02  0.10298840673E+03 -0.10469943525E+04  0.13199951266E+04  0.79700618341E+03 0.  0.
         22    1    5    5    0    0 -0.22688363012E+03  0.28560047191E+03 -0.91760113861E+03  0.98743894026E+03  0.00000000000E+00 0. -1.
         22    1    5    5    0    0  0.24597529738E+03 -0.18261206518E+03 -0.12939321391E+03  0.33255618635E+03  0.00000000000E+00 0. -1.
          5    1    4    4  502    0 -0.17538246510E+02  0.18054524788E+02 -0.19797790497E+03  0.19962689401E+03  0.47000000000E+01 0.  1.
         -5    1    4    4    0  502 -0.15534207531E+01 -0.12104293151E+03 -0.27486493624E+03  0.30037747512E+03  0.47000000000E+01 0.  1.
<mgrwt>
<rscale>  0 0.10012458E+04</rscale>
<asrwt>0</asrwt>
<pdfrwt beam="1">  1        1 0.23089410E-01 0.10012458E+04</pdfrwt>
<pdfrwt beam="2">  1       -1 0.25691050E+00 0.10012458E+04</pdfrwt>
<totfact> 0.10448429E+01</totfact>
</mgrwt>
</event>
<event>
 9    1  0.4321150E-036  0.1001885E+04  0.7818608E-02  0.8679245E-01
          2   -1    0    0  501    0  0.00000000000E+00  0.00000000000E+00  0.47470018557E+03  0.47470018557E+03  0.00000000000E+00 0. -1.
         -2   -1    0    0    0  501 -0.00000000000E+00 -0.00000000000E+00 -0.52863556418E+03  0.52863556418E+03  0.00000000000E+00 0. -1.
         36    2    1    2    0    0  0.14210854715E-13  0.28421709430E-13 -0.53935378604E+02  0.10033357498E+04  0.10018850242E+04 0.  0.
         25    2    3    3    0    0  0.64730164704E+02 -0.10980318388E+03 -0.72821802822E+02  0.19337704094E+03  0.12587665225E+03 0.  0.
         35    2    3    3    0    0 -0.64730164704E+02  0.10980318388E+03  0.18886424218E+02  0.80995870882E+03  0.79964347027E+03 0.  0.
         22    1    5    5    0    0 -0.18438156442E+03  0.20935843576E+03  0.34792645696E+03  0.44596001544E+03  0.00000000000E+00 0. -1.
         22    1    5    5    0    0  0.11965139971E+03 -0.99555251876E+02 -0.32904003274E+03  0.36399869337E+03  0.00000000000E+00 0. -1.
          5    1    4    4  502    0 -0.22039569664E+02 -0.43091009611E+02 -0.68156986257E+02  0.83725996656E+02  0.47000000000E+01 0. -1.
         -5    1    4    4    0  502  0.86769734368E+02 -0.66712174272E+02 -0.46648165645E+01  0.10965104428E+03  0.47000000000E+01 0. -1.
<mgrwt>
<rscale>  0 0.10018850E+04</rscale>
<asrwt>0</asrwt>
<pdfrwt beam="1">  1        2 0.73030798E-01 0.10018850E+04</pdfrwt>
<pdfrwt beam="2">  1       -2 0.81328548E-01 0.10018850E+04</pdfrwt>
<totfact> 0.10483080E+02</totfact>
</mgrwt>
</event>
<event>
 9    1  0.4321150E-036  0.9994000E+03  0.7818608E-02  0.8681610E-01
          2   -1    0    0  501    0  0.00000000000E+00  0.00000000000E+00  0.85228219576E+03  0.85228219576E+03  0.00000000000E+00 0.  1.
         -2   -1    0    0    0  501 -0.00000000000E+00 -0.00000000000E+00 -0.29297817973E+03  0.29297817973E+03  0.00000000000E+00 0.  1.
         36    2    1    2    0    0 -0.28421709430E-13  0.24868995752E-13  0.55930401603E+03  0.11452603755E+04  0.99939999266E+03 0.  0.
         25    2    3    3    0    0  0.16897202621E+02 -0.75218146937E+00  0.26437050877E+03  0.29358372508E+03  0.12654468180E+03 0.  0.
         35    2    3    3    0    0 -0.16897202621E+02  0.75218146937E+00  0.29493350726E+03  0.85167665042E+03  0.79879988854E+03 0.  0.
         22    1    5    5    0    0 -0.14859583272E+03 -0.33686901613E+03  0.32082499923E+03  0.48835451842E+03  0.00000000000E+00 0. -1.
         22    1    5    5    0    0  0.13169863010E+03  0.33762119760E+03 -0.25891491968E+02  0.36332213200E+03  0.00000000000E+00 0. -1.
          5    1    4    4  502    0 -0.45418722831E+02  0.31616958836E+02  0.92957215668E+02  0.10828493161E+03  0.47000000000E+01 0.  1.
         -5    1    4    4    0  502  0.62315925452E+02 -0.32369140305E+02  0.17141329310E+03  0.18529879347E+03  0.47000000000E+01 0.  1.
<mgrwt>
<rscale>  0 0.99939999E+03</rscale>
<asrwt>0</asrwt>
<pdfrwt beam="1">  1        2 0.13112034E+00 0.99939999E+03</pdfrwt>
<pdfrwt beam="2">  1       -2 0.45073567E-01 0.99939999E+03</pdfrwt>
<totfact> 0.17861466E+02</totfact>
</mgrwt>
</event>
<event>
 9    1  0.4321150E-036  0.9996697E+03  0.7818608E-02  0.8681353E-01
         -1   -1    0    0    0  501 -0.00000000000E+00  0.00000000000E+00  0.41710451790E+03  0.41710451790E+03  0.00000000000E+00 0.  1.
          1   -1    0    0  501    0  0.00000000000E+00 -0.00000000000E+00 -0.59897424130E+03  0.59897424130E+03  0.00000000000E+00 0.  1.
         36    2    1    2    0    0 -0.28421709430E-13 -0.71054273576E-14 -0.18186972340E+03  0.10160787592E+04  0.99966966975E+03 0.  0.
         25    2    3    3    0    0  0.13110576596E+03  0.48716839889E+02 -0.59193603213E+02  0.19643628049E+03  0.12458441826E+03 0.  0.
         35    2    3    3    0    0 -0.13110576596E+03 -0.48716839889E+02 -0.12267612018E+03  0.81964247872E+03  0.79824952872E+03 0.  0.
         22    1    5    5    0    0 -0.46002080229E+03  0.29852803648E+02 -0.13777530548E+03  0.48113653283E+03  0.00000000000E+00 0.  1.
         22    1    5    5    0    0  0.32891503633E+03 -0.78569643537E+02  0.15099185292E+02  0.33850594589E+03  0.00000000000E+00 0.  1.
          5    1    4    4  502    0  0.82686147127E+02  0.40901251973E+02  0.27797477336E+02  0.96460878526E+02  0.47000000000E+01 0.  1.
         -5    1    4    4    0  502  0.48419618833E+02  0.78155879151E+01 -0.86991080549E+02  0.99975401962E+02  0.47000000000E+01 0.  1.
<mgrwt>
<rscale>  0 0.99966967E+03</rscale>
<asrwt>0</asrwt>
<pdfrwt beam="1">  1        1 0.92149883E-01 0.99966967E+03</pdfrwt>
<pdfrwt beam="2">  1       -1 0.64169926E-01 0.99966967E+03</pdfrwt>
<totfact> 0.98417328E+01</totfact>
</mgrwt>
</event>
<event>
 9    1  0.4321150E-036  0.9997014E+03  0.7818608E-02  0.8681322E-01
          2   -1    0    0  501    0  0.00000000000E+00  0.00000000000E+00  0.13946156219E+04  0.13946156219E+04  0.00000000000E+00 0. -1.
         -2   -1    0    0    0  501 -0.00000000000E+00 -0.00000000000E+00 -0.17915383519E+03  0.17915383519E+03  0.00000000000E+00 0. -1.
         36    2    1    2    0    0  0.28421709430E-13  0.71054273576E-14  0.12154617867E+04  0.15737694571E+04  0.99970142998E+03 0.  0.
         25    2    3    3    0    0  0.13510969487E+03 -0.23696777366E+02  0.18187606020E+03  0.25994979911E+03  0.12521513439E+03 0.  0.
         35    2    3    3    0    0 -0.13510969487E+03  0.23696777366E+02  0.10335857265E+04  0.13138196580E+04  0.79937880427E+03 0.  0.
         22    1    5    5    0    0  0.14906913599E+02 -0.14446740211E+03  0.10749368476E+04  0.10847037718E+04  0.00000000000E+00 0. -1.
         22    1    5    5    0    0 -0.15001660847E+03  0.16816417948E+03 -0.41351121049E+02  0.22911588615E+03  0.00000000000E+00 0. -1.
          5    1    4    4  502    0  0.44589843194E+02 -0.64456554056E+02  0.11824765995E+03  0.14194189149E+03  0.47000000000E+01 0.  1.
         -5    1    4    4    0  502  0.90519851675E+02  0.40759776690E+02  0.63628400253E+02  0.11800790762E+03  0.47000000000E+01 0.  1.
<mgrwt>
<rscale>  0 0.99970143E+03</rscale>
<asrwt>0</asrwt>
<pdfrwt beam="1">  1        2 0.21455624E+00 0.99970143E+03</pdfrwt>
<pdfrwt beam="2">  1       -2 0.27562129E-01 0.99970143E+03</pdfrwt>
<totfact> 0.20959755E+02</totfact>
</mgrwt>
</event>
<event>
 9    1  0.4321150E-036  0.1000561E+04  0.7818608E-02  0.8680504E-01
         -2   -1    0    0    0  501 -0.00000000000E+00  0.00000000000E+00  0.45303542411E+03  0.45303542411E+03  0.00000000000E+00 0. -1.
          2   -1    0    0  501    0  0.00000000000E+00 -0.00000000000E+00 -0.55245220781E+03  0.55245220781E+03  0.00000000000E+00 0. -1.
         36    2    1    2    0    0 -0.35527136788E-14  0.00000000000E+00 -0.99416783699E+02  0.10054876319E+04  0.10005606833E+04 0.  0.
         25    2    3    3    0    0  0.22640870547E+02 -0.92034017301E+02  0.86558798423E+02  0.17858000298E+03  0.12415926273E+03 0.  0.
         35    2    3    3    0    0 -0.22640870547E+02  0.92034017301E+02 -0.18597558212E+03  0.82690762893E+03  0.80012901477E+03 0.  0.
         22    1    5    5    0    0  0.27027738384E+01  0.48529250157E+02  0.31735988721E+03  0.32106026088E+03  0.00000000000E+00 0. -1.
         22    1    5    5    0    0 -0.25343644385E+02  0.43504767145E+02 -0.50333546933E+03  0.50584736805E+03  0.00000000000E+00 0. -1.
          5    1    4    4  502    0  0.33518450883E+02 -0.49051939091E+02  0.11227365357E+03  0.12711035585E+03  0.47000000000E+01 0. -1.
         -5    1    4    4    0  502 -0.10877580337E+02 -0.42982078211E+02 -0.25714855144E+02  0.51469647136E+02  0.47000000000E+01 0. -1.
<mgrwt>
<rscale>  0 0.10005607E+04</rscale>
<asrwt>0</asrwt>
<pdfrwt beam="1">  1        2 0.84992647E-01 0.10005607E+04</pdfrwt>
<pdfrwt beam="2">  1       -2 0.69697758E-01 0.10005607E+04</pdfrwt>
<totfact> 0.12429935E+02</totfact>
</mgrwt>
</event>
<event>
 9    1  0.4321150E-036  0.1000085E+04  0.7818608E-02  0.8680957E-01
          2   -1    0    0  501    0  0.00000000000E+00  0.00000000000E+00  0.78678936069E+03  0.78678936069E+03  0.00000000000E+00 0. -1.
         -2   -1    0    0    0  501 -0.00000000000E+00 -0.00000000000E+00 -0.31780091942E+03  0.31780091942E+03  0.00000000000E+00 0. -1.
         36    2    1    2    0    0  0.28421709430E-13  0.28421709430E-13  0.46898844127E+03  0.11045902801E+04  0.10000847608E+04 0.  0.
         25    2    3    3    0    0  0.13172878032E+03  0.33541608460E+02  0.11625514362E+03  0.21910714552E+03  0.12655106376E+03 0.  0.
         35    2    3    3    0    0 -0.13172878032E+03 -0.33541608460E+02  0.35273329765E+03  0.88548313459E+03  0.80073846624E+03 0.  0.
         22    1    5    5    0    0 -0.93170026155E+02 -0.32331135217E+03 -0.96032921816E+02  0.34990456741E+03  0.00000000000E+00 0. -1.
         22    1    5    5    0    0 -0.38558754168E+02  0.28976974371E+03  0.44876621946E+03  0.53557856718E+03  0.00000000000E+00 0. -1.
          5    1    4    4  502    0  0.88732894628E+02 -0.39696422860E+02  0.41244594143E+02  0.10570023237E+03  0.47000000000E+01 0. -1.
         -5    1    4    4    0  502  0.42995885694E+02  0.73238031320E+02  0.75010549476E+02  0.11340691315E+03  0.47000000000E+01 0. -1.
<mgrwt>
<rscale>  0 0.10000848E+04</rscale>
<asrwt>0</asrwt>
<pdfrwt beam="1">  1        2 0.12104452E+00 0.10000848E+04</pdfrwt>
<pdfrwt beam="2">  1       -2 0.48892449E-01 0.10000848E+04</pdfrwt>
<totfact> 0.16884018E+02</totfact>
</mgrwt>
</event>
<event>
 9    1  0.4321150E-036  0.9980077E+03  0.7818608E-02  0.8682938E-01
         -2   -1    0    0    0  501 -0.00000000000E+00  0.00000000000E+00  0.21215531048E+04  0.21215531048E+04  0.00000000000E+00 0. -1.
          2   -1    0    0  501    0  0.00000000000E+00 -0.00000000000E+00 -0.11736912109E+03  0.11736912109E+03  0.00000000000E+00 0. -1.
         36    2    1    2    0    0 -0.14210854715E-13 -0.14210854715E-13  0.20041839837E+04  0.22389222259E+04  0.99800766179E+03 0.  0.
         25    2    3    3    0    0 -0.10520727190E+03  0.54796931633E+02  0.50935272593E+03  0.53942821012E+03  0.13217912346E+03 0.  0.
         35    2    3    3    0    0  0.10520727190E+03 -0.54796931633E+02  0.14948312577E+04  0.16994940157E+04  0.79980506788E+03 0.  0.
         22    1    5    5    0    0  0.34391337033E+03 -0.53662636442E+02  0.24153821653E+03  0.42367062075E+03  0.00000000000E+00 0.  1.
         22    1    5    5    0    0 -0.23870609842E+03 -0.11342951905E+01  0.12532930412E+04  0.12758233950E+04  0.00000000000E+00 0.  1.
          5    1    4    4  502    0 -0.86933040279E+02  0.97543821686E+02  0.38420125829E+03  0.40583845002E+03  0.47000000000E+01 0.  1.
         -5    1    4    4    0  502 -0.18274231625E+02 -0.42746890053E+02  0.12515146763E+03  0.13358976009E+03  0.47000000000E+01 0.  1.
<mgrwt>
<rscale>  0 0.99800766E+03</rscale>
<asrwt>0</asrwt>
<pdfrwt beam="1">  1        2 0.18056789E-01 0.99800766E+03</pdfrwt>
<pdfrwt beam="2">  1       -2 0.32639276E+00 0.99800766E+03</pdfrwt>
<totfact> 0.80715208E+00</totfact>
</mgrwt>
</event>
<event>
 9    1  0.4321150E-036  0.9993620E+03  0.7818608E-02  0.8681646E-01
         -2   -1    0    0    0  501 -0.00000000000E+00  0.00000000000E+00  0.20993731577E+03  0.20993731577E+03  0.00000000000E+00 0. -1.
          2   -1    0    0  501    0  0.00000000000E+00 -0.00000000000E+00 -0.11893127030E+04  0.11893127030E+04  0.00000000000E+00 0. -1.
         36    2    1    2    0    0 -0.14210854715E-13  0.00000000000E+00 -0.97937538723E+03  0.13992500188E+04  0.99936202945E+03 0.  0.
         25    2    3    3    0    0  0.60577414205E+01 -0.11022391558E+03 -0.30162091822E+03  0.34500686078E+03  0.12597042462E+03 0.  0.
         35    2    3    3    0    0 -0.60577414205E+01  0.11022391558E+03 -0.67775446901E+03  0.10542431580E+04  0.79993218969E+03 0.  0.
         22    1    5    5    0    0  0.15577101732E+03 -0.27280958132E+03 -0.76704766384E+02  0.32337795021E+03  0.00000000000E+00 0.  1.
         22    1    5    5    0    0 -0.16182875874E+03  0.38303349690E+03 -0.60104970263E+03  0.73086520778E+03  0.00000000000E+00 0.  1.
          5    1    4    4  502    0  0.64422476729E+02 -0.39724288918E+02 -0.13397367839E+03  0.15394580585E+03  0.47000000000E+01 0.  1.
         -5    1    4    4    0  502 -0.58364735309E+02 -0.70499626661E+02 -0.16764723983E+03  0.19106105492E+03  0.47000000000E+01 0.  1.
<mgrwt>
<rscale>  0 0.99936203E+03</rscale>
<asrwt>0</asrwt>
<pdfrwt beam="1">  1        2 0.18297119E+00 0.99936203E+03</pdfrwt>
<pdfrwt beam="2">  1       -2 0.32298048E-01 0.99936203E+03</pdfrwt>
<totfact> 0.20667172E+02</totfact>
</mgrwt>
</event>
<event>
 9    1  0.4321150E-036  0.1000442E+04  0.7818608E-02  0.8680617E-01
          2   -1    0    0  501    0  0.00000000000E+00  0.00000000000E+00  0.17237324560E+04  0.17237324560E+04  0.00000000000E+00 0. -1.
         -2   -1    0    0    0  501 -0.00000000000E+00 -0.00000000000E+00 -0.14516224203E+03  0.14516224203E+03  0.00000000000E+00 0. -1.
         36    2    1    2    0    0 -0.24868995752E-13  0.00000000000E+00  0.15785702139E+04  0.18688946980E+04  0.10004416384E+04 0.  0.
         25    2    3    3    0    0  0.31553777061E+02  0.84478346659E+02  0.94018892389E+02  0.18023636167E+03  0.12455264767E+03 0.  0.
         35    2    3    3    0    0 -0.31553777061E+02 -0.84478346659E+02  0.14845513216E+04  0.16886583363E+04  0.79971377293E+03 0.  0.
         22    1    5    5    0    0 -0.30146400307E+03 -0.10126800079E+03  0.13493376743E+04  0.13863072937E+04  0.00000000000E+00 0.  1.
         22    1    5    5    0    0  0.26991022601E+03  0.16789654127E+02  0.13521364722E+03  0.30235104264E+03  0.00000000000E+00 0.  1.
          5    1    4    4  502    0  0.14903466109E+02 -0.32198312830E+02  0.20424508400E+02  0.41207950623E+02  0.47000000000E+01 0.  1.
         -5    1    4    4    0  502  0.16650310952E+02  0.11667665949E+03  0.73594383989E+02  0.13902841105E+03  0.47000000000E+01 0.  1.
<mgrwt>
<rscale>  0 0.10004416E+04</rscale>
<asrwt>0</asrwt>
<pdfrwt beam="1">  1        2 0.26518959E+00 0.10004416E+04</pdfrwt>
<pdfrwt beam="2">  1       -2 0.22332654E-01 0.10004416E+04</pdfrwt>
<totfact> 0.19827892E+02</totfact>
</mgrwt>
</event>
<event>
 9    1  0.4321150E-036  0.1000177E+04  0.7818608E-02  0.8680870E-01
         -1   -1    0    0    0  501 -0.00000000000E+00  0.00000000000E+00  0.70932672597E+03  0.70932672597E+03  0.00000000000E+00 0. -1.
          1   -1    0    0  501    0  0.00000000000E+00 -0.00000000000E+00 -0.35257140461E+03  0.35257140461E+03  0.00000000000E+00 0. -1.
         36    2    1    2    0    0 -0.28421709430E-13  0.14210854715E-13  0.35675532136E+03  0.10618981306E+04  0.10001766246E+04 0.  0.
         25    2    3    3    0    0  0.11637853225E+03  0.48794881001E+02  0.12722267056E+03  0.21872857428E+03  0.12542598663E+03 0.  0.
         35    2    3    3    0    0 -0.11637853225E+03 -0.48794881001E+02  0.22953265080E+03  0.84316955630E+03  0.80145165775E+03 0.  0.
         22    1    5    5    0    0 -0.39740145272E+03 -0.24648537234E+03  0.13880100016E+03  0.48779982682E+03  0.00000000000E+00 0.  1.
         22    1    5    5    0    0  0.28102292048E+03  0.19769049134E+03  0.90731650649E+02  0.35536972948E+03  0.00000000000E+00 0.  1.
          5    1    4    4  502    0  0.18288579248E+02 -0.56211193411E+01  0.10170271752E+03  0.10359344508E+03  0.47000000000E+01 0. -1.
         -5    1    4    4    0  502  0.98089952997E+02  0.54416000343E+02  0.25519953041E+02  0.11513512920E+03  0.47000000000E+01 0. -1.
<mgrwt>
<rscale>  0 0.10001766E+04</rscale>
<asrwt>0</asrwt>
<pdfrwt beam="1">  1        1 0.54241755E-01 0.10001766E+04</pdfrwt>
<pdfrwt beam="2">  1       -1 0.10912719E+00 0.10001766E+04</pdfrwt>
<totfact> 0.66327706E+01</totfact>
</mgrwt>
</event>
<event>
 9    1  0.4321150E-036  0.1000199E+04  0.7818608E-02  0.8680849E-01
         -2   -1    0    0    0  501 -0.00000000000E+00  0.00000000000E+00  0.89962193612E+02  0.89962193612E+02  0.00000000000E+00 0. -1.
          2   -1    0    0  501    0  0.00000000000E+00 -0.00000000000E+00 -0.27800505258E+04  0.27800505258E+04  0.00000000000E+00 0. -1.
         36    2    1    2    0    0  0.28421709430E-13  0.14210854715E-13 -0.26900883322E+04  0.28700127194E+04  0.10001988675E+04 0.  0.
         25    2    3    3    0    0  0.10829167977E+03  0.85446963185E+02 -0.42986081880E+03  0.46850607044E+03  0.12525710790E+03 0.  0.
         35    2    3    3    0    0 -0.10829167977E+03 -0.85446963185E+02 -0.22602275134E+04  0.24015066490E+04  0.79973589474E+03 0.  0.
         22    1    5    5    0    0  0.21501248647E+03 -0.46230992461E+02 -0.19124281279E+04  0.19250322123E+04  0.00000000000E+00 0.  1.
         22    1    5    5    0    0 -0.32330416624E+03 -0.39215970724E+02 -0.34779938554E+03  0.47647443672E+03  0.00000000000E+00 0.  1.
          5    1    4    4  502    0  0.28509588470E+02 -0.17423781985E+02 -0.21200944505E+03  0.21467761785E+03  0.47000000000E+01 0. -1.
         -5    1    4    4    0  502  0.79782091301E+02  0.10287074517E+03 -0.21785137374E+03  0.25382845259E+03  0.47000000000E+01 0. -1.
<mgrwt>
<rscale>  0 0.10001989E+04</rscale>
<asrwt>0</asrwt>
<pdfrwt beam="1">  1        2 0.42770013E+00 0.10001989E+04</pdfrwt>
<pdfrwt beam="2">  1       -2 0.13840336E-01 0.10001989E+04</pdfrwt>
<totfact> 0.10655076E+02</totfact>
</mgrwt>
</event>
<event>
 9    1  0.4321150E-036  0.1000665E+04  0.7818608E-02  0.8680405E-01
         -1   -1    0    0    0  501 -0.00000000000E+00  0.00000000000E+00  0.60802729350E+03  0.60802729350E+03  0.00000000000E+00 0. -1.
          1   -1    0    0  501    0  0.00000000000E+00 -0.00000000000E+00 -0.41171265642E+03  0.41171265642E+03  0.00000000000E+00 0. -1.
         36    2    1    2    0    0 -0.14210854715E-13 -0.14210854715E-13  0.19631463708E+03  0.10197399499E+04  0.10006648434E+04 0.  0.
         25    2    3    3    0    0 -0.40361403242E+02  0.12488434615E+03  0.90663447771E+02  0.20303447615E+03  0.12561048905E+03 0.  0.
         35    2    3    3    0    0  0.40361403242E+02 -0.12488434615E+03  0.10565118931E+03  0.81670547376E+03  0.79913735633E+03 0.  0.
         22    1    5    5    0    0 -0.28867195245E+03 -0.25492478594E+03 -0.11230263936E+03  0.40116084732E+03  0.00000000000E+00 0. -1.
         22    1    5    5    0    0  0.32903335569E+03  0.13004043979E+03  0.21795382867E+03  0.41554462644E+03  0.00000000000E+00 0. -1.
          5    1    4    4  502    0 -0.19827770857E+02  0.69214868995E+02 -0.22155349820E+02  0.75477070113E+02  0.47000000000E+01 0. -1.
         -5    1    4    4    0  502 -0.20533632384E+02  0.55669477158E+02  0.11281879759E+03  0.12755740604E+03  0.47000000000E+01 0. -1.
<mgrwt>
<rscale>  0 0.10006648E+04</rscale>
<asrwt>0</asrwt>
<pdfrwt beam="1">  1        1 0.63340409E-01 0.10006648E+04</pdfrwt>
<pdfrwt beam="2">  1       -1 0.93542660E-01 0.10006648E+04</pdfrwt>
<totfact> 0.76354371E+01</totfact>
</mgrwt>
</event>
<event>
 9    1  0.4321150E-036  0.9996897E+03  0.7818608E-02  0.8681334E-01
          2   -1    0    0  501    0  0.00000000000E+00  0.00000000000E+00  0.89707800283E+03  0.89707800283E+03  0.00000000000E+00 0. -1.
         -2   -1    0    0    0  501 -0.00000000000E+00 -0.00000000000E+00 -0.27850962397E+03  0.27850962397E+03  0.00000000000E+00 0. -1.
         36    2    1    2    0    0  0.71054273576E-14  0.00000000000E+00  0.61856837886E+03  0.11755876268E+04  0.99968966633E+03 0.  0.
         25    2    3    3    0    0  0.49355573647E+01  0.80072014576E+02  0.24745265574E+03  0.28863535830E+03  0.12506664617E+03 0.  0.
         35    2    3    3    0    0 -0.49355573647E+01 -0.80072014576E+02  0.37111572312E+03  0.88695226850E+03  0.80157442537E+03 0.  0.
         22    1    5    5    0    0 -0.55007103650E+02 -0.36748831089E+03 -0.49705336937E+02  0.37489206528E+03  0.00000000000E+00 0.  1.
         22    1    5    5    0    0  0.50071546286E+02  0.28741629631E+03  0.42082106006E+03  0.51206020322E+03  0.00000000000E+00 0.  1.
          5    1    4    4  502    0 -0.35279605668E+02  0.42332814415E+02  0.27387254024E+02  0.61716038720E+02  0.47000000000E+01 0. -1.
         -5    1    4    4    0  502  0.40215163032E+02  0.37739200160E+02  0.22006540172E+03  0.22691931958E+03  0.47000000000E+01 0. -1.
<mgrwt>
<rscale>  0 0.99968967E+03</rscale>
<asrwt>0</asrwt>
<pdfrwt beam="1">  1        2 0.13801200E+00 0.99968967E+03</pdfrwt>
<pdfrwt beam="2">  1       -2 0.42847635E-01 0.99968967E+03</pdfrwt>
<totfact> 0.18401438E+02</totfact>
</mgrwt>
</event>
<event>
 9    1  0.4321150E-036  0.1000547E+04  0.7818608E-02  0.8680517E-01
          3   -1    0    0  501    0  0.00000000000E+00  0.00000000000E+00  0.36461559826E+03  0.36461559826E+03  0.00000000000E+00 0. -1.
         -3   -1    0    0    0  501 -0.00000000000E+00 -0.00000000000E+00 -0.68640371018E+03  0.68640371018E+03  0.00000000000E+00 0. -1.
         36    2    1    2    0    0  0.00000000000E+00 -0.17763568394E-14 -0.32178811192E+03  0.10510193084E+04  0.10005468493E+04 0.  0.
         25    2    3    3    0    0  0.10995852956E+02  0.28088937296E+01 -0.20964340472E+03  0.24290306484E+03  0.12215868001E+03 0.  0.
         35    2    3    3    0    0 -0.10995852956E+02 -0.28088937296E+01 -0.11214470720E+03  0.80811624359E+03  0.80021661388E+03 0.  0.
         22    1    5    5    0    0  0.31251428645E+03  0.17129470694E+03 -0.22779071461E+03  0.42296059571E+03  0.00000000000E+00 0.  1.
         22    1    5    5    0    0 -0.32351013941E+03 -0.17410360067E+03  0.11564600740E+03  0.38515564788E+03  0.00000000000E+00 0.  1.
          5    1    4    4  502    0  0.38844664968E+02  0.16684420310E+02 -0.14053521631E+02  0.44798095359E+02  0.47000000000E+01 0. -1.
         -5    1    4    4    0  502 -0.27848812012E+02 -0.13875526581E+02 -0.19558988308E+03  0.19810496948E+03  0.47000000000E+01 0. -1.
<mgrwt>
<rscale>  0 0.10005468E+04</rscale>
<asrwt>0</asrwt>
<pdfrwt beam="1">  1        3 0.56094708E-01 0.10005468E+04</pdfrwt>
<pdfrwt beam="2">  1       -3 0.10560057E+00 0.10005468E+04</pdfrwt>
<totfact> 0.87742060E+00</totfact>
</mgrwt>
</event>
<event>
 9    1  0.4321150E-036  0.1001118E+04  0.7818608E-02  0.8679974E-01
          3   -1    0    0  501    0  0.00000000000E+00  0.00000000000E+00  0.47016510454E+03  0.47016510454E+03  0.00000000000E+00 0.  1.
         -3   -1    0    0    0  501 -0.00000000000E+00 -0.00000000000E+00 -0.53291773573E+03  0.53291773573E+03  0.00000000000E+00 0.  1.
         36    2    1    2    0    0  0.00000000000E+00  0.00000000000E+00 -0.62752631192E+02  0.10030828403E+04  0.10011180209E+04 0.  0.
         25    2    3    3    0    0 -0.10436866253E+03  0.43033952856E+02  0.73566625806E+02  0.18424263873E+03  0.12565254744E+03 0.  0.
         35    2    3    3    0    0  0.10436866253E+03 -0.43033952856E+02 -0.13631925700E+03  0.81884020154E+03  0.79948208048E+03 0.  0.
         22    1    5    5    0    0 -0.34400144475E+03 -0.80251707078E+02 -0.18328055608E+02  0.35371351134E+03  0.00000000000E+00 0.  1.
         22    1    5    5    0    0  0.44837010729E+03  0.37217754222E+02 -0.11799120139E+03  0.46512669021E+03  0.00000000000E+00 0.  1.
          5    1    4    4  502    0  0.29184133979E+02  0.94384751077E+01  0.15927856721E+02  0.34879580104E+02  0.47000000000E+01 0. -1.
         -5    1    4    4    0  502 -0.13355279651E+03  0.33595477748E+02  0.57638769085E+02  0.14936305863E+03  0.47000000000E+01 0. -1.
<mgrwt>
<rscale>  0 0.10011180E+04</rscale>
<asrwt>0</asrwt>
<pdfrwt beam="1">  1        3 0.72333093E-01 0.10011180E+04</pdfrwt>
<pdfrwt beam="2">  1       -3 0.81987344E-01 0.10011180E+04</pdfrwt>
<totfact> 0.97885850E+00</totfact>
</mgrwt>
</event>
<event>
 9    1  0.4321150E-036  0.1000816E+04  0.7818608E-02  0.8680262E-01
         -1   -1    0    0    0  501 -0.00000000000E+00  0.00000000000E+00  0.38248089786E+03  0.38248089786E+03  0.00000000000E+00 0.  1.
          1   -1    0    0  501    0  0.00000000000E+00 -0.00000000000E+00 -0.65469418493E+03  0.65469418493E+03  0.00000000000E+00 0.  1.
         36    2    1    2    0    0 -0.14210854715E-13 -0.28421709430E-13 -0.27221328707E+03  0.10371750828E+04  0.10008157067E+04 0.  0.
         25    2    3    3    0    0  0.25491426580E+02  0.12131654390E+03 -0.11943589383E+03  0.21290590828E+03  0.12528557936E+03 0.  0.
         35    2    3    3    0    0 -0.25491426580E+02 -0.12131654390E+03 -0.15277739325E+03  0.82426917451E+03  0.80044439127E+03 0.  0.
         22    1    5    5    0    0 -0.25299298705E+03  0.23723492324E+03 -0.19441437073E+03  0.39759628752E+03  0.00000000000E+00 0. -1.
         22    1    5    5    0    0  0.22750156047E+03 -0.35855146713E+03  0.41636977486E+02  0.42667288699E+03  0.00000000000E+00 0. -1.
          5    1    4    4  502    0  0.75630750051E+01  0.69926014439E+02 -0.13820282155E+03  0.15514173353E+03  0.47000000000E+01 0.  1.
         -5    1    4    4    0  502  0.17928351575E+02  0.51390529456E+02  0.18766927725E+02  0.57764174747E+02  0.47000000000E+01 0.  1.
<mgrwt>
<rscale>  0 0.10008157E+04</rscale>
<asrwt>0</asrwt>
<pdfrwt beam="1">  1        1 0.10072218E+00 0.10008157E+04</pdfrwt>
<pdfrwt beam="2">  1       -1 0.58843216E-01 0.10008157E+04</pdfrwt>
<totfact> 0.10194426E+02</totfact>
</mgrwt>
</event>
<event>
 9    1  0.4321150E-036  0.9988284E+03  0.7818608E-02  0.8682154E-01
         -1   -1    0    0    0  501 -0.00000000000E+00  0.00000000000E+00  0.30917124482E+03  0.30917124482E+03  0.00000000000E+00 0. -1.
          1   -1    0    0  501    0  0.00000000000E+00 -0.00000000000E+00 -0.80671968419E+03  0.80671968419E+03  0.00000000000E+00 0. -1.
         36    2    1    2    0    0  0.71054273576E-14  0.14210854715E-13 -0.49754843936E+03  0.11158909290E+04  0.99882837161E+03 0.  0.
         25    2    3    3    0    0  0.99480807448E+01 -0.30066465942E+02  0.58576723744E+02  0.14112251552E+03  0.12442417424E+03 0.  0.
         35    2    3    3    0    0 -0.99480807448E+01  0.30066465942E+02 -0.55612516311E+03  0.97476841349E+03  0.79993456371E+03 0.  0.
         22    1    5    5    0    0  0.10930967490E+03 -0.34320647289E+03 -0.10078611401E+03  0.37402824605E+03  0.00000000000E+00 0.  1.
         22    1    5    5    0    0 -0.11925775565E+03  0.37327293884E+03 -0.45533904910E+03  0.60074016745E+03  0.00000000000E+00 0.  1.
          5    1    4    4  502    0 -0.10933533926E+02 -0.12217373345E+02 -0.37440547553E+02  0.41142325853E+02  0.47000000000E+01 0.  1.
         -5    1    4    4    0  502  0.20881614670E+02 -0.17849092596E+02  0.96017271297E+02  0.99980189663E+02  0.47000000000E+01 0.  1.
<mgrwt>
<rscale>  0 0.99882837E+03</rscale>
<asrwt>0</asrwt>
<pdfrwt beam="1">  1        1 0.12411072E+00 0.99882837E+03</pdfrwt>
<pdfrwt beam="2">  1       -1 0.47564807E-01 0.99882837E+03</pdfrwt>
<totfact> 0.10955052E+02</totfact>
</mgrwt>
</event>
<event>
 9    1  0.4321150E-036  0.1007361E+04  0.7818608E-02  0.8674060E-01
         -2   -1    0    0    0  501 -0.00000000000E+00  0.00000000000E+00  0.18093537662E+03  0.18093537662E+03  0.00000000000E+00 0. -1.
          2   -1    0    0  501    0  0.00000000000E+00 -0.00000000000E+00 -0.14021237933E+04  0.14021237933E+04  0.00000000000E+00 0. -1.
         36    2    1    2    0    0  0.14210854715E-13  0.14210854715E-13 -0.12211884167E+04  0.15830591699E+04  0.10073605047E+04 0.  0.
         25    2    3    3    0    0  0.79072094051E+02  0.10007532832E+03 -0.12251485464E+03  0.21816745329E+03  0.12774850556E+03 0.  0.
         35    2    3    3    0    0 -0.79072094051E+02 -0.10007532832E+03 -0.10986735620E+04  0.13648917166E+04  0.79973641582E+03 0.  0.
         22    1    5    5    0    0 -0.18358509503E+03 -0.26089041163E+03 -0.11267640854E+04  0.11710527734E+04  0.00000000000E+00 0. -1.
         22    1    5    5    0    0  0.10451300098E+03  0.16081508331E+03  0.28090523377E+02  0.19383894319E+03  0.00000000000E+00 0. -1.
          5    1    4    4  502    0  0.49170028199E+02 -0.51772259007E+01 -0.91881713058E+02  0.10444536627E+03  0.47000000000E+01 0.  1.
         -5    1    4    4    0  502  0.29902065852E+02  0.10525255422E+03 -0.30633141578E+02  0.11372208702E+03  0.47000000000E+01 0.  1.
<mgrwt>
<rscale>  0 0.10073605E+04</rscale>
<asrwt>0</asrwt>
<pdfrwt beam="1">  1        2 0.21571136E+00 0.10073605E+04</pdfrwt>
<pdfrwt beam="2">  1       -2 0.27836211E-01 0.10073605E+04</pdfrwt>
<totfact> 0.20386148E+02</totfact>
</mgrwt>
</event>
<event>
 9    1  0.4321150E-036  0.1000494E+04  0.7818608E-02  0.8680568E-01
         -2   -1    0    0    0  501 -0.00000000000E+00  0.00000000000E+00  0.32280014810E+03  0.32280014810E+03  0.00000000000E+00 0. -1.
          2   -1    0    0  501    0  0.00000000000E+00 -0.00000000000E+00 -0.77523846258E+03  0.77523846258E+03  0.00000000000E+00 0. -1.
         36    2    1    2    0    0 -0.42632564146E-13  0.00000000000E+00 -0.45243831447E+03  0.10980386107E+04  0.10004940590E+04 0.  0.
         25    2    3    3    0    0 -0.98843794545E+02 -0.84562168839E+02 -0.14239490858E+03  0.23001265516E+03  0.12533417501E+03 0.  0.
         35    2    3    3    0    0  0.98843794545E+02  0.84562168839E+02 -0.31004340590E+03  0.86802595552E+03  0.80026326281E+03 0.  0.
         22    1    5    5    0    0  0.37231910382E+03  0.27786854040E+03 -0.25072453645E+03  0.52791593459E+03  0.00000000000E+00 0. -1.
         22    1    5    5    0    0 -0.27347530928E+03 -0.19330637156E+03 -0.59318869450E+02  0.34011002094E+03  0.00000000000E+00 0. -1.
          5    1    4    4  502    0 -0.21476936119E+02 -0.87590843745E+02 -0.33512530245E+02  0.96325460686E+02  0.47000000000E+01 0. -1.
         -5    1    4    4    0  502 -0.77366858425E+02  0.30286749055E+01 -0.10888237833E+03  0.13368719447E+03  0.47000000000E+01 0. -1.
<mgrwt>
<rscale>  0 0.10004941E+04</rscale>
<asrwt>0</asrwt>
<pdfrwt beam="1">  1        2 0.11926745E+00 0.10004941E+04</pdfrwt>
<pdfrwt beam="2">  1       -2 0.49661562E-01 0.10004941E+04</pdfrwt>
<totfact> 0.16678858E+02</totfact>
</mgrwt>
</event>
<event>
 9    1  0.4321150E-036  0.1001073E+04  0.7818608E-02  0.8680017E-01
         -2   -1    0    0    0  501 -0.00000000000E+00  0.00000000000E+00  0.79924324043E+02  0.79924324043E+02  0.00000000000E+00 0.  1.
          2   -1    0    0  501    0  0.00000000000E+00 -0.00000000000E+00 -0.31346753242E+04  0.31346753242E+04  0.00000000000E+00 0.  1.
         36    2    1    2    0    0 -0.35527136788E-14  0.14210854715E-13 -0.30547510001E+04  0.32145996482E+04  0.10010730371E+04 0.  0.
         25    2    3    3    0    0  0.28212333140E+02 -0.10435694061E+03 -0.86963445258E+03  0.88520925334E+03  0.12508011151E+03 0.  0.
         35    2    3    3    0    0 -0.28212333140E+02  0.10435694061E+03 -0.21851165476E+04  0.23293903949E+04  0.79977432977E+03 0.  0.
         22    1    5    5    0    0  0.67369984431E+02 -0.28543749225E+03 -0.37901706553E+03  0.47923607205E+03  0.00000000000E+00 0.  1.
         22    1    5    5    0    0 -0.95582317570E+02  0.38979443287E+03 -0.18060994820E+04  0.18501543228E+04  0.00000000000E+00 0.  1.
          5    1    4    4  502    0 -0.17396597207E+02 -0.11861162621E+02 -0.52503601223E+03  0.52547905088E+03  0.47000000000E+01 0. -1.
         -5    1    4    4    0  502  0.45608930347E+02 -0.92495777993E+02 -0.34459844035E+03  0.35973020246E+03  0.47000000000E+01 0. -1.
<mgrwt>
<rscale>  0 0.10010730E+04</rscale>
<asrwt>0</asrwt>
<pdfrwt beam="1">  1        2 0.48225776E+00 0.10010730E+04</pdfrwt>
<pdfrwt beam="2">  1       -2 0.12296049E-01 0.10010730E+04</pdfrwt>
<totfact> 0.75463405E+01</totfact>
</mgrwt>
</event>
<event>
 9    1  0.4321150E-036  0.1000916E+04  0.7818608E-02  0.8680166E-01
         -1   -1    0    0    0  501 -0.00000000000E+00  0.00000000000E+00  0.13192425011E+03  0.13192425011E+03  0.00000000000E+00 0.  1.
          1   -1    0    0  501    0  0.00000000000E+00 -0.00000000000E+00 -0.18985013959E+04  0.18985013959E+04  0.00000000000E+00 0.  1.
         36    2    1    2    0    0 -0.28421709430E-13  0.00000000000E+00 -0.17665771458E+04  0.20304256460E+04  0.10009163261E+04 0.  0.
         25    2    3    3    0    0 -0.99411731344E+02 -0.47323618449E+02 -0.15321590655E+03  0.22625626326E+03  0.12487820247E+03 0.  0.
         35    2    3    3    0    0  0.99411731344E+02  0.47323618449E+02 -0.16133612392E+04  0.18041693827E+04  0.79998153488E+03 0.  0.
         22    1    5    5    0    0 -0.14650282666E+03 -0.18260675528E+03 -0.13672310704E+04  0.13871298083E+04  0.00000000000E+00 0. -1.
         22    1    5    5    0    0  0.24591455801E+03  0.22993037372E+03 -0.24613016879E+03  0.41703957437E+03  0.00000000000E+00 0. -1.
          5    1    4    4  502    0 -0.54302325448E+00 -0.39457099983E+02  0.43890874414E+01  0.39981391945E+02  0.47000000000E+01 0.  1.
         -5    1    4    4    0  502 -0.98868708089E+02 -0.78665184664E+01 -0.15760499400E+03  0.18627487132E+03  0.47000000000E+01 0.  1.
<mgrwt>
<rscale>  0 0.10009163E+04</rscale>
<asrwt>0</asrwt>
<pdfrwt beam="1">  1        1 0.29207714E+00 0.10009163E+04</pdfrwt>
<pdfrwt beam="2">  1       -1 0.20296038E-01 0.10009163E+04</pdfrwt>
<totfact> 0.73228123E+01</totfact>
</mgrwt>
</event>
<event>
 9    1  0.4321150E-036  0.1000273E+04  0.7818608E-02  0.8680778E-01
          2   -1    0    0  501    0  0.00000000000E+00  0.00000000000E+00  0.25043178189E+04  0.25043178189E+04  0.00000000000E+00 0.  1.
         -2   -1    0    0    0  501 -0.00000000000E+00 -0.00000000000E+00 -0.99881998980E+02  0.99881998980E+02  0.00000000000E+00 0.  1.
         36    2    1    2    0    0  0.14210854715E-13  0.28421709430E-13  0.24044358199E+04  0.26041998179E+04  0.10002725025E+04 0.  0.
         25    2    3    3    0    0 -0.84802196074E+02 -0.10789637855E+03  0.35274380152E+03  0.39758747965E+03  0.12171513258E+03 0.  0.
         35    2    3    3    0    0  0.84802196074E+02  0.10789637855E+03  0.20516920184E+04  0.22066123383E+04  0.80054033747E+03 0.  0.
         22    1    5    5    0    0  0.19395019042E+03 -0.21952583483E+03  0.16553110254E+04  0.16810302970E+04  0.00000000000E+00 0.  1.
         22    1    5    5    0    0 -0.10914799434E+03  0.32742221337E+03  0.39638099298E+03  0.52558204124E+03  0.00000000000E+00 0.  1.
          5    1    4    4  502    0 -0.10533807471E+03 -0.76401199218E+02  0.32646555472E+03  0.35147560605E+03  0.47000000000E+01 0.  1.
         -5    1    4    4    0  502  0.20535878637E+02 -0.31495179329E+02  0.26278246802E+02  0.46111873605E+02  0.47000000000E+01 0.  1.
<mgrwt>
<rscale>  0 0.10002725E+04</rscale>
<asrwt>0</asrwt>
<pdfrwt beam="1">  1        2 0.38527962E+00 0.10002725E+04</pdfrwt>
<pdfrwt beam="2">  1       -2 0.15366463E-01 0.10002725E+04</pdfrwt>
<totfact> 0.13291858E+02</totfact>
</mgrwt>
</event>
<event>
 9    1  0.4321150E-036  0.9996659E+03  0.7818608E-02  0.8681356E-01
          2   -1    0    0  501    0  0.00000000000E+00  0.00000000000E+00  0.81418553180E+03  0.81418553180E+03  0.00000000000E+00 0. -1.
         -2   -1    0    0    0  501 -0.00000000000E+00 -0.00000000000E+00 -0.30685019555E+03  0.30685019555E+03  0.00000000000E+00 0. -1.
         36    2    1    2    0    0  0.00000000000E+00  0.71054273576E-14  0.50733533625E+03  0.11210357274E+04  0.99966592349E+03 0.  0.
         25    2    3    3    0    0  0.13541042815E+03  0.26901414798E+02  0.89039405522E+02  0.20700275327E+03  0.12594623438E+03 0.  0.
         35    2    3    3    0    0 -0.13541042815E+03 -0.26901414798E+02  0.41829593073E+03  0.91403297408E+03  0.80089020588E+03 0.  0.
         22    1    5    5    0    0  0.11445693675E+03  0.28774326364E+03  0.40787013266E+03  0.51210801718E+03  0.00000000000E+00 0. -1.
         22    1    5    5    0    0 -0.24986736490E+03 -0.31464467844E+03  0.10425798065E+02  0.40192495690E+03  0.00000000000E+00 0. -1.
          5    1    4    4  502    0  0.46683621352E+02 -0.31871770840E+02  0.82701421711E+02  0.10028352523E+03  0.47000000000E+01 0. -1.
         -5    1    4    4    0  502  0.88726806798E+02  0.58773185637E+02  0.63379838109E+01  0.10671922804E+03  0.47000000000E+01 0. -1.
<mgrwt>
<rscale>  0 0.99966592E+03</rscale>
<asrwt>0</asrwt>
<pdfrwt beam="1">  1        2 0.12525931E+00 0.99966592E+03</pdfrwt>
<pdfrwt beam="2">  1       -2 0.47207723E-01 0.99966592E+03</pdfrwt>
<totfact> 0.17317728E+02</totfact>
</mgrwt>
</event>
<event>
 9    1  0.4321150E-036  0.9998891E+03  0.7818608E-02  0.8681144E-01
         -1   -1    0    0    0  501 -0.00000000000E+00  0.00000000000E+00  0.18446445505E+04  0.18446445505E+04  0.00000000000E+00 0.  1.
          1   -1    0    0  501    0  0.00000000000E+00 -0.00000000000E+00 -0.13549739601E+03  0.13549739601E+03  0.00000000000E+00 0.  1.
         36    2    1    2    0    0  0.28421709430E-13 -0.14210854715E-13  0.17091471545E+04  0.19801419465E+04  0.99988906015E+03 0.  0.
         25    2    3    3    0    0  0.81353907208E+02 -0.10373816017E+03  0.41298455265E+03  0.45090923650E+03  0.12402755640E+03 0.  0.
         35    2    3    3    0    0 -0.81353907208E+02  0.10373816017E+03  0.12961626019E+04  0.15292327100E+04  0.80070913997E+03 0.  0.
         22    1    5    5    0    0 -0.36394478168E+03  0.73485521712E+02  0.25612102698E+03  0.45105865081E+03  0.00000000000E+00 0.  1.
         22    1    5    5    0    0  0.28259087447E+03  0.30252638455E+02  0.10400415749E+04  0.10781740592E+04  0.00000000000E+00 0.  1.
          5    1    4    4  502    0  0.73787526650E+02  0.21212272493E+01  0.19073662041E+03  0.20457675103E+03  0.47000000000E+01 0.  1.
         -5    1    4    4    0  502  0.75663805582E+01 -0.10585938742E+03  0.22224793223E+03  0.24633248548E+03  0.47000000000E+01 0.  1.
<mgrwt>
<rscale>  0 0.99988906E+03</rscale>
<asrwt>0</asrwt>
<pdfrwt beam="1">  1        1 0.20845755E-01 0.99988906E+03</pdfrwt>
<pdfrwt beam="2">  1       -1 0.28379145E+00 0.99988906E+03</pdfrwt>
<totfact> 0.62794331E+00</totfact>
</mgrwt>
</event>
<event>
 9    1  0.4321150E-036  0.9983353E+03  0.7818608E-02  0.8682625E-01
         -2   -1    0    0    0  501 -0.00000000000E+00  0.00000000000E+00  0.29779199054E+03  0.29779199054E+03  0.00000000000E+00 0.  1.
          2   -1    0    0  501    0  0.00000000000E+00 -0.00000000000E+00 -0.83671948620E+03  0.83671948620E+03  0.00000000000E+00 0.  1.
         36    2    1    2    0    0 -0.14210854715E-13 -0.14210854715E-13 -0.53892749566E+03  0.11345114767E+04  0.99833533709E+03 0.  0.
         25    2    3    3    0    0  0.50339136234E+02  0.11892184136E+03 -0.15722509218E+03  0.23901749979E+03  0.12543206372E+03 0.  0.
         35    2    3    3    0    0 -0.50339136234E+02 -0.11892184136E+03 -0.38170240348E+03  0.89549397695E+03  0.79971013808E+03 0.  0.
         22    1    5    5    0    0 -0.23245235705E+03 -0.16820562828E+03 -0.56422429777E+03  0.63298996033E+03  0.00000000000E+00 0.  1.
         22    1    5    5    0    0  0.18211322082E+03  0.49283786928E+02  0.18252189429E+03  0.26250401662E+03  0.00000000000E+00 0.  1.
          5    1    4    4  502    0  0.65864595705E+02  0.52248512970E+02 -0.14732287513E+03  0.16968845456E+03  0.47000000000E+01 0.  1.
         -5    1    4    4    0  502 -0.15525459471E+02  0.66673328385E+02 -0.99022170436E+01  0.69329045228E+02  0.47000000000E+01 0.  1.
<mgrwt>
<rscale>  0 0.99833534E+03</rscale>
<asrwt>0</asrwt>
<pdfrwt beam="1">  1        2 0.12872607E+00 0.99833534E+03</pdfrwt>
<pdfrwt beam="2">  1       -2 0.45814154E-01 0.99833534E+03</pdfrwt>
<totfact> 0.17726699E+02</totfact>
</mgrwt>
</event>
<event>
 9    1  0.4321150E-036  0.1006228E+04  0.7818608E-02  0.8675129E-01
         -1   -1    0    0    0  501 -0.00000000000E+00  0.00000000000E+00  0.53338588423E+03  0.53338588423E+03  0.00000000000E+00 0. -1.
          1   -1    0    0  501    0  0.00000000000E+00 -0.00000000000E+00 -0.47456059437E+03  0.47456059437E+03  0.00000000000E+00 0. -1.
         36    2    1    2    0    0 -0.17763568394E-14  0.00000000000E+00  0.58825289859E+02  0.10079464786E+04  0.10062284477E+04 0.  0.
         25    2    3    3    0    0 -0.10322630224E+02 -0.70649859900E+02  0.14047110468E+03  0.20004097102E+03  0.12323270442E+03 0.  0.
         35    2    3    3    0    0  0.10322630224E+02  0.70649859900E+02 -0.81645814825E+02  0.80790550757E+03  0.80059185025E+03 0.  0.
         22    1    5    5    0    0  0.56915811272E+02 -0.26984772097E+03  0.21831847072E+03  0.35173876207E+03  0.00000000000E+00 0. -1.
         22    1    5    5    0    0 -0.46593181048E+02  0.34049758087E+03 -0.29996428555E+03  0.45616674550E+03  0.00000000000E+00 0. -1.
          5    1    4    4  502    0 -0.29015233583E+01  0.27667602247E+02 -0.17379753492E+00  0.28214096787E+02  0.47000000000E+01 0. -1.
         -5    1    4    4    0  502 -0.74211068657E+01 -0.98317462148E+02  0.14064490222E+03  0.17182687424E+03  0.47000000000E+01 0. -1.
<mgrwt>
<rscale>  0 0.10062284E+04</rscale>
<asrwt>0</asrwt>
<pdfrwt beam="1">  1        1 0.73009322E-01 0.10062284E+04</pdfrwt>
<pdfrwt beam="2">  1       -1 0.82059367E-01 0.10062284E+04</pdfrwt>
<totfact> 0.83274182E+01</totfact>
</mgrwt>
</event>
<event>
 9    1  0.4321150E-036  0.9939193E+03  0.7818608E-02  0.8686850E-01
          1   -1    0    0  501    0  0.00000000000E+00  0.00000000000E+00  0.21307436875E+04  0.21307436875E+04  0.00000000000E+00 0. -1.
         -1   -1    0    0    0  501 -0.00000000000E+00 -0.00000000000E+00 -0.11590736734E+03  0.11590736734E+03  0.00000000000E+00 0. -1.
         36    2    1    2    0    0 -0.28421709430E-13  0.71054273576E-14  0.20148363202E+04  0.22466510549E+04  0.99391929513E+03 0.  0.
         25    2    3    3    0    0 -0.12629509317E+03  0.25782025998E+02  0.44628168566E+03  0.48094349232E+03  0.12459589249E+03 0.  0.
         35    2    3    3    0    0  0.12629509317E+03 -0.25782025998E+02  0.15685546345E+04  0.17657075626E+04  0.80046510951E+03 0.  0.
         22    1    5    5    0    0  0.29872769651E+03  0.30091701117E+03  0.65471831299E+03  0.78002907230E+03  0.00000000000E+00 0.  1.
         22    1    5    5    0    0 -0.17243260333E+03 -0.32669903717E+03  0.91383632154E+03  0.98567849026E+03  0.00000000000E+00 0.  1.
          5    1    4    4  502    0 -0.10743569494E+03 -0.20387965739E+02  0.39237083041E+03  0.40735126887E+03  0.47000000000E+01 0. -1.
         -5    1    4    4    0  502 -0.18859398233E+02  0.46169991737E+02  0.53910855255E+02  0.73592223455E+02  0.47000000000E+01 0. -1.
<mgrwt>
<rscale>  0 0.99391930E+03</rscale>
<asrwt>0</asrwt>
<pdfrwt beam="1">  1        1 0.32780669E+00 0.99391930E+03</pdfrwt>
<pdfrwt beam="2">  1       -1 0.17831904E-01 0.99391930E+03</pdfrwt>
<totfact> 0.62310489E+01</totfact>
</mgrwt>
</event>
<event>
 9    1  0.4321150E-036  0.9997054E+03  0.7818608E-02  0.8681319E-01
          2   -1    0    0  501    0  0.00000000000E+00  0.00000000000E+00  0.17559278303E+04  0.17559278303E+04  0.00000000000E+00 0. -1.
         -2   -1    0    0    0  501 -0.00000000000E+00 -0.00000000000E+00 -0.14229098482E+03  0.14229098482E+03  0.00000000000E+00 0. -1.
         36    2    1    2    0    0 -0.28421709430E-13 -0.21316282073E-13  0.16136368455E+04  0.18982188151E+04  0.99970535710E+03 0.  0.
         25    2    3    3    0    0  0.13240283041E+03 -0.50496425259E+02  0.30050696720E+03  0.35405540421E+03  0.12235355920E+03 0.  0.
         35    2    3    3    0    0 -0.13240283041E+03  0.50496425259E+02  0.13131298783E+04  0.15441634109E+04  0.80003135183E+03 0.  0.
         22    1    5    5    0    0 -0.32108558262E+03  0.30676789462E+03  0.48809043733E+03  0.65987481203E+03  0.00000000000E+00 0.  1.
         22    1    5    5    0    0  0.18868275221E+03 -0.25627146936E+03  0.82503944098E+03  0.88428859891E+03  0.00000000000E+00 0.  1.
          5    1    4    4  502    0  0.48641226554E+02 -0.74660075841E+02  0.92769082531E+02  0.12871786402E+03  0.47000000000E+01 0. -1.
         -5    1    4    4    0  502  0.83761603857E+02  0.24163650582E+02  0.20773788467E+03  0.22533754018E+03  0.47000000000E+01 0. -1.
<mgrwt>
<rscale>  0 0.99970536E+03</rscale>
<asrwt>0</asrwt>
<pdfrwt beam="1">  1        2 0.27014273E+00 0.99970536E+03</pdfrwt>
<pdfrwt beam="2">  1       -2 0.21890922E-01 0.99970536E+03</pdfrwt>
<totfact> 0.19693246E+02</totfact>
</mgrwt>
</event>
<event>
 9    1  0.4321150E-036  0.9980054E+03  0.7818608E-02  0.8682940E-01
         -2   -1    0    0    0  501 -0.00000000000E+00  0.00000000000E+00  0.92056222522E+03  0.92056222522E+03  0.00000000000E+00 0.  1.
          2   -1    0    0  501    0  0.00000000000E+00 -0.00000000000E+00 -0.27049089943E+03  0.27049089943E+03  0.00000000000E+00 0.  1.
         36    2    1    2    0    0  0.00000000000E+00 -0.28421709430E-13  0.65007132579E+03  0.11910531246E+04  0.99800541939E+03 0.  0.
         25    2    3    3    0    0 -0.71682789383E+02 -0.91941368748E+02  0.42812635501E+02  0.17618969236E+03  0.12497299050E+03 0.  0.
         35    2    3    3    0    0  0.71682789383E+02  0.91941368748E+02  0.60725869029E+03  0.10148634323E+04  0.80473165198E+03 0.  0.
         22    1    5    5    0    0  0.35644023392E+03 -0.19376250861E+03  0.25388765535E+03  0.47859428709E+03  0.00000000000E+00 0. -1.
         22    1    5    5    0    0 -0.28475744454E+03  0.28570387736E+03  0.35337103494E+03  0.53626914520E+03  0.00000000000E+00 0. -1.
          5    1    4    4  502    0 -0.32580848716E+02  0.11870267747E+02  0.54265220990E+02  0.64569491004E+02  0.47000000000E+01 0.  1.
         -5    1    4    4    0  502 -0.39101940667E+02 -0.10381163650E+03 -0.11452585488E+02  0.11162020135E+03  0.47000000000E+01 0.  1.
<mgrwt>
<rscale>  0 0.99800542E+03</rscale>
<asrwt>0</asrwt>
<pdfrwt beam="1">  1        2 0.41613985E-01 0.99800542E+03</pdfrwt>
<pdfrwt beam="2">  1       -2 0.14162496E+00 0.99800542E+03</pdfrwt>
<totfact> 0.49017396E+01</totfact>
</mgrwt>
</event>
<event>
 9    1  0.4321150E-036  0.1005704E+04  0.7818608E-02  0.8675625E-01
          2   -1    0    0  501    0  0.00000000000E+00  0.00000000000E+00  0.32739304332E+03  0.32739304332E+03  0.00000000000E+00 0.  1.
         -2   -1    0    0    0  501 -0.00000000000E+00 -0.00000000000E+00 -0.77234349066E+03  0.77234349066E+03  0.00000000000E+00 0.  1.
         36    2    1    2    0    0 -0.14210854715E-13  0.00000000000E+00 -0.44495044735E+03  0.10997365340E+04  0.10057035068E+04 0.  0.
         25    2    3    3    0    0 -0.28817165155E+02  0.14355389376E+03 -0.73471645061E+02  0.20646432518E+03  0.12566338179E+03 0.  0.
         35    2    3    3    0    0  0.28817165155E+02 -0.14355389376E+03 -0.37147880229E+03  0.89327220880E+03  0.79906231862E+03 0.  0.
         22    1    5    5    0    0  0.18830803634E+03  0.20346879045E+03 -0.42519665222E+03  0.50759398962E+03  0.00000000000E+00 0.  1.
         22    1    5    5    0    0 -0.15949087119E+03 -0.34702268421E+03  0.53717849935E+02  0.38567821918E+03  0.00000000000E+00 0.  1.
          5    1    4    4  502    0 -0.49025491548E+02  0.13677549495E+02 -0.52512228696E+02  0.73281637156E+02  0.47000000000E+01 0.  1.
         -5    1    4    4    0  502  0.20208326393E+02  0.12987634426E+03 -0.20959416365E+02  0.13318268802E+03  0.47000000000E+01 0.  1.
<mgrwt>
<rscale>  0 0.10057035E+04</rscale>
<asrwt>0</asrwt>
<pdfrwt beam="1">  1        2 0.50368162E-01 0.10057035E+04</pdfrwt>
<pdfrwt beam="2">  1       -2 0.11882207E+00 0.10057035E+04</pdfrwt>
<totfact> 0.63238511E+01</totfact>
</mgrwt>
</event>
<event>
 9    1  0.4321150E-036  0.1000195E+04  0.7818608E-02  0.8680852E-01
         -2   -1    0    0    0  501 -0.00000000000E+00  0.00000000000E+00  0.17709953279E+03  0.17709953279E+03  0.00000000000E+00 0. -1.
          2   -1    0    0  501    0  0.00000000000E+00 -0.00000000000E+00 -0.14121860324E+04  0.14121860324E+04  0.00000000000E+00 0. -1.
         36    2    1    2    0    0 -0.14210854715E-13  0.21316282073E-13 -0.12350864996E+04  0.15892855651E+04  0.10001949541E+04 0.  0.
         25    2    3    3    0    0  0.44606920248E+02 -0.47996504496E+02 -0.32480115004E+02  0.14437146084E+03  0.12447778539E+03 0.  0.
         35    2    3    3    0    0 -0.44606920248E+02  0.47996504496E+02 -0.12026063846E+04  0.14449141043E+04  0.79826136750E+03 0.  0.
         22    1    5    5    0    0 -0.23661804480E+03  0.36143382561E+03 -0.60743828485E+03  0.74538834128E+03  0.00000000000E+00 0. -1.
         22    1    5    5    0    0  0.19201112455E+03 -0.31343732111E+03 -0.59516809971E+03  0.69952576302E+03  0.00000000000E+00 0. -1.
          5    1    4    4  502    0  0.26242332126E+01  0.33181097349E+02  0.19765891713E+02  0.38995542007E+02  0.47000000000E+01 0.  1.
         -5    1    4    4    0  502  0.41982687036E+02 -0.81177601844E+02 -0.52246006717E+02  0.10537591883E+03  0.47000000000E+01 0.  1.
<mgrwt>
<rscale>  0 0.10001950E+04</rscale>
<asrwt>0</asrwt>
<pdfrwt beam="1">  1        2 0.21725939E+00 0.10001950E+04</pdfrwt>
<pdfrwt beam="2">  1       -2 0.27246082E-01 0.10001950E+04</pdfrwt>
<totfact> 0.20909884E+02</totfact>
</mgrwt>
</event>
<event>
 9    1  0.4321150E-036  0.9994810E+03  0.7818608E-02  0.8681532E-01
         -2   -1    0    0    0  501 -0.00000000000E+00  0.00000000000E+00  0.40854492344E+03  0.40854492344E+03  0.00000000000E+00 0. -1.
          2   -1    0    0  501    0  0.00000000000E+00 -0.00000000000E+00 -0.61129274093E+03  0.61129274093E+03  0.00000000000E+00 0. -1.
         36    2    1    2    0    0  0.00000000000E+00 -0.17763568394E-13 -0.20274781748E+03  0.10198376644E+04  0.99948095739E+03 0.  0.
         25    2    3    3    0    0 -0.13917047682E+03 -0.15173616903E+02 -0.26779718851E+02  0.18980215679E+03  0.12533572960E+03 0.  0.
         35    2    3    3    0    0  0.13917047682E+03  0.15173616903E+02 -0.17596809863E+03  0.83003550758E+03  0.79899656560E+03 0.  0.
         22    1    5    5    0    0  0.28014465542E+01  0.26832753566E+03  0.21560202682E+03  0.34422630414E+03  0.00000000000E+00 0. -1.
         22    1    5    5    0    0  0.13636903026E+03 -0.25315391876E+03 -0.39157012545E+03  0.48580920344E+03  0.00000000000E+00 0. -1.
          5    1    4    4  502    0 -0.12472294020E+03 -0.40702316950E+02  0.21584109711E+02  0.13304305397E+03  0.47000000000E+01 0. -1.
         -5    1    4    4    0  502 -0.14447536620E+02  0.25528700047E+02 -0.48363828562E+02  0.56759102826E+02  0.47000000000E+01 0. -1.
<mgrwt>
<rscale>  0 0.99948096E+03</rscale>
<asrwt>0</asrwt>
<pdfrwt beam="1">  1        2 0.94045036E-01 0.99948096E+03</pdfrwt>
<pdfrwt beam="2">  1       -2 0.62853066E-01 0.99948096E+03</pdfrwt>
<totfact> 0.13763822E+02</totfact>
</mgrwt>
</event>
<event>
 9    1  0.4321150E-036  0.9987116E+03  0.7818608E-02  0.8682266E-01
          2   -1    0    0  501    0  0.00000000000E+00  0.00000000000E+00  0.37739868793E+03  0.37739868793E+03  0.00000000000E+00 0. -1.
         -2   -1    0    0    0  501 -0.00000000000E+00 -0.00000000000E+00 -0.66072365150E+03  0.66072365150E+03  0.00000000000E+00 0. -1.
         36    2    1    2    0    0 -0.28421709430E-13  0.71054273576E-14 -0.28332496357E+03  0.10381223394E+04  0.99871164840E+03 0.  0.
         25    2    3    3    0    0 -0.95125941388E+02  0.58256174815E+02 -0.14146808872E+03  0.21910831596E+03  0.12470969236E+03 0.  0.
         35    2    3    3    0    0  0.95125941388E+02 -0.58256174815E+02 -0.14185687486E+03  0.81901402348E+03  0.79888539296E+03 0.  0.
         22    1    5    5    0    0 -0.30768772566E+03  0.51503493894E+02 -0.23582190322E+03  0.39107073075E+03  0.00000000000E+00 0.  1.
         22    1    5    5    0    0  0.40281366705E+03 -0.10975966871E+03  0.93965028366E+02  0.42794329273E+03  0.00000000000E+00 0.  1.
          5    1    4    4  502    0 -0.26071659866E+02 -0.38468183461E+02 -0.26567658954E+02  0.53735119701E+02  0.47000000000E+01 0.  1.
         -5    1    4    4    0  502 -0.69054281521E+02  0.96724358276E+02 -0.11490042976E+03  0.16537319626E+03  0.47000000000E+01 0.  1.
<mgrwt>
<rscale>  0 0.99871165E+03</rscale>
<asrwt>0</asrwt>
<pdfrwt beam="1">  1        2 0.58061337E-01 0.99871165E+03</pdfrwt>
<pdfrwt beam="2">  1       -2 0.10164979E+00 0.99871165E+03</pdfrwt>
<totfact> 0.80040981E+01</totfact>
</mgrwt>
</event>
<event>
 9    1  0.4321150E-036  0.1003990E+04  0.7818608E-02  0.8677248E-01
          1   -1    0    0  501    0  0.00000000000E+00  0.00000000000E+00  0.13301463184E+04  0.13301463184E+04  0.00000000000E+00 0.  1.
         -1   -1    0    0    0  501 -0.00000000000E+00 -0.00000000000E+00 -0.18945200822E+03  0.18945200822E+03  0.00000000000E+00 0.  1.
         36    2    1    2    0    0  0.28421709430E-13  0.00000000000E+00  0.11406943102E+04  0.15195983266E+04  0.10039898232E+04 0.  0.
         25    2    3    3    0    0  0.13295315841E+03  0.61409055787E+02  0.16300089199E+03  0.25247615724E+03  0.12540855123E+03 0.  0.
         35    2    3    3    0    0 -0.13295315841E+03 -0.61409055787E+02  0.97769341821E+03  0.12671221694E+04  0.79263267514E+03 0.  0.
         22    1    5    5    0    0 -0.44036113543E+03  0.77209395814E+02  0.40884382450E+03  0.60583206686E+03  0.00000000000E+00 0. -1.
         22    1    5    5    0    0  0.30740797701E+03 -0.13861845160E+03  0.56884959371E+03  0.66129010254E+03  0.00000000000E+00 0. -1.
          5    1    4    4  502    0  0.15544687831E+03  0.62563782973E+02  0.12945810068E+03  0.21180049279E+03  0.47000000000E+01 0. -1.
         -5    1    4    4    0  502 -0.22493719893E+02 -0.11547271859E+01  0.33542791312E+02  0.40675664451E+02  0.47000000000E+01 0. -1.
<mgrwt>
<rscale>  0 0.10039898E+04</rscale>
<asrwt>0</asrwt>
<pdfrwt beam="1">  1        1 0.20463789E+00 0.10039898E+04</pdfrwt>
<pdfrwt beam="2">  1       -1 0.29146464E-01 0.10039898E+04</pdfrwt>
<totfact> 0.10092293E+02</totfact>
</mgrwt>
</event>
<event>
 9    1  0.4321150E-036  0.9999140E+03  0.7818608E-02  0.8681120E-01
         -2   -1    0    0    0  501 -0.00000000000E+00  0.00000000000E+00  0.14515158356E+03  0.14515158356E+03  0.00000000000E+00 0. -1.
          2   -1    0    0  501    0  0.00000000000E+00 -0.00000000000E+00 -0.17220410717E+04  0.17220410717E+04  0.00000000000E+00 0. -1.
         36    2    1    2    0    0  0.00000000000E+00  0.14210854715E-13 -0.15768894882E+04  0.18671926553E+04  0.99991397333E+03 0.  0.
         25    2    3    3    0    0 -0.91092041684E+02 -0.10678935009E+03 -0.33613713389E+03  0.38510951774E+03  0.12497776812E+03 0.  0.
         35    2    3    3    0    0  0.91092041684E+02  0.10678935009E+03 -0.12407523543E+04  0.14820831375E+04  0.79837478454E+03 0.  0.
         22    1    5    5    0    0 -0.14913842418E+03 -0.18263311596E+03 -0.10179765338E+04  0.10449274367E+04  0.00000000000E+00 0.  1.
         22    1    5    5    0    0  0.24023046586E+03  0.28942246605E+03 -0.22277582046E+03  0.43715570083E+03  0.00000000000E+00 0.  1.
          5    1    4    4  502    0 -0.15728700252E+02 -0.94412356787E+02 -0.10751836601E+03  0.14402560243E+03  0.47000000000E+01 0.  1.
         -5    1    4    4    0  502 -0.75363341432E+02 -0.12376993306E+02 -0.22861876788E+03  0.24108391531E+03  0.47000000000E+01 0.  1.
<mgrwt>
<rscale>  0 0.99991397E+03</rscale>
<asrwt>0</asrwt>
<pdfrwt beam="1">  1        2 0.26492940E+00 0.99991397E+03</pdfrwt>
<pdfrwt beam="2">  1       -2 0.22331012E-01 0.99991397E+03</pdfrwt>
<totfact> 0.19873949E+02</totfact>
</mgrwt>
</event>
<event>
 9    1  0.4321150E-036  0.1000062E+04  0.7818608E-02  0.8680979E-01
          4   -1    0    0  501    0  0.00000000000E+00  0.00000000000E+00  0.79655431487E+03  0.79655431487E+03  0.00000000000E+00 0.  1.
         -4   -1    0    0    0  501 -0.00000000000E+00 -0.00000000000E+00 -0.31389046351E+03  0.31389046351E+03  0.00000000000E+00 0.  1.
         36    2    1    2    0    0  0.00000000000E+00  0.00000000000E+00  0.48266385136E+03  0.11104447784E+04  0.10000616043E+04 0.  0.
         25    2    3    3    0    0  0.87699257085E+02 -0.93966759115E+02  0.38615739213E+02  0.18334678509E+03  0.12491579875E+03 0.  0.
         35    2    3    3    0    0 -0.87699257085E+02  0.93966759115E+02  0.44404811215E+03  0.92709799329E+03  0.80362370034E+03 0.  0.
         22    1    5    5    0    0  0.31438515172E+03 -0.16114064525E+02  0.39834868451E+03  0.50771976636E+03  0.00000000000E+00 0. -1.
         22    1    5    5    0    0 -0.40208440881E+03  0.11008082364E+03  0.45699427643E+02  0.41937822693E+03  0.00000000000E+00 0. -1.
          5    1    4    4  502    0  0.16027412132E+02 -0.10340792557E+03  0.36322074800E+02  0.11086685767E+03  0.47000000000E+01 0.  1.
         -5    1    4    4    0  502  0.71671844953E+02  0.94411664589E+01  0.22936644130E+01  0.72479927425E+02  0.47000000000E+01 0.  1.
<mgrwt>
<rscale>  0 0.10000616E+04</rscale>
<asrwt>0</asrwt>
<pdfrwt beam="1">  1        4 0.12254682E+00 0.10000616E+04</pdfrwt>
<pdfrwt beam="2">  1       -4 0.48290841E-01 0.10000616E+04</pdfrwt>
<totfact> 0.44521052E+00</totfact>
</mgrwt>
</event>
<event>
 9    1  0.4321150E-036  0.9984423E+03  0.7818608E-02  0.8682523E-01
          2   -1    0    0  501    0  0.00000000000E+00  0.00000000000E+00  0.19561145944E+04  0.19561145944E+04  0.00000000000E+00 0.  1.
         -2   -1    0    0    0  501 -0.00000000000E+00 -0.00000000000E+00 -0.12740653052E+03  0.12740653052E+03  0.00000000000E+00 0.  1.
         36    2    1    2    0    0 -0.14210854715E-13  0.35527136788E-14  0.18287080638E+04  0.20835211249E+04  0.99844233437E+03 0.  0.
         25    2    3    3    0    0  0.11434656360E+03  0.22733113566E+01  0.17629411442E+03  0.24418818895E+03  0.12437022269E+03 0.  0.
         35    2    3    3    0    0 -0.11434656360E+03 -0.22733113566E+01  0.16524139494E+04  0.18393329359E+04  0.79974588740E+03 0.  0.
         22    1    5    5    0    0  0.75528289475E+01  0.33724487024E+03  0.34278323109E+03  0.48092774015E+03  0.00000000000E+00 0. -1.
         22    1    5    5    0    0 -0.12189939254E+03 -0.33951818159E+03  0.13096307183E+04  0.13584051958E+04  0.00000000000E+00 0. -1.
          5    1    4    4  502    0  0.37340041647E+02  0.25243386134E+02 -0.52290758544E+01  0.45617326620E+02  0.47000000000E+01 0.  1.
         -5    1    4    4    0  502  0.77006521950E+02 -0.22970074777E+02  0.18152319027E+03  0.19857086233E+03  0.47000000000E+01 0.  1.
<mgrwt>
<rscale>  0 0.99844233E+03</rscale>
<asrwt>0</asrwt>
<pdfrwt beam="1">  1        2 0.30094069E+00 0.99844233E+03</pdfrwt>
<pdfrwt beam="2">  1       -2 0.19601006E-01 0.99844233E+03</pdfrwt>
<totfact> 0.18384163E+02</totfact>
</mgrwt>
</event>
<event>
 9    1  0.4321150E-036  0.1001976E+04  0.7818608E-02  0.8679158E-01
         -4   -1    0    0    0  501 -0.00000000000E+00  0.00000000000E+00  0.40794158955E+03  0.40794158955E+03  0.00000000000E+00 0. -1.
          4   -1    0    0  501    0  0.00000000000E+00 -0.00000000000E+00 -0.61525756144E+03  0.61525756144E+03  0.00000000000E+00 0. -1.
         36    2    1    2    0    0  0.28421709430E-13  0.00000000000E+00 -0.20731597189E+03  0.10231991510E+04  0.10019763422E+04 0.  0.
         25    2    3    3    0    0 -0.14100770858E+03 -0.54309339394E+01 -0.30770620698E+02  0.19124891113E+03  0.12536604798E+03 0.  0.
         35    2    3    3    0    0  0.14100770858E+03  0.54309339394E+01 -0.17654535119E+03  0.83195023987E+03  0.80066239556E+03 0.  0.
         22    1    5    5    0    0  0.33397307583E+03 -0.27044652018E+02 -0.40859295607E+03  0.52841047712E+03  0.00000000000E+00 0. -1.
         22    1    5    5    0    0 -0.19296536725E+03  0.32475585958E+02  0.23204760487E+03  0.30353976275E+03  0.00000000000E+00 0. -1.
          5    1    4    4  502    0 -0.23612642249E+00  0.39853928689E+02 -0.13263619740E+02  0.42265884543E+02  0.47000000000E+01 0. -1.
         -5    1    4    4    0  502 -0.14077158216E+03 -0.45284862628E+02 -0.17507000958E+02  0.14898302658E+03  0.47000000000E+01 0. -1.
<mgrwt>
<rscale>  0 0.10019763E+04</rscale>
<asrwt>0</asrwt>
<pdfrwt beam="1">  1        4 0.94655009E-01 0.10019763E+04</pdfrwt>
<pdfrwt beam="2">  1       -4 0.62760245E-01 0.10019763E+04</pdfrwt>
<totfact> 0.50484632E+00</totfact>
</mgrwt>
</event>
<event>
 9    1  0.4321150E-036  0.9989633E+03  0.7818608E-02  0.8682026E-01
          2   -1    0    0  501    0  0.00000000000E+00  0.00000000000E+00  0.18404153834E+04  0.18404153834E+04  0.00000000000E+00 0. -1.
         -2   -1    0    0    0  501 -0.00000000000E+00 -0.00000000000E+00 -0.13555740660E+03  0.13555740660E+03  0.00000000000E+00 0. -1.
         36    2    1    2    0    0  0.42632564146E-13  0.00000000000E+00  0.17048579768E+04  0.19759727900E+04  0.99896333553E+03 0.  0.
         25    2    3    3    0    0  0.73887276335E+02  0.46711553730E+02  0.53182106559E+03  0.55323208105E+03  0.12486308838E+03 0.  0.
         35    2    3    3    0    0 -0.73887276335E+02 -0.46711553730E+02  0.11730369112E+04  0.14227407089E+04  0.80033382470E+03 0.  0.
         22    1    5    5    0    0  0.30614344704E+03  0.44487542181E+02  0.88423926609E+03  0.93679348379E+03  0.00000000000E+00 0. -1.
         22    1    5    5    0    0 -0.38003072337E+03 -0.91199095911E+02  0.28879764511E+03  0.48594722514E+03  0.00000000000E+00 0. -1.
          5    1    4    4  502    0  0.18873616972E+02  0.17424461108E+01  0.31422874076E+01  0.19779117933E+02  0.47000000000E+01 0. -1.
         -5    1    4    4    0  502  0.55013659363E+02  0.44969107619E+02  0.52867877819E+03  0.53345296312E+03  0.47000000000E+01 0. -1.
<mgrwt>
<rscale>  0 0.99896334E+03</rscale>
<asrwt>0</asrwt>
<pdfrwt beam="1">  1        2 0.28314081E+00 0.99896334E+03</pdfrwt>
<pdfrwt beam="2">  1       -2 0.20854987E-01 0.99896334E+03</pdfrwt>
<totfact> 0.19201228E+02</totfact>
</mgrwt>
</event>
<event>
 9    1  0.4321150E-036  0.9973268E+03  0.7818608E-02  0.8683588E-01
          2   -1    0    0  501    0  0.00000000000E+00  0.00000000000E+00  0.85776722087E+03  0.85776722087E+03  0.00000000000E+00 0.  1.
         -2   -1    0    0    0  501 -0.00000000000E+00 -0.00000000000E+00 -0.28989821142E+03  0.28989821142E+03  0.00000000000E+00 0.  1.
         36    2    1    2    0    0  0.71054273576E-14  0.28421709430E-13  0.56786900945E+03  0.11476654323E+04  0.99732679328E+03 0.  0.
         25    2    3    3    0    0 -0.60531193987E+02  0.19595335224E+02 -0.32469878935E+02  0.14459919899E+03  0.12572443161E+03 0.  0.
         35    2    3    3    0    0  0.60531193987E+02 -0.19595335224E+02  0.60033888838E+03  0.10030662333E+04  0.80105373407E+03 0.  0.
         22    1    5    5    0    0 -0.61392679575E+02  0.33227776701E+03  0.52309664546E+03  0.62274206221E+03  0.00000000000E+00 0.  1.
         22    1    5    5    0    0  0.12192387356E+03 -0.35187310224E+03  0.77242242924E+02  0.38032417109E+03  0.00000000000E+00 0.  1.
          5    1    4    4  502    0 -0.46515017035E+02  0.29346343950E+02 -0.78108775863E+02  0.95644788566E+02  0.47000000000E+01 0.  1.
         -5    1    4    4    0  502 -0.14016176952E+02 -0.97510087254E+01  0.45638896928E+02  0.48954410428E+02  0.47000000000E+01 0.  1.
<mgrwt>
<rscale>  0 0.99732679E+03</rscale>
<asrwt>0</asrwt>
<pdfrwt beam="1">  1        2 0.13196419E+00 0.99732679E+03</pdfrwt>
<pdfrwt beam="2">  1       -2 0.44599725E-01 0.99732679E+03</pdfrwt>
<totfact> 0.18080261E+02</totfact>
</mgrwt>
</event>
<event>
 9    1  0.4321150E-036  0.1000191E+04  0.7818608E-02  0.8680856E-01
          1   -1    0    0  501    0  0.00000000000E+00  0.00000000000E+00  0.29177842340E+03  0.29177842340E+03  0.00000000000E+00 0. -1.
         -1   -1    0    0    0  501 -0.00000000000E+00 -0.00000000000E+00 -0.85714142112E+03  0.85714142112E+03  0.00000000000E+00 0. -1.
         36    2    1    2    0    0  0.28421709430E-13  0.00000000000E+00 -0.56536299772E+03  0.11489198445E+04  0.10001907268E+04 0.  0.
         25    2    3    3    0    0 -0.93711324523E+02 -0.47393896148E+02 -0.21233676826E+03  0.26766815783E+03  0.12462482026E+03 0.  0.
         35    2    3    3    0    0  0.93711324523E+02  0.47393896148E+02 -0.35302622945E+03  0.88125168669E+03  0.80059291958E+03 0.  0.
         22    1    5    5    0    0 -0.10613462127E+02 -0.33138222899E+03  0.29557946891E+02  0.33286708983E+03  0.00000000000E+00 0. -1.
         22    1    5    5    0    0  0.10432478665E+03  0.37877612514E+03 -0.38258417634E+03  0.54838459686E+03  0.00000000000E+00 0. -1.
          5    1    4    4  502    0 -0.10079996691E+03 -0.55520414943E+02 -0.93770735057E+02  0.14852000053E+03  0.47000000000E+01 0.  1.
         -5    1    4    4    0  502  0.70886423855E+01  0.81265187949E+01 -0.11856603321E+03  0.11914815730E+03  0.47000000000E+01 0.  1.
<mgrwt>
<rscale>  0 0.10001907E+04</rscale>
<asrwt>0</asrwt>
<pdfrwt beam="1">  1        1 0.44888989E-01 0.10001907E+04</pdfrwt>
<pdfrwt beam="2">  1       -1 0.13186791E+00 0.10001907E+04</pdfrwt>
<totfact> 0.53189481E+01</totfact>
</mgrwt>
</event>
<event>
 9    1  0.4321150E-036  0.1000544E+04  0.7818608E-02  0.8680520E-01
         -1   -1    0    0    0  501 -0.00000000000E+00  0.00000000000E+00  0.13982950147E+03  0.13982950147E+03  0.00000000000E+00 0. -1.
          1   -1    0    0  501    0  0.00000000000E+00 -0.00000000000E+00 -0.17898360995E+04  0.17898360995E+04  0.00000000000E+00 0. -1.
         36    2    1    2    0    0 -0.14210854715E-13  0.00000000000E+00 -0.16500065980E+04  0.19296656009E+04  0.10005436312E+04 0.  0.
         25    2    3    3    0    0  0.84179770092E+02  0.96908337760E+02 -0.19892568135E+03  0.26767012983E+03  0.12489360304E+03 0.  0.
         35    2    3    3    0    0 -0.84179770092E+02 -0.96908337760E+02 -0.14510809166E+04  0.16619954711E+04  0.80007228407E+03 0.  0.
         22    1    5    5    0    0  0.25069131937E+03  0.85086427327E+02 -0.14584555274E+03  0.30225281301E+03  0.00000000000E+00 0. -1.
         22    1    5    5    0    0 -0.33487108946E+03 -0.18199476509E+03 -0.13052353639E+04  0.13597426581E+04  0.00000000000E+00 0. -1.
          5    1    4    4  502    0 -0.22107264580E+02  0.27781807112E+02 -0.53372864750E+01  0.36209620000E+02  0.47000000000E+01 0.  1.
         -5    1    4    4    0  502  0.10628703467E+03  0.69126530647E+02 -0.19358839488E+03  0.23146050983E+03  0.47000000000E+01 0.  1.
<mgrwt>
<rscale>  0 0.10005436E+04</rscale>
<asrwt>0</asrwt>
<pdfrwt beam="1">  1        1 0.27535939E+00 0.10005436E+04</pdfrwt>
<pdfrwt beam="2">  1       -1 0.21512232E-01 0.10005436E+04</pdfrwt>
<totfact> 0.79257623E+01</totfact>
</mgrwt>
</event>
<event>
 9    1  0.4321150E-036  0.1001661E+04  0.7818608E-02  0.8679458E-01
          2   -1    0    0  501    0  0.00000000000E+00  0.00000000000E+00  0.85657511974E+03  0.85657511974E+03  0.00000000000E+00 0.  1.
         -2   -1    0    0    0  501 -0.00000000000E+00 -0.00000000000E+00 -0.29283017229E+03  0.29283017229E+03  0.00000000000E+00 0.  1.
         36    2    1    2    0    0 -0.14210854715E-13 -0.28421709430E-13  0.56374494745E+03  0.11494052920E+04  0.10016607008E+04 0.  0.
         25    2    3    3    0    0  0.94319751029E+02  0.74312251781E+02  0.19180669391E+03  0.26006190374E+03  0.12815560755E+03 0.  0.
         35    2    3    3    0    0 -0.94319751029E+02 -0.74312251781E+02  0.37193825354E+03  0.88934338829E+03  0.79885860554E+03 0.  0.
         22    1    5    5    0    0 -0.22099580664E+02  0.16852126332E+03 -0.20079958935E+03  0.26307467141E+03  0.00000000000E+00 0. -1.
         22    1    5    5    0    0 -0.72220170365E+02 -0.24283351510E+03  0.57273784289E+03  0.62626871688E+03  0.00000000000E+00 0. -1.
          5    1    4    4  502    0  0.54711734111E+02 -0.30937419573E+02  0.71447024591E+02  0.95274682377E+02  0.47000000000E+01 0.  1.
         -5    1    4    4    0  502  0.39608016917E+02  0.10524967135E+03  0.12035966932E+03  0.16478722136E+03  0.47000000000E+01 0.  1.
<mgrwt>
<rscale>  0 0.10016607E+04</rscale>
<asrwt>0</asrwt>
<pdfrwt beam="1">  1        2 0.13178079E+00 0.10016607E+04</pdfrwt>
<pdfrwt beam="2">  1       -2 0.45050796E-01 0.10016607E+04</pdfrwt>
<totfact> 0.17759383E+02</totfact>
</mgrwt>
</event>
<event>
 9    1  0.4321150E-036  0.9965672E+03  0.7818608E-02  0.8684314E-01
         -1   -1    0    0    0  501 -0.00000000000E+00  0.00000000000E+00  0.24539334506E+03  0.24539334506E+03  0.00000000000E+00 0. -1.
          1   -1    0    0  501    0  0.00000000000E+00 -0.00000000000E+00 -0.10117899815E+04  0.10117899815E+04  0.00000000000E+00 0. -1.
         36    2    1    2    0    0 -0.71054273576E-14  0.00000000000E+00 -0.76639663648E+03  0.12571833266E+04  0.99656716395E+03 0.  0.
         25    2    3    3    0    0 -0.11571553972E+02  0.46863633365E+02 -0.32476141304E+03  0.35094636010E+03  0.12394866386E+03 0.  0.
         35    2    3    3    0    0  0.11571553972E+02 -0.46863633365E+02 -0.44163522343E+03  0.90623696650E+03  0.78986939925E+03 0.  0.
         22    1    5    5    0    0  0.30256021791E+03  0.14697966810E+02  0.73223563952E+02  0.31164147029E+03  0.00000000000E+00 0. -1.
         22    1    5    5    0    0 -0.29098866394E+03 -0.61561600175E+02 -0.51485878739E+03  0.59459549620E+03  0.00000000000E+00 0. -1.
          5    1    4    4  502    0 -0.60062864292E+02  0.55138088655E+02 -0.23008442452E+03  0.24414890722E+03  0.47000000000E+01 0.  1.
         -5    1    4    4    0  502  0.48491310320E+02 -0.82744552897E+01 -0.94676988519E+02  0.10679745288E+03  0.47000000000E+01 0.  1.
<mgrwt>
<rscale>  0 0.99656716E+03</rscale>
<asrwt>0</asrwt>
<pdfrwt beam="1">  1        1 0.15565999E+00 0.99656716E+03</pdfrwt>
<pdfrwt beam="2">  1       -1 0.37752823E-01 0.99656716E+03</pdfrwt>
<totfact> 0.11212185E+02</totfact>
</mgrwt>
</event>
<event>
 9    1  0.4321150E-036  0.1000703E+04  0.7818608E-02  0.8680368E-01
          1   -1    0    0  501    0  0.00000000000E+00  0.00000000000E+00  0.44356274333E+03  0.44356274333E+03  0.00000000000E+00 0.  1.
         -1   -1    0    0    0  501 -0.00000000000E+00 -0.00000000000E+00 -0.56441132037E+03  0.56441132037E+03  0.00000000000E+00 0.  1.
         36    2    1    2    0    0 -0.28421709430E-13  0.00000000000E+00 -0.12084857704E+03  0.10079740637E+04  0.10007034199E+04 0.  0.
         25    2    3    3    0    0 -0.40859347576E+02  0.11161142087E+03  0.50575128542E+02  0.18184368579E+03  0.12799487053E+03 0.  0.
         35    2    3    3    0    0  0.40859347576E+02 -0.11161142087E+03 -0.17142370558E+03  0.82613037791E+03  0.79936144447E+03 0.  0.
         22    1    5    5    0    0  0.32924867916E+03 -0.13587580550E+03 -0.33898963718E+03  0.49171221397E+03  0.00000000000E+00 0.  1.
         22    1    5    5    0    0 -0.28838933159E+03  0.24264384633E+02  0.16756593160E+03  0.33441816393E+03  0.00000000000E+00 0.  1.
          5    1    4    4  502    0 -0.20164302802E+02  0.65023734795E+02 -0.39053284722E+02  0.78625277371E+02  0.47000000000E+01 0. -1.
         -5    1    4    4    0  502 -0.20695044774E+02  0.46587686077E+02  0.89628413264E+02  0.10321840842E+03  0.47000000000E+01 0. -1.
<mgrwt>
<rscale>  0 0.10007034E+04</rscale>
<asrwt>0</asrwt>
<pdfrwt beam="1">  1        1 0.68240422E-01 0.10007034E+04</pdfrwt>
<pdfrwt beam="2">  1       -1 0.86832510E-01 0.10007034E+04</pdfrwt>
<totfact> 0.81028799E+01</totfact>
</mgrwt>
</event>
<event>
 9    1  0.4321150E-036  0.1008019E+04  0.7818608E-02  0.8673439E-01
         -4   -1    0    0    0  501 -0.00000000000E+00  0.00000000000E+00  0.52567582704E+03  0.52567582704E+03  0.00000000000E+00 0.  1.
          4   -1    0    0  501    0  0.00000000000E+00 -0.00000000000E+00 -0.48323604683E+03  0.48323604683E+03  0.00000000000E+00 0.  1.
         36    2    1    2    0    0  0.28421709430E-13  0.14210854715E-13  0.42439780210E+02  0.10089118739E+04  0.10080188660E+04 0.  0.
         25    2    3    3    0    0  0.13783617205E+03  0.50485754763E+02 -0.15738458719E+02  0.19346949473E+03  0.12504049163E+03 0.  0.
         35    2    3    3    0    0 -0.13783617205E+03 -0.50485754763E+02  0.58178238929E+02  0.81544237914E+03  0.80000871524E+03 0.  0.
         22    1    5    5    0    0 -0.37926081942E+03 -0.32806028268E+00  0.28966788461E+03  0.47722778643E+03  0.00000000000E+00 0. -1.
         22    1    5    5    0    0  0.24142464736E+03 -0.50157694480E+02 -0.23148964568E+03  0.33821459272E+03  0.00000000000E+00 0. -1.
          5    1    4    4  502    0  0.10481651256E+03 -0.37184766660E+00  0.38713507139E+02  0.11183677933E+03  0.47000000000E+01 0.  1.
         -5    1    4    4    0  502  0.33019659496E+02  0.50857602429E+02 -0.54451965858E+02  0.81632715402E+02  0.47000000000E+01 0.  1.
<mgrwt>
<rscale>  0 0.10080189E+04</rscale>
<asrwt>0</asrwt>
<pdfrwt beam="1">  1        4 0.74344007E-01 0.10080189E+04</pdfrwt>
<pdfrwt beam="2">  1       -4 0.80873205E-01 0.10080189E+04</pdfrwt>
<totfact> 0.50878303E+00</totfact>
</mgrwt>
</event>
<event>
 9    1  0.4321150E-036  0.9991448E+03  0.7818608E-02  0.8681853E-01
          2   -1    0    0  501    0  0.00000000000E+00  0.00000000000E+00  0.31174022656E+04  0.31174022656E+04  0.00000000000E+00 0.  1.
         -2   -1    0    0    0  501 -0.00000000000E+00 -0.00000000000E+00 -0.80057876572E+02  0.80057876572E+02  0.00000000000E+00 0.  1.
         36    2    1    2    0    0  0.00000000000E+00  0.14210854715E-13  0.30373443890E+04  0.31974601422E+04  0.99914484597E+03 0.  0.
         25    2    3    3    0    0 -0.10748781555E+03 -0.48880010357E+02  0.79011586075E+03  0.80850172544E+03  0.12429433106E+03 0.  0.
         35    2    3    3    0    0  0.10748781555E+03  0.48880010357E+02  0.22472285283E+04  0.23889584167E+04  0.80196220151E+03 0.  0.
         22    1    5    5    0    0  0.19349299228E+03 -0.34240437977E+03  0.13547880607E+04  0.14107200243E+04  0.00000000000E+00 0.  1.
         22    1    5    5    0    0 -0.86005176733E+02  0.39128439013E+03  0.89244046754E+03  0.97823839246E+03  0.00000000000E+00 0.  1.
          5    1    4    4  502    0 -0.29436156264E+02 -0.29389229227E+02  0.60695606151E+03  0.60839786710E+03  0.47000000000E+01 0. -1.
         -5    1    4    4    0  502 -0.78051659283E+02 -0.19490781130E+02  0.18315979925E+03  0.20010385835E+03  0.47000000000E+01 0. -1.
<mgrwt>
<rscale>  0 0.99914485E+03</rscale>
<asrwt>0</asrwt>
<pdfrwt beam="1">  1        2 0.47960025E+00 0.99914485E+03</pdfrwt>
<pdfrwt beam="2">  1       -2 0.12316599E-01 0.99914485E+03</pdfrwt>
<totfact> 0.77347334E+01</totfact>
</mgrwt>
</event>
<event>
 9    1  0.4321150E-036  0.1000440E+04  0.7818608E-02  0.8680619E-01
          2   -1    0    0  501    0  0.00000000000E+00  0.00000000000E+00  0.48107632563E+03  0.48107632563E+03  0.00000000000E+00 0. -1.
         -2   -1    0    0    0  501 -0.00000000000E+00 -0.00000000000E+00 -0.52012530042E+03  0.52012530042E+03  0.00000000000E+00 0. -1.
         36    2    1    2    0    0 -0.14210854715E-13  0.10658141036E-13 -0.39048974790E+02  0.10012016260E+04  0.10004398401E+04 0.  0.
         25    2    3    3    0    0 -0.60327858375E+02  0.26979671698E+02 -0.13293098875E+03  0.19371886190E+03  0.12445479703E+03 0.  0.
         35    2    3    3    0    0  0.60327858375E+02 -0.26979671698E+02  0.93882013961E+02  0.80748276415E+03  0.79927919319E+03 0.  0.
         22    1    5    5    0    0 -0.83082995823E+02  0.17136710613E+03 -0.29313233628E+03  0.34956549577E+03  0.00000000000E+00 0.  1.
         22    1    5    5    0    0  0.14341085420E+03 -0.19834677783E+03  0.38701435025E+03  0.45791726837E+03  0.00000000000E+00 0.  1.
          5    1    4    4  502    0 -0.10614446346E+02 -0.11721179622E+02 -0.12939621220E+03  0.13044355966E+03  0.47000000000E+01 0.  1.
         -5    1    4    4    0  502 -0.49713412029E+02  0.38700851320E+02 -0.35347765483E+01  0.63275302241E+02  0.47000000000E+01 0.  1.
<mgrwt>
<rscale>  0 0.10004398E+04</rscale>
<asrwt>0</asrwt>
<pdfrwt beam="1">  1        2 0.74011743E-01 0.10004398E+04</pdfrwt>
<pdfrwt beam="2">  1       -2 0.80019277E-01 0.10004398E+04</pdfrwt>
<totfact> 0.10718849E+02</totfact>
</mgrwt>
</event>
<event>
 9    1  0.4321150E-036  0.9998837E+03  0.7818608E-02  0.8681149E-01
         -2   -1    0    0    0  501 -0.00000000000E+00  0.00000000000E+00  0.38094464280E+03  0.38094464280E+03  0.00000000000E+00 0. -1.
          2   -1    0    0  501    0  0.00000000000E+00 -0.00000000000E+00 -0.65611068522E+03  0.65611068522E+03  0.00000000000E+00 0. -1.
         36    2    1    2    0    0  0.00000000000E+00  0.00000000000E+00 -0.27516604242E+03  0.10370553280E+04  0.99988369448E+03 0.  0.
         25    2    3    3    0    0 -0.69994522363E+02  0.93494842595E+02  0.29154207559E+02  0.17307567353E+03  0.12435715579E+03 0.  0.
         35    2    3    3    0    0  0.69994522363E+02 -0.93494842595E+02 -0.30432024998E+03  0.86397965450E+03  0.80013093309E+03 0.  0.
         22    1    5    5    0    0  0.27806644148E+03  0.24050474945E+03 -0.18421507476E+01  0.36765047791E+03  0.00000000000E+00 0. -1.
         22    1    5    5    0    0 -0.20807191912E+03 -0.33399959205E+03 -0.30247809923E+03  0.49632917659E+03  0.00000000000E+00 0. -1.
          5    1    4    4  502    0  0.79611287140E+01 -0.19222988609E+02  0.28933131747E+02  0.35946056448E+02  0.47000000000E+01 0. -1.
         -5    1    4    4    0  502 -0.77955651077E+02  0.11271783120E+03  0.22107581284E+00  0.13712961708E+03  0.47000000000E+01 0. -1.
<mgrwt>
<rscale>  0 0.99988369E+03</rscale>
<asrwt>0</asrwt>
<pdfrwt beam="1">  1        2 0.10094010E+00 0.99988369E+03</pdfrwt>
<pdfrwt beam="2">  1       -2 0.58606869E-01 0.99988369E+03</pdfrwt>
<totfact> 0.14635653E+02</totfact>
</mgrwt>
</event>
<event>
 9    1  0.4321150E-036  0.9994850E+03  0.7818608E-02  0.8681529E-01
          2   -1    0    0  501    0  0.00000000000E+00  0.00000000000E+00  0.11017730148E+04  0.11017730148E+04  0.00000000000E+00 0.  1.
         -2   -1    0    0    0  501 -0.00000000000E+00 -0.00000000000E+00 -0.22667333549E+03  0.22667333549E+03  0.00000000000E+00 0.  1.
         36    2    1    2    0    0 -0.28421709430E-13  0.42632564146E-13  0.87509967934E+03  0.13284463503E+04  0.99948499584E+03 0.  0.
         25    2    3    3    0    0  0.87435115756E+02  0.46131168576E+02  0.29330946633E+03  0.33504671110E+03  0.12826874678E+03 0.  0.
         35    2    3    3    0    0 -0.87435115756E+02 -0.46131168576E+02  0.58179021301E+03  0.99339963922E+03  0.79911826852E+03 0.  0.
         22    1    5    5    0    0 -0.23196648511E+03 -0.34280151282E+03  0.12985121922E+03  0.43380026111E+03  0.00000000000E+00 0.  1.
         22    1    5    5    0    0  0.14453136936E+03  0.29667034424E+03  0.45193899378E+03  0.55959937811E+03  0.00000000000E+00 0.  1.
          5    1    4    4  502    0  0.44790105202E+02  0.84245671109E+02  0.12566726588E+03  0.15785385120E+03  0.47000000000E+01 0. -1.
         -5    1    4    4    0  502  0.42645010554E+02 -0.38114502533E+02  0.16764220045E+03  0.17719285991E+03  0.47000000000E+01 0. -1.
<mgrwt>
<rscale>  0 0.99948500E+03</rscale>
<asrwt>0</asrwt>
<pdfrwt beam="1">  1        2 0.16950354E+00 0.99948500E+03</pdfrwt>
<pdfrwt beam="2">  1       -2 0.34872821E-01 0.99948500E+03</pdfrwt>
<totfact> 0.20228897E+02</totfact>
</mgrwt>
</event>
<event>
 9    1  0.4321150E-036  0.1000522E+04  0.7818608E-02  0.8680541E-01
         -2   -1    0    0    0  501 -0.00000000000E+00  0.00000000000E+00  0.97054948528E+03  0.97054948528E+03  0.00000000000E+00 0.  1.
          2   -1    0    0  501    0  0.00000000000E+00 -0.00000000000E+00 -0.25785526172E+03  0.25785526172E+03  0.00000000000E+00 0.  1.
         36    2    1    2    0    0  0.00000000000E+00  0.28421709430E-13  0.71269422356E+03  0.12284047470E+04  0.10005224466E+04 0.  0.
         25    2    3    3    0    0 -0.87468813469E+02 -0.80990085439E+02  0.41602831123E+02  0.17752220812E+03  0.12479243386E+03 0.  0.
         35    2    3    3    0    0  0.87468813469E+02  0.80990085439E+02  0.67109139243E+03  0.10508825389E+04  0.79986265462E+03 0.  0.
         22    1    5    5    0    0 -0.21020675076E+03  0.15951354617E+03 -0.48413145662E+02  0.26828209435E+03  0.00000000000E+00 0. -1.
         22    1    5    5    0    0  0.29767556423E+03 -0.78523460732E+02  0.71950453810E+03  0.78260044452E+03  0.00000000000E+00 0. -1.
          5    1    4    4  502    0 -0.35933952814E+02  0.31971707867E+02  0.11782633586E+02  0.49742934403E+02  0.47000000000E+01 0. -1.
         -5    1    4    4    0  502 -0.51534860655E+02 -0.11296179331E+03  0.29820197538E+02  0.12777927371E+03  0.47000000000E+01 0. -1.
<mgrwt>
<rscale>  0 0.10005224E+04</rscale>
<asrwt>0</asrwt>
<pdfrwt beam="1">  1        2 0.39670041E-01 0.10005224E+04</pdfrwt>
<pdfrwt beam="2">  1       -2 0.14931530E+00 0.10005224E+04</pdfrwt>
<totfact> 0.44674960E+01</totfact>
</mgrwt>
</event>
<event>
 9    1  0.4321150E-036  0.1004170E+04  0.7818608E-02  0.8677077E-01
         -1   -1    0    0    0  501 -0.00000000000E+00  0.00000000000E+00  0.27368977832E+03  0.27368977832E+03  0.00000000000E+00 0.  1.
          1   -1    0    0  501    0  0.00000000000E+00 -0.00000000000E+00 -0.92107748313E+03  0.92107748313E+03  0.00000000000E+00 0.  1.
         36    2    1    2    0    0  0.71054273576E-14 -0.14210854715E-13 -0.64738770480E+03  0.11947672614E+04  0.10041702887E+04 0.  0.
         25    2    3    3    0    0  0.61847925520E+02  0.12492604275E+03 -0.16598556464E+03  0.25014033262E+03  0.12484909406E+03 0.  0.
         35    2    3    3    0    0 -0.61847925520E+02 -0.12492604275E+03 -0.48140214016E+03  0.94462692882E+03  0.80071239035E+03 0.  0.
         22    1    5    5    0    0  0.30453480313E+03 -0.25671377698E+03 -0.35971119208E+03  0.53668943656E+03  0.00000000000E+00 0. -1.
         22    1    5    5    0    0 -0.36638272865E+03  0.13178773423E+03 -0.12169094808E+03  0.40793749226E+03  0.00000000000E+00 0. -1.
          5    1    4    4  502    0 -0.35636384690E+02  0.35418020080E+02 -0.23657435434E+02  0.55732865631E+02  0.47000000000E+01 0. -1.
         -5    1    4    4    0  502  0.97484310210E+02  0.89508022669E+02 -0.14232812921E+03  0.19440746699E+03  0.47000000000E+01 0. -1.
<mgrwt>
<rscale>  0 0.10041703E+04</rscale>
<asrwt>0</asrwt>
<pdfrwt beam="1">  1        1 0.14170423E+00 0.10041703E+04</pdfrwt>
<pdfrwt beam="2">  1       -1 0.42106119E-01 0.10041703E+04</pdfrwt>
<totfact> 0.10919587E+02</totfact>
</mgrwt>
</event>
<event>
 9    1  0.4321150E-036  0.1000335E+04  0.7818608E-02  0.8680719E-01
         -1   -1    0    0    0  501 -0.00000000000E+00  0.00000000000E+00  0.33906535399E+03  0.33906535399E+03  0.00000000000E+00 0. -1.
          1   -1    0    0  501    0  0.00000000000E+00 -0.00000000000E+00 -0.73781514527E+03  0.73781514527E+03  0.00000000000E+00 0. -1.
         36    2    1    2    0    0  0.00000000000E+00  0.28421709430E-13 -0.39874979127E+03  0.10768804993E+04  0.10003350507E+04 0.  0.
         25    2    3    3    0    0  0.42815610795E+02  0.80153926934E+02  0.42041537009E+02  0.16071701116E+03  0.12571649976E+03 0.  0.
         35    2    3    3    0    0 -0.42815610795E+02 -0.80153926934E+02 -0.44079132828E+03  0.91616348810E+03  0.79799794067E+03 0.  0.
         22    1    5    5    0    0  0.22644573557E+02 -0.33300391824E+03  0.71306586906E+02  0.34130487194E+03  0.00000000000E+00 0.  1.
         22    1    5    5    0    0 -0.65460184352E+02  0.25284999130E+03 -0.51209791519E+03  0.57485861616E+03  0.00000000000E+00 0.  1.
          5    1    4    4  502    0  0.19810208472E+01  0.84309146374E+01  0.72088834143E+02  0.72759155942E+02  0.47000000000E+01 0. -1.
         -5    1    4    4    0  502  0.40834589948E+02  0.71723012297E+02 -0.30047297135E+02  0.87957855216E+02  0.47000000000E+01 0. -1.
<mgrwt>
<rscale>  0 0.10003351E+04</rscale>
<asrwt>0</asrwt>
<pdfrwt beam="1">  1        1 0.11351002E+00 0.10003351E+04</pdfrwt>
<pdfrwt beam="2">  1       -1 0.52163901E-01 0.10003351E+04</pdfrwt>
<totfact> 0.10655145E+02</totfact>
</mgrwt>
</event>
<event>
 9    1  0.4321150E-036  0.1002078E+04  0.7818608E-02  0.8679062E-01
         -1   -1    0    0    0  501 -0.00000000000E+00  0.00000000000E+00  0.14270007877E+03  0.14270007877E+03  0.00000000000E+00 0.  1.
          1   -1    0    0  501    0  0.00000000000E+00 -0.00000000000E+00 -0.17592140659E+04  0.17592140659E+04  0.00000000000E+00 0.  1.
         36    2    1    2    0    0 -0.42632564146E-13  0.00000000000E+00 -0.16165139872E+04  0.19019141447E+04  0.10020778129E+04 0.  0.
         25    2    3    3    0    0  0.80692217678E+02 -0.10950979803E+03 -0.38393782150E+03  0.42609196136E+03  0.12506989603E+03 0.  0.
         35    2    3    3    0    0 -0.80692217678E+02  0.10950979803E+03 -0.12325761657E+04  0.14758221834E+04  0.80018965432E+03 0.  0.
         22    1    5    5    0    0  0.30134415587E+03  0.22133214709E+03 -0.37094935414E+03  0.52668742433E+03  0.00000000000E+00 0. -1.
         22    1    5    5    0    0 -0.38203637355E+03 -0.11182234907E+03 -0.86162681153E+03  0.94913475903E+03  0.00000000000E+00 0. -1.
          5    1    4    4  502    0  0.95722008451E+02 -0.33949522574E+02 -0.16352673707E+03  0.19255741150E+03  0.47000000000E+01 0.  1.
         -5    1    4    4    0  502 -0.15029790773E+02 -0.75560275451E+02 -0.22041108443E+03  0.23353454986E+03  0.47000000000E+01 0.  1.
<mgrwt>
<rscale>  0 0.10020778E+04</rscale>
<asrwt>0</asrwt>
<pdfrwt beam="1">  1        1 0.27064833E+00 0.10020778E+04</pdfrwt>
<pdfrwt beam="2">  1       -1 0.21953857E-01 0.10020778E+04</pdfrwt>
<totfact> 0.80510628E+01</totfact>
</mgrwt>
</event>
<event>
 9    1  0.4321150E-036  0.9992131E+03  0.7818608E-02  0.8681788E-01
         -2   -1    0    0    0  501 -0.00000000000E+00  0.00000000000E+00  0.14766031112E+03  0.14766031112E+03  0.00000000000E+00 0. -1.
          2   -1    0    0  501    0  0.00000000000E+00 -0.00000000000E+00 -0.16904114499E+04  0.16904114499E+04  0.00000000000E+00 0. -1.
         36    2    1    2    0    0  0.00000000000E+00  0.00000000000E+00 -0.15427511388E+04  0.18380717611E+04  0.99921305161E+03 0.  0.
         25    2    3    3    0    0  0.29433564000E+02 -0.13523788161E+03 -0.30203178765E+03  0.35508031409E+03  0.12531244705E+03 0.  0.
         35    2    3    3    0    0 -0.29433564000E+02  0.13523788161E+03 -0.12407193512E+04  0.14829914470E+04  0.80045206237E+03 0.  0.
         22    1    5    5    0    0  0.95629354666E+02  0.45697167367E+03 -0.69425355097E+03  0.83663377714E+03  0.00000000000E+00 0. -1.
         22    1    5    5    0    0 -0.12506291867E+03 -0.32173379207E+03 -0.54646580020E+03  0.64635766985E+03  0.00000000000E+00 0. -1.
          5    1    4    4  502    0  0.41966110448E+02  0.69647058903E+01 -0.54506903068E+02  0.69301904998E+02  0.47000000000E+01 0. -1.
         -5    1    4    4    0  502 -0.12532546448E+02 -0.14220258750E+03 -0.24752488459E+03  0.28577840909E+03  0.47000000000E+01 0. -1.
<mgrwt>
<rscale>  0 0.99921305E+03</rscale>
<asrwt>0</asrwt>
<pdfrwt beam="1">  1        2 0.26006328E+00 0.99921305E+03</pdfrwt>
<pdfrwt beam="2">  1       -2 0.22716972E-01 0.99921305E+03</pdfrwt>
<totfact> 0.20093407E+02</totfact>
</mgrwt>
</event>
<event>
 9    1  0.4321150E-036  0.9995936E+03  0.7818608E-02  0.8681425E-01
         -1   -1    0    0    0  501 -0.00000000000E+00  0.00000000000E+00  0.28436728560E+03  0.28436728560E+03  0.00000000000E+00 0.  1.
          1   -1    0    0  501    0  0.00000000000E+00 -0.00000000000E+00 -0.87843029416E+03  0.87843029416E+03  0.00000000000E+00 0.  1.
         36    2    1    2    0    0 -0.35527136788E-14 -0.30198066270E-13 -0.59406300856E+03  0.11627975798E+04  0.99959359409E+03 0.  0.
         25    2    3    3    0    0  0.14849229640E+02 -0.76886639109E+01 -0.27245625044E+03  0.30072115117E+03  0.12617918681E+03 0.  0.
         35    2    3    3    0    0 -0.14849229640E+02  0.76886639109E+01 -0.32160675811E+03  0.86207642858E+03  0.79966570933E+03 0.  0.
         22    1    5    5    0    0  0.23130227843E+02 -0.39472987265E+03 -0.16929743452E+03  0.43012591312E+03  0.00000000000E+00 0.  1.
         22    1    5    5    0    0 -0.37979457483E+02  0.40241853656E+03 -0.15230932359E+03  0.43195051546E+03  0.00000000000E+00 0.  1.
          5    1    4    4  502    0  0.34738222321E+02  0.13999766042E+02 -0.13549537185E+02  0.40105080690E+02  0.47000000000E+01 0. -1.
         -5    1    4    4    0  502 -0.19888992681E+02 -0.21688429953E+02 -0.25890671326E+03  0.26061607048E+03  0.47000000000E+01 0. -1.
<mgrwt>
<rscale>  0 0.99959359E+03</rscale>
<asrwt>0</asrwt>
<pdfrwt beam="1">  1        1 0.13514312E+00 0.99959359E+03</pdfrwt>
<pdfrwt beam="2">  1       -1 0.43748814E-01 0.99959359E+03</pdfrwt>
<totfact> 0.11065096E+02</totfact>
</mgrwt>
</event>
<event>
 9    1  0.4321150E-036  0.1000223E+04  0.7818608E-02  0.8680825E-01
         -2   -1    0    0    0  501 -0.00000000000E+00  0.00000000000E+00  0.25558254543E+03  0.25558254543E+03  0.00000000000E+00 0.  1.
          2   -1    0    0  501    0  0.00000000000E+00 -0.00000000000E+00 -0.97859452899E+03  0.97859452899E+03  0.00000000000E+00 0.  1.
         36    2    1    2    0    0  0.00000000000E+00 -0.14210854715E-13 -0.72301198356E+03  0.12341770744E+04  0.10002233364E+04 0.  0.
         25    2    3    3    0    0  0.21577094797E+02  0.52203940338E+02 -0.29535010694E+03  0.32540731732E+03  0.12436805894E+03 0.  0.
         35    2    3    3    0    0 -0.21577094797E+02 -0.52203940338E+02 -0.42766187661E+03  0.90876975710E+03  0.79986059305E+03 0.  0.
         22    1    5    5    0    0 -0.27823834915E+03  0.27087488724E+00  0.11896951706E+03  0.30260601168E+03  0.00000000000E+00 0. -1.
         22    1    5    5    0    0  0.25666125436E+03 -0.52474815226E+02 -0.54663139367E+03  0.60616374543E+03  0.00000000000E+00 0. -1.
          5    1    4    4  502    0  0.35210841887E+02  0.75572647358E+02 -0.11037136067E+03  0.13840142944E+03  0.47000000000E+01 0.  1.
         -5    1    4    4    0  502 -0.13633747089E+02 -0.23368707020E+02 -0.18497874628E+03  0.18700588788E+03  0.47000000000E+01 0.  1.
<mgrwt>
<rscale>  0 0.10002233E+04</rscale>
<asrwt>0</asrwt>
<pdfrwt beam="1">  1        2 0.15055300E+00 0.10002233E+04</pdfrwt>
<pdfrwt beam="2">  1       -2 0.39320392E-01 0.10002233E+04</pdfrwt>
<totfact> 0.19227899E+02</totfact>
</mgrwt>
</event>
<event>
 9    1  0.4321150E-036  0.1003659E+04  0.7818608E-02  0.8677562E-01
         -2   -1    0    0    0  501 -0.00000000000E+00  0.00000000000E+00  0.28076320908E+03  0.28076320908E+03  0.00000000000E+00 0. -1.
          2   -1    0    0  501    0  0.00000000000E+00 -0.00000000000E+00 -0.89695742871E+03  0.89695742871E+03  0.00000000000E+00 0. -1.
         36    2    1    2    0    0  0.00000000000E+00  0.31974423109E-13 -0.61619421963E+03  0.11777206378E+04  0.10036585995E+04 0.  0.
         25    2    3    3    0    0 -0.13986129580E+03 -0.17617999371E+02 -0.15450409070E+03  0.24289631764E+03  0.12351328315E+03 0.  0.
         35    2    3    3    0    0  0.13986129580E+03  0.17617999371E+02 -0.46169012893E+03  0.93482432016E+03  0.80054179057E+03 0.  0.
         22    1    5    5    0    0  0.33211695151E+03 -0.26780264679E+03 -0.10537585863E+03  0.43945875653E+03  0.00000000000E+00 0. -1.
         22    1    5    5    0    0 -0.19225565572E+03  0.28542064616E+03 -0.35631427031E+03  0.49536556363E+03  0.00000000000E+00 0. -1.
          5    1    4    4  502    0 -0.44598452903E+02 -0.84495336954E+01 -0.13840592320E+03  0.14573505480E+03  0.47000000000E+01 0.  1.
         -5    1    4    4    0  502 -0.95262842893E+02 -0.91684656752E+01 -0.16098167500E+02  0.97161262835E+02  0.47000000000E+01 0.  1.
<mgrwt>
<rscale>  0 0.10036586E+04</rscale>
<asrwt>0</asrwt>
<pdfrwt beam="1">  1        2 0.13799345E+00 0.10036586E+04</pdfrwt>
<pdfrwt beam="2">  1       -2 0.43194340E-01 0.10036586E+04</pdfrwt>
<totfact> 0.18118147E+02</totfact>
</mgrwt>
</event>
<event>
 9    1 -0.4321150E-036  0.9993495E+03  0.7818608E-02  0.8681658E-01
          1   -1    0    0  501    0  0.00000000000E+00  0.00000000000E+00  0.67806105067E+02  0.67806105067E+02  0.00000000000E+00 0.  1.
         -1   -1    0    0    0  501 -0.00000000000E+00 -0.00000000000E+00 -0.36821886820E+04  0.36821886820E+04  0.00000000000E+00 0.  1.
         36    2    1    2    0    0 -0.35527136788E-14  0.28421709430E-13 -0.36143825769E+04  0.37499947870E+04  0.99934953374E+03 0.  0.
         25    2    3    3    0    0 -0.29534111875E+02  0.77697683631E+02 -0.11107436517E+04  0.11207731154E+04  0.12438537894E+03 0.  0.
         35    2    3    3    0    0  0.29534111875E+02 -0.77697683631E+02 -0.25036389252E+04  0.26292216717E+04  0.79855465516E+03 0.  0.
         22    1    5    5    0    0  0.11692017699E+03  0.28906566384E+03 -0.18376399585E+04  0.18639071605E+04  0.00000000000E+00 0. -1.
         22    1    5    5    0    0 -0.87386065110E+02 -0.36676334747E+03 -0.66599896669E+03  0.76531451120E+03  0.00000000000E+00 0. -1.
          5    1    4    4  502    0 -0.48369109379E+02  0.30518338854E+02 -0.18664956957E+03  0.19527184019E+03  0.47000000000E+01 0.  1.
         -5    1    4    4    0  502  0.18834997505E+02  0.47179344776E+02 -0.92409408213E+03  0.92550127516E+03  0.47000000000E+01 0.  1.
<mgrwt>
<rscale>  0 0.99934953E+03</rscale>
<asrwt>0</asrwt>
<pdfrwt beam="1">  1        1 0.10431708E-01 0.99934953E+03</pdfrwt>
<pdfrwt beam="2">  1       -1 0.56649058E+00 0.99934953E+03</pdfrwt>
<totfact>-0.24778214E+00</totfact>
</mgrwt>
</event>
<event>
 9    1  0.4321150E-036  0.1000139E+04  0.7818608E-02  0.8680905E-01
         -4   -1    0    0    0  501 -0.00000000000E+00  0.00000000000E+00  0.34864421416E+03  0.34864421416E+03  0.00000000000E+00 0. -1.
          4   -1    0    0  501    0  0.00000000000E+00 -0.00000000000E+00 -0.71726308428E+03  0.71726308428E+03  0.00000000000E+00 0. -1.
         36    2    1    2    0    0  0.14210854715E-13  0.00000000000E+00 -0.36861887012E+03  0.10659072984E+04  0.10001392390E+04 0.  0.
         25    2    3    3    0    0  0.36715178409E+02  0.21535833155E+02 -0.21261081372E+03  0.25035215918E+03  0.12514411317E+03 0.  0.
         35    2    3    3    0    0 -0.36715178409E+02 -0.21535833155E+02 -0.15600805640E+03  0.81555513926E+03  0.79936216765E+03 0.  0.
         22    1    5    5    0    0  0.30796666392E+03 -0.18141235165E+03  0.82657671461E+02  0.36685991614E+03  0.00000000000E+00 0. -1.
         22    1    5    5    0    0 -0.34468184233E+03  0.15987651850E+03 -0.23866572786E+03  0.44869522312E+03  0.00000000000E+00 0. -1.
          5    1    4    4  502    0  0.35209594345E+02  0.19441698705E+02 -0.29270949565E+01  0.40599914623E+02  0.47000000000E+01 0. -1.
         -5    1    4    4    0  502  0.15055840640E+01  0.20941344497E+01 -0.20968371876E+03  0.20975224455E+03  0.47000000000E+01 0. -1.
<mgrwt>
<rscale>  0 0.10001392E+04</rscale>
<asrwt>0</asrwt>
<pdfrwt beam="1">  1        4 0.11034817E+00 0.10001392E+04</pdfrwt>
<pdfrwt beam="2">  1       -4 0.53637571E-01 0.10001392E+04</pdfrwt>
<totfact> 0.47624071E+00</totfact>
</mgrwt>
</event>
<event>
 9    1  0.4321150E-036  0.1001898E+04  0.7818608E-02  0.8679233E-01
         -2   -1    0    0    0  501 -0.00000000000E+00  0.00000000000E+00  0.52440142597E+03  0.52440142597E+03  0.00000000000E+00 0.  1.
          2   -1    0    0  501    0  0.00000000000E+00 -0.00000000000E+00 -0.47854524691E+03  0.47854524691E+03  0.00000000000E+00 0.  1.
         36    2    1    2    0    0  0.00000000000E+00  0.00000000000E+00  0.45856179058E+02  0.10029466729E+04  0.10018978189E+04 0.  0.
         25    2    3    3    0    0 -0.11560594918E+03  0.74442156414E+02  0.42383884029E+02  0.19020004512E+03  0.12439169345E+03 0.  0.
         35    2    3    3    0    0  0.11560594918E+03 -0.74442156414E+02  0.34722950286E+01  0.81274662776E+03  0.80102350400E+03 0.  0.
         22    1    5    5    0    0  0.95237713045E+02 -0.20966308729E+03  0.36199364058E+03  0.42903173307E+03  0.00000000000E+00 0. -1.
         22    1    5    5    0    0  0.20368236139E+02  0.13522093087E+03 -0.35852134555E+03  0.38371489469E+03  0.00000000000E+00 0. -1.
          5    1    4    4  502    0 -0.35791235547E+02  0.41546500907E+02  0.79023158941E+02  0.96300954973E+02  0.47000000000E+01 0. -1.
         -5    1    4    4    0  502 -0.79814713637E+02  0.32895655507E+02 -0.36639274912E+02  0.93899090147E+02  0.47000000000E+01 0. -1.
<mgrwt>
<rscale>  0 0.10018978E+04</rscale>
<asrwt>0</asrwt>
<pdfrwt beam="1">  1        2 0.73622346E-01 0.10018978E+04</pdfrwt>
<pdfrwt beam="2">  1       -2 0.80677143E-01 0.10018978E+04</pdfrwt>
<totfact> 0.10581785E+02</totfact>
</mgrwt>
</event>
<event>
 9    1  0.4321150E-036  0.9994251E+03  0.7818608E-02  0.8681586E-01
         -2   -1    0    0    0  501 -0.00000000000E+00  0.00000000000E+00  0.31630650749E+03  0.31630650749E+03  0.00000000000E+00 0.  1.
          2   -1    0    0  501    0  0.00000000000E+00 -0.00000000000E+00 -0.78946409300E+03  0.78946409300E+03  0.00000000000E+00 0.  1.
         36    2    1    2    0    0 -0.71054273576E-14  0.00000000000E+00 -0.47315758551E+03  0.11057706005E+04  0.99942509484E+03 0.  0.
         25    2    3    3    0    0  0.15180593392E+02 -0.94244472807E+02 -0.20187665281E+03  0.25607157245E+03  0.12532356601E+03 0.  0.
         35    2    3    3    0    0 -0.15180593392E+02  0.94244472807E+02 -0.27128093270E+03  0.84969902804E+03  0.79955151350E+03 0.  0.
         22    1    5    5    0    0  0.37864820538E+03  0.80455413075E+02 -0.23757295087E+03  0.45418987650E+03  0.00000000000E+00 0. -1.
         22    1    5    5    0    0 -0.39382879878E+03  0.13789059732E+02 -0.33707981838E+02  0.39550915154E+03  0.00000000000E+00 0. -1.
          5    1    4    4  502    0 -0.10341982272E+01  0.30845057386E+02 -0.36521276900E+02  0.48045611637E+02  0.47000000000E+01 0.  1.
         -5    1    4    4    0  502  0.16214791620E+02 -0.12508953019E+03 -0.16535537591E+03  0.20802596081E+03  0.47000000000E+01 0.  1.
<mgrwt>
<rscale>  0 0.99942509E+03</rscale>
<asrwt>0</asrwt>
<pdfrwt beam="1">  1        2 0.12145601E+00 0.99942509E+03</pdfrwt>
<pdfrwt beam="2">  1       -2 0.48662540E-01 0.99942509E+03</pdfrwt>
<totfact> 0.16969323E+02</totfact>
</mgrwt>
</event>
<event>
 9    1  0.4321150E-036  0.9996019E+03  0.7818608E-02  0.8681417E-01
         -2   -1    0    0    0  501 -0.00000000000E+00  0.00000000000E+00  0.25191107269E+03  0.25191107269E+03  0.00000000000E+00 0.  1.
          2   -1    0    0  501    0  0.00000000000E+00 -0.00000000000E+00 -0.99162378101E+03  0.99162378101E+03  0.00000000000E+00 0.  1.
         36    2    1    2    0    0 -0.28421709430E-13  0.00000000000E+00 -0.73971270832E+03  0.12435348537E+04  0.99960194153E+03 0.  0.
         25    2    3    3    0    0  0.10031648907E+03 -0.89685075153E+02 -0.90810957258E+02  0.20488637744E+03  0.12499994807E+03 0.  0.
         35    2    3    3    0    0 -0.10031648907E+03  0.89685075153E+02 -0.64890175106E+03  0.10386484763E+04  0.79975644044E+03 0.  0.
         22    1    5    5    0    0 -0.14327165814E+03  0.22848028827E+03  0.90994164813E+02  0.28462246606E+03  0.00000000000E+00 0.  1.
         22    1    5    5    0    0  0.42955169070E+02 -0.13879521312E+03 -0.73989591588E+03  0.75402601020E+03  0.00000000000E+00 0.  1.
          5    1    4    4  502    0 -0.55257963605E+01  0.79340042993E+01  0.20287911683E+02  0.22960231055E+02  0.47000000000E+01 0. -1.
         -5    1    4    4    0  502  0.10584228543E+03 -0.97619079452E+02 -0.11109886894E+03  0.18192614638E+03  0.47000000000E+01 0. -1.
<mgrwt>
<rscale>  0 0.99960194E+03</rscale>
<asrwt>0</asrwt>
<pdfrwt beam="1">  1        2 0.15255750E+00 0.99960194E+03</pdfrwt>
<pdfrwt beam="2">  1       -2 0.38755550E-01 0.99960194E+03</pdfrwt>
<totfact> 0.19394142E+02</totfact>
</mgrwt>
</event>
<event>
 9    1  0.4321150E-036  0.9996696E+03  0.7818608E-02  0.8681353E-01
          2   -1    0    0  501    0  0.00000000000E+00  0.00000000000E+00  0.85805015744E+03  0.85805015744E+03  0.00000000000E+00 0.  1.
         -2   -1    0    0    0  501 -0.00000000000E+00 -0.00000000000E+00 -0.29116574904E+03  0.29116574904E+03  0.00000000000E+00 0.  1.
         36    2    1    2    0    0  0.56843418861E-13  0.00000000000E+00  0.56688440839E+03  0.11492159065E+04  0.99966957902E+03 0.  0.
         25    2    3    3    0    0  0.53394773091E+02 -0.12246350335E+03  0.14392866636E+03  0.23365765278E+03  0.12661803290E+03 0.  0.
         35    2    3    3    0    0 -0.53394773091E+02  0.12246350335E+03  0.42295574203E+03  0.91555825370E+03  0.80094134914E+03 0.  0.
         22    1    5    5    0    0 -0.40745059038E+03  0.14119955699E+03  0.11589786106E+03  0.44652616127E+03  0.00000000000E+00 0. -1.
         22    1    5    5    0    0  0.35405581729E+03 -0.18736053647E+02  0.30705788097E+03  0.46903209243E+03  0.00000000000E+00 0. -1.
          5    1    4    4  502    0 -0.30359009555E+02 -0.37179236833E+02  0.90697788553E+02  0.10272362903E+03  0.47000000000E+01 0.  1.
         -5    1    4    4    0  502  0.83753782646E+02 -0.85284266513E+02  0.53230877807E+02  0.13093402375E+03  0.47000000000E+01 0.  1.
<mgrwt>
<rscale>  0 0.99966958E+03</rscale>
<asrwt>0</asrwt>
<pdfrwt beam="1">  1        2 0.13200772E+00 0.99966958E+03</pdfrwt>
<pdfrwt beam="2">  1       -2 0.44794731E-01 0.99966958E+03</pdfrwt>
<totfact> 0.17918118E+02</totfact>
</mgrwt>
</event>
<event>
 9    1  0.4321150E-036  0.1000671E+04  0.7818608E-02  0.8680399E-01
         -2   -1    0    0    0  501 -0.00000000000E+00  0.00000000000E+00  0.15483258025E+03  0.15483258025E+03  0.00000000000E+00 0. -1.
          2   -1    0    0  501    0  0.00000000000E+00 -0.00000000000E+00 -0.16168161596E+04  0.16168161596E+04  0.00000000000E+00 0. -1.
         36    2    1    2    0    0  0.42632564146E-13 -0.21316282073E-13 -0.14619835793E+04  0.17716487398E+04  0.10006714102E+04 0.  0.
         25    2    3    3    0    0 -0.12148372193E+03 -0.87915542231E+01 -0.14833362287E+03  0.22871636953E+03  0.12438942036E+03 0.  0.
         35    2    3    3    0    0  0.12148372193E+03  0.87915542231E+01 -0.13136499564E+04  0.15429323703E+04  0.80008031165E+03 0.  0.
         22    1    5    5    0    0  0.28800445933E+03  0.30124802474E+03 -0.43686758796E+03  0.60377995198E+03  0.00000000000E+00 0. -1.
         22    1    5    5    0    0 -0.16652073740E+03 -0.29245647051E+03 -0.87678236849E+03  0.93915241831E+03  0.00000000000E+00 0. -1.
          5    1    4    4  502    0 -0.83981222847E+02 -0.60082988773E+02 -0.12166454812E+03  0.15964699684E+03  0.47000000000E+01 0. -1.
         -5    1    4    4    0  502 -0.37502499085E+02  0.51291434550E+02 -0.26669074746E+02  0.69069372689E+02  0.47000000000E+01 0. -1.
<mgrwt>
<rscale>  0 0.10006714E+04</rscale>
<asrwt>0</asrwt>
<pdfrwt beam="1">  1        2 0.24874092E+00 0.10006714E+04</pdfrwt>
<pdfrwt beam="2">  1       -2 0.23820400E-01 0.10006714E+04</pdfrwt>
<totfact> 0.20337594E+02</totfact>
</mgrwt>
</event>
<event>
 9    1  0.4321150E-036  0.1000113E+04  0.7818608E-02  0.8680930E-01
         -2   -1    0    0    0  501 -0.00000000000E+00  0.00000000000E+00  0.72543200149E+03  0.72543200149E+03  0.00000000000E+00 0. -1.
          2   -1    0    0  501    0  0.00000000000E+00 -0.00000000000E+00 -0.34470031758E+03  0.34470031758E+03  0.00000000000E+00 0. -1.
         36    2    1    2    0    0  0.00000000000E+00 -0.14210854715E-13  0.38073168391E+03  0.10701323191E+04  0.10001132762E+04 0.  0.
         25    2    3    3    0    0  0.63845279840E+02  0.35309308229E+02  0.19579181152E+03  0.24356144766E+03  0.12515901215E+03 0.  0.
         35    2    3    3    0    0 -0.63845279840E+02 -0.35309308229E+02  0.18493987239E+03  0.82657087142E+03  0.80230522999E+03 0.  0.
         22    1    5    5    0    0 -0.18992900787E+03  0.34581537574E+03  0.27954384818E+02  0.39552844368E+03  0.00000000000E+00 0.  1.
         22    1    5    5    0    0  0.12608372803E+03 -0.38112468397E+03  0.15698548757E+03  0.43104242774E+03  0.00000000000E+00 0.  1.
          5    1    4    4  502    0  0.30466526914E+02 -0.63006330577E+00  0.19164979458E+03  0.19411424473E+03  0.47000000000E+01 0.  1.
         -5    1    4    4    0  502  0.33378752926E+02  0.35939371535E+02  0.41420169342E+01  0.49447202929E+02  0.47000000000E+01 0.  1.
<mgrwt>
<rscale>  0 0.10001133E+04</rscale>
<asrwt>0</asrwt>
<pdfrwt beam="1">  1        2 0.53030818E-01 0.10001133E+04</pdfrwt>
<pdfrwt beam="2">  1       -2 0.11160492E+00 0.10001133E+04</pdfrwt>
<totfact> 0.70162616E+01</totfact>
</mgrwt>
</event>
<event>
 9    1  0.4321150E-036  0.9995959E+03  0.7818608E-02  0.8681423E-01
         -2   -1    0    0    0  501 -0.00000000000E+00  0.00000000000E+00  0.10769569984E+03  0.10769569984E+03  0.00000000000E+00 0.  1.
          2   -1    0    0  501    0  0.00000000000E+00 -0.00000000000E+00 -0.23194797865E+04  0.23194797865E+04  0.00000000000E+00 0.  1.
         36    2    1    2    0    0  0.35527136788E-13  0.00000000000E+00 -0.22117840866E+04  0.24271754863E+04  0.99959591610E+03 0.  0.
         25    2    3    3    0    0  0.53886138984E+02  0.39635215421E+02 -0.71607269203E+03  0.72980394618E+03  0.12401223051E+03 0.  0.
         35    2    3    3    0    0 -0.53886138984E+02 -0.39635215421E+02 -0.14957113946E+04  0.16973715401E+04  0.79965173859E+03 0.  0.
         22    1    5    5    0    0  0.20523337247E+03 -0.99553637161E+02 -0.13941420974E+04  0.14126796705E+04  0.00000000000E+00 0. -1.
         22    1    5    5    0    0 -0.25911951145E+03  0.59918421740E+02 -0.10156929723E+03  0.28469186961E+03  0.00000000000E+00 0. -1.
          5    1    4    4  502    0  0.35621960849E+02  0.44781044087E+02 -0.70500641250E+03  0.70734036903E+03  0.47000000000E+01 0. -1.
         -5    1    4    4    0  502  0.18264178134E+02 -0.51458286657E+01 -0.11066279533E+02  0.22463577148E+02  0.47000000000E+01 0. -1.
<mgrwt>
<rscale>  0 0.99959592E+03</rscale>
<asrwt>0</asrwt>
<pdfrwt beam="1">  1        2 0.35684305E+00 0.99959592E+03</pdfrwt>
<pdfrwt beam="2">  1       -2 0.16568569E-01 0.99959592E+03</pdfrwt>
<totfact> 0.15109493E+02</totfact>
</mgrwt>
</event>
<event>
 9    1  0.4321150E-036  0.9992422E+03  0.7818608E-02  0.8681760E-01
          1   -1    0    0  501    0  0.00000000000E+00  0.00000000000E+00  0.74384245975E+03  0.74384245975E+03  0.00000000000E+00 0.  1.
         -1   -1    0    0    0  501 -0.00000000000E+00 -0.00000000000E+00 -0.33558351429E+03  0.33558351429E+03  0.00000000000E+00 0.  1.
         36    2    1    2    0    0 -0.28421709430E-13  0.00000000000E+00  0.40825894546E+03  0.10794259740E+04  0.99924224635E+03 0.  0.
         25    2    3    3    0    0  0.88848266336E+02  0.94669985095E+02  0.22186182464E+02  0.18127221214E+03  0.12454303550E+03 0.  0.
         35    2    3    3    0    0 -0.88848266336E+02 -0.94669985095E+02  0.38607276299E+03  0.89815376191E+03  0.80048209299E+03 0.  0.
         22    1    5    5    0    0 -0.25808394125E+03 -0.21356962169E+03 -0.11651192054E+03  0.35467496622E+03  0.00000000000E+00 0.  1.
         22    1    5    5    0    0  0.16923567491E+03  0.11889963659E+03  0.50258468353E+03  0.54347879569E+03  0.00000000000E+00 0.  1.
          5    1    4    4  502    0  0.43336369930E+02  0.33722770393E+02  0.71667246415E+02  0.90407689996E+02  0.47000000000E+01 0. -1.
         -5    1    4    4    0  502  0.45511896406E+02  0.60947214702E+02 -0.49481063951E+02  0.90864522142E+02  0.47000000000E+01 0. -1.
<mgrwt>
<rscale>  0 0.99924225E+03</rscale>
<asrwt>0</asrwt>
<pdfrwt beam="1">  1        1 0.11443730E+00 0.99924225E+03</pdfrwt>
<pdfrwt beam="2">  1       -1 0.51628233E-01 0.99924225E+03</pdfrwt>
<totfact> 0.10724922E+02</totfact>
</mgrwt>
</event>
<event>
 9    1  0.4321150E-036  0.1007263E+04  0.7818608E-02  0.8674152E-01
         -2   -1    0    0    0  501 -0.00000000000E+00  0.00000000000E+00  0.33849837392E+03  0.33849837392E+03  0.00000000000E+00 0. -1.
          2   -1    0    0  501    0  0.00000000000E+00 -0.00000000000E+00 -0.74932359297E+03  0.74932359297E+03  0.00000000000E+00 0. -1.
         36    2    1    2    0    0 -0.21316282073E-13 -0.14210854715E-13 -0.41082521905E+03  0.10878219669E+04  0.10072632581E+04 0.  0.
         25    2    3    3    0    0  0.54278146154E+02  0.11516411397E+03  0.75369739660E+00  0.17880038027E+03  0.12553930710E+03 0.  0.
         35    2    3    3    0    0 -0.54278146154E+02 -0.11516411397E+03 -0.41157891644E+03  0.90902158662E+03  0.80044621942E+03 0.  0.
         22    1    5    5    0    0 -0.18218576335E+03  0.99764489483E+01  0.20063455912E+03  0.27119256667E+03  0.00000000000E+00 0. -1.
         22    1    5    5    0    0  0.12790761720E+03 -0.12514056292E+03 -0.61221347557E+03  0.63782901995E+03  0.00000000000E+00 0. -1.
          5    1    4    4  502    0 -0.53966591413E+01  0.66555448909E+02 -0.52514613770E+02  0.85080117352E+02  0.47000000000E+01 0. -1.
         -5    1    4    4    0  502  0.59674805295E+02  0.48608665065E+02  0.53268311166E+02  0.93720262915E+02  0.47000000000E+01 0. -1.
<mgrwt>
<rscale>  0 0.10072633E+04</rscale>
<asrwt>0</asrwt>
<pdfrwt beam="1">  1        2 0.11528055E+00 0.10072633E+04</pdfrwt>
<pdfrwt beam="2">  1       -2 0.52076673E-01 0.10072633E+04</pdfrwt>
<totfact> 0.15826006E+02</totfact>
</mgrwt>
</event>
<event>
 9    1  0.4321150E-036  0.1002316E+04  0.7818608E-02  0.8678835E-01
          2   -1    0    0  501    0  0.00000000000E+00  0.00000000000E+00  0.84213084856E+03  0.84213084856E+03  0.00000000000E+00 0.  1.
         -2   -1    0    0    0  501 -0.00000000000E+00 -0.00000000000E+00 -0.29824273402E+03  0.29824273402E+03  0.00000000000E+00 0.  1.
         36    2    1    2    0    0  0.00000000000E+00  0.00000000000E+00  0.54388811453E+03  0.11403735826E+04  0.10023161311E+04 0.  0.
         25    2    3    3    0    0 -0.45680830574E+02  0.13379160065E+03  0.14225105756E+03  0.23664852951E+03  0.12561939522E+03 0.  0.
         35    2    3    3    0    0  0.45680830574E+02 -0.13379160065E+03  0.40163705697E+03  0.90372505307E+03  0.79713218184E+03 0.  0.
         22    1    5    5    0    0  0.79772528670E+02 -0.36300109177E+02 -0.23913143044E+03  0.25468646466E+03  0.00000000000E+00 0. -1.
         22    1    5    5    0    0 -0.34091698096E+02 -0.97491491477E+02  0.64076848741E+03  0.64903858841E+03  0.00000000000E+00 0. -1.
          5    1    4    4  502    0 -0.17004918376E+02  0.81877651263E+02  0.14223592896E+01  0.83768909097E+02  0.47000000000E+01 0.  1.
         -5    1    4    4    0  502 -0.28675912198E+02  0.51913949391E+02  0.14082869827E+03  0.15287962042E+03  0.47000000000E+01 0.  1.
<mgrwt>
<rscale>  0 0.10023161E+04</rscale>
<asrwt>0</asrwt>
<pdfrwt beam="1">  1        2 0.12955859E+00 0.10023161E+04</pdfrwt>
<pdfrwt beam="2">  1       -2 0.45883498E-01 0.10023161E+04</pdfrwt>
<totfact> 0.17523161E+02</totfact>
</mgrwt>
</event>
<event>
 9    1  0.4321150E-036  0.1001479E+04  0.7818608E-02  0.8679631E-01
          2   -1    0    0  501    0  0.00000000000E+00  0.00000000000E+00  0.15596277373E+04  0.15596277373E+04  0.00000000000E+00 0.  1.
         -2   -1    0    0    0  501 -0.00000000000E+00 -0.00000000000E+00 -0.16076923061E+03  0.16076923061E+03  0.00000000000E+00 0.  1.
         36    2    1    2    0    0 -0.14210854715E-13  0.35527136788E-14  0.13988585067E+04  0.17203969680E+04  0.10014792087E+04 0.  0.
         25    2    3    3    0    0 -0.11103698996E+03 -0.44345142788E+01  0.11856442890E+03  0.20479120750E+03  0.12463160439E+03 0.  0.
         35    2    3    3    0    0  0.11103698996E+03  0.44345142788E+01  0.12802940778E+04  0.15156057605E+04  0.80346687384E+03 0.  0.
         22    1    5    5    0    0  0.42171656225E+02  0.19263562821E+03  0.12994129278E+04  0.13142910221E+04  0.00000000000E+00 0. -1.
         22    1    5    5    0    0  0.68865333731E+02 -0.18820111393E+03 -0.19118849926E+02  0.20131473840E+03  0.00000000000E+00 0. -1.
          5    1    4    4  502    0  0.72304438861E+01 -0.25809143815E+02 -0.97631675739E+01  0.28910217300E+02  0.47000000000E+01 0. -1.
         -5    1    4    4    0  502 -0.11826743384E+03  0.21374629536E+02  0.12832759648E+03  0.17588099020E+03  0.47000000000E+01 0. -1.
<mgrwt>
<rscale>  0 0.10014792E+04</rscale>
<asrwt>0</asrwt>
<pdfrwt beam="1">  1        2 0.23994272E+00 0.10014792E+04</pdfrwt>
<pdfrwt beam="2">  1       -2 0.24733729E-01 0.10014792E+04</pdfrwt>
<totfact> 0.20495648E+02</totfact>
</mgrwt>
</event>
<event>
 9    1  0.4321150E-036  0.1001912E+04  0.7818608E-02  0.8679219E-01
         -1   -1    0    0    0  501 -0.00000000000E+00  0.00000000000E+00  0.15413150354E+03  0.15413150354E+03  0.00000000000E+00 0. -1.
          1   -1    0    0  501    0  0.00000000000E+00 -0.00000000000E+00 -0.16282009824E+04  0.16282009824E+04  0.00000000000E+00 0. -1.
         36    2    1    2    0    0  0.14210854715E-13 -0.14210854715E-13 -0.14740694788E+04  0.17823324859E+04  0.10019123025E+04 0.  0.
         25    2    3    3    0    0  0.43601879104E+02  0.65410349643E+02 -0.67602730252E+02  0.16242275235E+03  0.12502553196E+03 0.  0.
         35    2    3    3    0    0 -0.43601879104E+02 -0.65410349643E+02 -0.14064667486E+04  0.16199097336E+04  0.79986198332E+03 0.  0.
         22    1    5    5    0    0 -0.41989476688E+03 -0.17222581717E+02 -0.82044359329E+03  0.92181121839E+03  0.00000000000E+00 0. -1.
         22    1    5    5    0    0  0.37629288778E+03 -0.48187767926E+02 -0.58602315528E+03  0.69809851518E+03  0.00000000000E+00 0. -1.
          5    1    4    4  502    0 -0.38614164655E+02  0.16623890083E+02  0.45654481030E+01  0.42548099251E+02  0.47000000000E+01 0. -1.
         -5    1    4    4    0  502  0.82216043759E+02  0.48786459560E+02 -0.72168178355E+02  0.11987465310E+03  0.47000000000E+01 0. -1.
<mgrwt>
<rscale>  0 0.10019123E+04</rscale>
<asrwt>0</asrwt>
<pdfrwt beam="1">  1        1 0.25049247E+00 0.10019123E+04</pdfrwt>
<pdfrwt beam="2">  1       -1 0.23712538E-01 0.10019123E+04</pdfrwt>
<totfact> 0.87576642E+01</totfact>
</mgrwt>
</event>
<event>
 9    1  0.4321150E-036  0.9995583E+03  0.7818608E-02  0.8681459E-01
          1   -1    0    0  501    0  0.00000000000E+00  0.00000000000E+00  0.58439692254E+03  0.58439692254E+03  0.00000000000E+00 0. -1.
         -1   -1    0    0    0  501 -0.00000000000E+00 -0.00000000000E+00 -0.42741359157E+03  0.42741359157E+03  0.00000000000E+00 0. -1.
         36    2    1    2    0    0  0.00000000000E+00  0.00000000000E+00  0.15698333097E+03  0.10118105141E+04  0.99955827758E+03 0.  0.
         25    2    3    3    0    0 -0.92368794918E+02 -0.62816971466E+02 -0.59267984173E+02  0.17685162161E+03  0.12363590069E+03 0.  0.
         35    2    3    3    0    0  0.92368794918E+02  0.62816971466E+02  0.21625131515E+03  0.83495889250E+03  0.79869503234E+03 0.  0.
         22    1    5    5    0    0  0.21936127088E+03 -0.74009608342E+02  0.46765727958E+03  0.52182384042E+03  0.00000000000E+00 0. -1.
         22    1    5    5    0    0 -0.12699247596E+03  0.13682657981E+03 -0.25140596443E+03  0.31313505208E+03  0.00000000000E+00 0. -1.
          5    1    4    4  502    0 -0.89338188788E+02 -0.63469289122E+02  0.74071791426E+01  0.10993916018E+03  0.47000000000E+01 0. -1.
         -5    1    4    4    0  502 -0.30306061299E+01  0.65231765619E+00 -0.66675163316E+02  0.66912461433E+02  0.47000000000E+01 0. -1.
<mgrwt>
<rscale>  0 0.99955828E+03</rscale>
<asrwt>0</asrwt>
<pdfrwt beam="1">  1        1 0.89907219E-01 0.99955828E+03</pdfrwt>
<pdfrwt beam="2">  1       -1 0.65755937E-01 0.99955828E+03</pdfrwt>
<totfact> 0.97267892E+01</totfact>
</mgrwt>
</event>
<event>
 9    1  0.4321150E-036  0.1000565E+04  0.7818608E-02  0.8680500E-01
          2   -1    0    0  501    0  0.00000000000E+00  0.00000000000E+00  0.14281308800E+04  0.14281308800E+04  0.00000000000E+00 0.  1.
         -2   -1    0    0    0  501 -0.00000000000E+00 -0.00000000000E+00 -0.17525183341E+03  0.17525183341E+03  0.00000000000E+00 0.  1.
         36    2    1    2    0    0  0.14210854715E-13 -0.14210854715E-13  0.12528790466E+04  0.16033827135E+04  0.10005649506E+04 0.  0.
         25    2    3    3    0    0  0.12176295260E+03  0.51352271248E+02  0.15834266809E+03  0.24120529064E+03  0.12507725337E+03 0.  0.
         35    2    3    3    0    0 -0.12176295260E+03 -0.51352271248E+02  0.10945363785E+04  0.13621774228E+04  0.80003385858E+03 0.  0.
         22    1    5    5    0    0 -0.19608300737E+03 -0.33917219040E+03  0.95809351789E+03  0.10350987922E+04  0.00000000000E+00 0.  1.
         22    1    5    5    0    0  0.74320054774E+02  0.28781991915E+03  0.13644286065E+03  0.32707863064E+03  0.00000000000E+00 0.  1.
          5    1    4    4  502    0  0.12379121901E+03  0.59799318203E+01  0.15026250873E+03  0.19483566670E+03  0.47000000000E+01 0. -1.
         -5    1    4    4    0  502 -0.20282664046E+01  0.45372339428E+02  0.80801593567E+01  0.46369623947E+02  0.47000000000E+01 0. -1.
<mgrwt>
<rscale>  0 0.10005650E+04</rscale>
<asrwt>0</asrwt>
<pdfrwt beam="1">  1        2 0.21971243E+00 0.10005650E+04</pdfrwt>
<pdfrwt beam="2">  1       -2 0.26961822E-01 0.10005650E+04</pdfrwt>
<totfact> 0.20865638E+02</totfact>
</mgrwt>
</event>
<event>
 9    1  0.4321150E-036  0.1001966E+04  0.7818608E-02  0.8679168E-01
         -2   -1    0    0    0  501 -0.00000000000E+00  0.00000000000E+00  0.66548963055E+03  0.66548963055E+03  0.00000000000E+00 0. -1.
          2   -1    0    0  501    0  0.00000000000E+00 -0.00000000000E+00 -0.37714202828E+03  0.37714202828E+03  0.00000000000E+00 0. -1.
         36    2    1    2    0    0 -0.28421709430E-13 -0.14210854715E-13  0.28834760228E+03  0.10426316588E+04  0.10019662850E+04 0.  0.
         25    2    3    3    0    0  0.68409716849E+02  0.47003026066E+02  0.17310639600E+03  0.22974216568E+03  0.12620009720E+03 0.  0.
         35    2    3    3    0    0 -0.68409716849E+02 -0.47003026066E+02  0.11524120627E+03  0.81288949316E+03  0.80038716797E+03 0.  0.
         22    1    5    5    0    0 -0.22748154004E+03  0.22971880719E+03 -0.18685810116E+03  0.37340933492E+03  0.00000000000E+00 0. -1.
         22    1    5    5    0    0  0.15907182320E+03 -0.27672183325E+03  0.30209930743E+03  0.43948015824E+03  0.00000000000E+00 0. -1.
          5    1    4    4  502    0  0.33274829552E+02  0.83661439360E+02  0.14702076651E+03  0.17246346425E+03  0.47000000000E+01 0. -1.
         -5    1    4    4    0  502  0.35134887297E+02 -0.36658413293E+02  0.26085629499E+02  0.57278701425E+02  0.47000000000E+01 0. -1.
<mgrwt>
<rscale>  0 0.10019663E+04</rscale>
<asrwt>0</asrwt>
<pdfrwt beam="1">  1        2 0.58021851E-01 0.10019663E+04</pdfrwt>
<pdfrwt beam="2">  1       -2 0.10238302E+00 0.10019663E+04</pdfrwt>
<totfact> 0.78680685E+01</totfact>
</mgrwt>
</event>
<event>
 9    1  0.4321150E-036  0.1002296E+04  0.7818608E-02  0.8678854E-01
          1   -1    0    0  501    0  0.00000000000E+00  0.00000000000E+00  0.15337017337E+04  0.15337017337E+04  0.00000000000E+00 0. -1.
         -1   -1    0    0    0  501 -0.00000000000E+00 -0.00000000000E+00 -0.16375377623E+03  0.16375377623E+03  0.00000000000E+00 0. -1.
         36    2    1    2    0    0  0.00000000000E+00  0.00000000000E+00  0.13699479574E+04  0.16974555099E+04  0.10022962646E+04 0.  0.
         25    2    3    3    0    0 -0.31905332202E+02  0.11673496341E+03  0.13023775561E+03  0.21736771311E+03  0.12506737310E+03 0.  0.
         35    2    3    3    0    0  0.31905332202E+02 -0.11673496341E+03  0.12397102018E+04  0.14800877968E+04  0.79945825393E+03 0.  0.
         22    1    5    5    0    0  0.50919974933E+02  0.20903603865E+03  0.11071578163E+04  0.11278684939E+04  0.00000000000E+00 0. -1.
         22    1    5    5    0    0 -0.19014642731E+02 -0.32577100206E+03  0.13255238550E+03  0.35221930288E+03  0.00000000000E+00 0. -1.
          5    1    4    4  502    0 -0.47253115058E+02  0.18797350610E+02 -0.30819844749E+01  0.51164302995E+02  0.47000000000E+01 0.  1.
         -5    1    4    4    0  502  0.15347782856E+02  0.97937612798E+02  0.13331974008E+03  0.16620341012E+03  0.47000000000E+01 0.  1.
<mgrwt>
<rscale>  0 0.10022963E+04</rscale>
<asrwt>0</asrwt>
<pdfrwt beam="1">  1        1 0.23595410E+00 0.10022963E+04</pdfrwt>
<pdfrwt beam="2">  1       -1 0.25192890E-01 0.10022963E+04</pdfrwt>
<totfact> 0.92306212E+01</totfact>
</mgrwt>
</event>
<event>
 9    1  0.4321150E-036  0.1000532E+04  0.7818608E-02  0.8680531E-01
          2   -1    0    0  501    0  0.00000000000E+00  0.00000000000E+00  0.30063756329E+03  0.30063756329E+03  0.00000000000E+00 0. -1.
         -2   -1    0    0    0  501 -0.00000000000E+00 -0.00000000000E+00 -0.83245158604E+03  0.83245158604E+03  0.00000000000E+00 0. -1.
         36    2    1    2    0    0  0.00000000000E+00  0.28421709430E-13 -0.53181402274E+03  0.11330891493E+04  0.10005322911E+04 0.  0.
         25    2    3    3    0    0  0.10434162204E+03 -0.69550264486E+02 -0.17325134362E+03  0.24780524634E+03  0.12516788194E+03 0.  0.
         35    2    3    3    0    0 -0.10434162204E+03  0.69550264486E+02 -0.35856267912E+03  0.88528390299E+03  0.79964741021E+03 0.  0.
         22    1    5    5    0    0 -0.24439332377E+03  0.34770605151E+03 -0.20290685578E+02  0.42548714068E+03  0.00000000000E+00 0. -1.
         22    1    5    5    0    0  0.14005170174E+03 -0.27815578702E+03 -0.33827199355E+03  0.45979676231E+03  0.00000000000E+00 0. -1.
          5    1    4    4  502    0 -0.11918143302E+01  0.30538248398E+02 -0.22245291783E+02  0.38091311911E+02  0.47000000000E+01 0.  1.
         -5    1    4    4    0  502  0.10553343637E+03 -0.10008851288E+03 -0.15100605184E+03  0.20971393443E+03  0.47000000000E+01 0.  1.
<mgrwt>
<rscale>  0 0.10005323E+04</rscale>
<asrwt>0</asrwt>
<pdfrwt beam="1">  1        2 0.46251932E-01 0.10005323E+04</pdfrwt>
<pdfrwt beam="2">  1       -2 0.12806948E+00 0.10005323E+04</pdfrwt>
<totfact> 0.57155516E+01</totfact>
</mgrwt>
</event>
<event>
 9    1  0.4321150E-036  0.1000105E+04  0.7818608E-02  0.8680938E-01
         -2   -1    0    0    0  501 -0.00000000000E+00  0.00000000000E+00  0.26407824210E+03  0.26407824210E+03  0.00000000000E+00 0.  1.
          2   -1    0    0  501    0  0.00000000000E+00 -0.00000000000E+00 -0.94688866558E+03  0.94688866558E+03  0.00000000000E+00 0.  1.
         36    2    1    2    0    0 -0.71054273576E-14 -0.28421709430E-13 -0.68281042347E+03  0.12109669077E+04  0.10001053830E+04 0.  0.
         25    2    3    3    0    0 -0.20073390202E+02 -0.13447675577E+03 -0.87694987227E+02  0.20476827803E+03  0.12550975288E+03 0.  0.
         35    2    3    3    0    0  0.20073390202E+02  0.13447675577E+03 -0.59511543625E+03  0.10061986297E+04  0.79986646449E+03 0.  0.
         22    1    5    5    0    0  0.12582393669E+02  0.42555226587E+03 -0.57346427026E+03  0.71422287620E+03  0.00000000000E+00 0. -1.
         22    1    5    5    0    0  0.74909965330E+01 -0.29107551011E+03 -0.21651165983E+02  0.29197575345E+03  0.00000000000E+00 0. -1.
          5    1    4    4  502    0  0.45328971477E+02 -0.82934922903E+02 -0.74260671674E+02  0.12028987675E+03  0.47000000000E+01 0.  1.
         -5    1    4    4    0  502 -0.65402361679E+02 -0.51541832863E+02 -0.13434315553E+02  0.84478401277E+02  0.47000000000E+01 0.  1.
<mgrwt>
<rscale>  0 0.10001054E+04</rscale>
<asrwt>0</asrwt>
<pdfrwt beam="1">  1        2 0.14567518E+00 0.10001054E+04</pdfrwt>
<pdfrwt beam="2">  1       -2 0.40627422E-01 0.10001054E+04</pdfrwt>
<totfact> 0.18923250E+02</totfact>
</mgrwt>
</event>
<event>
 9    1  0.4321150E-036  0.1000225E+04  0.7818608E-02  0.8680824E-01
         -2   -1    0    0    0  501 -0.00000000000E+00  0.00000000000E+00  0.78920092710E+03  0.78920092710E+03  0.00000000000E+00 0.  1.
          2   -1    0    0  501    0  0.00000000000E+00 -0.00000000000E+00 -0.31691865960E+03  0.31691865960E+03  0.00000000000E+00 0.  1.
         36    2    1    2    0    0  0.00000000000E+00  0.00000000000E+00  0.47228226750E+03  0.11061195867E+04  0.10002249746E+04 0.  0.
         25    2    3    3    0    0  0.13149728308E+03 -0.49553035720E+02  0.81625614393E+02  0.20459058428E+03  0.12428808247E+03 0.  0.
         35    2    3    3    0    0 -0.13149728308E+03  0.49553035720E+02  0.39065665311E+03  0.90152900242E+03  0.80024676368E+03 0.  0.
         22    1    5    5    0    0 -0.44636095899E+03  0.15728705098E+03  0.17302671457E+03  0.50390035331E+03  0.00000000000E+00 0. -1.
         22    1    5    5    0    0  0.31486367590E+03 -0.10773401526E+03  0.21762993854E+03  0.39762864911E+03  0.00000000000E+00 0. -1.
          5    1    4    4  502    0  0.70096739797E+02 -0.11659688451E+02 -0.25245817024E+02  0.75557544575E+02  0.47000000000E+01 0.  1.
         -5    1    4    4    0  502  0.61400543286E+02 -0.37893347269E+02  0.10687143142E+03  0.12903303971E+03  0.47000000000E+01 0.  1.
<mgrwt>
<rscale>  0 0.10002250E+04</rscale>
<asrwt>0</asrwt>
<pdfrwt beam="1">  1        2 0.48756717E-01 0.10002250E+04</pdfrwt>
<pdfrwt beam="2">  1       -2 0.12141553E+00 0.10002250E+04</pdfrwt>
<totfact> 0.62009956E+01</totfact>
</mgrwt>
</event>
<event>
 9    1  0.4321150E-036  0.9990287E+03  0.7818608E-02  0.8681963E-01
         -2   -1    0    0    0  501 -0.00000000000E+00  0.00000000000E+00  0.71093847877E+03  0.71093847877E+03  0.00000000000E+00 0. -1.
          2   -1    0    0  501    0  0.00000000000E+00 -0.00000000000E+00 -0.35096507421E+03  0.35096507421E+03  0.00000000000E+00 0. -1.
         36    2    1    2    0    0 -0.71054273576E-14  0.28421709430E-13  0.35997340457E+03  0.10619035530E+04  0.99902868019E+03 0.  0.
         25    2    3    3    0    0  0.11642554088E+02 -0.64909075651E+02  0.20033658725E+03  0.24400649693E+03  0.12270161037E+03 0.  0.
         35    2    3    3    0    0 -0.11642554088E+02  0.64909075651E+02  0.15963681732E+03  0.81789705605E+03  0.79945165187E+03 0.  0.
         22    1    5    5    0    0  0.13077940349E+03  0.69192166471E+02  0.46120808634E+03  0.48435906845E+03  0.00000000000E+00 0.  1.
         22    1    5    5    0    0 -0.14242195758E+03 -0.42830908198E+01 -0.30157126903E+03  0.33353798760E+03  0.00000000000E+00 0.  1.
          5    1    4    4  502    0 -0.34702474427E+02 -0.79942856543E+02  0.10261384435E+03  0.13471010762E+03  0.47000000000E+01 0. -1.
         -5    1    4    4    0  502  0.46345028515E+02  0.15033780892E+02  0.97722742900E+02  0.10929638931E+03  0.47000000000E+01 0. -1.
<mgrwt>
<rscale>  0 0.99902868E+03</rscale>
<asrwt>0</asrwt>
<pdfrwt beam="1">  1        2 0.53994627E-01 0.99902868E+03</pdfrwt>
<pdfrwt beam="2">  1       -2 0.10937515E+00 0.99902868E+03</pdfrwt>
<totfact> 0.72368593E+01</totfact>
</mgrwt>
</event>
<event>
 9    1  0.4321150E-036  0.9999972E+03  0.7818608E-02  0.8681041E-01
         -2   -1    0    0    0  501 -0.00000000000E+00  0.00000000000E+00  0.96419603527E+03  0.96419603527E+03  0.00000000000E+00 0. -1.
          2   -1    0    0  501    0  0.00000000000E+00 -0.00000000000E+00 -0.25928190539E+03  0.25928190539E+03  0.00000000000E+00 0. -1.
         36    2    1    2    0    0  0.28421709430E-13  0.14210854715E-13  0.70491412988E+03  0.12234779407E+04  0.99999717039E+03 0.  0.
         25    2    3    3    0    0 -0.12509217603E+03 -0.16416542150E+02  0.20381935988E+03  0.27072256788E+03  0.12582059424E+03 0.  0.
         35    2    3    3    0    0  0.12509217603E+03  0.16416542150E+02  0.50109477000E+03  0.95275537279E+03  0.80045566804E+03 0.  0.
         22    1    5    5    0    0 -0.14347850907E+03  0.35181210880E+03  0.21517073677E+03  0.43664205984E+03  0.00000000000E+00 0.  1.
         22    1    5    5    0    0  0.26857068509E+03 -0.33539556665E+03  0.28592403323E+03  0.51611331295E+03  0.00000000000E+00 0.  1.
          5    1    4    4  502    0 -0.10821180750E+03 -0.60468478785E+02  0.17733880384E+03  0.21641943895E+03  0.47000000000E+01 0. -1.
         -5    1    4    4    0  502 -0.16880368529E+02  0.44051936635E+02  0.26480556044E+02  0.54303128928E+02  0.47000000000E+01 0. -1.
<mgrwt>
<rscale>  0 0.99999717E+03</rscale>
<asrwt>0</asrwt>
<pdfrwt beam="1">  1        2 0.39889524E-01 0.99999717E+03</pdfrwt>
<pdfrwt beam="2">  1       -2 0.14833785E+00 0.99999717E+03</pdfrwt>
<totfact> 0.45221234E+01</totfact>
</mgrwt>
</event>
<event>
 9    1  0.4321150E-036  0.9987855E+03  0.7818608E-02  0.8682195E-01
         -1   -1    0    0    0  501 -0.00000000000E+00  0.00000000000E+00  0.10524084001E+03  0.10524084001E+03  0.00000000000E+00 0.  1.
          1   -1    0    0  501    0  0.00000000000E+00 -0.00000000000E+00 -0.23697370874E+04  0.23697370874E+04  0.00000000000E+00 0.  1.
         36    2    1    2    0    0  0.00000000000E+00  0.71054273576E-14 -0.22644962474E+04  0.24749779274E+04  0.99878550588E+03 0.  0.
         25    2    3    3    0    0  0.12717383533E+03  0.58266642258E+02 -0.35570111089E+03  0.40127998879E+03  0.12220541364E+03 0.  0.
         35    2    3    3    0    0 -0.12717383533E+03 -0.58266642258E+02 -0.19087951365E+04  0.20736979387E+04  0.79822057199E+03 0.  0.
         22    1    5    5    0    0  0.23642393354E+03 -0.78059370200E+02 -0.18066041617E+03  0.30761620178E+03  0.00000000000E+00 0. -1.
         22    1    5    5    0    0 -0.36359776887E+03  0.19792727942E+02 -0.17281347204E+04  0.17660817369E+04  0.00000000000E+00 0. -1.
          5    1    4    4  502    0 -0.21038493995E+02  0.25739227382E+02 -0.74510436447E+02  0.81725278802E+02  0.47000000000E+01 0. -1.
         -5    1    4    4    0  502  0.14821232932E+03  0.32527414876E+02 -0.28119067444E+03  0.31955470998E+03  0.47000000000E+01 0. -1.
<mgrwt>
<rscale>  0 0.99878551E+03</rscale>
<asrwt>0</asrwt>
<pdfrwt beam="1">  1        1 0.36457491E+00 0.99878551E+03</pdfrwt>
<pdfrwt beam="2">  1       -1 0.16190900E-01 0.99878551E+03</pdfrwt>
<totfact> 0.49533932E+01</totfact>
</mgrwt>
</event>
<event>
 9    1  0.4321150E-036  0.9999603E+03  0.7818608E-02  0.8681076E-01
         -2   -1    0    0    0  501 -0.00000000000E+00  0.00000000000E+00  0.16504335537E+03  0.16504335537E+03  0.00000000000E+00 0. -1.
          2   -1    0    0  501    0  0.00000000000E+00 -0.00000000000E+00 -0.15146332646E+04  0.15146332646E+04  0.00000000000E+00 0. -1.
         36    2    1    2    0    0  0.71054273576E-14 -0.28421709430E-13 -0.13495899092E+04  0.16796766200E+04  0.99996031152E+03 0.  0.
         25    2    3    3    0    0  0.58377140248E+02 -0.11239489714E+03 -0.15160826919E+03  0.23382075141E+03  0.12508626262E+03 0.  0.
         35    2    3    3    0    0 -0.58377140248E+02  0.11239489714E+03 -0.11979816401E+04  0.14458558686E+04  0.79956155448E+03 0.  0.
         22    1    5    5    0    0 -0.49563603131E+02 -0.52405799812E+02  0.10778889382E+03  0.12969720213E+03  0.00000000000E+00 0.  1.
         22    1    5    5    0    0 -0.88135371178E+01  0.16480069695E+03 -0.13057705339E+04  0.13161586665E+04  0.00000000000E+00 0.  1.
          5    1    4    4  502    0  0.34454711304E+02  0.14710038365E+02 -0.73566110251E+02  0.82689630168E+02  0.47000000000E+01 0.  1.
         -5    1    4    4    0  502  0.23922428944E+02 -0.12710493550E+03 -0.78042158940E+02  0.15113112124E+03  0.47000000000E+01 0.  1.
<mgrwt>
<rscale>  0 0.99996031E+03</rscale>
<asrwt>0</asrwt>
<pdfrwt beam="1">  1        2 0.23302049E+00 0.99996031E+03</pdfrwt>
<pdfrwt beam="2">  1       -2 0.25391287E-01 0.99996031E+03</pdfrwt>
<totfact> 0.20743495E+02</totfact>
</mgrwt>
</event>
<event>
 9    1  0.4321150E-036  0.9999987E+03  0.7818608E-02  0.8681039E-01
         -1   -1    0    0    0  501 -0.00000000000E+00  0.00000000000E+00  0.22444966193E+03  0.22444966193E+03  0.00000000000E+00 0. -1.
          1   -1    0    0  501    0  0.00000000000E+00 -0.00000000000E+00 -0.11138326341E+04  0.11138326341E+04  0.00000000000E+00 0. -1.
         36    2    1    2    0    0 -0.14210854715E-13 -0.14210854715E-13 -0.88938297220E+03  0.13382822961E+04  0.99999871635E+03 0.  0.
         25    2    3    3    0    0 -0.16560783663E+02 -0.12134895248E+03 -0.77789002069E+02  0.19171341461E+03  0.12531191754E+03 0.  0.
         35    2    3    3    0    0  0.16560783663E+02  0.12134895248E+03 -0.81159397013E+03  0.11465688814E+04  0.80058453627E+03 0.  0.
         22    1    5    5    0    0  0.23616600446E+03  0.17707624712E+03 -0.86484358338E+03  0.91382974490E+03  0.00000000000E+00 0. -1.
         22    1    5    5    0    0 -0.21960522079E+03 -0.55727294641E+02  0.53249613248E+02  0.23273913654E+03  0.00000000000E+00 0. -1.
          5    1    4    4  502    0  0.43046933719E+02 -0.10406534302E+03 -0.45019692127E+02  0.12137337764E+03  0.47000000000E+01 0.  1.
         -5    1    4    4    0  502 -0.59607717383E+02 -0.17283609453E+02 -0.32769309942E+02  0.70340036973E+02  0.47000000000E+01 0.  1.
<mgrwt>
<rscale>  0 0.99999872E+03</rscale>
<asrwt>0</asrwt>
<pdfrwt beam="1">  1        1 0.17135887E+00 0.99999872E+03</pdfrwt>
<pdfrwt beam="2">  1       -1 0.34530716E-01 0.99999872E+03</pdfrwt>
<totfact> 0.10918578E+02</totfact>
</mgrwt>
</event>
<event>
 9    1  0.4321150E-036  0.9994092E+03  0.7818608E-02  0.8681601E-01
         -2   -1    0    0    0  501 -0.00000000000E+00  0.00000000000E+00  0.21960539943E+03  0.21960539943E+03  0.00000000000E+00 0.  1.
          2   -1    0    0  501    0  0.00000000000E+00 -0.00000000000E+00 -0.11370608639E+04  0.11370608639E+04  0.00000000000E+00 0.  1.
         36    2    1    2    0    0  0.21316282073E-13  0.00000000000E+00 -0.91745546445E+03  0.13566662633E+04  0.99940923588E+03 0.  0.
         25    2    3    3    0    0  0.62674706361E+02 -0.10249746713E+03 -0.73940439850E+02  0.18919657257E+03  0.12607261733E+03 0.  0.
         35    2    3    3    0    0 -0.62674706361E+02  0.10249746713E+03 -0.84351502460E+03  0.11674696907E+04  0.79814411762E+03 0.  0.
         22    1    5    5    0    0  0.34307204264E+03 -0.29058142563E+01 -0.57518116340E+03  0.66973146927E+03  0.00000000000E+00 0. -1.
         22    1    5    5    0    0 -0.40574674900E+03  0.10540328139E+03 -0.26833386119E+03  0.49773822147E+03  0.00000000000E+00 0. -1.
          5    1    4    4  502    0  0.45633112665E+02 -0.19262129786E+02  0.27455337993E+02  0.56826896798E+02  0.47000000000E+01 0.  1.
         -5    1    4    4    0  502  0.17041593696E+02 -0.83235337348E+02 -0.10139577784E+03  0.13236967577E+03  0.47000000000E+01 0.  1.
<mgrwt>
<rscale>  0 0.99940924E+03</rscale>
<asrwt>0</asrwt>
<pdfrwt beam="1">  1        2 0.17493244E+00 0.99940924E+03</pdfrwt>
<pdfrwt beam="2">  1       -2 0.33785446E-01 0.99940924E+03</pdfrwt>
<totfact> 0.20431111E+02</totfact>
</mgrwt>
</event>
<event>
 9    1  0.4321150E-036  0.9995475E+03  0.7818608E-02  0.8681469E-01
          1   -1    0    0  501    0  0.00000000000E+00  0.00000000000E+00  0.65391115836E+03  0.65391115836E+03  0.00000000000E+00 0. -1.
         -1   -1    0    0    0  501 -0.00000000000E+00 -0.00000000000E+00 -0.38196898079E+03  0.38196898079E+03  0.00000000000E+00 0. -1.
         36    2    1    2    0    0  0.00000000000E+00 -0.28421709430E-13  0.27194217757E+03  0.10358801391E+04  0.99954745497E+03 0.  0.
         25    2    3    3    0    0 -0.40084723030E+02  0.85334572415E+02 -0.45892376052E+02  0.16372331347E+03  0.12573956785E+03 0.  0.
         35    2    3    3    0    0  0.40084723030E+02 -0.85334572415E+02  0.31783455362E+03  0.87215682568E+03  0.80669074052E+03 0.  0.
         22    1    5    5    0    0  0.11086329676E+03 -0.31141091097E+03 -0.13818375013E+03  0.35827667359E+03  0.00000000000E+00 0.  1.
         22    1    5    5    0    0 -0.70778573727E+02  0.22607633855E+03  0.45601830375E+03  0.51388015209E+03  0.00000000000E+00 0.  1.
          5    1    4    4  502    0 -0.30508417084E+02  0.31572243868E+02 -0.85412678778E+02  0.96150849148E+02  0.47000000000E+01 0.  1.
         -5    1    4    4    0  502 -0.95763059464E+01  0.53762328547E+02  0.39520302726E+02  0.67572464318E+02  0.47000000000E+01 0.  1.
<mgrwt>
<rscale>  0 0.99954745E+03</rscale>
<asrwt>0</asrwt>
<pdfrwt beam="1">  1        1 0.10060172E+00 0.99954745E+03</pdfrwt>
<pdfrwt beam="2">  1       -1 0.58764458E-01 0.99954745E+03</pdfrwt>
<totfact> 0.10240098E+02</totfact>
</mgrwt>
</event>
<event>
 9    1  0.4321150E-036  0.9988957E+03  0.7818608E-02  0.8682090E-01
          1   -1    0    0  501    0  0.00000000000E+00  0.00000000000E+00  0.31552886468E+03  0.31552886468E+03  0.00000000000E+00 0.  1.
         -1   -1    0    0    0  501 -0.00000000000E+00 -0.00000000000E+00 -0.79057155160E+03  0.79057155160E+03  0.00000000000E+00 0.  1.
         36    2    1    2    0    0 -0.71054273576E-14  0.14210854715E-13 -0.47504268692E+03  0.11061004163E+04  0.99889567849E+03 0.  0.
         25    2    3    3    0    0 -0.93954209999E+01  0.66693559282E+02 -0.22201503819E+03  0.26373199659E+03  0.12540966493E+03 0.  0.
         35    2    3    3    0    0  0.93954209999E+01 -0.66693559282E+02 -0.25302764873E+03  0.84236841969E+03  0.80064053026E+03 0.  0.
         22    1    5    5    0    0  0.16347777196E+03  0.78634572529E+02  0.24286490359E+03  0.30313650278E+03  0.00000000000E+00 0. -1.
         22    1    5    5    0    0 -0.15408235096E+03 -0.14532813181E+03 -0.49589255232E+03  0.53923191691E+03  0.00000000000E+00 0. -1.
          5    1    4    4  502    0  0.57475110563E+02  0.33990769183E+02 -0.90921736277E+02  0.11290532694E+03  0.47000000000E+01 0. -1.
         -5    1    4    4    0  502 -0.66870531563E+02  0.32702790100E+02 -0.13109330191E+03  0.15082666965E+03  0.47000000000E+01 0. -1.
<mgrwt>
<rscale>  0 0.99889568E+03</rscale>
<asrwt>0</asrwt>
<pdfrwt beam="1">  1        1 0.48542903E-01 0.99889568E+03</pdfrwt>
<pdfrwt beam="2">  1       -1 0.12162639E+00 0.99889568E+03</pdfrwt>
<totfact> 0.59068930E+01</totfact>
</mgrwt>
</event>
<event>
 9    1  0.4321150E-036  0.9996391E+03  0.7818608E-02  0.8681382E-01
          2   -1    0    0  501    0  0.00000000000E+00  0.00000000000E+00  0.79352133781E+03  0.79352133781E+03  0.00000000000E+00 0. -1.
         -2   -1    0    0    0  501 -0.00000000000E+00 -0.00000000000E+00 -0.31482403009E+03  0.31482403009E+03  0.00000000000E+00 0. -1.
         36    2    1    2    0    0  0.35527136788E-14  0.28421709430E-13  0.47869730773E+03  0.11083453679E+04  0.99963910594E+03 0.  0.
         25    2    3    3    0    0  0.13648136930E+02 -0.10133385073E+03 -0.14549477287E+02  0.16226266538E+03  0.12515056668E+03 0.  0.
         35    2    3    3    0    0 -0.13648136930E+02  0.10133385073E+03  0.49324678501E+03  0.94608270252E+03  0.80082786424E+03 0.  0.
         22    1    5    5    0    0 -0.29806185119E+03 -0.22549600469E+03  0.21507356302E+03  0.43121450901E+03  0.00000000000E+00 0.  1.
         22    1    5    5    0    0  0.28441371426E+03  0.32682985543E+03  0.27817322199E+03  0.51486819351E+03  0.00000000000E+00 0.  1.
          5    1    4    4  502    0  0.20764232717E+02 -0.30288999032E+02  0.52474509276E+02  0.64220253398E+02  0.47000000000E+01 0. -1.
         -5    1    4    4    0  502 -0.71160957871E+01 -0.71044851703E+02 -0.67023986564E+02  0.98042411984E+02  0.47000000000E+01 0. -1.
<mgrwt>
<rscale>  0 0.99963911E+03</rscale>
<asrwt>0</asrwt>
<pdfrwt beam="1">  1        2 0.12208021E+00 0.99963911E+03</pdfrwt>
<pdfrwt beam="2">  1       -2 0.48434466E-01 0.99963911E+03</pdfrwt>
<totfact> 0.17015962E+02</totfact>
</mgrwt>
</event>
<event>
 9    1  0.4321150E-036  0.1000337E+04  0.7818608E-02  0.8680717E-01
         -2   -1    0    0    0  501 -0.00000000000E+00  0.00000000000E+00  0.14181809956E+03  0.14181809956E+03  0.00000000000E+00 0. -1.
          2   -1    0    0  501    0  0.00000000000E+00 -0.00000000000E+00 -0.17640109910E+04  0.17640109910E+04  0.00000000000E+00 0. -1.
         36    2    1    2    0    0 -0.14210854715E-13 -0.14210854715E-13 -0.16221928915E+04  0.19058290906E+04  0.10003373158E+04 0.  0.
         25    2    3    3    0    0  0.56831074088E+02 -0.99488149020E+02 -0.14928349005E+03  0.22576174617E+03  0.12472025841E+03 0.  0.
         35    2    3    3    0    0 -0.56831074088E+02  0.99488149020E+02 -0.14729094014E+04  0.16800673444E+04  0.80002282103E+03 0.  0.
         22    1    5    5    0    0 -0.10647136286E+03 -0.18439743296E+03 -0.13501182547E+04  0.13668057163E+04  0.00000000000E+00 0.  1.
         22    1    5    5    0    0  0.49640288774E+02  0.28388558198E+03 -0.12279114668E+03  0.31326162808E+03  0.00000000000E+00 0.  1.
          5    1    4    4  502    0  0.82429207949E+02 -0.94877112915E+02 -0.15408453623E+03  0.19889790141E+03  0.47000000000E+01 0. -1.
         -5    1    4    4    0  502 -0.25598133861E+02 -0.46110361053E+01  0.48010461861E+01  0.26863844766E+02  0.47000000000E+01 0. -1.
<mgrwt>
<rscale>  0 0.10003373E+04</rscale>
<asrwt>0</asrwt>
<pdfrwt beam="1">  1        2 0.27138630E+00 0.10003373E+04</pdfrwt>
<pdfrwt beam="2">  1       -2 0.21818170E-01 0.10003373E+04</pdfrwt>
<totfact> 0.19601316E+02</totfact>
</mgrwt>
</event>
<event>
 9    1  0.4321150E-036  0.9995994E+03  0.7818608E-02  0.8681420E-01
         -2   -1    0    0    0  501 -0.00000000000E+00  0.00000000000E+00  0.11792296101E+03  0.11792296101E+03  0.00000000000E+00 0. -1.
          2   -1    0    0  501    0  0.00000000000E+00 -0.00000000000E+00 -0.21183299514E+04  0.21183299514E+04  0.00000000000E+00 0. -1.
         36    2    1    2    0    0 -0.21316282073E-13 -0.28421709430E-13 -0.20004069903E+04  0.22362529124E+04  0.99959940028E+03 0.  0.
         25    2    3    3    0    0  0.45180684163E+02  0.11746610844E+03 -0.22657530061E+03  0.28580582953E+03  0.12045341211E+03 0.  0.
         35    2    3    3    0    0 -0.45180684163E+02 -0.11746610844E+03 -0.17738316897E+04  0.19504470828E+04  0.80120245794E+03 0.  0.
         22    1    5    5    0    0 -0.28044663828E+03 -0.36892052661E+03 -0.11029911339E+04  0.11963871085E+04  0.00000000000E+00 0. -1.
         22    1    5    5    0    0  0.23526595412E+03  0.25145441817E+03 -0.67084055581E+03  0.75405997434E+03  0.00000000000E+00 0. -1.
          5    1    4    4  502    0  0.30481621618E+02  0.14055907529E+03 -0.20579952728E+03  0.25112052551E+03  0.47000000000E+01 0. -1.
         -5    1    4    4    0  502  0.14699062545E+02 -0.23092966843E+02 -0.20775773329E+02  0.34685304017E+02  0.47000000000E+01 0. -1.
<mgrwt>
<rscale>  0 0.99959940E+03</rscale>
<asrwt>0</asrwt>
<pdfrwt beam="1">  1        2 0.32589693E+00 0.99959940E+03</pdfrwt>
<pdfrwt beam="2">  1       -2 0.18141993E-01 0.99959940E+03</pdfrwt>
<totfact> 0.16961912E+02</totfact>
</mgrwt>
</event>
<event>
 9    1  0.4321150E-036  0.1000087E+04  0.7818608E-02  0.8680955E-01
          1   -1    0    0  501    0  0.00000000000E+00  0.00000000000E+00  0.26786779415E+03  0.26786779415E+03  0.00000000000E+00 0. -1.
         -1   -1    0    0    0  501 -0.00000000000E+00 -0.00000000000E+00 -0.93345921320E+03  0.93345921320E+03  0.00000000000E+00 0. -1.
         36    2    1    2    0    0  0.00000000000E+00  0.14210854715E-13 -0.66559141905E+03  0.12013270073E+04  0.10000873169E+04 0.  0.
         25    2    3    3    0    0  0.12798876508E+03  0.39140542307E+02 -0.89830448852E+02  0.20604892683E+03  0.12834930723E+03 0.  0.
         35    2    3    3    0    0 -0.12798876508E+03 -0.39140542307E+02 -0.57576097020E+03  0.99527808052E+03  0.80072757959E+03 0.  0.
         22    1    5    5    0    0 -0.33117503671E+03  0.14925635515E+03 -0.78096248164E+01  0.36333917313E+03  0.00000000000E+00 0.  1.
         22    1    5    5    0    0  0.20318627163E+03 -0.18839689745E+03 -0.56795134538E+03  0.63193890739E+03  0.00000000000E+00 0.  1.
          5    1    4    4  502    0  0.11568761682E+03  0.80275931003E+02 -0.57840468772E+02  0.15230055683E+03  0.47000000000E+01 0.  1.
         -5    1    4    4    0  502  0.12301148262E+02 -0.41135388696E+02 -0.31989980080E+02  0.53748369996E+02  0.47000000000E+01 0.  1.
<mgrwt>
<rscale>  0 0.10000873E+04</rscale>
<asrwt>0</asrwt>
<pdfrwt beam="1">  1        1 0.41210431E-01 0.10000873E+04</pdfrwt>
<pdfrwt beam="2">  1       -1 0.14360911E+00 0.10000873E+04</pdfrwt>
<totfact> 0.47167728E+01</totfact>
</mgrwt>
</event>
<event>
 9    1  0.4321150E-036  0.9994974E+03  0.7818608E-02  0.8681517E-01
          2   -1    0    0  501    0  0.00000000000E+00  0.00000000000E+00  0.36510282777E+04  0.36510282777E+04  0.00000000000E+00 0.  1.
         -2   -1    0    0    0  501 -0.00000000000E+00 -0.00000000000E+00 -0.68405048370E+02  0.68405048370E+02  0.00000000000E+00 0.  1.
         36    2    1    2    0    0 -0.35527136788E-14 -0.14210854715E-13  0.35826232293E+04  0.37194333261E+04  0.99949740557E+03 0.  0.
         25    2    3    3    0    0  0.16210208062E+02  0.36231875119E+02  0.17840810326E+03  0.22220714150E+03  0.12637659120E+03 0.  0.
         35    2    3    3    0    0 -0.16210208062E+02 -0.36231875119E+02  0.34042151261E+04  0.34972261846E+04  0.80020924883E+03 0.  0.
         22    1    5    5    0    0  0.37764949588E+02  0.18035178479E+03  0.31638306037E+04  0.31691918602E+04  0.00000000000E+00 0.  1.
         22    1    5    5    0    0 -0.53975157650E+02 -0.21658365991E+03  0.24038452233E+03  0.32803432436E+03  0.00000000000E+00 0.  1.
          5    1    4    4  502    0  0.92110828238E+01 -0.35136903827E+02  0.83200009681E+01  0.37560064876E+02  0.47000000000E+01 0.  1.
         -5    1    4    4    0  502  0.69991252381E+01  0.71368778946E+02  0.17008810229E+03  0.18464707662E+03  0.47000000000E+01 0.  1.
<mgrwt>
<rscale>  0 0.99949741E+03</rscale>
<asrwt>0</asrwt>
<pdfrwt beam="1">  1        2 0.56169651E+00 0.99949741E+03</pdfrwt>
<pdfrwt beam="2">  1       -2 0.10523856E-01 0.99949741E+03</pdfrwt>
<totfact> 0.40605965E+01</totfact>
</mgrwt>
</event>
<event>
 9    1  0.4321150E-036  0.1001005E+04  0.7818608E-02  0.8680081E-01
          1   -1    0    0  501    0  0.00000000000E+00  0.00000000000E+00  0.24116636405E+03  0.24116636405E+03  0.00000000000E+00 0. -1.
         -1   -1    0    0    0  501 -0.00000000000E+00 -0.00000000000E+00 -0.10387140879E+04  0.10387140879E+04  0.00000000000E+00 0. -1.
         36    2    1    2    0    0  0.35527136788E-14 -0.14210854715E-13 -0.79754772387E+03  0.12798804520E+04  0.10010052944E+04 0.  0.
         25    2    3    3    0    0  0.12151488111E+02  0.11876836407E+03 -0.54854755832E+02  0.18212115611E+03  0.12611696277E+03 0.  0.
         35    2    3    3    0    0 -0.12151488111E+02 -0.11876836407E+03 -0.74269296803E+03  0.10977592959E+04  0.79951800725E+03 0.  0.
         22    1    5    5    0    0  0.12730247456E+03 -0.31320388851E+03 -0.78505826999E+03  0.85476258873E+03  0.00000000000E+00 0.  1.
         22    1    5    5    0    0 -0.13945396267E+03  0.19443552444E+03  0.42365301959E+02  0.24299670714E+03  0.00000000000E+00 0.  1.
          5    1    4    4  502    0 -0.17023873981E+02 -0.11713607485E+02 -0.42841312728E+02  0.47796327912E+02  0.47000000000E+01 0.  1.
         -5    1    4    4    0  502  0.29175362092E+02  0.13048197156E+03 -0.12013443104E+02  0.13432482820E+03  0.47000000000E+01 0.  1.
<mgrwt>
<rscale>  0 0.10010053E+04</rscale>
<asrwt>0</asrwt>
<pdfrwt beam="1">  1        1 0.37102518E-01 0.10010053E+04</pdfrwt>
<pdfrwt beam="2">  1       -1 0.15980217E+00 0.10010053E+04</pdfrwt>
<totfact> 0.39519842E+01</totfact>
</mgrwt>
</event>
<event>
 9    1  0.4321150E-036  0.9959136E+03  0.7818608E-02  0.8684939E-01
         -2   -1    0    0    0  501 -0.00000000000E+00  0.00000000000E+00  0.12255602326E+03  0.12255602326E+03  0.00000000000E+00 0.  1.
          2   -1    0    0  501    0  0.00000000000E+00 -0.00000000000E+00 -0.20232457543E+04  0.20232457543E+04  0.00000000000E+00 0.  1.
         36    2    1    2    0    0  0.28421709430E-13  0.21316282073E-13 -0.19006897310E+04  0.21458017775E+04  0.99591355794E+03 0.  0.
         25    2    3    3    0    0 -0.13245939333E+03  0.53542167683E+02 -0.30746529290E+03  0.35716394437E+03  0.11233397624E+03 0.  0.
         35    2    3    3    0    0  0.13245939333E+03 -0.53542167683E+02 -0.15932244381E+04  0.17886378332E+04  0.80028053420E+03 0.  0.
         22    1    5    5    0    0  0.24080924843E+03  0.28423153366E+03 -0.12117567864E+04  0.12677267720E+04  0.00000000000E+00 0. -1.
         22    1    5    5    0    0 -0.10834985510E+03 -0.33777370134E+03 -0.38146765169E+03  0.52091106122E+03  0.00000000000E+00 0. -1.
          5    1    4    4  502    0 -0.14548606273E+02 -0.87888378446E+01 -0.14877646432E+03  0.14981799608E+03  0.47000000000E+01 0. -1.
         -5    1    4    4    0  502 -0.11791078705E+03  0.62331005528E+02 -0.15868882858E+03  0.20734594828E+03  0.47000000000E+01 0. -1.
<mgrwt>
<rscale>  0 0.99591356E+03</rscale>
<asrwt>0</asrwt>
<pdfrwt beam="1">  1        2 0.31126860E+00 0.99591356E+03</pdfrwt>
<pdfrwt beam="2">  1       -2 0.18854771E-01 0.99591356E+03</pdfrwt>
<totfact> 0.18000128E+02</totfact>
</mgrwt>
</event>
<event>
 9    1  0.4321150E-036  0.1002348E+04  0.7818608E-02  0.8678805E-01
         -1   -1    0    0    0  501 -0.00000000000E+00  0.00000000000E+00  0.66515665802E+03  0.66515665802E+03  0.00000000000E+00 0.  1.
          1   -1    0    0  501    0  0.00000000000E+00 -0.00000000000E+00 -0.37761870136E+03  0.37761870136E+03  0.00000000000E+00 0.  1.
         36    2    1    2    0    0 -0.14210854715E-13 -0.28421709430E-13  0.28753795666E+03  0.10427753594E+04  0.10023484292E+04 0.  0.
         25    2    3    3    0    0  0.55570298851E+02 -0.13170147523E+03  0.57593203747E+02  0.19821140403E+03  0.12464929554E+03 0.  0.
         35    2    3    3    0    0 -0.55570298851E+02  0.13170147523E+03  0.22994475292E+03  0.84456395535E+03  0.79998771777E+03 0.  0.
         22    1    5    5    0    0 -0.16632574686E+02  0.43255605297E+03 -0.44917560999E+02  0.43519991818E+03  0.00000000000E+00 0.  1.
         22    1    5    5    0    0 -0.38937724165E+02 -0.30085457774E+03  0.27486231391E+03  0.40936403716E+03  0.00000000000E+00 0.  1.
          5    1    4    4  502    0  0.40356259307E+02  0.12757310108E+02  0.24600588900E+02  0.49179829205E+02  0.47000000000E+01 0. -1.
         -5    1    4    4    0  502  0.15214039545E+02 -0.14445878533E+03  0.32992614847E+02  0.14903157482E+03  0.47000000000E+01 0. -1.
<mgrwt>
<rscale>  0 0.10023484E+04</rscale>
<asrwt>0</asrwt>
<pdfrwt beam="1">  1        1 0.58095185E-01 0.10023484E+04</pdfrwt>
<pdfrwt beam="2">  1       -1 0.10233179E+00 0.10023484E+04</pdfrwt>
<totfact> 0.70198409E+01</totfact>
</mgrwt>
</event>
<event>
 9    1  0.4321150E-036  0.9994159E+03  0.7818608E-02  0.8681594E-01
         -2   -1    0    0    0  501 -0.00000000000E+00  0.00000000000E+00  0.32294674580E+03  0.32294674580E+03  0.00000000000E+00 0. -1.
          2   -1    0    0  501    0  0.00000000000E+00 -0.00000000000E+00 -0.77321742431E+03  0.77321742431E+03  0.00000000000E+00 0. -1.
         36    2    1    2    0    0 -0.28421709430E-13 -0.14210854715E-13 -0.45027067852E+03  0.10961641701E+04  0.99941593138E+03 0.  0.
         25    2    3    3    0    0  0.10762604280E+03  0.53312119160E+02 -0.16366628002E+03  0.23791582697E+03  0.12406346105E+03 0.  0.
         35    2    3    3    0    0 -0.10762604280E+03 -0.53312119160E+02 -0.28660439850E+03  0.85824834314E+03  0.80001411871E+03 0.  0.
         22    1    5    5    0    0  0.93793816180E+02 -0.20652934098E+03  0.20473641233E+03  0.30556283670E+03  0.00000000000E+00 0.  1.
         22    1    5    5    0    0 -0.20141985898E+03  0.15321722182E+03 -0.49134081083E+03  0.55268550645E+03  0.00000000000E+00 0.  1.
          5    1    4    4  502    0  0.15814268009E+02 -0.17841716852E+02  0.12129050300E+02  0.27159193546E+02  0.47000000000E+01 0. -1.
         -5    1    4    4    0  502  0.91811774788E+02  0.71153836012E+02 -0.17579533032E+03  0.21075663342E+03  0.47000000000E+01 0. -1.
<mgrwt>
<rscale>  0 0.99941593E+03</rscale>
<asrwt>0</asrwt>
<pdfrwt beam="1">  1        2 0.11895652E+00 0.99941593E+03</pdfrwt>
<pdfrwt beam="2">  1       -2 0.49684116E-01 0.99941593E+03</pdfrwt>
<totfact> 0.16719706E+02</totfact>
</mgrwt>
</event>
<event>
 9    1  0.4321150E-036  0.9994355E+03  0.7818608E-02  0.8681576E-01
          1   -1    0    0  501    0  0.00000000000E+00  0.00000000000E+00  0.72025899346E+03  0.72025899346E+03  0.00000000000E+00 0. -1.
         -1   -1    0    0    0  501 -0.00000000000E+00 -0.00000000000E+00 -0.34670557611E+03  0.34670557611E+03  0.00000000000E+00 0. -1.
         36    2    1    2    0    0  0.00000000000E+00 -0.14210854715E-13  0.37355341735E+03  0.10669645696E+04  0.99943545920E+03 0.  0.
         25    2    3    3    0    0 -0.13511182858E+03 -0.41038035063E+02  0.72148710319E+02  0.20093385626E+03  0.12340847478E+03 0.  0.
         35    2    3    3    0    0  0.13511182858E+03  0.41038035063E+02  0.30140470703E+03  0.86603071331E+03  0.79951552357E+03 0.  0.
         22    1    5    5    0    0  0.17874995824E+03 -0.15046925958E+03 -0.21252436709E+03  0.31584672273E+03  0.00000000000E+00 0. -1.
         22    1    5    5    0    0 -0.43638129662E+02  0.19150729464E+03  0.51392907413E+03  0.55018399058E+03  0.00000000000E+00 0. -1.
          5    1    4    4  502    0 -0.12972359246E+03  0.15259709211E+02  0.47573727383E+02  0.13909140413E+03  0.47000000000E+01 0. -1.
         -5    1    4    4    0  502 -0.53882361127E+01 -0.56297744274E+02  0.24574982936E+02  0.61842452127E+02  0.47000000000E+01 0. -1.
<mgrwt>
<rscale>  0 0.99943546E+03</rscale>
<asrwt>0</asrwt>
<pdfrwt beam="1">  1        1 0.11080908E+00 0.99943546E+03</pdfrwt>
<pdfrwt beam="2">  1       -1 0.53339319E-01 0.99943546E+03</pdfrwt>
<totfact> 0.10613309E+02</totfact>
</mgrwt>
</event>
<event>
 9    1  0.4321150E-036  0.1001540E+04  0.7818608E-02  0.8679573E-01
          2   -1    0    0  501    0  0.00000000000E+00  0.00000000000E+00  0.29792247845E+03  0.29792247845E+03  0.00000000000E+00 0.  1.
         -2   -1    0    0    0  501 -0.00000000000E+00 -0.00000000000E+00 -0.84173057663E+03  0.84173057663E+03  0.00000000000E+00 0.  1.
         36    2    1    2    0    0 -0.21316282073E-13  0.28421709430E-13 -0.54380809818E+03  0.11396530551E+04  0.10015397338E+04 0.  0.
         25    2    3    3    0    0 -0.41037983191E+02  0.13364278559E+03 -0.85691757325E+02  0.20614262177E+03  0.12492875182E+03 0.  0.
         35    2    3    3    0    0  0.41037983191E+02 -0.13364278559E+03 -0.45811634085E+03  0.93351043332E+03  0.80126564705E+03 0.  0.
         22    1    5    5    0    0  0.39732460253E+03  0.68779420644E+02 -0.24114625546E+03  0.46983929700E+03  0.00000000000E+00 0. -1.
         22    1    5    5    0    0 -0.35628661934E+03 -0.20242220624E+03 -0.21697008539E+03  0.46367113632E+03  0.00000000000E+00 0. -1.
          5    1    4    4  502    0 -0.84959084383E+02  0.82079180855E+02 -0.66228210018E+02  0.13551126799E+03  0.47000000000E+01 0.  1.
         -5    1    4    4    0  502  0.43921101192E+02  0.51563604737E+02 -0.19463547307E+02  0.70631353783E+02  0.47000000000E+01 0.  1.
<mgrwt>
<rscale>  0 0.10015397E+04</rscale>
<asrwt>0</asrwt>
<pdfrwt beam="1">  1        2 0.45834227E-01 0.10015397E+04</pdfrwt>
<pdfrwt beam="2">  1       -2 0.12949701E+00 0.10015397E+04</pdfrwt>
<totfact> 0.56057833E+01</totfact>
</mgrwt>
</event>
<event>
 9    1  0.4321150E-036  0.1000158E+04  0.7818608E-02  0.8680888E-01
         -1   -1    0    0    0  501 -0.00000000000E+00  0.00000000000E+00  0.20872470076E+03  0.20872470076E+03  0.00000000000E+00 0.  1.
          1   -1    0    0  501    0  0.00000000000E+00 -0.00000000000E+00 -0.11981282546E+04  0.11981282546E+04  0.00000000000E+00 0.  1.
         36    2    1    2    0    0 -0.14210854715E-13 -0.28421709430E-13 -0.98940355388E+03  0.14068529554E+04  0.10001579104E+04 0.  0.
         25    2    3    3    0    0  0.59192912459E+02  0.11375129991E+03 -0.26653640058E+03  0.32137765381E+03  0.12569321548E+03 0.  0.
         35    2    3    3    0    0 -0.59192912459E+02 -0.11375129991E+03 -0.72286715330E+03  0.10854753016E+04  0.79954771585E+03 0.  0.
         22    1    5    5    0    0 -0.15663970942E+03 -0.34867270827E+03 -0.73755601235E+03  0.83072108882E+03  0.00000000000E+00 0. -1.
         22    1    5    5    0    0  0.97446796958E+02  0.23492140835E+03  0.14688859052E+02  0.25475421276E+03  0.00000000000E+00 0. -1.
          5    1    4    4  502    0 -0.22962455431E+02  0.18972965032E+02 -0.40517011370E+01  0.30426206527E+02  0.47000000000E+01 0. -1.
         -5    1    4    4    0  502  0.82155367890E+02  0.94778334881E+02 -0.26248469944E+03  0.29095144728E+03  0.47000000000E+01 0. -1.
<mgrwt>
<rscale>  0 0.10001579E+04</rscale>
<asrwt>0</asrwt>
<pdfrwt beam="1">  1        1 0.18432743E+00 0.10001579E+04</pdfrwt>
<pdfrwt beam="2">  1       -1 0.32111492E-01 0.10001579E+04</pdfrwt>
<totfact> 0.10694638E+02</totfact>
</mgrwt>
</event>
<event>
 9    1  0.4321150E-036  0.1000312E+04  0.7818608E-02  0.8680741E-01
         -1   -1    0    0    0  501 -0.00000000000E+00  0.00000000000E+00  0.75283206369E+03  0.75283206369E+03  0.00000000000E+00 0. -1.
          1   -1    0    0  501    0  0.00000000000E+00 -0.00000000000E+00 -0.33228667630E+03  0.33228667630E+03  0.00000000000E+00 0. -1.
         36    2    1    2    0    0  0.53290705182E-14  0.28421709430E-13  0.42054538739E+03  0.10851187400E+04  0.10003120798E+04 0.  0.
         25    2    3    3    0    0 -0.45620975418E+01 -0.98694225722E+02  0.18739429758E+03  0.24597620776E+03  0.12500523627E+03 0.  0.
         35    2    3    3    0    0  0.45620975418E+01  0.98694225722E+02  0.23315108981E+03  0.83914253223E+03  0.80002462199E+03 0.  0.
         22    1    5    5    0    0 -0.13438332930E+03 -0.32777539342E+03  0.14074994311E+03  0.38119041726E+03  0.00000000000E+00 0. -1.
         22    1    5    5    0    0  0.13894542684E+03  0.42646961914E+03  0.92401146702E+02  0.45795211497E+03  0.00000000000E+00 0. -1.
          5    1    4    4  502    0 -0.18724338264E+02 -0.64828500716E+02  0.14516868830E+02  0.69182113505E+02  0.47000000000E+01 0.  1.
         -5    1    4    4    0  502  0.14162240722E+02 -0.33865725007E+02  0.17287742875E+03  0.17679409426E+03  0.47000000000E+01 0.  1.
<mgrwt>
<rscale>  0 0.10003121E+04</rscale>
<asrwt>0</asrwt>
<pdfrwt beam="1">  1        1 0.51121027E-01 0.10003121E+04</pdfrwt>
<pdfrwt beam="2">  1       -1 0.11582032E+00 0.10003121E+04</pdfrwt>
<totfact> 0.62240866E+01</totfact>
</mgrwt>
</event>
<event>
 9    1  0.4321150E-036  0.9997196E+03  0.7818608E-02  0.8681305E-01
          3   -1    0    0  501    0  0.00000000000E+00  0.00000000000E+00  0.42811915292E+04  0.42811915292E+04  0.00000000000E+00 0. -1.
         -3   -1    0    0    0  501 -0.00000000000E+00 -0.00000000000E+00 -0.58362217467E+02  0.58362217467E+02  0.00000000000E+00 0. -1.
         36    2    1    2    0    0 -0.14210854715E-13  0.00000000000E+00  0.42228293117E+04  0.43395537466E+04  0.99971962278E+03 0.  0.
         25    2    3    3    0    0 -0.21839506768E+02  0.47063137038E+02  0.22566466245E+03  0.26316641033E+03  0.12506045227E+03 0.  0.
         35    2    3    3    0    0  0.21839506768E+02 -0.47063137038E+02  0.39971646492E+04  0.40763873363E+04  0.79807053540E+03 0.  0.
         22    1    5    5    0    0  0.19554093662E+03 -0.24860748297E+03  0.34841796836E+04  0.34985068253E+04  0.00000000000E+00 0. -1.
         22    1    5    5    0    0 -0.17370142986E+03  0.20154434593E+03  0.51298496561E+03  0.57788051105E+03  0.00000000000E+00 0. -1.
          5    1    4    4  502    0 -0.59300025647E+02  0.58010471651E+02  0.19904677429E+03  0.21569287475E+03  0.47000000000E+01 0.  1.
         -5    1    4    4    0  502  0.37460518879E+02 -0.10947334613E+02  0.26617888159E+02  0.47473535573E+02  0.47000000000E+01 0.  1.
<mgrwt>
<rscale>  0 0.99971962E+03</rscale>
<asrwt>0</asrwt>
<pdfrwt beam="1">  1        3 0.65864461E+00 0.99971962E+03</pdfrwt>
<pdfrwt beam="2">  1       -3 0.89788060E-02 0.99971962E+03</pdfrwt>
<totfact> 0.11532072E+00</totfact>
</mgrwt>
</event>
<event>
 9    1  0.4321150E-036  0.1000168E+04  0.7818608E-02  0.8680878E-01
          1   -1    0    0  501    0  0.00000000000E+00  0.00000000000E+00  0.93621085708E+03  0.93621085708E+03  0.00000000000E+00 0.  1.
         -1   -1    0    0    0  501 -0.00000000000E+00 -0.00000000000E+00 -0.26712360875E+03  0.26712360875E+03  0.00000000000E+00 0.  1.
         36    2    1    2    0    0 -0.10658141036E-13  0.00000000000E+00  0.66908724833E+03  0.12033344658E+04  0.10001680313E+04 0.  0.
         25    2    3    3    0    0 -0.16719487593E+02  0.65947455980E+01 -0.42226644979E+02  0.13297902706E+03  0.12480905478E+03 0.  0.
         35    2    3    3    0    0  0.16719487593E+02 -0.65947455980E+01  0.71131389331E+03  0.10703554388E+04  0.79960632725E+03 0.  0.
         22    1    5    5    0    0  0.26183369298E+03 -0.28635869528E+03  0.19568164746E+03  0.43456816761E+03  0.00000000000E+00 0.  1.
         22    1    5    5    0    0 -0.24511420538E+03  0.27976394969E+03  0.51563224585E+03  0.63578727117E+03  0.00000000000E+00 0.  1.
          5    1    4    4  502    0 -0.41340619773E+02  0.50966857726E+02  0.15268505710E+01  0.65811007455E+02  0.47000000000E+01 0.  1.
         -5    1    4    4    0  502  0.24621132180E+02 -0.44372112128E+02 -0.43753495550E+02  0.67168019603E+02  0.47000000000E+01 0.  1.
<mgrwt>
<rscale>  0 0.10001680E+04</rscale>
<asrwt>0</asrwt>
<pdfrwt beam="1">  1        1 0.14403244E+00 0.10001680E+04</pdfrwt>
<pdfrwt beam="2">  1       -1 0.41095940E-01 0.10001680E+04</pdfrwt>
<totfact> 0.11087480E+02</totfact>
</mgrwt>
</event>
<event>
 9    1  0.4321150E-036  0.1000208E+04  0.7818608E-02  0.8680840E-01
         -1   -1    0    0    0  501 -0.00000000000E+00  0.00000000000E+00  0.82358633756E+03  0.82358633756E+03  0.00000000000E+00 0.  1.
          1   -1    0    0  501    0  0.00000000000E+00 -0.00000000000E+00 -0.30367672350E+03  0.30367672350E+03  0.00000000000E+00 0.  1.
         36    2    1    2    0    0  0.14210854715E-13 -0.14210854715E-13  0.51990961406E+03  0.11272630611E+04  0.10002079794E+04 0.  0.
         25    2    3    3    0    0 -0.87345470446E+02 -0.94010746490E+02  0.17884933722E+03  0.24826920162E+03  0.11481837565E+03 0.  0.
         35    2    3    3    0    0  0.87345470446E+02  0.94010746490E+02  0.34106027683E+03  0.87899385943E+03  0.79990051933E+03 0.  0.
         22    1    5    5    0    0  0.24457486490E+03 -0.28781467824E+03  0.25905356414E+03  0.45799880201E+03  0.00000000000E+00 0.  1.
         22    1    5    5    0    0 -0.15722939445E+03  0.38182542473E+03  0.82006712697E+02  0.42099505742E+03  0.00000000000E+00 0.  1.
          5    1    4    4  502    0 -0.69981587635E+02 -0.32749014940E+02  0.16597137274E+03  0.18313521550E+03  0.47000000000E+01 0.  1.
         -5    1    4    4    0  502 -0.17363882811E+02 -0.61261731549E+02  0.12877964481E+02  0.65133986120E+02  0.47000000000E+01 0.  1.
<mgrwt>
<rscale>  0 0.10002080E+04</rscale>
<asrwt>0</asrwt>
<pdfrwt beam="1">  1        1 0.46719496E-01 0.10002080E+04</pdfrwt>
<pdfrwt beam="2">  1       -1 0.12670559E+00 0.10002080E+04</pdfrwt>
<totfact> 0.55994689E+01</totfact>
</mgrwt>
</event>
<event>
 9    1  0.4321150E-036  0.9990509E+03  0.7818608E-02  0.8681942E-01
         -2   -1    0    0    0  501 -0.00000000000E+00  0.00000000000E+00  0.15221589404E+03  0.15221589404E+03  0.00000000000E+00 0.  1.
          2   -1    0    0  501    0  0.00000000000E+00 -0.00000000000E+00 -0.16392880652E+04  0.16392880652E+04  0.00000000000E+00 0.  1.
         36    2    1    2    0    0  0.14210854715E-13  0.14210854715E-13 -0.14870721712E+04  0.17915039593E+04  0.99905094652E+03 0.  0.
         25    2    3    3    0    0  0.61945381494E+02  0.55455159695E+02 -0.92902003971E+02  0.18198036414E+03  0.13256532565E+03 0.  0.
         35    2    3    3    0    0 -0.61945381494E+02 -0.55455159695E+02 -0.13941701672E+04  0.16095235951E+04  0.79996452614E+03 0.  0.
         22    1    5    5    0    0 -0.11486664122E+02 -0.42685644471E+03 -0.67956409734E+03  0.80258689886E+03  0.00000000000E+00 0.  1.
         22    1    5    5    0    0 -0.50458717372E+02  0.37140128501E+03 -0.71460606990E+03  0.80693669628E+03  0.00000000000E+00 0.  1.
          5    1    4    4  502    0  0.74969633503E+02 -0.19963257811E+02 -0.31981631470E+02  0.84046965212E+02  0.47000000000E+01 0. -1.
         -5    1    4    4    0  502 -0.13024252008E+02  0.75418417506E+02 -0.60920372502E+02  0.97933398926E+02  0.47000000000E+01 0. -1.
<mgrwt>
<rscale>  0 0.99905095E+03</rscale>
<asrwt>0</asrwt>
<pdfrwt beam="1">  1        2 0.25219817E+00 0.99905095E+03</pdfrwt>
<pdfrwt beam="2">  1       -2 0.23417829E-01 0.99905095E+03</pdfrwt>
<totfact> 0.20355390E+02</totfact>
</mgrwt>
</event>
<event>
 9    1  0.4321150E-036  0.1000211E+04  0.7818608E-02  0.8680837E-01
          2   -1    0    0  501    0  0.00000000000E+00  0.00000000000E+00  0.29692253718E+03  0.29692253718E+03  0.00000000000E+00 0. -1.
         -2   -1    0    0    0  501 -0.00000000000E+00 -0.00000000000E+00 -0.84232523051E+03  0.84232523051E+03  0.00000000000E+00 0. -1.
         36    2    1    2    0    0  0.88817841970E-14  0.14210854715E-13 -0.54540269333E+03  0.11392477677E+04  0.10002106670E+04 0.  0.
         25    2    3    3    0    0 -0.99354129088E+01 -0.11648564033E+03 -0.19114759246E+03  0.25655173755E+03  0.12495509236E+03 0.  0.
         35    2    3    3    0    0  0.99354129088E+01  0.11648564033E+03 -0.35425510087E+03  0.88269603014E+03  0.79999249265E+03 0.  0.
         22    1    5    5    0    0  0.30361484827E+03  0.29817725683E+03 -0.32625726912E+03  0.53622332870E+03  0.00000000000E+00 0. -1.
         22    1    5    5    0    0 -0.29367943537E+03 -0.18169161650E+03 -0.27997831750E+02  0.34647270145E+03  0.00000000000E+00 0. -1.
          5    1    4    4  502    0 -0.31055652433E+01 -0.14930561890E+02 -0.14294386539E+03  0.14383186318E+03  0.47000000000E+01 0.  1.
         -5    1    4    4    0  502 -0.68298476655E+01 -0.10155507844E+03 -0.48203727073E+02  0.11271987438E+03  0.47000000000E+01 0.  1.
<mgrwt>
<rscale>  0 0.10002107E+04</rscale>
<asrwt>0</asrwt>
<pdfrwt beam="1">  1        2 0.45680391E-01 0.10002107E+04</pdfrwt>
<pdfrwt beam="2">  1       -2 0.12958850E+00 0.10002107E+04</pdfrwt>
<totfact> 0.56168541E+01</totfact>
</mgrwt>
</event>
<event>
 9    1  0.4321150E-036  0.1000288E+04  0.7818608E-02  0.8680764E-01
          2   -1    0    0  501    0  0.00000000000E+00  0.00000000000E+00  0.10085781671E+04  0.10085781671E+04  0.00000000000E+00 0.  1.
         -2   -1    0    0    0  501 -0.00000000000E+00 -0.00000000000E+00 -0.24801633370E+03  0.24801633370E+03  0.00000000000E+00 0.  1.
         36    2    1    2    0    0  0.00000000000E+00  0.28421709430E-13  0.76056183342E+03  0.12565945008E+04  0.10002876771E+04 0.  0.
         25    2    3    3    0    0  0.96378141666E+02  0.93549332694E+02  0.94301225842E+02  0.20656953117E+03  0.12545129004E+03 0.  0.
         35    2    3    3    0    0 -0.96378141666E+02 -0.93549332694E+02  0.66626060758E+03  0.10500249696E+04  0.80038054439E+03 0.  0.
         22    1    5    5    0    0 -0.51075045908E+02 -0.44929629477E+03  0.39409776501E+03  0.59982403186E+03  0.00000000000E+00 0. -1.
         22    1    5    5    0    0 -0.45303095758E+02  0.35574696208E+03  0.27216284258E+03  0.45020093779E+03  0.00000000000E+00 0. -1.
          5    1    4    4  502    0  0.61058865579E+02  0.10369759450E+03  0.18024472578E+02  0.12177170354E+03  0.47000000000E+01 0.  1.
         -5    1    4    4    0  502  0.35319276087E+02 -0.10148261811E+02  0.76276753265E+02  0.84797827624E+02  0.47000000000E+01 0.  1.
<mgrwt>
<rscale>  0 0.10002877E+04</rscale>
<asrwt>0</asrwt>
<pdfrwt beam="1">  1        2 0.15516587E+00 0.10002877E+04</pdfrwt>
<pdfrwt beam="2">  1       -2 0.38156360E-01 0.10002877E+04</pdfrwt>
<totfact> 0.19492728E+02</totfact>
</mgrwt>
</event>
<event>
 9    1  0.4321150E-036  0.1000815E+04  0.7818608E-02  0.8680262E-01
         -4   -1    0    0    0  501 -0.00000000000E+00  0.00000000000E+00  0.16473139715E+04  0.16473139715E+04  0.00000000000E+00 0.  1.
          4   -1    0    0  501    0  0.00000000000E+00 -0.00000000000E+00 -0.15200979678E+03  0.15200979678E+03  0.00000000000E+00 0.  1.
         36    2    1    2    0    0 -0.28421709430E-13  0.00000000000E+00  0.14953041747E+04  0.17993237683E+04  0.10008153917E+04 0.  0.
         25    2    3    3    0    0 -0.69827881405E+02  0.48249188568E+02  0.85570141752E+02  0.17378828697E+03  0.12520464173E+03 0.  0.
         35    2    3    3    0    0  0.69827881405E+02 -0.48249188568E+02  0.14097340330E+04  0.16255354813E+04  0.80486746741E+03 0.  0.
         22    1    5    5    0    0 -0.36234872650E+03 -0.36618981086E+02  0.78994587041E+03  0.86985747542E+03  0.00000000000E+00 0. -1.
         22    1    5    5    0    0  0.43217660791E+03 -0.11630207482E+02  0.61978816259E+03  0.75567800592E+03  0.00000000000E+00 0. -1.
          5    1    4    4  502    0 -0.37439332820E+02  0.60490792206E+01  0.10897472917E+03  0.11548106597E+03  0.47000000000E+01 0.  1.
         -5    1    4    4    0  502 -0.32388548585E+02  0.42200109348E+02 -0.23404587415E+02  0.58307220998E+02  0.47000000000E+01 0.  1.
<mgrwt>
<rscale>  0 0.10008154E+04</rscale>
<asrwt>0</asrwt>
<pdfrwt beam="1">  1        4 0.23386124E-01 0.10008154E+04</pdfrwt>
<pdfrwt beam="2">  1       -4 0.25343291E+00 0.10008154E+04</pdfrwt>
<totfact> 0.16792688E+00</totfact>
</mgrwt>
</event>
<event>
 9    1  0.4321150E-036  0.9993005E+03  0.7818608E-02  0.8681704E-01
          1   -1    0    0  501    0  0.00000000000E+00  0.00000000000E+00  0.83409963593E+03  0.83409963593E+03  0.00000000000E+00 0. -1.
         -1   -1    0    0    0  501 -0.00000000000E+00 -0.00000000000E+00 -0.29930520624E+03  0.29930520624E+03  0.00000000000E+00 0. -1.
         36    2    1    2    0    0  0.00000000000E+00  0.00000000000E+00  0.53479442969E+03  0.11334048422E+04  0.99930048246E+03 0.  0.
         25    2    3    3    0    0 -0.55956914522E+02 -0.10112146732E+03  0.18380995804E+03  0.25119721416E+03  0.12632185989E+03 0.  0.
         35    2    3    3    0    0  0.55956914522E+02  0.10112146732E+03  0.35098447165E+03  0.88220762802E+03  0.80108892900E+03 0.  0.
         22    1    5    5    0    0 -0.15844876003E+02  0.18990436458E+03 -0.22509108527E+03  0.29492494715E+03  0.00000000000E+00 0.  1.
         22    1    5    5    0    0  0.71801790525E+02 -0.88782897252E+02  0.57607555692E+03  0.58728268087E+03  0.00000000000E+00 0.  1.
          5    1    4    4  502    0 -0.15841018322E+01  0.23726995634E+02  0.68619514258E+02  0.72775046804E+02  0.47000000000E+01 0.  1.
         -5    1    4    4    0  502 -0.54372812690E+02 -0.12484846296E+03  0.11519044379E+03  0.17842216735E+03  0.47000000000E+01 0.  1.
<mgrwt>
<rscale>  0 0.99930048E+03</rscale>
<asrwt>0</asrwt>
<pdfrwt beam="1">  1        1 0.12832302E+00 0.99930048E+03</pdfrwt>
<pdfrwt beam="2">  1       -1 0.46046955E-01 0.99930048E+03</pdfrwt>
<totfact> 0.11001421E+02</totfact>
</mgrwt>
</event>
<event>
 9    1  0.4321150E-036  0.1000568E+04  0.7818608E-02  0.8680497E-01
          1   -1    0    0  501    0  0.00000000000E+00  0.00000000000E+00  0.16963958170E+04  0.16963958170E+04  0.00000000000E+00 0. -1.
         -1   -1    0    0    0  501 -0.00000000000E+00 -0.00000000000E+00 -0.14753887504E+03  0.14753887504E+03  0.00000000000E+00 0. -1.
         36    2    1    2    0    0 -0.42632564146E-13  0.00000000000E+00  0.15488569420E+04  0.18439346921E+04  0.10005684994E+04 0.  0.
         25    2    3    3    0    0 -0.70760390181E+02 -0.70460023334E+02  0.47346476747E+03  0.49970122824E+03  0.12474287057E+03 0.  0.
         35    2    3    3    0    0  0.70760390181E+02  0.70460023334E+02  0.10753921745E+04  0.13442334638E+04  0.80032720095E+03 0.  0.
         22    1    5    5    0    0 -0.34002284772E+03  0.10511376832E+03  0.29752641214E+03  0.46388188926E+03  0.00000000000E+00 0.  1.
         22    1    5    5    0    0  0.41078323790E+03 -0.34653744985E+02  0.77786576238E+03  0.88035157458E+03  0.00000000000E+00 0.  1.
          5    1    4    4  502    0 -0.53673761908E+02 -0.86856579438E+02  0.19474551866E+03  0.21993827577E+03  0.47000000000E+01 0. -1.
         -5    1    4    4    0  502 -0.17086628273E+02  0.16396556103E+02  0.27871924881E+03  0.27976295247E+03  0.47000000000E+01 0. -1.
<mgrwt>
<rscale>  0 0.10005685E+04</rscale>
<asrwt>0</asrwt>
<pdfrwt beam="1">  1        1 0.26098396E+00 0.10005685E+04</pdfrwt>
<pdfrwt beam="2">  1       -1 0.22698290E-01 0.10005685E+04</pdfrwt>
<totfact> 0.84329819E+01</totfact>
</mgrwt>
</event>
<event>
 9    1  0.4321150E-036  0.1000135E+04  0.7818608E-02  0.8680910E-01
         -1   -1    0    0    0  501 -0.00000000000E+00  0.00000000000E+00  0.66386347924E+03  0.66386347924E+03  0.00000000000E+00 0. -1.
          1   -1    0    0  501    0  0.00000000000E+00 -0.00000000000E+00 -0.37668498745E+03  0.37668498745E+03  0.00000000000E+00 0. -1.
         36    2    1    2    0    0  0.00000000000E+00  0.00000000000E+00  0.28717849178E+03  0.10405484667E+04  0.10001348036E+04 0.  0.
         25    2    3    3    0    0 -0.11938842578E+03  0.36934479382E+02  0.10650693309E+03  0.21283319915E+03  0.13541230331E+03 0.  0.
         35    2    3    3    0    0  0.11938842578E+03 -0.36934479382E+02  0.18067155870E+03  0.82771526754E+03  0.79803045056E+03 0.  0.
         22    1    5    5    0    0  0.39113370381E+03 -0.65666603041E+02 -0.12678075299E+03  0.41637847728E+03  0.00000000000E+00 0. -1.
         22    1    5    5    0    0 -0.27174527803E+03  0.28732123659E+02  0.30745231169E+03  0.41133679026E+03  0.00000000000E+00 0. -1.
          5    1    4    4  502    0  0.30010921847E+02  0.44000311080E+01  0.11610399175E+02  0.32816262324E+02  0.47000000000E+01 0.  1.
         -5    1    4    4    0  502 -0.14939934763E+03  0.32534448274E+02  0.94896533910E+02  0.18001693683E+03  0.47000000000E+01 0.  1.
<mgrwt>
<rscale>  0 0.10001348E+04</rscale>
<asrwt>0</asrwt>
<pdfrwt beam="1">  1        1 0.57951537E-01 0.10001348E+04</pdfrwt>
<pdfrwt beam="2">  1       -1 0.10213284E+00 0.10001348E+04</pdfrwt>
<totfact> 0.70760237E+01</totfact>
</mgrwt>
</event>
<event>
 9    1  0.4321150E-036  0.9998957E+03  0.7818608E-02  0.8681137E-01
         -1   -1    0    0    0  501 -0.00000000000E+00  0.00000000000E+00  0.10139800823E+04  0.10139800823E+04  0.00000000000E+00 0. -1.
          1   -1    0    0  501    0  0.00000000000E+00 -0.00000000000E+00 -0.24650174546E+03  0.24650174546E+03  0.00000000000E+00 0. -1.
         36    2    1    2    0    0 -0.28421709430E-13 -0.14210854715E-13  0.76747833685E+03  0.12604818278E+04  0.99989571487E+03 0.  0.
         25    2    3    3    0    0 -0.11273359630E+03 -0.74282970151E+02  0.10124834917E+03  0.20992789555E+03  0.12486660774E+03 0.  0.
         35    2    3    3    0    0  0.11273359630E+03  0.74282970151E+02  0.66622998768E+03  0.10505539322E+04  0.80098336103E+03 0.  0.
         22    1    5    5    0    0  0.18387499300E+03  0.20040220675E+03  0.80517719157E+03  0.84987138283E+03  0.00000000000E+00 0. -1.
         22    1    5    5    0    0 -0.71141396702E+02 -0.12611923660E+03 -0.13894720390E+03  0.20068254940E+03  0.00000000000E+00 0. -1.
          5    1    4    4  502    0  0.19471086916E+02 -0.56689429335E+01 -0.10826318720E+02  0.23464000441E+02  0.47000000000E+01 0.  1.
         -5    1    4    4    0  502 -0.13220468322E+03 -0.68614027218E+02  0.11207466789E+03  0.18646389511E+03  0.47000000000E+01 0.  1.
<mgrwt>
<rscale>  0 0.99989571E+03</rscale>
<asrwt>0</asrwt>
<pdfrwt beam="1">  1        1 0.37923346E-01 0.99989571E+03</pdfrwt>
<pdfrwt beam="2">  1       -1 0.15599693E+00 0.99989571E+03</pdfrwt>
<totfact> 0.41341823E+01</totfact>
</mgrwt>
</event>
<event>
 9    1  0.4321150E-036  0.1000042E+04  0.7818608E-02  0.8680998E-01
         -2   -1    0    0    0  501 -0.00000000000E+00  0.00000000000E+00  0.22594089985E+03  0.22594089985E+03  0.00000000000E+00 0.  1.
          2   -1    0    0  501    0  0.00000000000E+00 -0.00000000000E+00 -0.11065762703E+04  0.11065762703E+04  0.00000000000E+00 0.  1.
         36    2    1    2    0    0  0.28421709430E-13 -0.14210854715E-13 -0.88063537041E+03  0.13325171701E+04  0.10000416757E+04 0.  0.
         25    2    3    3    0    0 -0.13519904726E+03 -0.93756313496E+00 -0.18275279781E+03  0.25914506030E+03  0.12441027195E+03 0.  0.
         35    2    3    3    0    0  0.13519904726E+03  0.93756313496E+00 -0.69788257261E+03  0.10733721098E+04  0.80424370658E+03 0.  0.
         22    1    5    5    0    0 -0.10999333165E+03  0.27516040304E+03 -0.63424073301E+03  0.70005220364E+03  0.00000000000E+00 0. -1.
         22    1    5    5    0    0  0.24519237891E+03 -0.27422283990E+03 -0.63641839594E+02  0.37331990618E+03  0.00000000000E+00 0. -1.
          5    1    4    4  502    0 -0.31746853725E+01 -0.36834611302E+02 -0.79076565065E+02  0.87418878736E+02  0.47000000000E+01 0.  1.
         -5    1    4    4    0  502 -0.13202436189E+03  0.35897048167E+02 -0.10367623274E+03  0.17172618157E+03  0.47000000000E+01 0.  1.
<mgrwt>
<rscale>  0 0.10000417E+04</rscale>
<asrwt>0</asrwt>
<pdfrwt beam="1">  1        2 0.17024250E+00 0.10000417E+04</pdfrwt>
<pdfrwt beam="2">  1       -2 0.34760139E-01 0.10000417E+04</pdfrwt>
<totfact> 0.20215390E+02</totfact>
</mgrwt>
</event>
<event>
 9    1  0.4321150E-036  0.9978696E+03  0.7818608E-02  0.8683069E-01
          2   -1    0    0  501    0  0.00000000000E+00  0.00000000000E+00  0.65099653056E+03  0.65099653056E+03  0.00000000000E+00 0. -1.
         -2   -1    0    0    0  501 -0.00000000000E+00 -0.00000000000E+00 -0.38239208383E+03  0.38239208383E+03  0.00000000000E+00 0. -1.
         36    2    1    2    0    0  0.14210854715E-13  0.14210854715E-13  0.26860444673E+03  0.10333886144E+04  0.99786957041E+03 0.  0.
         25    2    3    3    0    0 -0.10417539801E+03 -0.21499877264E+02  0.14265651088E+03  0.21722089801E+03  0.12457640292E+03 0.  0.
         35    2    3    3    0    0  0.10417539801E+03  0.21499877264E+02  0.12594793585E+03  0.81616771638E+03  0.79934479447E+03 0.  0.
         22    1    5    5    0    0 -0.98103886382E+02 -0.46654762972E+02  0.43064940453E+03  0.44413956033E+03  0.00000000000E+00 0. -1.
         22    1    5    5    0    0  0.20227928439E+03  0.68154640236E+02 -0.30470146868E+03  0.37202815605E+03  0.00000000000E+00 0. -1.
          5    1    4    4  502    0 -0.32362090832E+02 -0.55074749300E+02  0.13277144185E+02  0.65413343373E+02  0.47000000000E+01 0. -1.
         -5    1    4    4    0  502 -0.71813307174E+02  0.33574872036E+02  0.12937936669E+03  0.15180755464E+03  0.47000000000E+01 0. -1.
<mgrwt>
<rscale>  0 0.99786957E+03</rscale>
<asrwt>0</asrwt>
<pdfrwt beam="1">  1        2 0.10015331E+00 0.99786957E+03</pdfrwt>
<pdfrwt beam="2">  1       -2 0.58829552E-01 0.99786957E+03</pdfrwt>
<totfact> 0.14659716E+02</totfact>
</mgrwt>
</event>
<event>
 9    1  0.4321150E-036  0.9997473E+03  0.7818608E-02  0.8681279E-01
         -2   -1    0    0    0  501 -0.00000000000E+00  0.00000000000E+00  0.27721278084E+03  0.27721278084E+03  0.00000000000E+00 0. -1.
          2   -1    0    0  501    0  0.00000000000E+00 -0.00000000000E+00 -0.90137866124E+03  0.90137866124E+03  0.00000000000E+00 0. -1.
         36    2    1    2    0    0  0.00000000000E+00 -0.28421709430E-13 -0.62416588039E+03  0.11785914421E+04  0.99974733863E+03 0.  0.
         25    2    3    3    0    0 -0.95824668071E+01  0.81397924454E+02 -0.25090721847E+03  0.29195287979E+03  0.12475818996E+03 0.  0.
         35    2    3    3    0    0  0.95824668071E+01 -0.81397924454E+02 -0.37325866193E+03  0.88663856230E+03  0.80005528914E+03 0.  0.
         22    1    5    5    0    0  0.17189551249E+03  0.31517250090E+03 -0.26047937196E+03  0.44354399529E+03  0.00000000000E+00 0.  1.
         22    1    5    5    0    0 -0.16231304568E+03 -0.39657042536E+03 -0.11277928997E+03  0.44309456701E+03  0.00000000000E+00 0.  1.
          5    1    4    4  502    0 -0.35237903902E+02 -0.43501419970E+01 -0.13644896383E+02  0.38326319992E+02  0.47000000000E+01 0.  1.
         -5    1    4    4    0  502  0.25655437095E+02  0.85748066451E+02 -0.23726232208E+03  0.25362655979E+03  0.47000000000E+01 0.  1.
<mgrwt>
<rscale>  0 0.99974734E+03</rscale>
<asrwt>0</asrwt>
<pdfrwt beam="1">  1        2 0.13867364E+00 0.99974734E+03</pdfrwt>
<pdfrwt beam="2">  1       -2 0.42648120E-01 0.99974734E+03</pdfrwt>
<totfact> 0.18447884E+02</totfact>
</mgrwt>
</event>
<event>
 9    1  0.4321150E-036  0.9993415E+03  0.7818608E-02  0.8681665E-01
          2   -1    0    0  501    0  0.00000000000E+00  0.00000000000E+00  0.45458882402E+04  0.45458882402E+04  0.00000000000E+00 0.  1.
         -2   -1    0    0    0  501 -0.00000000000E+00 -0.00000000000E+00 -0.54922344948E+02  0.54922344948E+02  0.00000000000E+00 0.  1.
         36    2    1    2    0    0  0.39079850467E-13  0.00000000000E+00  0.44909658952E+04  0.46008105851E+04  0.99934146721E+03 0.  0.
         25    2    3    3    0    0 -0.30062315244E+02  0.10263676775E+03  0.42965801218E+03  0.46012342734E+03  0.12517792164E+03 0.  0.
         35    2    3    3    0    0  0.30062315244E+02 -0.10263676775E+03  0.40613078830E+04  0.41406871578E+04  0.79976894714E+03 0.  0.
         22    1    5    5    0    0 -0.34227054324E+03 -0.23045677045E+03  0.19984637713E+04  0.20406167923E+04  0.00000000000E+00 0.  1.
         22    1    5    5    0    0  0.37233285848E+03  0.12782000270E+03  0.20628441118E+04  0.21000703655E+04  0.00000000000E+00 0.  1.
          5    1    4    4  502    0 -0.11004190853E+01  0.10491253975E+03  0.17741795736E+03  0.20617243636E+03  0.47000000000E+01 0. -1.
         -5    1    4    4    0  502 -0.28961896159E+02 -0.22757720010E+01  0.25224005481E+03  0.25395099098E+03  0.47000000000E+01 0. -1.
<mgrwt>
<rscale>  0 0.99934147E+03</rscale>
<asrwt>0</asrwt>
<pdfrwt beam="1">  1        2 0.69936713E+00 0.99934147E+03</pdfrwt>
<pdfrwt beam="2">  1       -2 0.84495951E-02 0.99934147E+03</pdfrwt>
<totfact> 0.89351259E+00</totfact>
</mgrwt>
</event>
<event>
 9    1  0.4321150E-036  0.1000386E+04  0.7818608E-02  0.8680670E-01
          4   -1    0    0  501    0  0.00000000000E+00  0.00000000000E+00  0.15207483037E+04  0.15207483037E+04  0.00000000000E+00 0.  1.
         -4   -1    0    0    0  501 -0.00000000000E+00 -0.00000000000E+00 -0.16451967644E+03  0.16451967644E+03  0.00000000000E+00 0.  1.
         36    2    1    2    0    0  0.42632564146E-13  0.71054273576E-14  0.13562286272E+04  0.16852679801E+04  0.10003859632E+04 0.  0.
         25    2    3    3    0    0 -0.10329343308E+03 -0.22328990072E+02  0.10625118568E+03  0.19473282242E+03  0.12435208303E+03 0.  0.
         35    2    3    3    0    0  0.10329343308E+03  0.22328990072E+02  0.12499774415E+04  0.14905351577E+04  0.80503623199E+03 0.  0.
         22    1    5    5    0    0  0.42914970002E+03  0.14810698918E+03  0.59702832158E+03  0.75003197401E+03  0.00000000000E+00 0.  1.
         22    1    5    5    0    0 -0.32585626694E+03 -0.12577799911E+03  0.65294911996E+03  0.74050318367E+03  0.00000000000E+00 0.  1.
          5    1    4    4  502    0 -0.10216921969E+03  0.11500299021E+02  0.24025490960E+02  0.10568879101E+03  0.47000000000E+01 0.  1.
         -5    1    4    4    0  502 -0.11242133887E+01 -0.33829289093E+02  0.82225694724E+02  0.89044031406E+02  0.47000000000E+01 0.  1.
<mgrwt>
<rscale>  0 0.10003860E+04</rscale>
<asrwt>0</asrwt>
<pdfrwt beam="1">  1        4 0.23396127E+00 0.10003860E+04</pdfrwt>
<pdfrwt beam="2">  1       -4 0.25310720E-01 0.10003860E+04</pdfrwt>
<totfact> 0.19557956E+00</totfact>
</mgrwt>
</event>
<event>
 9    1  0.4321150E-036  0.9993369E+03  0.7818608E-02  0.8681670E-01
          1   -1    0    0  501    0  0.00000000000E+00  0.00000000000E+00  0.90665448796E+03  0.90665448796E+03  0.00000000000E+00 0. -1.
         -1   -1    0    0    0  501 -0.00000000000E+00 -0.00000000000E+00 -0.27537345667E+03  0.27537345667E+03  0.00000000000E+00 0. -1.
         36    2    1    2    0    0  0.00000000000E+00  0.00000000000E+00  0.63128103129E+03  0.11820279446E+04  0.99933694088E+03 0.  0.
         25    2    3    3    0    0  0.12512678247E+03  0.48766970650E+02  0.14261870061E+03  0.23255118949E+03  0.12531972252E+03 0.  0.
         35    2    3    3    0    0 -0.12512678247E+03 -0.48766970650E+02  0.48866233068E+03  0.94947675514E+03  0.80291986276E+03 0.  0.
         22    1    5    5    0    0  0.77288752315E+00 -0.58794584155E+01 -0.22421734275E+03  0.22429574712E+03  0.00000000000E+00 0. -1.
         22    1    5    5    0    0 -0.12589966999E+03 -0.42887512234E+02  0.71287967343E+03  0.72518100802E+03  0.00000000000E+00 0. -1.
          5    1    4    4  502    0  0.12629424311E+03  0.37033508243E+02  0.16237525835E+03  0.20906824508E+03  0.47000000000E+01 0. -1.
         -5    1    4    4    0  502 -0.11674606480E+01  0.11733462407E+02 -0.19756557740E+02  0.23482944410E+02  0.47000000000E+01 0. -1.
<mgrwt>
<rscale>  0 0.99933694E+03</rscale>
<asrwt>0</asrwt>
<pdfrwt beam="1">  1        1 0.13948530E+00 0.99933694E+03</pdfrwt>
<pdfrwt beam="2">  1       -1 0.42365147E-01 0.99933694E+03</pdfrwt>
<totfact> 0.11105377E+02</totfact>
</mgrwt>
</event>
<event>
 9    1  0.4321150E-036  0.9974004E+03  0.7818608E-02  0.8683518E-01
          2   -1    0    0  501    0  0.00000000000E+00  0.00000000000E+00  0.11832441429E+04  0.11832441429E+04  0.00000000000E+00 0. -1.
         -2   -1    0    0    0  501 -0.00000000000E+00 -0.00000000000E+00 -0.21018644191E+03  0.21018644191E+03  0.00000000000E+00 0. -1.
         36    2    1    2    0    0 -0.14210854715E-13  0.00000000000E+00  0.97305770101E+03  0.13934305848E+04  0.99740037358E+03 0.  0.
         25    2    3    3    0    0 -0.11617347919E+03  0.56362719687E+02  0.24710716279E+03  0.30577742708E+03  0.12555816010E+03 0.  0.
         35    2    3    3    0    0  0.11617347919E+03 -0.56362719687E+02  0.72595053822E+03  0.10876531577E+04  0.79956999329E+03 0.  0.
         22    1    5    5    0    0  0.40398729222E+03  0.16303759764E+03  0.30118596746E+03  0.52962248585E+03  0.00000000000E+00 0.  1.
         22    1    5    5    0    0 -0.28781381303E+03 -0.21940031732E+03  0.42476457075E+03  0.55803067190E+03  0.00000000000E+00 0.  1.
          5    1    4    4  502    0 -0.72305067109E+02 -0.33620908366E+02  0.10802919685E+03  0.13435321202E+03  0.47000000000E+01 0.  1.
         -5    1    4    4    0  502 -0.43868412086E+02  0.89983628053E+02  0.13907796594E+03  0.17142421505E+03  0.47000000000E+01 0.  1.
<mgrwt>
<rscale>  0 0.99740037E+03</rscale>
<asrwt>0</asrwt>
<pdfrwt beam="1">  1        2 0.18203756E+00 0.99740037E+03</pdfrwt>
<pdfrwt beam="2">  1       -2 0.32336376E-01 0.99740037E+03</pdfrwt>
<totfact> 0.20793882E+02</totfact>
</mgrwt>
</event>
<event>
 9    1  0.4321150E-036  0.1000261E+04  0.7818608E-02  0.8680789E-01
         -2   -1    0    0    0  501 -0.00000000000E+00  0.00000000000E+00  0.25975711924E+03  0.25975711924E+03  0.00000000000E+00 0. -1.
          2   -1    0    0  501    0  0.00000000000E+00 -0.00000000000E+00 -0.96294039184E+03  0.96294039184E+03  0.00000000000E+00 0. -1.
         36    2    1    2    0    0  0.00000000000E+00 -0.14210854715E-13 -0.70318327261E+03  0.12226975111E+04  0.10002612102E+04 0.  0.
         25    2    3    3    0    0 -0.66094363879E+02 -0.53432323346E+02 -0.34883889611E+01  0.15131696749E+03  0.12514462705E+03 0.  0.
         35    2    3    3    0    0  0.66094363879E+02  0.53432323346E+02 -0.69969488365E+03  0.10713805436E+04  0.80688280491E+03 0.  0.
         22    1    5    5    0    0 -0.15054430173E+03  0.23546320949E+03 -0.73489025431E+03  0.78623800193E+03  0.00000000000E+00 0.  1.
         22    1    5    5    0    0  0.21663866561E+03 -0.18203088614E+03  0.35195370661E+02  0.28514254166E+03  0.00000000000E+00 0.  1.
          5    1    4    4  502    0 -0.10153310944E+03 -0.24354984319E+02 -0.90069470358E+01  0.10490639956E+03  0.47000000000E+01 0. -1.
         -5    1    4    4    0  502  0.35438745564E+02 -0.29077339028E+02  0.55185580746E+01  0.46410567927E+02  0.47000000000E+01 0. -1.
<mgrwt>
<rscale>  0 0.10002612E+04</rscale>
<asrwt>0</asrwt>
<pdfrwt beam="1">  1        2 0.14814468E+00 0.10002612E+04</pdfrwt>
<pdfrwt beam="2">  1       -2 0.39962634E-01 0.10002612E+04</pdfrwt>
<totfact> 0.19074086E+02</totfact>
</mgrwt>
</event>
<event>
 9    1  0.4321150E-036  0.9996106E+03  0.7818608E-02  0.8681409E-01
          1   -1    0    0  501    0  0.00000000000E+00  0.00000000000E+00  0.14950181994E+04  0.14950181994E+04  0.00000000000E+00 0. -1.
         -1   -1    0    0    0  501 -0.00000000000E+00 -0.00000000000E+00 -0.16709182270E+03  0.16709182270E+03  0.00000000000E+00 0. -1.
         36    2    1    2    0    0  0.00000000000E+00  0.00000000000E+00  0.13279263767E+04  0.16621100221E+04  0.99961055597E+03 0.  0.
         25    2    3    3    0    0 -0.11502815566E+03  0.19648579853E+02  0.36722444334E+03  0.40658483118E+03  0.12976860126E+03 0.  0.
         35    2    3    3    0    0  0.11502815566E+03 -0.19648579853E+02  0.96070193334E+03  0.12555251909E+04  0.79986108605E+03 0.  0.
         22    1    5    5    0    0  0.45490023524E+03  0.60990710147E+02  0.55246855160E+03  0.71824479898E+03  0.00000000000E+00 0. -1.
         22    1    5    5    0    0 -0.33987207959E+03 -0.80639290000E+02  0.40823338174E+03  0.53728039192E+03  0.00000000000E+00 0. -1.
          5    1    4    4  502    0 -0.10563786677E+03  0.16847468872E+02  0.37703440508E+03  0.39194416530E+03  0.47000000000E+01 0.  1.
         -5    1    4    4    0  502 -0.93902888810E+01  0.28011109811E+01 -0.98099617354E+01  0.14640665874E+02  0.47000000000E+01 0.  1.
<mgrwt>
<rscale>  0 0.99961056E+03</rscale>
<asrwt>0</asrwt>
<pdfrwt beam="1">  1        1 0.23000279E+00 0.99961056E+03</pdfrwt>
<pdfrwt beam="2">  1       -1 0.25706435E-01 0.99961056E+03</pdfrwt>
<totfact> 0.95083592E+01</totfact>
</mgrwt>
</event>
<event>
 9    1  0.4321150E-036  0.9996819E+03  0.7818608E-02  0.8681341E-01
         -2   -1    0    0    0  501 -0.00000000000E+00  0.00000000000E+00  0.34492161561E+03  0.34492161561E+03  0.00000000000E+00 0. -1.
          2   -1    0    0  501    0  0.00000000000E+00 -0.00000000000E+00 -0.72434136384E+03  0.72434136384E+03  0.00000000000E+00 0. -1.
         36    2    1    2    0    0  0.14210854715E-13 -0.28421709430E-13 -0.37941974823E+03  0.10692629794E+04  0.99968193635E+03 0.  0.
         25    2    3    3    0    0  0.10960652328E+03 -0.79061561582E+02 -0.31525030256E+02  0.18643551550E+03  0.12449921060E+03 0.  0.
         35    2    3    3    0    0 -0.10960652328E+03  0.79061561582E+02 -0.34789471797E+03  0.88282746395E+03  0.80005579546E+03 0.  0.
         22    1    5    5    0    0  0.18229872825E+03 -0.93181066548E+02 -0.47782798747E+03  0.51984144034E+03  0.00000000000E+00 0.  1.
         22    1    5    5    0    0 -0.29190525153E+03  0.17224262813E+03  0.12993326950E+03  0.36298602361E+03  0.00000000000E+00 0.  1.
          5    1    4    4  502    0  0.10102969582E+03 -0.98791681184E+02  0.75489808873E+01  0.14158344826E+03  0.47000000000E+01 0.  1.
         -5    1    4    4    0  502  0.85768274634E+01  0.19730119602E+02 -0.39074011143E+02  0.44852067239E+02  0.47000000000E+01 0.  1.
<mgrwt>
<rscale>  0 0.99968194E+03</rscale>
<asrwt>0</asrwt>
<pdfrwt beam="1">  1        2 0.11143713E+00 0.99968194E+03</pdfrwt>
<pdfrwt beam="2">  1       -2 0.53064864E-01 0.99968194E+03</pdfrwt>
<totfact> 0.15898115E+02</totfact>
</mgrwt>
</event>
<event>
 9    1  0.4321150E-036  0.9999229E+03  0.7818608E-02  0.8681111E-01
          1   -1    0    0  501    0  0.00000000000E+00  0.00000000000E+00  0.34938267563E+03  0.34938267563E+03  0.00000000000E+00 0.  1.
         -1   -1    0    0    0  501 -0.00000000000E+00 -0.00000000000E+00 -0.71543747584E+03  0.71543747584E+03  0.00000000000E+00 0.  1.
         36    2    1    2    0    0  0.00000000000E+00 -0.35527136788E-14 -0.36605480021E+03  0.10648201515E+04  0.99992291614E+03 0.  0.
         25    2    3    3    0    0  0.13807328586E+03  0.20616808863E+02 -0.18415908883E+02  0.18214962846E+03  0.11554244403E+03 0.  0.
         35    2    3    3    0    0 -0.13807328586E+03 -0.20616808863E+02 -0.34763889133E+03  0.88267052302E+03  0.79922785760E+03 0.  0.
         22    1    5    5    0    0  0.21143048775E+03  0.25438429264E+02  0.15878049188E+03  0.26563359997E+03  0.00000000000E+00 0.  1.
         22    1    5    5    0    0 -0.34950377360E+03 -0.46055238127E+02 -0.50641938320E+03  0.61703692305E+03  0.00000000000E+00 0.  1.
          5    1    4    4  502    0  0.66021601385E+02  0.58302713747E+02  0.22460372160E+02  0.91019869244E+02  0.47000000000E+01 0.  1.
         -5    1    4    4    0  502  0.72051684473E+02 -0.37685904884E+02 -0.40876281043E+02  0.91129759213E+02  0.47000000000E+01 0.  1.
<mgrwt>
<rscale>  0 0.99992292E+03</rscale>
<asrwt>0</asrwt>
<pdfrwt beam="1">  1        1 0.53751182E-01 0.99992292E+03</pdfrwt>
<pdfrwt beam="2">  1       -1 0.11006730E+00 0.99992292E+03</pdfrwt>
<totfact> 0.65793431E+01</totfact>
</mgrwt>
</event>
<event>
 9    1  0.4321150E-036  0.9981915E+03  0.7818608E-02  0.8682762E-01
          2   -1    0    0  501    0  0.00000000000E+00  0.00000000000E+00  0.41780915577E+03  0.41780915577E+03  0.00000000000E+00 0.  1.
         -2   -1    0    0    0  501 -0.00000000000E+00 -0.00000000000E+00 -0.59619695274E+03  0.59619695274E+03  0.00000000000E+00 0.  1.
         36    2    1    2    0    0 -0.28421709430E-13  0.00000000000E+00 -0.17838779697E+03  0.10140061085E+04  0.99819145557E+03 0.  0.
         25    2    3    3    0    0 -0.13174223978E+03 -0.11043523696E+01  0.13675965170E+02  0.18077864594E+03  0.12303109147E+03 0.  0.
         35    2    3    3    0    0  0.13174223978E+03  0.11043523696E+01 -0.19206376214E+03  0.83322746256E+03  0.80001392382E+03 0.  0.
         22    1    5    5    0    0  0.30372377127E+03 -0.18965524118E+03 -0.37453804709E+03  0.51816598543E+03  0.00000000000E+00 0.  1.
         22    1    5    5    0    0 -0.17198153150E+03  0.19075959355E+03  0.18247428495E+03  0.31506147713E+03  0.00000000000E+00 0.  1.
          5    1    4    4  502    0 -0.91915189202E+02 -0.58123652170E+02  0.20391407133E+02  0.11074592739E+03  0.47000000000E+01 0. -1.
         -5    1    4    4    0  502 -0.39827050576E+02  0.57019299800E+02 -0.67154419624E+01  0.70032718554E+02  0.47000000000E+01 0. -1.
<mgrwt>
<rscale>  0 0.99819146E+03</rscale>
<asrwt>0</asrwt>
<pdfrwt beam="1">  1        2 0.64278332E-01 0.99819146E+03</pdfrwt>
<pdfrwt beam="2">  1       -2 0.91722607E-01 0.99819146E+03</pdfrwt>
<totfact> 0.91416431E+01</totfact>
</mgrwt>
</event>
<event>
 9    1  0.4321150E-036  0.1005241E+04  0.7818608E-02  0.8676063E-01
         -1   -1    0    0    0  501 -0.00000000000E+00  0.00000000000E+00  0.83459797781E+03  0.83459797781E+03  0.00000000000E+00 0. -1.
          1   -1    0    0  501    0  0.00000000000E+00 -0.00000000000E+00 -0.30269355989E+03  0.30269355989E+03  0.00000000000E+00 0. -1.
         36    2    1    2    0    0 -0.35527136788E-14  0.71054273576E-14  0.53190441792E+03  0.11372915377E+04  0.10052411312E+04 0.  0.
         25    2    3    3    0    0 -0.91718008829E+00  0.53526174719E+02  0.25594548271E+03  0.29112412761E+03  0.12798154146E+03 0.  0.
         35    2    3    3    0    0  0.91718008829E+00 -0.53526174719E+02  0.27595893521E+03  0.84616741009E+03  0.79811030527E+03 0.  0.
         22    1    5    5    0    0  0.29878239542E+03  0.12962559278E+02 -0.14003568388E+03  0.33022559034E+03  0.00000000000E+00 0.  1.
         22    1    5    5    0    0 -0.29786521533E+03 -0.66488733997E+02  0.41599461908E+03  0.51594181974E+03  0.00000000000E+00 0.  1.
          5    1    4    4  502    0 -0.18057319759E+02  0.88114221088E+02  0.22173874168E+03  0.23933311998E+03  0.47000000000E+01 0.  1.
         -5    1    4    4    0  502  0.17140139671E+02 -0.34588046369E+02  0.34206741030E+02  0.51791007631E+02  0.47000000000E+01 0.  1.
<mgrwt>
<rscale>  0 0.10052411E+04</rscale>
<asrwt>0</asrwt>
<pdfrwt beam="1">  1        1 0.46568241E-01 0.10052411E+04</pdfrwt>
<pdfrwt beam="2">  1       -1 0.12839969E+00 0.10052411E+04</pdfrwt>
<totfact> 0.54313839E+01</totfact>
</mgrwt>
</event>
<event>
 9    1  0.4321150E-036  0.9999501E+03  0.7818608E-02  0.8681085E-01
         -2   -1    0    0    0  501 -0.00000000000E+00  0.00000000000E+00  0.15503331459E+03  0.15503331459E+03  0.00000000000E+00 0. -1.
          2   -1    0    0  501    0  0.00000000000E+00 -0.00000000000E+00 -0.16123958551E+04  0.16123958551E+04  0.00000000000E+00 0. -1.
         36    2    1    2    0    0  0.71054273576E-14 -0.42632564146E-13 -0.14573625405E+04  0.17674291697E+04  0.99995014646E+03 0.  0.
         25    2    3    3    0    0  0.42608084080E+02 -0.96682795411E+02 -0.11449487743E+03  0.19989102230E+03  0.12523710345E+03 0.  0.
         35    2    3    3    0    0 -0.42608084080E+02  0.96682795411E+02 -0.13428676631E+04  0.15675381474E+04  0.80169774308E+03 0.  0.
         22    1    5    5    0    0 -0.84769676733E+02  0.27971197092E+03 -0.13483219906E+04  0.13796365011E+04  0.00000000000E+00 0.  1.
         22    1    5    5    0    0  0.42161592654E+02 -0.18302917551E+03  0.54543275739E+01  0.18790164627E+03  0.00000000000E+00 0.  1.
          5    1    4    4  502    0  0.75686835287E+02 -0.70071106934E+02 -0.11828513953E+03  0.15700930321E+03  0.47000000000E+01 0.  1.
         -5    1    4    4    0  502 -0.33078751207E+02 -0.26611688476E+02  0.37902620941E+01  0.42881719085E+02  0.47000000000E+01 0.  1.
<mgrwt>
<rscale>  0 0.99995015E+03</rscale>
<asrwt>0</asrwt>
<pdfrwt beam="1">  1        2 0.24806091E+00 0.99995015E+03</pdfrwt>
<pdfrwt beam="2">  1       -2 0.23851279E-01 0.99995015E+03</pdfrwt>
<totfact> 0.20407866E+02</totfact>
</mgrwt>
</event>
<event>
 9    1  0.4321150E-036  0.1001759E+04  0.7818608E-02  0.8679365E-01
         -3   -1    0    0    0  501 -0.00000000000E+00  0.00000000000E+00  0.16622331825E+04  0.16622331825E+04  0.00000000000E+00 0. -1.
          3   -1    0    0  501    0  0.00000000000E+00 -0.00000000000E+00 -0.15092957688E+03  0.15092957688E+03  0.00000000000E+00 0. -1.
         36    2    1    2    0    0  0.56843418861E-13  0.00000000000E+00  0.15113036056E+04  0.18131627594E+04  0.10017587552E+04 0.  0.
         25    2    3    3    0    0 -0.12582237801E+03  0.63083348013E+02  0.33469835441E+03  0.38401356802E+03  0.12503060576E+03 0.  0.
         35    2    3    3    0    0  0.12582237801E+03 -0.63083348013E+02  0.11766052512E+04  0.14291491914E+04  0.79890970353E+03 0.  0.
         22    1    5    5    0    0 -0.32049990608E+03  0.42486037812E+02  0.30613810282E+03  0.44524801089E+03  0.00000000000E+00 0. -1.
         22    1    5    5    0    0  0.44632228409E+03 -0.10556938583E+03  0.87046714841E+03  0.98390118049E+03  0.00000000000E+00 0. -1.
          5    1    4    4  502    0  0.21257260610E+02 -0.13575113736E+01  0.15788696130E+02  0.26927437518E+02  0.47000000000E+01 0.  1.
         -5    1    4    4    0  502 -0.14707963862E+03  0.64440859387E+02  0.31890965828E+03  0.35708613051E+03  0.47000000000E+01 0.  1.
<mgrwt>
<rscale>  0 0.10017588E+04</rscale>
<asrwt>0</asrwt>
<pdfrwt beam="1">  1        3 0.23219936E-01 0.10017588E+04</pdfrwt>
<pdfrwt beam="2">  1       -3 0.25572817E+00 0.10017588E+04</pdfrwt>
<totfact> 0.26455603E+00</totfact>
</mgrwt>
</event>
<event>
 9    1  0.4321150E-036  0.1000026E+04  0.7818608E-02  0.8681013E-01
         -2   -1    0    0    0  501 -0.00000000000E+00  0.00000000000E+00  0.25419048940E+03  0.25419048940E+03  0.00000000000E+00 0. -1.
          2   -1    0    0  501    0  0.00000000000E+00 -0.00000000000E+00 -0.98356637392E+03  0.98356637392E+03  0.00000000000E+00 0. -1.
         36    2    1    2    0    0 -0.42632564146E-13 -0.28421709430E-13 -0.72937588452E+03  0.12377568633E+04  0.10000264355E+04 0.  0.
         25    2    3    3    0    0 -0.85905991514E+02 -0.10946826996E+03 -0.98501007662E+02  0.20977560492E+03  0.12223016977E+03 0.  0.
         35    2    3    3    0    0  0.85905991514E+02  0.10946826996E+03 -0.63087487686E+03  0.10279812584E+04  0.79961191578E+03 0.  0.
         22    1    5    5    0    0  0.35477519764E+03 -0.19537386914E+03 -0.32453642115E+03  0.51899930467E+03  0.00000000000E+00 0.  1.
         22    1    5    5    0    0 -0.26886920612E+03  0.30484213910E+03 -0.30633845571E+03  0.50898195372E+03  0.00000000000E+00 0.  1.
          5    1    4    4  502    0  0.21956728157E+02 -0.49182466859E+02 -0.41311118247E+01  0.54223325632E+02  0.47000000000E+01 0.  1.
         -5    1    4    4    0  502 -0.10786271967E+03 -0.60285803098E+02 -0.94369895838E+02  0.15555227928E+03  0.47000000000E+01 0.  1.
<mgrwt>
<rscale>  0 0.10000264E+04</rscale>
<asrwt>0</asrwt>
<pdfrwt beam="1">  1        2 0.15131791E+00 0.10000264E+04</pdfrwt>
<pdfrwt beam="2">  1       -2 0.39106228E-01 0.10000264E+04</pdfrwt>
<totfact> 0.19288899E+02</totfact>
</mgrwt>
</event>
<event>
 9    1  0.4321150E-036  0.1000941E+04  0.7818608E-02  0.8680142E-01
          1   -1    0    0  501    0  0.00000000000E+00  0.00000000000E+00  0.82102794065E+03  0.82102794065E+03  0.00000000000E+00 0.  1.
         -1   -1    0    0    0  501 -0.00000000000E+00 -0.00000000000E+00 -0.30506970714E+03  0.30506970714E+03  0.00000000000E+00 0.  1.
         36    2    1    2    0    0  0.00000000000E+00 -0.14210854715E-13  0.51595823351E+03  0.11260976478E+04  0.10009410640E+04 0.  0.
         25    2    3    3    0    0 -0.10304094436E+03  0.33959343361E+02 -0.54861597110E+01  0.16574812604E+03  0.12518654129E+03 0.  0.
         35    2    3    3    0    0  0.10304094436E+03 -0.33959343361E+02  0.52144439323E+03  0.96034952175E+03  0.79912219058E+03 0.  0.
         22    1    5    5    0    0 -0.28261389063E+03  0.10287084799E+03  0.45554183821E+03  0.54586755619E+03  0.00000000000E+00 0.  1.
         22    1    5    5    0    0  0.38565483499E+03 -0.13683019135E+03  0.65902555014E+02  0.41448196555E+03  0.00000000000E+00 0.  1.
          5    1    4    4  502    0 -0.33007765582E+02 -0.63821434070E+01 -0.59446039076E+02  0.68455576142E+02  0.47000000000E+01 0. -1.
         -5    1    4    4    0  502 -0.70033178777E+02  0.40341486768E+02  0.53959879365E+02  0.97292549896E+02  0.47000000000E+01 0. -1.
<mgrwt>
<rscale>  0 0.10009411E+04</rscale>
<asrwt>0</asrwt>
<pdfrwt beam="1">  1        1 0.12631199E+00 0.10009411E+04</pdfrwt>
<pdfrwt beam="2">  1       -1 0.46933801E-01 0.10009411E+04</pdfrwt>
<totfact> 0.10904784E+02</totfact>
</mgrwt>
</event>
<event>
 9    1  0.4321150E-036  0.9999900E+03  0.7818608E-02  0.8681047E-01
         -1   -1    0    0    0  501 -0.00000000000E+00  0.00000000000E+00  0.55738924128E+03  0.55738924128E+03  0.00000000000E+00 0.  1.
          1   -1    0    0  501    0  0.00000000000E+00 -0.00000000000E+00 -0.44851060718E+03  0.44851060718E+03  0.00000000000E+00 0.  1.
         36    2    1    2    0    0  0.00000000000E+00  0.00000000000E+00  0.10887863410E+03  0.10058998485E+04  0.99998997403E+03 0.  0.
         25    2    3    3    0    0  0.61932459017E+02  0.99619060113E+02  0.10002867315E+03  0.19897068570E+03  0.12579352805E+03 0.  0.
         35    2    3    3    0    0 -0.61932459017E+02 -0.99619060113E+02  0.88499609535E+01  0.80692916276E+03  0.79830869047E+03 0.  0.
         22    1    5    5    0    0  0.89229151076E+02  0.49082084912E+01 -0.37278575124E+03  0.38334729455E+03  0.00000000000E+00 0.  1.
         22    1    5    5    0    0 -0.15116161009E+03 -0.10452726860E+03  0.38163571220E+03  0.42358186820E+03  0.00000000000E+00 0.  1.
          5    1    4    4  502    0 -0.74631600850E+01  0.54965496037E+02  0.10209995932E+03  0.11629013804E+03  0.47000000000E+01 0.  1.
         -5    1    4    4    0  502  0.69395619102E+02  0.44653564076E+02 -0.20712861657E+01  0.82680547661E+02  0.47000000000E+01 0.  1.
<mgrwt>
<rscale>  0 0.99998997E+03</rscale>
<asrwt>0</asrwt>
<pdfrwt beam="1">  1        1 0.69001632E-01 0.99998997E+03</pdfrwt>
<pdfrwt beam="2">  1       -1 0.85752191E-01 0.99998997E+03</pdfrwt>
<totfact> 0.81979941E+01</totfact>
</mgrwt>
</event>
<event>
 9    1  0.4321150E-036  0.9995232E+03  0.7818608E-02  0.8681492E-01
         -2   -1    0    0    0  501 -0.00000000000E+00  0.00000000000E+00  0.10207766072E+03  0.10207766072E+03  0.00000000000E+00 0. -1.
          2   -1    0    0  501    0  0.00000000000E+00 -0.00000000000E+00 -0.24467806132E+04  0.24467806132E+04  0.00000000000E+00 0. -1.
         36    2    1    2    0    0  0.00000000000E+00 -0.14210854715E-13 -0.23447029525E+04  0.25488582739E+04  0.99952316891E+03 0.  0.
         25    2    3    3    0    0  0.37739248588E+02  0.12054965182E+03 -0.59711607981E+03  0.62297972652E+03  0.12489858865E+03 0.  0.
         35    2    3    3    0    0 -0.37739248588E+02 -0.12054965182E+03 -0.17475868727E+04  0.19258785474E+04  0.79936964691E+03 0.  0.
         22    1    5    5    0    0 -0.72335525099E+02 -0.46103378878E+03 -0.10371456179E+04  0.11373019016E+04  0.00000000000E+00 0. -1.
         22    1    5    5    0    0  0.34596276511E+02  0.34048413697E+03 -0.71044125479E+03  0.78857664585E+03  0.00000000000E+00 0. -1.
          5    1    4    4  502    0  0.76462581609E+02  0.62067012806E+02 -0.43908452803E+03  0.45001794766E+03  0.47000000000E+01 0.  1.
         -5    1    4    4    0  502 -0.38723333020E+02  0.58482639011E+02 -0.15803155178E+03  0.17296177886E+03  0.47000000000E+01 0.  1.
<mgrwt>
<rscale>  0 0.99952317E+03</rscale>
<asrwt>0</asrwt>
<pdfrwt beam="1">  1        2 0.37642774E+00 0.99952317E+03</pdfrwt>
<pdfrwt beam="2">  1       -2 0.15704257E-01 0.99952317E+03</pdfrwt>
<totfact> 0.13885763E+02</totfact>
</mgrwt>
</event>
<event>
 9    1  0.4321150E-036  0.9998062E+03  0.7818608E-02  0.8681223E-01
          1   -1    0    0  501    0  0.00000000000E+00  0.00000000000E+00  0.20219673536E+04  0.20219673536E+04  0.00000000000E+00 0.  1.
         -1   -1    0    0    0  501 -0.00000000000E+00 -0.00000000000E+00 -0.12359404415E+03  0.12359404415E+03  0.00000000000E+00 0.  1.
         36    2    1    2    0    0  0.28421709430E-13  0.00000000000E+00  0.18983733095E+04  0.21455613978E+04  0.99980622599E+03 0.  0.
         25    2    3    3    0    0 -0.10475121109E+03  0.60216943256E+02  0.52860476076E+03  0.55652909548E+03  0.12531059229E+03 0.  0.
         35    2    3    3    0    0  0.10475121109E+03 -0.60216943256E+02  0.13697685487E+04  0.15890323023E+04  0.79634093467E+03 0.  0.
         22    1    5    5    0    0 -0.10799953134E+03  0.18355750743E+03  0.12092233311E+04  0.12278348105E+04  0.00000000000E+00 0.  1.
         22    1    5    5    0    0  0.21275074243E+03 -0.24377445069E+03  0.16054521762E+03  0.36119749184E+03  0.00000000000E+00 0.  1.
          5    1    4    4  502    0  0.95506109901E+01  0.57810076667E+02  0.15394186405E+03  0.16478290762E+03  0.47000000000E+01 0.  1.
         -5    1    4    4    0  502 -0.11430182208E+03  0.24068665887E+01  0.37466289671E+03  0.39174618787E+03  0.47000000000E+01 0.  1.
<mgrwt>
<rscale>  0 0.99980623E+03</rscale>
<asrwt>0</asrwt>
<pdfrwt beam="1">  1        1 0.31107188E+00 0.99980623E+03</pdfrwt>
<pdfrwt beam="2">  1       -1 0.19014470E-01 0.99980623E+03</pdfrwt>
<totfact> 0.66819992E+01</totfact>
</mgrwt>
</event>
<event>
 9    1  0.4321150E-036  0.9999103E+03  0.7818608E-02  0.8681123E-01
          1   -1    0    0  501    0  0.00000000000E+00  0.00000000000E+00  0.49715483422E+03  0.49715483422E+03  0.00000000000E+00 0.  1.
         -1   -1    0    0    0  501 -0.00000000000E+00 -0.00000000000E+00 -0.50277126916E+03  0.50277126916E+03  0.00000000000E+00 0.  1.
         36    2    1    2    0    0 -0.14210854715E-13  0.00000000000E+00 -0.56164349419E+01  0.99992610339E+03  0.99991032992E+03 0.  0.
         25    2    3    3    0    0 -0.81503423977E+02  0.10568504292E+03  0.40916253236E+02  0.18728810647E+03  0.12486215852E+03 0.  0.
         35    2    3    3    0    0  0.81503423977E+02 -0.10568504292E+03 -0.46532688178E+02  0.81263799692E+03  0.80025188944E+03 0.  0.
         22    1    5    5    0    0  0.17937354630E+03 -0.59315209833E+02  0.35208469384E+03  0.39957076327E+03  0.00000000000E+00 0. -1.
         22    1    5    5    0    0 -0.97870122319E+02 -0.46369833087E+02 -0.39861738202E+03  0.41306723364E+03  0.00000000000E+00 0. -1.
          5    1    4    4  502    0 -0.51307674452E+02  0.32820389240E+02  0.78764538320E+02  0.99677469392E+02  0.47000000000E+01 0.  1.
         -5    1    4    4    0  502 -0.30195749525E+02  0.72864653680E+02 -0.37848285084E+02  0.87610637078E+02  0.47000000000E+01 0.  1.
<mgrwt>
<rscale>  0 0.99991033E+03</rscale>
<asrwt>0</asrwt>
<pdfrwt beam="1">  1        1 0.76485360E-01 0.99991033E+03</pdfrwt>
<pdfrwt beam="2">  1       -1 0.77349426E-01 0.99991033E+03</pdfrwt>
<totfact> 0.88380011E+01</totfact>
</mgrwt>
</event>
<event>
 9    1  0.4321150E-036  0.9980490E+03  0.7818608E-02  0.8682898E-01
          2   -1    0    0  501    0  0.00000000000E+00  0.00000000000E+00  0.52561293839E+03  0.52561293839E+03  0.00000000000E+00 0. -1.
         -2   -1    0    0    0  501 -0.00000000000E+00 -0.00000000000E+00 -0.47378109226E+03  0.47378109226E+03  0.00000000000E+00 0. -1.
         36    2    1    2    0    0 -0.56843418861E-13  0.21316282073E-13  0.51831846131E+02  0.99939403065E+03  0.99804904099E+03 0.  0.
         25    2    3    3    0    0  0.59879835410E+02  0.38249504259E+02  0.11389062356E+03  0.18357081592E+03  0.12521402101E+03 0.  0.
         35    2    3    3    0    0 -0.59879835410E+02 -0.38249504259E+02 -0.62058777429E+02  0.81582321473E+03  0.81035029868E+03 0.  0.
         22    1    5    5    0    0  0.28404499005E+03 -0.14490957623E+03 -0.25409572371E+03  0.40773150291E+03  0.00000000000E+00 0. -1.
         22    1    5    5    0    0 -0.34392482546E+03  0.10666007197E+03  0.19203694628E+03  0.40809171182E+03  0.00000000000E+00 0. -1.
          5    1    4    4  502    0  0.64646395889E+02  0.75957991499E+02  0.10365657661E+03  0.14392897154E+03  0.47000000000E+01 0. -1.
         -5    1    4    4    0  502 -0.47665604784E+01 -0.37708487240E+02  0.10234046954E+02  0.39641844379E+02  0.47000000000E+01 0. -1.
<mgrwt>
<rscale>  0 0.99804904E+03</rscale>
<asrwt>0</asrwt>
<pdfrwt beam="1">  1        2 0.80863529E-01 0.99804904E+03</pdfrwt>
<pdfrwt beam="2">  1       -2 0.72889398E-01 0.99804904E+03</pdfrwt>
<totfact> 0.11942598E+02</totfact>
</mgrwt>
</event>
<event>
 9    1  0.4321150E-036  0.9995540E+03  0.7818608E-02  0.8681463E-01
          1   -1    0    0  501    0  0.00000000000E+00  0.00000000000E+00  0.30735718570E+03  0.30735718570E+03  0.00000000000E+00 0.  1.
         -1   -1    0    0    0  501 -0.00000000000E+00 -0.00000000000E+00 -0.81266046343E+03  0.81266046343E+03  0.00000000000E+00 0.  1.
         36    2    1    2    0    0  0.14210854715E-13  0.14210854715E-13 -0.50530327773E+03  0.11200176491E+04  0.99955396647E+03 0.  0.
         25    2    3    3    0    0 -0.82887654615E+02  0.11007035118E+03 -0.12368448030E+03  0.22313901796E+03  0.12452841109E+03 0.  0.
         35    2    3    3    0    0  0.82887654615E+02 -0.11007035118E+03 -0.38161879743E+03  0.89687863118E+03  0.79985781675E+03 0.  0.
         22    1    5    5    0    0 -0.12636014236E+03 -0.92219718639E+01  0.21894460467E+03  0.25295981945E+03  0.00000000000E+00 0.  1.
         22    1    5    5    0    0  0.20924779698E+03 -0.10084837932E+03 -0.60056340210E+03  0.64391881172E+03  0.00000000000E+00 0.  1.
          5    1    4    4  502    0 -0.10915967058E+03  0.78337150162E+02 -0.12215027015E+03  0.18164614302E+03  0.47000000000E+01 0.  1.
         -5    1    4    4    0  502  0.26272015963E+02  0.31733201018E+02 -0.15342101527E+01  0.41492874935E+02  0.47000000000E+01 0.  1.
<mgrwt>
<rscale>  0 0.99955397E+03</rscale>
<asrwt>0</asrwt>
<pdfrwt beam="1">  1        1 0.47285721E-01 0.99955397E+03</pdfrwt>
<pdfrwt beam="2">  1       -1 0.12502469E+00 0.99955397E+03</pdfrwt>
<totfact> 0.57032330E+01</totfact>
</mgrwt>
</event>
<event>
 9    1  0.4321150E-036  0.1001148E+04  0.7818608E-02  0.8679945E-01
          3   -1    0    0  501    0  0.00000000000E+00  0.00000000000E+00  0.28139903705E+03  0.28139903705E+03  0.00000000000E+00 0. -1.
         -3   -1    0    0    0  501 -0.00000000000E+00 -0.00000000000E+00 -0.89045934011E+03  0.89045934011E+03  0.00000000000E+00 0. -1.
         36    2    1    2    0    0  0.14210854715E-13 -0.14210854715E-13 -0.60906030306E+03  0.11718583772E+04  0.10011481426E+04 0.  0.
         25    2    3    3    0    0 -0.11540057733E+03  0.76096641611E+02 -0.73665202865E+02  0.20001250016E+03  0.12438024760E+03 0.  0.
         35    2    3    3    0    0  0.11540057733E+03 -0.76096641611E+02 -0.53539510020E+03  0.97184587700E+03  0.79920491942E+03 0.  0.
         22    1    5    5    0    0 -0.27422066857E+03 -0.10669583305E+03 -0.49905144971E+03  0.57933869655E+03  0.00000000000E+00 0. -1.
         22    1    5    5    0    0  0.38962124590E+03  0.30599191438E+02 -0.36343650487E+02  0.39250718045E+03  0.00000000000E+00 0. -1.
          5    1    4    4  502    0  0.15686883344E+02 -0.15467180984E+02 -0.23046243314E+02  0.32226252148E+02  0.47000000000E+01 0. -1.
         -5    1    4    4    0  502 -0.13108746068E+03  0.91563822595E+02 -0.50618959551E+02  0.16778624801E+03  0.47000000000E+01 0. -1.
<mgrwt>
<rscale>  0 0.10011481E+04</rscale>
<asrwt>0</asrwt>
<pdfrwt beam="1">  1        3 0.43292160E-01 0.10011481E+04</pdfrwt>
<pdfrwt beam="2">  1       -3 0.13699374E+00 0.10011481E+04</pdfrwt>
<totfact> 0.72048242E+00</totfact>
</mgrwt>
</event>
<event>
 9    1  0.4321150E-036  0.1001452E+04  0.7818608E-02  0.8679656E-01
         -2   -1    0    0    0  501 -0.00000000000E+00  0.00000000000E+00  0.36054843885E+03  0.36054843885E+03  0.00000000000E+00 0.  1.
          2   -1    0    0  501    0  0.00000000000E+00 -0.00000000000E+00 -0.69540357570E+03  0.69540357570E+03  0.00000000000E+00 0.  1.
         36    2    1    2    0    0  0.28421709430E-13  0.00000000000E+00 -0.33485513685E+03  0.10559520146E+04  0.10014522926E+04 0.  0.
         25    2    3    3    0    0  0.78605242389E+02  0.10112053262E+03 -0.41042048597E+01  0.18026393734E+03  0.12678365968E+03 0.  0.
         35    2    3    3    0    0 -0.78605242389E+02 -0.10112053262E+03 -0.33075093199E+03  0.87568807721E+03  0.80064304363E+03 0.  0.
         22    1    5    5    0    0  0.25843108207E+03  0.54870525901E+01  0.13449282835E+03  0.29138471614E+03  0.00000000000E+00 0. -1.
         22    1    5    5    0    0 -0.33703632446E+03 -0.10660758521E+03 -0.46524376033E+03  0.58430336107E+03  0.00000000000E+00 0. -1.
          5    1    4    4  502    0 -0.17264511199E+02  0.56026974787E+02  0.33570327265E+02  0.67721061151E+02  0.47000000000E+01 0. -1.
         -5    1    4    4    0  502  0.95869753588E+02  0.45093557830E+02 -0.37674532124E+02  0.11254287619E+03  0.47000000000E+01 0. -1.
<mgrwt>
<rscale>  0 0.10014523E+04</rscale>
<asrwt>0</asrwt>
<pdfrwt beam="1">  1        2 0.10698516E+00 0.10014523E+04</pdfrwt>
<pdfrwt beam="2">  1       -2 0.55468991E-01 0.10014523E+04</pdfrwt>
<totfact> 0.15273737E+02</totfact>
</mgrwt>
</event>
<event>
 9    1  0.4321150E-036  0.1000145E+04  0.7818608E-02  0.8680900E-01
         -2   -1    0    0    0  501 -0.00000000000E+00  0.00000000000E+00  0.19209043795E+03  0.19209043795E+03  0.00000000000E+00 0.  1.
          2   -1    0    0  501    0  0.00000000000E+00 -0.00000000000E+00 -0.13018477303E+04  0.13018477303E+04  0.00000000000E+00 0.  1.
         36    2    1    2    0    0  0.00000000000E+00 -0.28421709430E-13 -0.11097572924E+04  0.14939381683E+04  0.10001449908E+04 0.  0.
         25    2    3    3    0    0  0.74532963084E+02  0.11236011577E+03 -0.15227030505E+03  0.23889627091E+03  0.12532048617E+03 0.  0.
         35    2    3    3    0    0 -0.74532963084E+02 -0.11236011577E+03 -0.95748698731E+03  0.12550418973E+04  0.80010553992E+03 0.  0.
         22    1    5    5    0    0  0.12846845995E+02 -0.43524986031E+03 -0.73170685840E+03  0.85147073290E+03  0.00000000000E+00 0.  1.
         22    1    5    5    0    0 -0.87379809079E+02  0.32288974454E+03 -0.22578012891E+03  0.40357116445E+03  0.00000000000E+00 0.  1.
          5    1    4    4  502    0  0.36166786243E+02  0.43609066492E+02 -0.14953522812E+03  0.15997706572E+03  0.47000000000E+01 0. -1.
         -5    1    4    4    0  502  0.38366176841E+02  0.68751049277E+02 -0.27350769294E+01  0.78919205191E+02  0.47000000000E+01 0. -1.
<mgrwt>
<rscale>  0 0.10001450E+04</rscale>
<asrwt>0</asrwt>
<pdfrwt beam="1">  1        2 0.20028426E+00 0.10001450E+04</pdfrwt>
<pdfrwt beam="2">  1       -2 0.29552376E-01 0.10001450E+04</pdfrwt>
<totfact> 0.20892544E+02</totfact>
</mgrwt>
</event>
<event>
 9    1  0.4321150E-036  0.1000256E+04  0.7818608E-02  0.8680794E-01
          1   -1    0    0  501    0  0.00000000000E+00  0.00000000000E+00  0.90986596343E+03  0.90986596343E+03  0.00000000000E+00 0. -1.
         -1   -1    0    0    0  501 -0.00000000000E+00 -0.00000000000E+00 -0.27490651166E+03  0.27490651166E+03  0.00000000000E+00 0. -1.
         36    2    1    2    0    0  0.14210854715E-13 -0.14210854715E-13  0.63495945177E+03  0.11847724751E+04  0.10002561234E+04 0.  0.
         25    2    3    3    0    0 -0.97190323422E+02 -0.57145857404E+02  0.15233725028E+02  0.16791142457E+03  0.12349320685E+03 0.  0.
         35    2    3    3    0    0  0.97190323422E+02  0.57145857404E+02  0.61972572675E+03  0.10168610505E+04  0.79826988650E+03 0.  0.
         22    1    5    5    0    0  0.70476469737E+02  0.16002187993E+03  0.79383987054E+03  0.81286879317E+03  0.00000000000E+00 0. -1.
         22    1    5    5    0    0  0.26713853685E+02 -0.10287602253E+03 -0.17411414380E+03  0.20399225735E+03  0.00000000000E+00 0. -1.
          5    1    4    4  502    0 -0.10868768502E+03 -0.74554901834E+01  0.32624593362E+02  0.11382025875E+03  0.47000000000E+01 0.  1.
         -5    1    4    4    0  502  0.11497361602E+02 -0.49690367221E+02 -0.17390868334E+02  0.54091165820E+02  0.47000000000E+01 0.  1.
<mgrwt>
<rscale>  0 0.10002561E+04</rscale>
<asrwt>0</asrwt>
<pdfrwt beam="1">  1        1 0.13997938E+00 0.10002561E+04</pdfrwt>
<pdfrwt beam="2">  1       -1 0.42293310E-01 0.10002561E+04</pdfrwt>
<totfact> 0.11070317E+02</totfact>
</mgrwt>
</event>
<event>
 9    1  0.4321150E-036  0.1000485E+04  0.7818608E-02  0.8680576E-01
          2   -1    0    0  501    0  0.00000000000E+00  0.00000000000E+00  0.75928331668E+03  0.75928331668E+03  0.00000000000E+00 0. -1.
         -2   -1    0    0    0  501 -0.00000000000E+00 -0.00000000000E+00 -0.32957747080E+03  0.32957747080E+03  0.00000000000E+00 0. -1.
         36    2    1    2    0    0 -0.14210854715E-13  0.71054273576E-14  0.42970584587E+03  0.10888607875E+04  0.10004852325E+04 0.  0.
         25    2    3    3    0    0  0.12428261858E+03  0.22411108654E+02  0.14896588278E+03  0.23217680684E+03  0.12556595211E+03 0.  0.
         35    2    3    3    0    0 -0.12428261858E+03 -0.22411108654E+02  0.28073996309E+03  0.85668398064E+03  0.79946487649E+03 0.  0.
         22    1    5    5    0    0  0.22973617749E+03 -0.22925991530E+03  0.30576105256E+03  0.44590205345E+03  0.00000000000E+00 0. -1.
         22    1    5    5    0    0 -0.35401879607E+03  0.20684880665E+03 -0.25021089471E+02  0.41078192718E+03  0.00000000000E+00 0. -1.
          5    1    4    4  502    0  0.11643499568E+03  0.46109397661E+02  0.16103517470E+03  0.20405293985E+03  0.47000000000E+01 0.  1.
         -5    1    4    4    0  502  0.78476229053E+01 -0.23698289007E+02 -0.12069291919E+02  0.28123866992E+02  0.47000000000E+01 0.  1.
<mgrwt>
<rscale>  0 0.10004852E+04</rscale>
<asrwt>0</asrwt>
<pdfrwt beam="1">  1        2 0.11681282E+00 0.10004852E+04</pdfrwt>
<pdfrwt beam="2">  1       -2 0.50704227E-01 0.10004852E+04</pdfrwt>
<totfact> 0.16427331E+02</totfact>
</mgrwt>
</event>
<event>
 9    1  0.4321150E-036  0.9994070E+03  0.7818608E-02  0.8681603E-01
          2   -1    0    0  501    0  0.00000000000E+00  0.00000000000E+00  0.47007833199E+03  0.47007833199E+03  0.00000000000E+00 0.  1.
         -2   -1    0    0    0  501 -0.00000000000E+00 -0.00000000000E+00 -0.53119570083E+03  0.53119570083E+03  0.00000000000E+00 0.  1.
         36    2    1    2    0    0 -0.21316282073E-13  0.00000000000E+00 -0.61117368837E+02  0.10012740328E+04  0.99940700218E+03 0.  0.
         25    2    3    3    0    0 -0.63172003021E+02 -0.75974284177E+02  0.86358386569E+02  0.18122484355E+03  0.12498751605E+03 0.  0.
         35    2    3    3    0    0  0.63172003021E+02  0.75974284177E+02 -0.14747575541E+03  0.82004918926E+03  0.80060525888E+03 0.  0.
         22    1    5    5    0    0 -0.35861100482E+03  0.12755100484E+03 -0.91405727451E+02  0.39144107938E+03  0.00000000000E+00 0. -1.
         22    1    5    5    0    0  0.42178300784E+03 -0.51576720666E+02 -0.56070027954E+02  0.42860810988E+03  0.00000000000E+00 0. -1.
          5    1    4    4  502    0 -0.35581278118E+02 -0.34919654721E+02  0.11389534000E+03  0.12441723399E+03  0.47000000000E+01 0. -1.
         -5    1    4    4    0  502 -0.27590724904E+02 -0.41054629455E+02 -0.27536953434E+02  0.56807609568E+02  0.47000000000E+01 0. -1.
<mgrwt>
<rscale>  0 0.99940700E+03</rscale>
<asrwt>0</asrwt>
<pdfrwt beam="1">  1        2 0.72319744E-01 0.99940700E+03</pdfrwt>
<pdfrwt beam="2">  1       -2 0.81722415E-01 0.99940700E+03</pdfrwt>
<totfact> 0.10483669E+02</totfact>
</mgrwt>
</event>
<event>
 9    1  0.4321150E-036  0.9994280E+03  0.7818608E-02  0.8681583E-01
          2   -1    0    0  501    0  0.00000000000E+00  0.00000000000E+00  0.27520668802E+03  0.27520668802E+03  0.00000000000E+00 0. -1.
         -2   -1    0    0    0  501 -0.00000000000E+00 -0.00000000000E+00 -0.90736915561E+03  0.90736915561E+03  0.00000000000E+00 0. -1.
         36    2    1    2    0    0 -0.14210854715E-13 -0.14210854715E-13 -0.63216246759E+03  0.11825758436E+04  0.99942795663E+03 0.  0.
         25    2    3    3    0    0 -0.11231116704E+03  0.74196203126E+02 -0.15477321272E+03  0.24077834309E+03  0.12609753497E+03 0.  0.
         35    2    3    3    0    0  0.11231116704E+03 -0.74196203126E+02 -0.47738925487E+03  0.94179750054E+03  0.80060174653E+03 0.  0.
         22    1    5    5    0    0 -0.22351161221E+03 -0.13035729216E+03 -0.53704237274E+03  0.59612496553E+03  0.00000000000E+00 0.  1.
         22    1    5    5    0    0  0.33582277925E+03  0.56161089037E+02  0.59653117871E+02  0.34567253500E+03  0.00000000000E+00 0.  1.
          5    1    4    4  502    0 -0.60781206359E+02  0.92219112014E+02 -0.47497817236E+02  0.12031979184E+03  0.47000000000E+01 0.  1.
         -5    1    4    4    0  502 -0.51529960680E+02 -0.18022908887E+02 -0.10727539548E+03  0.12045855125E+03  0.47000000000E+01 0.  1.
<mgrwt>
<rscale>  0 0.99942796E+03</rscale>
<asrwt>0</asrwt>
<pdfrwt beam="1">  1        2 0.42339491E-01 0.99942796E+03</pdfrwt>
<pdfrwt beam="2">  1       -2 0.13959525E+00 0.99942796E+03</pdfrwt>
<totfact> 0.50011422E+01</totfact>
</mgrwt>
</event>
<event>
 9    1  0.4321150E-036  0.1000227E+04  0.7818608E-02  0.8680822E-01
          2   -1    0    0  501    0  0.00000000000E+00  0.00000000000E+00  0.22675250539E+04  0.22675250539E+04  0.00000000000E+00 0.  1.
         -2   -1    0    0    0  501 -0.00000000000E+00 -0.00000000000E+00 -0.11030233657E+03  0.11030233657E+03  0.00000000000E+00 0.  1.
         36    2    1    2    0    0  0.00000000000E+00 -0.14210854715E-13  0.21572227173E+04  0.23778273905E+04  0.10002265977E+04 0.  0.
         25    2    3    3    0    0 -0.92915461650E+02 -0.99583310535E+02  0.32360915210E+03  0.37268503512E+03  0.12498453236E+03 0.  0.
         35    2    3    3    0    0  0.92915461650E+02  0.99583310535E+02  0.18336135652E+04  0.20051423553E+04  0.79994189781E+03 0.  0.
         22    1    5    5    0    0 -0.65793373813E+02 -0.17832861475E+03  0.54873763607E+02  0.19784082695E+03  0.00000000000E+00 0. -1.
         22    1    5    5    0    0  0.15870883546E+03  0.27791192529E+03  0.17787398016E+04  0.18073015284E+04  0.00000000000E+00 0. -1.
          5    1    4    4  502    0 -0.43170352865E+02 -0.83921306045E+01  0.14484857611E+02  0.46540394526E+02  0.47000000000E+01 0. -1.
         -5    1    4    4    0  502 -0.49745108785E+02 -0.91191179931E+02  0.30912429449E+03  0.32614464059E+03  0.47000000000E+01 0. -1.
<mgrwt>
<rscale>  0 0.10002266E+04</rscale>
<asrwt>0</asrwt>
<pdfrwt beam="1">  1        2 0.34884997E+00 0.10002266E+04</pdfrwt>
<pdfrwt beam="2">  1       -2 0.16969592E-01 0.10002266E+04</pdfrwt>
<totfact> 0.15567718E+02</totfact>
</mgrwt>
</event>
<event>
 9    1  0.4321150E-036  0.1000002E+04  0.7818608E-02  0.8681036E-01
         -1   -1    0    0    0  501 -0.00000000000E+00  0.00000000000E+00  0.11811086156E+03  0.11811086156E+03  0.00000000000E+00 0.  1.
          1   -1    0    0  501    0  0.00000000000E+00 -0.00000000000E+00 -0.21166658063E+04  0.21166658063E+04  0.00000000000E+00 0.  1.
         36    2    1    2    0    0  0.00000000000E+00  0.00000000000E+00 -0.19985549447E+04  0.22347766678E+04  0.10000024440E+04 0.  0.
         25    2    3    3    0    0  0.93342100327E+02  0.90411816618E+02 -0.33810620175E+03  0.38331255799E+03  0.12540203017E+03 0.  0.
         35    2    3    3    0    0 -0.93342100327E+02 -0.90411816618E+02 -0.16604487430E+04  0.18514641098E+04  0.80866697583E+03 0.  0.
         22    1    5    5    0    0 -0.75520818990E+02 -0.26023821610E+03 -0.11131528455E+03  0.29294780388E+03  0.00000000000E+00 0. -1.
         22    1    5    5    0    0 -0.17821281337E+02  0.16982639949E+03 -0.15491334584E+04  0.15585163060E+04  0.00000000000E+00 0. -1.
          5    1    4    4  502    0  0.39672968636E+02  0.10825353006E+03 -0.27617109965E+03  0.29930809795E+03  0.47000000000E+01 0. -1.
         -5    1    4    4    0  502  0.53669131690E+02 -0.17841713447E+02 -0.61935102101E+02  0.84004460044E+02  0.47000000000E+01 0. -1.
<mgrwt>
<rscale>  0 0.10000024E+04</rscale>
<asrwt>0</asrwt>
<pdfrwt beam="1">  1        1 0.32564089E+00 0.10000024E+04</pdfrwt>
<pdfrwt beam="2">  1       -1 0.18170902E-01 0.10000024E+04</pdfrwt>
<totfact> 0.61784628E+01</totfact>
</mgrwt>
</event>
<event>
 9    1  0.4321150E-036  0.1000343E+04  0.7818608E-02  0.8680711E-01
          1   -1    0    0  501    0  0.00000000000E+00  0.00000000000E+00  0.12073605253E+04  0.12073605253E+04  0.00000000000E+00 0. -1.
         -1   -1    0    0    0  501 -0.00000000000E+00 -0.00000000000E+00 -0.20720532091E+03  0.20720532091E+03  0.00000000000E+00 0. -1.
         36    2    1    2    0    0  0.00000000000E+00  0.14210854715E-13  0.10001552044E+04  0.14145658462E+04  0.10003429913E+04 0.  0.
         25    2    3    3    0    0 -0.10209517938E+03 -0.20875466928E+02  0.31233839067E+03  0.35187869479E+03  0.12411339489E+03 0.  0.
         35    2    3    3    0    0  0.10209517938E+03  0.20875466928E+02  0.68781681368E+03  0.10626871514E+04  0.80333853494E+03 0.  0.
         22    1    5    5    0    0  0.42473022088E+01  0.26558702302E+03  0.74678894184E+03  0.79262111379E+03  0.00000000000E+00 0. -1.
         22    1    5    5    0    0  0.97847877173E+02 -0.24471155609E+03 -0.58972128158E+02  0.27006603758E+03  0.00000000000E+00 0. -1.
          5    1    4    4  502    0 -0.24606960701E+02  0.10856295377E+02  0.23874701291E+03  0.24030311658E+03  0.47000000000E+01 0. -1.
         -5    1    4    4    0  502 -0.77488218680E+02 -0.31731762305E+02  0.73591377753E+02  0.11157557821E+03  0.47000000000E+01 0. -1.
<mgrwt>
<rscale>  0 0.10003430E+04</rscale>
<asrwt>0</asrwt>
<pdfrwt beam="1">  1        1 0.18574777E+00 0.10003430E+04</pdfrwt>
<pdfrwt beam="2">  1       -1 0.31877742E-01 0.10003430E+04</pdfrwt>
<totfact> 0.10659506E+02</totfact>
</mgrwt>
</event>
<event>
 9    1  0.4321150E-036  0.9953179E+03  0.7818608E-02  0.8685510E-01
          3   -1    0    0  501    0  0.00000000000E+00  0.00000000000E+00  0.55890831500E+03  0.55890831500E+03  0.00000000000E+00 0. -1.
         -3   -1    0    0    0  501 -0.00000000000E+00 -0.00000000000E+00 -0.44312172067E+03  0.44312172067E+03  0.00000000000E+00 0. -1.
         36    2    1    2    0    0 -0.14210854715E-13  0.00000000000E+00  0.11578659433E+03  0.10020300357E+04  0.99531786730E+03 0.  0.
         25    2    3    3    0    0 -0.96433658213E+02  0.95186235794E+02  0.25228761511E+02  0.18597319289E+03  0.12485859260E+03 0.  0.
         35    2    3    3    0    0  0.96433658213E+02 -0.95186235794E+02  0.90557832823E+02  0.81605684278E+03  0.79961752084E+03 0.  0.
         22    1    5    5    0    0  0.11543486173E+03 -0.39752319684E+03  0.23976725630E+03  0.47837039679E+03  0.00000000000E+00 0.  1.
         22    1    5    5    0    0 -0.19001203514E+02  0.30233696105E+03 -0.14920942348E+03  0.33768644599E+03  0.00000000000E+00 0.  1.
          5    1    4    4  502    0 -0.53439044133E+02  0.49195708413E+02  0.75795691362E+02  0.10508580300E+03  0.47000000000E+01 0. -1.
         -5    1    4    4    0  502 -0.42994614081E+02  0.45990527381E+02 -0.50566929850E+02  0.80887389890E+02  0.47000000000E+01 0. -1.
<mgrwt>
<rscale>  0 0.99531787E+03</rscale>
<asrwt>0</asrwt>
<pdfrwt beam="1">  1        3 0.85985895E-01 0.99531787E+03</pdfrwt>
<pdfrwt beam="2">  1       -3 0.68172572E-01 0.99531787E+03</pdfrwt>
<totfact> 0.10374717E+01</totfact>
</mgrwt>
</event>
<event>
 9    1  0.4321150E-036  0.1004308E+04  0.7818608E-02  0.8676946E-01
          2   -1    0    0  501    0  0.00000000000E+00  0.00000000000E+00  0.23092635027E+04  0.23092635027E+04  0.00000000000E+00 0. -1.
         -2   -1    0    0    0  501 -0.00000000000E+00 -0.00000000000E+00 -0.10919449213E+03  0.10919449213E+03  0.00000000000E+00 0. -1.
         36    2    1    2    0    0  0.00000000000E+00 -0.71054273576E-14  0.22000690105E+04  0.24184579948E+04  0.10043084295E+04 0.  0.
         25    2    3    3    0    0 -0.79410453128E+02 -0.38820830051E+02  0.69227115414E+03  0.70881903974E+03  0.12398388333E+03 0.  0.
         35    2    3    3    0    0  0.79410453128E+02  0.38820830051E+02  0.15077978564E+04  0.17096389551E+04  0.80099806743E+03 0.  0.
         22    1    5    5    0    0  0.13549776104E+03  0.12960899331E+03  0.15732933605E+04  0.15844273831E+04  0.00000000000E+00 0. -1.
         22    1    5    5    0    0 -0.56087307914E+02 -0.90788163263E+02 -0.65495504046E+02  0.12521157194E+03  0.00000000000E+00 0. -1.
          5    1    4    4  502    0 -0.84270717433E+01  0.17590259913E+02  0.13919758630E+02  0.24418895599E+02  0.47000000000E+01 0.  1.
         -5    1    4    4    0  502 -0.70983381385E+02 -0.56411089963E+02  0.67835139551E+03  0.68440014414E+03  0.47000000000E+01 0.  1.
<mgrwt>
<rscale>  0 0.10043084E+04</rscale>
<asrwt>0</asrwt>
<pdfrwt beam="1">  1        2 0.35527127E+00 0.10043084E+04</pdfrwt>
<pdfrwt beam="2">  1       -2 0.16799154E-01 0.10043084E+04</pdfrwt>
<totfact> 0.14965066E+02</totfact>
</mgrwt>
</event>
<event>
 9    1  0.4321150E-036  0.1000173E+04  0.7818608E-02  0.8680873E-01
          2   -1    0    0  501    0  0.00000000000E+00  0.00000000000E+00  0.19969645875E+03  0.19969645875E+03  0.00000000000E+00 0. -1.
         -2   -1    0    0    0  501 -0.00000000000E+00 -0.00000000000E+00 -0.12523342252E+04  0.12523342252E+04  0.00000000000E+00 0. -1.
         36    2    1    2    0    0  0.14210854715E-13 -0.42632564146E-13 -0.10526377665E+04  0.14520306840E+04  0.10001734049E+04 0.  0.
         25    2    3    3    0    0  0.11415739616E+03 -0.88755923732E+02 -0.20996629572E+03  0.28425327428E+03  0.12571616247E+03 0.  0.
         35    2    3    3    0    0 -0.11415739616E+03  0.88755923732E+02 -0.84267147077E+03  0.11677774097E+04  0.79542400385E+03 0.  0.
         22    1    5    5    0    0  0.73840441506E+02  0.39371011420E+03 -0.24087042986E+03  0.46741697531E+03  0.00000000000E+00 0.  1.
         22    1    5    5    0    0 -0.18799783767E+03 -0.30495419046E+03 -0.60180104090E+03  0.70036043440E+03  0.00000000000E+00 0.  1.
          5    1    4    4  502    0  0.87433789835E+02 -0.90021050721E+02 -0.74342681592E+02  0.14593622403E+03  0.47000000000E+01 0. -1.
         -5    1    4    4    0  502  0.26723606328E+02  0.12651269888E+01 -0.13562361413E+03  0.13831705025E+03  0.47000000000E+01 0. -1.
<mgrwt>
<rscale>  0 0.10001734E+04</rscale>
<asrwt>0</asrwt>
<pdfrwt beam="1">  1        2 0.30722532E-01 0.10001734E+04</pdfrwt>
<pdfrwt beam="2">  1       -2 0.19266681E+00 0.10001734E+04</pdfrwt>
<totfact> 0.28206570E+01</totfact>
</mgrwt>
</event>
<event>
 9    1  0.4321150E-036  0.1000585E+04  0.7818608E-02  0.8680481E-01
         -1   -1    0    0    0  501 -0.00000000000E+00  0.00000000000E+00  0.33032809673E+03  0.33032809673E+03  0.00000000000E+00 0.  1.
          1   -1    0    0  501    0  0.00000000000E+00 -0.00000000000E+00 -0.75770886536E+03  0.75770886536E+03  0.00000000000E+00 0.  1.
         36    2    1    2    0    0  0.14210854715E-13  0.00000000000E+00 -0.42738076863E+03  0.10880369621E+04  0.10005848837E+04 0.  0.
         25    2    3    3    0    0  0.85439573572E+02  0.10581132081E+03 -0.11419491778E+03  0.21825966556E+03  0.12688910915E+03 0.  0.
         35    2    3    3    0    0 -0.85439573572E+02 -0.10581132081E+03 -0.31318585085E+03  0.86977729653E+03  0.79995700637E+03 0.  0.
         22    1    5    5    0    0  0.21644696398E+03  0.22762131432E+03  0.12663074649E+02  0.31435824215E+03  0.00000000000E+00 0.  1.
         22    1    5    5    0    0 -0.30188653755E+03 -0.33343263513E+03 -0.32584892550E+03  0.55541905438E+03  0.00000000000E+00 0.  1.
          5    1    4    4  502    0  0.63991161639E+01 -0.15999039696E+02  0.15393826423E+02  0.23579182573E+02  0.47000000000E+01 0.  1.
         -5    1    4    4    0  502  0.79040457408E+02  0.12181036050E+03 -0.12958874420E+03  0.19468048299E+03  0.47000000000E+01 0.  1.
<mgrwt>
<rscale>  0 0.10005849E+04</rscale>
<asrwt>0</asrwt>
<pdfrwt beam="1">  1        1 0.11657059E+00 0.10005849E+04</pdfrwt>
<pdfrwt beam="2">  1       -1 0.50819707E-01 0.10005849E+04</pdfrwt>
<totfact> 0.10724880E+02</totfact>
</mgrwt>
</event>
<event>
 9    1  0.4321150E-036  0.1000642E+04  0.7818608E-02  0.8680427E-01
          2   -1    0    0  501    0  0.00000000000E+00  0.00000000000E+00  0.28778882294E+04  0.28778882294E+04  0.00000000000E+00 0. -1.
         -2   -1    0    0    0  501 -0.00000000000E+00 -0.00000000000E+00 -0.86980826816E+02  0.86980826816E+02  0.00000000000E+00 0. -1.
         36    2    1    2    0    0 -0.71054273576E-14  0.00000000000E+00  0.27909074026E+04  0.29648690562E+04  0.10006419893E+04 0.  0.
         25    2    3    3    0    0  0.30704156385E+02  0.10722039861E+03  0.28263787497E+03  0.32970701913E+03  0.12799840235E+03 0.  0.
         35    2    3    3    0    0 -0.30704156385E+02 -0.10722039861E+03  0.25082695276E+04  0.26351620371E+04  0.80013997489E+03 0.  0.
         22    1    5    5    0    0 -0.21466502661E+03 -0.22954129474E+03  0.36977675727E+03  0.48528870774E+03  0.00000000000E+00 0.  1.
         22    1    5    5    0    0  0.18396087022E+03  0.12232089614E+03  0.21384927703E+04  0.21498733293E+04  0.00000000000E+00 0.  1.
          5    1    4    4  502    0  0.24125164980E+02 -0.11065704459E+02  0.14745191094E+03  0.14989539499E+03  0.47000000000E+01 0. -1.
         -5    1    4    4    0  502  0.65789914053E+01  0.11828610306E+03  0.13518596403E+03  0.17981162414E+03  0.47000000000E+01 0. -1.
<mgrwt>
<rscale>  0 0.10006420E+04</rscale>
<asrwt>0</asrwt>
<pdfrwt beam="1">  1        2 0.44275196E+00 0.10006420E+04</pdfrwt>
<pdfrwt beam="2">  1       -2 0.13381668E-01 0.10006420E+04</pdfrwt>
<totfact> 0.97445670E+01</totfact>
</mgrwt>
</event>
<event>
 9    1  0.4321150E-036  0.1000649E+04  0.7818608E-02  0.8680421E-01
         -1   -1    0    0    0  501 -0.00000000000E+00  0.00000000000E+00  0.23803715460E+03  0.23803715460E+03  0.00000000000E+00 0.  1.
          1   -1    0    0  501    0  0.00000000000E+00 -0.00000000000E+00 -0.10516190523E+04  0.10516190523E+04  0.00000000000E+00 0.  1.
         36    2    1    2    0    0  0.00000000000E+00  0.00000000000E+00 -0.81358189767E+03  0.12896562069E+04  0.10006486035E+04 0.  0.
         25    2    3    3    0    0  0.90648838966E+02 -0.10484577551E+03 -0.11868024112E+03  0.22075988513E+03  0.12425811282E+03 0.  0.
         35    2    3    3    0    0 -0.90648838966E+02  0.10484577551E+03 -0.69490165654E+03  0.10688963217E+04  0.80027569356E+03 0.  0.
         22    1    5    5    0    0 -0.12674141627E+03  0.21833309002E+03  0.95247208048E+02  0.26982356353E+03  0.00000000000E+00 0.  1.
         22    1    5    5    0    0  0.36092577300E+02 -0.11348731451E+03 -0.79014886459E+03  0.79907275821E+03  0.00000000000E+00 0.  1.
          5    1    4    4  502    0  0.11535771893E+03 -0.11014358916E+03 -0.94381011473E+02  0.18538845400E+03  0.47000000000E+01 0.  1.
         -5    1    4    4    0  502 -0.24708879963E+02  0.52978136529E+01 -0.24299229651E+02  0.35371431129E+02  0.47000000000E+01 0.  1.
<mgrwt>
<rscale>  0 0.10006486E+04</rscale>
<asrwt>0</asrwt>
<pdfrwt beam="1">  1        1 0.16178755E+00 0.10006486E+04</pdfrwt>
<pdfrwt beam="2">  1       -1 0.36621100E-01 0.10006486E+04</pdfrwt>
<totfact> 0.11003346E+02</totfact>
</mgrwt>
</event>
<event>
 9    1  0.4321150E-036  0.9997099E+03  0.7818608E-02  0.8681314E-01
         -2   -1    0    0    0  501 -0.00000000000E+00  0.00000000000E+00  0.29806528290E+03  0.29806528290E+03  0.00000000000E+00 0.  1.
          2   -1    0    0  501    0  0.00000000000E+00 -0.00000000000E+00 -0.83825592029E+03  0.83825592029E+03  0.00000000000E+00 0.  1.
         36    2    1    2    0    0  0.42632564146E-13  0.28421709430E-13 -0.54019063739E+03  0.11363212032E+04  0.99970993398E+03 0.  0.
         25    2    3    3    0    0  0.10347770621E+03 -0.83294059415E+02 -0.15829594363E+03  0.24171546072E+03  0.12539227315E+03 0.  0.
         35    2    3    3    0    0 -0.10347770621E+03  0.83294059415E+02 -0.38189469377E+03  0.89460574248E+03  0.79801650442E+03 0.  0.
         22    1    5    5    0    0  0.17820393646E+03  0.27184609292E+03  0.67226260239E+02  0.33192817185E+03  0.00000000000E+00 0.  1.
         22    1    5    5    0    0 -0.28168164267E+03 -0.18855203350E+03 -0.44912095401E+03  0.56267757063E+03  0.00000000000E+00 0.  1.
          5    1    4    4  502    0  0.54574369770E+02 -0.10416195244E+03 -0.65560840040E+02  0.13471595272E+03  0.47000000000E+01 0.  1.
         -5    1    4    4    0  502  0.48903336438E+02  0.20867893021E+02 -0.92735103585E+02  0.10699950799E+03  0.47000000000E+01 0.  1.
<mgrwt>
<rscale>  0 0.99970993E+03</rscale>
<asrwt>0</asrwt>
<pdfrwt beam="1">  1        2 0.12896245E+00 0.99970993E+03</pdfrwt>
<pdfrwt beam="2">  1       -2 0.45856197E-01 0.99970993E+03</pdfrwt>
<totfact> 0.17651609E+02</totfact>
</mgrwt>
</event>
<event>
 9    1  0.4321150E-036  0.9981060E+03  0.7818608E-02  0.8682844E-01
          1   -1    0    0  501    0  0.00000000000E+00  0.00000000000E+00  0.39882257722E+03  0.39882257722E+03  0.00000000000E+00 0. -1.
         -1   -1    0    0    0  501 -0.00000000000E+00 -0.00000000000E+00 -0.62447288000E+03  0.62447288000E+03  0.00000000000E+00 0. -1.
         36    2    1    2    0    0 -0.42632564146E-13 -0.14210854715E-13 -0.22565030278E+03  0.10232954572E+04  0.99810597314E+03 0.  0.
         25    2    3    3    0    0  0.15357798139E+01  0.11277169244E+03  0.36849566317E+02  0.17174785642E+03  0.12417577224E+03 0.  0.
         35    2    3    3    0    0 -0.15357798139E+01 -0.11277169244E+03 -0.26249986910E+03  0.85154760080E+03  0.80218908115E+03 0.  0.
         22    1    5    5    0    0  0.29938897130E+03 -0.13165755459E+03  0.13398422460E+03  0.35343916062E+03  0.00000000000E+00 0. -1.
         22    1    5    5    0    0 -0.30092475112E+03  0.18885862146E+02 -0.39648409370E+03  0.49810844018E+03  0.00000000000E+00 0. -1.
          5    1    4    4  502    0  0.56536147327E+02  0.22412013120E+02  0.51343698353E+01  0.61213446564E+02  0.47000000000E+01 0.  1.
         -5    1    4    4    0  502 -0.55000367513E+02  0.90359679320E+02  0.31715196482E+02  0.11053440985E+03  0.47000000000E+01 0.  1.
<mgrwt>
<rscale>  0 0.99810597E+03</rscale>
<asrwt>0</asrwt>
<pdfrwt beam="1">  1        1 0.61357320E-01 0.99810597E+03</pdfrwt>
<pdfrwt beam="2">  1       -1 0.96072750E-01 0.99810597E+03</pdfrwt>
<totfact> 0.75187802E+01</totfact>
</mgrwt>
</event>
<event>
 9    1  0.4321150E-036  0.9998962E+03  0.7818608E-02  0.8681137E-01
          1   -1    0    0  501    0  0.00000000000E+00  0.00000000000E+00  0.32664784748E+03  0.32664784748E+03  0.00000000000E+00 0. -1.
         -1   -1    0    0    0  501 -0.00000000000E+00 -0.00000000000E+00 -0.76519140886E+03  0.76519140886E+03  0.00000000000E+00 0. -1.
         36    2    1    2    0    0 -0.88817841970E-15  0.28421709430E-13 -0.43854356138E+03  0.10918392563E+04  0.99989624784E+03 0.  0.
         25    2    3    3    0    0  0.67122344018E+01 -0.13956267369E+03 -0.93159686461E+02  0.20940832671E+03  0.12510126352E+03 0.  0.
         35    2    3    3    0    0 -0.67122344018E+01  0.13956267369E+03 -0.34538387492E+03  0.88243092963E+03  0.79991970255E+03 0.  0.
         22    1    5    5    0    0 -0.98266796745E+02  0.15565422892E+03 -0.59142787559E+03  0.61941224911E+03  0.00000000000E+00 0. -1.
         22    1    5    5    0    0  0.91554562343E+02 -0.16091555229E+02  0.24604400067E+03  0.26301868052E+03  0.00000000000E+00 0. -1.
          5    1    4    4  502    0  0.79503215775E+00 -0.11254033754E+03 -0.12412865422E+03  0.16761853253E+03  0.47000000000E+01 0.  1.
         -5    1    4    4    0  502  0.59172022440E+01 -0.27022336151E+02  0.30968967758E+02  0.41789794178E+02  0.47000000000E+01 0.  1.
<mgrwt>
<rscale>  0 0.99989625E+03</rscale>
<asrwt>0</asrwt>
<pdfrwt beam="1">  1        1 0.50253516E-01 0.99989625E+03</pdfrwt>
<pdfrwt beam="2">  1       -1 0.11772175E+00 0.99989625E+03</pdfrwt>
<totfact> 0.61183394E+01</totfact>
</mgrwt>
</event>
<event>
 9    1  0.4321150E-036  0.9994578E+03  0.7818608E-02  0.8681554E-01
          2   -1    0    0  501    0  0.00000000000E+00  0.00000000000E+00  0.16906268524E+04  0.16906268524E+04  0.00000000000E+00 0.  1.
         -2   -1    0    0    0  501 -0.00000000000E+00 -0.00000000000E+00 -0.14771384465E+03  0.14771384465E+03  0.00000000000E+00 0.  1.
         36    2    1    2    0    0  0.00000000000E+00  0.00000000000E+00  0.15429130077E+04  0.18383406970E+04  0.99945783749E+03 0.  0.
         25    2    3    3    0    0  0.11097074715E+03  0.94457273311E+02  0.27143052204E+03  0.33256832240E+03  0.12526163645E+03 0.  0.
         35    2    3    3    0    0 -0.11097074715E+03 -0.94457273311E+02  0.12714824857E+04  0.15057723746E+04  0.79337636060E+03 0.  0.
         22    1    5    5    0    0  0.17100642322E+03  0.28544566765E+03  0.55791883678E+03  0.64961207993E+03  0.00000000000E+00 0.  1.
         22    1    5    5    0    0 -0.28197717036E+03 -0.37990294096E+03  0.71356364891E+03  0.85616029469E+03  0.00000000000E+00 0.  1.
          5    1    4    4  502    0  0.84246782003E+01  0.89991954722E+01  0.15445653525E+03  0.15501894079E+03  0.47000000000E+01 0.  1.
         -5    1    4    4    0  502  0.10254606895E+03  0.85458077839E+02  0.11697398679E+03  0.17754938161E+03  0.47000000000E+01 0.  1.
<mgrwt>
<rscale>  0 0.99945784E+03</rscale>
<asrwt>0</asrwt>
<pdfrwt beam="1">  1        2 0.26009643E+00 0.99945784E+03</pdfrwt>
<pdfrwt beam="2">  1       -2 0.22725208E-01 0.99945784E+03</pdfrwt>
<totfact> 0.20075024E+02</totfact>
</mgrwt>
</event>
<event>
 9    1  0.4321150E-036  0.9997213E+03  0.7818608E-02  0.8681303E-01
          1   -1    0    0  501    0  0.00000000000E+00  0.00000000000E+00  0.69134660746E+03  0.69134660746E+03  0.00000000000E+00 0. -1.
         -1   -1    0    0    0  501 -0.00000000000E+00 -0.00000000000E+00 -0.36141160293E+03  0.36141160293E+03  0.00000000000E+00 0. -1.
         36    2    1    2    0    0  0.00000000000E+00  0.00000000000E+00  0.32993500452E+03  0.10527582104E+04  0.99972133234E+03 0.  0.
         25    2    3    3    0    0  0.60541105936E+02  0.79907598869E+02  0.16333221692E+03  0.22889142427E+03  0.12515359025E+03 0.  0.
         35    2    3    3    0    0 -0.60541105936E+02 -0.79907598869E+02  0.16660278760E+03  0.82386678612E+03  0.80059324415E+03 0.  0.
         22    1    5    5    0    0  0.11492231919E+03 -0.33831332799E+02  0.46196260373E+03  0.47724327735E+03  0.00000000000E+00 0. -1.
         22    1    5    5    0    0 -0.17546342513E+03 -0.46076266070E+02 -0.29535981613E+03  0.34662350878E+03  0.00000000000E+00 0. -1.
          5    1    4    4  502    0  0.73674290195E+02  0.77541318702E+02  0.56368538866E+02  0.12099611281E+03  0.47000000000E+01 0.  1.
         -5    1    4    4    0  502 -0.13133184259E+02  0.23662801670E+01  0.10696367806E+03  0.10789531146E+03  0.47000000000E+01 0.  1.
<mgrwt>
<rscale>  0 0.99972133E+03</rscale>
<asrwt>0</asrwt>
<pdfrwt beam="1">  1        1 0.10636102E+00 0.99972133E+03</pdfrwt>
<pdfrwt beam="2">  1       -1 0.55601785E-01 0.99972133E+03</pdfrwt>
<totfact> 0.10455455E+02</totfact>
</mgrwt>
</event>
<event>
 9    1  0.4321150E-036  0.1001346E+04  0.7818608E-02  0.8679758E-01
         -2   -1    0    0    0  501 -0.00000000000E+00  0.00000000000E+00  0.24582736334E+03  0.24582736334E+03  0.00000000000E+00 0.  1.
          2   -1    0    0  501    0  0.00000000000E+00 -0.00000000000E+00 -0.10197125923E+04  0.10197125923E+04  0.00000000000E+00 0.  1.
         36    2    1    2    0    0  0.00000000000E+00  0.00000000000E+00 -0.77388522894E+03  0.12655399556E+04  0.10013456105E+04 0.  0.
         25    2    3    3    0    0  0.43188945167E+02  0.13217296227E+03 -0.10027928233E+03  0.21208170153E+03  0.12485085789E+03 0.  0.
         35    2    3    3    0    0 -0.43188945167E+02 -0.13217296227E+03 -0.67360594661E+03  0.10534582541E+04  0.79793129082E+03 0.  0.
         22    1    5    5    0    0 -0.63962499648E+02  0.32535714374E+02 -0.82539751746E+03  0.82851121652E+03  0.00000000000E+00 0.  1.
         22    1    5    5    0    0  0.20773554481E+02 -0.16470867665E+03  0.15179157086E+03  0.22494703757E+03  0.00000000000E+00 0.  1.
          5    1    4    4  502    0  0.41077566525E+02  0.89552339299E+01  0.13379088981E+02  0.44369502006E+02  0.47000000000E+01 0. -1.
         -5    1    4    4    0  502  0.21113786426E+01  0.12321772834E+03 -0.11365837131E+03  0.16771219952E+03  0.47000000000E+01 0. -1.
<mgrwt>
<rscale>  0 0.10013456E+04</rscale>
<asrwt>0</asrwt>
<pdfrwt beam="1">  1        2 0.15687886E+00 0.10013456E+04</pdfrwt>
<pdfrwt beam="2">  1       -2 0.37819595E-01 0.10013456E+04</pdfrwt>
<totfact> 0.19507825E+02</totfact>
</mgrwt>
</event>
<event>
 9    1  0.4321150E-036  0.1000257E+04  0.7818608E-02  0.8680793E-01
          3   -1    0    0  501    0  0.00000000000E+00  0.00000000000E+00  0.72574762067E+03  0.72574762067E+03  0.00000000000E+00 0.  1.
         -3   -1    0    0    0  501 -0.00000000000E+00 -0.00000000000E+00 -0.34464973334E+03  0.34464973334E+03  0.00000000000E+00 0.  1.
         36    2    1    2    0    0 -0.21316282073E-13 -0.14210854715E-13  0.38109788733E+03  0.10703973540E+04  0.10002574147E+04 0.  0.
         25    2    3    3    0    0 -0.61488290698E+02 -0.87174455838E+02 -0.26245923920E+02  0.16617113307E+03  0.12467478213E+03 0.  0.
         35    2    3    3    0    0  0.61488290698E+02  0.87174455838E+02  0.40734381125E+03  0.90422622094E+03  0.80019740216E+03 0.  0.
         22    1    5    5    0    0  0.26519678014E+03 -0.22454629809E+02 -0.14664837354E+03  0.30387380285E+03  0.00000000000E+00 0. -1.
         22    1    5    5    0    0 -0.20370848944E+03  0.10962908565E+03  0.55399218479E+03  0.60035241809E+03  0.00000000000E+00 0. -1.
          5    1    4    4  502    0  0.28813803172E+02 -0.20176788086E+02  0.24084565623E+02  0.42889326551E+02  0.47000000000E+01 0. -1.
         -5    1    4    4    0  502 -0.90302093870E+02 -0.66997667752E+02 -0.50330489543E+02  0.12328180652E+03  0.47000000000E+01 0. -1.
<mgrwt>
<rscale>  0 0.10002574E+04</rscale>
<asrwt>0</asrwt>
<pdfrwt beam="1">  1        3 0.11165348E+00 0.10002574E+04</pdfrwt>
<pdfrwt beam="2">  1       -3 0.53023036E-01 0.10002574E+04</pdfrwt>
<totfact> 0.98994478E+00</totfact>
</mgrwt>
</event>
<event>
 9    1  0.4321150E-036  0.1000377E+04  0.7818608E-02  0.8680679E-01
          1   -1    0    0  501    0  0.00000000000E+00  0.00000000000E+00  0.17948120352E+03  0.17948120352E+03  0.00000000000E+00 0. -1.
         -1   -1    0    0    0  501 -0.00000000000E+00 -0.00000000000E+00 -0.13939538669E+04  0.13939538669E+04  0.00000000000E+00 0. -1.
         36    2    1    2    0    0  0.00000000000E+00  0.28421709430E-13 -0.12144726634E+04  0.15734350705E+04  0.10003769643E+04 0.  0.
         25    2    3    3    0    0 -0.42539238126E+02 -0.33417116710E+01 -0.21325180018E+02  0.13623485612E+03  0.12761041846E+03 0.  0.
         35    2    3    3    0    0  0.42539238126E+02  0.33417116710E+01 -0.11931474834E+04  0.14372002144E+04  0.80007673705E+03 0.  0.
         22    1    5    5    0    0 -0.14113254958E+02 -0.36030154755E+03 -0.29262709427E+03  0.46437808457E+03  0.00000000000E+00 0. -1.
         22    1    5    5    0    0  0.56652493084E+02  0.36364325922E+03 -0.90052038913E+03  0.97282212978E+03  0.00000000000E+00 0. -1.
          5    1    4    4  502    0  0.49919542344E+00 -0.50800747652E+02 -0.44742694178E+02  0.67859883881E+02  0.47000000000E+01 0.  1.
         -5    1    4    4    0  502 -0.43038433549E+02  0.47459035981E+02  0.23417514159E+02  0.68374972234E+02  0.47000000000E+01 0.  1.
<mgrwt>
<rscale>  0 0.10003770E+04</rscale>
<asrwt>0</asrwt>
<pdfrwt beam="1">  1        1 0.27612492E-01 0.10003770E+04</pdfrwt>
<pdfrwt beam="2">  1       -1 0.21445444E+00 0.10003770E+04</pdfrwt>
<totfact> 0.20063906E+01</totfact>
</mgrwt>
</event>
<event>
 9    1  0.4321150E-036  0.1000387E+04  0.7818608E-02  0.8680669E-01
          2   -1    0    0  501    0  0.00000000000E+00  0.00000000000E+00  0.22409798776E+04  0.22409798776E+04  0.00000000000E+00 0. -1.
         -2   -1    0    0    0  501 -0.00000000000E+00 -0.00000000000E+00 -0.11164471840E+03  0.11164471840E+03  0.00000000000E+00 0. -1.
         36    2    1    2    0    0  0.28421709430E-13  0.21316282073E-13  0.21293351592E+04  0.23526245960E+04  0.10003870599E+04 0.  0.
         25    2    3    3    0    0  0.12648369821E+03 -0.54623265538E+02  0.47370218884E+03  0.50887844201E+03  0.12482659164E+03 0.  0.
         35    2    3    3    0    0 -0.12648369821E+03  0.54623265538E+02  0.16556329704E+04  0.18437461540E+04  0.79956082995E+03 0.  0.
         22    1    5    5    0    0  0.24045652295E+03 -0.16465222937E+03  0.11261502003E+04  0.11632471663E+04  0.00000000000E+00 0. -1.
         22    1    5    5    0    0 -0.36694022116E+03  0.21927549491E+03  0.52948277001E+03  0.68049898773E+03  0.00000000000E+00 0. -1.
          5    1    4    4  502    0  0.10333550534E+03 -0.78395858194E+02  0.24056951354E+03  0.27334944319E+03  0.47000000000E+01 0.  1.
         -5    1    4    4    0  502  0.23148192866E+02  0.23772592656E+02  0.23313267529E+03  0.23552899882E+03  0.47000000000E+01 0.  1.
<mgrwt>
<rscale>  0 0.10003871E+04</rscale>
<asrwt>0</asrwt>
<pdfrwt beam="1">  1        2 0.34476610E+00 0.10003871E+04</pdfrwt>
<pdfrwt beam="2">  1       -2 0.17176112E-01 0.10003871E+04</pdfrwt>
<totfact> 0.15807015E+02</totfact>
</mgrwt>
</event>
<event>
 9    1  0.4321150E-036  0.9998400E+03  0.7818608E-02  0.8681190E-01
         -1   -1    0    0    0  501 -0.00000000000E+00  0.00000000000E+00  0.48885816676E+03  0.48885816676E+03  0.00000000000E+00 0. -1.
          1   -1    0    0  501    0  0.00000000000E+00 -0.00000000000E+00 -0.51123210402E+03  0.51123210402E+03  0.00000000000E+00 0. -1.
         36    2    1    2    0    0 -0.21316282073E-13  0.00000000000E+00 -0.22373937255E+02  0.10000902708E+04  0.99983996551E+03 0.  0.
         25    2    3    3    0    0  0.56590547546E+01  0.13297075894E+03 -0.48156063418E+02  0.18829123001E+03  0.12418266071E+03 0.  0.
         35    2    3    3    0    0 -0.56590547546E+01 -0.13297075894E+03  0.25782126164E+02  0.81179904077E+03  0.80039972322E+03 0.  0.
         22    1    5    5    0    0  0.36162266107E+03 -0.55084394682E+02  0.17783116902E+03  0.40672984180E+03  0.00000000000E+00 0.  1.
         22    1    5    5    0    0 -0.36728171583E+03 -0.77886364260E+02 -0.15204904285E+03  0.40506919897E+03  0.00000000000E+00 0.  1.
          5    1    4    4  502    0  0.14027525923E+02  0.21985988505E+01 -0.54991651145E+02  0.56989271061E+02  0.47000000000E+01 0.  1.
         -5    1    4    4    0  502 -0.83684711680E+01  0.13077216009E+03  0.68355877265E+01  0.13130195895E+03  0.47000000000E+01 0.  1.
<mgrwt>
<rscale>  0 0.99983997E+03</rscale>
<asrwt>0</asrwt>
<pdfrwt beam="1">  1        1 0.78651093E-01 0.99983997E+03</pdfrwt>
<pdfrwt beam="2">  1       -1 0.75208948E-01 0.99983997E+03</pdfrwt>
<totfact> 0.90032360E+01</totfact>
</mgrwt>
</event>
<event>
 9    1  0.4321150E-036  0.9932101E+03  0.7818608E-02  0.8687531E-01
         -1   -1    0    0    0  501 -0.00000000000E+00  0.00000000000E+00  0.61977205834E+03  0.61977205834E+03  0.00000000000E+00 0.  1.
          1   -1    0    0  501    0  0.00000000000E+00 -0.00000000000E+00 -0.39791499495E+03  0.39791499495E+03  0.00000000000E+00 0.  1.
         36    2    1    2    0    0  0.00000000000E+00  0.28421709430E-13  0.22185706339E+03  0.10176870533E+04  0.99321013983E+03 0.  0.
         25    2    3    3    0    0  0.22932743177E+02 -0.82823902731E+02 -0.63575908917E+02  0.16580608902E+03  0.12674404675E+03 0.  0.
         35    2    3    3    0    0 -0.22932743177E+02  0.82823902731E+02  0.28543297231E+03  0.85188096427E+03  0.79802474024E+03 0.  0.
         22    1    5    5    0    0 -0.72384381661E+02  0.29285309618E+03 -0.17118211764E+03  0.34685119583E+03  0.00000000000E+00 0. -1.
         22    1    5    5    0    0  0.49451638485E+02 -0.21002919345E+03  0.45661508995E+03  0.50502976844E+03  0.00000000000E+00 0. -1.
          5    1    4    4  502    0  0.45234504397E+02 -0.10558275969E+03 -0.67573772122E+02  0.13334985643E+03  0.47000000000E+01 0. -1.
         -5    1    4    4    0  502 -0.22301761220E+02  0.22758856958E+02  0.39978632048E+01  0.32456232587E+02  0.47000000000E+01 0. -1.
<mgrwt>
<rscale>  0 0.99321014E+03</rscale>
<asrwt>0</asrwt>
<pdfrwt beam="1">  1        1 0.61217692E-01 0.99321014E+03</pdfrwt>
<pdfrwt beam="2">  1       -1 0.95349547E-01 0.99321014E+03</pdfrwt>
<totfact> 0.76720808E+01</totfact>
</mgrwt>
</event>
<event>
 9    1  0.4321150E-036  0.9996475E+03  0.7818608E-02  0.8681374E-01
          1   -1    0    0  501    0  0.00000000000E+00  0.00000000000E+00  0.12632838815E+04  0.12632838815E+04  0.00000000000E+00 0. -1.
         -1   -1    0    0    0  501 -0.00000000000E+00 -0.00000000000E+00 -0.19775744851E+03  0.19775744851E+03  0.00000000000E+00 0. -1.
         36    2    1    2    0    0 -0.21316282073E-13  0.00000000000E+00  0.10655264330E+04  0.14610413300E+04  0.99964753217E+03 0.  0.
         25    2    3    3    0    0 -0.22699992324E+02  0.69594819493E+02  0.25814577003E+02  0.14732364753E+03  0.12521635749E+03 0.  0.
         35    2    3    3    0    0  0.22699992324E+02 -0.69594819493E+02  0.10397118560E+04  0.13137176825E+04  0.79968411090E+03 0.  0.
         22    1    5    5    0    0  0.29364534920E+03  0.11242958941E+03  0.11788107370E+03  0.33580344134E+03  0.00000000000E+00 0. -1.
         22    1    5    5    0    0 -0.27094535687E+03 -0.18202440890E+03  0.92183078229E+03  0.97791424114E+03  0.00000000000E+00 0. -1.
          5    1    4    4  502    0  0.30658579764E+02  0.38480282379E+02  0.59066438162E+02  0.77016977104E+02  0.47000000000E+01 0. -1.
         -5    1    4    4    0  502 -0.53358572088E+02  0.31114537114E+02 -0.33251861159E+02  0.70306670421E+02  0.47000000000E+01 0. -1.
<mgrwt>
<rscale>  0 0.99964753E+03</rscale>
<asrwt>0</asrwt>
<pdfrwt beam="1">  1        1 0.19435136E+00 0.99964753E+03</pdfrwt>
<pdfrwt beam="2">  1       -1 0.30424224E-01 0.99964753E+03</pdfrwt>
<totfact> 0.10500215E+02</totfact>
</mgrwt>
</event>
<event>
 9    1  0.4321150E-036  0.9993619E+03  0.7818608E-02  0.8681646E-01
         -1   -1    0    0    0  501 -0.00000000000E+00  0.00000000000E+00  0.11862672508E+03  0.11862672508E+03  0.00000000000E+00 0.  1.
          1   -1    0    0  501    0  0.00000000000E+00 -0.00000000000E+00 -0.21047621006E+04  0.21047621006E+04  0.00000000000E+00 0.  1.
         36    2    1    2    0    0  0.00000000000E+00  0.00000000000E+00 -0.19861353755E+04  0.22233888257E+04  0.99936186655E+03 0.  0.
         25    2    3    3    0    0  0.91459979114E+02  0.98231082769E+02 -0.28163114051E+03  0.33580752958E+03  0.12424300470E+03 0.  0.
         35    2    3    3    0    0 -0.91459979114E+02 -0.98231082769E+02 -0.17045042350E+04  0.18875812961E+04  0.79975883168E+03 0.  0.
         22    1    5    5    0    0  0.33532476048E+03  0.67653132069E+02 -0.57905008049E+03  0.67254638277E+03  0.00000000000E+00 0. -1.
         22    1    5    5    0    0 -0.42678473960E+03 -0.16588421484E+03 -0.11254541545E+04  0.12150349133E+04  0.00000000000E+00 0. -1.
          5    1    4    4  502    0  0.97362064348E+02  0.12303018358E+03 -0.24054089788E+03  0.28722432209E+03  0.47000000000E+01 0.  1.
         -5    1    4    4    0  502 -0.59020852339E+01 -0.24799100810E+02 -0.41090242623E+02  0.48583207489E+02  0.47000000000E+01 0.  1.
<mgrwt>
<rscale>  0 0.99936187E+03</rscale>
<asrwt>0</asrwt>
<pdfrwt beam="1">  1        1 0.32380951E+00 0.99936187E+03</pdfrwt>
<pdfrwt beam="2">  1       -1 0.18250268E-01 0.99936187E+03</pdfrwt>
<totfact> 0.62538184E+01</totfact>
</mgrwt>
</event>
<event>
 9    1  0.4321150E-036  0.1000095E+04  0.7818608E-02  0.8680948E-01
         -1   -1    0    0    0  501 -0.00000000000E+00  0.00000000000E+00  0.97886956503E+03  0.97886956503E+03  0.00000000000E+00 0. -1.
          1   -1    0    0  501    0  0.00000000000E+00 -0.00000000000E+00 -0.25544496637E+03  0.25544496637E+03  0.00000000000E+00 0. -1.
         36    2    1    2    0    0  0.21316282073E-13  0.28421709430E-13  0.72342459866E+03  0.12343145314E+04  0.10000946018E+04 0.  0.
         25    2    3    3    0    0  0.13165545669E+01 -0.12807305960E+03  0.20463158966E+03  0.27228779773E+03  0.12594489030E+03 0.  0.
         35    2    3    3    0    0 -0.13165545669E+01  0.12807305960E+03  0.51879300900E+03  0.96202673367E+03  0.79996550438E+03 0.  0.
         22    1    5    5    0    0 -0.32733469714E+03  0.25963407715E+03  0.12933595189E+03  0.43736214562E+03  0.00000000000E+00 0.  1.
         22    1    5    5    0    0  0.32601814257E+03 -0.13156101755E+03  0.38945705711E+03  0.52466458805E+03  0.00000000000E+00 0.  1.
          5    1    4    4  502    0 -0.53413610018E+02 -0.10498959474E+03  0.15501393677E+03  0.19474917030E+03  0.47000000000E+01 0.  1.
         -5    1    4    4    0  502  0.54730164585E+02 -0.23083464861E+02  0.49617652890E+02  0.77538627430E+02  0.47000000000E+01 0.  1.
<mgrwt>
<rscale>  0 0.10000946E+04</rscale>
<asrwt>0</asrwt>
<pdfrwt beam="1">  1        1 0.39299226E-01 0.10000946E+04</pdfrwt>
<pdfrwt beam="2">  1       -1 0.15059532E+00 0.10000946E+04</pdfrwt>
<totfact> 0.43808734E+01</totfact>
</mgrwt>
</event>
<event>
 9    1  0.4321150E-036  0.9993504E+03  0.7818608E-02  0.8681657E-01
          2   -1    0    0  501    0  0.00000000000E+00  0.00000000000E+00  0.26206810980E+03  0.26206810980E+03  0.00000000000E+00 0.  1.
         -2   -1    0    0    0  501 -0.00000000000E+00 -0.00000000000E+00 -0.95271142879E+03  0.95271142879E+03  0.00000000000E+00 0.  1.
         36    2    1    2    0    0 -0.28421709430E-13  0.00000000000E+00 -0.69064331899E+03  0.12147795386E+04  0.99935035563E+03 0.  0.
         25    2    3    3    0    0 -0.78981998602E+02 -0.11690757237E+03 -0.11652356186E+03  0.21988346930E+03  0.12192400512E+03 0.  0.
         35    2    3    3    0    0  0.78981998602E+02  0.11690757237E+03 -0.57411975713E+03  0.99489606929E+03  0.80018695101E+03 0.  0.
         22    1    5    5    0    0 -0.15997138429E+03  0.94553049533E+02  0.14569151337E+03  0.23612949844E+03  0.00000000000E+00 0. -1.
         22    1    5    5    0    0  0.23895338289E+03  0.22354522833E+02 -0.71981127051E+03  0.75876657085E+03  0.00000000000E+00 0. -1.
          5    1    4    4  502    0 -0.60870047010E+02 -0.14234754002E+03 -0.96397636480E+02  0.18243513667E+03  0.47000000000E+01 0.  1.
         -5    1    4    4    0  502 -0.18111951591E+02  0.25439967652E+02 -0.20125925378E+02  0.37448332632E+02  0.47000000000E+01 0.  1.
<mgrwt>
<rscale>  0 0.99935036E+03</rscale>
<asrwt>0</asrwt>
<pdfrwt beam="1">  1        2 0.40318171E-01 0.99935036E+03</pdfrwt>
<pdfrwt beam="2">  1       -2 0.14657099E+00 0.99935036E+03</pdfrwt>
<totfact> 0.46196339E+01</totfact>
</mgrwt>
</event>
<event>
 9    1  0.4321150E-036  0.1000310E+04  0.7818608E-02  0.8680743E-01
         -2   -1    0    0    0  501 -0.00000000000E+00  0.00000000000E+00  0.23324519934E+03  0.23324519934E+03  0.00000000000E+00 0. -1.
          2   -1    0    0  501    0  0.00000000000E+00 -0.00000000000E+00 -0.10724983544E+04  0.10724983544E+04  0.00000000000E+00 0. -1.
         36    2    1    2    0    0  0.00000000000E+00  0.00000000000E+00 -0.83925315507E+03  0.13057435538E+04  0.10003101368E+04 0.  0.
         25    2    3    3    0    0 -0.86009255012E+02 -0.98346924648E+02 -0.88266312557E+02  0.20042307939E+03  0.12372857101E+03 0.  0.
         35    2    3    3    0    0  0.86009255012E+02  0.98346924648E+02 -0.75098684252E+03  0.11053204744E+04  0.80042638880E+03 0.  0.
         22    1    5    5    0    0  0.18631505591E+03  0.19740298432E+03 -0.87588257061E+03  0.91697956127E+03  0.00000000000E+00 0. -1.
         22    1    5    5    0    0 -0.10030580089E+03 -0.99056059674E+02  0.12489572810E+03  0.18834091310E+03  0.00000000000E+00 0. -1.
          5    1    4    4  502    0 -0.86546587969E+02 -0.11319713580E+03 -0.10537123156E+03  0.17728251431E+03  0.47000000000E+01 0. -1.
         -5    1    4    4    0  502  0.53733295654E+00  0.14850211148E+02  0.17104919002E+02  0.23140565073E+02  0.47000000000E+01 0. -1.
<mgrwt>
<rscale>  0 0.10003101E+04</rscale>
<asrwt>0</asrwt>
<pdfrwt beam="1">  1        2 0.16499975E+00 0.10003101E+04</pdfrwt>
<pdfrwt beam="2">  1       -2 0.35883876E-01 0.10003101E+04</pdfrwt>
<totfact> 0.19979822E+02</totfact>
</mgrwt>
</event>
<event>
 9    1  0.4321150E-036  0.1000295E+04  0.7818608E-02  0.8680757E-01
         -1   -1    0    0    0  501 -0.00000000000E+00  0.00000000000E+00  0.96345602153E+03  0.96345602153E+03  0.00000000000E+00 0.  1.
          1   -1    0    0  501    0  0.00000000000E+00 -0.00000000000E+00 -0.25963565404E+03  0.25963565404E+03  0.00000000000E+00 0.  1.
         36    2    1    2    0    0 -0.14210854715E-13 -0.14210854715E-13  0.70382036749E+03  0.12230916756E+04  0.10002950251E+04 0.  0.
         25    2    3    3    0    0 -0.41585628633E+02  0.12530242219E+03  0.73637707632E+02  0.19622242593E+03  0.12510262562E+03 0.  0.
         35    2    3    3    0    0  0.41585628633E+02 -0.12530242219E+03  0.63018265986E+03  0.10268692496E+04  0.79993762854E+03 0.  0.
         22    1    5    5    0    0 -0.12220989474E+03 -0.17689432510E+03 -0.12750199665E+03  0.24996723740E+03  0.00000000000E+00 0. -1.
         22    1    5    5    0    0  0.16379552338E+03  0.51591902911E+02  0.75768465651E+03  0.77690201224E+03  0.00000000000E+00 0. -1.
          5    1    4    4  502    0 -0.73343495118E+02  0.61144783207E+02  0.79364222903E+02  0.12425265658E+03  0.47000000000E+01 0.  1.
         -5    1    4    4    0  502  0.31757866485E+02  0.64157638978E+02 -0.57265152709E+01  0.71969769348E+02  0.47000000000E+01 0.  1.
<mgrwt>
<rscale>  0 0.10002950E+04</rscale>
<asrwt>0</asrwt>
<pdfrwt beam="1">  1        1 0.39943947E-01 0.10002950E+04</pdfrwt>
<pdfrwt beam="2">  1       -1 0.14822400E+00 0.10002950E+04</pdfrwt>
<totfact> 0.44905114E+01</totfact>
</mgrwt>
</event>
<event>
 9    1  0.4321150E-036  0.9986417E+03  0.7818608E-02  0.8682333E-01
         -2   -1    0    0    0  501 -0.00000000000E+00  0.00000000000E+00  0.11815758494E+03  0.11815758494E+03  0.00000000000E+00 0. -1.
          2   -1    0    0  501    0  0.00000000000E+00 -0.00000000000E+00 -0.21100745604E+04  0.21100745604E+04  0.00000000000E+00 0. -1.
         36    2    1    2    0    0  0.00000000000E+00 -0.14210854715E-13 -0.19919169754E+04  0.22282321453E+04  0.99864170571E+03 0.  0.
         25    2    3    3    0    0  0.13251215888E+03  0.34191656004E+01 -0.46035784378E+03  0.49501949518E+03  0.12467475019E+03 0.  0.
         35    2    3    3    0    0 -0.13251215888E+03 -0.34191656004E+01 -0.15315591316E+04  0.17332126501E+04  0.80048832214E+03 0.  0.
         22    1    5    5    0    0  0.20446192422E+03  0.24140786474E+03 -0.10494337744E+04  0.10960810565E+04  0.00000000000E+00 0. -1.
         22    1    5    5    0    0 -0.33697408310E+03 -0.24482703034E+03 -0.48212535722E+03  0.63713159358E+03  0.00000000000E+00 0. -1.
          5    1    4    4  502    0  0.35957487765E+02 -0.41152182712E+02 -0.28220930128E+03  0.28749021339E+03  0.47000000000E+01 0.  1.
         -5    1    4    4    0  502  0.96554671112E+02  0.44571348313E+02 -0.17814854251E+03  0.20752928179E+03  0.47000000000E+01 0.  1.
<mgrwt>
<rscale>  0 0.99864171E+03</rscale>
<asrwt>0</asrwt>
<pdfrwt beam="1">  1        2 0.32462681E+00 0.99864171E+03</pdfrwt>
<pdfrwt beam="2">  1       -2 0.18178093E-01 0.99864171E+03</pdfrwt>
<totfact> 0.17090499E+02</totfact>
</mgrwt>
</event>
<event>
 9    1  0.4321150E-036  0.9975916E+03  0.7818608E-02  0.8683335E-01
          2   -1    0    0  501    0  0.00000000000E+00  0.00000000000E+00  0.33349368291E+04  0.33349368291E+04  0.00000000000E+00 0.  1.
         -2   -1    0    0    0  501 -0.00000000000E+00 -0.00000000000E+00 -0.74603285016E+02  0.74603285016E+02  0.00000000000E+00 0.  1.
         36    2    1    2    0    0  0.00000000000E+00  0.00000000000E+00  0.32603335441E+04  0.34095401141E+04  0.99759158531E+03 0.  0.
         25    2    3    3    0    0  0.85245633438E+02  0.61676503607E+02  0.29721898157E+03  0.33861955471E+03  0.12350413235E+03 0.  0.
         35    2    3    3    0    0 -0.85245633438E+02 -0.61676503607E+02  0.29631145625E+04  0.30709205594E+04  0.79964639842E+03 0.  0.
         22    1    5    5    0    0 -0.35296803955E+03 -0.28696522120E+03  0.17738825411E+04  0.18312822679E+04  0.00000000000E+00 0. -1.
         22    1    5    5    0    0  0.26772240611E+03  0.22528871760E+03  0.11892320214E+04  0.12396382915E+04  0.00000000000E+00 0. -1.
          5    1    4    4  502    0 -0.52320427990E+01  0.30057322552E+02  0.19872792952E+03  0.20111115554E+03  0.47000000000E+01 0.  1.
         -5    1    4    4    0  502  0.90477676237E+02  0.31619181055E+02  0.98491052053E+02  0.13750839917E+03  0.47000000000E+01 0.  1.
<mgrwt>
<rscale>  0 0.99759159E+03</rscale>
<asrwt>0</asrwt>
<pdfrwt beam="1">  1        2 0.51306709E+00 0.99759159E+03</pdfrwt>
<pdfrwt beam="2">  1       -2 0.11477431E-01 0.99759159E+03</pdfrwt>
<totfact> 0.61056658E+01</totfact>
</mgrwt>
</event>
<event>
 9    1  0.4321150E-036  0.1002509E+04  0.7818608E-02  0.8678652E-01
          2   -1    0    0  501    0  0.00000000000E+00  0.00000000000E+00  0.28647320670E+04  0.28647320670E+04  0.00000000000E+00 0.  1.
         -2   -1    0    0    0  501 -0.00000000000E+00 -0.00000000000E+00 -0.87706636566E+02  0.87706636566E+02  0.00000000000E+00 0.  1.
         36    2    1    2    0    0  0.00000000000E+00  0.00000000000E+00  0.27770254304E+04  0.29524387036E+04  0.10025088813E+04 0.  0.
         25    2    3    3    0    0  0.40421165107E+02 -0.67790490388E+02  0.88322600624E+03  0.89554459101E+03  0.12522984954E+03 0.  0.
         35    2    3    3    0    0 -0.40421165107E+02  0.67790490388E+02  0.18937994242E+04  0.20568941125E+04  0.79881644325E+03 0.  0.
         22    1    5    5    0    0 -0.14456438892E+03  0.85932945890E+02  0.19358386265E+04  0.19431300836E+04  0.00000000000E+00 0.  1.
         22    1    5    5    0    0  0.10414322381E+03 -0.18142455502E+02 -0.42039202332E+02  0.11376402898E+03  0.00000000000E+00 0.  1.
          5    1    4    4  502    0  0.10017808286E+02  0.19697134486E+02  0.31388802796E+02  0.38674029151E+02  0.47000000000E+01 0. -1.
         -5    1    4    4    0  502  0.30403356821E+02 -0.87487624874E+02  0.85183720344E+03  0.85687056186E+03  0.47000000000E+01 0. -1.
<mgrwt>
<rscale>  0 0.10025089E+04</rscale>
<asrwt>0</asrwt>
<pdfrwt beam="1">  1        2 0.44072794E+00 0.10025089E+04</pdfrwt>
<pdfrwt beam="2">  1       -2 0.13493331E-01 0.10025089E+04</pdfrwt>
<totfact> 0.98016440E+01</totfact>
</mgrwt>
</event>
<event>
 9    1  0.4321150E-036  0.9996010E+03  0.7818608E-02  0.8681418E-01
         -2   -1    0    0    0  501 -0.00000000000E+00  0.00000000000E+00  0.13215372530E+03  0.13215372530E+03  0.00000000000E+00 0. -1.
          2   -1    0    0  501    0  0.00000000000E+00 -0.00000000000E+00 -0.18902270676E+04  0.18902270676E+04  0.00000000000E+00 0. -1.
         36    2    1    2    0    0  0.00000000000E+00  0.14210854715E-13 -0.17580733423E+04  0.20223807929E+04  0.99960101768E+03 0.  0.
         25    2    3    3    0    0 -0.62974839629E+02  0.11618148556E+03 -0.33518457275E+03  0.38143604701E+03  0.12522296970E+03 0.  0.
         35    2    3    3    0    0  0.62974839629E+02 -0.11618148556E+03 -0.14228887696E+04  0.16409447459E+04  0.80661219956E+03 0.  0.
         22    1    5    5    0    0  0.57868147774E+02 -0.37002694180E+03 -0.13110707183E+04  0.13635157089E+04  0.00000000000E+00 0. -1.
         22    1    5    5    0    0  0.51066918553E+01  0.25384545624E+03 -0.11181805130E+03  0.27742903696E+03  0.00000000000E+00 0. -1.
          5    1    4    4  502    0 -0.64493440698E+02  0.78434021925E-01 -0.14128359908E+03  0.15537874827E+03  0.47000000000E+01 0.  1.
         -5    1    4    4    0  502  0.15186010693E+01  0.11610305154E+03 -0.19390097366E+03  0.22605729874E+03  0.47000000000E+01 0.  1.
<mgrwt>
<rscale>  0 0.99960102E+03</rscale>
<asrwt>0</asrwt>
<pdfrwt beam="1">  1        2 0.29080416E+00 0.99960102E+03</pdfrwt>
<pdfrwt beam="2">  1       -2 0.20331342E-01 0.99960102E+03</pdfrwt>
<totfact> 0.18807589E+02</totfact>
</mgrwt>
</event>
<event>
 9    1  0.4321150E-036  0.1000121E+04  0.7818608E-02  0.8680922E-01
         -2   -1    0    0    0  501 -0.00000000000E+00  0.00000000000E+00  0.20011018487E+03  0.20011018487E+03  0.00000000000E+00 0. -1.
          2   -1    0    0  501    0  0.00000000000E+00 -0.00000000000E+00 -0.12496151211E+04  0.12496151211E+04  0.00000000000E+00 0. -1.
         36    2    1    2    0    0 -0.28421709430E-13 -0.71054273576E-14 -0.10495049362E+04  0.14497253059E+04  0.10001214184E+04 0.  0.
         25    2    3    3    0    0 -0.74921595540E+02 -0.60843999241E+02 -0.34609473730E+03  0.38047898203E+03  0.12516968825E+03 0.  0.
         35    2    3    3    0    0  0.74921595540E+02  0.60843999241E+02 -0.70341019889E+03  0.10692463239E+04  0.79949143558E+03 0.  0.
         22    1    5    5    0    0 -0.33049743908E+03  0.12939032437E+03 -0.16396700329E+03  0.39096750690E+03  0.00000000000E+00 0. -1.
         22    1    5    5    0    0  0.40541903462E+03 -0.68546325133E+02 -0.53944319561E+03  0.67827881702E+03  0.00000000000E+00 0. -1.
          5    1    4    4  502    0 -0.10560960731E+02 -0.55432803736E+02 -0.44523438910E+02  0.72033021830E+02  0.47000000000E+01 0. -1.
         -5    1    4    4    0  502 -0.64360634809E+02 -0.54111955055E+01 -0.30157129839E+03  0.30844596020E+03  0.47000000000E+01 0. -1.
<mgrwt>
<rscale>  0 0.10001214E+04</rscale>
<asrwt>0</asrwt>
<pdfrwt beam="1">  1        2 0.19224848E+00 0.10001214E+04</pdfrwt>
<pdfrwt beam="2">  1       -2 0.30786182E-01 0.10001214E+04</pdfrwt>
<totfact> 0.20797389E+02</totfact>
</mgrwt>
</event>
<event>
 9    1  0.4321150E-036  0.1000569E+04  0.7818608E-02  0.8680496E-01
         -1   -1    0    0    0  501 -0.00000000000E+00  0.00000000000E+00  0.44347761820E+03  0.44347761820E+03  0.00000000000E+00 0. -1.
          1   -1    0    0  501    0  0.00000000000E+00 -0.00000000000E+00 -0.56436803719E+03  0.56436803719E+03  0.00000000000E+00 0. -1.
         36    2    1    2    0    0  0.28421709430E-13  0.14210854715E-13 -0.12089041899E+03  0.10078456554E+04  0.10005690239E+04 0.  0.
         25    2    3    3    0    0 -0.97180107509E+02 -0.92512856023E+02 -0.61937199935E+02  0.19349747807E+03  0.12490978928E+03 0.  0.
         35    2    3    3    0    0  0.97180107509E+02  0.92512856023E+02 -0.58953219052E+02  0.81434817732E+03  0.80105235162E+03 0.  0.
         22    1    5    5    0    0  0.85412219056E+01 -0.34973784264E+03 -0.93079871531E+02  0.36201294663E+03  0.00000000000E+00 0.  1.
         22    1    5    5    0    0  0.88638885603E+02  0.44225069866E+03  0.34126652479E+02  0.45233523068E+03  0.00000000000E+00 0.  1.
          5    1    4    4  502    0 -0.22296946646E+02 -0.72113426470E+02 -0.83649266316E+02  0.11276874506E+03  0.47000000000E+01 0.  1.
         -5    1    4    4    0  502 -0.74883160862E+02 -0.20399429552E+02  0.21712066381E+02  0.80728733010E+02  0.47000000000E+01 0.  1.
<mgrwt>
<rscale>  0 0.10005690E+04</rscale>
<asrwt>0</asrwt>
<pdfrwt beam="1">  1        1 0.86825852E-01 0.10005690E+04</pdfrwt>
<pdfrwt beam="2">  1       -1 0.68227326E-01 0.10005690E+04</pdfrwt>
<totfact> 0.95126282E+01</totfact>
</mgrwt>
</event>
<event>
 9    1  0.4321150E-036  0.1002600E+04  0.7818608E-02  0.8678566E-01
         -2   -1    0    0    0  501 -0.00000000000E+00  0.00000000000E+00  0.11977641808E+03  0.11977641808E+03  0.00000000000E+00 0.  1.
          2   -1    0    0  501    0  0.00000000000E+00 -0.00000000000E+00 -0.20980905700E+04  0.20980905700E+04  0.00000000000E+00 0.  1.
         36    2    1    2    0    0 -0.28421709430E-13 -0.14210854715E-13 -0.19783141519E+04  0.22178669881E+04  0.10026001661E+04 0.  0.
         25    2    3    3    0    0 -0.90695097424E+02 -0.10240293445E+03 -0.47591511711E+03  0.51068479245E+03  0.12486711682E+03 0.  0.
         35    2    3    3    0    0  0.90695097424E+02  0.10240293445E+03 -0.15023990348E+04  0.17071821956E+04  0.79909713277E+03 0.  0.
         22    1    5    5    0    0 -0.30805653901E+03  0.21206363671E+03 -0.51320238013E+03  0.63501692908E+03  0.00000000000E+00 0.  1.
         22    1    5    5    0    0  0.39875163643E+03 -0.10966070226E+03 -0.98919665467E+03  0.10721652665E+04  0.00000000000E+00 0.  1.
          5    1    4    4  502    0 -0.18018014041E+02  0.52712760949E+01 -0.24445603438E+03  0.24522087580E+03  0.47000000000E+01 0. -1.
         -5    1    4    4    0  502 -0.72677083382E+02 -0.10767421055E+03 -0.23145908273E+03  0.26546391665E+03  0.47000000000E+01 0. -1.
<mgrwt>
<rscale>  0 0.10026002E+04</rscale>
<asrwt>0</asrwt>
<pdfrwt beam="1">  1        2 0.32278311E+00 0.10026002E+04</pdfrwt>
<pdfrwt beam="2">  1       -2 0.18427144E-01 0.10026002E+04</pdfrwt>
<totfact> 0.16963099E+02</totfact>
</mgrwt>
</event>
<event>
 9    1  0.4321150E-036  0.1001816E+04  0.7818608E-02  0.8679311E-01
         -2   -1    0    0    0  501 -0.00000000000E+00  0.00000000000E+00  0.12942552273E+03  0.12942552273E+03  0.00000000000E+00 0.  1.
          2   -1    0    0  501    0  0.00000000000E+00 -0.00000000000E+00 -0.19386334922E+04  0.19386334922E+04  0.00000000000E+00 0.  1.
         36    2    1    2    0    0 -0.28421709430E-13  0.00000000000E+00 -0.18092079694E+04  0.20680590149E+04  0.10018156579E+04 0.  0.
         25    2    3    3    0    0 -0.84800065156E+01 -0.52885777673E+02 -0.66612784823E+02  0.14980770151E+03  0.12302954255E+03 0.  0.
         35    2    3    3    0    0  0.84800065156E+01  0.52885777673E+02 -0.17425951846E+04  0.19182513134E+04  0.80011330940E+03 0.  0.
         22    1    5    5    0    0  0.31542590975E+03 -0.15744299350E+03 -0.44142481695E+03  0.56492271132E+03  0.00000000000E+00 0. -1.
         22    1    5    5    0    0 -0.30694590323E+03  0.21032877117E+03 -0.13011703677E+04  0.13533286021E+04  0.00000000000E+00 0. -1.
          5    1    4    4  502    0  0.26834114439E+02  0.81595896995E+01  0.22360869043E+02  0.36176609379E+02  0.47000000000E+01 0. -1.
         -5    1    4    4    0  502 -0.35314120955E+02 -0.61045367373E+02 -0.88973653866E+02  0.11363109213E+03  0.47000000000E+01 0. -1.
<mgrwt>
<rscale>  0 0.10018157E+04</rscale>
<asrwt>0</asrwt>
<pdfrwt beam="1">  1        2 0.29825131E+00 0.10018157E+04</pdfrwt>
<pdfrwt beam="2">  1       -2 0.19911619E-01 0.10018157E+04</pdfrwt>
<totfact> 0.18304712E+02</totfact>
</mgrwt>
</event>
<event>
 9    1  0.4321150E-036  0.1000034E+04  0.7818608E-02  0.8681005E-01
         -1   -1    0    0    0  501 -0.00000000000E+00  0.00000000000E+00  0.35683230217E+03  0.35683230217E+03  0.00000000000E+00 0. -1.
          1   -1    0    0  501    0  0.00000000000E+00 -0.00000000000E+00 -0.70065731659E+03  0.70065731659E+03  0.00000000000E+00 0. -1.
         36    2    1    2    0    0  0.28421709430E-13  0.14210854715E-13 -0.34382501443E+03  0.10574896188E+04  0.10000343260E+04 0.  0.
         25    2    3    3    0    0 -0.81897888042E+02  0.10562474914E+03 -0.64318839123E+02  0.19397027040E+03  0.12499480403E+03 0.  0.
         35    2    3    3    0    0  0.81897888042E+02 -0.10562474914E+03 -0.27950617530E+03  0.86351934837E+03  0.80602612320E+03 0.  0.
         22    1    5    5    0    0 -0.28156014722E+03  0.17878068108E+03 -0.20157936218E+02  0.33413319323E+03  0.00000000000E+00 0.  1.
         22    1    5    5    0    0  0.36345803526E+03 -0.28440543022E+03 -0.25934823909E+03  0.52938615513E+03  0.00000000000E+00 0.  1.
          5    1    4    4  502    0 -0.57543193561E+02  0.12136811998E+03 -0.13247573348E+02  0.13505194509E+03  0.47000000000E+01 0. -1.
         -5    1    4    4    0  502 -0.24354694481E+02 -0.15743370844E+02 -0.51071265776E+02  0.58918325305E+02  0.47000000000E+01 0. -1.
<mgrwt>
<rscale>  0 0.10000343E+04</rscale>
<asrwt>0</asrwt>
<pdfrwt beam="1">  1        1 0.10779343E+00 0.10000343E+04</pdfrwt>
<pdfrwt beam="2">  1       -1 0.54897278E-01 0.10000343E+04</pdfrwt>
<totfact> 0.10492237E+02</totfact>
</mgrwt>
</event>
<event>
 9    1  0.4321150E-036  0.1000829E+04  0.7818608E-02  0.8680249E-01
          2   -1    0    0  501    0  0.00000000000E+00  0.00000000000E+00  0.71662555852E+03  0.71662555852E+03  0.00000000000E+00 0.  1.
         -2   -1    0    0    0  501 -0.00000000000E+00 -0.00000000000E+00 -0.34943554913E+03  0.34943554913E+03  0.00000000000E+00 0.  1.
         36    2    1    2    0    0 -0.71054273576E-14  0.00000000000E+00  0.36719000938E+03  0.10660611077E+04  0.10008285479E+04 0.  0.
         25    2    3    3    0    0 -0.48482242956E+02 -0.81211071717E+02 -0.40887128341E+02  0.16219170574E+03  0.12525424581E+03 0.  0.
         35    2    3    3    0    0  0.48482242956E+02  0.81211071717E+02  0.40807713772E+03  0.90386940191E+03  0.80094143315E+03 0.  0.
         22    1    5    5    0    0 -0.65050561296E+01  0.70637967842E+02  0.65085935470E+03  0.65471363042E+03  0.00000000000E+00 0. -1.
         22    1    5    5    0    0  0.54987299086E+02  0.10573103875E+02 -0.24278221698E+03  0.24915577149E+03  0.00000000000E+00 0. -1.
          5    1    4    4  502    0  0.39355779805E+02 -0.41721178148E+01 -0.71364232752E+01  0.40488300882E+02  0.47000000000E+01 0. -1.
         -5    1    4    4    0  502 -0.87838022762E+02 -0.77038953902E+02 -0.33750705066E+02  0.12170340486E+03  0.47000000000E+01 0. -1.
<mgrwt>
<rscale>  0 0.10008285E+04</rscale>
<asrwt>0</asrwt>
<pdfrwt beam="1">  1        2 0.11025009E+00 0.10008285E+04</pdfrwt>
<pdfrwt beam="2">  1       -2 0.53759315E-01 0.10008285E+04</pdfrwt>
<totfact> 0.15690280E+02</totfact>
</mgrwt>
</event>
<event>
 9    1  0.4321150E-036  0.9972469E+03  0.7818608E-02  0.8683664E-01
          1   -1    0    0  501    0  0.00000000000E+00  0.00000000000E+00  0.23799171737E+04  0.23799171737E+04  0.00000000000E+00 0. -1.
         -1   -1    0    0    0  501 -0.00000000000E+00 -0.00000000000E+00 -0.10446807485E+03  0.10446807485E+03  0.00000000000E+00 0. -1.
         36    2    1    2    0    0  0.71054273576E-14  0.00000000000E+00  0.22754490988E+04  0.24843852485E+04  0.99724694121E+03 0.  0.
         25    2    3    3    0    0  0.21329789030E+02  0.22385896747E+02  0.92636669228E+02  0.15990983365E+03  0.12662351337E+03 0.  0.
         35    2    3    3    0    0 -0.21329789030E+02 -0.22385896747E+02  0.21828124296E+04  0.23244754149E+04  0.79847339549E+03 0.  0.
         22    1    5    5    0    0 -0.10372154210E+03 -0.33708850376E+03  0.50839991937E+03  0.61875463285E+03  0.00000000000E+00 0.  1.
         22    1    5    5    0    0  0.82391753073E+02  0.31470260701E+03  0.16744125102E+04  0.17057207820E+04  0.00000000000E+00 0.  1.
          5    1    4    4  502    0  0.59321752488E+02  0.45242139978E+02  0.87415429761E+02  0.11501942840E+03  0.47000000000E+01 0.  1.
         -5    1    4    4    0  502 -0.37991963457E+02 -0.22856243231E+02  0.52212394666E+01  0.44890405251E+02  0.47000000000E+01 0.  1.
<mgrwt>
<rscale>  0 0.99724694E+03</rscale>
<asrwt>0</asrwt>
<pdfrwt beam="1">  1        1 0.36614107E+00 0.99724694E+03</pdfrwt>
<pdfrwt beam="2">  1       -1 0.16072013E-01 0.99724694E+03</pdfrwt>
<totfact> 0.49315538E+01</totfact>
</mgrwt>
</event>
<event>
 9    1  0.4321150E-036  0.9996250E+03  0.7818608E-02  0.8681395E-01
          2   -1    0    0  501    0  0.00000000000E+00  0.00000000000E+00  0.14312268046E+03  0.14312268046E+03  0.00000000000E+00 0.  1.
         -2   -1    0    0    0  501 -0.00000000000E+00 -0.00000000000E+00 -0.17454434961E+04  0.17454434961E+04  0.00000000000E+00 0.  1.
         36    2    1    2    0    0 -0.28421709430E-13  0.62172489379E-14 -0.16023208157E+04  0.18885661766E+04  0.99962503321E+03 0.  0.
         25    2    3    3    0    0  0.84327961070E+02 -0.59829714296E+01 -0.51554841282E+03  0.53629922432E+03  0.12115977501E+03 0.  0.
         35    2    3    3    0    0 -0.84327961070E+02  0.59829714296E+01 -0.10867724029E+04  0.13522669523E+04  0.80025286856E+03 0.  0.
         22    1    5    5    0    0  0.25486161588E+03 -0.20686075232E+03 -0.21352937204E+03  0.39158729145E+03  0.00000000000E+00 0.  1.
         22    1    5    5    0    0 -0.33918957695E+03  0.21284372375E+03 -0.87324303082E+03  0.96067966082E+03  0.00000000000E+00 0.  1.
          5    1    4    4  502    0 -0.27820676494E+02 -0.78423788373E+01 -0.55507029029E+02  0.62758371697E+02  0.47000000000E+01 0. -1.
         -5    1    4    4    0  502  0.11214863756E+03  0.18594074076E+01 -0.46004138379E+03  0.47354085262E+03  0.47000000000E+01 0. -1.
<mgrwt>
<rscale>  0 0.99962503E+03</rscale>
<asrwt>0</asrwt>
<pdfrwt beam="1">  1        2 0.22018874E-01 0.99962503E+03</pdfrwt>
<pdfrwt beam="2">  1       -2 0.26852976E+00 0.99962503E+03</pdfrwt>
<totfact> 0.13486127E+01</totfact>
</mgrwt>
</event>
<event>
 9    1  0.4321150E-036  0.9998095E+03  0.7818608E-02  0.8681219E-01
          1   -1    0    0  501    0  0.00000000000E+00  0.00000000000E+00  0.45682423689E+03  0.45682423689E+03  0.00000000000E+00 0. -1.
         -1   -1    0    0    0  501 -0.00000000000E+00 -0.00000000000E+00 -0.54704793966E+03  0.54704793966E+03  0.00000000000E+00 0. -1.
         36    2    1    2    0    0  0.00000000000E+00 -0.71054273576E-14 -0.90223702771E+02  0.10038721765E+04  0.99980949700E+03 0.  0.
         25    2    3    3    0    0  0.13057236710E+03 -0.42541270152E+02  0.13297873234E+02  0.18609328688E+03  0.12487984335E+03 0.  0.
         35    2    3    3    0    0 -0.13057236710E+03  0.42541270152E+02 -0.10352157600E+03  0.81777888966E+03  0.79949152151E+03 0.  0.
         22    1    5    5    0    0  0.21764277999E+03 -0.11600392188E+03 -0.29943598557E+03  0.38792679597E+03  0.00000000000E+00 0. -1.
         22    1    5    5    0    0 -0.34821514709E+03  0.15854519203E+03  0.19591440957E+03  0.42985209370E+03  0.00000000000E+00 0. -1.
          5    1    4    4  502    0  0.46525084887E+02 -0.17989981521E+02  0.66703092269E+02  0.83424309869E+02  0.47000000000E+01 0. -1.
         -5    1    4    4    0  502  0.84047282213E+02 -0.24551288631E+02 -0.53405219035E+02  0.10266897701E+03  0.47000000000E+01 0. -1.
<mgrwt>
<rscale>  0 0.99980950E+03</rscale>
<asrwt>0</asrwt>
<pdfrwt beam="1">  1        1 0.70280652E-01 0.99980950E+03</pdfrwt>
<pdfrwt beam="2">  1       -1 0.84161222E-01 0.99980950E+03</pdfrwt>
<totfact> 0.83204146E+01</totfact>
</mgrwt>
</event>
<event>
 9    1  0.4321150E-036  0.1003203E+04  0.7818608E-02  0.8677994E-01
          2   -1    0    0  501    0  0.00000000000E+00  0.00000000000E+00  0.38719435480E+03  0.38719435480E+03  0.00000000000E+00 0.  1.
         -2   -1    0    0    0  501 -0.00000000000E+00 -0.00000000000E+00 -0.64981292204E+03  0.64981292204E+03  0.00000000000E+00 0.  1.
         36    2    1    2    0    0  0.71054273576E-14  0.56843418861E-13 -0.26261856725E+03  0.10370072768E+04  0.10032026617E+04 0.  0.
         25    2    3    3    0    0  0.55467244482E+02  0.12839082329E+03 -0.92444999179E+02  0.20929127887E+03  0.12528344991E+03 0.  0.
         35    2    3    3    0    0 -0.55467244482E+02 -0.12839082329E+03 -0.17017356807E+03  0.82771599797E+03  0.79786835463E+03 0.  0.
         22    1    5    5    0    0  0.39532860400E+02  0.30320490242E+03 -0.22882673657E+03  0.38191325622E+03  0.00000000000E+00 0.  1.
         22    1    5    5    0    0 -0.95000104882E+02 -0.43159572571E+03  0.58653168500E+02  0.44580274175E+03  0.00000000000E+00 0.  1.
          5    1    4    4  502    0  0.41898178989E+02  0.11666846664E+03 -0.96288335508E+01  0.12442585320E+03  0.47000000000E+01 0. -1.
         -5    1    4    4    0  502  0.13569065493E+02  0.11722356649E+02 -0.82816165628E+02  0.84865425664E+02  0.47000000000E+01 0. -1.
<mgrwt>
<rscale>  0 0.10032027E+04</rscale>
<asrwt>0</asrwt>
<pdfrwt beam="1">  1        2 0.59568363E-01 0.10032027E+04</pdfrwt>
<pdfrwt beam="2">  1       -2 0.99971218E-01 0.10032027E+04</pdfrwt>
<totfact> 0.80986906E+01</totfact>
</mgrwt>
</event>
<event>
 9    1  0.4321150E-036  0.9997773E+03  0.7818608E-02  0.8681250E-01
          1   -1    0    0  501    0  0.00000000000E+00  0.00000000000E+00  0.11644076701E+04  0.11644076701E+04  0.00000000000E+00 0.  1.
         -1   -1    0    0    0  501 -0.00000000000E+00 -0.00000000000E+00 -0.21460580956E+03  0.21460580956E+03  0.00000000000E+00 0.  1.
         36    2    1    2    0    0  0.00000000000E+00 -0.14210854715E-13  0.94980186055E+03  0.13790134797E+04  0.99977727661E+03 0.  0.
         25    2    3    3    0    0  0.68572912072E+02 -0.10795877105E+03  0.24899091028E+03  0.30619114795E+03  0.12409353394E+03 0.  0.
         35    2    3    3    0    0 -0.68572912072E+02  0.10795877105E+03  0.70081095027E+03  0.10728223317E+04  0.80215611131E+03 0.  0.
         22    1    5    5    0    0  0.27235213702E+03  0.31263863241E+03  0.36033213418E+03  0.54932490198E+03  0.00000000000E+00 0. -1.
         22    1    5    5    0    0 -0.34092504909E+03 -0.20467986136E+03  0.34047881608E+03  0.52349742974E+03  0.00000000000E+00 0. -1.
          5    1    4    4  502    0  0.28619644294E+02  0.58249547548E+01  0.98660847007E-01  0.29582323630E+02  0.47000000000E+01 0. -1.
         -5    1    4    4    0  502  0.39953267779E+02 -0.11378372580E+03  0.24889224943E+03  0.27660882432E+03  0.47000000000E+01 0. -1.
<mgrwt>
<rscale>  0 0.99977728E+03</rscale>
<asrwt>0</asrwt>
<pdfrwt beam="1">  1        1 0.17913964E+00 0.99977728E+03</pdfrwt>
<pdfrwt beam="2">  1       -1 0.33016279E-01 0.99977728E+03</pdfrwt>
<totfact> 0.10805384E+02</totfact>
</mgrwt>
</event>
<event>
 9    1  0.4321150E-036  0.1000200E+04  0.7818608E-02  0.8680847E-01
          2   -1    0    0  501    0  0.00000000000E+00  0.00000000000E+00  0.20508275717E+04  0.20508275717E+04  0.00000000000E+00 0.  1.
         -2   -1    0    0    0  501 -0.00000000000E+00 -0.00000000000E+00 -0.12195085852E+03  0.12195085852E+03  0.00000000000E+00 0.  1.
         36    2    1    2    0    0 -0.10658141036E-13  0.53290705182E-13  0.19288767132E+04  0.21727784302E+04  0.10002003460E+04 0.  0.
         25    2    3    3    0    0  0.30684964711E+02  0.62459942144E+01  0.65168141531E+02  0.14428618726E+03  0.12486407675E+03 0.  0.
         35    2    3    3    0    0 -0.30684964711E+02 -0.62459942144E+01  0.18637085716E+04  0.20284922429E+04  0.80024406290E+03 0.  0.
         22    1    5    5    0    0  0.13915895411E+03 -0.36882084434E+03  0.79803381940E+03  0.89008539289E+03  0.00000000000E+00 0. -1.
         22    1    5    5    0    0 -0.16984391882E+03  0.36257485013E+03  0.10656747522E+04  0.11384068500E+04  0.00000000000E+00 0. -1.
          5    1    4    4  502    0  0.23883768658E+02  0.31397741498E+02  0.95851925804E+02  0.10375902012E+03  0.47000000000E+01 0.  1.
         -5    1    4    4    0  502  0.68011960527E+01 -0.25151747284E+02 -0.30683784273E+02  0.40527167141E+02  0.47000000000E+01 0.  1.
<mgrwt>
<rscale>  0 0.10002003E+04</rscale>
<asrwt>0</asrwt>
<pdfrwt beam="1">  1        2 0.31551191E+00 0.10002003E+04</pdfrwt>
<pdfrwt beam="2">  1       -2 0.18761672E-01 0.10002003E+04</pdfrwt>
<totfact> 0.17506115E+02</totfact>
</mgrwt>
</event>
<event>
 9    1  0.4321150E-036  0.9983002E+03  0.7818608E-02  0.8682658E-01
          3   -1    0    0  501    0  0.00000000000E+00  0.00000000000E+00  0.43887958816E+03  0.43887958816E+03  0.00000000000E+00 0.  1.
         -3   -1    0    0    0  501 -0.00000000000E+00 -0.00000000000E+00 -0.56769749391E+03  0.56769749391E+03  0.00000000000E+00 0.  1.
         36    2    1    2    0    0  0.00000000000E+00  0.00000000000E+00 -0.12881790574E+03  0.10065770821E+04  0.99830024006E+03 0.  0.
         25    2    3    3    0    0  0.75357802421E+02  0.91781881808E+02  0.48093526748E+02  0.17921085288E+03  0.12530295392E+03 0.  0.
         35    2    3    3    0    0 -0.75357802421E+02 -0.91781881808E+02 -0.17691143249E+03  0.82736622919E+03  0.79945888577E+03 0.  0.
         22    1    5    5    0    0 -0.31849153798E+03 -0.17649735941E+03  0.16465977840E+03  0.39962610058E+03  0.00000000000E+00 0. -1.
         22    1    5    5    0    0  0.24313373556E+03  0.84715477606E+02 -0.34157121089E+03  0.42774012861E+03  0.00000000000E+00 0. -1.
          5    1    4    4  502    0  0.82516604514E+02  0.61265394980E+02  0.82907924842E+02  0.13212968116E+03  0.47000000000E+01 0. -1.
         -5    1    4    4    0  502 -0.71588020934E+01  0.30516486828E+02 -0.34814398094E+02  0.47081171718E+02  0.47000000000E+01 0. -1.
<mgrwt>
<rscale>  0 0.99830024E+03</rscale>
<asrwt>0</asrwt>
<pdfrwt beam="1">  1        3 0.67519937E-01 0.99830024E+03</pdfrwt>
<pdfrwt beam="2">  1       -3 0.87338075E-01 0.99830024E+03</pdfrwt>
<totfact> 0.96656395E+00</totfact>
</mgrwt>
</event>
<event>
 9    1  0.4321150E-036  0.9990662E+03  0.7818608E-02  0.8681928E-01
         -2   -1    0    0    0  501 -0.00000000000E+00  0.00000000000E+00  0.89040792507E+02  0.89040792507E+02  0.00000000000E+00 0.  1.
          2   -1    0    0  501    0  0.00000000000E+00 -0.00000000000E+00 -0.28024607200E+04  0.28024607200E+04  0.00000000000E+00 0.  1.
         36    2    1    2    0    0  0.21316282073E-13  0.00000000000E+00 -0.27134199275E+04  0.28915015125E+04  0.99906621097E+03 0.  0.
         25    2    3    3    0    0  0.22173792479E+02  0.91543413871E+02 -0.80455652393E+03  0.81969670703E+03  0.12537789921E+03 0.  0.
         35    2    3    3    0    0 -0.22173792479E+02 -0.91543413871E+02 -0.19088634035E+04  0.20718048054E+04  0.79983984951E+03 0.  0.
         22    1    5    5    0    0  0.25941916560E+03 -0.29871259967E+03 -0.61277932787E+03  0.72940114158E+03  0.00000000000E+00 0. -1.
         22    1    5    5    0    0 -0.28159295808E+03  0.20716918580E+03 -0.12960840757E+04  0.13424036639E+04  0.00000000000E+00 0. -1.
          5    1    4    4  502    0  0.66428796969E+02  0.89966452215E+02 -0.54998665281E+03  0.56126121892E+03  0.47000000000E+01 0. -1.
         -5    1    4    4    0  502 -0.44255004490E+02  0.15769616564E+01 -0.25456987112E+03  0.25843548811E+03  0.47000000000E+01 0. -1.
<mgrwt>
<rscale>  0 0.99906621E+03</rscale>
<asrwt>0</asrwt>
<pdfrwt beam="1">  1        2 0.43114771E+00 0.99906621E+03</pdfrwt>
<pdfrwt beam="2">  1       -2 0.13698586E-01 0.99906621E+03</pdfrwt>
<totfact> 0.10487300E+02</totfact>
</mgrwt>
</event>
<event>
 9    1  0.4321150E-036  0.1001007E+04  0.7818608E-02  0.8680079E-01
         -2   -1    0    0    0  501 -0.00000000000E+00  0.00000000000E+00  0.12341351583E+03  0.12341351583E+03  0.00000000000E+00 0. -1.
          2   -1    0    0  501    0  0.00000000000E+00 -0.00000000000E+00 -0.20297933666E+04  0.20297933666E+04  0.00000000000E+00 0. -1.
         36    2    1    2    0    0 -0.14210854715E-13  0.00000000000E+00 -0.19063798507E+04  0.21532068824E+04  0.10010073642E+04 0.  0.
         25    2    3    3    0    0  0.41614602056E+02  0.71764283011E+02 -0.11687155275E+03  0.19014206522E+03  0.12495262185E+03 0.  0.
         35    2    3    3    0    0 -0.41614602056E+02 -0.71764283011E+02 -0.17895082980E+04  0.19630648172E+04  0.80274631136E+03 0.  0.
         22    1    5    5    0    0  0.20402479754E+03 -0.28487194211E+03 -0.38152700498E+03  0.51801640606E+03  0.00000000000E+00 0.  1.
         22    1    5    5    0    0 -0.24563939959E+03  0.21310765910E+03 -0.14079812930E+04  0.14450484111E+04  0.00000000000E+00 0.  1.
          5    1    4    4  502    0  0.65366884021E+02  0.70426219815E+02 -0.31245909765E+02  0.10114879555E+03  0.47000000000E+01 0. -1.
         -5    1    4    4    0  502 -0.23752281965E+02  0.13380631958E+01 -0.85625642981E+02  0.88993269675E+02  0.47000000000E+01 0. -1.
<mgrwt>
<rscale>  0 0.10010074E+04</rscale>
<asrwt>0</asrwt>
<pdfrwt beam="1">  1        2 0.31227587E+00 0.10010074E+04</pdfrwt>
<pdfrwt beam="2">  1       -2 0.18986697E-01 0.10010074E+04</pdfrwt>
<totfact> 0.17632354E+02</totfact>
</mgrwt>
</event>
<event>
 9    1  0.4321150E-036  0.9999894E+03  0.7818608E-02  0.8681048E-01
         -1   -1    0    0    0  501 -0.00000000000E+00  0.00000000000E+00  0.11278474625E+04  0.11278474625E+04  0.00000000000E+00 0.  1.
          1   -1    0    0  501    0  0.00000000000E+00 -0.00000000000E+00 -0.22165648117E+03  0.22165648117E+03  0.00000000000E+00 0.  1.
         36    2    1    2    0    0 -0.71054273576E-14 -0.28421709430E-13  0.90619098135E+03  0.13495039437E+04  0.99998939963E+03 0.  0.
         25    2    3    3    0    0 -0.51062454558E+02  0.10840382242E+03  0.26560340585E+03  0.31722705217E+03  0.12541559094E+03 0.  0.
         35    2    3    3    0    0  0.51062454558E+02 -0.10840382242E+03  0.64058757550E+03  0.10322768915E+04  0.80055254413E+03 0.  0.
         22    1    5    5    0    0 -0.24708915341E+03 -0.93775269920E+02  0.68152361176E+03  0.73097283422E+03  0.00000000000E+00 0.  1.
         22    1    5    5    0    0  0.29815160797E+03 -0.14628552499E+02 -0.40936036261E+02  0.30130405730E+03  0.00000000000E+00 0.  1.
          5    1    4    4  502    0  0.39440473895E+01 -0.12374014797E+02  0.11748680025E+03  0.11829585785E+03  0.47000000000E+01 0. -1.
         -5    1    4    4    0  502 -0.55006501947E+02  0.12077783722E+03  0.14811660560E+03  0.19893119432E+03  0.47000000000E+01 0. -1.
<mgrwt>
<rscale>  0 0.99998940E+03</rscale>
<asrwt>0</asrwt>
<pdfrwt beam="1">  1        1 0.34100998E-01 0.99998940E+03</pdfrwt>
<pdfrwt beam="2">  1       -1 0.17351499E+00 0.99998940E+03</pdfrwt>
<totfact> 0.33868686E+01</totfact>
</mgrwt>
</event>
<event>
 9    1  0.4321150E-036  0.1000273E+04  0.7818608E-02  0.8680778E-01
         -2   -1    0    0    0  501 -0.00000000000E+00  0.00000000000E+00  0.32618848504E+03  0.32618848504E+03  0.00000000000E+00 0. -1.
          2   -1    0    0  501    0  0.00000000000E+00 -0.00000000000E+00 -0.76684708765E+03  0.76684708765E+03  0.00000000000E+00 0. -1.
         36    2    1    2    0    0  0.21316282073E-13  0.00000000000E+00 -0.44065860261E+03  0.10930355727E+04  0.10002733422E+04 0.  0.
         25    2    3    3    0    0 -0.45755669734E+02  0.20732208718E+01 -0.22671545701E+03  0.26357232123E+03  0.12638271447E+03 0.  0.
         35    2    3    3    0    0  0.45755669734E+02 -0.20732208718E+01 -0.21394314560E+03  0.82946325146E+03  0.80008733049E+03 0.  0.
         22    1    5    5    0    0  0.38800451925E+03 -0.50839996195E+02  0.50019444655E+02  0.39450495182E+03  0.00000000000E+00 0.  1.
         22    1    5    5    0    0 -0.34224884951E+03  0.48766775323E+02 -0.26396259025E+03  0.43495829964E+03  0.00000000000E+00 0.  1.
          5    1    4    4  502    0 -0.17128415678E+02 -0.61716023371E+02 -0.11419598207E+03  0.13101550475E+03  0.47000000000E+01 0. -1.
         -5    1    4    4    0  502 -0.28627254055E+02  0.63789244242E+02 -0.11251947493E+03  0.13255681648E+03  0.47000000000E+01 0. -1.
<mgrwt>
<rscale>  0 0.10002733E+04</rscale>
<asrwt>0</asrwt>
<pdfrwt beam="1">  1        2 0.11797647E+00 0.10002733E+04</pdfrwt>
<pdfrwt beam="2">  1       -2 0.50182844E-01 0.10002733E+04</pdfrwt>
<totfact> 0.16562015E+02</totfact>
</mgrwt>
</event>
<event>
 9    1  0.4321150E-036  0.1001941E+04  0.7818608E-02  0.8679192E-01
          2   -1    0    0  501    0  0.00000000000E+00  0.00000000000E+00  0.44551540283E+03  0.44551540283E+03  0.00000000000E+00 0.  1.
         -2   -1    0    0    0  501 -0.00000000000E+00 -0.00000000000E+00 -0.56332788054E+03  0.56332788054E+03  0.00000000000E+00 0.  1.
         36    2    1    2    0    0  0.00000000000E+00  0.00000000000E+00 -0.11781247771E+03  0.10088432834E+04  0.10019406123E+04 0.  0.
         25    2    3    3    0    0  0.13306599365E+03 -0.58814380101E+02 -0.12611058933E+02  0.19225702017E+03  0.12505212123E+03 0.  0.
         35    2    3    3    0    0 -0.13306599365E+03  0.58814380101E+02 -0.10520141878E+03  0.81658626320E+03  0.79660535823E+03 0.  0.
         22    1    5    5    0    0  0.32801116829E+03  0.10075574082E+03 -0.83217365466E+02  0.35308380839E+03  0.00000000000E+00 0.  1.
         22    1    5    5    0    0 -0.46107716195E+03 -0.41941360718E+02 -0.21984053311E+02  0.46350245480E+03  0.00000000000E+00 0.  1.
          5    1    4    4  502    0  0.11062716678E+01 -0.46189653490E+01 -0.45332021319E+02  0.45821837968E+02  0.47000000000E+01 0.  1.
         -5    1    4    4    0  502  0.13195972199E+03 -0.54195414752E+02  0.32720962386E+02  0.14643518220E+03  0.47000000000E+01 0.  1.
<mgrwt>
<rscale>  0 0.10019406E+04</rscale>
<asrwt>0</asrwt>
<pdfrwt beam="1">  1        2 0.68540831E-01 0.10019406E+04</pdfrwt>
<pdfrwt beam="2">  1       -2 0.86665828E-01 0.10019406E+04</pdfrwt>
<totfact> 0.97120563E+01</totfact>
</mgrwt>
</event>
<event>
 9    1  0.4321150E-036  0.9985089E+03  0.7818608E-02  0.8682459E-01
         -1   -1    0    0    0  501 -0.00000000000E+00  0.00000000000E+00  0.28568495053E+03  0.28568495053E+03  0.00000000000E+00 0. -1.
          1   -1    0    0  501    0  0.00000000000E+00 -0.00000000000E+00 -0.87248211227E+03  0.87248211227E+03  0.00000000000E+00 0. -1.
         36    2    1    2    0    0 -0.10658141036E-13 -0.28421709430E-13 -0.58679716175E+03  0.11581670628E+04  0.99850890648E+03 0.  0.
         25    2    3    3    0    0 -0.11306990234E+02  0.14045831455E+03 -0.97185381959E+02  0.21208295230E+03  0.12521099806E+03 0.  0.
         35    2    3    3    0    0  0.11306990234E+02 -0.14045831455E+03 -0.48961177979E+03  0.94608411050E+03  0.79718195105E+03 0.  0.
         22    1    5    5    0    0 -0.29253789969E+03  0.19908657336E+03 -0.21865836726E+03  0.41596318108E+03  0.00000000000E+00 0. -1.
         22    1    5    5    0    0  0.30384488992E+03 -0.33954488791E+03 -0.27095341253E+03  0.53012092942E+03  0.00000000000E+00 0. -1.
          5    1    4    4  502    0 -0.12282108319E+02  0.54297586441E+00  0.23704528515E+02  0.27113459383E+02  0.47000000000E+01 0. -1.
         -5    1    4    4    0  502  0.97511808519E+00  0.13991533869E+03 -0.12088991047E+03  0.18496949292E+03  0.47000000000E+01 0. -1.
<mgrwt>
<rscale>  0 0.99850891E+03</rscale>
<asrwt>0</asrwt>
<pdfrwt beam="1">  1        1 0.13422802E+00 0.99850891E+03</pdfrwt>
<pdfrwt beam="2">  1       -1 0.43951531E-01 0.99850891E+03</pdfrwt>
<totfact> 0.11101566E+02</totfact>
</mgrwt>
</event>
<event>
 9    1  0.4321150E-036  0.9992533E+03  0.7818608E-02  0.8681749E-01
          2   -1    0    0  501    0  0.00000000000E+00  0.00000000000E+00  0.57498817517E+03  0.57498817517E+03  0.00000000000E+00 0.  1.
         -2   -1    0    0    0  501 -0.00000000000E+00 -0.00000000000E+00 -0.43414244534E+03  0.43414244534E+03  0.00000000000E+00 0.  1.
         36    2    1    2    0    0  0.00000000000E+00 -0.17763568394E-14  0.14084572983E+03  0.10091306205E+04  0.99925326602E+03 0.  0.
         25    2    3    3    0    0 -0.13471606884E+03  0.13649317853E+02  0.60286865327E+02  0.19413815775E+03  0.12538099969E+03 0.  0.
         35    2    3    3    0    0  0.13471606884E+03 -0.13649317853E+02  0.80558864506E+02  0.81499246276E+03  0.79961757148E+03 0.  0.
         22    1    5    5    0    0 -0.31911909895E+03 -0.84488382896E+02  0.12616834563E+03  0.35340308092E+03  0.00000000000E+00 0.  1.
         22    1    5    5    0    0  0.45383516780E+03  0.70839065043E+02 -0.45609481123E+02  0.46158938185E+03  0.00000000000E+00 0.  1.
          5    1    4    4  502    0 -0.13181710065E+03 -0.15057230077E+02  0.64950887075E+01  0.13291630592E+03  0.47000000000E+01 0. -1.
         -5    1    4    4    0  502 -0.28989681921E+01  0.28706547930E+02  0.53791776619E+02  0.61221851838E+02  0.47000000000E+01 0. -1.
<mgrwt>
<rscale>  0 0.99925327E+03</rscale>
<asrwt>0</asrwt>
<pdfrwt beam="1">  1        2 0.88459719E-01 0.99925327E+03</pdfrwt>
<pdfrwt beam="2">  1       -2 0.66791145E-01 0.99925327E+03</pdfrwt>
<totfact> 0.13003608E+02</totfact>
</mgrwt>
</event>
<event>
 9    1  0.4321150E-036  0.9996538E+03  0.7818608E-02  0.8681368E-01
          2   -1    0    0  501    0  0.00000000000E+00  0.00000000000E+00  0.30643384246E+03  0.30643384246E+03  0.00000000000E+00 0. -1.
         -2   -1    0    0    0  501 -0.00000000000E+00 -0.00000000000E+00 -0.81527195554E+03  0.81527195554E+03  0.00000000000E+00 0. -1.
         36    2    1    2    0    0  0.00000000000E+00 -0.28421709430E-13 -0.50883811308E+03  0.11217057980E+04  0.99965377604E+03 0.  0.
         25    2    3    3    0    0 -0.11286416759E+03  0.84751901002E+02 -0.10058902251E+03  0.21400627453E+03  0.12553616625E+03 0.  0.
         35    2    3    3    0    0  0.11286416759E+03 -0.84751901002E+02 -0.40824909056E+03  0.90769952347E+03  0.79832944322E+03 0.  0.
         22    1    5    5    0    0 -0.25903835022E+03 -0.28501744385E+03 -0.15472158412E+03  0.41505972917E+03  0.00000000000E+00 0. -1.
         22    1    5    5    0    0  0.37190251781E+03  0.20026554285E+03 -0.25352750644E+03  0.49263979430E+03  0.00000000000E+00 0. -1.
          5    1    4    4  502    0 -0.13395544376E+03  0.95480610864E+02 -0.90935093905E+02  0.18802098093E+03  0.47000000000E+01 0.  1.
         -5    1    4    4    0  502  0.21091276173E+02 -0.10728709863E+02 -0.96539286096E+01  0.25985293601E+02  0.47000000000E+01 0.  1.
<mgrwt>
<rscale>  0 0.99965378E+03</rscale>
<asrwt>0</asrwt>
<pdfrwt beam="1">  1        2 0.47143668E-01 0.99965378E+03</pdfrwt>
<pdfrwt beam="2">  1       -2 0.12542645E+00 0.99965378E+03</pdfrwt>
<totfact> 0.59123556E+01</totfact>
</mgrwt>
</event>
<event>
 9    1  0.4321150E-036  0.9997063E+03  0.7818608E-02  0.8681318E-01
         -2   -1    0    0    0  501 -0.00000000000E+00  0.00000000000E+00  0.30659270841E+03  0.30659270841E+03  0.00000000000E+00 0.  1.
          2   -1    0    0  501    0  0.00000000000E+00 -0.00000000000E+00 -0.81493517953E+03  0.81493517953E+03  0.00000000000E+00 0.  1.
         36    2    1    2    0    0  0.14210854715E-13  0.14210854715E-13 -0.50834247113E+03  0.11215278879E+04  0.99970632461E+03 0.  0.
         25    2    3    3    0    0  0.79781482553E+02 -0.86227765241E+02 -0.17995925962E+02  0.17301680400E+03  0.12574040185E+03 0.  0.
         35    2    3    3    0    0 -0.79781482553E+02  0.86227765241E+02 -0.49034654517E+03  0.94851108394E+03  0.80338859187E+03 0.  0.
         22    1    5    5    0    0 -0.13796129825E+03 -0.34691791937E+03 -0.25520523180E+03  0.45223342748E+03  0.00000000000E+00 0. -1.
         22    1    5    5    0    0  0.58179815695E+02  0.43314568461E+03 -0.23514131336E+03  0.49627765646E+03  0.00000000000E+00 0. -1.
          5    1    4    4  502    0  0.55667326806E+02  0.18100401238E+02 -0.28586990952E+02  0.65312953159E+02  0.47000000000E+01 0.  1.
         -5    1    4    4    0  502  0.24114155747E+02 -0.10432816648E+03  0.10591064990E+02  0.10770385084E+03  0.47000000000E+01 0.  1.
<mgrwt>
<rscale>  0 0.99970632E+03</rscale>
<asrwt>0</asrwt>
<pdfrwt beam="1">  1        2 0.12537464E+00 0.99970632E+03</pdfrwt>
<pdfrwt beam="2">  1       -2 0.47168109E-01 0.99970632E+03</pdfrwt>
<totfact> 0.17325711E+02</totfact>
</mgrwt>
</event>
<event>
 9    1  0.4321150E-036  0.9996012E+03  0.7818608E-02  0.8681418E-01
          2   -1    0    0  501    0  0.00000000000E+00  0.00000000000E+00  0.21682495196E+04  0.21682495196E+04  0.00000000000E+00 0. -1.
         -2   -1    0    0    0  501 -0.00000000000E+00 -0.00000000000E+00 -0.11520842641E+03  0.11520842641E+03  0.00000000000E+00 0. -1.
         36    2    1    2    0    0 -0.21316282073E-13  0.14210854715E-13  0.20530410932E+04  0.22834579460E+04  0.99960115089E+03 0.  0.
         25    2    3    3    0    0  0.98889558565E+01 -0.10049695592E+03  0.16142957834E+03  0.22727210341E+03  0.12407929170E+03 0.  0.
         35    2    3    3    0    0 -0.98889558565E+01  0.10049695592E+03  0.18916115149E+04  0.20561858426E+04  0.79969285766E+03 0.  0.
         22    1    5    5    0    0  0.36541639726E+03 -0.99458037320E+02  0.81755447071E+03  0.90100852224E+03  0.00000000000E+00 0. -1.
         22    1    5    5    0    0 -0.37530535311E+03  0.19995499324E+03  0.10740570441E+04  0.11551773204E+04  0.00000000000E+00 0. -1.
          5    1    4    4  502    0 -0.49347699933E+02 -0.60948441470E+02  0.44535753981E+02  0.90307427098E+02  0.47000000000E+01 0. -1.
         -5    1    4    4    0  502  0.59236655790E+02 -0.39548514454E+02  0.11689382436E+03  0.13696467631E+03  0.47000000000E+01 0. -1.
<mgrwt>
<rscale>  0 0.99960115E+03</rscale>
<asrwt>0</asrwt>
<pdfrwt beam="1">  1        2 0.33357682E+00 0.99960115E+03</pdfrwt>
<pdfrwt beam="2">  1       -2 0.17724375E-01 0.99960115E+03</pdfrwt>
<totfact> 0.16516391E+02</totfact>
</mgrwt>
</event>
<event>
 9    1  0.4321150E-036  0.1000204E+04  0.7818608E-02  0.8680843E-01
          2   -1    0    0  501    0  0.00000000000E+00  0.00000000000E+00  0.14013206660E+04  0.14013206660E+04  0.00000000000E+00 0.  1.
         -2   -1    0    0    0  501 -0.00000000000E+00 -0.00000000000E+00 -0.17847608655E+03  0.17847608655E+03  0.00000000000E+00 0.  1.
         36    2    1    2    0    0  0.00000000000E+00  0.00000000000E+00  0.12228445795E+04  0.15797967526E+04  0.10002044360E+04 0.  0.
         25    2    3    3    0    0 -0.23429459904E+02 -0.13626276080E+03  0.28359555439E+03  0.33935855605E+03  0.12498524521E+03 0.  0.
         35    2    3    3    0    0  0.23429459904E+02  0.13626276080E+03  0.93924902508E+03  0.12404381965E+04  0.79836189080E+03 0.  0.
         22    1    5    5    0    0  0.73634785511E+02  0.46847833110E+03  0.55483651691E+03  0.72988875101E+03  0.00000000000E+00 0. -1.
         22    1    5    5    0    0 -0.50205325607E+02 -0.33221557030E+03  0.38441250817E+03  0.51054944551E+03  0.00000000000E+00 0. -1.
          5    1    4    4  502    0  0.36784387377E+02 -0.62685893182E+02  0.53564210211E+02  0.90409219520E+02  0.47000000000E+01 0. -1.
         -5    1    4    4    0  502 -0.60213847281E+02 -0.73576867621E+02  0.23003134418E+03  0.24894933653E+03  0.47000000000E+01 0. -1.
<mgrwt>
<rscale>  0 0.10002044E+04</rscale>
<asrwt>0</asrwt>
<pdfrwt beam="1">  1        2 0.21558779E+00 0.10002044E+04</pdfrwt>
<pdfrwt beam="2">  1       -2 0.27457860E-01 0.10002044E+04</pdfrwt>
<totfact> 0.20917668E+02</totfact>
</mgrwt>
</event>
<event>
 9    1  0.4321150E-036  0.9992781E+03  0.7818608E-02  0.8681726E-01
         -2   -1    0    0    0  501 -0.00000000000E+00  0.00000000000E+00  0.28926983162E+03  0.28926983162E+03  0.00000000000E+00 0.  1.
          2   -1    0    0  501    0  0.00000000000E+00 -0.00000000000E+00 -0.86299763690E+03  0.86299763690E+03  0.00000000000E+00 0.  1.
         36    2    1    2    0    0  0.00000000000E+00  0.00000000000E+00 -0.57372780528E+03  0.11522674685E+04  0.99927810167E+03 0.  0.
         25    2    3    3    0    0  0.11409929807E+03  0.62474302755E+02 -0.44233634897E+02  0.18501739029E+03  0.12390775573E+03 0.  0.
         35    2    3    3    0    0 -0.11409929807E+03 -0.62474302755E+02 -0.52949417038E+03  0.96725007823E+03  0.79892862575E+03 0.  0.
         22    1    5    5    0    0 -0.25795923805E+03 -0.22139378193E+03 -0.64104436559E+03  0.72560047810E+03  0.00000000000E+00 0. -1.
         22    1    5    5    0    0  0.14385993998E+03  0.15891947918E+03  0.11155019520E+03  0.24164960013E+03  0.00000000000E+00 0. -1.
          5    1    4    4  502    0  0.19014464790E+02  0.78041856671E+02 -0.36162226899E+02  0.88214952917E+02  0.47000000000E+01 0.  1.
         -5    1    4    4    0  502  0.95084833280E+02 -0.15567553915E+02 -0.80714079972E+01  0.96802437376E+02  0.47000000000E+01 0.  1.
<mgrwt>
<rscale>  0 0.99927810E+03</rscale>
<asrwt>0</asrwt>
<pdfrwt beam="1">  1        2 0.13276886E+00 0.99927810E+03</pdfrwt>
<pdfrwt beam="2">  1       -2 0.44503052E-01 0.99927810E+03</pdfrwt>
<totfact> 0.18009804E+02</totfact>
</mgrwt>
</event>
<event>
 9    1  0.4321150E-036  0.9996960E+03  0.7818608E-02  0.8681328E-01
         -1   -1    0    0    0  501 -0.00000000000E+00  0.00000000000E+00  0.14448444082E+03  0.14448444082E+03  0.00000000000E+00 0. -1.
          1   -1    0    0  501    0  0.00000000000E+00 -0.00000000000E+00 -0.17292381636E+04  0.17292381636E+04  0.00000000000E+00 0. -1.
         36    2    1    2    0    0  0.14210854715E-13  0.00000000000E+00 -0.15847537227E+04  0.18737226044E+04  0.99969597201E+03 0.  0.
         25    2    3    3    0    0  0.98193636680E+02  0.63290402823E+02 -0.15921039978E+03  0.23541702584E+03  0.12816223814E+03 0.  0.
         35    2    3    3    0    0 -0.98193636680E+02 -0.63290402823E+02 -0.14255433230E+04  0.16383055785E+04  0.79888906469E+03 0.  0.
         22    1    5    5    0    0 -0.17910064982E+03  0.18858121363E+03 -0.13328530853E+04  0.13579901560E+04  0.00000000000E+00 0.  1.
         22    1    5    5    0    0  0.80907013144E+02 -0.25187161645E+03 -0.92690237691E+02  0.28031542254E+03  0.00000000000E+00 0.  1.
          5    1    4    4  502    0 -0.68724423226E+01  0.58965311862E+02 -0.24338359530E+02  0.64331828912E+02  0.47000000000E+01 0.  1.
         -5    1    4    4    0  502  0.10506607900E+03  0.43250909602E+01 -0.13487204025E+03  0.17108519693E+03  0.47000000000E+01 0.  1.
<mgrwt>
<rscale>  0 0.99969597E+03</rscale>
<asrwt>0</asrwt>
<pdfrwt beam="1">  1        1 0.26603664E+00 0.99969597E+03</pdfrwt>
<pdfrwt beam="2">  1       -1 0.22228376E-01 0.99969597E+03</pdfrwt>
<totfact> 0.82798348E+01</totfact>
</mgrwt>
</event>
<event>
 9    1  0.4321150E-036  0.1000551E+04  0.7818608E-02  0.8680513E-01
          2   -1    0    0  501    0  0.00000000000E+00  0.00000000000E+00  0.39804379987E+03  0.39804379987E+03  0.00000000000E+00 0. -1.
         -2   -1    0    0    0  501 -0.00000000000E+00 -0.00000000000E+00 -0.62876423584E+03  0.62876423584E+03  0.00000000000E+00 0. -1.
         36    2    1    2    0    0 -0.28421709430E-13 -0.21316282073E-13 -0.23072043597E+03  0.10268080357E+04  0.10005512594E+04 0.  0.
         25    2    3    3    0    0 -0.13463188262E+03 -0.71743789010E+01 -0.46534860474E+00  0.18376143978E+03  0.12486326390E+03 0.  0.
         35    2    3    3    0    0  0.13463188262E+03  0.71743789010E+01 -0.23025508736E+03  0.84304659592E+03  0.79970803554E+03 0.  0.
         22    1    5    5    0    0  0.25402807009E+03 -0.17233711533E+03  0.19681407507E+03  0.36464519997E+03  0.00000000000E+00 0. -1.
         22    1    5    5    0    0 -0.11939618747E+03  0.17951149424E+03 -0.42706916243E+03  0.47840139595E+03  0.00000000000E+00 0. -1.
          5    1    4    4  502    0 -0.58616991624E+02  0.43229461514E+02  0.40719945624E+02  0.83575965573E+02  0.47000000000E+01 0. -1.
         -5    1    4    4    0  502 -0.76014890995E+02 -0.50403840415E+02 -0.41185294228E+02  0.10018547421E+03  0.47000000000E+01 0. -1.
<mgrwt>
<rscale>  0 0.10005513E+04</rscale>
<asrwt>0</asrwt>
<pdfrwt beam="1">  1        2 0.61237508E-01 0.10005513E+04</pdfrwt>
<pdfrwt beam="2">  1       -2 0.96732959E-01 0.10005513E+04</pdfrwt>
<totfact> 0.85048801E+01</totfact>
</mgrwt>
</event>
<event>
 9    1  0.4321150E-036  0.1005359E+04  0.7818608E-02  0.8675951E-01
         -2   -1    0    0    0  501 -0.00000000000E+00  0.00000000000E+00  0.85154379961E+03  0.85154379961E+03  0.00000000000E+00 0. -1.
          2   -1    0    0  501    0  0.00000000000E+00 -0.00000000000E+00 -0.29673958917E+03  0.29673958917E+03  0.00000000000E+00 0. -1.
         36    2    1    2    0    0  0.00000000000E+00  0.00000000000E+00  0.55480421044E+03  0.11482833888E+04  0.10053591542E+04 0.  0.
         25    2    3    3    0    0  0.11620879016E+03 -0.74756870770E+02  0.16150726992E+03  0.24684963363E+03  0.12552717137E+03 0.  0.
         35    2    3    3    0    0 -0.11620879016E+03  0.74756870770E+02  0.39329694053E+03  0.90143375514E+03  0.79925418913E+03 0.  0.
         22    1    5    5    0    0  0.21852565200E+03  0.10129314593E+03  0.49508027029E+03  0.55056174588E+03  0.00000000000E+00 0.  1.
         22    1    5    5    0    0 -0.33473444216E+03 -0.26536275156E+02 -0.10178332976E+03  0.35087200927E+03  0.00000000000E+00 0.  1.
          5    1    4    4  502    0  0.52801828251E+02 -0.34877628196E+01  0.13888501466E+03  0.14869880583E+03  0.47000000000E+01 0.  1.
         -5    1    4    4    0  502  0.63406961908E+02 -0.71269107950E+02  0.22622255252E+02  0.98150827806E+02  0.47000000000E+01 0.  1.
<mgrwt>
<rscale>  0 0.10053592E+04</rscale>
<asrwt>0</asrwt>
<pdfrwt beam="1">  1        2 0.45652245E-01 0.10053592E+04</pdfrwt>
<pdfrwt beam="2">  1       -2 0.13100674E+00 0.10053592E+04</pdfrwt>
<totfact> 0.54577475E+01</totfact>
</mgrwt>
</event>
<event>
 9    1  0.4321150E-036  0.1000572E+04  0.7818608E-02  0.8680493E-01
          2   -1    0    0  501    0  0.00000000000E+00  0.00000000000E+00  0.44551370559E+03  0.44551370559E+03  0.00000000000E+00 0.  1.
         -2   -1    0    0    0  501 -0.00000000000E+00 -0.00000000000E+00 -0.56179229951E+03  0.56179229951E+03  0.00000000000E+00 0.  1.
         36    2    1    2    0    0  0.00000000000E+00 -0.14210854715E-13 -0.11627859392E+03  0.10073060051E+04  0.10005721746E+04 0.  0.
         25    2    3    3    0    0  0.10435875228E+03  0.81229628790E+02  0.26137418710E+02  0.18418365002E+03  0.12550478281E+03 0.  0.
         35    2    3    3    0    0 -0.10435875228E+03 -0.81229628790E+02 -0.14241601263E+03  0.82312235508E+03  0.79984941645E+03 0.  0.
         22    1    5    5    0    0  0.64752625511E+02  0.25040176626E+03  0.19247081138E+03  0.32239565799E+03  0.00000000000E+00 0. -1.
         22    1    5    5    0    0 -0.16911137779E+03 -0.33163139505E+03 -0.33488682401E+03  0.50072669709E+03  0.00000000000E+00 0. -1.
          5    1    4    4  502    0  0.11183467067E+03  0.19812261900E+02  0.40180022867E+02  0.12056551548E+03  0.47000000000E+01 0. -1.
         -5    1    4    4    0  502 -0.74759183872E+01  0.61417366890E+02 -0.14042604157E+02  0.63618134545E+02  0.47000000000E+01 0. -1.
<mgrwt>
<rscale>  0 0.10005722E+04</rscale>
<asrwt>0</asrwt>
<pdfrwt beam="1">  1        2 0.68540571E-01 0.10005722E+04</pdfrwt>
<pdfrwt beam="2">  1       -2 0.86429584E-01 0.10005722E+04</pdfrwt>
<totfact> 0.97750107E+01</totfact>
</mgrwt>
</event>
<event>
 9    1  0.4321150E-036  0.1000576E+04  0.7818608E-02  0.8680490E-01
          1   -1    0    0  501    0  0.00000000000E+00  0.00000000000E+00  0.12810401328E+04  0.12810401328E+04  0.00000000000E+00 0. -1.
         -1   -1    0    0    0  501 -0.00000000000E+00 -0.00000000000E+00 -0.19537879516E+03  0.19537879516E+03  0.00000000000E+00 0. -1.
         36    2    1    2    0    0  0.14210854715E-13 -0.42632564146E-13  0.10856613376E+04  0.14764189280E+04  0.10005759895E+04 0.  0.
         25    2    3    3    0    0  0.49851143647E+02 -0.91224468877E+02  0.62018916988E+02  0.17374764321E+03  0.12463890729E+03 0.  0.
         35    2    3    3    0    0 -0.49851143647E+02  0.91224468877E+02  0.10236424206E+04  0.13026712848E+04  0.79893781393E+03 0.  0.
         22    1    5    5    0    0 -0.14594528337E+03  0.31138195707E+03  0.10044544059E+04  0.10616908225E+04  0.00000000000E+00 0. -1.
         22    1    5    5    0    0  0.96094139723E+02 -0.22015748819E+03  0.19188014725E+02  0.24098046229E+03  0.00000000000E+00 0. -1.
          5    1    4    4  502    0  0.20939756876E+02 -0.11685058596E+03  0.63676807088E+02  0.13479376328E+03  0.47000000000E+01 0.  1.
         -5    1    4    4    0  502  0.28911386771E+02  0.25626117086E+02 -0.16578901000E+01  0.38953879929E+02  0.47000000000E+01 0.  1.
<mgrwt>
<rscale>  0 0.10005760E+04</rscale>
<asrwt>0</asrwt>
<pdfrwt beam="1">  1        1 0.19708309E+00 0.10005760E+04</pdfrwt>
<pdfrwt beam="2">  1       -1 0.30058277E-01 0.10005760E+04</pdfrwt>
<totfact> 0.10402092E+02</totfact>
</mgrwt>
</event>
<event>
 9    1  0.4321150E-036  0.1000281E+04  0.7818608E-02  0.8680770E-01
         -3   -1    0    0    0  501 -0.00000000000E+00  0.00000000000E+00  0.12758169066E+04  0.12758169066E+04  0.00000000000E+00 0.  1.
          3   -1    0    0  501    0  0.00000000000E+00 -0.00000000000E+00 -0.19606317716E+03  0.19606317716E+03  0.00000000000E+00 0.  1.
         36    2    1    2    0    0  0.00000000000E+00  0.71054273576E-14  0.10797537294E+04  0.14718800837E+04  0.10002813928E+04 0.  0.
         25    2    3    3    0    0 -0.40070908755E+02 -0.19199043036E+02  0.53555774120E+01  0.13162242675E+03  0.12378004698E+03 0.  0.
         35    2    3    3    0    0  0.40070908755E+02  0.19199043036E+02  0.10743981520E+04  0.13402576570E+04  0.79999057313E+03 0.  0.
         22    1    5    5    0    0 -0.26008781013E+03 -0.66544024897E+02  0.54877717914E+02  0.27401704355E+03  0.00000000000E+00 0. -1.
         22    1    5    5    0    0  0.30015871889E+03  0.85743067933E+02  0.10195204341E+04  0.10662406134E+04  0.00000000000E+00 0. -1.
          5    1    4    4  502    0 -0.17751484303E+02  0.51063496495E+02 -0.12362446223E+02  0.55655331693E+02  0.47000000000E+01 0.  1.
         -5    1    4    4    0  502 -0.22319424453E+02 -0.70262539530E+02  0.17718023635E+02  0.75967095052E+02  0.47000000000E+01 0.  1.
<mgrwt>
<rscale>  0 0.10002814E+04</rscale>
<asrwt>0</asrwt>
<pdfrwt beam="1">  1        3 0.30163567E-01 0.10002814E+04</pdfrwt>
<pdfrwt beam="2">  1       -3 0.19627952E+00 0.10002814E+04</pdfrwt>
<totfact> 0.46357206E+00</totfact>
</mgrwt>
</event>
<event>
 9    1  0.4321150E-036  0.1000117E+04  0.7818608E-02  0.8680926E-01
          2   -1    0    0  501    0  0.00000000000E+00  0.00000000000E+00  0.24538734608E+04  0.24538734608E+04  0.00000000000E+00 0. -1.
         -2   -1    0    0    0  501 -0.00000000000E+00 -0.00000000000E+00 -0.10190364408E+03  0.10190364408E+03  0.00000000000E+00 0. -1.
         36    2    1    2    0    0  0.00000000000E+00  0.21316282073E-13  0.23519698167E+04  0.25557771049E+04  0.10001172887E+04 0.  0.
         25    2    3    3    0    0  0.10320515593E+03 -0.70317410975E+01  0.68569541912E+03  0.70455680530E+03  0.12458464789E+03 0.  0.
         35    2    3    3    0    0 -0.10320515593E+03  0.70317410975E+01  0.16662743976E+04  0.18512202996E+04  0.79990341912E+03 0.  0.
         22    1    5    5    0    0  0.32510188879E+03 -0.13881813707E+03  0.76660446409E+03  0.84418251441E+03  0.00000000000E+00 0. -1.
         22    1    5    5    0    0 -0.42830704472E+03  0.14584987817E+03  0.89966993348E+03  0.10070377851E+04  0.00000000000E+00 0. -1.
          5    1    4    4  502    0  0.11082074534E+03  0.19855007077E+02  0.35055477406E+03  0.36822031248E+03  0.47000000000E+01 0.  1.
         -5    1    4    4    0  502 -0.76155894111E+01 -0.26886748175E+02  0.33514064506E+03  0.33633649282E+03  0.47000000000E+01 0.  1.
<mgrwt>
<rscale>  0 0.10001173E+04</rscale>
<asrwt>0</asrwt>
<pdfrwt beam="1">  1        2 0.37751895E+00 0.10001173E+04</pdfrwt>
<pdfrwt beam="2">  1       -2 0.15677486E-01 0.10001173E+04</pdfrwt>
<totfact> 0.13789109E+02</totfact>
</mgrwt>
</event>
<event>
 9    1  0.4321150E-036  0.1000316E+04  0.7818608E-02  0.8680737E-01
          2   -1    0    0  501    0  0.00000000000E+00  0.00000000000E+00  0.13412751982E+04  0.13412751982E+04  0.00000000000E+00 0. -1.
         -2   -1    0    0    0  501 -0.00000000000E+00 -0.00000000000E+00 -0.18650764885E+03  0.18650764885E+03  0.00000000000E+00 0. -1.
         36    2    1    2    0    0 -0.42632564146E-13 -0.71054273576E-14  0.11547675493E+04  0.15277828470E+04  0.10003161174E+04 0.  0.
         25    2    3    3    0    0  0.12121628010E+03  0.31267131387E+02  0.12210399665E+03  0.21501448014E+03  0.12510323978E+03 0.  0.
         35    2    3    3    0    0 -0.12121628010E+03 -0.31267131387E+02  0.10326635527E+04  0.13127683669E+04  0.80080943551E+03 0.  0.
         22    1    5    5    0    0 -0.37726233308E+03  0.19546521126E+03  0.35493646765E+03  0.55363653496E+03  0.00000000000E+00 0.  1.
         22    1    5    5    0    0  0.25604605299E+03 -0.22673234265E+03  0.67772708505E+03  0.75913183194E+03  0.00000000000E+00 0.  1.
          5    1    4    4  502    0  0.11705604055E+03  0.34413994924E+02  0.14587304012E+03  0.19023005417E+03  0.47000000000E+01 0. -1.
         -5    1    4    4    0  502  0.41602395429E+01 -0.31468635375E+01 -0.23769043466E+02  0.24784425966E+02  0.47000000000E+01 0. -1.
<mgrwt>
<rscale>  0 0.10003161E+04</rscale>
<asrwt>0</asrwt>
<pdfrwt beam="1">  1        2 0.20635003E+00 0.10003161E+04</pdfrwt>
<pdfrwt beam="2">  1       -2 0.28693485E-01 0.10003161E+04</pdfrwt>
<totfact> 0.20914301E+02</totfact>
</mgrwt>
</event>
<event>
 9    1  0.4321150E-036  0.9994968E+03  0.7818608E-02  0.8681517E-01
         -1   -1    0    0    0  501 -0.00000000000E+00  0.00000000000E+00  0.16379014074E+03  0.16379014074E+03  0.00000000000E+00 0.  1.
          1   -1    0    0  501    0  0.00000000000E+00 -0.00000000000E+00 -0.15248078232E+04  0.15248078232E+04  0.00000000000E+00 0.  1.
         36    2    1    2    0    0  0.71054273576E-14 -0.71054273576E-14 -0.13610176825E+04  0.16885979640E+04  0.99949684937E+03 0.  0.
         25    2    3    3    0    0 -0.61777412375E+02  0.16463974780E+02 -0.47024950451E+03  0.49025711439E+03  0.12300378276E+03 0.  0.
         35    2    3    3    0    0  0.61777412375E+02 -0.16463974780E+02 -0.89076817799E+03  0.11983408496E+04  0.79904025790E+03 0.  0.
         22    1    5    5    0    0  0.23728655138E+03  0.23309984039E+03 -0.82035079520E+03  0.88522080310E+03  0.00000000000E+00 0. -1.
         22    1    5    5    0    0 -0.17550913901E+03 -0.24956381517E+03 -0.70417382798E+02  0.31312004650E+03  0.00000000000E+00 0. -1.
          5    1    4    4  502    0  0.18150277656E+02 -0.10829601137E+02 -0.29361497480E+03  0.29441222167E+03  0.47000000000E+01 0.  1.
         -5    1    4    4    0  502 -0.79927690031E+02  0.27293575917E+02 -0.17663452971E+03  0.19584489272E+03  0.47000000000E+01 0.  1.
<mgrwt>
<rscale>  0 0.99949685E+03</rscale>
<asrwt>0</asrwt>
<pdfrwt beam="1">  1        1 0.23458583E+00 0.99949685E+03</pdfrwt>
<pdfrwt beam="2">  1       -1 0.25198482E-01 0.99949685E+03</pdfrwt>
<totfact> 0.93645979E+01</totfact>
</mgrwt>
</event>
<event>
 9    1  0.4321150E-036  0.1000417E+04  0.7818608E-02  0.8680641E-01
         -1   -1    0    0    0  501 -0.00000000000E+00  0.00000000000E+00  0.81171926134E+02  0.81171926134E+02  0.00000000000E+00 0.  1.
          1   -1    0    0  501    0  0.00000000000E+00 -0.00000000000E+00 -0.30824501621E+04  0.30824501621E+04  0.00000000000E+00 0.  1.
         36    2    1    2    0    0 -0.42632564146E-13  0.00000000000E+00 -0.30012782360E+04  0.31636220883E+04  0.10004167469E+04 0.  0.
         25    2    3    3    0    0  0.52492704724E+02 -0.33187186752E+02 -0.97510264036E+03  0.98407351992E+03  0.11712668340E+03 0.  0.
         35    2    3    3    0    0 -0.52492704724E+02  0.33187186752E+02 -0.20261755956E+04  0.21795485683E+04  0.80074187101E+03 0.  0.
         22    1    5    5    0    0  0.27151336873E+03 -0.56071356453E+02 -0.25470807878E+03  0.37648334865E+03  0.00000000000E+00 0.  1.
         22    1    5    5    0    0 -0.32400607346E+03  0.89258543205E+02 -0.17714675169E+04  0.18030652197E+04  0.00000000000E+00 0.  1.
          5    1    4    4  502    0  0.31183152462E+02 -0.58933134832E+02 -0.26952773556E+03  0.27769190413E+03  0.47000000000E+01 0.  1.
         -5    1    4    4    0  502  0.21309552262E+02  0.25745948080E+02 -0.70557490479E+03  0.70638161580E+03  0.47000000000E+01 0.  1.
<mgrwt>
<rscale>  0 0.10004167E+04</rscale>
<asrwt>0</asrwt>
<pdfrwt beam="1">  1        1 0.47422303E+00 0.10004167E+04</pdfrwt>
<pdfrwt beam="2">  1       -1 0.12487991E-01 0.10004167E+04</pdfrwt>
<totfact> 0.23408445E+01</totfact>
</mgrwt>
</event>
<event>
 9    1  0.4321150E-036  0.1000337E+04  0.7818608E-02  0.8680717E-01
          2   -1    0    0  501    0  0.00000000000E+00  0.00000000000E+00  0.32395696029E+03  0.32395696029E+03  0.00000000000E+00 0. -1.
         -2   -1    0    0    0  501 -0.00000000000E+00 -0.00000000000E+00 -0.77222781171E+03  0.77222781171E+03  0.00000000000E+00 0. -1.
         36    2    1    2    0    0 -0.71054273576E-14  0.14210854715E-13 -0.44827085142E+03  0.10961847720E+04  0.10003370922E+04 0.  0.
         25    2    3    3    0    0 -0.28716322271E+02 -0.58160971193E+02  0.49879281072E+02  0.14897209643E+03  0.12448862237E+03 0.  0.
         35    2    3    3    0    0  0.28716322271E+02  0.58160971193E+02 -0.49815013249E+03  0.94721267557E+03  0.80302613439E+03 0.  0.
         22    1    5    5    0    0  0.27258561675E+03 -0.24962944662E+03 -0.89159026404E+02  0.38021981940E+03  0.00000000000E+00 0. -1.
         22    1    5    5    0    0 -0.24386929447E+03  0.30779041781E+03 -0.40899110609E+03  0.56699285617E+03  0.00000000000E+00 0. -1.
          5    1    4    4  502    0 -0.60439116419E+01 -0.79527823694E+02 -0.10778996892E+02  0.80619354894E+02  0.47000000000E+01 0.  1.
         -5    1    4    4    0  502 -0.22672410629E+02  0.21366852501E+02  0.60658277964E+02  0.68352741533E+02  0.47000000000E+01 0.  1.
<mgrwt>
<rscale>  0 0.10003371E+04</rscale>
<asrwt>0</asrwt>
<pdfrwt beam="1">  1        2 0.49839532E-01 0.10003371E+04</pdfrwt>
<pdfrwt beam="2">  1       -2 0.11880428E+00 0.10003371E+04</pdfrwt>
<totfact> 0.64036602E+01</totfact>
</mgrwt>
</event>
<event>
 9    1  0.4321150E-036  0.9988735E+03  0.7818608E-02  0.8682111E-01
          3   -1    0    0  501    0  0.00000000000E+00  0.00000000000E+00  0.32788259684E+03  0.32788259684E+03  0.00000000000E+00 0.  1.
         -3   -1    0    0    0  501 -0.00000000000E+00 -0.00000000000E+00 -0.76075116126E+03  0.76075116126E+03  0.00000000000E+00 0.  1.
         36    2    1    2    0    0  0.14210854715E-13  0.00000000000E+00 -0.43286856442E+03  0.10886337581E+04  0.99887349810E+03 0.  0.
         25    2    3    3    0    0 -0.97674168389E+02 -0.92113185201E+01  0.26058609584E+02  0.16121554897E+03  0.12524500205E+03 0.  0.
         35    2    3    3    0    0  0.97674168389E+02  0.92113185201E+01 -0.45892717400E+03  0.92741820912E+03  0.79991580308E+03 0.  0.
         22    1    5    5    0    0  0.26854399361E+03 -0.12260261496E+03 -0.60062543887E+03  0.66925196714E+03  0.00000000000E+00 0. -1.
         22    1    5    5    0    0 -0.17086982522E+03  0.13181393348E+03  0.14169826487E+03  0.25816624198E+03  0.00000000000E+00 0. -1.
          5    1    4    4  502    0 -0.24520531680E+01 -0.41358580550E+02  0.42190514697E+02  0.59318414344E+02  0.47000000000E+01 0.  1.
         -5    1    4    4    0  502 -0.95222115221E+02  0.32147262030E+02 -0.16131905113E+02  0.10189713463E+03  0.47000000000E+01 0.  1.
<mgrwt>
<rscale>  0 0.99887350E+03</rscale>
<asrwt>0</asrwt>
<pdfrwt beam="1">  1        3 0.50443477E-01 0.99887350E+03</pdfrwt>
<pdfrwt beam="2">  1       -3 0.11703864E+00 0.99887350E+03</pdfrwt>
<totfact> 0.82789247E+00</totfact>
</mgrwt>
</event>
<event>
 9    1  0.4321150E-036  0.9995119E+03  0.7818608E-02  0.8681503E-01
          1   -1    0    0  501    0  0.00000000000E+00  0.00000000000E+00  0.21115346820E+04  0.21115346820E+04  0.00000000000E+00 0.  1.
         -1   -1    0    0    0  501 -0.00000000000E+00 -0.00000000000E+00 -0.11828175165E+03  0.11828175165E+03  0.00000000000E+00 0.  1.
         36    2    1    2    0    0  0.00000000000E+00  0.28421709430E-13  0.19932529303E+04  0.22298164337E+04  0.99951192262E+03 0.  0.
         25    2    3    3    0    0  0.80725504221E+02 -0.74224496495E+02  0.17835260120E+03  0.24367969406E+03  0.12467662184E+03 0.  0.
         35    2    3    3    0    0 -0.80725504221E+02  0.74224496495E+02  0.18149003292E+04  0.19861367396E+04  0.79928096480E+03 0.  0.
         22    1    5    5    0    0 -0.34277077062E+02 -0.27779714613E+03  0.23097055976E+03  0.36289608965E+03  0.00000000000E+00 0. -1.
         22    1    5    5    0    0 -0.46448427159E+02  0.35202164262E+03  0.15839297694E+04  0.16232406499E+04  0.00000000000E+00 0. -1.
          5    1    4    4  502    0  0.65819003230E+02 -0.10064936297E+03  0.17556000643E+03  0.21285168853E+03  0.47000000000E+01 0. -1.
         -5    1    4    4    0  502  0.14906500991E+02  0.26424866471E+02  0.27925947693E+01  0.30828005536E+02  0.47000000000E+01 0. -1.
<mgrwt>
<rscale>  0 0.99951192E+03</rscale>
<asrwt>0</asrwt>
<pdfrwt beam="1">  1        1 0.32485146E+00 0.99951192E+03</pdfrwt>
<pdfrwt beam="2">  1       -1 0.18197194E-01 0.99951192E+03</pdfrwt>
<totfact> 0.62153324E+01</totfact>
</mgrwt>
</event>
<event>
 9    1  0.4321150E-036  0.1001736E+04  0.7818608E-02  0.8679386E-01
          1   -1    0    0  501    0  0.00000000000E+00  0.00000000000E+00  0.58115249257E+03  0.58115249257E+03  0.00000000000E+00 0.  1.
         -1   -1    0    0    0  501 -0.00000000000E+00 -0.00000000000E+00 -0.43167483275E+03  0.43167483275E+03  0.00000000000E+00 0.  1.
         36    2    1    2    0    0  0.00000000000E+00  0.42632564146E-13  0.14947765982E+03  0.10128273253E+04  0.10017363027E+04 0.  0.
         25    2    3    3    0    0  0.13136464261E+03 -0.44525963597E+02 -0.77408224373E+01  0.18608941421E+03  0.12381485770E+03 0.  0.
         35    2    3    3    0    0 -0.13136464261E+03  0.44525963597E+02  0.15721848226E+03  0.82673791112E+03  0.79971163037E+03 0.  0.
         22    1    5    5    0    0  0.13017260430E+03 -0.32295547216E+03 -0.26010445487E+01  0.34821244858E+03  0.00000000000E+00 0. -1.
         22    1    5    5    0    0 -0.26153724691E+03  0.36748143576E+03  0.15981952680E+03  0.47852546254E+03  0.00000000000E+00 0. -1.
          5    1    4    4  502    0  0.88965146366E+02 -0.37613479316E+02  0.53975018168E+02  0.11074729649E+03  0.47000000000E+01 0.  1.
         -5    1    4    4    0  502  0.42399496241E+02 -0.69124842808E+01 -0.61715840605E+02  0.75342117717E+02  0.47000000000E+01 0.  1.
<mgrwt>
<rscale>  0 0.10017363E+04</rscale>
<asrwt>0</asrwt>
<pdfrwt beam="1">  1        1 0.89408076E-01 0.10017363E+04</pdfrwt>
<pdfrwt beam="2">  1       -1 0.66411512E-01 0.10017363E+04</pdfrwt>
<totfact> 0.96151138E+01</totfact>
</mgrwt>
</event>
<event>
 9    1  0.4321150E-036  0.9990968E+03  0.7818608E-02  0.8681899E-01
         -2   -1    0    0    0  501 -0.00000000000E+00  0.00000000000E+00  0.11753388794E+03  0.11753388794E+03  0.00000000000E+00 0.  1.
          2   -1    0    0  501    0  0.00000000000E+00 -0.00000000000E+00 -0.21232055295E+04  0.21232055295E+04  0.00000000000E+00 0.  1.
         36    2    1    2    0    0  0.00000000000E+00  0.00000000000E+00 -0.20056716416E+04  0.22407394174E+04  0.99909679365E+03 0.  0.
         25    2    3    3    0    0  0.61379189334E+02  0.45405576339E+01 -0.65469581619E+03  0.66930168612E+03  0.12470009530E+03 0.  0.
         35    2    3    3    0    0 -0.61379189334E+02 -0.45405576339E+01 -0.13509758254E+04  0.15714377313E+04  0.80030796641E+03 0.  0.
         22    1    5    5    0    0  0.70975368840E+02  0.45404127312E+02 -0.14140435523E+04  0.14165515189E+04  0.00000000000E+00 0.  1.
         22    1    5    5    0    0 -0.13235455817E+03 -0.49944684946E+02  0.63067726940E+02  0.15488621244E+03  0.00000000000E+00 0.  1.
          5    1    4    4  502    0  0.27181916683E+02  0.46982007389E+02 -0.11969383498E+03  0.13150996063E+03  0.47000000000E+01 0.  1.
         -5    1    4    4    0  502  0.34197272651E+02 -0.42441449755E+02 -0.53500198120E+03  0.53779172549E+03  0.47000000000E+01 0.  1.
<mgrwt>
<rscale>  0 0.99909679E+03</rscale>
<asrwt>0</asrwt>
<pdfrwt beam="1">  1        2 0.32664700E+00 0.99909679E+03</pdfrwt>
<pdfrwt beam="2">  1       -2 0.18082137E-01 0.99909679E+03</pdfrwt>
<totfact> 0.16948172E+02</totfact>
</mgrwt>
</event>
<event>
 9    1  0.4321150E-036  0.9995270E+03  0.7818608E-02  0.8681488E-01
         -2   -1    0    0    0  501 -0.00000000000E+00  0.00000000000E+00  0.26033346091E+03  0.26033346091E+03  0.00000000000E+00 0.  1.
          2   -1    0    0  501    0  0.00000000000E+00 -0.00000000000E+00 -0.95939866474E+03  0.95939866474E+03  0.00000000000E+00 0.  1.
         36    2    1    2    0    0 -0.14210854715E-13  0.00000000000E+00 -0.69906520383E+03  0.12197321256E+04  0.99952703772E+03 0.  0.
         25    2    3    3    0    0  0.82442065117E+02 -0.56697931396E+02 -0.13424825614E+02  0.16062801845E+03  0.12493912455E+03 0.  0.
         35    2    3    3    0    0 -0.82442065117E+02  0.56697931396E+02 -0.68564037822E+03  0.10591041072E+04  0.80099153061E+03 0.  0.
         22    1    5    5    0    0  0.18422913669E+03  0.41987766006E+02  0.11082246908E+03  0.21905471224E+03  0.00000000000E+00 0.  1.
         22    1    5    5    0    0 -0.26667120180E+03  0.14710165390E+02 -0.79646284730E+03  0.84004939496E+03  0.00000000000E+00 0.  1.
          5    1    4    4  502    0  0.83705059504E+02 -0.72745895161E+02 -0.48973916422E+02  0.12132203732E+03  0.47000000000E+01 0.  1.
         -5    1    4    4    0  502 -0.12629943878E+01  0.16047963764E+02  0.35549090807E+02  0.39305981136E+02  0.47000000000E+01 0.  1.
<mgrwt>
<rscale>  0 0.99952704E+03</rscale>
<asrwt>0</asrwt>
<pdfrwt beam="1">  1        2 0.14759979E+00 0.99952704E+03</pdfrwt>
<pdfrwt beam="2">  1       -2 0.40051302E-01 0.99952704E+03</pdfrwt>
<totfact> 0.19092701E+02</totfact>
</mgrwt>
</event>
<event>
 9    1 -0.4321150E-036  0.9998697E+03  0.7818608E-02  0.8681162E-01
          1   -1    0    0  501    0  0.00000000000E+00  0.00000000000E+00  0.92305891470E+02  0.92305891470E+02  0.00000000000E+00 0.  1.
         -1   -1    0    0    0  501 -0.00000000000E+00 -0.00000000000E+00 -0.27076804181E+04  0.27076804181E+04  0.00000000000E+00 0.  1.
         36    2    1    2    0    0  0.71054273576E-14  0.00000000000E+00 -0.26153745266E+04  0.27999863095E+04  0.99986970112E+03 0.  0.
         25    2    3    3    0    0  0.13784255923E+02  0.11324459099E+03 -0.24447556487E+03  0.29548569324E+03  0.12053692375E+03 0.  0.
         35    2    3    3    0    0 -0.13784255923E+02 -0.11324459099E+03 -0.23708989617E+04  0.25045006163E+04  0.79896627416E+03 0.  0.
         22    1    5    5    0    0  0.15617201075E+03 -0.39842725446E+03 -0.17368863193E+04  0.17888286839E+04  0.00000000000E+00 0.  1.
         22    1    5    5    0    0 -0.16995626667E+03  0.28518266347E+03 -0.63401264241E+03  0.71567193242E+03  0.00000000000E+00 0.  1.
          5    1    4    4  502    0  0.37498271513E+02 -0.47502471741E+01 -0.10223638140E+03  0.10910111317E+03  0.47000000000E+01 0.  1.
         -5    1    4    4    0  502 -0.23714015590E+02  0.11799483817E+03 -0.14223918348E+03  0.18638458006E+03  0.47000000000E+01 0.  1.
<mgrwt>
<rscale>  0 0.99986970E+03</rscale>
<asrwt>0</asrwt>
<pdfrwt beam="1">  1        1 0.14200907E-01 0.99986970E+03</pdfrwt>
<pdfrwt beam="2">  1       -1 0.41656620E+00 0.99986970E+03</pdfrwt>
<totfact>-0.22585135E+00</totfact>
</mgrwt>
</event>
<event>
 9    1  0.4321150E-036  0.9991960E+03  0.7818608E-02  0.8681804E-01
          1   -1    0    0  501    0  0.00000000000E+00  0.00000000000E+00  0.23182471568E+04  0.23182471568E+04  0.00000000000E+00 0.  1.
         -1   -1    0    0    0  501 -0.00000000000E+00 -0.00000000000E+00 -0.10766676112E+03  0.10766676112E+03  0.00000000000E+00 0.  1.
         36    2    1    2    0    0 -0.28421709430E-13 -0.28421709430E-13  0.22105803956E+04  0.24259139179E+04  0.99919600247E+03 0.  0.
         25    2    3    3    0    0 -0.77546440981E+02 -0.10195526308E+03  0.30035362556E+03  0.35060235781E+03  0.12767688411E+03 0.  0.
         35    2    3    3    0    0  0.77546440981E+02  0.10195526308E+03  0.19102267701E+04  0.20753115601E+04  0.80096406414E+03 0.  0.
         22    1    5    5    0    0 -0.22766936410E+03 -0.28157287590E+02  0.16149307611E+04  0.16311430150E+04  0.00000000000E+00 0.  1.
         22    1    5    5    0    0  0.30521580508E+03  0.13011255067E+03  0.29529600895E+03  0.44416854505E+03  0.00000000000E+00 0.  1.
          5    1    4    4  502    0  0.24089111812E+02 -0.52689146454E+02  0.53083023934E+02  0.78716763729E+02  0.47000000000E+01 0. -1.
         -5    1    4    4    0  502 -0.10163555279E+03 -0.49266116623E+02  0.24727060163E+03  0.27188559408E+03  0.47000000000E+01 0. -1.
<mgrwt>
<rscale>  0 0.99919600E+03</rscale>
<asrwt>0</asrwt>
<pdfrwt beam="1">  1        1 0.35665337E+00 0.99919600E+03</pdfrwt>
<pdfrwt beam="2">  1       -1 0.16564119E-01 0.99919600E+03</pdfrwt>
<totfact> 0.51878927E+01</totfact>
</mgrwt>
</event>
<event>
 9    1  0.4321150E-036  0.9997661E+03  0.7818608E-02  0.8681261E-01
          2   -1    0    0  501    0  0.00000000000E+00  0.00000000000E+00  0.48245228889E+03  0.48245228889E+03  0.00000000000E+00 0. -1.
         -2   -1    0    0    0  501 -0.00000000000E+00 -0.00000000000E+00 -0.51794353928E+03  0.51794353928E+03  0.00000000000E+00 0. -1.
         36    2    1    2    0    0  0.00000000000E+00 -0.14210854715E-13 -0.35491250394E+02  0.10003958282E+04  0.99976606472E+03 0.  0.
         25    2    3    3    0    0 -0.35536333626E+02 -0.48186711368E+02  0.12110322438E+03  0.18531410787E+03  0.12684848229E+03 0.  0.
         35    2    3    3    0    0  0.35536333626E+02  0.48186711368E+02 -0.15659447477E+03  0.81508172030E+03  0.79765380402E+03 0.  0.
         22    1    5    5    0    0  0.11208482464E+03  0.32113038187E+03 -0.33721118526E+03  0.47895627519E+03  0.00000000000E+00 0. -1.
         22    1    5    5    0    0 -0.76548491013E+02 -0.27294367051E+03  0.18061671048E+03  0.33612544511E+03  0.00000000000E+00 0. -1.
          5    1    4    4  502    0  0.32996403705E+02 -0.37955939344E+02  0.59816965381E+01  0.50865378033E+02  0.47000000000E+01 0. -1.
         -5    1    4    4    0  502 -0.68532737331E+02 -0.10230772024E+02  0.11512152784E+03  0.13444872984E+03  0.47000000000E+01 0. -1.
<mgrwt>
<rscale>  0 0.99976606E+03</rscale>
<asrwt>0</asrwt>
<pdfrwt beam="1">  1        2 0.74223429E-01 0.99976606E+03</pdfrwt>
<pdfrwt beam="2">  1       -2 0.79683622E-01 0.99976606E+03</pdfrwt>
<totfact> 0.10787705E+02</totfact>
</mgrwt>
</event>
<event>
 9    1  0.4321150E-036  0.1000055E+04  0.7818608E-02  0.8680985E-01
         -1   -1    0    0    0  501 -0.00000000000E+00  0.00000000000E+00  0.62015441461E+03  0.62015441461E+03  0.00000000000E+00 0.  1.
          1   -1    0    0  501    0  0.00000000000E+00 -0.00000000000E+00 -0.40317001539E+03  0.40317001539E+03  0.00000000000E+00 0.  1.
         36    2    1    2    0    0  0.00000000000E+00  0.42632564146E-13  0.21698439922E+03  0.10233244300E+04  0.10000553282E+04 0.  0.
         25    2    3    3    0    0  0.45949078547E+00  0.65183689414E+02  0.16766546462E+03  0.21931125011E+03  0.12544557346E+03 0.  0.
         35    2    3    3    0    0 -0.45949078547E+00 -0.65183689414E+02  0.49318934601E+02  0.80401317990E+03  0.79984730520E+03 0.  0.
         22    1    5    5    0    0  0.54067359613E+02 -0.39618926980E+03 -0.13401095116E+03  0.42172046655E+03  0.00000000000E+00 0.  1.
         22    1    5    5    0    0 -0.54526850399E+02  0.33100558038E+03  0.18332988577E+03  0.38229271334E+03  0.00000000000E+00 0.  1.
          5    1    4    4  502    0 -0.49722696747E+02  0.17793243420E+02  0.13032071560E+03  0.14069301688E+03  0.47000000000E+01 0.  1.
         -5    1    4    4    0  502  0.50182187533E+02  0.47390445993E+02  0.37344749012E+02  0.78618233228E+02  0.47000000000E+01 0.  1.
<mgrwt>
<rscale>  0 0.10000553E+04</rscale>
<asrwt>0</asrwt>
<pdfrwt beam="1">  1        1 0.62026156E-01 0.10000553E+04</pdfrwt>
<pdfrwt beam="2">  1       -1 0.95408372E-01 0.10000553E+04</pdfrwt>
<totfact> 0.75224941E+01</totfact>
</mgrwt>
</event>
<event>
 9    1  0.4321150E-036  0.9884891E+03  0.7818608E-02  0.8692078E-01
          2   -1    0    0  501    0  0.00000000000E+00  0.00000000000E+00  0.18836453542E+03  0.18836453542E+03  0.00000000000E+00 0. -1.
         -2   -1    0    0    0  501 -0.00000000000E+00 -0.00000000000E+00 -0.12968348756E+04  0.12968348756E+04  0.00000000000E+00 0. -1.
         36    2    1    2    0    0  0.00000000000E+00  0.42632564146E-13 -0.11084703402E+04  0.14851994110E+04  0.98848914787E+03 0.  0.
         25    2    3    3    0    0  0.12387790134E+02  0.52155322988E+02 -0.37366230541E+03  0.39736457906E+03  0.12410259928E+03 0.  0.
         35    2    3    3    0    0 -0.12387790134E+02 -0.52155322988E+02 -0.73480803478E+03  0.10878348320E+04  0.80035500787E+03 0.  0.
         22    1    5    5    0    0  0.72161390775E+02 -0.33214510311E+03 -0.71857533766E+03  0.79490763723E+03  0.00000000000E+00 0. -1.
         22    1    5    5    0    0 -0.84549180909E+02  0.27998978012E+03 -0.16232697120E+02  0.29292719474E+03  0.00000000000E+00 0. -1.
          5    1    4    4  502    0  0.32421540629E+02  0.50612648103E+02 -0.67489096143E+02  0.90496765373E+02  0.47000000000E+01 0. -1.
         -5    1    4    4    0  502 -0.20033750495E+02  0.15426748851E+01 -0.30617320927E+03  0.30686781369E+03  0.47000000000E+01 0. -1.
<mgrwt>
<rscale>  0 0.98848915E+03</rscale>
<asrwt>0</asrwt>
<pdfrwt beam="1">  1        2 0.28979158E-01 0.98848915E+03</pdfrwt>
<pdfrwt beam="2">  1       -2 0.19951306E+00 0.98848915E+03</pdfrwt>
<totfact> 0.27072488E+01</totfact>
</mgrwt>
</event>
<event>
 9    1  0.4321150E-036  0.1000464E+04  0.7818608E-02  0.8680596E-01
         -2   -1    0    0    0  501 -0.00000000000E+00  0.00000000000E+00  0.12804795831E+03  0.12804795831E+03  0.00000000000E+00 0.  1.
          2   -1    0    0  501    0  0.00000000000E+00 -0.00000000000E+00 -0.19542046359E+04  0.19542046359E+04  0.00000000000E+00 0.  1.
         36    2    1    2    0    0 -0.71054273576E-14  0.00000000000E+00 -0.18261566776E+04  0.20822525942E+04  0.10004637200E+04 0.  0.
         25    2    3    3    0    0  0.63565105469E+02  0.11162091804E+03 -0.46295080532E+03  0.49643227792E+03  0.12498722511E+03 0.  0.
         35    2    3    3    0    0 -0.63565105469E+02 -0.11162091804E+03 -0.13632058723E+04  0.15858203163E+04  0.79999754585E+03 0.  0.
         22    1    5    5    0    0 -0.28753120110E+03 -0.30330217284E+03 -0.39996452224E+03  0.57847905641E+03  0.00000000000E+00 0.  1.
         22    1    5    5    0    0  0.22396609563E+03  0.19168125480E+03 -0.96324135005E+03  0.10073412599E+04  0.00000000000E+00 0.  1.
          5    1    4    4  502    0  0.60256828729E+02  0.90753091283E+01 -0.84458912469E+02  0.10425279152E+03  0.47000000000E+01 0. -1.
         -5    1    4    4    0  502  0.33082767400E+01  0.10254560892E+03 -0.37849189285E+03  0.39217948640E+03  0.47000000000E+01 0. -1.
<mgrwt>
<rscale>  0 0.10004637E+04</rscale>
<asrwt>0</asrwt>
<pdfrwt beam="1">  1        2 0.30064687E+00 0.10004637E+04</pdfrwt>
<pdfrwt beam="2">  1       -2 0.19699685E-01 0.10004637E+04</pdfrwt>
<totfact> 0.18270812E+02</totfact>
</mgrwt>
</event>
<event>
 9    1  0.4321150E-036  0.9997551E+03  0.7818608E-02  0.8681271E-01
         -2   -1    0    0    0  501 -0.00000000000E+00  0.00000000000E+00  0.43026699626E+03  0.43026699626E+03  0.00000000000E+00 0. -1.
          2   -1    0    0  501    0  0.00000000000E+00 -0.00000000000E+00 -0.58075001005E+03  0.58075001005E+03  0.00000000000E+00 0. -1.
         36    2    1    2    0    0  0.00000000000E+00  0.00000000000E+00 -0.15048301379E+03  0.10110170063E+04  0.99975509482E+03 0.  0.
         25    2    3    3    0    0 -0.65200502285E+02 -0.10296713824E+03 -0.95955451768E+02  0.20001530020E+03  0.12627483730E+03 0.  0.
         35    2    3    3    0    0  0.65200502285E+02  0.10296713824E+03 -0.54527562025E+02  0.81100170611E+03  0.79993573194E+03 0.  0.
         22    1    5    5    0    0  0.83314829462E+02  0.13922818251E+03  0.35980209845E+03  0.39469405577E+03  0.00000000000E+00 0. -1.
         22    1    5    5    0    0 -0.18114327176E+02 -0.36261044263E+02 -0.41432966048E+03  0.41630765034E+03  0.00000000000E+00 0. -1.
          5    1    4    4  502    0 -0.22898034777E+02  0.22149748636E+02  0.64280824817E+01  0.32838112090E+02  0.47000000000E+01 0. -1.
         -5    1    4    4    0  502 -0.42302467509E+02 -0.12511688688E+03 -0.10238353425E+03  0.16717718811E+03  0.47000000000E+01 0. -1.
<mgrwt>
<rscale>  0 0.99975509E+03</rscale>
<asrwt>0</asrwt>
<pdfrwt beam="1">  1        2 0.89346154E-01 0.99975509E+03</pdfrwt>
<pdfrwt beam="2">  1       -2 0.66194923E-01 0.99975509E+03</pdfrwt>
<totfact> 0.13100945E+02</totfact>
</mgrwt>
</event>
<event>
 9    1  0.4321150E-036  0.1000766E+04  0.7818608E-02  0.8680309E-01
          1   -1    0    0  501    0  0.00000000000E+00  0.00000000000E+00  0.89910049602E+03  0.89910049602E+03  0.00000000000E+00 0. -1.
         -1   -1    0    0    0  501 -0.00000000000E+00 -0.00000000000E+00 -0.27848187521E+03  0.27848187521E+03  0.00000000000E+00 0. -1.
         36    2    1    2    0    0 -0.14210854715E-13  0.14210854715E-13  0.62061862081E+03  0.11775823712E+04  0.10007660908E+04 0.  0.
         25    2    3    3    0    0 -0.74099344126E+02 -0.10093518998E+03  0.29986994371E+02  0.17494946114E+03  0.11844605838E+03 0.  0.
         35    2    3    3    0    0  0.74099344126E+02  0.10093518998E+03  0.59063162643E+03  0.10026329101E+04  0.80046761888E+03 0.  0.
         22    1    5    5    0    0  0.23282535264E+03 -0.12191115150E+03 -0.82962641457E+02  0.27559530760E+03  0.00000000000E+00 0. -1.
         22    1    5    5    0    0 -0.15872600852E+03  0.22284634149E+03  0.67359426789E+03  0.72703760249E+03  0.00000000000E+00 0. -1.
          5    1    4    4  502    0 -0.94824417372E+02 -0.98517293569E+02  0.49989490706E+02  0.14566525476E+03  0.47000000000E+01 0. -1.
         -5    1    4    4    0  502  0.20725073246E+02 -0.24178964135E+01 -0.20002496334E+02  0.29284206387E+02  0.47000000000E+01 0. -1.
<mgrwt>
<rscale>  0 0.10007661E+04</rscale>
<asrwt>0</asrwt>
<pdfrwt beam="1">  1        1 0.13832315E+00 0.10007661E+04</pdfrwt>
<pdfrwt beam="2">  1       -1 0.42843366E-01 0.10007661E+04</pdfrwt>
<totfact> 0.11040504E+02</totfact>
</mgrwt>
</event>
<event>
 9    1  0.4321150E-036  0.1000224E+04  0.7818608E-02  0.8680825E-01
         -1   -1    0    0    0  501 -0.00000000000E+00  0.00000000000E+00  0.43731357386E+03  0.43731357386E+03  0.00000000000E+00 0. -1.
          1   -1    0    0  501    0  0.00000000000E+00 -0.00000000000E+00 -0.57192836427E+03  0.57192836427E+03  0.00000000000E+00 0. -1.
         36    2    1    2    0    0  0.00000000000E+00  0.00000000000E+00 -0.13461479040E+03  0.10092419381E+04  0.10002240488E+04 0.  0.
         25    2    3    3    0    0  0.11464804792E+03 -0.84358681375E+02 -0.22405688571E+02  0.18843839205E+03  0.12143496491E+03 0.  0.
         35    2    3    3    0    0 -0.11464804792E+03  0.84358681375E+02 -0.11220910183E+03  0.82080354608E+03  0.80054170204E+03 0.  0.
         22    1    5    5    0    0  0.11123079083E+03 -0.48769814359E+02  0.30486254562E+03  0.32816452481E+03  0.00000000000E+00 0. -1.
         22    1    5    5    0    0 -0.22587883875E+03  0.13312849573E+03 -0.41707164745E+03  0.49263902127E+03  0.00000000000E+00 0. -1.
          5    1    4    4  502    0  0.60547993801E+02 -0.71743067837E+02  0.42259782846E+02  0.10305875306E+03  0.47000000000E+01 0. -1.
         -5    1    4    4    0  502  0.54100054122E+02 -0.12615613538E+02 -0.64665471417E+02  0.85379638993E+02  0.47000000000E+01 0. -1.
<mgrwt>
<rscale>  0 0.10002240E+04</rscale>
<asrwt>0</asrwt>
<pdfrwt beam="1">  1        1 0.87988979E-01 0.10002240E+04</pdfrwt>
<pdfrwt beam="2">  1       -1 0.67279012E-01 0.10002240E+04</pdfrwt>
<totfact> 0.95935550E+01</totfact>
</mgrwt>
</event>
<event>
 9    1  0.4321150E-036  0.1000626E+04  0.7818608E-02  0.8680442E-01
          1   -1    0    0  501    0  0.00000000000E+00  0.00000000000E+00  0.93775209917E+03  0.93775209917E+03  0.00000000000E+00 0. -1.
         -1   -1    0    0    0  501 -0.00000000000E+00 -0.00000000000E+00 -0.26692902168E+03  0.26692902168E+03  0.00000000000E+00 0. -1.
         36    2    1    2    0    0  0.00000000000E+00  0.71054273576E-14  0.67082307748E+03  0.12046811209E+04  0.10006263047E+04 0.  0.
         25    2    3    3    0    0  0.11585224419E+02  0.69936044157E+01 -0.42527332649E+02  0.13222307146E+03  0.12446380468E+03 0.  0.
         35    2    3    3    0    0 -0.11585224419E+02 -0.69936044157E+01  0.71335041013E+03  0.10724580494E+04  0.80069615470E+03 0.  0.
         22    1    5    5    0    0  0.36056247329E+03 -0.12468951416E+03  0.49584111487E+03  0.62562863049E+03  0.00000000000E+00 0.  1.
         22    1    5    5    0    0 -0.37214769771E+03  0.11769590975E+03  0.21750929526E+03  0.44682941891E+03  0.00000000000E+00 0.  1.
          5    1    4    4  502    0  0.64682902714E+02  0.62290457754E+01 -0.18714446338E+01  0.65178763565E+02  0.47000000000E+01 0. -1.
         -5    1    4    4    0  502 -0.53097678295E+02  0.76455864029E+00 -0.40655888015E+02  0.67044307891E+02  0.47000000000E+01 0. -1.
<mgrwt>
<rscale>  0 0.10006263E+04</rscale>
<asrwt>0</asrwt>
<pdfrwt beam="1">  1        1 0.14426955E+00 0.10006263E+04</pdfrwt>
<pdfrwt beam="2">  1       -1 0.41066004E-01 0.10006263E+04</pdfrwt>
<totfact> 0.11069313E+02</totfact>
</mgrwt>
</event>
<event>
 9    1  0.4321150E-036  0.1000386E+04  0.7818608E-02  0.8680670E-01
         -1   -1    0    0    0  501 -0.00000000000E+00  0.00000000000E+00  0.63262943092E+03  0.63262943092E+03  0.00000000000E+00 0.  1.
          1   -1    0    0  501    0  0.00000000000E+00 -0.00000000000E+00 -0.39548144148E+03  0.39548144148E+03  0.00000000000E+00 0.  1.
         36    2    1    2    0    0 -0.35527136788E-14  0.00000000000E+00  0.23714798944E+03  0.10281108724E+04  0.10003863239E+04 0.  0.
         25    2    3    3    0    0  0.11750126991E+02  0.13699953724E+03  0.13935092516E+02  0.18628006602E+03  0.12489650717E+03 0.  0.
         35    2    3    3    0    0 -0.11750126991E+02 -0.13699953724E+03  0.22321289693E+03  0.84183080638E+03  0.79996760593E+03 0.  0.
         22    1    5    5    0    0  0.68319125556E+02 -0.95705808501E+02  0.51924533030E+03  0.53239348018E+03  0.00000000000E+00 0.  1.
         22    1    5    5    0    0 -0.80069252547E+02 -0.41293728735E+02 -0.29603243338E+03  0.30943732620E+03  0.00000000000E+00 0.  1.
          5    1    4    4  502    0 -0.27797281785E+02  0.20850168314E+02 -0.39107706209E+02  0.52525432681E+02  0.47000000000E+01 0. -1.
         -5    1    4    4    0  502  0.39547408776E+02  0.11614936892E+03  0.53042798726E+02  0.13375463333E+03  0.47000000000E+01 0. -1.
<mgrwt>
<rscale>  0 0.10003863E+04</rscale>
<asrwt>0</asrwt>
<pdfrwt beam="1">  1        1 0.60843299E-01 0.10003863E+04</pdfrwt>
<pdfrwt beam="2">  1       -1 0.97327605E-01 0.10003863E+04</pdfrwt>
<totfact> 0.73873993E+01</totfact>
</mgrwt>
</event>
<event>
 9    1  0.4321150E-036  0.9954104E+03  0.7818608E-02  0.8685421E-01
          1   -1    0    0  501    0  0.00000000000E+00  0.00000000000E+00  0.19034063894E+04  0.19034063894E+04  0.00000000000E+00 0. -1.
         -1   -1    0    0    0  501 -0.00000000000E+00 -0.00000000000E+00 -0.13014059887E+03  0.13014059887E+03  0.00000000000E+00 0. -1.
         36    2    1    2    0    0  0.00000000000E+00  0.28421709430E-13  0.17732657906E+04  0.20335469883E+04  0.99541036246E+03 0.  0.
         25    2    3    3    0    0 -0.83773698456E+02 -0.10053560852E+03  0.33652588293E+03  0.38207804098E+03  0.12493405613E+03 0.  0.
         35    2    3    3    0    0  0.83773698456E+02  0.10053560852E+03  0.14367399076E+04  0.16514689473E+04  0.80374291952E+03 0.  0.
         22    1    5    5    0    0 -0.26268813546E+03  0.31061323029E+03  0.78249060806E+03  0.88191676878E+03  0.00000000000E+00 0.  1.
         22    1    5    5    0    0  0.34646183392E+03 -0.21007762177E+03  0.65424929958E+03  0.76955217857E+03  0.00000000000E+00 0.  1.
          5    1    4    4  502    0 -0.97772730857E+01 -0.90929283818E+02  0.10781173105E+03  0.14145384079E+03  0.47000000000E+01 0.  1.
         -5    1    4    4    0  502 -0.73996425370E+02 -0.96063247049E+01  0.22871415188E+03  0.24062420018E+03  0.47000000000E+01 0.  1.
<mgrwt>
<rscale>  0 0.99541036E+03</rscale>
<asrwt>0</asrwt>
<pdfrwt beam="1">  1        1 0.29283173E+00 0.99541036E+03</pdfrwt>
<pdfrwt beam="2">  1       -1 0.20021632E-01 0.99541036E+03</pdfrwt>
<totfact> 0.74329598E+01</totfact>
</mgrwt>
</event>
<event>
 9    1  0.4321150E-036  0.9864776E+03  0.7818608E-02  0.8694023E-01
          2   -1    0    0  501    0  0.00000000000E+00  0.00000000000E+00  0.11095217545E+04  0.11095217545E+04  0.00000000000E+00 0.  1.
         -2   -1    0    0    0  501 -0.00000000000E+00 -0.00000000000E+00 -0.21926970284E+03  0.21926970284E+03  0.00000000000E+00 0.  1.
         36    2    1    2    0    0  0.00000000000E+00 -0.14210854715E-13  0.89025205164E+03  0.13287914573E+04  0.98647758292E+03 0.  0.
         25    2    3    3    0    0 -0.11306209934E+03 -0.18617137059E+02  0.26078843399E+03  0.31110319356E+03  0.12507978910E+03 0.  0.
         35    2    3    3    0    0  0.11306209934E+03  0.18617137059E+02  0.62946361765E+03  0.10176882638E+04  0.79141349506E+03 0.  0.
         22    1    5    5    0    0  0.83726297790E+02  0.21946582524E+03  0.74705042063E+03  0.78310897860E+03  0.00000000000E+00 0.  1.
         22    1    5    5    0    0  0.29335801548E+02 -0.20084868818E+03 -0.11758680298E+03  0.23457928517E+03  0.00000000000E+00 0.  1.
          5    1    4    4  502    0 -0.13221052031E+03  0.93421091765E+01  0.22770128837E+03  0.26350875396E+03  0.47000000000E+01 0. -1.
         -5    1    4    4    0  502  0.19148420976E+02 -0.27959246236E+02  0.33087145611E+02  0.47594439597E+02  0.47000000000E+01 0. -1.
<mgrwt>
<rscale>  0 0.98647758E+03</rscale>
<asrwt>0</asrwt>
<pdfrwt beam="1">  1        2 0.17069565E+00 0.98647758E+03</pdfrwt>
<pdfrwt beam="2">  1       -2 0.33733801E-01 0.98647758E+03</pdfrwt>
<totfact> 0.21288055E+02</totfact>
</mgrwt>
</event>
<event>
 9    1  0.4321150E-036  0.1000347E+04  0.7818608E-02  0.8680707E-01
          1   -1    0    0  501    0  0.00000000000E+00  0.00000000000E+00  0.18152662931E+04  0.18152662931E+04  0.00000000000E+00 0.  1.
         -1   -1    0    0    0  501 -0.00000000000E+00 -0.00000000000E+00 -0.13781650885E+03  0.13781650885E+03  0.00000000000E+00 0.  1.
         36    2    1    2    0    0  0.71054273576E-14 -0.14210854715E-13  0.16774497843E+04  0.19530828020E+04  0.10003472660E+04 0.  0.
         25    2    3    3    0    0  0.12095113261E+02  0.11216702615E+03  0.15276199678E+03  0.22744476923E+03  0.12516853387E+03 0.  0.
         35    2    3    3    0    0 -0.12095113261E+02 -0.11216702615E+03  0.15246877875E+04  0.17256380327E+04  0.80026622894E+03 0.  0.
         22    1    5    5    0    0 -0.37150170806E+03 -0.17304929157E+03  0.10499015211E+04  0.11270549145E+04  0.00000000000E+00 0.  1.
         22    1    5    5    0    0  0.35940659480E+03  0.60882265424E+02  0.47478626643E+03  0.59858311822E+03  0.00000000000E+00 0.  1.
          5    1    4    4  502    0 -0.23327816797E+02  0.11902152414E+02 -0.13648845656E+02  0.29903666269E+02  0.47000000000E+01 0.  1.
         -5    1    4    4    0  502  0.35422930058E+02  0.10026487374E+03  0.16641084244E+03  0.19754110297E+03  0.47000000000E+01 0.  1.
<mgrwt>
<rscale>  0 0.10003473E+04</rscale>
<asrwt>0</asrwt>
<pdfrwt beam="1">  1        1 0.27927172E+00 0.10003473E+04</pdfrwt>
<pdfrwt beam="2">  1       -1 0.21202541E-01 0.10003473E+04</pdfrwt>
<totfact> 0.77918175E+01</totfact>
</mgrwt>
</event>
<event>
 9    1  0.4321150E-036  0.1000161E+04  0.7818608E-02  0.8680884E-01
         -1   -1    0    0    0  501 -0.00000000000E+00  0.00000000000E+00  0.14131207824E+03  0.14131207824E+03  0.00000000000E+00 0.  1.
          1   -1    0    0  501    0  0.00000000000E+00 -0.00000000000E+00 -0.17697042777E+04  0.17697042777E+04  0.00000000000E+00 0.  1.
         36    2    1    2    0    0  0.00000000000E+00 -0.42632564146E-13 -0.16283921995E+04  0.19110163560E+04  0.10001611657E+04 0.  0.
         25    2    3    3    0    0  0.59260923132E+02  0.11641056666E+03 -0.38092643519E+03  0.42323423886E+03  0.13022670571E+03 0.  0.
         35    2    3    3    0    0 -0.59260923132E+02 -0.11641056666E+03 -0.12474657643E+04  0.14877821171E+04  0.80016343194E+03 0.  0.
         22    1    5    5    0    0 -0.17043069965E+03  0.30312811581E+03 -0.36373727415E+03  0.50322766477E+03  0.00000000000E+00 0.  1.
         22    1    5    5    0    0  0.11116977652E+03 -0.41953868248E+03 -0.88372849015E+03  0.98455445233E+03  0.00000000000E+00 0.  1.
          5    1    4    4  502    0  0.75047922760E+02  0.13186228391E+03 -0.26738312395E+03  0.30746654713E+03  0.47000000000E+01 0.  1.
         -5    1    4    4    0  502 -0.15786999629E+02 -0.15451717250E+02 -0.11354331124E+03  0.11576769174E+03  0.47000000000E+01 0.  1.
<mgrwt>
<rscale>  0 0.10001612E+04</rscale>
<asrwt>0</asrwt>
<pdfrwt beam="1">  1        1 0.27226220E+00 0.10001612E+04</pdfrwt>
<pdfrwt beam="2">  1       -1 0.21740320E-01 0.10001612E+04</pdfrwt>
<totfact> 0.80462083E+01</totfact>
</mgrwt>
</event>
<event>
 9    1  0.4321150E-036  0.9996457E+03  0.7818608E-02  0.8681375E-01
         -1   -1    0    0    0  501 -0.00000000000E+00  0.00000000000E+00  0.13151533092E+03  0.13151533092E+03  0.00000000000E+00 0.  1.
          1   -1    0    0  501    0  0.00000000000E+00 -0.00000000000E+00 -0.18995723294E+04  0.18995723294E+04  0.00000000000E+00 0.  1.
         36    2    1    2    0    0 -0.28421709430E-13 -0.14210854715E-13 -0.17680569985E+04  0.20310876604E+04  0.99964570425E+03 0.  0.
         25    2    3    3    0    0 -0.75011033783E+02 -0.89816921959E+02 -0.15454276207E+03  0.22676913459E+03  0.11767344831E+03 0.  0.
         35    2    3    3    0    0  0.75011033783E+02  0.89816921959E+02 -0.16135142365E+04  0.18043185258E+04  0.79902654306E+03 0.  0.
         22    1    5    5    0    0 -0.14538991177E+03 -0.14038010502E+03 -0.14138961208E+04  0.14282671461E+04  0.00000000000E+00 0. -1.
         22    1    5    5    0    0  0.22040094555E+03  0.23019702698E+03 -0.19961811568E+03  0.37605137965E+03  0.00000000000E+00 0. -1.
          5    1    4    4  502    0 -0.87860516759E+02 -0.22265839980E+02 -0.11766250778E+03  0.14859944068E+03  0.47000000000E+01 0.  1.
         -5    1    4    4    0  502  0.12849482975E+02 -0.67551081979E+02 -0.36880254293E+02  0.78169693910E+02  0.47000000000E+01 0.  1.
<mgrwt>
<rscale>  0 0.99964570E+03</rscale>
<asrwt>0</asrwt>
<pdfrwt beam="1">  1        1 0.29224191E+00 0.99964570E+03</pdfrwt>
<pdfrwt beam="2">  1       -1 0.20233127E-01 0.99964570E+03</pdfrwt>
<totfact> 0.73483779E+01</totfact>
</mgrwt>
</event>
<event>
 9    1  0.4321150E-036  0.1000257E+04  0.7818608E-02  0.8680793E-01
         -2   -1    0    0    0  501 -0.00000000000E+00  0.00000000000E+00  0.29032098418E+03  0.29032098418E+03  0.00000000000E+00 0. -1.
          2   -1    0    0  501    0  0.00000000000E+00 -0.00000000000E+00 -0.86155852285E+03  0.86155852285E+03  0.00000000000E+00 0. -1.
         36    2    1    2    0    0  0.14210854715E-13 -0.71054273576E-14 -0.57123753867E+03  0.11518795070E+04  0.10002570035E+04 0.  0.
         25    2    3    3    0    0  0.10759322977E+03 -0.43388251862E+02 -0.19675577702E+03  0.26023268711E+03  0.12469712169E+03 0.  0.
         35    2    3    3    0    0 -0.10759322977E+03  0.43388251862E+02 -0.37448176165E+03  0.89164681991E+03  0.80083619933E+03 0.  0.
         22    1    5    5    0    0  0.34032568880E+02 -0.29877905615E+03  0.74349014191E+02  0.30976590524E+03  0.00000000000E+00 0. -1.
         22    1    5    5    0    0 -0.14162579865E+03  0.34216730801E+03 -0.44883077584E+03  0.58188091467E+03  0.00000000000E+00 0. -1.
          5    1    4    4  502    0 -0.25007670715E+02  0.99004156489E+01 -0.29805626172E+02  0.40421122895E+02  0.47000000000E+01 0. -1.
         -5    1    4    4    0  502  0.13260090049E+03 -0.53288667511E+02 -0.16695015085E+03  0.21981156422E+03  0.47000000000E+01 0. -1.
<mgrwt>
<rscale>  0 0.10002570E+04</rscale>
<asrwt>0</asrwt>
<pdfrwt beam="1">  1        2 0.13254746E+00 0.10002570E+04</pdfrwt>
<pdfrwt beam="2">  1       -2 0.44664767E-01 0.10002570E+04</pdfrwt>
<totfact> 0.17922217E+02</totfact>
</mgrwt>
</event>
<event>
 9    1  0.4321150E-036  0.9996448E+03  0.7818608E-02  0.8681376E-01
         -2   -1    0    0    0  501 -0.00000000000E+00  0.00000000000E+00  0.75047298518E+03  0.75047298518E+03  0.00000000000E+00 0. -1.
          2   -1    0    0  501    0  0.00000000000E+00 -0.00000000000E+00 -0.33288663570E+03  0.33288663570E+03  0.00000000000E+00 0. -1.
         36    2    1    2    0    0  0.00000000000E+00 -0.28421709430E-13  0.41758634948E+03  0.10833596209E+04  0.99964479136E+03 0.  0.
         25    2    3    3    0    0  0.10867109426E+01 -0.78141089919E+02  0.19885244192E+03  0.25036836835E+03  0.13051749056E+03 0.  0.
         35    2    3    3    0    0 -0.10867109426E+01  0.78141089919E+02  0.21873390757E+03  0.83299125253E+03  0.79995168204E+03 0.  0.
         22    1    5    5    0    0 -0.21601549985E+03  0.33115180469E+03  0.29385545328E+03  0.49262078859E+03  0.00000000000E+00 0.  1.
         22    1    5    5    0    0  0.21492878891E+03 -0.25301071478E+03 -0.75121545717E+02  0.34037046394E+03  0.00000000000E+00 0.  1.
          5    1    4    4  502    0  0.64483365914E+02 -0.29303236827E+02  0.10759272658E+03  0.12889945299E+03  0.47000000000E+01 0. -1.
         -5    1    4    4    0  502 -0.63396654972E+02 -0.48837853091E+02  0.91259715341E+02  0.12146891537E+03  0.47000000000E+01 0. -1.
<mgrwt>
<rscale>  0 0.99964479E+03</rscale>
<asrwt>0</asrwt>
<pdfrwt beam="1">  1        2 0.51213329E-01 0.99964479E+03</pdfrwt>
<pdfrwt beam="2">  1       -2 0.11545738E+00 0.99964479E+03</pdfrwt>
<totfact> 0.66893516E+01</totfact>
</mgrwt>
</event>
<event>
 9    1  0.4321150E-036  0.1000601E+04  0.7818608E-02  0.8680466E-01
          2   -1    0    0  501    0  0.00000000000E+00  0.00000000000E+00  0.32806859925E+04  0.32806859925E+04  0.00000000000E+00 0. -1.
         -2   -1    0    0    0  501 -0.00000000000E+00 -0.00000000000E+00 -0.76295233653E+02  0.76295233653E+02  0.00000000000E+00 0. -1.
         36    2    1    2    0    0  0.14210854715E-13  0.14210854715E-13  0.32043907588E+04  0.33569812261E+04  0.10006012279E+04 0.  0.
         25    2    3    3    0    0  0.47044945982E+02  0.45151075964E+02  0.17895259895E+03  0.22794024380E+03  0.12522330243E+03 0.  0.
         35    2    3    3    0    0 -0.47044945982E+02 -0.45151075964E+02  0.30254381599E+04  0.31290409823E+04  0.79584518800E+03 0.  0.
         22    1    5    5    0    0 -0.66548127902E+02  0.13167888273E+03  0.29169292424E+04  0.29206581770E+04  0.00000000000E+00 0.  1.
         22    1    5    5    0    0  0.19503181920E+02 -0.17682995869E+03  0.10850891745E+03  0.20838280534E+03  0.00000000000E+00 0.  1.
          5    1    4    4  502    0  0.20321194289E+02  0.74658027003E+02  0.48433160489E+02  0.91403681371E+02  0.47000000000E+01 0. -1.
         -5    1    4    4    0  502  0.26723751694E+02 -0.29506951039E+02  0.13051943846E+03  0.13653656243E+03  0.47000000000E+01 0. -1.
<mgrwt>
<rscale>  0 0.10006012E+04</rscale>
<asrwt>0</asrwt>
<pdfrwt beam="1">  1        2 0.50472081E+00 0.10006012E+04</pdfrwt>
<pdfrwt beam="2">  1       -2 0.11737731E-01 0.10006012E+04</pdfrwt>
<totfact> 0.64365867E+01</totfact>
</mgrwt>
</event>
<event>
 9    1  0.4321150E-036  0.9990550E+03  0.7818608E-02  0.8681938E-01
         -1   -1    0    0    0  501 -0.00000000000E+00  0.00000000000E+00  0.78735177206E+03  0.78735177206E+03  0.00000000000E+00 0. -1.
          1   -1    0    0  501    0  0.00000000000E+00 -0.00000000000E+00 -0.31692025893E+03  0.31692025893E+03  0.00000000000E+00 0. -1.
         36    2    1    2    0    0  0.00000000000E+00  0.14210854715E-13  0.47043151313E+03  0.11042720310E+04  0.99905500844E+03 0.  0.
         25    2    3    3    0    0  0.31123350747E+02 -0.54598159544E+02 -0.49127365972E+02  0.14846996105E+03  0.12522064231E+03 0.  0.
         35    2    3    3    0    0 -0.31123350747E+02  0.54598159544E+02  0.51955887911E+03  0.95580206994E+03  0.79979156413E+03 0.  0.
         22    1    5    5    0    0  0.20194293936E+03 -0.22028627633E+03  0.51494929950E+03  0.59538204151E+03  0.00000000000E+00 0.  1.
         22    1    5    5    0    0 -0.23306629010E+03  0.27488443587E+03  0.46095796021E+01  0.36042002843E+03  0.00000000000E+00 0.  1.
          5    1    4    4  502    0  0.62957103655E+01 -0.81737411959E+01 -0.84249564992E+02  0.85008971382E+02  0.47000000000E+01 0. -1.
         -5    1    4    4    0  502  0.24827640381E+02 -0.46424418348E+02  0.35122199020E+02  0.63460989669E+02  0.47000000000E+01 0. -1.
<mgrwt>
<rscale>  0 0.99905501E+03</rscale>
<asrwt>0</asrwt>
<pdfrwt beam="1">  1        1 0.48756963E-01 0.99905501E+03</pdfrwt>
<pdfrwt beam="2">  1       -1 0.12113104E+00 0.99905501E+03</pdfrwt>
<totfact> 0.59329000E+01</totfact>
</mgrwt>
</event>
<event>
 9    1  0.4321150E-036  0.9972154E+03  0.7818608E-02  0.8683694E-01
          1   -1    0    0  501    0  0.00000000000E+00  0.00000000000E+00  0.12376911985E+04  0.12376911985E+04  0.00000000000E+00 0. -1.
         -1   -1    0    0    0  501 -0.00000000000E+00 -0.00000000000E+00 -0.20086562506E+03  0.20086562506E+03  0.00000000000E+00 0. -1.
         36    2    1    2    0    0 -0.28421709430E-13  0.00000000000E+00  0.10368255734E+04  0.14385568235E+04  0.99721535530E+03 0.  0.
         25    2    3    3    0    0  0.11207955722E+03  0.76451727042E+02  0.21623353943E+03  0.28448887064E+03  0.12557977636E+03 0.  0.
         35    2    3    3    0    0 -0.11207955722E+03 -0.76451727042E+02  0.82059203396E+03  0.11540679529E+04  0.80005928527E+03 0.  0.
         22    1    5    5    0    0 -0.30938377148E+03 -0.29710937054E+02  0.20790700145E+01  0.31081406077E+03  0.00000000000E+00 0. -1.
         22    1    5    5    0    0  0.19730421427E+03 -0.46740789988E+02  0.81851296395E+03  0.84325389211E+03  0.00000000000E+00 0. -1.
          5    1    4    4  502    0  0.38381495136E+02 -0.58938830312E-01  0.15918882323E+03  0.16381792967E+03  0.47000000000E+01 0.  1.
         -5    1    4    4    0  502  0.73698062080E+02  0.76510665872E+02  0.57044716200E+02  0.12067094096E+03  0.47000000000E+01 0.  1.
<mgrwt>
<rscale>  0 0.99721536E+03</rscale>
<asrwt>0</asrwt>
<pdfrwt beam="1">  1        1 0.19041403E+00 0.99721536E+03</pdfrwt>
<pdfrwt beam="2">  1       -1 0.30902405E-01 0.99721536E+03</pdfrwt>
<totfact> 0.10679334E+02</totfact>
</mgrwt>
</event>
<event>
 9    1  0.4321150E-036  0.1000935E+04  0.7818608E-02  0.8680148E-01
          2   -1    0    0  501    0  0.00000000000E+00  0.00000000000E+00  0.33438072141E+04  0.33438072141E+04  0.00000000000E+00 0.  1.
         -2   -1    0    0    0  501 -0.00000000000E+00 -0.00000000000E+00 -0.74905018523E+02  0.74905018523E+02  0.00000000000E+00 0.  1.
         36    2    1    2    0    0  0.00000000000E+00  0.00000000000E+00  0.32689021956E+04  0.34187122327E+04  0.10009354451E+04 0.  0.
         25    2    3    3    0    0  0.86220051730E+02 -0.99816236172E+02  0.43372855195E+03  0.47009896728E+03  0.12440017660E+03 0.  0.
         35    2    3    3    0    0 -0.86220051730E+02  0.99816236172E+02  0.28351736437E+04  0.29486132654E+04  0.79919548342E+03 0.  0.
         22    1    5    5    0    0 -0.74021016489E+01 -0.10788585545E+03  0.34559285368E+01  0.10819469653E+03  0.00000000000E+00 0. -1.
         22    1    5    5    0    0 -0.78817950081E+02  0.20770209162E+03  0.28317177151E+04  0.28404185689E+04  0.00000000000E+00 0. -1.
          5    1    4    4  502    0 -0.24655298374E+02 -0.40598475360E+02  0.65990128240E+02  0.81442660594E+02  0.47000000000E+01 0. -1.
         -5    1    4    4    0  502  0.11087535010E+03 -0.59217760813E+02  0.36773842371E+03  0.38865630669E+03  0.47000000000E+01 0. -1.
<mgrwt>
<rscale>  0 0.10009354E+04</rscale>
<asrwt>0</asrwt>
<pdfrwt beam="1">  1        2 0.51443176E+00 0.10009354E+04</pdfrwt>
<pdfrwt beam="2">  1       -2 0.11523852E-01 0.10009354E+04</pdfrwt>
<totfact> 0.59753761E+01</totfact>
</mgrwt>
</event>
<event>
 9    1  0.4321150E-036  0.1000334E+04  0.7818608E-02  0.8680720E-01
          1   -1    0    0  501    0  0.00000000000E+00  0.00000000000E+00  0.18063076414E+04  0.18063076414E+04  0.00000000000E+00 0.  1.
         -1   -1    0    0    0  501 -0.00000000000E+00 -0.00000000000E+00 -0.13849641654E+03  0.13849641654E+03  0.00000000000E+00 0.  1.
         36    2    1    2    0    0  0.00000000000E+00 -0.14210854715E-13  0.16678112248E+04  0.19448040579E+04  0.10003342151E+04 0.  0.
         25    2    3    3    0    0 -0.50998534220E+02  0.10822103509E+03  0.16981170975E+03  0.24233754260E+03  0.12481516276E+03 0.  0.
         35    2    3    3    0    0  0.50998534220E+02 -0.10822103509E+03  0.14979995151E+04  0.17024665153E+04  0.80004815207E+03 0.  0.
         22    1    5    5    0    0 -0.34624419902E+03  0.48510056523E+02  0.91712820897E+03  0.98151027638E+03  0.00000000000E+00 0.  1.
         22    1    5    5    0    0  0.39724273324E+03 -0.15673109161E+03  0.58087130611E+03  0.72095623893E+03  0.00000000000E+00 0.  1.
          5    1    4    4  502    0 -0.71419269762E+01  0.81029333919E+02  0.17216094864E+03  0.19046848115E+03  0.47000000000E+01 0. -1.
         -5    1    4    4    0  502 -0.43856607244E+02  0.27191701172E+02 -0.23492388926E+01  0.51869061443E+02  0.47000000000E+01 0. -1.
<mgrwt>
<rscale>  0 0.10003342E+04</rscale>
<asrwt>0</asrwt>
<pdfrwt beam="1">  1        1 0.27789347E+00 0.10003342E+04</pdfrwt>
<pdfrwt beam="2">  1       -1 0.21307142E-01 0.10003342E+04</pdfrwt>
<totfact> 0.78412094E+01</totfact>
</mgrwt>
</event>
<event>
 9    1  0.4321150E-036  0.9988822E+03  0.7818608E-02  0.8682103E-01
         -2   -1    0    0    0  501 -0.00000000000E+00  0.00000000000E+00  0.14387558585E+03  0.14387558585E+03  0.00000000000E+00 0.  1.
          2   -1    0    0  501    0  0.00000000000E+00 -0.00000000000E+00 -0.17337299342E+04  0.17337299342E+04  0.00000000000E+00 0.  1.
         36    2    1    2    0    0 -0.28421709430E-13  0.00000000000E+00 -0.15898543483E+04  0.18776055200E+04  0.99888219522E+03 0.  0.
         25    2    3    3    0    0 -0.80338099646E+02 -0.38655833102E+02 -0.98838661879E+02  0.18335592222E+03  0.12610245614E+03 0.  0.
         35    2    3    3    0    0  0.80338099646E+02  0.38655833102E+02 -0.14910156864E+04  0.16942495978E+04  0.79962831287E+03 0.  0.
         22    1    5    5    0    0 -0.23032771305E+03  0.19274215367E+03 -0.20833460732E+03  0.36551840147E+03  0.00000000000E+00 0. -1.
         22    1    5    5    0    0  0.31066581270E+03 -0.15408632057E+03 -0.12826810791E+04  0.13287311963E+04  0.00000000000E+00 0. -1.
          5    1    4    4  502    0 -0.11087031358E+03 -0.21917669293E+02 -0.95546448733E+02  0.14806695960E+03  0.47000000000E+01 0.  1.
         -5    1    4    4    0  502  0.30532213932E+02 -0.16738163809E+02 -0.32922131459E+01  0.35288962619E+02  0.47000000000E+01 0.  1.
<mgrwt>
<rscale>  0 0.99888220E+03</rscale>
<asrwt>0</asrwt>
<pdfrwt beam="1">  1        2 0.26672767E+00 0.99888220E+03</pdfrwt>
<pdfrwt beam="2">  1       -2 0.22134706E-01 0.99888220E+03</pdfrwt>
<totfact> 0.19879965E+02</totfact>
</mgrwt>
</event>
<event>
 9    1  0.4321150E-036  0.1002538E+04  0.7818608E-02  0.8678625E-01
         -2   -1    0    0    0  501 -0.00000000000E+00  0.00000000000E+00  0.18557652523E+03  0.18557652523E+03  0.00000000000E+00 0.  1.
          2   -1    0    0  501    0  0.00000000000E+00 -0.00000000000E+00 -0.13540000546E+04  0.13540000546E+04  0.00000000000E+00 0.  1.
         36    2    1    2    0    0 -0.25757174171E-13 -0.14210854715E-13 -0.11684235294E+04  0.15395765799E+04  0.10025380298E+04 0.  0.
         25    2    3    3    0    0 -0.66629278001E+01  0.53244021975E+02 -0.42517879013E+03  0.44635200218E+03  0.12479497504E+03 0.  0.
         35    2    3    3    0    0  0.66629278001E+01 -0.53244021975E+02 -0.74324473926E+03  0.10932245777E+04  0.79990494080E+03 0.  0.
         22    1    5    5    0    0 -0.28698654963E+03 -0.19033061019E+03 -0.68115849257E+03  0.76325874567E+03  0.00000000000E+00 0. -1.
         22    1    5    5    0    0  0.29364947743E+03  0.13708658821E+03 -0.62086246694E+02  0.32996583201E+03  0.00000000000E+00 0. -1.
          5    1    4    4  502    0  0.65548474169E+01  0.91610872958E+02 -0.24740038603E+03  0.26394044608E+03  0.47000000000E+01 0. -1.
         -5    1    4    4    0  502 -0.13217775217E+02 -0.38366850983E+02 -0.17777840410E+03  0.18241155610E+03  0.47000000000E+01 0. -1.
<mgrwt>
<rscale>  0 0.10025380E+04</rscale>
<asrwt>0</asrwt>
<pdfrwt beam="1">  1        2 0.20830771E+00 0.10025380E+04</pdfrwt>
<pdfrwt beam="2">  1       -2 0.28550234E-01 0.10025380E+04</pdfrwt>
<totfact> 0.20751656E+02</totfact>
</mgrwt>
</event>
<event>
 9    1 -0.4321150E-036  0.9998723E+03  0.7818608E-02  0.8681160E-01
         -1   -1    0    0    0  501 -0.00000000000E+00  0.00000000000E+00  0.29090148272E+04  0.29090148272E+04  0.00000000000E+00 0. -1.
          1   -1    0    0  501    0  0.00000000000E+00 -0.00000000000E+00 -0.85917798473E+02  0.85917798473E+02  0.00000000000E+00 0. -1.
         36    2    1    2    0    0 -0.14210854715E-13 -0.21316282073E-13  0.28230970288E+04  0.29949326257E+04  0.99987229121E+03 0.  0.
         25    2    3    3    0    0  0.78728453114E+02 -0.46507850266E+02  0.20876086438E+03  0.25930848141E+03  0.12368767346E+03 0.  0.
         35    2    3    3    0    0 -0.78728453114E+02  0.46507850266E+02  0.26143361644E+04  0.27356241443E+04  0.80032788845E+03 0.  0.
         22    1    5    5    0    0  0.43232640543E+02  0.32834676276E+03  0.21721960830E+04  0.21972975403E+04  0.00000000000E+00 0.  1.
         22    1    5    5    0    0 -0.12196109366E+03 -0.28183891250E+03  0.44214008140E+03  0.53832660397E+03  0.00000000000E+00 0.  1.
          5    1    4    4  502    0 -0.14490166395E+02  0.13524428006E+02  0.10640362119E+03  0.10833603130E+03  0.47000000000E+01 0.  1.
         -5    1    4    4    0  502  0.93218619509E+02 -0.60032278272E+02  0.10235724319E+03  0.15097245011E+03  0.47000000000E+01 0.  1.
<mgrwt>
<rscale>  0 0.99987229E+03</rscale>
<asrwt>0</asrwt>
<pdfrwt beam="1">  1        1 0.13218125E-01 0.99987229E+03</pdfrwt>
<pdfrwt beam="2">  1       -1 0.44754067E+00 0.99987229E+03</pdfrwt>
<totfact>-0.27464253E+00</totfact>
</mgrwt>
</event>
<event>
 9    1  0.4321150E-036  0.1000262E+04  0.7818608E-02  0.8680788E-01
          2   -1    0    0  501    0  0.00000000000E+00  0.00000000000E+00  0.17752099872E+04  0.17752099872E+04  0.00000000000E+00 0.  1.
         -2   -1    0    0    0  501 -0.00000000000E+00 -0.00000000000E+00 -0.14090226118E+03  0.14090226118E+03  0.00000000000E+00 0.  1.
         36    2    1    2    0    0  0.71054273576E-14  0.28421709430E-13  0.16343077260E+04  0.19161122483E+04  0.10002621682E+04 0.  0.
         25    2    3    3    0    0  0.24914468286E+02  0.86495643576E+01  0.42405533745E+02  0.13435909507E+03  0.12473408293E+03 0.  0.
         35    2    3    3    0    0 -0.24914468286E+02 -0.86495643576E+01  0.15919021922E+04  0.17817531533E+04  0.79987259225E+03 0.  0.
         22    1    5    5    0    0 -0.28507937167E+03  0.28354886510E+03  0.92411097520E+03  0.10077952677E+04  0.00000000000E+00 0. -1.
         22    1    5    5    0    0  0.26016490338E+03 -0.29219842946E+03  0.66779121705E+03  0.77395788561E+03  0.00000000000E+00 0. -1.
          5    1    4    4  502    0 -0.46991245978E+02 -0.74056944052E+01  0.36787740819E+02  0.60319560532E+02  0.47000000000E+01 0. -1.
         -5    1    4    4    0  502  0.71905714264E+02  0.16055258763E+02  0.56177929259E+01  0.74039534542E+02  0.47000000000E+01 0. -1.
<mgrwt>
<rscale>  0 0.10002622E+04</rscale>
<asrwt>0</asrwt>
<pdfrwt beam="1">  1        2 0.27310921E+00 0.10002622E+04</pdfrwt>
<pdfrwt beam="2">  1       -2 0.21677272E-01 0.10002622E+04</pdfrwt>
<totfact> 0.19538040E+02</totfact>
</mgrwt>
</event>
<event>
 9    1  0.4321150E-036  0.1000160E+04  0.7818608E-02  0.8680885E-01
          1   -1    0    0  501    0  0.00000000000E+00  0.00000000000E+00  0.97554436331E+03  0.97554436331E+03  0.00000000000E+00 0. -1.
         -1   -1    0    0    0  501 -0.00000000000E+00 -0.00000000000E+00 -0.25634927999E+03  0.25634927999E+03  0.00000000000E+00 0. -1.
         36    2    1    2    0    0 -0.14210854715E-13 -0.21316282073E-13  0.71919508332E+03  0.12318936433E+04  0.10001601774E+04 0.  0.
         25    2    3    3    0    0  0.12736623200E+03  0.35241385893E+02  0.16538924768E+03  0.24634746217E+03  0.12597363430E+03 0.  0.
         35    2    3    3    0    0 -0.12736623200E+03 -0.35241385893E+02  0.55380583564E+03  0.98554618113E+03  0.80444779769E+03 0.  0.
         22    1    5    5    0    0 -0.15736228255E+03  0.35428968647E+03  0.42246243024E+03  0.57337472466E+03  0.00000000000E+00 0. -1.
         22    1    5    5    0    0  0.29996050555E+02 -0.38953107237E+03  0.13134340540E+03  0.41217145647E+03  0.00000000000E+00 0. -1.
          5    1    4    4  502    0  0.60698301050E+02  0.23695482053E+01 -0.42540197066E+01  0.61074423392E+02  0.47000000000E+01 0. -1.
         -5    1    4    4    0  502  0.66667930949E+02  0.32871837688E+02  0.16964326738E+03  0.18527303878E+03  0.47000000000E+01 0. -1.
<mgrwt>
<rscale>  0 0.10001602E+04</rscale>
<asrwt>0</asrwt>
<pdfrwt beam="1">  1        1 0.15008375E+00 0.10001602E+04</pdfrwt>
<pdfrwt beam="2">  1       -1 0.39438351E-01 0.10001602E+04</pdfrwt>
<totfact> 0.11087383E+02</totfact>
</mgrwt>
</event>
<event>
 9    1  0.4321150E-036  0.1000017E+04  0.7818608E-02  0.8681022E-01
          2   -1    0    0  501    0  0.00000000000E+00  0.00000000000E+00  0.63994554154E+03  0.63994554154E+03  0.00000000000E+00 0.  1.
         -2   -1    0    0    0  501 -0.00000000000E+00 -0.00000000000E+00 -0.39067140990E+03  0.39067140990E+03  0.00000000000E+00 0.  1.
         36    2    1    2    0    0  0.14210854715E-13 -0.28421709430E-13  0.24927413165E+03  0.10306169514E+04  0.10000168538E+04 0.  0.
         25    2    3    3    0    0  0.51051202967E+02 -0.12724880704E+03  0.70146268193E+02  0.19887413548E+03  0.12582503171E+03 0.  0.
         35    2    3    3    0    0 -0.51051202967E+02  0.12724880704E+03  0.17912786345E+03  0.83174281596E+03  0.80056907023E+03 0.  0.
         22    1    5    5    0    0 -0.10472705400E+03  0.25097416413E+03  0.45191883318E+03  0.52743380503E+03  0.00000000000E+00 0.  1.
         22    1    5    5    0    0  0.53675851036E+02 -0.12372535708E+03 -0.27279096973E+03  0.30430901093E+03  0.00000000000E+00 0.  1.
          5    1    4    4  502    0  0.21923621527E+02 -0.13058465393E+03  0.92600387467E+02  0.16164751400E+03  0.47000000000E+01 0. -1.
         -5    1    4    4    0  502  0.29127581440E+02  0.33358468844E+01 -0.22454119274E+02  0.37226621487E+02  0.47000000000E+01 0. -1.
<mgrwt>
<rscale>  0 0.10000169E+04</rscale>
<asrwt>0</asrwt>
<pdfrwt beam="1">  1        2 0.98453160E-01 0.10000169E+04</pdfrwt>
<pdfrwt beam="2">  1       -2 0.60103294E-01 0.10000169E+04</pdfrwt>
<totfact> 0.14311831E+02</totfact>
</mgrwt>
</event>
<event>
 9    1  0.4321150E-036  0.1003129E+04  0.7818608E-02  0.8678064E-01
         -1   -1    0    0    0  501 -0.00000000000E+00  0.00000000000E+00  0.31523211806E+03  0.31523211806E+03  0.00000000000E+00 0. -1.
          1   -1    0    0  501    0  0.00000000000E+00 -0.00000000000E+00 -0.79803647081E+03  0.79803647081E+03  0.00000000000E+00 0. -1.
         36    2    1    2    0    0  0.14210854715E-13  0.14210854715E-13 -0.48280435275E+03  0.11132685889E+04  0.10031285600E+04 0.  0.
         25    2    3    3    0    0  0.65345852505E+02  0.82966366411E+02  0.15937885169E+02  0.16438947034E+03  0.12496552877E+03 0.  0.
         35    2    3    3    0    0 -0.65345852505E+02 -0.82966366411E+02 -0.49874223792E+03  0.94887911853E+03  0.80029635966E+03 0.  0.
         22    1    5    5    0    0  0.24050596075E+03 -0.19774133782E+03  0.44954776917E+02  0.31458812089E+03  0.00000000000E+00 0.  1.
         22    1    5    5    0    0 -0.30585181326E+03  0.11477497141E+03 -0.54369701484E+03  0.63429099763E+03  0.00000000000E+00 0.  1.
          5    1    4    4  502    0  0.97127467282E+02  0.75168050734E+02  0.32897060237E+02  0.12723320056E+03  0.47000000000E+01 0. -1.
         -5    1    4    4    0  502 -0.31781614777E+02  0.77983156772E+01 -0.16959175068E+02  0.37156269783E+02  0.47000000000E+01 0. -1.
<mgrwt>
<rscale>  0 0.10031286E+04</rscale>
<asrwt>0</asrwt>
<pdfrwt beam="1">  1        1 0.12277484E+00 0.10031286E+04</pdfrwt>
<pdfrwt beam="2">  1       -1 0.48497250E-01 0.10031286E+04</pdfrwt>
<totfact> 0.10755666E+02</totfact>
</mgrwt>
</event>
<event>
 9    1  0.4321150E-036  0.1000647E+04  0.7818608E-02  0.8680422E-01
         -2   -1    0    0    0  501 -0.00000000000E+00  0.00000000000E+00  0.21397749243E+03  0.21397749243E+03  0.00000000000E+00 0. -1.
          2   -1    0    0  501    0  0.00000000000E+00 -0.00000000000E+00 -0.11698604801E+04  0.11698604801E+04  0.00000000000E+00 0. -1.
         36    2    1    2    0    0 -0.56843418861E-13  0.21316282073E-13 -0.95588298765E+03  0.13838379725E+04  0.10006474145E+04 0.  0.
         25    2    3    3    0    0 -0.12804581349E+03  0.19529949180E+02 -0.25644193471E+03  0.31343361245E+03  0.12530368817E+03 0.  0.
         35    2    3    3    0    0  0.12804581349E+03 -0.19529949180E+02 -0.69944105294E+03  0.10704043601E+04  0.79985658603E+03 0.  0.
         22    1    5    5    0    0 -0.25986341027E+03 -0.18591799748E+03 -0.95320338120E+02  0.33343734141E+03  0.00000000000E+00 0. -1.
         22    1    5    5    0    0  0.38790922376E+03  0.16638804830E+03 -0.60412071482E+03  0.73696701865E+03  0.00000000000E+00 0. -1.
          5    1    4    4  502    0 -0.35072504765E+02 -0.50753385675E+02 -0.69152161787E+02  0.92790614976E+02  0.47000000000E+01 0.  1.
         -5    1    4    4    0  502 -0.92973308729E+02  0.70283334855E+02 -0.18728977292E+03  0.22064299748E+03  0.47000000000E+01 0.  1.
<mgrwt>
<rscale>  0 0.10006474E+04</rscale>
<asrwt>0</asrwt>
<pdfrwt beam="1">  1        2 0.17997854E+00 0.10006474E+04</pdfrwt>
<pdfrwt beam="2">  1       -2 0.32919613E-01 0.10006474E+04</pdfrwt>
<totfact> 0.20490902E+02</totfact>
</mgrwt>
</event>
<event>
 9    1  0.4321150E-036  0.1000183E+04  0.7818608E-02  0.8680864E-01
          2   -1    0    0  501    0  0.00000000000E+00  0.00000000000E+00  0.16157907239E+04  0.16157907239E+04  0.00000000000E+00 0. -1.
         -2   -1    0    0    0  501 -0.00000000000E+00 -0.00000000000E+00 -0.15477968905E+03  0.15477968905E+03  0.00000000000E+00 0. -1.
         36    2    1    2    0    0 -0.14210854715E-13  0.46185277824E-13  0.14610110348E+04  0.17705704129E+04  0.10001831549E+04 0.  0.
         25    2    3    3    0    0  0.96714100610E+02  0.30597791622E+02  0.10309917350E+03  0.19121222745E+03  0.12507131662E+03 0.  0.
         35    2    3    3    0    0 -0.96714100610E+02 -0.30597791622E+02  0.13579118613E+04  0.15793581855E+04  0.80009862693E+03 0.  0.
         22    1    5    5    0    0 -0.21634524110E+03 -0.29499462664E+03  0.11880543099E+04  0.12431010162E+04  0.00000000000E+00 0. -1.
         22    1    5    5    0    0  0.11963114049E+03  0.26439683502E+03  0.16985755141E+03  0.33625716931E+03  0.00000000000E+00 0. -1.
          5    1    4    4  502    0  0.14376829709E+02 -0.11791182854E+02  0.96349434015E+02  0.98239649127E+02  0.47000000000E+01 0.  1.
         -5    1    4    4    0  502  0.82337270901E+02  0.42388974476E+02  0.67497394866E+01  0.92972578321E+02  0.47000000000E+01 0.  1.
<mgrwt>
<rscale>  0 0.10001832E+04</rscale>
<asrwt>0</asrwt>
<pdfrwt beam="1">  1        2 0.24858318E+00 0.10001832E+04</pdfrwt>
<pdfrwt beam="2">  1       -2 0.23812261E-01 0.10001832E+04</pdfrwt>
<totfact> 0.20376952E+02</totfact>
</mgrwt>
</event>
<event>
 9    1  0.4321150E-036  0.9986826E+03  0.7818608E-02  0.8682294E-01
          1   -1    0    0  501    0  0.00000000000E+00  0.00000000000E+00  0.94917983779E+03  0.94917983779E+03  0.00000000000E+00 0.  1.
         -1   -1    0    0    0  501 -0.00000000000E+00 -0.00000000000E+00 -0.26269175478E+03  0.26269175478E+03  0.00000000000E+00 0.  1.
         36    2    1    2    0    0  0.00000000000E+00  0.35527136788E-14  0.68648808301E+03  0.12118715926E+04  0.99868256657E+03 0.  0.
         25    2    3    3    0    0  0.12240651601E+03 -0.45352333914E+01  0.21066719571E+03  0.27375727470E+03  0.12473353438E+03 0.  0.
         35    2    3    3    0    0 -0.12240651601E+03  0.45352333914E+01  0.47582088730E+03  0.93811431787E+03  0.79915519964E+03 0.  0.
         22    1    5    5    0    0  0.17837319011E+03 -0.10865364691E+03 -0.13445196722E+03  0.24839472906E+03  0.00000000000E+00 0. -1.
         22    1    5    5    0    0 -0.30077970612E+03  0.11318888030E+03  0.61027285451E+03  0.68971958881E+03  0.00000000000E+00 0. -1.
          5    1    4    4  502    0  0.84603319021E+02  0.30425648046E+02  0.45876715581E+02  0.10104555745E+03  0.47000000000E+01 0.  1.
         -5    1    4    4    0  502  0.37803196993E+02 -0.34960881437E+02  0.16479048013E+03  0.17271171725E+03  0.47000000000E+01 0.  1.
<mgrwt>
<rscale>  0 0.99868257E+03</rscale>
<asrwt>0</asrwt>
<pdfrwt beam="1">  1        1 0.14602767E+00 0.99868257E+03</pdfrwt>
<pdfrwt beam="2">  1       -1 0.40414117E-01 0.99868257E+03</pdfrwt>
<totfact> 0.11150420E+02</totfact>
</mgrwt>
</event>
<event>
 9    1  0.4321150E-036  0.1000049E+04  0.7818608E-02  0.8680992E-01
         -2   -1    0    0    0  501 -0.00000000000E+00  0.00000000000E+00  0.11620029195E+03  0.11620029195E+03  0.00000000000E+00 0.  1.
          2   -1    0    0  501    0  0.00000000000E+00 -0.00000000000E+00 -0.21516672608E+04  0.21516672608E+04  0.00000000000E+00 0.  1.
         36    2    1    2    0    0  0.00000000000E+00 -0.71054273576E-14 -0.20354669688E+04  0.22678675527E+04  0.10000487266E+04 0.  0.
         25    2    3    3    0    0  0.59431994131E+02  0.33811930239E+01 -0.66847089568E+03  0.68260210023E+03  0.12469440437E+03 0.  0.
         35    2    3    3    0    0 -0.59431994131E+02 -0.33811930239E+01 -0.13669960731E+04  0.15852654525E+04  0.80052776122E+03 0.  0.
         22    1    5    5    0    0  0.34039741763E+03  0.15320809479E+03 -0.62674355614E+03  0.72948653682E+03  0.00000000000E+00 0. -1.
         22    1    5    5    0    0 -0.39982941177E+03 -0.15658928782E+03 -0.74025251698E+03  0.85577891565E+03  0.00000000000E+00 0. -1.
          5    1    4    4  502    0  0.64262525656E+02 -0.38715753795E+02 -0.22798746797E+03  0.24006032023E+03  0.47000000000E+01 0. -1.
         -5    1    4    4    0  502 -0.48305315252E+01  0.42096946819E+02 -0.44048342771E+03  0.44254178001E+03  0.47000000000E+01 0. -1.
<mgrwt>
<rscale>  0 0.10000487E+04</rscale>
<asrwt>0</asrwt>
<pdfrwt beam="1">  1        2 0.33102571E+00 0.10000487E+04</pdfrwt>
<pdfrwt beam="2">  1       -2 0.17876969E-01 0.10000487E+04</pdfrwt>
<totfact> 0.16640089E+02</totfact>
</mgrwt>
</event>
<event>
 9    1  0.4321150E-036  0.1003244E+04  0.7818608E-02  0.8677955E-01
          1   -1    0    0  501    0  0.00000000000E+00  0.00000000000E+00  0.15706341363E+04  0.15706341363E+04  0.00000000000E+00 0. -1.
         -1   -1    0    0    0  501 -0.00000000000E+00 -0.00000000000E+00 -0.16020569079E+03  0.16020569079E+03  0.00000000000E+00 0. -1.
         36    2    1    2    0    0  0.71054273576E-14  0.00000000000E+00  0.14104284455E+04  0.17308398270E+04  0.10032437925E+04 0.  0.
         25    2    3    3    0    0  0.17610929388E+02 -0.14704502860E+02  0.51330754668E+03  0.52859231222E+03  0.12409201354E+03 0.  0.
         35    2    3    3    0    0 -0.17610929388E+02  0.14704502860E+02  0.89712089878E+03  0.12022475148E+04  0.80002925736E+03 0.  0.
         22    1    5    5    0    0  0.60992604976E+02  0.98193967640E+02 -0.12699831076E+03  0.17172863500E+03  0.00000000000E+00 0. -1.
         22    1    5    5    0    0 -0.78603534364E+02 -0.83489464780E+02  0.10241192095E+04  0.10305188798E+04  0.00000000000E+00 0. -1.
          5    1    4    4  502    0  0.24213446154E+02 -0.66044074832E+02  0.23020809802E+03  0.24076122858E+03  0.47000000000E+01 0.  1.
         -5    1    4    4    0  502 -0.66025167659E+01  0.51339571972E+02  0.28309944866E+03  0.28783108364E+03  0.47000000000E+01 0.  1.
<mgrwt>
<rscale>  0 0.10032438E+04</rscale>
<asrwt>0</asrwt>
<pdfrwt beam="1">  1        1 0.24163601E+00 0.10032438E+04</pdfrwt>
<pdfrwt beam="2">  1       -1 0.24647030E-01 0.10032438E+04</pdfrwt>
<totfact> 0.90147166E+01</totfact>
</mgrwt>
</event>
<event>
 9    1  0.4321150E-036  0.9999086E+03  0.7818608E-02  0.8681125E-01
          1   -1    0    0  501    0  0.00000000000E+00  0.00000000000E+00  0.90107584853E+03  0.90107584853E+03  0.00000000000E+00 0. -1.
         -1   -1    0    0    0  501 -0.00000000000E+00 -0.00000000000E+00 -0.27739543391E+03  0.27739543391E+03  0.00000000000E+00 0. -1.
         36    2    1    2    0    0 -0.71054273576E-14  0.35527136788E-14  0.62368041463E+03  0.11784712824E+04  0.99990864780E+03 0.  0.
         25    2    3    3    0    0  0.60556475966E+02  0.16628662960E+02 -0.30924351148E+02  0.14306550387E+03  0.12477108515E+03 0.  0.
         35    2    3    3    0    0 -0.60556475966E+02 -0.16628662960E+02  0.65460476577E+03  0.10354057786E+04  0.79975879346E+03 0.  0.
         22    1    5    5    0    0 -0.37284181020E+03 -0.23104386666E+02  0.80952030192E+02  0.38222775842E+03  0.00000000000E+00 0.  1.
         22    1    5    5    0    0  0.31228533423E+03  0.64757237062E+01  0.57365273558E+03  0.65317802015E+03  0.00000000000E+00 0.  1.
          5    1    4    4  502    0 -0.16189845275E+02  0.50688646450E+02  0.13011982627E+00  0.53418694294E+02  0.47000000000E+01 0.  1.
         -5    1    4    4    0  502  0.76746321241E+02 -0.34059983490E+02 -0.31054470974E+02  0.89646809574E+02  0.47000000000E+01 0.  1.
<mgrwt>
<rscale>  0 0.99990865E+03</rscale>
<asrwt>0</asrwt>
<pdfrwt beam="1">  1        1 0.13862705E+00 0.99990865E+03</pdfrwt>
<pdfrwt beam="2">  1       -1 0.42676221E-01 0.99990865E+03</pdfrwt>
<totfact> 0.11077275E+02</totfact>
</mgrwt>
</event>
<event>
 9    1  0.4321150E-036  0.9982757E+03  0.7818608E-02  0.8682682E-01
          1   -1    0    0  501    0  0.00000000000E+00  0.00000000000E+00  0.25823336450E+04  0.25823336450E+04  0.00000000000E+00 0. -1.
         -1   -1    0    0    0  501 -0.00000000000E+00 -0.00000000000E+00 -0.96478078043E+02  0.96478078043E+02  0.00000000000E+00 0. -1.
         36    2    1    2    0    0  0.00000000000E+00  0.42632564146E-13  0.24858555669E+04  0.26788117230E+04  0.99827568724E+03 0.  0.
         25    2    3    3    0    0 -0.12809177654E+03 -0.37358065425E+01  0.31683123361E+03  0.36329442952E+03  0.12320451479E+03 0.  0.
         35    2    3    3    0    0  0.12809177654E+03  0.37358065425E+01  0.21690243333E+04  0.23155172935E+04  0.80033262989E+03 0.  0.
         22    1    5    5    0    0  0.35107460123E+03 -0.27814406494E+03  0.13047769399E+04  0.13795145376E+04  0.00000000000E+00 0.  1.
         22    1    5    5    0    0 -0.22298282469E+03  0.28187987148E+03  0.86424739344E+03  0.93600275593E+03  0.00000000000E+00 0.  1.
          5    1    4    4  502    0 -0.13678784347E+03 -0.36475135433E+02  0.23191063018E+03  0.27174616836E+03  0.47000000000E+01 0. -1.
         -5    1    4    4    0  502  0.86960669244E+01  0.32739328891E+02  0.84920603425E+02  0.91548261165E+02  0.47000000000E+01 0. -1.
<mgrwt>
<rscale>  0 0.99827569E+03</rscale>
<asrwt>0</asrwt>
<pdfrwt beam="1">  1        1 0.39728205E+00 0.99827569E+03</pdfrwt>
<pdfrwt beam="2">  1       -1 0.14842783E-01 0.99827569E+03</pdfrwt>
<totfact> 0.40431218E+01</totfact>
</mgrwt>
</event>
<event>
 9    1  0.4321150E-036  0.9972363E+03  0.7818608E-02  0.8683674E-01
         -1   -1    0    0    0  501 -0.00000000000E+00  0.00000000000E+00  0.18410207989E+03  0.18410207989E+03  0.00000000000E+00 0.  1.
          1   -1    0    0  501    0  0.00000000000E+00 -0.00000000000E+00 -0.13504468639E+04  0.13504468639E+04  0.00000000000E+00 0.  1.
         36    2    1    2    0    0  0.00000000000E+00  0.00000000000E+00 -0.11663447840E+04  0.15345489438E+04  0.99723633393E+03 0.  0.
         25    2    3    3    0    0  0.12638705730E+03 -0.57140049506E+02 -0.22359265856E+03  0.29030665431E+03  0.12266051957E+03 0.  0.
         35    2    3    3    0    0 -0.12638705730E+03  0.57140049506E+02 -0.94275212546E+03  0.12442422895E+04  0.80007414118E+03 0.  0.
         22    1    5    5    0    0 -0.83375549433E+02  0.25387675168E+03 -0.99983289805E+03  0.10349254617E+04  0.00000000000E+00 0.  1.
         22    1    5    5    0    0 -0.43011507867E+02 -0.19673670217E+03  0.57080772593E+02  0.20931682777E+03  0.00000000000E+00 0.  1.
          5    1    4    4  502    0 -0.29558322853E+01 -0.52667893900E+02 -0.88719656935E+02  0.10332430265E+03  0.47000000000E+01 0. -1.
         -5    1    4    4    0  502  0.12934288959E+03 -0.44721556061E+01 -0.13487300163E+03  0.18698235165E+03  0.47000000000E+01 0. -1.
<mgrwt>
<rscale>  0 0.99723633E+03</rscale>
<asrwt>0</asrwt>
<pdfrwt beam="1">  1        1 0.20776106E+00 0.99723633E+03</pdfrwt>
<pdfrwt beam="2">  1       -1 0.28323396E-01 0.99723633E+03</pdfrwt>
<totfact> 0.10249481E+02</totfact>
</mgrwt>
</event>
<event>
 9    1  0.4321150E-036  0.1001980E+04  0.7818608E-02  0.8679155E-01
          2   -1    0    0  501    0  0.00000000000E+00  0.00000000000E+00  0.81972562543E+03  0.81972562543E+03  0.00000000000E+00 0.  1.
         -2   -1    0    0    0  501 -0.00000000000E+00 -0.00000000000E+00 -0.30618903789E+03  0.30618903789E+03  0.00000000000E+00 0.  1.
         36    2    1    2    0    0  0.00000000000E+00  0.35527136788E-14  0.51353658753E+03  0.11259146633E+04  0.10019800409E+04 0.  0.
         25    2    3    3    0    0 -0.14153012371E+03 -0.17002555202E+02  0.99798688066E+02  0.21414957316E+03  0.12482146748E+03 0.  0.
         35    2    3    3    0    0  0.14153012371E+03  0.17002555202E+02  0.41373789946E+03  0.91176509016E+03  0.79988540891E+03 0.  0.
         22    1    5    5    0    0  0.25358641388E+03 -0.95546890801E+02 -0.16118891193E+03  0.31530484134E+03  0.00000000000E+00 0.  1.
         22    1    5    5    0    0 -0.11205629017E+03  0.11254944600E+03  0.57492681139E+03  0.59646024882E+03  0.00000000000E+00 0.  1.
          5    1    4    4  502    0 -0.10530012721E+02  0.89894691979E+01 -0.26505394207E+02  0.30270739113E+02  0.47000000000E+01 0. -1.
         -5    1    4    4    0  502 -0.13100011098E+03 -0.25992024400E+02  0.12630408227E+03  0.18387883404E+03  0.47000000000E+01 0. -1.
<mgrwt>
<rscale>  0 0.10019800E+04</rscale>
<asrwt>0</asrwt>
<pdfrwt beam="1">  1        2 0.12611163E+00 0.10019800E+04</pdfrwt>
<pdfrwt beam="2">  1       -2 0.47106006E-01 0.10019800E+04</pdfrwt>
<totfact> 0.17237895E+02</totfact>
</mgrwt>
</event>
<event>
 9    1  0.4321150E-036  0.9949225E+03  0.7818608E-02  0.8685888E-01
         -1   -1    0    0    0  501 -0.00000000000E+00  0.00000000000E+00  0.71780387677E+03  0.71780387677E+03  0.00000000000E+00 0.  1.
          1   -1    0    0  501    0  0.00000000000E+00 -0.00000000000E+00 -0.34475670556E+03  0.34475670556E+03  0.00000000000E+00 0.  1.
         36    2    1    2    0    0  0.00000000000E+00  0.56843418861E-13  0.37304717121E+03  0.10625605823E+04  0.99492250913E+03 0.  0.
         25    2    3    3    0    0  0.64371963868E+02 -0.80375682406E+02  0.16669239946E+03  0.23194083391E+03  0.12412169167E+03 0.  0.
         35    2    3    3    0    0 -0.64371963868E+02  0.80375682406E+02  0.20635477175E+03  0.83061974842E+03  0.79796169995E+03 0.  0.
         22    1    5    5    0    0 -0.21208144142E+03  0.35770755013E+03  0.28815541731E+03  0.50593158998E+03  0.00000000000E+00 0. -1.
         22    1    5    5    0    0  0.14770947755E+03 -0.27733186773E+03 -0.81800645557E+02  0.32468815844E+03  0.00000000000E+00 0. -1.
          5    1    4    4  502    0  0.94412531434E+02 -0.70142654995E+02  0.16086790149E+03  0.19933461784E+03  0.47000000000E+01 0. -1.
         -5    1    4    4    0  502 -0.30040567567E+02 -0.10233027411E+02  0.58244979739E+01  0.32606216070E+02  0.47000000000E+01 0. -1.
<mgrwt>
<rscale>  0 0.99492251E+03</rscale>
<asrwt>0</asrwt>
<pdfrwt beam="1">  1        1 0.53039493E-01 0.99492251E+03</pdfrwt>
<pdfrwt beam="2">  1       -1 0.11043137E+00 0.99492251E+03</pdfrwt>
<totfact> 0.66480225E+01</totfact>
</mgrwt>
</event>
<event>
 9    1  0.4321150E-036  0.9996300E+03  0.7818608E-02  0.8681390E-01
         -2   -1    0    0    0  501 -0.00000000000E+00  0.00000000000E+00  0.60427335588E+03  0.60427335588E+03  0.00000000000E+00 0.  1.
          2   -1    0    0  501    0  0.00000000000E+00 -0.00000000000E+00 -0.41341398633E+03  0.41341398633E+03  0.00000000000E+00 0.  1.
         36    2    1    2    0    0  0.14210854715E-13  0.00000000000E+00  0.19085936955E+03  0.10176873422E+04  0.99963004534E+03 0.  0.
         25    2    3    3    0    0 -0.76896846786E+02  0.12259546439E+03  0.20546726078E+02  0.18652464748E+03  0.11587278899E+03 0.  0.
         35    2    3    3    0    0  0.76896846786E+02 -0.12259546439E+03  0.17031264347E+03  0.83116269473E+03  0.80055121988E+03 0.  0.
         22    1    5    5    0    0 -0.35431882933E+03  0.22137379456E+02  0.35673317811E+02  0.35679753641E+03  0.00000000000E+00 0.  1.
         22    1    5    5    0    0  0.43121567611E+03 -0.14473284385E+03  0.13463932566E+03  0.47436515832E+03  0.00000000000E+00 0.  1.
          5    1    4    4  502    0 -0.10362884667E+03  0.88329984184E+02  0.34666429835E+02  0.14058796295E+03  0.47000000000E+01 0.  1.
         -5    1    4    4    0  502  0.26731999883E+02  0.34265480205E+02 -0.14119703756E+02  0.45936684530E+02  0.47000000000E+01 0.  1.
<mgrwt>
<rscale>  0 0.99963005E+03</rscale>
<asrwt>0</asrwt>
<pdfrwt beam="1">  1        2 0.63602152E-01 0.99963005E+03</pdfrwt>
<pdfrwt beam="2">  1       -2 0.92965131E-01 0.99963005E+03</pdfrwt>
<totfact> 0.89606905E+01</totfact>
</mgrwt>
</event>
<event>
 9    1  0.4321150E-036  0.9997927E+03  0.7818608E-02  0.8681235E-01
         -2   -1    0    0    0  501 -0.00000000000E+00  0.00000000000E+00  0.20111758202E+03  0.20111758202E+03  0.00000000000E+00 0. -1.
          2   -1    0    0  501    0  0.00000000000E+00 -0.00000000000E+00 -0.12425385406E+04  0.12425385406E+04  0.00000000000E+00 0. -1.
         36    2    1    2    0    0  0.71054273576E-14  0.00000000000E+00 -0.10414209585E+04  0.14436561226E+04  0.99979267221E+03 0.  0.
         25    2    3    3    0    0  0.30678305948E+02 -0.13417256280E+03 -0.24067091329E+03  0.30393623223E+03  0.12454440853E+03 0.  0.
         35    2    3    3    0    0 -0.30678305948E+02  0.13417256280E+03 -0.80075004524E+03  0.11397198903E+04  0.79926050724E+03 0.  0.
         22    1    5    5    0    0 -0.13314865348E+03  0.45484548858E+03 -0.44953251869E+03  0.65321701429E+03  0.00000000000E+00 0. -1.
         22    1    5    5    0    0  0.10247034753E+03 -0.32067292578E+03 -0.35121752655E+03  0.48650287605E+03  0.00000000000E+00 0. -1.
          5    1    4    4  502    0  0.50989219722E+02 -0.14587657862E+03 -0.23139719345E+03  0.27829234243E+03  0.47000000000E+01 0. -1.
         -5    1    4    4    0  502 -0.20310913774E+02  0.11704015819E+02 -0.92737198370E+01  0.25643889804E+02  0.47000000000E+01 0. -1.
<mgrwt>
<rscale>  0 0.99979267E+03</rscale>
<asrwt>0</asrwt>
<pdfrwt beam="1">  1        2 0.19115978E+00 0.99979267E+03</pdfrwt>
<pdfrwt beam="2">  1       -2 0.30941166E-01 0.99979267E+03</pdfrwt>
<totfact> 0.20804499E+02</totfact>
</mgrwt>
</event>
<event>
 9    1  0.4321150E-036  0.1000056E+04  0.7818608E-02  0.8680985E-01
          1   -1    0    0  501    0  0.00000000000E+00  0.00000000000E+00  0.66699129568E+03  0.66699129568E+03  0.00000000000E+00 0.  1.
         -1   -1    0    0    0  501 -0.00000000000E+00 -0.00000000000E+00 -0.37485939710E+03  0.37485939710E+03  0.00000000000E+00 0.  1.
         36    2    1    2    0    0 -0.35527136788E-14 -0.14210854715E-13  0.29213189858E+03  0.10418506928E+04  0.10000559084E+04 0.  0.
         25    2    3    3    0    0  0.22445546222E+02  0.92525960967E+02 -0.52949663564E+02  0.16581094656E+03  0.12499898852E+03 0.  0.
         35    2    3    3    0    0 -0.22445546222E+02 -0.92525960967E+02  0.34508156215E+03  0.87603974621E+03  0.79956206539E+03 0.  0.
         22    1    5    5    0    0 -0.25356137110E+03 -0.25848885636E+03  0.44569589600E+03  0.57424270956E+03  0.00000000000E+00 0. -1.
         22    1    5    5    0    0  0.23111582487E+03  0.16596289539E+03 -0.10061433385E+03  0.30179703665E+03  0.00000000000E+00 0. -1.
          5    1    4    4  502    0  0.51923059419E+02  0.78033408857E+01 -0.54698699080E+02  0.75966663146E+02  0.47000000000E+01 0. -1.
         -5    1    4    4    0  502 -0.29477513198E+02  0.84722620082E+02  0.17490355161E+01  0.89844283419E+02  0.47000000000E+01 0. -1.
<mgrwt>
<rscale>  0 0.10000559E+04</rscale>
<asrwt>0</asrwt>
<pdfrwt beam="1">  1        1 0.10261405E+00 0.10000559E+04</pdfrwt>
<pdfrwt beam="2">  1       -1 0.57670677E-01 0.10000559E+04</pdfrwt>
<totfact> 0.10301484E+02</totfact>
</mgrwt>
</event>
<event>
 9    1  0.4321150E-036  0.9998681E+03  0.7818608E-02  0.8681164E-01
         -1   -1    0    0    0  501 -0.00000000000E+00  0.00000000000E+00  0.10224644915E+03  0.10224644915E+03  0.00000000000E+00 0.  1.
          1   -1    0    0  501    0  0.00000000000E+00 -0.00000000000E+00 -0.24444277621E+04  0.24444277621E+04  0.00000000000E+00 0.  1.
         36    2    1    2    0    0  0.14210854715E-13  0.00000000000E+00 -0.23421813129E+04  0.25466742112E+04  0.99986810905E+03 0.  0.
         25    2    3    3    0    0 -0.71512807715E+02 -0.11280412773E+03 -0.54980062701E+03  0.57931816877E+03  0.12445866107E+03 0.  0.
         35    2    3    3    0    0  0.71512807715E+02  0.11280412773E+03 -0.17923806859E+04  0.19673560424E+04  0.80001401338E+03 0.  0.
         22    1    5    5    0    0  0.34640024520E+03  0.13594016028E+03 -0.39369926207E+03  0.54173052896E+03  0.00000000000E+00 0.  1.
         22    1    5    5    0    0 -0.27488743749E+03 -0.23136032548E+02 -0.13986814238E+04  0.14256255135E+04  0.00000000000E+00 0.  1.
          5    1    4    4  502    0 -0.31379868887E+02  0.16794790902E+02 -0.50959977797E+02  0.62335948777E+02  0.47000000000E+01 0.  1.
         -5    1    4    4    0  502 -0.40132938828E+02 -0.12959891863E+03 -0.49884064921E+03  0.51698222000E+03  0.47000000000E+01 0.  1.
<mgrwt>
<rscale>  0 0.99986811E+03</rscale>
<asrwt>0</asrwt>
<pdfrwt beam="1">  1        1 0.37606582E+00 0.99986811E+03</pdfrwt>
<pdfrwt beam="2">  1       -1 0.15730223E-01 0.99986811E+03</pdfrwt>
<totfact> 0.45995593E+01</totfact>
</mgrwt>
</event>
<event>
 9    1  0.4321150E-036  0.1000358E+04  0.7818608E-02  0.8680697E-01
          2   -1    0    0  501    0  0.00000000000E+00  0.00000000000E+00  0.22953118171E+04  0.22953118171E+04  0.00000000000E+00 0.  1.
         -2   -1    0    0    0  501 -0.00000000000E+00 -0.00000000000E+00 -0.10899560979E+03  0.10899560979E+03  0.00000000000E+00 0.  1.
         36    2    1    2    0    0  0.00000000000E+00  0.28421709430E-13  0.21863162073E+04  0.24043074269E+04  0.10003577583E+04 0.  0.
         25    2    3    3    0    0  0.86885326791E+02  0.99519686292E+02  0.32055706939E+03  0.36840166931E+03  0.12453805541E+03 0.  0.
         35    2    3    3    0    0 -0.86885326791E+02 -0.99519686292E+02  0.18657591379E+04  0.20359057576E+04  0.80399120955E+03 0.  0.
         22    1    5    5    0    0 -0.29666474657E+03  0.17677004728E+03  0.39448106687E+03  0.52428325702E+03  0.00000000000E+00 0.  1.
         22    1    5    5    0    0  0.20977941978E+03 -0.27628973357E+03  0.14712780710E+04  0.15116225005E+04  0.00000000000E+00 0.  1.
          5    1    4    4  502    0 -0.16667648122E+01  0.84795629334E+02  0.10642430692E+03  0.13616644213E+03  0.47000000000E+01 0. -1.
         -5    1    4    4    0  502  0.88552091604E+02  0.14724056958E+02  0.21413276247E+03  0.23223522718E+03  0.47000000000E+01 0. -1.
<mgrwt>
<rscale>  0 0.10003578E+04</rscale>
<asrwt>0</asrwt>
<pdfrwt beam="1">  1        2 0.35312486E+00 0.10003578E+04</pdfrwt>
<pdfrwt beam="2">  1       -2 0.16768557E-01 0.10003578E+04</pdfrwt>
<totfact> 0.15299188E+02</totfact>
</mgrwt>
</event>
<event>
 9    1  0.4321150E-036  0.1000037E+04  0.7818608E-02  0.8681003E-01
          2   -1    0    0  501    0  0.00000000000E+00  0.00000000000E+00  0.84566777842E+03  0.84566777842E+03  0.00000000000E+00 0.  1.
         -2   -1    0    0    0  501 -0.00000000000E+00 -0.00000000000E+00 -0.29564606789E+03  0.29564606789E+03  0.00000000000E+00 0.  1.
         36    2    1    2    0    0  0.14210854715E-13  0.14210854715E-13  0.55002171053E+03  0.11413138463E+04  0.10000367062E+04 0.  0.
         25    2    3    3    0    0 -0.67301052192E+02 -0.55445254820E+02  0.22899655819E+03  0.27510516000E+03  0.12505925590E+03 0.  0.
         35    2    3    3    0    0  0.67301052192E+02  0.55445254820E+02  0.32102515234E+03  0.86620868630E+03  0.79978542865E+03 0.  0.
         22    1    5    5    0    0  0.78678667359E+01 -0.37158093253E+03  0.17688627366E+03  0.41161030909E+03  0.00000000000E+00 0.  1.
         22    1    5    5    0    0  0.59433185456E+02  0.42702618735E+03  0.14413887868E+03  0.45459837721E+03  0.00000000000E+00 0.  1.
          5    1    4    4  502    0 -0.18029833539E+02 -0.84185601377E+02  0.89269876528E+02  0.12411080224E+03  0.47000000000E+01 0.  1.
         -5    1    4    4    0  502 -0.49271218652E+02  0.28740346557E+02  0.13972668167E+03  0.15099435776E+03  0.47000000000E+01 0.  1.
<mgrwt>
<rscale>  0 0.10000367E+04</rscale>
<asrwt>0</asrwt>
<pdfrwt beam="1">  1        2 0.13010273E+00 0.10000367E+04</pdfrwt>
<pdfrwt beam="2">  1       -2 0.45484011E-01 0.10000367E+04</pdfrwt>
<totfact> 0.17728897E+02</totfact>
</mgrwt>
</event>
<event>
 9    1  0.4321150E-036  0.9997676E+03  0.7818608E-02  0.8681259E-01
          1   -1    0    0  501    0  0.00000000000E+00  0.00000000000E+00  0.12576086084E+04  0.12576086084E+04  0.00000000000E+00 0.  1.
         -1   -1    0    0    0  501 -0.00000000000E+00 -0.00000000000E+00 -0.19869760906E+03  0.19869760906E+03  0.00000000000E+00 0.  1.
         36    2    1    2    0    0  0.14210854715E-13 -0.14210854715E-13  0.10589109993E+04  0.14563062175E+04  0.99976762025E+03 0.  0.
         25    2    3    3    0    0 -0.12789688545E+03 -0.50507525877E+02  0.18304463985E+03  0.26151588577E+03  0.12639855559E+03 0.  0.
         35    2    3    3    0    0  0.12789688545E+03  0.50507525877E+02  0.87586635950E+03  0.11947903317E+04  0.80092036654E+03 0.  0.
         22    1    5    5    0    0 -0.31371348251E+03 -0.11099689647E+03  0.45521950341E+03  0.56388053382E+03  0.00000000000E+00 0.  1.
         22    1    5    5    0    0  0.44161036796E+03  0.16150442235E+03  0.42064685609E+03  0.63090979788E+03  0.00000000000E+00 0.  1.
          5    1    4    4  502    0 -0.25266035278E+02 -0.69825633109E+02  0.40398231227E+02  0.84664624631E+02  0.47000000000E+01 0.  1.
         -5    1    4    4    0  502 -0.10263085017E+03  0.19318107231E+02  0.14264640862E+03  0.17685126114E+03  0.47000000000E+01 0.  1.
<mgrwt>
<rscale>  0 0.99976762E+03</rscale>
<asrwt>0</asrwt>
<pdfrwt beam="1">  1        1 0.19347824E+00 0.99976762E+03</pdfrwt>
<pdfrwt beam="2">  1       -1 0.30568864E-01 0.99976762E+03</pdfrwt>
<totfact> 0.10515735E+02</totfact>
</mgrwt>
</event>
<event>
 9    1  0.4321150E-036  0.9991624E+03  0.7818608E-02  0.8681836E-01
          2   -1    0    0  501    0  0.00000000000E+00  0.00000000000E+00  0.16038495976E+04  0.16038495976E+04  0.00000000000E+00 0. -1.
         -2   -1    0    0    0  501 -0.00000000000E+00 -0.00000000000E+00 -0.15561395193E+03  0.15561395193E+03  0.00000000000E+00 0. -1.
         36    2    1    2    0    0  0.00000000000E+00  0.00000000000E+00  0.14482356457E+04  0.17594635495E+04  0.99916239758E+03 0.  0.
         25    2    3    3    0    0  0.55113573932E+00 -0.12371757573E+03  0.16262535072E+03  0.24022063293E+03  0.12630362423E+03 0.  0.
         35    2    3    3    0    0 -0.55113573932E+00  0.12371757573E+03  0.12856102950E+04  0.15192429166E+04  0.79999929178E+03 0.  0.
         22    1    5    5    0    0  0.15826631895E+02 -0.46397265041E+01 -0.11323284171E+03  0.11442764430E+03  0.00000000000E+00 0.  1.
         22    1    5    5    0    0 -0.16377767635E+02  0.12835730224E+03  0.13988431367E+04  0.14048152723E+04  0.00000000000E+00 0.  1.
          5    1    4    4  502    0 -0.20966472344E+02 -0.14316693842E+03  0.14927774535E+03  0.20794783114E+03  0.47000000000E+01 0.  1.
         -5    1    4    4    0  502  0.21517608084E+02  0.19449362687E+02  0.13347605372E+02  0.32272801795E+02  0.47000000000E+01 0.  1.
<mgrwt>
<rscale>  0 0.99916240E+03</rscale>
<asrwt>0</asrwt>
<pdfrwt beam="1">  1        2 0.24674608E+00 0.99916240E+03</pdfrwt>
<pdfrwt beam="2">  1       -2 0.23940609E-01 0.99916240E+03</pdfrwt>
<totfact> 0.20499679E+02</totfact>
</mgrwt>
</event>
<event>
 9    1  0.4321150E-036  0.1000110E+04  0.7818608E-02  0.8680933E-01
         -2   -1    0    0    0  501 -0.00000000000E+00  0.00000000000E+00  0.34211826429E+03  0.34211826429E+03  0.00000000000E+00 0.  1.
          2   -1    0    0  501    0  0.00000000000E+00 -0.00000000000E+00 -0.73090270662E+03  0.73090270662E+03  0.00000000000E+00 0.  1.
         36    2    1    2    0    0  0.28421709430E-13  0.00000000000E+00 -0.38878444233E+03  0.10730209709E+04  0.10001103246E+04 0.  0.
         25    2    3    3    0    0  0.10801181937E+03 -0.54530978797E+02  0.26998707517E+01  0.17381194207E+03  0.12475223898E+03 0.  0.
         35    2    3    3    0    0 -0.10801181937E+03  0.54530978797E+02 -0.39148431308E+03  0.89920902885E+03  0.80042284413E+03 0.  0.
         22    1    5    5    0    0 -0.33263108585E+03  0.37990187047E+02  0.10759838365E+03  0.35165907602E+03  0.00000000000E+00 0. -1.
         22    1    5    5    0    0  0.22461926648E+03  0.16540791750E+02 -0.49908269673E+03  0.54754995283E+03  0.00000000000E+00 0. -1.
          5    1    4    4  502    0  0.11150723285E+03 -0.80824009052E+02 -0.19155216117E+02  0.13912367060E+03  0.47000000000E+01 0. -1.
         -5    1    4    4    0  502 -0.34954134786E+01  0.26293030255E+02  0.21855086869E+02  0.34688271467E+02  0.47000000000E+01 0. -1.
<mgrwt>
<rscale>  0 0.10001103E+04</rscale>
<asrwt>0</asrwt>
<pdfrwt beam="1">  1        2 0.11244657E+00 0.10001103E+04</pdfrwt>
<pdfrwt beam="2">  1       -2 0.52633579E-01 0.10001103E+04</pdfrwt>
<totfact> 0.15982630E+02</totfact>
</mgrwt>
</event>
<event>
 9    1  0.4321150E-036  0.1000390E+04  0.7818608E-02  0.8680667E-01
         -2   -1    0    0    0  501 -0.00000000000E+00  0.00000000000E+00  0.11163135728E+03  0.11163135728E+03  0.00000000000E+00 0.  1.
          2   -1    0    0  501    0  0.00000000000E+00 -0.00000000000E+00 -0.22412603539E+04  0.22412603539E+04  0.00000000000E+00 0.  1.
         36    2    1    2    0    0 -0.28421709430E-13  0.14210854715E-13 -0.21296289966E+04  0.23528917112E+04  0.10003897947E+04 0.  0.
         25    2    3    3    0    0 -0.53818096231E+02  0.41420499075E+02 -0.69247708810E+03  0.70694678269E+03  0.12504875363E+03 0.  0.
         35    2    3    3    0    0  0.53818096231E+02 -0.41420499075E+02 -0.14371519085E+04  0.16459449285E+04  0.79944796845E+03 0.  0.
         22    1    5    5    0    0  0.29783320200E+03  0.17162561009E+03 -0.27713120424E+03  0.44154464170E+03  0.00000000000E+00 0.  1.
         22    1    5    5    0    0 -0.24401510577E+03 -0.21304610917E+03 -0.11600207043E+04  0.12044002868E+04  0.00000000000E+00 0.  1.
          5    1    4    4  502    0  0.33245709630E+02 -0.16658821151E+02 -0.19121107251E+03  0.19485009053E+03  0.47000000000E+01 0. -1.
         -5    1    4    4    0  502 -0.87063805860E+02  0.58079320225E+02 -0.50126601560E+03  0.51209669216E+03  0.47000000000E+01 0. -1.
<mgrwt>
<rscale>  0 0.10003898E+04</rscale>
<asrwt>0</asrwt>
<pdfrwt beam="1">  1        2 0.34480927E+00 0.10003898E+04</pdfrwt>
<pdfrwt beam="2">  1       -2 0.17174056E-01 0.10003898E+04</pdfrwt>
<totfact> 0.15804260E+02</totfact>
</mgrwt>
</event>
<event>
 9    1  0.4321150E-036  0.9998906E+03  0.7818608E-02  0.8681142E-01
         -1   -1    0    0    0  501 -0.00000000000E+00  0.00000000000E+00  0.12785850671E+03  0.12785850671E+03  0.00000000000E+00 0.  1.
          1   -1    0    0  501    0  0.00000000000E+00 -0.00000000000E+00 -0.19548585950E+04  0.19548585950E+04  0.00000000000E+00 0.  1.
         36    2    1    2    0    0 -0.35527136788E-14  0.00000000000E+00 -0.18270000883E+04  0.20827171017E+04  0.99989059558E+03 0.  0.
         25    2    3    3    0    0 -0.23332385801E+01 -0.10930494755E+03 -0.16411920772E+03  0.23382096759E+03  0.12563484779E+03 0.  0.
         35    2    3    3    0    0  0.23332385801E+01  0.10930494755E+03 -0.16628808805E+04  0.18488961341E+04  0.80080651610E+03 0.  0.
         22    1    5    5    0    0  0.33959078636E+03 -0.97006654855E+02 -0.44302318644E+03  0.56657015187E+03  0.00000000000E+00 0.  1.
         22    1    5    5    0    0 -0.33725754778E+03  0.20631160241E+03 -0.12198576941E+04  0.12823259822E+04  0.00000000000E+00 0.  1.
          5    1    4    4  502    0 -0.30435892628E+02 -0.77194634761E+02 -0.17120407198E+03  0.19031100719E+03  0.47000000000E+01 0.  1.
         -5    1    4    4    0  502  0.28102654048E+02 -0.32110312794E+02  0.70848642615E+01  0.43509960398E+02  0.47000000000E+01 0.  1.
<mgrwt>
<rscale>  0 0.99989060E+03</rscale>
<asrwt>0</asrwt>
<pdfrwt beam="1">  1        1 0.30074748E+00 0.99989060E+03</pdfrwt>
<pdfrwt beam="2">  1       -1 0.19670539E-01 0.99989060E+03</pdfrwt>
<totfact> 0.70413436E+01</totfact>
</mgrwt>
</event>
<event>
 9    1  0.4321150E-036  0.1000534E+04  0.7818608E-02  0.8680530E-01
         -1   -1    0    0    0  501 -0.00000000000E+00  0.00000000000E+00  0.20379580255E+03  0.20379580255E+03  0.00000000000E+00 0.  1.
          1   -1    0    0  501    0  0.00000000000E+00 -0.00000000000E+00 -0.12280273962E+04  0.12280273962E+04  0.00000000000E+00 0.  1.
         36    2    1    2    0    0  0.00000000000E+00  0.00000000000E+00 -0.10242315937E+04  0.14318231988E+04  0.10005335152E+04 0.  0.
         25    2    3    3    0    0  0.13607059147E+03 -0.79429572285E+01 -0.23986236650E+03  0.30307662875E+03  0.12547187574E+03 0.  0.
         35    2    3    3    0    0 -0.13607059147E+03  0.79429572285E+01 -0.78436922718E+03  0.11287465700E+04  0.80015963304E+03 0.  0.
         22    1    5    5    0    0 -0.39145833445E+03 -0.65713209414E+02 -0.76548546315E+03  0.86227944878E+03  0.00000000000E+00 0.  1.
         22    1    5    5    0    0  0.25538774299E+03  0.73656166643E+02 -0.18883764029E+02  0.26646712123E+03  0.00000000000E+00 0.  1.
          5    1    4    4  502    0  0.92612487724E+02 -0.62403872843E+02 -0.11737784593E+03  0.16208320377E+03  0.47000000000E+01 0. -1.
         -5    1    4    4    0  502  0.43458103741E+02  0.54460915614E+02 -0.12248452056E+03  0.14099342498E+03  0.47000000000E+01 0. -1.
<mgrwt>
<rscale>  0 0.10005335E+04</rscale>
<asrwt>0</asrwt>
<pdfrwt beam="1">  1        1 0.18892729E+00 0.10005335E+04</pdfrwt>
<pdfrwt beam="2">  1       -1 0.31353201E-01 0.10005335E+04</pdfrwt>
<totfact> 0.10586851E+02</totfact>
</mgrwt>
</event>
<event>
 9    1  0.4321150E-036  0.9994113E+03  0.7818608E-02  0.8681599E-01
         -1   -1    0    0    0  501 -0.00000000000E+00  0.00000000000E+00  0.14262043151E+03  0.14262043151E+03  0.00000000000E+00 0. -1.
          1   -1    0    0  501    0  0.00000000000E+00 -0.00000000000E+00 -0.17508411261E+04  0.17508411261E+04  0.00000000000E+00 0. -1.
         36    2    1    2    0    0 -0.28421709430E-13 -0.14210854715E-13 -0.16082206946E+04  0.18934615576E+04  0.99941126053E+03 0.  0.
         25    2    3    3    0    0 -0.52783325685E+02  0.77673149413E+02 -0.10757964505E+03  0.18897940950E+03  0.12377657119E+03 0.  0.
         35    2    3    3    0    0  0.52783325685E+02 -0.77673149413E+02 -0.15006410496E+04  0.17044821481E+04  0.80281793458E+03 0.  0.
         22    1    5    5    0    0 -0.32374843739E+03 -0.38509686123E+02 -0.29107352569E+03  0.43705817004E+03  0.00000000000E+00 0.  1.
         22    1    5    5    0    0  0.37653176308E+03 -0.39163463290E+02 -0.12095675239E+04  0.12674239781E+04  0.00000000000E+00 0.  1.
          5    1    4    4  502    0 -0.59808068345E+02  0.10174475653E+03 -0.11236233264E+03  0.16302264970E+03  0.47000000000E+01 0. -1.
         -5    1    4    4    0  502  0.70247426602E+01 -0.24071607114E+02  0.47826875884E+01  0.25956759795E+02  0.47000000000E+01 0. -1.
<mgrwt>
<rscale>  0 0.99941126E+03</rscale>
<asrwt>0</asrwt>
<pdfrwt beam="1">  1        1 0.26936016E+00 0.99941126E+03</pdfrwt>
<pdfrwt beam="2">  1       -1 0.21941606E-01 0.99941126E+03</pdfrwt>
<totfact> 0.81699840E+01</totfact>
</mgrwt>
</event>
<event>
 9    1  0.4321150E-036  0.9998391E+03  0.7818608E-02  0.8681191E-01
          2   -1    0    0  501    0  0.00000000000E+00  0.00000000000E+00  0.10044156309E+04  0.10044156309E+04  0.00000000000E+00 0.  1.
         -2   -1    0    0    0  501 -0.00000000000E+00 -0.00000000000E+00 -0.24882083265E+03  0.24882083265E+03  0.00000000000E+00 0.  1.
         36    2    1    2    0    0  0.00000000000E+00 -0.28421709430E-13  0.75559479829E+03  0.12532364636E+04  0.99983905428E+03 0.  0.
         25    2    3    3    0    0  0.10368220259E+03 -0.46415206487E+02  0.24545845769E+03  0.29790091597E+03  0.12486284779E+03 0.  0.
         35    2    3    3    0    0 -0.10368220259E+03  0.46415206487E+02  0.51013634060E+03  0.95533554762E+03  0.79970153934E+03 0.  0.
         22    1    5    5    0    0 -0.11139768558E+03  0.41576577726E+03  0.34046054701E+03  0.54880234143E+03  0.00000000000E+00 0.  1.
         22    1    5    5    0    0  0.77154829889E+01 -0.36935057077E+03  0.16967579359E+03  0.40653320619E+03  0.00000000000E+00 0.  1.
          5    1    4    4  502    0  0.41460561626E+02 -0.61207779849E+02  0.21402688639E+03  0.22648392566E+03  0.47000000000E+01 0.  1.
         -5    1    4    4    0  502  0.62221640961E+02  0.14792573362E+02  0.31431571299E+02  0.71416990309E+02  0.47000000000E+01 0.  1.
<mgrwt>
<rscale>  0 0.99983905E+03</rscale>
<asrwt>0</asrwt>
<pdfrwt beam="1">  1        2 0.15452548E+00 0.99983905E+03</pdfrwt>
<pdfrwt beam="2">  1       -2 0.38280129E-01 0.99983905E+03</pdfrwt>
<totfact> 0.19490080E+02</totfact>
</mgrwt>
</event>
<event>
 9    1  0.4321150E-036  0.9989537E+03  0.7818608E-02  0.8682035E-01
          2   -1    0    0  501    0  0.00000000000E+00  0.00000000000E+00  0.18918600281E+03  0.18918600281E+03  0.00000000000E+00 0. -1.
         -2   -1    0    0    0  501 -0.00000000000E+00 -0.00000000000E+00 -0.13186869483E+04  0.13186869483E+04  0.00000000000E+00 0. -1.
         36    2    1    2    0    0 -0.14210854715E-13 -0.71054273576E-14 -0.11295009455E+04  0.15078729512E+04  0.99895367805E+03 0.  0.
         25    2    3    3    0    0 -0.10865144613E+03  0.37639909441E+02 -0.96523085852E+02  0.19543233387E+03  0.12512070768E+03 0.  0.
         35    2    3    3    0    0  0.10865144613E+03 -0.37639909441E+02 -0.10329778597E+04  0.13124406173E+04  0.80139579223E+03 0.  0.
         22    1    5    5    0    0  0.12992609890E+03  0.17716329059E+03 -0.10709666651E+04  0.10932690522E+04  0.00000000000E+00 0. -1.
         22    1    5    5    0    0 -0.21274652766E+02 -0.21480320003E+03  0.37988805460E+02  0.21917156507E+03  0.00000000000E+00 0. -1.
          5    1    4    4  502    0 -0.46311095393E+02  0.77731764077E+02 -0.29202812247E+02  0.95193691735E+02  0.47000000000E+01 0. -1.
         -5    1    4    4    0  502 -0.62340350739E+02 -0.40091854636E+02 -0.67320273605E+02  0.10023864213E+03  0.47000000000E+01 0. -1.
<mgrwt>
<rscale>  0 0.99895368E+03</rscale>
<asrwt>0</asrwt>
<pdfrwt beam="1">  1        2 0.29105540E-01 0.99895368E+03</pdfrwt>
<pdfrwt beam="2">  1       -2 0.20287490E+00 0.99895368E+03</pdfrwt>
<totfact> 0.25527964E+01</totfact>
</mgrwt>
</event>
<event>
 9    1  0.4321150E-036  0.1000116E+04  0.7818608E-02  0.8680928E-01
         -1   -1    0    0    0  501 -0.00000000000E+00  0.00000000000E+00  0.18409696442E+03  0.18409696442E+03  0.00000000000E+00 0.  1.
          1   -1    0    0  501    0  0.00000000000E+00 -0.00000000000E+00 -0.13582940981E+04  0.13582940981E+04  0.00000000000E+00 0.  1.
         36    2    1    2    0    0  0.00000000000E+00 -0.28421709430E-13 -0.11741971337E+04  0.15423910625E+04  0.10001156338E+04 0.  0.
         25    2    3    3    0    0  0.13943512981E+03 -0.13453932475E+02 -0.23397755304E+03  0.30007556523E+03  0.12520657248E+03 0.  0.
         35    2    3    3    0    0 -0.13943512981E+03  0.13453932475E+02 -0.94021958062E+03  0.12423154973E+04  0.79981983676E+03 0.  0.
         22    1    5    5    0    0 -0.10582229110E+03 -0.30018470254E+03 -0.83048218837E+02  0.32894713798E+03  0.00000000000E+00 0.  1.
         22    1    5    5    0    0 -0.33612838713E+02  0.31363863502E+03 -0.85717136178E+03  0.91336835929E+03  0.00000000000E+00 0.  1.
          5    1    4    4  502    0  0.12558746372E+03 -0.44944345721E+02 -0.11514424494E+03  0.17627391299E+03  0.47000000000E+01 0. -1.
         -5    1    4    4    0  502  0.13847666093E+02  0.31490413246E+02 -0.11883330810E+03  0.12380165224E+03  0.47000000000E+01 0. -1.
<mgrwt>
<rscale>  0 0.10001156E+04</rscale>
<asrwt>0</asrwt>
<pdfrwt beam="1">  1        1 0.20896832E+00 0.10001156E+04</pdfrwt>
<pdfrwt beam="2">  1       -1 0.28322610E-01 0.10001156E+04</pdfrwt>
<totfact> 0.10114305E+02</totfact>
</mgrwt>
</event>
<event>
 9    1  0.4321150E-036  0.9999712E+03  0.7818608E-02  0.8681065E-01
          1   -1    0    0  501    0  0.00000000000E+00  0.00000000000E+00  0.69854196589E+03  0.69854196589E+03  0.00000000000E+00 0.  1.
         -1   -1    0    0    0  501 -0.00000000000E+00 -0.00000000000E+00 -0.35786771723E+03  0.35786771723E+03  0.00000000000E+00 0.  1.
         36    2    1    2    0    0 -0.71054273576E-14 -0.14210854715E-13  0.34067424866E+03  0.10564096831E+04  0.99997123702E+03 0.  0.
         25    2    3    3    0    0  0.40447223054E+02  0.75909037428E+02  0.18098433791E+03  0.23604978866E+03  0.12476382625E+03 0.  0.
         35    2    3    3    0    0 -0.40447223054E+02 -0.75909037428E+02  0.15968991075E+03  0.82035989445E+03  0.80005707860E+03 0.  0.
         22    1    5    5    0    0 -0.89219909089E+02 -0.18264685882E+03 -0.29081858644E+03  0.35481758332E+03  0.00000000000E+00 0. -1.
         22    1    5    5    0    0  0.48772686035E+02  0.10673782139E+03  0.45050849719E+03  0.46554231114E+03  0.00000000000E+00 0. -1.
          5    1    4    4  502    0 -0.24754618402E+02  0.79266965463E+02  0.12371791152E+03  0.14907801507E+03  0.47000000000E+01 0. -1.
         -5    1    4    4    0  502  0.65201841456E+02 -0.33579280353E+01  0.57266426389E+02  0.86971773589E+02  0.47000000000E+01 0. -1.
<mgrwt>
<rscale>  0 0.99997124E+03</rscale>
<asrwt>0</asrwt>
<pdfrwt beam="1">  1        1 0.10746799E+00 0.99997124E+03</pdfrwt>
<pdfrwt beam="2">  1       -1 0.55056572E-01 0.99997124E+03</pdfrwt>
<totfact> 0.10483760E+02</totfact>
</mgrwt>
</event>
<event>
 9    1  0.4321150E-036  0.1000428E+04  0.7818608E-02  0.8680630E-01
         -2   -1    0    0    0  501 -0.00000000000E+00  0.00000000000E+00  0.15021232428E+03  0.15021232428E+03  0.00000000000E+00 0.  1.
          2   -1    0    0  501    0  0.00000000000E+00 -0.00000000000E+00 -0.16657358560E+04  0.16657358560E+04  0.00000000000E+00 0.  1.
         36    2    1    2    0    0  0.00000000000E+00  0.00000000000E+00 -0.15155235317E+04  0.18159481803E+04  0.10004280175E+04 0.  0.
         25    2    3    3    0    0 -0.12851639820E+03  0.84207125458E+01 -0.18868335003E+03  0.26005789340E+03  0.12426314150E+03 0.  0.
         35    2    3    3    0    0  0.12851639820E+03 -0.84207125458E+01 -0.13268401817E+04  0.15558902869E+04  0.80231062815E+03 0.  0.
         22    1    5    5    0    0  0.83261253373E+02 -0.11033695927E+02  0.98717422073E+02  0.12961214519E+03  0.00000000000E+00 0.  1.
         22    1    5    5    0    0  0.45255144828E+02  0.26129833813E+01 -0.14255576038E+04  0.14262781417E+04  0.00000000000E+00 0.  1.
          5    1    4    4  502    0  0.18483072610E+02  0.79186129241E+01 -0.63984462882E+02  0.67234142324E+02  0.47000000000E+01 0. -1.
         -5    1    4    4    0  502 -0.14699947081E+03  0.50209962163E+00 -0.12469888715E+03  0.19282375108E+03  0.47000000000E+01 0. -1.
<mgrwt>
<rscale>  0 0.10004280E+04</rscale>
<asrwt>0</asrwt>
<pdfrwt beam="1">  1        2 0.25626706E+00 0.10004280E+04</pdfrwt>
<pdfrwt beam="2">  1       -2 0.23109588E-01 0.10004280E+04</pdfrwt>
<totfact> 0.20132275E+02</totfact>
</mgrwt>
</event>
<event>
 9    1  0.4321150E-036  0.1002928E+04  0.7818608E-02  0.8678254E-01
          2   -1    0    0  501    0  0.00000000000E+00  0.00000000000E+00  0.29721071109E+04  0.29721071109E+04  0.00000000000E+00 0.  1.
         -2   -1    0    0    0  501 -0.00000000000E+00 -0.00000000000E+00 -0.84608759458E+02  0.84608759458E+02  0.00000000000E+00 0.  1.
         36    2    1    2    0    0  0.00000000000E+00  0.00000000000E+00  0.28874983514E+04  0.30567158703E+04  0.10029283038E+04 0.  0.
         25    2    3    3    0    0  0.13225773228E+03  0.56188022616E+02  0.61854598495E+03  0.64663544155E+03  0.12202072424E+03 0.  0.
         35    2    3    3    0    0 -0.13225773228E+03 -0.56188022616E+02  0.22689523665E+04  0.24100804288E+04  0.79980849598E+03 0.  0.
         22    1    5    5    0    0  0.15441979733E+02 -0.17016853167E+03  0.22068429941E+04  0.22134479403E+04  0.00000000000E+00 0.  1.
         22    1    5    5    0    0 -0.14769971201E+03  0.11398050905E+03  0.62109372342E+02  0.19663248843E+03  0.00000000000E+00 0.  1.
          5    1    4    4  502    0  0.58704681567E+02  0.86271621256E+02  0.27982710299E+03  0.29868767943E+03  0.47000000000E+01 0. -1.
         -5    1    4    4    0  502  0.73553050714E+02 -0.30083598640E+02  0.33871888196E+03  0.34794776213E+03  0.47000000000E+01 0. -1.
<mgrwt>
<rscale>  0 0.10029283E+04</rscale>
<asrwt>0</asrwt>
<pdfrwt beam="1">  1        2 0.45724717E+00 0.10029283E+04</pdfrwt>
<pdfrwt beam="2">  1       -2 0.13016735E-01 0.10029283E+04</pdfrwt>
<totfact> 0.88449127E+01</totfact>
</mgrwt>
</event>
<event>
 9    1  0.4321150E-036  0.9994597E+03  0.7818608E-02  0.8681553E-01
          1   -1    0    0  501    0  0.00000000000E+00  0.00000000000E+00  0.37327145930E+03  0.37327145930E+03  0.00000000000E+00 0.  1.
         -1   -1    0    0    0  501 -0.00000000000E+00 -0.00000000000E+00 -0.66903036736E+03  0.66903036736E+03  0.00000000000E+00 0.  1.
         36    2    1    2    0    0 -0.28421709430E-13  0.00000000000E+00 -0.29575890806E+03  0.10423018267E+04  0.99945973714E+03 0.  0.
         25    2    3    3    0    0  0.11503175702E+03  0.31043438528E+02 -0.13168038479E+03  0.21713383242E+03  0.12494549709E+03 0.  0.
         35    2    3    3    0    0 -0.11503175702E+03 -0.31043438528E+02 -0.16407852327E+03  0.82516799425E+03  0.79986527411E+03 0.  0.
         22    1    5    5    0    0 -0.40364499834E+03  0.18683707273E+03 -0.59651963926E+02  0.44877135964E+03  0.00000000000E+00 0.  1.
         22    1    5    5    0    0  0.28861324132E+03 -0.21788051126E+03 -0.10442655934E+03  0.37639663461E+03  0.00000000000E+00 0.  1.
          5    1    4    4  502    0  0.85350715959E+02 -0.34358403268E+02 -0.10664832718E+03  0.14092977073E+03  0.47000000000E+01 0. -1.
         -5    1    4    4    0  502  0.29681041057E+02  0.65401841795E+02 -0.25032057613E+02  0.76204061682E+02  0.47000000000E+01 0. -1.
<mgrwt>
<rscale>  0 0.99945974E+03</rscale>
<asrwt>0</asrwt>
<pdfrwt beam="1">  1        1 0.57426379E-01 0.99945974E+03</pdfrwt>
<pdfrwt beam="2">  1       -1 0.10292775E+00 0.99945974E+03</pdfrwt>
<totfact> 0.70378728E+01</totfact>
</mgrwt>
</event>
<event>
 9    1  0.4321150E-036  0.1000161E+04  0.7818608E-02  0.8680885E-01
         -2   -1    0    0    0  501 -0.00000000000E+00  0.00000000000E+00  0.87146807728E+03  0.87146807728E+03  0.00000000000E+00 0.  1.
          2   -1    0    0  501    0  0.00000000000E+00 -0.00000000000E+00 -0.28696444693E+03  0.28696444693E+03  0.00000000000E+00 0.  1.
         36    2    1    2    0    0 -0.17763568394E-14 -0.21316282073E-13  0.58450363035E+03  0.11584325242E+04  0.10001606967E+04 0.  0.
         25    2    3    3    0    0  0.70339395941E+01 -0.44514102875E+02  0.26472900741E+03  0.29639669502E+03  0.12545346465E+03 0.  0.
         35    2    3    3    0    0 -0.70339395941E+01  0.44514102875E+02  0.31977462294E+03  0.86203582920E+03  0.79926152146E+03 0.  0.
         22    1    5    5    0    0 -0.10070681688E+03  0.39897443688E+03  0.26971604351E+03  0.49200529303E+03  0.00000000000E+00 0.  1.
         22    1    5    5    0    0  0.93672877283E+02 -0.35446033400E+03  0.50058579428E+02  0.37003053616E+03  0.00000000000E+00 0.  1.
          5    1    4    4  502    0  0.16644434830E+02 -0.41053926794E+02  0.27653083687E+03  0.28009615466E+03  0.47000000000E+01 0. -1.
         -5    1    4    4    0  502 -0.96104952364E+01 -0.34601760814E+01 -0.11801829463E+02  0.16300540355E+02  0.47000000000E+01 0. -1.
<mgrwt>
<rscale>  0 0.10001607E+04</rscale>
<asrwt>0</asrwt>
<pdfrwt beam="1">  1        2 0.44148377E-01 0.10001607E+04</pdfrwt>
<pdfrwt beam="2">  1       -2 0.13407201E+00 0.10001607E+04</pdfrwt>
<totfact> 0.53266129E+01</totfact>
</mgrwt>
</event>
<event>
 9    1  0.4321150E-036  0.1000377E+04  0.7818608E-02  0.8680679E-01
         -1   -1    0    0    0  501 -0.00000000000E+00  0.00000000000E+00  0.30614654327E+03  0.30614654327E+03  0.00000000000E+00 0.  1.
          1   -1    0    0  501    0  0.00000000000E+00 -0.00000000000E+00 -0.81721801767E+03  0.81721801767E+03  0.00000000000E+00 0.  1.
         36    2    1    2    0    0  0.00000000000E+00  0.17763568394E-13 -0.51107147440E+03  0.11233645609E+04  0.10003768714E+04 0.  0.
         25    2    3    3    0    0  0.13355365155E+02 -0.26589114343E+02 -0.24495396895E+03  0.27687172972E+03  0.12557930179E+03 0.  0.
         35    2    3    3    0    0 -0.13355365155E+02  0.26589114343E+02 -0.26611750545E+03  0.84649283121E+03  0.80302318758E+03 0.  0.
         22    1    5    5    0    0  0.19779351816E+02  0.35868441861E+03 -0.35087492283E+03  0.50215430535E+03  0.00000000000E+00 0.  1.
         22    1    5    5    0    0 -0.33134716971E+02 -0.33209530427E+03  0.84757417383E+02  0.34433852585E+03  0.00000000000E+00 0.  1.
          5    1    4    4  502    0  0.64719857406E+02 -0.38635642485E+02 -0.15655896321E+03  0.17382224189E+03  0.47000000000E+01 0. -1.
         -5    1    4    4    0  502 -0.51364492251E+02  0.12046528142E+02 -0.88395005737E+02  0.10304948784E+03  0.47000000000E+01 0. -1.
<mgrwt>
<rscale>  0 0.10003769E+04</rscale>
<asrwt>0</asrwt>
<pdfrwt beam="1">  1        1 0.12572585E+00 0.10003769E+04</pdfrwt>
<pdfrwt beam="2">  1       -1 0.47099469E-01 0.10003769E+04</pdfrwt>
<totfact> 0.10918576E+02</totfact>
</mgrwt>
</event>
<event>
 9    1  0.4321150E-036  0.9997770E+03  0.7818608E-02  0.8681250E-01
          1   -1    0    0  501    0  0.00000000000E+00  0.00000000000E+00  0.17864132698E+04  0.17864132698E+04  0.00000000000E+00 0. -1.
         -1   -1    0    0    0  501 -0.00000000000E+00 -0.00000000000E+00 -0.13988280442E+03  0.13988280442E+03  0.00000000000E+00 0. -1.
         36    2    1    2    0    0  0.00000000000E+00 -0.28421709430E-13  0.16465304654E+04  0.19262960743E+04  0.99977697122E+03 0.  0.
         25    2    3    3    0    0 -0.94000097503E+02 -0.99696133268E+02  0.36037415571E+03  0.40514260626E+03  0.12448157289E+03 0.  0.
         35    2    3    3    0    0  0.94000097503E+02  0.99696133268E+02  0.12861563097E+04  0.15211534680E+04  0.80058383876E+03 0.  0.
         22    1    5    5    0    0 -0.51713532471E+02  0.40482432099E+03  0.99313397202E+03  0.10737188211E+04  0.00000000000E+00 0. -1.
         22    1    5    5    0    0  0.14571362997E+03 -0.30512818772E+03  0.29302233768E+03  0.44743464694E+03  0.00000000000E+00 0. -1.
          5    1    4    4  502    0 -0.11914506893E+03 -0.83982370941E+02  0.23793456720E+03  0.27907621602E+03  0.47000000000E+01 0.  1.
         -5    1    4    4    0  502  0.25144971431E+02 -0.15713762327E+02  0.12243958851E+03  0.12606639024E+03  0.47000000000E+01 0.  1.
<mgrwt>
<rscale>  0 0.99977697E+03</rscale>
<asrwt>0</asrwt>
<pdfrwt beam="1">  1        1 0.27483279E+00 0.99977697E+03</pdfrwt>
<pdfrwt beam="2">  1       -1 0.21520433E-01 0.99977697E+03</pdfrwt>
<totfact> 0.79651359E+01</totfact>
</mgrwt>
</event>
<event>
 9    1  0.4321150E-036  0.1000244E+04  0.7818608E-02  0.8680806E-01
         -2   -1    0    0    0  501 -0.00000000000E+00  0.00000000000E+00  0.73136820544E+03  0.73136820544E+03  0.00000000000E+00 0.  1.
          2   -1    0    0  501    0  0.00000000000E+00 -0.00000000000E+00 -0.34199197461E+03  0.34199197461E+03  0.00000000000E+00 0.  1.
         36    2    1    2    0    0  0.00000000000E+00 -0.28421709430E-13  0.38937623084E+03  0.10733601800E+04  0.10002440837E+04 0.  0.
         25    2    3    3    0    0 -0.11040821240E+03 -0.78511515355E+02  0.11553345041E+03  0.21705916772E+03  0.12414778580E+03 0.  0.
         35    2    3    3    0    0  0.11040821240E+03  0.78511515355E+02  0.27384278043E+03  0.85630101233E+03  0.79994220036E+03 0.  0.
         22    1    5    5    0    0 -0.28978633908E+03 -0.58726516416E+02  0.31403158584E+03  0.43132442888E+03  0.00000000000E+00 0. -1.
         22    1    5    5    0    0  0.40019455148E+03  0.13723803177E+03 -0.40188805410E+02  0.42497658345E+03  0.00000000000E+00 0. -1.
          5    1    4    4  502    0 -0.19138433910E+02 -0.61731089278E+02  0.10521571646E+03  0.12356959183E+03  0.47000000000E+01 0. -1.
         -5    1    4    4    0  502 -0.91269778492E+02 -0.16780426078E+02  0.10317733950E+02  0.93489575885E+02  0.47000000000E+01 0. -1.
<mgrwt>
<rscale>  0 0.10002441E+04</rscale>
<asrwt>0</asrwt>
<pdfrwt beam="1">  1        2 0.52614150E-01 0.10002441E+04</pdfrwt>
<pdfrwt beam="2">  1       -2 0.11251819E+00 0.10002441E+04</pdfrwt>
<totfact> 0.69332037E+01</totfact>
</mgrwt>
</event>
<event>
 9    1  0.4321150E-036  0.9991740E+03  0.7818608E-02  0.8681825E-01
          1   -1    0    0  501    0  0.00000000000E+00  0.00000000000E+00  0.22084634906E+03  0.22084634906E+03  0.00000000000E+00 0. -1.
         -1   -1    0    0    0  501 -0.00000000000E+00 -0.00000000000E+00 -0.11301393367E+04  0.11301393367E+04  0.00000000000E+00 0. -1.
         36    2    1    2    0    0  0.71054273576E-14  0.14210854715E-13 -0.90929298764E+03  0.13509856858E+04  0.99917395171E+03 0.  0.
         25    2    3    3    0    0  0.33733972595E+02  0.16374049304E+02  0.12152885280E+02  0.13005164175E+03  0.12393404093E+03 0.  0.
         35    2    3    3    0    0 -0.33733972595E+02 -0.16374049304E+02 -0.92144587292E+03  0.12209340440E+04  0.80013208455E+03 0.  0.
         22    1    5    5    0    0 -0.29147276281E+02 -0.39493942892E+03 -0.31500278498E+03  0.50601726331E+03  0.00000000000E+00 0.  1.
         22    1    5    5    0    0 -0.45866963136E+01  0.37856537961E+03 -0.60644308794E+03  0.71491678070E+03  0.00000000000E+00 0.  1.
          5    1    4    4  502    0 -0.34385859700E+02  0.10945152511E+02 -0.32081600281E+02  0.48512913615E+02  0.47000000000E+01 0. -1.
         -5    1    4    4    0  502  0.68119832295E+02  0.54288967936E+01  0.44234485561E+02  0.81538728130E+02  0.47000000000E+01 0. -1.
<mgrwt>
<rscale>  0 0.99917395E+03</rscale>
<asrwt>0</asrwt>
<pdfrwt beam="1">  1        1 0.33976361E-01 0.99917395E+03</pdfrwt>
<pdfrwt beam="2">  1       -1 0.17386759E+00 0.99917395E+03</pdfrwt>
<totfact> 0.33803467E+01</totfact>
</mgrwt>
</event>
<event>
 9    1  0.4321150E-036  0.9995283E+03  0.7818608E-02  0.8681487E-01
         -3   -1    0    0    0  501 -0.00000000000E+00  0.00000000000E+00  0.27412821212E+03  0.27412821212E+03  0.00000000000E+00 0. -1.
          3   -1    0    0  501    0  0.00000000000E+00 -0.00000000000E+00 -0.91112178053E+03  0.91112178053E+03  0.00000000000E+00 0. -1.
         36    2    1    2    0    0 -0.71054273576E-14  0.00000000000E+00 -0.63699356841E+03  0.11852499926E+04  0.99952825817E+03 0.  0.
         25    2    3    3    0    0 -0.57120016010E+02 -0.10284981463E+03 -0.20894260836E+03  0.27022362943E+03  0.12459139505E+03 0.  0.
         35    2    3    3    0    0  0.57120016010E+02  0.10284981463E+03 -0.42805096005E+03  0.91502636321E+03  0.80012801499E+03 0.  0.
         22    1    5    5    0    0 -0.10649141801E+03  0.42984999894E+03 -0.22337747092E+03  0.49599288121E+03  0.00000000000E+00 0. -1.
         22    1    5    5    0    0  0.16361143402E+03 -0.32700018431E+03 -0.20467348913E+03  0.41903348200E+03  0.00000000000E+00 0. -1.
          5    1    4    4  502    0 -0.10602433173E+02  0.25037830038E+02 -0.71997316550E+02  0.77103878713E+02  0.47000000000E+01 0. -1.
         -5    1    4    4    0  502 -0.46517582837E+02 -0.12788764466E+03 -0.13694529181E+03  0.19311975072E+03  0.47000000000E+01 0. -1.
<mgrwt>
<rscale>  0 0.99952826E+03</rscale>
<asrwt>0</asrwt>
<pdfrwt beam="1">  1        3 0.14017258E+00 0.99952826E+03</pdfrwt>
<pdfrwt beam="2">  1       -3 0.42173571E-01 0.99952826E+03</pdfrwt>
<totfact> 0.90059970E+00</totfact>
</mgrwt>
</event>
<event>
 9    1  0.4321150E-036  0.1005111E+04  0.7818608E-02  0.8676186E-01
          1   -1    0    0  501    0  0.00000000000E+00  0.00000000000E+00  0.20621361178E+03  0.20621361178E+03  0.00000000000E+00 0. -1.
         -1   -1    0    0    0  501 -0.00000000000E+00 -0.00000000000E+00 -0.12247595155E+04  0.12247595155E+04  0.00000000000E+00 0. -1.
         36    2    1    2    0    0  0.00000000000E+00  0.42632564146E-13 -0.10185459037E+04  0.14309731273E+04  0.10051111048E+04 0.  0.
         25    2    3    3    0    0  0.66199189914E+02  0.95832219818E+02 -0.60095444570E+02  0.17200170289E+03  0.11138660709E+03 0.  0.
         35    2    3    3    0    0 -0.66199189914E+02 -0.95832219818E+02 -0.95845045917E+03  0.12589714244E+04  0.80797005991E+03 0.  0.
         22    1    5    5    0    0 -0.10070830205E+03 -0.42566669614E+03 -0.32841308724E+03  0.54698213333E+03  0.00000000000E+00 0.  1.
         22    1    5    5    0    0  0.34509112139E+02  0.32983447633E+03 -0.63003737193E+03  0.71198929109E+03  0.00000000000E+00 0.  1.
          5    1    4    4  502    0  0.44273192623E+02 -0.14667172717E+02 -0.28687154627E+02  0.54957114017E+02  0.47000000000E+01 0.  1.
         -5    1    4    4    0  502  0.21925997292E+02  0.11049939254E+03 -0.31408289942E+02  0.11704458888E+03  0.47000000000E+01 0.  1.
<mgrwt>
<rscale>  0 0.10051111E+04</rscale>
<asrwt>0</asrwt>
<pdfrwt beam="1">  1        1 0.31725171E-01 0.10051111E+04</pdfrwt>
<pdfrwt beam="2">  1       -1 0.18842454E+00 0.10051111E+04</pdfrwt>
<totfact> 0.27868694E+01</totfact>
</mgrwt>
</event>
<event>
 9    1  0.4321150E-036  0.1001742E+04  0.7818608E-02  0.8679381E-01
          1   -1    0    0  501    0  0.00000000000E+00  0.00000000000E+00  0.70991037917E+03  0.70991037917E+03  0.00000000000E+00 0.  1.
         -1   -1    0    0    0  501 -0.00000000000E+00 -0.00000000000E+00 -0.35338503860E+03  0.35338503860E+03  0.00000000000E+00 0.  1.
         36    2    1    2    0    0 -0.14210854715E-13  0.00000000000E+00  0.35652534057E+03  0.10632954178E+04  0.10017418964E+04 0.  0.
         25    2    3    3    0    0  0.70687431386E+02 -0.15642674776E+02 -0.63800574466E+02  0.15711369587E+03  0.12398707149E+03 0.  0.
         35    2    3    3    0    0 -0.70687431386E+02  0.15642674776E+02  0.42032591504E+03  0.90618172190E+03  0.79953113262E+03 0.  0.
         22    1    5    5    0    0  0.33711654582E+03 -0.95019781392E+02  0.31414568014E+03  0.47049318026E+03  0.00000000000E+00 0. -1.
         22    1    5    5    0    0 -0.40780397721E+03  0.11066245617E+03  0.10618023490E+03  0.43568854164E+03  0.00000000000E+00 0. -1.
          5    1    4    4  502    0  0.15147612801E+02 -0.65842996479E+02 -0.21826622641E+02  0.71156460106E+02  0.47000000000E+01 0.  1.
         -5    1    4    4    0  502  0.55539818585E+02  0.50200321703E+02 -0.41973951825E+02  0.85957235759E+02  0.47000000000E+01 0.  1.
<mgrwt>
<rscale>  0 0.10017419E+04</rscale>
<asrwt>0</asrwt>
<pdfrwt beam="1">  1        1 0.10921698E+00 0.10017419E+04</pdfrwt>
<pdfrwt beam="2">  1       -1 0.54366929E-01 0.10017419E+04</pdfrwt>
<totfact> 0.10470120E+02</totfact>
</mgrwt>
</event>
<event>
 9    1  0.4321150E-036  0.1000773E+04  0.7818608E-02  0.8680302E-01
          1   -1    0    0  501    0  0.00000000000E+00  0.00000000000E+00  0.14738777857E+04  0.14738777857E+04  0.00000000000E+00 0. -1.
         -1   -1    0    0    0  501 -0.00000000000E+00 -0.00000000000E+00 -0.16988287267E+03  0.16988287267E+03  0.00000000000E+00 0. -1.
         36    2    1    2    0    0  0.00000000000E+00 -0.14210854715E-13  0.13039949130E+04  0.16437606583E+04  0.10007728857E+04 0.  0.
         25    2    3    3    0    0 -0.10093162716E+02  0.43585407417E+02  0.44818255571E+03  0.47159301154E+03  0.13975265871E+03 0.  0.
         35    2    3    3    0    0  0.10093162716E+02 -0.43585407417E+02  0.85581235727E+03  0.11721676468E+04  0.79972535388E+03 0.  0.
         22    1    5    5    0    0  0.29740955515E+03 -0.24594741396E+03  0.67356732414E+03  0.77629602220E+03  0.00000000000E+00 0.  1.
         22    1    5    5    0    0 -0.28731639244E+03  0.20236200655E+03  0.18224503314E+03  0.39587162459E+03  0.00000000000E+00 0.  1.
          5    1    4    4  502    0  0.60803874705E+02 -0.64334250385E+00  0.22876875586E+03  0.23675886198E+03  0.47000000000E+01 0. -1.
         -5    1    4    4    0  502 -0.70897037421E+02  0.44228749921E+02  0.21941379985E+03  0.23483414956E+03  0.47000000000E+01 0. -1.
<mgrwt>
<rscale>  0 0.10007729E+04</rscale>
<asrwt>0</asrwt>
<pdfrwt beam="1">  1        1 0.22675042E+00 0.10007729E+04</pdfrwt>
<pdfrwt beam="2">  1       -1 0.26135828E-01 0.10007729E+04</pdfrwt>
<totfact> 0.95720202E+01</totfact>
</mgrwt>
</event>
<event>
 9    1  0.4321150E-036  0.9999484E+03  0.7818608E-02  0.8681087E-01
         -1   -1    0    0    0  501 -0.00000000000E+00  0.00000000000E+00  0.48632048202E+03  0.48632048202E+03  0.00000000000E+00 0. -1.
          1   -1    0    0  501    0  0.00000000000E+00 -0.00000000000E+00 -0.51401124206E+03  0.51401124206E+03  0.00000000000E+00 0. -1.
         36    2    1    2    0    0 -0.14210854715E-13 -0.71054273576E-14 -0.27690760040E+02  0.10003317241E+04  0.99994838868E+03 0.  0.
         25    2    3    3    0    0  0.12629646552E+03  0.25310692443E+02  0.50696778377E+02  0.18651145061E+03  0.12499971806E+03 0.  0.
         35    2    3    3    0    0 -0.12629646552E+03 -0.25310692443E+02 -0.78387538416E+02  0.81382027348E+03  0.79972958116E+03 0.  0.
         22    1    5    5    0    0 -0.31413584390E+03  0.11627129993E+03 -0.32941927146E+03  0.46980570455E+03  0.00000000000E+00 0.  1.
         22    1    5    5    0    0  0.18783937838E+03 -0.14158199238E+03  0.25103173305E+03  0.34401456893E+03  0.00000000000E+00 0.  1.
          5    1    4    4  502    0  0.57709834852E+02 -0.50146979349E+02  0.30539620599E+02  0.82461524379E+02  0.47000000000E+01 0.  1.
         -5    1    4    4    0  502  0.68586630669E+02  0.75457671793E+02  0.20157157778E+02  0.10404992623E+03  0.47000000000E+01 0.  1.
<mgrwt>
<rscale>  0 0.99994839E+03</rscale>
<asrwt>0</asrwt>
<pdfrwt beam="1">  1        1 0.79078652E-01 0.99994839E+03</pdfrwt>
<pdfrwt beam="2">  1       -1 0.74818536E-01 0.99994839E+03</pdfrwt>
<totfact> 0.90301884E+01</totfact>
</mgrwt>
</event>
<event>
 9    1  0.4321150E-036  0.9999401E+03  0.7818608E-02  0.8681095E-01
         -2   -1    0    0    0  501 -0.00000000000E+00  0.00000000000E+00  0.26696807710E+03  0.26696807710E+03  0.00000000000E+00 0.  1.
          2   -1    0    0  501    0  0.00000000000E+00 -0.00000000000E+00 -0.93632938238E+03  0.93632938238E+03  0.00000000000E+00 0.  1.
         36    2    1    2    0    0 -0.71054273576E-14 -0.14210854715E-13 -0.66936130528E+03  0.12032974595E+04  0.99994010769E+03 0.  0.
         25    2    3    3    0    0 -0.90699717038E+00  0.99976028782E+02 -0.24434735706E+03  0.29199131543E+03  0.12472877940E+03 0.  0.
         35    2    3    3    0    0  0.90699717038E+00 -0.99976028782E+02 -0.42501394822E+03  0.91130614405E+03  0.79990374609E+03 0.  0.
         22    1    5    5    0    0 -0.16062624093E+03 -0.33661468364E+03  0.29373230501E+02  0.37412968498E+03  0.00000000000E+00 0. -1.
         22    1    5    5    0    0  0.16153323810E+03  0.23663865485E+03 -0.45438717873E+03  0.53717645906E+03  0.00000000000E+00 0. -1.
          5    1    4    4  502    0 -0.46921777583E+02  0.61282363441E+02 -0.20721202286E+03  0.22116982999E+03  0.47000000000E+01 0. -1.
         -5    1    4    4    0  502  0.46014780413E+02  0.38693665342E+02 -0.37135334198E+02  0.70821485440E+02  0.47000000000E+01 0. -1.
<mgrwt>
<rscale>  0 0.99994011E+03</rscale>
<asrwt>0</asrwt>
<pdfrwt beam="1">  1        2 0.14405068E+00 0.99994011E+03</pdfrwt>
<pdfrwt beam="2">  1       -2 0.41072011E-01 0.99994011E+03</pdfrwt>
<totfact> 0.18824440E+02</totfact>
</mgrwt>
</event>
<event>
 9    1  0.4321150E-036  0.1000332E+04  0.7818608E-02  0.8680722E-01
         -1   -1    0    0    0  501 -0.00000000000E+00  0.00000000000E+00  0.23065240310E+03  0.23065240310E+03  0.00000000000E+00 0.  1.
          1   -1    0    0  501    0  0.00000000000E+00 -0.00000000000E+00 -0.10846016153E+04  0.10846016153E+04  0.00000000000E+00 0.  1.
         36    2    1    2    0    0  0.71054273576E-14 -0.10658141036E-13 -0.85394921215E+03  0.13152540184E+04  0.10003318829E+04 0.  0.
         25    2    3    3    0    0 -0.37103625350E+02 -0.13937587480E+02  0.15627480985E+02  0.13156021643E+03  0.12447062716E+03 0.  0.
         35    2    3    3    0    0  0.37103625350E+02  0.13937587480E+02 -0.86957669314E+03  0.11836938019E+04  0.80211997613E+03 0.  0.
         22    1    5    5    0    0  0.36434138877E+03  0.13300266834E+03 -0.21805881784E+03  0.44495393626E+03  0.00000000000E+00 0. -1.
         22    1    5    5    0    0 -0.32723776342E+03 -0.11906508086E+03 -0.65151787530E+03  0.73873986567E+03  0.00000000000E+00 0. -1.
          5    1    4    4  502    0 -0.73320280417E+02 -0.15545688015E+02 -0.22839703204E+02  0.78493783058E+02  0.47000000000E+01 0. -1.
         -5    1    4    4    0  502  0.36216655067E+02  0.16081005348E+01  0.38467184189E+02  0.53066433374E+02  0.47000000000E+01 0. -1.
<mgrwt>
<rscale>  0 0.10003319E+04</rscale>
<asrwt>0</asrwt>
<pdfrwt beam="1">  1        1 0.16686178E+00 0.10003319E+04</pdfrwt>
<pdfrwt beam="2">  1       -1 0.35484986E-01 0.10003319E+04</pdfrwt>
<totfact> 0.10963098E+02</totfact>
</mgrwt>
</event>
<event>
 9    1  0.4321150E-036  0.1001548E+04  0.7818608E-02  0.8679565E-01
          2   -1    0    0  501    0  0.00000000000E+00  0.00000000000E+00  0.17884218506E+04  0.17884218506E+04  0.00000000000E+00 0.  1.
         -2   -1    0    0    0  501 -0.00000000000E+00 -0.00000000000E+00 -0.14022121296E+03  0.14022121296E+03  0.00000000000E+00 0.  1.
         36    2    1    2    0    0 -0.71054273576E-14  0.14210854715E-13  0.16482006377E+04  0.19286430636E+04  0.10015481640E+04 0.  0.
         25    2    3    3    0    0 -0.29656493983E+02  0.11250361962E+03  0.46556201387E+03  0.49586487821E+03  0.12488961773E+03 0.  0.
         35    2    3    3    0    0  0.29656493983E+02 -0.11250361962E+03  0.11826386238E+04  0.14327781854E+04  0.80042653751E+03 0.  0.
         22    1    5    5    0    0 -0.20404555520E+03  0.27487478083E+03  0.38033565813E+03  0.51170884943E+03  0.00000000000E+00 0. -1.
         22    1    5    5    0    0  0.23370204918E+03 -0.38737840045E+03  0.80230296565E+03  0.92106933595E+03  0.00000000000E+00 0. -1.
          5    1    4    4  502    0 -0.21004740681E+02  0.44934013183E+02  0.39330508907E+03  0.39644829141E+03  0.47000000000E+01 0.  1.
         -5    1    4    4    0  502 -0.86517533020E+01  0.67569606435E+02  0.72256924799E+02  0.99416586797E+02  0.47000000000E+01 0.  1.
<mgrwt>
<rscale>  0 0.10015482E+04</rscale>
<asrwt>0</asrwt>
<pdfrwt beam="1">  1        2 0.27514181E+00 0.10015482E+04</pdfrwt>
<pdfrwt beam="2">  1       -2 0.21572496E-01 0.10015482E+04</pdfrwt>
<totfact> 0.19368578E+02</totfact>
</mgrwt>
</event>
<event>
 9    1  0.4321150E-036  0.9997282E+03  0.7818608E-02  0.8681297E-01
          2   -1    0    0  501    0  0.00000000000E+00  0.00000000000E+00  0.38670153485E+03  0.38670153485E+03  0.00000000000E+00 0. -1.
         -2   -1    0    0    0  501 -0.00000000000E+00 -0.00000000000E+00 -0.64614206422E+03  0.64614206422E+03  0.00000000000E+00 0. -1.
         36    2    1    2    0    0 -0.14210854715E-13  0.00000000000E+00 -0.25944052937E+03  0.10328435991E+04  0.99972821899E+03 0.  0.
         25    2    3    3    0    0  0.71950873183E+02  0.73569677762E+02  0.49387620287E+02  0.16908601764E+03  0.12474581630E+03 0.  0.
         35    2    3    3    0    0 -0.71950873183E+02 -0.73569677762E+02 -0.30882814966E+03  0.86375758143E+03  0.80007056428E+03 0.  0.
         22    1    5    5    0    0  0.22725056983E+03  0.17484700409E+03  0.96028177055E+02  0.30238337771E+03  0.00000000000E+00 0. -1.
         22    1    5    5    0    0 -0.29920144302E+03 -0.24841668185E+03 -0.40485632671E+03  0.56137420372E+03  0.00000000000E+00 0. -1.
          5    1    4    4  502    0  0.10325932501E+03  0.37876379988E+02  0.51046514287E+02  0.12134638430E+03  0.47000000000E+01 0.  1.
         -5    1    4    4    0  502 -0.31308451825E+02  0.35693297774E+02 -0.16588940008E+01  0.47739633335E+02  0.47000000000E+01 0.  1.
<mgrwt>
<rscale>  0 0.99972822E+03</rscale>
<asrwt>0</asrwt>
<pdfrwt beam="1">  1        2 0.59492545E-01 0.99972822E+03</pdfrwt>
<pdfrwt beam="2">  1       -2 0.99406470E-01 0.99972822E+03</pdfrwt>
<totfact> 0.82251265E+01</totfact>
</mgrwt>
</event>
<event>
 9    1  0.4321150E-036  0.1000689E+04  0.7818608E-02  0.8680383E-01
         -2   -1    0    0    0  501 -0.00000000000E+00  0.00000000000E+00  0.65326452581E+03  0.65326452581E+03  0.00000000000E+00 0.  1.
          2   -1    0    0  501    0  0.00000000000E+00 -0.00000000000E+00 -0.38322054104E+03  0.38322054104E+03  0.00000000000E+00 0.  1.
         36    2    1    2    0    0  0.00000000000E+00  0.28421709430E-13  0.27004398476E+03  0.10364850669E+04  0.10006885330E+04 0.  0.
         25    2    3    3    0    0 -0.12509502292E+03 -0.64810834407E+02  0.18181089193E+02  0.18936607657E+03  0.12521880823E+03 0.  0.
         35    2    3    3    0    0  0.12509502292E+03  0.64810834407E+02  0.25186289557E+03  0.84711899028E+03  0.79644614163E+03 0.  0.
         22    1    5    5    0    0  0.45529291270E+03  0.12023774947E+03  0.18350995173E+03  0.50539554325E+03  0.00000000000E+00 0. -1.
         22    1    5    5    0    0 -0.33019788977E+03 -0.55426915063E+02  0.68352943837E+02  0.34172344704E+03  0.00000000000E+00 0. -1.
          5    1    4    4  502    0  0.14661180740E+02  0.13062236140E+02  0.21206382520E+02  0.29280930539E+02  0.47000000000E+01 0.  1.
         -5    1    4    4    0  502 -0.13975620366E+03 -0.77873070547E+02 -0.30252933275E+01  0.16008514603E+03  0.47000000000E+01 0.  1.
<mgrwt>
<rscale>  0 0.10006885E+04</rscale>
<asrwt>0</asrwt>
<pdfrwt beam="1">  1        2 0.58957006E-01 0.10006885E+04</pdfrwt>
<pdfrwt beam="2">  1       -2 0.10050223E+00 0.10006885E+04</pdfrwt>
<totfact> 0.80888429E+01</totfact>
</mgrwt>
</event>
<event>
 9    1  0.4321150E-036  0.1000895E+04  0.7818608E-02  0.8680186E-01
          2   -1    0    0  501    0  0.00000000000E+00  0.00000000000E+00  0.65073512696E+03  0.65073512696E+03  0.00000000000E+00 0.  1.
         -2   -1    0    0    0  501 -0.00000000000E+00 -0.00000000000E+00 -0.38486869939E+03  0.38486869939E+03  0.00000000000E+00 0.  1.
         36    2    1    2    0    0  0.14210854715E-13 -0.35527136788E-13  0.26586642757E+03  0.10356038264E+04  0.10008947636E+04 0.  0.
         25    2    3    3    0    0 -0.33531331486E+02 -0.21942505164E+02 -0.89505797713E+02  0.15878267226E+03  0.12487924352E+03 0.  0.
         35    2    3    3    0    0  0.33531331486E+02  0.21942505164E+02  0.35537222528E+03  0.87682115409E+03  0.80057485224E+03 0.  0.
         22    1    5    5    0    0  0.43258545156E+02  0.35040640597E+03  0.41284169566E+03  0.54322575118E+03  0.00000000000E+00 0. -1.
         22    1    5    5    0    0 -0.97272136700E+01 -0.32846390081E+03 -0.57469470372E+02  0.33359540291E+03  0.00000000000E+00 0. -1.
          5    1    4    4  502    0 -0.73145933367E+02  0.11178638466E+02 -0.73784350222E+02  0.10460167238E+03  0.47000000000E+01 0. -1.
         -5    1    4    4    0  502  0.39614601881E+02 -0.33121143630E+02 -0.15721447491E+02  0.54180999887E+02  0.47000000000E+01 0. -1.
<mgrwt>
<rscale>  0 0.10008948E+04</rscale>
<asrwt>0</asrwt>
<pdfrwt beam="1">  1        2 0.10011310E+00 0.10008948E+04</pdfrwt>
<pdfrwt beam="2">  1       -2 0.59210570E-01 0.10008948E+04</pdfrwt>
<totfact> 0.14470099E+02</totfact>
</mgrwt>
</event>
<event>
 9    1  0.4321150E-036  0.1000541E+04  0.7818608E-02  0.8680523E-01
         -1   -1    0    0    0  501 -0.00000000000E+00  0.00000000000E+00  0.34959270855E+03  0.34959270855E+03  0.00000000000E+00 0.  1.
          1   -1    0    0  501    0  0.00000000000E+00 -0.00000000000E+00 -0.71589116877E+03  0.71589116877E+03  0.00000000000E+00 0.  1.
         36    2    1    2    0    0  0.28421709430E-13  0.00000000000E+00 -0.36629846021E+03  0.10654838773E+04  0.10005405194E+04 0.  0.
         25    2    3    3    0    0 -0.92068244395E+02  0.94655076957E+02 -0.15529817823E+02  0.18203008098E+03  0.12432871720E+03 0.  0.
         35    2    3    3    0    0  0.92068244395E+02 -0.94655076957E+02 -0.35076864239E+03  0.88345379634E+03  0.80000989029E+03 0.  0.
         22    1    5    5    0    0  0.36734971754E+03 -0.54565479628E+02  0.71097202579E+02  0.37812434299E+03  0.00000000000E+00 0.  1.
         22    1    5    5    0    0 -0.27528147315E+03 -0.40089597329E+02 -0.42186584497E+03  0.50532945335E+03  0.00000000000E+00 0.  1.
          5    1    4    4  502    0 -0.18116463108E+02 -0.30202203219E+02  0.30199489405E+01  0.35659352299E+02  0.47000000000E+01 0.  1.
         -5    1    4    4    0  502 -0.73951781287E+02  0.12485728018E+03 -0.18549766764E+02  0.14637072868E+03  0.47000000000E+01 0.  1.
<mgrwt>
<rscale>  0 0.10005405E+04</rscale>
<asrwt>0</asrwt>
<pdfrwt beam="1">  1        1 0.11013710E+00 0.10005405E+04</pdfrwt>
<pdfrwt beam="2">  1       -1 0.53783495E-01 0.10005405E+04</pdfrwt>
<totfact> 0.10547721E+02</totfact>
</mgrwt>
</event>
<event>
 9    1  0.4321150E-036  0.9999528E+03  0.7818608E-02  0.8681083E-01
          2   -1    0    0  501    0  0.00000000000E+00  0.00000000000E+00  0.11704573679E+04  0.11704573679E+04  0.00000000000E+00 0.  1.
         -2   -1    0    0    0  501 -0.00000000000E+00 -0.00000000000E+00 -0.21357154668E+03  0.21357154668E+03  0.00000000000E+00 0.  1.
         36    2    1    2    0    0  0.14210854715E-13 -0.71054273576E-14  0.95688582126E+03  0.13840289146E+04  0.99995277968E+03 0.  0.
         25    2    3    3    0    0  0.68648394608E+02  0.44075325556E+02  0.21641704215E+02  0.15057401581E+03  0.12469536668E+03 0.  0.
         35    2    3    3    0    0 -0.68648394608E+02 -0.44075325556E+02  0.93524411705E+03  0.12334548988E+04  0.80004636898E+03 0.  0.
         22    1    5    5    0    0 -0.84435078118E+02  0.21840701560E+03  0.94174311428E+03  0.97041795129E+03  0.00000000000E+00 0.  1.
         22    1    5    5    0    0  0.15786683511E+02 -0.26248234116E+03 -0.64989972376E+01  0.26303694752E+03  0.00000000000E+00 0.  1.
          5    1    4    4  502    0  0.82334247660E+02 -0.23944072576E+01 -0.21801438459E+02  0.85334953230E+02  0.47000000000E+01 0.  1.
         -5    1    4    4    0  502 -0.13685853052E+02  0.46469732813E+02  0.43443142674E+02  0.65239062584E+02  0.47000000000E+01 0.  1.
<mgrwt>
<rscale>  0 0.99995278E+03</rscale>
<asrwt>0</asrwt>
<pdfrwt beam="1">  1        2 0.18007036E+00 0.99995278E+03</pdfrwt>
<pdfrwt beam="2">  1       -2 0.32857162E-01 0.99995278E+03</pdfrwt>
<totfact> 0.20546169E+02</totfact>
</mgrwt>
</event>
<event>
 9    1  0.4321150E-036  0.9959700E+03  0.7818608E-02  0.8684885E-01
          1   -1    0    0  501    0  0.00000000000E+00  0.00000000000E+00  0.11344891470E+04  0.11344891470E+04  0.00000000000E+00 0.  1.
         -1   -1    0    0    0  501 -0.00000000000E+00 -0.00000000000E+00 -0.21859095561E+03  0.21859095561E+03  0.00000000000E+00 0.  1.
         36    2    1    2    0    0  0.00000000000E+00 -0.14210854715E-13  0.91589819141E+03  0.13530801026E+04  0.99597001316E+03 0.  0.
         25    2    3    3    0    0 -0.25924853392E+01 -0.88392572227E+02  0.30426549273E+02  0.15583154098E+03  0.12465041700E+03 0.  0.
         35    2    3    3    0    0  0.25924853392E+01  0.88392572227E+02  0.88547164214E+03  0.11972485617E+04  0.80095200952E+03 0.  0.
         22    1    5    5    0    0 -0.26765197535E+02 -0.72908872801E+02 -0.13927645858E+03  0.15946790099E+03  0.00000000000E+00 0. -1.
         22    1    5    5    0    0  0.29357682874E+02  0.16130144503E+03  0.10247481007E+04  0.10377806607E+04  0.00000000000E+00 0. -1.
          5    1    4    4  502    0  0.34192681837E+02 -0.63533515815E+02 -0.32012657832E+02  0.79073050937E+02  0.47000000000E+01 0. -1.
         -5    1    4    4    0  502 -0.36785167176E+02 -0.24859056412E+02  0.62439207105E+02  0.76758490043E+02  0.47000000000E+01 0. -1.
<mgrwt>
<rscale>  0 0.99597001E+03</rscale>
<asrwt>0</asrwt>
<pdfrwt beam="1">  1        1 0.17453679E+00 0.99597001E+03</pdfrwt>
<pdfrwt beam="2">  1       -1 0.33629378E-01 0.99597001E+03</pdfrwt>
<totfact> 0.11029778E+02</totfact>
</mgrwt>
</event>
<event>
 9    1  0.4321150E-036  0.1000540E+04  0.7818608E-02  0.8680524E-01
         -2   -1    0    0    0  501 -0.00000000000E+00  0.00000000000E+00  0.10251220331E+03  0.10251220331E+03  0.00000000000E+00 0. -1.
          2   -1    0    0  501    0  0.00000000000E+00 -0.00000000000E+00 -0.24413697194E+04  0.24413697194E+04  0.00000000000E+00 0. -1.
         36    2    1    2    0    0  0.14210854715E-13 -0.14210854715E-13 -0.23388575160E+04  0.25438819227E+04  0.10005402321E+04 0.  0.
         25    2    3    3    0    0 -0.71915751018E+02  0.52481007464E+02 -0.71673681627E+03  0.73298493582E+03  0.12501648274E+03 0.  0.
         35    2    3    3    0    0  0.71915751018E+02 -0.52481007464E+02 -0.16221206998E+04  0.18108969868E+04  0.80009137036E+03 0.  0.
         22    1    5    5    0    0 -0.33090885574E+03 -0.97975803077E+02 -0.42777651789E+03  0.54962958258E+03  0.00000000000E+00 0.  1.
         22    1    5    5    0    0  0.40282460675E+03  0.45494795613E+02 -0.11943441819E+04  0.12612674043E+04  0.00000000000E+00 0.  1.
          5    1    4    4  502    0 -0.54014451098E+02  0.44967067185E+01 -0.62852608296E+03  0.63087630187E+03  0.47000000000E+01 0. -1.
         -5    1    4    4    0  502 -0.17901299919E+02  0.47984300746E+02 -0.88210733310E+02  0.10210863395E+03  0.47000000000E+01 0. -1.
<mgrwt>
<rscale>  0 0.10005402E+04</rscale>
<asrwt>0</asrwt>
<pdfrwt beam="1">  1        2 0.37559535E+00 0.10005402E+04</pdfrwt>
<pdfrwt beam="2">  1       -2 0.15771108E-01 0.10005402E+04</pdfrwt>
<totfact> 0.13890320E+02</totfact>
</mgrwt>
</event>
<event>
 9    1  0.4321150E-036  0.9993387E+03  0.7818608E-02  0.8681668E-01
         -2   -1    0    0    0  501 -0.00000000000E+00  0.00000000000E+00  0.11385105794E+03  0.11385105794E+03  0.00000000000E+00 0.  1.
          2   -1    0    0  501    0  0.00000000000E+00 -0.00000000000E+00 -0.21929478739E+04  0.21929478739E+04  0.00000000000E+00 0.  1.
         36    2    1    2    0    0  0.71054273576E-14  0.14210854715E-13 -0.20790968160E+04  0.23067989319E+04  0.99933865222E+03 0.  0.
         25    2    3    3    0    0 -0.55701062072E+02  0.33012864138E+02 -0.10225531117E+03  0.17400471823E+03  0.12501614212E+03 0.  0.
         35    2    3    3    0    0  0.55701062072E+02 -0.33012864138E+02 -0.19768415048E+04  0.21327942137E+04  0.79794508900E+03 0.  0.
         22    1    5    5    0    0 -0.20909935142E+03 -0.32224558079E+03 -0.12394964091E+04  0.12976579292E+04  0.00000000000E+00 0. -1.
         22    1    5    5    0    0  0.26480041350E+03  0.28923271666E+03 -0.73734509575E+03  0.83513628444E+03  0.00000000000E+00 0. -1.
          5    1    4    4  502    0 -0.13439700199E+02  0.34723067842E+02  0.21420735148E+02  0.43211744654E+02  0.47000000000E+01 0.  1.
         -5    1    4    4    0  502 -0.42261361873E+02 -0.17102037036E+01 -0.12367604632E+03  0.13079297358E+03  0.47000000000E+01 0.  1.
<mgrwt>
<rscale>  0 0.99933865E+03</rscale>
<asrwt>0</asrwt>
<pdfrwt beam="1">  1        2 0.33737658E+00 0.99933865E+03</pdfrwt>
<pdfrwt beam="2">  1       -2 0.17515548E-01 0.99933865E+03</pdfrwt>
<totfact> 0.16306798E+02</totfact>
</mgrwt>
</event>
<event>
 9    1  0.4321150E-036  0.9999391E+03  0.7818608E-02  0.8681096E-01
         -3   -1    0    0    0  501 -0.00000000000E+00  0.00000000000E+00  0.78143257042E+03  0.78143257042E+03  0.00000000000E+00 0.  1.
          3   -1    0    0  501    0  0.00000000000E+00 -0.00000000000E+00 -0.31988627106E+03  0.31988627106E+03  0.00000000000E+00 0.  1.
         36    2    1    2    0    0  0.14210854715E-13 -0.71054273576E-14  0.46154629936E+03  0.11013188415E+04  0.99993910023E+03 0.  0.
         25    2    3    3    0    0  0.59754400627E+02  0.15036874948E+02  0.22423266051E+03  0.26451210685E+03  0.12605424479E+03 0.  0.
         35    2    3    3    0    0 -0.59754400627E+02 -0.15036874948E+02  0.23731363885E+03  0.83680673464E+03  0.80008190327E+03 0.  0.
         22    1    5    5    0    0 -0.11019510621E+03 -0.16257052988E+03 -0.25415639575E+03  0.32119715460E+03  0.00000000000E+00 0.  1.
         22    1    5    5    0    0  0.50440705587E+02  0.14753365494E+03  0.49147003460E+03  0.51560958004E+03  0.00000000000E+00 0.  1.
          5    1    4    4  502    0  0.42172228780E+02  0.14101082912E+02  0.23768926113E+03  0.24185866178E+03  0.47000000000E+01 0. -1.
         -5    1    4    4    0  502  0.17582171847E+02  0.93579203596E+00 -0.13456600618E+02  0.22653445076E+02  0.47000000000E+01 0. -1.
<mgrwt>
<rscale>  0 0.99993910E+03</rscale>
<asrwt>0</asrwt>
<pdfrwt beam="1">  1        3 0.49213273E-01 0.99993910E+03</pdfrwt>
<pdfrwt beam="2">  1       -3 0.12022039E+00 0.99993910E+03</pdfrwt>
<totfact> 0.80806673E+00</totfact>
</mgrwt>
</event>
<event>
 9    1  0.4321150E-036  0.9996640E+03  0.7818608E-02  0.8681358E-01
         -2   -1    0    0    0  501 -0.00000000000E+00  0.00000000000E+00  0.62426478733E+03  0.62426478733E+03  0.00000000000E+00 0.  1.
          2   -1    0    0  501    0  0.00000000000E+00 -0.00000000000E+00 -0.40020202075E+03  0.40020202075E+03  0.00000000000E+00 0.  1.
         36    2    1    2    0    0 -0.14210854715E-13 -0.14210854715E-13  0.22406276658E+03  0.10244668081E+04  0.99966400229E+03 0.  0.
         25    2    3    3    0    0  0.99341747692E+02 -0.11350799760E+02 -0.56241168288E+02  0.16849085050E+03  0.12340370417E+03 0.  0.
         35    2    3    3    0    0 -0.99341747692E+02  0.11350799760E+02  0.28030393487E+03  0.85597595758E+03  0.80257518063E+03 0.  0.
         22    1    5    5    0    0  0.11675161784E+03  0.37114259251E+03  0.13286928344E+03  0.41113502736E+03  0.00000000000E+00 0.  1.
         22    1    5    5    0    0 -0.21609336553E+03 -0.35979179275E+03  0.14743465142E+03  0.44484093021E+03  0.00000000000E+00 0.  1.
          5    1    4    4  502    0  0.33656990347E+02  0.54951359277E+02 -0.14899822465E+02  0.66306406893E+02  0.47000000000E+01 0.  1.
         -5    1    4    4    0  502  0.65684757345E+02 -0.66302159038E+02 -0.41341345823E+02  0.10218444361E+03  0.47000000000E+01 0.  1.
<mgrwt>
<rscale>  0 0.99966400E+03</rscale>
<asrwt>0</asrwt>
<pdfrwt beam="1">  1        2 0.61569542E-01 0.99966400E+03</pdfrwt>
<pdfrwt beam="2">  1       -2 0.96040736E-01 0.99966400E+03</pdfrwt>
<totfact> 0.86007900E+01</totfact>
</mgrwt>
</event>
<event>
 9    1  0.4321150E-036  0.1000198E+04  0.7818608E-02  0.8680849E-01
         -2   -1    0    0    0  501 -0.00000000000E+00  0.00000000000E+00  0.68229351271E+03  0.68229351271E+03  0.00000000000E+00 0.  1.
          2   -1    0    0  501    0  0.00000000000E+00 -0.00000000000E+00 -0.36655629777E+03  0.36655629777E+03  0.00000000000E+00 0.  1.
         36    2    1    2    0    0  0.00000000000E+00 -0.28421709430E-13  0.31573721494E+03  0.10488498105E+04  0.10001979484E+04 0.  0.
         25    2    3    3    0    0  0.16448732649E+02 -0.11685894391E+03  0.14424952681E+03  0.22542883578E+03  0.12682137216E+03 0.  0.
         35    2    3    3    0    0 -0.16448732649E+02  0.11685894391E+03  0.17148768813E+03  0.82342097471E+03  0.79667276898E+03 0.  0.
         22    1    5    5    0    0 -0.19204628709E+03  0.37146456694E+03 -0.78820841628E+02  0.42553545792E+03  0.00000000000E+00 0. -1.
         22    1    5    5    0    0  0.17559755444E+03 -0.25460562302E+03  0.25030852976E+03  0.39788551679E+03  0.00000000000E+00 0. -1.
          5    1    4    4  502    0 -0.49832387259E+02 -0.59459488644E+02  0.34926678262E+02  0.85209509236E+02  0.47000000000E+01 0. -1.
         -5    1    4    4    0  502  0.66281119908E+02 -0.57399455269E+02  0.10932284854E+03  0.14021932654E+03  0.47000000000E+01 0. -1.
<mgrwt>
<rscale>  0 0.10001979E+04</rscale>
<asrwt>0</asrwt>
<pdfrwt beam="1">  1        2 0.56393277E-01 0.10001979E+04</pdfrwt>
<pdfrwt beam="2">  1       -2 0.10496823E+00 0.10001979E+04</pdfrwt>
<totfact> 0.76388341E+01</totfact>
</mgrwt>
</event>
<event>
 9    1  0.4321150E-036  0.1000760E+04  0.7818608E-02  0.8680315E-01
          1   -1    0    0  501    0  0.00000000000E+00  0.00000000000E+00  0.60524454343E+03  0.60524454343E+03  0.00000000000E+00 0.  1.
         -1   -1    0    0    0  501 -0.00000000000E+00 -0.00000000000E+00 -0.41368407310E+03  0.41368407310E+03  0.00000000000E+00 0.  1.
         36    2    1    2    0    0  0.35527136788E-14  0.56843418861E-13  0.19156047033E+03  0.10189286165E+04  0.10007597673E+04 0.  0.
         25    2    3    3    0    0  0.27296110966E+02  0.13410922217E+03  0.83451084646E+02  0.20273778322E+03  0.12412962609E+03 0.  0.
         35    2    3    3    0    0 -0.27296110966E+02 -0.13410922217E+03  0.10810938569E+03  0.81619083330E+03  0.79733899688E+03 0.  0.
         22    1    5    5    0    0 -0.22435543051E+03  0.86481041742E+02 -0.25324644291E+03  0.34921066797E+03  0.00000000000E+00 0. -1.
         22    1    5    5    0    0  0.19705931954E+03 -0.22059026391E+03  0.36135582860E+03  0.46698016533E+03  0.00000000000E+00 0. -1.
          5    1    4    4  502    0 -0.27035175064E+02  0.12562025012E+03  0.48579630833E+02  0.13745333194E+03  0.47000000000E+01 0.  1.
         -5    1    4    4    0  502  0.54331286030E+02  0.84889720495E+01  0.34871453812E+02  0.65284451281E+02  0.47000000000E+01 0.  1.
<mgrwt>
<rscale>  0 0.10007598E+04</rscale>
<asrwt>0</asrwt>
<pdfrwt beam="1">  1        1 0.93114545E-01 0.10007598E+04</pdfrwt>
<pdfrwt beam="2">  1       -1 0.63643704E-01 0.10007598E+04</pdfrwt>
<totfact> 0.98483245E+01</totfact>
</mgrwt>
</event>
<event>
 9    1  0.4321150E-036  0.9996075E+03  0.7818608E-02  0.8681412E-01
          2   -1    0    0  501    0  0.00000000000E+00  0.00000000000E+00  0.19226843300E+04  0.19226843300E+04  0.00000000000E+00 0. -1.
         -2   -1    0    0    0  501 -0.00000000000E+00 -0.00000000000E+00 -0.12992450033E+03  0.12992450033E+03  0.00000000000E+00 0. -1.
         36    2    1    2    0    0  0.00000000000E+00  0.00000000000E+00  0.17927598297E+04  0.20526088304E+04  0.99960752472E+03 0.  0.
         25    2    3    3    0    0 -0.12095563292E+03  0.45016427566E+02  0.23856576800E+03  0.29981003067E+03  0.12773286556E+03 0.  0.
         35    2    3    3    0    0  0.12095563292E+03 -0.45016427566E+02  0.15541940617E+04  0.17527987997E+04  0.80007981282E+03 0.  0.
         22    1    5    5    0    0  0.24547507587E+03  0.86319459609E+02  0.86828012593E+02  0.27431399117E+03  0.00000000000E+00 0.  1.
         22    1    5    5    0    0 -0.12451944296E+03 -0.13133588717E+03  0.14673660491E+04  0.14784848085E+04  0.00000000000E+00 0.  1.
          5    1    4    4  502    0 -0.49194224923E+02 -0.38669405131E+02  0.45757111845E+02  0.77660787682E+02  0.47000000000E+01 0.  1.
         -5    1    4    4    0  502 -0.71761407994E+02  0.83685832697E+02  0.19280865615E+03  0.22214924298E+03  0.47000000000E+01 0.  1.
<mgrwt>
<rscale>  0 0.99960752E+03</rscale>
<asrwt>0</asrwt>
<pdfrwt beam="1">  1        2 0.29579757E+00 0.99960752E+03</pdfrwt>
<pdfrwt beam="2">  1       -2 0.19988386E-01 0.99960752E+03</pdfrwt>
<totfact> 0.18566358E+02</totfact>
</mgrwt>
</event>
<event>
 9    1  0.4321150E-036  0.9984564E+03  0.7818608E-02  0.8682509E-01
         -2   -1    0    0    0  501 -0.00000000000E+00  0.00000000000E+00  0.41900946136E+03  0.41900946136E+03  0.00000000000E+00 0.  1.
          2   -1    0    0  501    0  0.00000000000E+00 -0.00000000000E+00 -0.59480467509E+03  0.59480467509E+03  0.00000000000E+00 0.  1.
         36    2    1    2    0    0  0.71054273576E-14 -0.14210854715E-13 -0.17579521373E+03  0.10138141364E+04  0.99845638166E+03 0.  0.
         25    2    3    3    0    0  0.34197750699E+01 -0.60830914238E+02  0.89978977092E+02  0.16877507081E+03  0.12913834914E+03 0.  0.
         35    2    3    3    0    0 -0.34197750699E+01  0.60830914238E+02 -0.26577419082E+03  0.84503906564E+03  0.79983936322E+03 0.  0.
         22    1    5    5    0    0 -0.21080058348E+03  0.13830916466E+02 -0.49147113229E+03  0.53495051558E+03  0.00000000000E+00 0.  1.
         22    1    5    5    0    0  0.20738080841E+03  0.46999997772E+02  0.22569694147E+03  0.31008855006E+03  0.00000000000E+00 0.  1.
          5    1    4    4  502    0 -0.42291194806E+02  0.21816159171E+02  0.24277094654E+02  0.53627952450E+02  0.47000000000E+01 0. -1.
         -5    1    4    4    0  502  0.45710969876E+02 -0.82647073409E+02  0.65701882438E+02  0.11514711836E+03  0.47000000000E+01 0. -1.
<mgrwt>
<rscale>  0 0.99845638E+03</rscale>
<asrwt>0</asrwt>
<pdfrwt beam="1">  1        2 0.91508411E-01 0.99845638E+03</pdfrwt>
<pdfrwt beam="2">  1       -2 0.64462995E-01 0.99845638E+03</pdfrwt>
<totfact> 0.13477038E+02</totfact>
</mgrwt>
</event>
<event>
 9    1  0.4321150E-036  0.1000135E+04  0.7818608E-02  0.8680909E-01
         -1   -1    0    0    0  501 -0.00000000000E+00  0.00000000000E+00  0.71581301640E+03  0.71581301640E+03  0.00000000000E+00 0.  1.
          1   -1    0    0  501    0  0.00000000000E+00 -0.00000000000E+00 -0.34934751825E+03  0.34934751825E+03  0.00000000000E+00 0.  1.
         36    2    1    2    0    0 -0.42632564146E-13  0.00000000000E+00  0.36646549815E+03  0.10651605347E+04  0.10001349925E+04 0.  0.
         25    2    3    3    0    0 -0.65544775897E+01 -0.12279627813E+03  0.14230385197E+03  0.22567492596E+03  0.12472729782E+03 0.  0.
         35    2    3    3    0    0  0.65544775897E+01  0.12279627813E+03  0.22416164618E+03  0.83948560870E+03  0.79960349955E+03 0.  0.
         22    1    5    5    0    0 -0.33706658788E+03  0.27076173397E+03  0.15320819708E+03  0.45869222023E+03  0.00000000000E+00 0. -1.
         22    1    5    5    0    0  0.34362106547E+03 -0.14796545585E+03  0.70953449106E+02  0.38079338847E+03  0.00000000000E+00 0. -1.
          5    1    4    4  502    0  0.42057391001E+02 -0.29466282748E+02  0.38564373590E+01  0.51711198651E+02  0.47000000000E+01 0. -1.
         -5    1    4    4    0  502 -0.48611868591E+02 -0.93329995380E+02  0.13844741461E+03  0.17396372730E+03  0.47000000000E+01 0. -1.
<mgrwt>
<rscale>  0 0.10001350E+04</rscale>
<asrwt>0</asrwt>
<pdfrwt beam="1">  1        1 0.53745772E-01 0.10001350E+04</pdfrwt>
<pdfrwt beam="2">  1       -1 0.11012508E+00 0.10001350E+04</pdfrwt>
<totfact> 0.65719443E+01</totfact>
</mgrwt>
</event>
<event>
 9    1  0.4321150E-036  0.1000082E+04  0.7818608E-02  0.8680960E-01
         -1   -1    0    0    0  501 -0.00000000000E+00  0.00000000000E+00  0.13799089631E+04  0.13799089631E+04  0.00000000000E+00 0.  1.
          1   -1    0    0  501    0  0.00000000000E+00 -0.00000000000E+00 -0.18120098453E+03  0.18120098453E+03  0.00000000000E+00 0.  1.
         36    2    1    2    0    0  0.00000000000E+00  0.28421709430E-13  0.11987079785E+04  0.15611099476E+04  0.10000817220E+04 0.  0.
         25    2    3    3    0    0  0.56554711315E+02 -0.79831199983E+02  0.37946212823E+03  0.41144701961E+03  0.12540210255E+03 0.  0.
         35    2    3    3    0    0 -0.56554711315E+02  0.79831199983E+02  0.81924585031E+03  0.11496629280E+04  0.80061827914E+03 0.  0.
         22    1    5    5    0    0  0.89277170450E+02  0.19682635824E+03 -0.80549078227E+02  0.23064947966E+03  0.00000000000E+00 0. -1.
         22    1    5    5    0    0 -0.14583188176E+03 -0.11699515826E+03  0.89979492854E+03  0.91901344834E+03  0.00000000000E+00 0. -1.
          5    1    4    4  502    0  0.14145354661E+02  0.31695240976E+02  0.13369338729E+03  0.13820525013E+03  0.47000000000E+01 0. -1.
         -5    1    4    4    0  502  0.42409356654E+02 -0.11152644096E+03  0.24576874094E+03  0.27324176948E+03  0.47000000000E+01 0. -1.
<mgrwt>
<rscale>  0 0.10000817E+04</rscale>
<asrwt>0</asrwt>
<pdfrwt beam="1">  1        1 0.27877076E-01 0.10000817E+04</pdfrwt>
<pdfrwt beam="2">  1       -1 0.21229368E+00 0.10000817E+04</pdfrwt>
<totfact> 0.20685666E+01</totfact>
</mgrwt>
</event>
<event>
 9    1  0.4321150E-036  0.1000395E+04  0.7818608E-02  0.8680662E-01
          2   -1    0    0  501    0  0.00000000000E+00  0.00000000000E+00  0.10028447494E+04  0.10028447494E+04  0.00000000000E+00 0. -1.
         -2   -1    0    0    0  501 -0.00000000000E+00 -0.00000000000E+00 -0.24948799558E+03  0.24948799558E+03  0.00000000000E+00 0. -1.
         36    2    1    2    0    0  0.14210854715E-13  0.14210854715E-13  0.75335675379E+03  0.12523327450E+04  0.10003953746E+04 0.  0.
         25    2    3    3    0    0 -0.92343837764E+02  0.10072850380E+03  0.99783119421E+02  0.21044680181E+03  0.12513021066E+03 0.  0.
         35    2    3    3    0    0  0.92343837764E+02 -0.10072850380E+03  0.65357363437E+03  0.10418859432E+04  0.79980885663E+03 0.  0.
         22    1    5    5    0    0  0.19372263760E+03  0.28050333609E+03  0.87549772086E+02  0.35195957789E+03  0.00000000000E+00 0. -1.
         22    1    5    5    0    0 -0.10137879984E+03 -0.38123183989E+03  0.56602386229E+03  0.68992636526E+03  0.00000000000E+00 0. -1.
          5    1    4    4  502    0 -0.35687943893E+01  0.83822086082E+02  0.12931051238E+02  0.85018706733E+02  0.47000000000E+01 0. -1.
         -5    1    4    4    0  502 -0.88775043375E+02  0.16906417718E+02  0.86852068183E+02  0.12542809507E+03  0.47000000000E+01 0. -1.
<mgrwt>
<rscale>  0 0.10003954E+04</rscale>
<asrwt>0</asrwt>
<pdfrwt beam="1">  1        2 0.15428381E+00 0.10003954E+04</pdfrwt>
<pdfrwt beam="2">  1       -2 0.38382769E-01 0.10003954E+04</pdfrwt>
<totfact> 0.19435204E+02</totfact>
</mgrwt>
</event>
<event>
 9    1  0.4321150E-036  0.9964683E+03  0.7818608E-02  0.8684408E-01
          2   -1    0    0  501    0  0.00000000000E+00  0.00000000000E+00  0.13704654441E+04  0.13704654441E+04  0.00000000000E+00 0. -1.
         -2   -1    0    0    0  501 -0.00000000000E+00 -0.00000000000E+00 -0.18113354512E+03  0.18113354512E+03  0.00000000000E+00 0. -1.
         36    2    1    2    0    0  0.71054273576E-14  0.14210854715E-13  0.11893318990E+04  0.15515989892E+04  0.99646829224E+03 0.  0.
         25    2    3    3    0    0 -0.84414528074E+01  0.95328812184E+02  0.37212823508E+03  0.40409332784E+03  0.12511256412E+03 0.  0.
         35    2    3    3    0    0  0.84414528074E+01 -0.95328812184E+02  0.81720366392E+03  0.11475056614E+04  0.79986784788E+03 0.  0.
         22    1    5    5    0    0  0.25017166019E+03 -0.59063438847E+00  0.84977816404E+03  0.88583809835E+03  0.00000000000E+00 0.  1.
         22    1    5    5    0    0 -0.24173020738E+03 -0.94738177796E+02 -0.32574500126E+02  0.26166756305E+03  0.00000000000E+00 0.  1.
          5    1    4    4  502    0  0.27887470283E+02 -0.21206300447E+02  0.81372023884E+02  0.88718174285E+02  0.47000000000E+01 0.  1.
         -5    1    4    4    0  502 -0.36328923090E+02  0.11653511263E+03  0.29075621120E+03  0.31537515356E+03  0.47000000000E+01 0.  1.
<mgrwt>
<rscale>  0 0.99646829E+03</rscale>
<asrwt>0</asrwt>
<pdfrwt beam="1">  1        2 0.21084083E+00 0.99646829E+03</pdfrwt>
<pdfrwt beam="2">  1       -2 0.27866700E-01 0.99646829E+03</pdfrwt>
<totfact> 0.21213956E+02</totfact>
</mgrwt>
</event>
<event>
 9    1  0.4321150E-036  0.1000400E+04  0.7818608E-02  0.8680657E-01
         -2   -1    0    0    0  501 -0.00000000000E+00  0.00000000000E+00  0.42430985877E+03  0.42430985877E+03  0.00000000000E+00 0. -1.
          2   -1    0    0  501    0  0.00000000000E+00 -0.00000000000E+00 -0.58966354338E+03  0.58966354338E+03  0.00000000000E+00 0. -1.
         36    2    1    2    0    0  0.14210854715E-13 -0.28421709430E-13 -0.16535368461E+03  0.10139734021E+04  0.10004000296E+04 0.  0.
         25    2    3    3    0    0 -0.60014789626E+01  0.13339112672E+03  0.10019700599E+02  0.18475355594E+03  0.12729599991E+03 0.  0.
         35    2    3    3    0    0  0.60014789626E+01 -0.13339112672E+03 -0.17537338521E+03  0.82921984621E+03  0.79938758976E+03 0.  0.
         22    1    5    5    0    0 -0.25215178975E+03  0.18352902858E+03  0.11000128212E+03  0.33070184679E+03  0.00000000000E+00 0. -1.
         22    1    5    5    0    0  0.25815326871E+03 -0.31692015531E+03 -0.28537466733E+03  0.49851799941E+03  0.00000000000E+00 0. -1.
          5    1    4    4  502    0 -0.48302812555E+02  0.16387073966E+02  0.28918906251E+02  0.58822538475E+02  0.47000000000E+01 0. -1.
         -5    1    4    4    0  502  0.42301333592E+02  0.11700405276E+03 -0.18899205652E+02  0.12593101746E+03  0.47000000000E+01 0. -1.
<mgrwt>
<rscale>  0 0.10004000E+04</rscale>
<asrwt>0</asrwt>
<pdfrwt beam="1">  1        2 0.90717468E-01 0.10004000E+04</pdfrwt>
<pdfrwt beam="2">  1       -2 0.65278440E-01 0.10004000E+04</pdfrwt>
<totfact> 0.13256189E+02</totfact>
</mgrwt>
</event>
<event>
 9    1  0.4321150E-036  0.9997977E+03  0.7818608E-02  0.8681231E-01
          2   -1    0    0  501    0  0.00000000000E+00  0.00000000000E+00  0.10878222599E+04  0.10878222599E+04  0.00000000000E+00 0.  1.
         -2   -1    0    0    0  501 -0.00000000000E+00 -0.00000000000E+00 -0.22972400367E+03  0.22972400367E+03  0.00000000000E+00 0.  1.
         36    2    1    2    0    0  0.28421709430E-13 -0.71054273576E-14  0.85809825620E+03  0.13175462636E+04  0.99979774920E+03 0.  0.
         25    2    3    3    0    0 -0.11457403632E+02 -0.22908781720E+02  0.34233282315E+03  0.36544891964E+03  0.12531985749E+03 0.  0.
         35    2    3    3    0    0  0.11457403632E+02  0.22908781720E+02  0.51576543305E+03  0.95209734391E+03  0.79988704576E+03 0.  0.
         22    1    5    5    0    0 -0.13184561681E+03  0.18578327309E+03 -0.13590092033E+03  0.26526920548E+03  0.00000000000E+00 0.  1.
         22    1    5    5    0    0  0.14330302044E+03 -0.16287449137E+03  0.65166635338E+03  0.68682813843E+03  0.00000000000E+00 0.  1.
          5    1    4    4  502    0 -0.64119210872E+02 -0.92259553096E+01  0.24881345072E+03  0.25715095706E+03  0.47000000000E+01 0. -1.
         -5    1    4    4    0  502  0.52661807240E+02 -0.13682826410E+02  0.93519372429E+02  0.10829796258E+03  0.47000000000E+01 0. -1.
<mgrwt>
<rscale>  0 0.99979775E+03</rscale>
<asrwt>0</asrwt>
<pdfrwt beam="1">  1        2 0.16735727E+00 0.99979775E+03</pdfrwt>
<pdfrwt beam="2">  1       -2 0.35342155E-01 0.99979775E+03</pdfrwt>
<totfact> 0.20118952E+02</totfact>
</mgrwt>
</event>
<event>
 9    1  0.4321150E-036  0.9893970E+03  0.7818608E-02  0.8691201E-01
          3   -1    0    0  501    0  0.00000000000E+00  0.00000000000E+00  0.97109224029E+03  0.97109224029E+03  0.00000000000E+00 0. -1.
         -3   -1    0    0    0  501 -0.00000000000E+00 -0.00000000000E+00 -0.25201169104E+03  0.25201169104E+03  0.00000000000E+00 0. -1.
         36    2    1    2    0    0  0.14210854715E-13  0.28421709430E-13  0.71908054925E+03  0.12231039313E+04  0.98939698329E+03 0.  0.
         25    2    3    3    0    0 -0.91795762521E+02  0.74610222366E+02  0.65335643973E+02  0.18421156516E+03  0.12518788705E+03 0.  0.
         35    2    3    3    0    0  0.91795762521E+02 -0.74610222366E+02  0.65374490527E+03  0.10388923662E+04  0.79870006889E+03 0.  0.
         22    1    5    5    0    0  0.21468204009E+03  0.24971194736E+03  0.37081838867E+02  0.33139024996E+03  0.00000000000E+00 0. -1.
         22    1    5    5    0    0 -0.12288627757E+03 -0.32432216973E+03  0.61666306641E+03  0.70750211622E+03  0.00000000000E+00 0. -1.
          5    1    4    4  502    0  0.15425514482E+02 -0.21922414192E+02  0.16491253147E+02  0.31821222029E+02  0.47000000000E+01 0.  1.
         -5    1    4    4    0  502 -0.10722127700E+03  0.96532636559E+02  0.48844390826E+02  0.15239034313E+03  0.47000000000E+01 0.  1.
<mgrwt>
<rscale>  0 0.98939698E+03</rscale>
<asrwt>0</asrwt>
<pdfrwt beam="1">  1        3 0.14939880E+00 0.98939698E+03</pdfrwt>
<pdfrwt beam="2">  1       -3 0.38771030E-01 0.98939698E+03</pdfrwt>
<totfact> 0.90174941E+00</totfact>
</mgrwt>
</event>
<event>
 9    1  0.4321150E-036  0.1000639E+04  0.7818608E-02  0.8680430E-01
          2   -1    0    0  501    0  0.00000000000E+00  0.00000000000E+00  0.22501370829E+04  0.22501370829E+04  0.00000000000E+00 0. -1.
         -2   -1    0    0    0  501 -0.00000000000E+00 -0.00000000000E+00 -0.11124635370E+03  0.11124635370E+03  0.00000000000E+00 0. -1.
         36    2    1    2    0    0 -0.31974423109E-13  0.35527136788E-13  0.21388907292E+04  0.23613834366E+04  0.10006388875E+04 0.  0.
         25    2    3    3    0    0 -0.19407974582E+02 -0.39927208106E+01  0.72009241529E+03  0.73108933308E+03  0.12476343651E+03 0.  0.
         35    2    3    3    0    0  0.19407974582E+02  0.39927208106E+01  0.14187983139E+04  0.16302941035E+04  0.80279362048E+03 0.  0.
         22    1    5    5    0    0 -0.25065872733E+03  0.30088422573E+03  0.82962310943E+03  0.91740700814E+03  0.00000000000E+00 0. -1.
         22    1    5    5    0    0  0.27006670191E+03 -0.29689150492E+03  0.58917520444E+03  0.71288709534E+03  0.00000000000E+00 0. -1.
          5    1    4    4  502    0 -0.19359635710E+02  0.57797716684E+02  0.27568251756E+03  0.28237973021E+03  0.47000000000E+01 0.  1.
         -5    1    4    4    0  502 -0.48338872040E-01 -0.61790437495E+02  0.44440989773E+03  0.44870960287E+03  0.47000000000E+01 0.  1.
<mgrwt>
<rscale>  0 0.10006389E+04</rscale>
<asrwt>0</asrwt>
<pdfrwt beam="1">  1        2 0.34617490E+00 0.10006389E+04</pdfrwt>
<pdfrwt beam="2">  1       -2 0.17114825E-01 0.10006389E+04</pdfrwt>
<totfact> 0.15708302E+02</totfact>
</mgrwt>
</event>
<event>
 9    1  0.4321150E-036  0.1000116E+04  0.7818608E-02  0.8680927E-01
          1   -1    0    0  501    0  0.00000000000E+00  0.00000000000E+00  0.56716840318E+03  0.56716840318E+03  0.00000000000E+00 0.  1.
         -1   -1    0    0    0  501 -0.00000000000E+00 -0.00000000000E+00 -0.44088849339E+03  0.44088849339E+03  0.00000000000E+00 0.  1.
         36    2    1    2    0    0  0.28421709430E-13 -0.35527136788E-14  0.12627990978E+03  0.10080568966E+04  0.10001160388E+04 0.  0.
         25    2    3    3    0    0 -0.13909288684E+03 -0.19987918039E+02  0.17776951723E+02  0.18887859805E+03  0.12495101741E+03 0.  0.
         35    2    3    3    0    0  0.13909288684E+03  0.19987918039E+02  0.10850295806E+03  0.81917829852E+03  0.79970859994E+03 0.  0.
         22    1    5    5    0    0  0.36114968230E+03 -0.29236915235E+02 -0.21680581332E+03  0.42224240778E+03  0.00000000000E+00 0. -1.
         22    1    5    5    0    0 -0.22205679547E+03  0.49224833274E+02  0.32530877138E+03  0.39693589074E+03  0.00000000000E+00 0. -1.
          5    1    4    4  502    0 -0.16250535406E+03 -0.12686102181E+02  0.15685309431E+02  0.16382016426E+03  0.47000000000E+01 0. -1.
         -5    1    4    4    0  502  0.23412467223E+02 -0.73018158580E+01  0.20916422922E+01  0.25058433786E+02  0.47000000000E+01 0. -1.
<mgrwt>
<rscale>  0 0.10001160E+04</rscale>
<asrwt>0</asrwt>
<pdfrwt beam="1">  1        1 0.87256678E-01 0.10001160E+04</pdfrwt>
<pdfrwt beam="2">  1       -1 0.67828999E-01 0.10001160E+04</pdfrwt>
<totfact> 0.95553322E+01</totfact>
</mgrwt>
</event>
<event>
 9    1  0.4321150E-036  0.1000078E+04  0.7818608E-02  0.8680964E-01
         -2   -1    0    0    0  501 -0.00000000000E+00  0.00000000000E+00  0.46081868924E+03  0.46081868924E+03  0.00000000000E+00 0. -1.
          2   -1    0    0  501    0  0.00000000000E+00 -0.00000000000E+00 -0.54259711163E+03  0.54259711163E+03  0.00000000000E+00 0. -1.
         36    2    1    2    0    0  0.00000000000E+00 -0.35527136788E-14 -0.81778422395E+02  0.10034158009E+04  0.10000777765E+04 0.  0.
         25    2    3    3    0    0  0.83271892339E+02 -0.19096293948E+02 -0.12761948550E+03  0.19781023635E+03  0.12467269159E+03 0.  0.
         35    2    3    3    0    0 -0.83271892339E+02  0.19096293948E+02  0.45841063102E+02  0.80560556452E+03  0.79974998970E+03 0.  0.
         22    1    5    5    0    0 -0.14189565415E+03  0.34047695142E+02  0.41065400910E+03  0.43580997854E+03  0.00000000000E+00 0. -1.
         22    1    5    5    0    0  0.58623761807E+02 -0.14951401194E+02 -0.36481294599E+03  0.36979558598E+03  0.00000000000E+00 0. -1.
          5    1    4    4  502    0  0.89501865469E+02 -0.43403666868E+02 -0.13806149930E+03  0.17022787612E+03  0.47000000000E+01 0.  1.
         -5    1    4    4    0  502 -0.62299731302E+01  0.24307372920E+02  0.10442013800E+02  0.27582360227E+02  0.47000000000E+01 0.  1.
<mgrwt>
<rscale>  0 0.10000778E+04</rscale>
<asrwt>0</asrwt>
<pdfrwt beam="1">  1        2 0.83476479E-01 0.10000778E+04</pdfrwt>
<pdfrwt beam="2">  1       -2 0.70895183E-01 0.10000778E+04</pdfrwt>
<totfact> 0.12231385E+02</totfact>
</mgrwt>
</event>
<event>
 9    1  0.4321150E-036  0.1011459E+04  0.7818608E-02  0.8670201E-01
         -1   -1    0    0    0  501 -0.00000000000E+00  0.00000000000E+00  0.70274654830E+03  0.70274654830E+03  0.00000000000E+00 0.  1.
          1   -1    0    0  501    0  0.00000000000E+00 -0.00000000000E+00 -0.36394685517E+03  0.36394685517E+03  0.00000000000E+00 0.  1.
         36    2    1    2    0    0  0.28421709430E-13  0.14210854715E-13  0.33879969313E+03  0.10666934035E+04  0.10114591366E+04 0.  0.
         25    2    3    3    0    0  0.13136501060E+03 -0.75567789949E+02  0.48940503993E+02  0.20190336243E+03  0.12410696170E+03 0.  0.
         35    2    3    3    0    0 -0.13136501060E+03  0.75567789949E+02  0.28985918914E+03  0.86479004104E+03  0.80054744311E+03 0.  0.
         22    1    5    5    0    0 -0.43463271234E+03  0.18151801256E+03  0.27004912031E+03  0.54293729923E+03  0.00000000000E+00 0.  1.
         22    1    5    5    0    0  0.30326770173E+03 -0.10595022261E+03  0.19810068831E+02  0.32185274181E+03  0.00000000000E+00 0.  1.
          5    1    4    4  502    0  0.10944008589E+03 -0.10536102646E+01  0.57324190159E+02  0.12363816269E+03  0.47000000000E+01 0. -1.
         -5    1    4    4    0  502  0.21924924709E+02 -0.74514179684E+02 -0.83836861656E+01  0.78265199746E+02  0.47000000000E+01 0. -1.
<mgrwt>
<rscale>  0 0.10114591E+04</rscale>
<asrwt>0</asrwt>
<pdfrwt beam="1">  1        1 0.55991824E-01 0.10114591E+04</pdfrwt>
<pdfrwt beam="2">  1       -1 0.10811485E+00 0.10114591E+04</pdfrwt>
<totfact> 0.64910178E+01</totfact>
</mgrwt>
</event>
<event>
 9    1  0.4321150E-036  0.1000293E+04  0.7818608E-02  0.8680759E-01
          2   -1    0    0  501    0  0.00000000000E+00  0.00000000000E+00  0.12697717286E+04  0.12697717286E+04  0.00000000000E+00 0. -1.
         -2   -1    0    0    0  501 -0.00000000000E+00 -0.00000000000E+00 -0.19700123709E+03  0.19700123709E+03  0.00000000000E+00 0. -1.
         36    2    1    2    0    0  0.00000000000E+00  0.00000000000E+00  0.10727704915E+04  0.14667729657E+04  0.10002931598E+04 0.  0.
         25    2    3    3    0    0  0.12923575640E+03  0.44216286300E+02  0.16490407184E+03  0.24745120140E+03  0.12402331820E+03 0.  0.
         35    2    3    3    0    0 -0.12923575640E+03 -0.44216286300E+02  0.90786641966E+03  0.12193217643E+04  0.80241334001E+03 0.  0.
         22    1    5    5    0    0 -0.35442709921E+03 -0.20799563786E+03  0.83631019376E+03  0.93182374632E+03  0.00000000000E+00 0. -1.
         22    1    5    5    0    0  0.22519134281E+03  0.16377935156E+03  0.71556225905E+02  0.28749801797E+03  0.00000000000E+00 0. -1.
          5    1    4    4  502    0  0.14349973995E+02 -0.39265334042E+02  0.31564630653E+02  0.52593765023E+02  0.47000000000E+01 0.  1.
         -5    1    4    4    0  502  0.11488578241E+03  0.83481620342E+02  0.13333944119E+03  0.19485743637E+03  0.47000000000E+01 0.  1.
<mgrwt>
<rscale>  0 0.10002932E+04</rscale>
<asrwt>0</asrwt>
<pdfrwt beam="1">  1        2 0.19534949E+00 0.10002932E+04</pdfrwt>
<pdfrwt beam="2">  1       -2 0.30307883E-01 0.10002932E+04</pdfrwt>
<totfact> 0.20829018E+02</totfact>
</mgrwt>
</event>
<event>
 9    1  0.4321150E-036  0.1000766E+04  0.7818608E-02  0.8680308E-01
         -2   -1    0    0    0  501 -0.00000000000E+00  0.00000000000E+00  0.28360226013E+03  0.28360226013E+03  0.00000000000E+00 0.  1.
          2   -1    0    0  501    0  0.00000000000E+00 -0.00000000000E+00 -0.88286797398E+03  0.88286797398E+03  0.00000000000E+00 0.  1.
         36    2    1    2    0    0  0.21316282073E-13  0.14210854715E-13 -0.59926571385E+03  0.11664702341E+04  0.10007664119E+04 0.  0.
         25    2    3    3    0    0 -0.63976469784E+02 -0.11592532504E+03 -0.16628969994E+03  0.24696178111E+03  0.12572266046E+03 0.  0.
         35    2    3    3    0    0  0.63976469784E+02  0.11592532504E+03 -0.43297601390E+03  0.91950845299E+03  0.80030987551E+03 0.  0.
         22    1    5    5    0    0  0.40275760556E+03 -0.54780236070E+02 -0.33750189538E+03  0.52832006633E+03  0.00000000000E+00 0. -1.
         22    1    5    5    0    0 -0.33878113578E+03  0.17070556111E+03 -0.95474118520E+02  0.39118838666E+03  0.00000000000E+00 0. -1.
          5    1    4    4  502    0 -0.90079607476E+02 -0.60988659669E+02 -0.59773313353E+02  0.12421308820E+03  0.47000000000E+01 0.  1.
         -5    1    4    4    0  502  0.26103137692E+02 -0.54936665369E+02 -0.10651638659E+03  0.12274869291E+03  0.47000000000E+01 0.  1.
<mgrwt>
<rscale>  0 0.10007664E+04</rscale>
<asrwt>0</asrwt>
<pdfrwt beam="1">  1        2 0.13582584E+00 0.10007664E+04</pdfrwt>
<pdfrwt beam="2">  1       -2 0.43631118E-01 0.10007664E+04</pdfrwt>
<totfact> 0.18153822E+02</totfact>
</mgrwt>
</event>
<event>
 9    1  0.4321150E-036  0.1001090E+04  0.7818608E-02  0.8680000E-01
         -1   -1    0    0    0  501 -0.00000000000E+00  0.00000000000E+00  0.17956173264E+03  0.17956173264E+03  0.00000000000E+00 0.  1.
          1   -1    0    0  501    0  0.00000000000E+00 -0.00000000000E+00 -0.13953165397E+04  0.13953165397E+04  0.00000000000E+00 0.  1.
         36    2    1    2    0    0  0.28421709430E-13  0.00000000000E+00 -0.12157548071E+04  0.15748782723E+04  0.10010903165E+04 0.  0.
         25    2    3    3    0    0 -0.14814700744E+02  0.12974478190E+03 -0.32770569478E+03  0.37424837554E+03  0.12497055822E+03 0.  0.
         35    2    3    3    0    0  0.14814700744E+02 -0.12974478190E+03 -0.88804911228E+03  0.12006298968E+04  0.79738807331E+03 0.  0.
         22    1    5    5    0    0  0.17125865323E+03 -0.24209433475E+03 -0.95244616727E+03  0.99754343002E+03  0.00000000000E+00 0.  1.
         22    1    5    5    0    0 -0.15644395249E+03  0.11234955285E+03  0.64397054990E+02  0.20308646677E+03  0.00000000000E+00 0.  1.
          5    1    4    4  502    0  0.21775900381E+02 -0.11398598409E+02 -0.10554267250E+03  0.10846872177E+03  0.47000000000E+01 0.  1.
         -5    1    4    4    0  502 -0.36590601125E+02  0.14114338031E+03 -0.22216302227E+03  0.26577965377E+03  0.47000000000E+01 0.  1.
<mgrwt>
<rscale>  0 0.10010903E+04</rscale>
<asrwt>0</asrwt>
<pdfrwt beam="1">  1        1 0.21466408E+00 0.10010903E+04</pdfrwt>
<pdfrwt beam="2">  1       -1 0.27624883E-01 0.10010903E+04</pdfrwt>
<totfact> 0.99219060E+01</totfact>
</mgrwt>
</event>
<event>
 9    1  0.4321150E-036  0.9998256E+03  0.7818608E-02  0.8681204E-01
         -2   -1    0    0    0  501 -0.00000000000E+00  0.00000000000E+00  0.17252258570E+03  0.17252258570E+03  0.00000000000E+00 0. -1.
          2   -1    0    0  501    0  0.00000000000E+00 -0.00000000000E+00 -0.14485801015E+04  0.14485801015E+04  0.00000000000E+00 0. -1.
         36    2    1    2    0    0 -0.21316282073E-13  0.14210854715E-13 -0.12760575158E+04  0.16211026872E+04  0.99982555418E+03 0.  0.
         25    2    3    3    0    0 -0.25863579235E+02  0.72217367389E+02 -0.43339525484E+03  0.45646312468E+03  0.12100770383E+03 0.  0.
         35    2    3    3    0    0  0.25863579235E+02 -0.72217367389E+02 -0.84266226095E+03  0.11646395625E+04  0.80026330145E+03 0.  0.
         22    1    5    5    0    0 -0.26201334456E+03  0.23890333450E+03 -0.53106557969E+03  0.63855809908E+03  0.00000000000E+00 0. -1.
         22    1    5    5    0    0  0.28787692380E+03 -0.31112070189E+03 -0.31159668126E+03  0.52608146343E+03  0.00000000000E+00 0. -1.
          5    1    4    4  502    0  0.56128184546E+00  0.97022534926E+02 -0.22782002104E+03  0.24766457015E+03  0.47000000000E+01 0. -1.
         -5    1    4    4    0  502 -0.26424861080E+02 -0.24805167536E+02 -0.20557523380E+03  0.20879855453E+03  0.47000000000E+01 0. -1.
<mgrwt>
<rscale>  0 0.99982555E+03</rscale>
<asrwt>0</asrwt>
<pdfrwt beam="1">  1        2 0.22285849E+00 0.99982555E+03</pdfrwt>
<pdfrwt beam="2">  1       -2 0.26541935E-01 0.99982555E+03</pdfrwt>
<totfact> 0.20893019E+02</totfact>
</mgrwt>
</event>
<event>
 9    1  0.4321150E-036  0.9980533E+03  0.7818608E-02  0.8682894E-01
         -2   -1    0    0    0  501 -0.00000000000E+00  0.00000000000E+00  0.27386871890E+03  0.27386871890E+03  0.00000000000E+00 0. -1.
          2   -1    0    0  501    0  0.00000000000E+00 -0.00000000000E+00 -0.90929545870E+03  0.90929545870E+03  0.00000000000E+00 0. -1.
         36    2    1    2    0    0  0.00000000000E+00 -0.14210854715E-13 -0.63542673980E+03  0.11831641776E+04  0.99805326988E+03 0.  0.
         25    2    3    3    0    0  0.67905743470E+02  0.37767723474E+02 -0.25450025469E+03  0.29440797332E+03  0.12596858413E+03 0.  0.
         35    2    3    3    0    0 -0.67905743470E+02 -0.37767723474E+02 -0.38092648511E+03  0.88875620428E+03  0.79921524802E+03 0.  0.
         22    1    5    5    0    0  0.11733451654E+03  0.30470794102E+03 -0.37784532898E+03  0.49938102759E+03  0.00000000000E+00 0. -1.
         22    1    5    5    0    0 -0.18524026001E+03 -0.34247566449E+03 -0.30811561314E+01  0.38937517669E+03  0.00000000000E+00 0. -1.
          5    1    4    4  502    0 -0.28083282571E+02 -0.20979452604E+02 -0.60952711984E+02  0.70470783235E+02  0.47000000000E+01 0. -1.
         -5    1    4    4    0  502  0.95989026041E+02  0.58747176077E+02 -0.19354754271E+03  0.22393719009E+03  0.47000000000E+01 0. -1.
<mgrwt>
<rscale>  0 0.99805327E+03</rscale>
<asrwt>0</asrwt>
<pdfrwt beam="1">  1        2 0.13989161E+00 0.99805327E+03</pdfrwt>
<pdfrwt beam="2">  1       -2 0.42133650E-01 0.99805327E+03</pdfrwt>
<totfact> 0.18661940E+02</totfact>
</mgrwt>
</event>
<event>
 9    1  0.4321150E-036  0.9994522E+03  0.7818608E-02  0.8681560E-01
         -2   -1    0    0    0  501 -0.00000000000E+00  0.00000000000E+00  0.87981705635E+03  0.87981705635E+03  0.00000000000E+00 0. -1.
          2   -1    0    0  501    0  0.00000000000E+00 -0.00000000000E+00 -0.28383876329E+03  0.28383876329E+03  0.00000000000E+00 0. -1.
         36    2    1    2    0    0 -0.14210854715E-13  0.00000000000E+00  0.59597829306E+03  0.11636558196E+04  0.99945222035E+03 0.  0.
         25    2    3    3    0    0  0.99984342855E+02 -0.96763653080E+02  0.12381972350E+03  0.22417308038E+03  0.12474843752E+03 0.  0.
         35    2    3    3    0    0 -0.99984342855E+02  0.96763653080E+02  0.47215856956E+03  0.93948273926E+03  0.80020874100E+03 0.  0.
         22    1    5    5    0    0  0.16826808679E+03 -0.11495805637E+02  0.59997377234E+03  0.62322935592E+03  0.00000000000E+00 0.  1.
         22    1    5    5    0    0 -0.26825242965E+03  0.10825945872E+03 -0.12781520278E+03  0.31625338334E+03  0.00000000000E+00 0.  1.
          5    1    4    4  502    0  0.46480184377E+02 -0.98043067284E+02  0.24621695177E+02  0.11136053365E+03  0.47000000000E+01 0. -1.
         -5    1    4    4    0  502  0.53504158478E+02  0.12794142038E+01  0.99198028322E+02  0.11281254672E+03  0.47000000000E+01 0. -1.
<mgrwt>
<rscale>  0 0.99945222E+03</rscale>
<asrwt>0</asrwt>
<pdfrwt beam="1">  1        2 0.43667502E-01 0.99945222E+03</pdfrwt>
<pdfrwt beam="2">  1       -2 0.13535647E+00 0.99945222E+03</pdfrwt>
<totfact> 0.52551598E+01</totfact>
</mgrwt>
</event>
<event>
 9    1  0.4321150E-036  0.1000298E+04  0.7818608E-02  0.8680754E-01
          2   -1    0    0  501    0  0.00000000000E+00  0.00000000000E+00  0.91322783063E+03  0.91322783063E+03  0.00000000000E+00 0. -1.
         -2   -1    0    0    0  501 -0.00000000000E+00 -0.00000000000E+00 -0.27391744516E+03  0.27391744516E+03  0.00000000000E+00 0. -1.
         36    2    1    2    0    0  0.00000000000E+00  0.42632564146E-13  0.63931038547E+03  0.11871452758E+04  0.10002980240E+04 0.  0.
         25    2    3    3    0    0 -0.12764043692E+03 -0.56674986541E+02  0.10163124658E+03  0.21344792609E+03  0.12540722322E+03 0.  0.
         35    2    3    3    0    0  0.12764043692E+03  0.56674986541E+02  0.53767913890E+03  0.97369734969E+03  0.79967714557E+03 0.  0.
         22    1    5    5    0    0 -0.14760206958E+03  0.28474336515E+03 -0.86235466436E+01  0.32084189330E+03  0.00000000000E+00 0. -1.
         22    1    5    5    0    0  0.27524250650E+03 -0.22806837861E+03  0.54630268554E+03  0.65285545639E+03  0.00000000000E+00 0. -1.
          5    1    4    4  502    0 -0.12837305917E+03 -0.45075514568E+01  0.96664110676E+02  0.16082910382E+03  0.47000000000E+01 0.  1.
         -5    1    4    4    0  502  0.73262225315E+00 -0.52167435084E+02  0.49671359004E+01  0.52618822275E+02  0.47000000000E+01 0.  1.
<mgrwt>
<rscale>  0 0.10002980E+04</rscale>
<asrwt>0</asrwt>
<pdfrwt beam="1">  1        2 0.14049659E+00 0.10002980E+04</pdfrwt>
<pdfrwt beam="2">  1       -2 0.42141146E-01 0.10002980E+04</pdfrwt>
<totfact> 0.18544713E+02</totfact>
</mgrwt>
</event>
<event>
 9    1  0.4321150E-036  0.9986177E+03  0.7818608E-02  0.8682355E-01
         -1   -1    0    0    0  501 -0.00000000000E+00  0.00000000000E+00  0.14265648956E+03  0.14265648956E+03  0.00000000000E+00 0.  1.
          1   -1    0    0  501    0  0.00000000000E+00 -0.00000000000E+00 -0.17476199140E+04  0.17476199140E+04  0.00000000000E+00 0.  1.
         36    2    1    2    0    0  0.00000000000E+00  0.28421709430E-13 -0.16049634244E+04  0.18902764035E+04  0.99861768862E+03 0.  0.
         25    2    3    3    0    0 -0.49303375174E+02  0.79304507807E+02 -0.48366489361E+03  0.50832792952E+03  0.12548118129E+03 0.  0.
         35    2    3    3    0    0  0.49303375174E+02 -0.79304507807E+02 -0.11212985308E+04  0.13819484740E+04  0.80234105085E+03 0.  0.
         22    1    5    5    0    0  0.22147634794E+03  0.18431128933E+03 -0.10063097530E+04  0.10467481756E+04  0.00000000000E+00 0.  1.
         22    1    5    5    0    0 -0.17217297277E+03 -0.26361579714E+03 -0.11498877780E+03  0.33520029844E+03  0.00000000000E+00 0.  1.
          5    1    4    4  502    0  0.72273781101E+01  0.51656420124E+01 -0.31810367362E+03  0.31826240121E+03  0.47000000000E+01 0.  1.
         -5    1    4    4    0  502 -0.56530753284E+02  0.74138865795E+02 -0.16556121999E+03  0.19006552831E+03  0.47000000000E+01 0.  1.
<mgrwt>
<rscale>  0 0.99861769E+03</rscale>
<asrwt>0</asrwt>
<pdfrwt beam="1">  1        1 0.26886462E+00 0.99861769E+03</pdfrwt>
<pdfrwt beam="2">  1       -1 0.21947151E-01 0.99861769E+03</pdfrwt>
<totfact> 0.82096885E+01</totfact>
</mgrwt>
</event>
<event>
 9    1  0.4321150E-036  0.1000291E+04  0.7818608E-02  0.8680761E-01
         -2   -1    0    0    0  501 -0.00000000000E+00  0.00000000000E+00  0.59881484035E+03  0.59881484035E+03  0.00000000000E+00 0.  1.
          2   -1    0    0  501    0  0.00000000000E+00 -0.00000000000E+00 -0.41773393203E+03  0.41773393203E+03  0.00000000000E+00 0.  1.
         36    2    1    2    0    0  0.28421709430E-13 -0.14210854715E-13  0.18108090831E+03  0.10165487724E+04  0.10002905134E+04 0.  0.
         25    2    3    3    0    0  0.12284967940E+03 -0.64894431060E+02  0.12378853972E+02  0.18700475303E+03  0.12455605452E+03 0.  0.
         35    2    3    3    0    0 -0.12284967940E+03  0.64894431060E+02  0.16870205434E+03  0.82954401936E+03  0.80023719359E+03 0.  0.
         22    1    5    5    0    0  0.18460905024E+03  0.33491068804E+03 -0.11117487408E+02  0.38258236881E+03  0.00000000000E+00 0. -1.
         22    1    5    5    0    0 -0.30745872964E+03 -0.27001625698E+03  0.17981954175E+03  0.44696165055E+03  0.00000000000E+00 0. -1.
          5    1    4    4  502    0 -0.33219876220E+00  0.98010479144E+01 -0.33915530632E+02  0.35616346167E+02  0.47000000000E+01 0. -1.
         -5    1    4    4    0  502  0.12318187816E+03 -0.74695478974E+02  0.46294384604E+02  0.15138840686E+03  0.47000000000E+01 0. -1.
<mgrwt>
<rscale>  0 0.10002905E+04</rscale>
<asrwt>0</asrwt>
<pdfrwt beam="1">  1        2 0.64266759E-01 0.10002905E+04</pdfrwt>
<pdfrwt beam="2">  1       -2 0.92125360E-01 0.10002905E+04</pdfrwt>
<totfact> 0.90482929E+01</totfact>
</mgrwt>
</event>
<event>
 9    1  0.4321150E-036  0.1000355E+04  0.7818608E-02  0.8680700E-01
         -2   -1    0    0    0  501 -0.00000000000E+00  0.00000000000E+00  0.83846765272E+02  0.83846765272E+02  0.00000000000E+00 0.  1.
          2   -1    0    0  501    0  0.00000000000E+00 -0.00000000000E+00 -0.29837487410E+04  0.29837487410E+04  0.00000000000E+00 0.  1.
         36    2    1    2    0    0  0.28421709430E-13  0.00000000000E+00 -0.28999019757E+04  0.30675955063E+04  0.10003552975E+04 0.  0.
         25    2    3    3    0    0  0.12739725894E+03 -0.44121521848E+02 -0.42208674441E+03  0.46064673379E+03  0.12594214255E+03 0.  0.
         35    2    3    3    0    0 -0.12739725894E+03  0.44121521848E+02 -0.24778152313E+04  0.26069487725E+04  0.79902240989E+03 0.  0.
         22    1    5    5    0    0 -0.35740469997E+03 -0.24179051038E+03 -0.11146725094E+04  0.11952805418E+04  0.00000000000E+00 0.  1.
         22    1    5    5    0    0  0.23000744103E+03  0.28591203223E+03 -0.13631427219E+04  0.14116682307E+04  0.00000000000E+00 0.  1.
          5    1    4    4  502    0  0.80602318980E+02 -0.22580935107E+02 -0.39187299982E+03  0.40074077711E+03  0.47000000000E+01 0. -1.
         -5    1    4    4    0  502  0.46794939963E+02 -0.21540586741E+02 -0.30213744595E+02  0.59905956680E+02  0.47000000000E+01 0. -1.
<mgrwt>
<rscale>  0 0.10003553E+04</rscale>
<asrwt>0</asrwt>
<pdfrwt beam="1">  1        2 0.45903830E+00 0.10003553E+04</pdfrwt>
<pdfrwt beam="2">  1       -2 0.12899502E-01 0.10003553E+04</pdfrwt>
<totfact> 0.88208036E+01</totfact>
</mgrwt>
</event>
<event>
 9    1  0.4321150E-036  0.9978871E+03  0.7818608E-02  0.8683053E-01
         -2   -1    0    0    0  501 -0.00000000000E+00  0.00000000000E+00  0.24814124255E+03  0.24814124255E+03  0.00000000000E+00 0.  1.
          2   -1    0    0  501    0  0.00000000000E+00 -0.00000000000E+00 -0.10032377305E+04  0.10032377305E+04  0.00000000000E+00 0.  1.
         36    2    1    2    0    0 -0.71054273576E-14  0.00000000000E+00 -0.75509648799E+03  0.12513789731E+04  0.99788708185E+03 0.  0.
         25    2    3    3    0    0  0.22301157389E+02 -0.11017923764E+03 -0.24117083553E+03  0.29393834347E+03  0.12489824587E+03 0.  0.
         35    2    3    3    0    0 -0.22301157389E+02  0.11017923764E+03 -0.51392565246E+03  0.95744062962E+03  0.79996010961E+03 0.  0.
         22    1    5    5    0    0 -0.92572301593E+02  0.20398844113E+03 -0.70142108536E+03  0.73632360693E+03  0.00000000000E+00 0.  1.
         22    1    5    5    0    0  0.70271144204E+02 -0.93809203490E+02  0.18749543290E+03  0.22111702269E+03  0.00000000000E+00 0.  1.
          5    1    4    4  502    0  0.11696642662E+02 -0.10969169226E+03 -0.90342114556E+02  0.14266347277E+03  0.47000000000E+01 0. -1.
         -5    1    4    4    0  502  0.10604514727E+02 -0.48754537970E+00 -0.15082872097E+03  0.15127487069E+03  0.47000000000E+01 0. -1.
<mgrwt>
<rscale>  0 0.99788708E+03</rscale>
<asrwt>0</asrwt>
<pdfrwt beam="1">  1        2 0.15434427E+00 0.99788708E+03</pdfrwt>
<pdfrwt beam="2">  1       -2 0.38175576E-01 0.99788708E+03</pdfrwt>
<totfact> 0.19625166E+02</totfact>
</mgrwt>
</event>
<event>
 9    1  0.4321150E-036  0.1000467E+04  0.7818608E-02  0.8680593E-01
          1   -1    0    0  501    0  0.00000000000E+00  0.00000000000E+00  0.39738399757E+03  0.39738399757E+03  0.00000000000E+00 0. -1.
         -1   -1    0    0    0  501 -0.00000000000E+00 -0.00000000000E+00 -0.62970203932E+03  0.62970203932E+03  0.00000000000E+00 0. -1.
         36    2    1    2    0    0  0.00000000000E+00 -0.71054273576E-14 -0.23231804175E+03  0.10270860369E+04  0.10004669183E+04 0.  0.
         25    2    3    3    0    0  0.82946253076E+02 -0.49084348428E+01 -0.15712454006E+03  0.21723338428E+03  0.12489214757E+03 0.  0.
         35    2    3    3    0    0 -0.82946253076E+02  0.49084348428E+01 -0.75193501689E+02  0.80985265261E+03  0.80206176983E+03 0.  0.
         22    1    5    5    0    0 -0.21644309717E+03  0.16219215205E+03 -0.36489382789E+03  0.45420415468E+03  0.00000000000E+00 0. -1.
         22    1    5    5    0    0  0.13349684410E+03 -0.15728371721E+03  0.28970032620E+03  0.35564849793E+03  0.00000000000E+00 0. -1.
          5    1    4    4  502    0  0.36543372485E+01 -0.28826050760E+02 -0.12476706342E+03  0.12819206488E+03  0.47000000000E+01 0. -1.
         -5    1    4    4    0  502  0.79291915828E+02  0.23917615917E+02 -0.32357476646E+02  0.89041319406E+02  0.47000000000E+01 0. -1.
<mgrwt>
<rscale>  0 0.10004669E+04</rscale>
<asrwt>0</asrwt>
<pdfrwt beam="1">  1        1 0.61136000E-01 0.10004669E+04</pdfrwt>
<pdfrwt beam="2">  1       -1 0.96877237E-01 0.10004669E+04</pdfrwt>
<totfact> 0.74157047E+01</totfact>
</mgrwt>
</event>
<event>
 9    1  0.4321150E-036  0.9999758E+03  0.7818608E-02  0.8681061E-01
         -2   -1    0    0    0  501 -0.00000000000E+00  0.00000000000E+00  0.99852836718E+03  0.99852836718E+03  0.00000000000E+00 0. -1.
          2   -1    0    0  501    0  0.00000000000E+00 -0.00000000000E+00 -0.25035631280E+03  0.25035631280E+03  0.00000000000E+00 0. -1.
         36    2    1    2    0    0  0.00000000000E+00  0.00000000000E+00  0.74817205438E+03  0.12488846800E+04  0.99997576018E+03 0.  0.
         25    2    3    3    0    0 -0.72524377769E+02 -0.75956652328E+02  0.24988618039E+02  0.16426233306E+03  0.12380825751E+03 0.  0.
         35    2    3    3    0    0  0.72524377769E+02  0.75956652328E+02  0.72318343634E+03  0.10846223469E+04  0.80148746369E+03 0.  0.
         22    1    5    5    0    0  0.12425283663E+03 -0.99169674561E+02  0.84842706043E+03  0.86319283398E+03  0.00000000000E+00 0.  1.
         22    1    5    5    0    0 -0.51728458863E+02  0.17512632689E+03 -0.12524362409E+03  0.22142951294E+03  0.00000000000E+00 0.  1.
          5    1    4    4  502    0 -0.11399992124E+02 -0.94437802604E+01 -0.46463208480E+02  0.48990453644E+02  0.47000000000E+01 0. -1.
         -5    1    4    4    0  502 -0.61124385646E+02 -0.66512872067E+02  0.71451826518E+02  0.11527187942E+03  0.47000000000E+01 0. -1.
<mgrwt>
<rscale>  0 0.99997576E+03</rscale>
<asrwt>0</asrwt>
<pdfrwt beam="1">  1        2 0.38516356E-01 0.99997576E+03</pdfrwt>
<pdfrwt beam="2">  1       -2 0.15361975E+00 0.99997576E+03</pdfrwt>
<totfact> 0.42640287E+01</totfact>
</mgrwt>
</event>
<event>
 9    1  0.4321150E-036  0.1001664E+04  0.7818608E-02  0.8679455E-01
          2   -1    0    0  501    0  0.00000000000E+00  0.00000000000E+00  0.99790461466E+03  0.99790461466E+03  0.00000000000E+00 0. -1.
         -2   -1    0    0    0  501 -0.00000000000E+00 -0.00000000000E+00 -0.25135931929E+03  0.25135931929E+03  0.00000000000E+00 0. -1.
         36    2    1    2    0    0  0.71054273576E-14  0.14210854715E-13  0.74654529537E+03  0.12492639339E+04  0.10016638651E+04 0.  0.
         25    2    3    3    0    0  0.35163649478E+02  0.12494439503E+03  0.69189775361E+02  0.19268837989E+03  0.12447490766E+03 0.  0.
         35    2    3    3    0    0 -0.35163649478E+02 -0.12494439503E+03  0.67735552001E+03  0.10565755541E+04  0.80043351807E+03 0.  0.
         22    1    5    5    0    0  0.93891269729E+02 -0.25255489300E+03 -0.77372505009E+02  0.28033203356E+03  0.00000000000E+00 0.  1.
         22    1    5    5    0    0 -0.12905491921E+03  0.12761049797E+03  0.75472802502E+03  0.77624352050E+03  0.00000000000E+00 0.  1.
          5    1    4    4  502    0  0.53874173560E+02  0.65897467031E+02  0.93003920074E+02  0.12616149130E+03  0.47000000000E+01 0. -1.
         -5    1    4    4    0  502 -0.18710524082E+02  0.59046927998E+02 -0.23814144713E+02  0.66526888593E+02  0.47000000000E+01 0. -1.
<mgrwt>
<rscale>  0 0.10016639E+04</rscale>
<asrwt>0</asrwt>
<pdfrwt beam="1">  1        2 0.15352379E+00 0.10016639E+04</pdfrwt>
<pdfrwt beam="2">  1       -2 0.38670665E-01 0.10016639E+04</pdfrwt>
<totfact> 0.19298326E+02</totfact>
</mgrwt>
</event>
<event>
 9    1  0.4321150E-036  0.1000314E+04  0.7818608E-02  0.8680739E-01
         -1   -1    0    0    0  501 -0.00000000000E+00  0.00000000000E+00  0.11851857124E+04  0.11851857124E+04  0.00000000000E+00 0. -1.
          1   -1    0    0  501    0  0.00000000000E+00 -0.00000000000E+00 -0.21106970753E+03  0.21106970753E+03  0.00000000000E+00 0. -1.
         36    2    1    2    0    0  0.35527136788E-13  0.28421709430E-13  0.97411600490E+03  0.13962554200E+04  0.10003135542E+04 0.  0.
         25    2    3    3    0    0 -0.21860557095E+02 -0.56957487391E+02  0.36482395353E+03  0.38945367783E+03  0.12188359521E+03 0.  0.
         35    2    3    3    0    0  0.21860557095E+02  0.56957487391E+02  0.60929205137E+03  0.10068017421E+04  0.79918139666E+03 0.  0.
         22    1    5    5    0    0 -0.24228377032E+03  0.33796671944E+03  0.31558293197E+03  0.52203018664E+03  0.00000000000E+00 0. -1.
         22    1    5    5    0    0  0.26414432741E+03 -0.28100923205E+03  0.29370911939E+03  0.48477155549E+03  0.00000000000E+00 0. -1.
          5    1    4    4  502    0  0.44801745740E+02 -0.40032511064E+02  0.10951960701E+03  0.12500573060E+03  0.47000000000E+01 0.  1.
         -5    1    4    4    0  502 -0.66662302835E+02 -0.16924976327E+02  0.25530434652E+03  0.26444794723E+03  0.47000000000E+01 0.  1.
<mgrwt>
<rscale>  0 0.10003136E+04</rscale>
<asrwt>0</asrwt>
<pdfrwt beam="1">  1        1 0.32472263E-01 0.10003136E+04</pdfrwt>
<pdfrwt beam="2">  1       -1 0.18233626E+00 0.10003136E+04</pdfrwt>
<totfact> 0.30441585E+01</totfact>
</mgrwt>
</event>
<event>
 9    1  0.4321150E-036  0.1000819E+04  0.7818608E-02  0.8680258E-01
         -2   -1    0    0    0  501 -0.00000000000E+00  0.00000000000E+00  0.38273296066E+03  0.38273296066E+03  0.00000000000E+00 0.  1.
          2   -1    0    0  501    0  0.00000000000E+00 -0.00000000000E+00 -0.65426793812E+03  0.65426793812E+03  0.00000000000E+00 0.  1.
         36    2    1    2    0    0  0.00000000000E+00  0.00000000000E+00 -0.27153497746E+03  0.10370008988E+04  0.10008194743E+04 0.  0.
         25    2    3    3    0    0  0.93954373501E+02 -0.10189026067E+03 -0.20873437781E+02  0.18764431234E+03  0.12476232617E+03 0.  0.
         35    2    3    3    0    0 -0.93954373501E+02  0.10189026067E+03 -0.25066153968E+03  0.84935658643E+03  0.79960387313E+03 0.  0.
         22    1    5    5    0    0  0.20101584200E+03 -0.37370866393E+02 -0.43070805467E+03  0.47677392835E+03  0.00000000000E+00 0.  1.
         22    1    5    5    0    0 -0.29497021550E+03  0.13926112706E+03  0.18004651500E+03  0.37258265809E+03  0.00000000000E+00 0.  1.
          5    1    4    4  502    0  0.48502045556E+02  0.22100384033E+02 -0.14074672868E+02  0.55326863402E+02  0.47000000000E+01 0. -1.
         -5    1    4    4    0  502  0.45452327945E+02 -0.12399064470E+03 -0.67987649127E+01  0.13231744894E+03  0.47000000000E+01 0. -1.
<mgrwt>
<rscale>  0 0.10008195E+04</rscale>
<asrwt>0</asrwt>
<pdfrwt beam="1">  1        2 0.10065661E+00 0.10008195E+04</pdfrwt>
<pdfrwt beam="2">  1       -2 0.58881994E-01 0.10008195E+04</pdfrwt>
<totfact> 0.14543009E+02</totfact>
</mgrwt>
</event>
<event>
 9    1  0.4321150E-036  0.9994152E+03  0.7818608E-02  0.8681595E-01
         -2   -1    0    0    0  501 -0.00000000000E+00  0.00000000000E+00  0.96410238545E+02  0.96410238545E+02  0.00000000000E+00 0.  1.
          2   -1    0    0  501    0  0.00000000000E+00 -0.00000000000E+00 -0.25900537347E+04  0.25900537347E+04  0.00000000000E+00 0.  1.
         36    2    1    2    0    0  0.14210854715E-13 -0.14210854715E-13 -0.24936434962E+04  0.26864639732E+04  0.99941522583E+03 0.  0.
         25    2    3    3    0    0 -0.31996274378E+02  0.89985604154E+02 -0.74188164183E+03  0.75863641349E+03  0.12656882263E+03 0.  0.
         35    2    3    3    0    0  0.31996274378E+02 -0.89985604154E+02 -0.17517618543E+04  0.19278275598E+04  0.79920481439E+03 0.  0.
         22    1    5    5    0    0 -0.17972786605E+03 -0.33168033724E+03 -0.14063690277E+04  0.14560864652E+04  0.00000000000E+00 0. -1.
         22    1    5    5    0    0  0.21172414043E+03  0.24169473308E+03 -0.34539282660E+03  0.47174109457E+03  0.00000000000E+00 0. -1.
          5    1    4    4  502    0  0.48827137786E+02  0.29140846405E+02 -0.28716560351E+03  0.29277884512E+03  0.47000000000E+01 0. -1.
         -5    1    4    4    0  502 -0.80823412164E+02  0.60844757749E+02 -0.45471603832E+03  0.46585756837E+03  0.47000000000E+01 0. -1.
<mgrwt>
<rscale>  0 0.99941523E+03</rscale>
<asrwt>0</asrwt>
<pdfrwt beam="1">  1        2 0.39846985E+00 0.99941523E+03</pdfrwt>
<pdfrwt beam="2">  1       -2 0.14832343E-01 0.99941523E+03</pdfrwt>
<totfact> 0.12496523E+02</totfact>
</mgrwt>
</event>
<event>
 9    1  0.4321150E-036  0.1001321E+04  0.7818608E-02  0.8679781E-01
         -2   -1    0    0    0  501 -0.00000000000E+00  0.00000000000E+00  0.41781272899E+03  0.41781272899E+03  0.00000000000E+00 0. -1.
          2   -1    0    0  501    0  0.00000000000E+00 -0.00000000000E+00 -0.59993608003E+03  0.59993608003E+03  0.00000000000E+00 0. -1.
         36    2    1    2    0    0  0.14210854715E-13  0.00000000000E+00 -0.18212335104E+03  0.10177488090E+04  0.10013209891E+04 0.  0.
         25    2    3    3    0    0 -0.98024484840E+02 -0.40172637292E+02 -0.12873317157E+03  0.20838280556E+03  0.12501409431E+03 0.  0.
         35    2    3    3    0    0  0.98024484840E+02  0.40172637292E+02 -0.53390179465E+02  0.80936600346E+03  0.80062486589E+03 0.  0.
         22    1    5    5    0    0  0.40298290805E+03 -0.13290044176E+03 -0.14241529942E+03  0.44759341942E+03  0.00000000000E+00 0. -1.
         22    1    5    5    0    0 -0.30495842321E+03  0.17307307905E+03  0.89025119953E+02  0.36177258404E+03  0.00000000000E+00 0. -1.
          5    1    4    4  502    0 -0.10104424019E+03 -0.65148439588E+02 -0.58806790848E+02  0.13392007432E+03  0.47000000000E+01 0.  1.
         -5    1    4    4    0  502  0.30197553496E+01  0.24975802296E+02 -0.69926380727E+02  0.74462731244E+02  0.47000000000E+01 0.  1.
<mgrwt>
<rscale>  0 0.10013210E+04</rscale>
<asrwt>0</asrwt>
<pdfrwt beam="1">  1        2 0.92297858E-01 0.10013210E+04</pdfrwt>
<pdfrwt beam="2">  1       -2 0.64278882E-01 0.10013210E+04</pdfrwt>
<totfact> 0.13420903E+02</totfact>
</mgrwt>
</event>
<event>
 9    1  0.4321150E-036  0.9987111E+03  0.7818608E-02  0.8682266E-01
         -1   -1    0    0    0  501 -0.00000000000E+00  0.00000000000E+00  0.34628988667E+03  0.34628988667E+03  0.00000000000E+00 0.  1.
          1   -1    0    0  501    0  0.00000000000E+00 -0.00000000000E+00 -0.72007866274E+03  0.72007866274E+03  0.00000000000E+00 0.  1.
         36    2    1    2    0    0  0.56843418861E-13 -0.28421709430E-13 -0.37378877607E+03  0.10663685494E+04  0.99871108639E+03 0.  0.
         25    2    3    3    0    0  0.10590578809E+03  0.85986442326E+02 -0.80091608316E+02  0.20152466184E+03  0.12485118898E+03 0.  0.
         35    2    3    3    0    0 -0.10590578809E+03 -0.85986442326E+02 -0.29369716775E+03  0.86484388758E+03  0.80192719079E+03 0.  0.
         22    1    5    5    0    0 -0.37910258695E+03 -0.24367363925E+03 -0.26485805626E+02  0.45143893474E+03  0.00000000000E+00 0.  1.
         22    1    5    5    0    0  0.27319679886E+03  0.15768719692E+03 -0.26721136213E+03  0.41340495284E+03  0.00000000000E+00 0.  1.
          5    1    4    4  502    0  0.13159569560E+02  0.20072353462E+02  0.32970518558E+02  0.41051415792E+02  0.47000000000E+01 0. -1.
         -5    1    4    4    0  502  0.92746218531E+02  0.65914088864E+02 -0.11306212687E+03  0.16047324604E+03  0.47000000000E+01 0. -1.
<mgrwt>
<rscale>  0 0.99871109E+03</rscale>
<asrwt>0</asrwt>
<pdfrwt beam="1">  1        1 0.11078133E+00 0.99871109E+03</pdfrwt>
<pdfrwt beam="2">  1       -1 0.53275368E-01 0.99871109E+03</pdfrwt>
<totfact> 0.10642014E+02</totfact>
</mgrwt>
</event>
<event>
 9    1  0.4321150E-036  0.1000846E+04  0.7818608E-02  0.8680233E-01
          2   -1    0    0  501    0  0.00000000000E+00  0.00000000000E+00  0.15799006200E+04  0.15799006200E+04  0.00000000000E+00 0.  1.
         -2   -1    0    0    0  501 -0.00000000000E+00 -0.00000000000E+00 -0.15850569955E+03  0.15850569955E+03  0.00000000000E+00 0.  1.
         36    2    1    2    0    0  0.00000000000E+00  0.28421709430E-13  0.14213949204E+04  0.17384063195E+04  0.10008461480E+04 0.  0.
         25    2    3    3    0    0  0.97216021927E+02  0.99897692748E+02  0.29248839116E+03  0.34735162772E+03  0.12519261310E+03 0.  0.
         35    2    3    3    0    0 -0.97216021927E+02 -0.99897692748E+02  0.11289065293E+04  0.13910546918E+04  0.80073260196E+03 0.  0.
         22    1    5    5    0    0 -0.17574067397E+03 -0.35921157147E+03  0.10260859416E+04  0.11012584152E+04  0.00000000000E+00 0.  1.
         22    1    5    5    0    0  0.78524652041E+02  0.25931387872E+03  0.10282058768E+03  0.28979627659E+03  0.00000000000E+00 0.  1.
          5    1    4    4  502    0  0.37452197729E+01  0.97154163994E+01  0.16465946744E+03  0.16505528227E+03  0.47000000000E+01 0.  1.
         -5    1    4    4    0  502  0.93470802155E+02  0.90182276349E+02  0.12782892372E+03  0.18229634545E+03  0.47000000000E+01 0.  1.
<mgrwt>
<rscale>  0 0.10008461E+04</rscale>
<asrwt>0</asrwt>
<pdfrwt beam="1">  1        2 0.24306162E+00 0.10008461E+04</pdfrwt>
<pdfrwt beam="2">  1       -2 0.24385493E-01 0.10008461E+04</pdfrwt>
<totfact> 0.20470051E+02</totfact>
</mgrwt>
</event>
<event>
 9    1  0.4321150E-036  0.1000122E+04  0.7818608E-02  0.8680922E-01
         -2   -1    0    0    0  501 -0.00000000000E+00  0.00000000000E+00  0.26265710728E+03  0.26265710728E+03  0.00000000000E+00 0.  1.
          2   -1    0    0  501    0  0.00000000000E+00 -0.00000000000E+00 -0.95204320899E+03  0.95204320899E+03  0.00000000000E+00 0.  1.
         36    2    1    2    0    0  0.14210854715E-13  0.00000000000E+00 -0.68938610172E+03  0.12147003163E+04  0.10001218231E+04 0.  0.
         25    2    3    3    0    0 -0.11108488243E+03  0.80720707130E+02 -0.95897929959E+02  0.20871810565E+03  0.12454377139E+03 0.  0.
         35    2    3    3    0    0  0.11108488243E+03 -0.80720707130E+02 -0.59348817176E+03  0.10059822106E+04  0.80057249165E+03 0.  0.
         22    1    5    5    0    0 -0.28386741379E+03 -0.18497728174E+03 -0.46971119801E+03  0.57915966098E+03  0.00000000000E+00 0. -1.
         22    1    5    5    0    0  0.39495229623E+03  0.10425657461E+03 -0.12377697375E+03  0.42682254963E+03  0.00000000000E+00 0. -1.
          5    1    4    4  502    0 -0.10043092165E+03  0.61948016268E+02 -0.12514367199E+03  0.17206671783E+03  0.47000000000E+01 0. -1.
         -5    1    4    4    0  502 -0.10653960783E+02  0.18772690862E+02  0.29245742035E+02  0.36651387828E+02  0.47000000000E+01 0. -1.
<mgrwt>
<rscale>  0 0.10001218E+04</rscale>
<asrwt>0</asrwt>
<pdfrwt beam="1">  1        2 0.14646819E+00 0.10001218E+04</pdfrwt>
<pdfrwt beam="2">  1       -2 0.40408786E-01 0.10001218E+04</pdfrwt>
<totfact> 0.18974963E+02</totfact>
</mgrwt>
</event>
<event>
 9    1  0.4321150E-036  0.9999411E+03  0.7818608E-02  0.8681094E-01
          2   -1    0    0  501    0  0.00000000000E+00  0.00000000000E+00  0.14492040756E+04  0.14492040756E+04  0.00000000000E+00 0. -1.
         -2   -1    0    0    0  501 -0.00000000000E+00 -0.00000000000E+00 -0.17248814721E+03  0.17248814721E+03  0.00000000000E+00 0. -1.
         36    2    1    2    0    0  0.00000000000E+00 -0.71054273576E-14  0.12767159284E+04  0.16216922228E+04  0.99994105010E+03 0.  0.
         25    2    3    3    0    0  0.43231871950E+02  0.27159304157E+02  0.31920226776E+02  0.14123019149E+03  0.12775149141E+03 0.  0.
         35    2    3    3    0    0 -0.43231871950E+02 -0.27159304157E+02  0.12447957016E+04  0.14804620313E+04  0.79977800971E+03 0.  0.
         22    1    5    5    0    0 -0.10639973110E+03 -0.36811386105E+03  0.34291514694E+03  0.51421738154E+03  0.00000000000E+00 0. -1.
         22    1    5    5    0    0  0.63167859152E+02  0.34095455690E+03  0.90188055465E+03  0.96624464974E+03  0.00000000000E+00 0. -1.
          5    1    4    4  502    0 -0.32050513359E+02 -0.10097132908E+02 -0.22792897414E+02  0.40875343082E+02  0.47000000000E+01 0.  1.
         -5    1    4    4    0  502  0.75282385309E+02  0.37256437065E+02  0.54713124190E+02  0.10035484841E+03  0.47000000000E+01 0.  1.
<mgrwt>
<rscale>  0 0.99994105E+03</rscale>
<asrwt>0</asrwt>
<pdfrwt beam="1">  1        2 0.22295447E+00 0.99994105E+03</pdfrwt>
<pdfrwt beam="2">  1       -2 0.26536639E-01 0.99994105E+03</pdfrwt>
<totfact> 0.20883399E+02</totfact>
</mgrwt>
</event>
<event>
 9    1  0.4321150E-036  0.9995997E+03  0.7818608E-02  0.8681419E-01
          1   -1    0    0  501    0  0.00000000000E+00  0.00000000000E+00  0.34558097251E+03  0.34558097251E+03  0.00000000000E+00 0. -1.
         -1   -1    0    0    0  501 -0.00000000000E+00 -0.00000000000E+00 -0.72284043125E+03  0.72284043125E+03  0.00000000000E+00 0. -1.
         36    2    1    2    0    0 -0.56843418861E-13 -0.14210854715E-13 -0.37725945874E+03  0.10684214038E+04  0.99959971830E+03 0.  0.
         25    2    3    3    0    0 -0.12047586405E+03  0.57875597372E+02 -0.27706111171E+02  0.18503880353E+03  0.12493082736E+03 0.  0.
         35    2    3    3    0    0  0.12047586405E+03 -0.57875597372E+02 -0.34955334757E+03  0.88338260023E+03  0.80019576168E+03 0.  0.
         22    1    5    5    0    0 -0.31435584300E+03  0.82908895415E+02 -0.26308849093E+03  0.41822127520E+03  0.00000000000E+00 0.  1.
         22    1    5    5    0    0  0.43483170706E+03 -0.14078449279E+03 -0.86464856637E+02  0.46516132503E+03  0.00000000000E+00 0.  1.
          5    1    4    4  502    0 -0.84287797554E+02 -0.28123153315E+02 -0.63382661148E+01  0.89205426888E+02  0.47000000000E+01 0.  1.
         -5    1    4    4    0  502 -0.36188066500E+02  0.85998750687E+02 -0.21367845056E+02  0.95833376645E+02  0.47000000000E+01 0.  1.
<mgrwt>
<rscale>  0 0.99959972E+03</rscale>
<asrwt>0</asrwt>
<pdfrwt beam="1">  1        1 0.53166303E-01 0.99959972E+03</pdfrwt>
<pdfrwt beam="2">  1       -1 0.11120622E+00 0.99959972E+03</pdfrwt>
<totfact> 0.65152143E+01</totfact>
</mgrwt>
</event>
<event>
 9    1  0.4321150E-036  0.1000841E+04  0.7818608E-02  0.8680237E-01
         -2   -1    0    0    0  501 -0.00000000000E+00  0.00000000000E+00  0.37619474500E+03  0.37619474500E+03  0.00000000000E+00 0. -1.
          2   -1    0    0  501    0  0.00000000000E+00 -0.00000000000E+00 -0.66566788153E+03  0.66566788153E+03  0.00000000000E+00 0. -1.
         36    2    1    2    0    0  0.00000000000E+00  0.00000000000E+00 -0.28947313653E+03  0.10418626265E+04  0.10008411641E+04 0.  0.
         25    2    3    3    0    0  0.10703136934E+03  0.16063822058E+02 -0.14669370058E+03  0.22130388336E+03  0.12546954451E+03 0.  0.
         35    2    3    3    0    0 -0.10703136934E+03 -0.16063822058E+02 -0.14277943595E+03  0.82055874317E+03  0.80076021584E+03 0.  0.
         22    1    5    5    0    0  0.14074074992E+03  0.27579898176E+03 -0.27640563854E+03  0.41505796468E+03  0.00000000000E+00 0.  1.
         22    1    5    5    0    0 -0.24777211926E+03 -0.29186280382E+03  0.13362620260E+03  0.40550077849E+03  0.00000000000E+00 0.  1.
          5    1    4    4  502    0  0.10226352823E+03  0.10187069173E+02 -0.34133683095E+02  0.10839189963E+03  0.47000000000E+01 0. -1.
         -5    1    4    4    0  502  0.47678411126E+01  0.58767528844E+01 -0.11256001749E+03  0.11291198373E+03  0.47000000000E+01 0. -1.
<mgrwt>
<rscale>  0 0.10008412E+04</rscale>
<asrwt>0</asrwt>
<pdfrwt beam="1">  1        2 0.10241044E+00 0.10008412E+04</pdfrwt>
<pdfrwt beam="2">  1       -2 0.57876115E-01 0.10008412E+04</pdfrwt>
<totfact> 0.14760009E+02</totfact>
</mgrwt>
</event>
<event>
 9    1  0.4321150E-036  0.9997791E+03  0.7818608E-02  0.8681248E-01
          1   -1    0    0  501    0  0.00000000000E+00  0.00000000000E+00  0.12652782895E+04  0.12652782895E+04  0.00000000000E+00 0. -1.
         -1   -1    0    0    0  501 -0.00000000000E+00 -0.00000000000E+00 -0.19749769007E+03  0.19749769007E+03  0.00000000000E+00 0. -1.
         36    2    1    2    0    0  0.71054273576E-14 -0.28421709430E-13  0.10677805994E+04  0.14627759796E+04  0.99977905453E+03 0.  0.
         25    2    3    3    0    0 -0.38761409706E+02  0.13287420243E+03  0.21873990964E+03  0.28804720667E+03  0.12635681482E+03 0.  0.
         35    2    3    3    0    0  0.38761409706E+02 -0.13287420243E+03  0.84904068979E+03  0.11747287729E+04  0.79997474734E+03 0.  0.
         22    1    5    5    0    0 -0.31549649844E+03  0.69693260656E+02  0.63835787017E+03  0.71546905000E+03  0.00000000000E+00 0.  1.
         22    1    5    5    0    0  0.35425790814E+03 -0.20256746309E+03  0.21068281962E+03  0.45925972289E+03  0.00000000000E+00 0.  1.
          5    1    4    4  502    0  0.19833190085E+02  0.82820135968E+02  0.18514916718E+03  0.20385002933E+03  0.47000000000E+01 0. -1.
         -5    1    4    4    0  502 -0.58594599791E+02  0.50054066462E+02  0.33590742462E+02  0.84197177347E+02  0.47000000000E+01 0. -1.
<mgrwt>
<rscale>  0 0.99977905E+03</rscale>
<asrwt>0</asrwt>
<pdfrwt beam="1">  1        1 0.19465819E+00 0.99977905E+03</pdfrwt>
<pdfrwt beam="2">  1       -1 0.30384261E-01 0.99977905E+03</pdfrwt>
<totfact> 0.10488284E+02</totfact>
</mgrwt>
</event>
<event>
 9    1  0.4321150E-036  0.1000071E+04  0.7818608E-02  0.8680971E-01
          2   -1    0    0  501    0  0.00000000000E+00  0.00000000000E+00  0.22748104934E+04  0.22748104934E+04  0.00000000000E+00 0. -1.
         -2   -1    0    0    0  501 -0.00000000000E+00 -0.00000000000E+00 -0.10991479377E+03  0.10991479377E+03  0.00000000000E+00 0. -1.
         36    2    1    2    0    0 -0.14210854715E-13  0.28421709430E-13  0.21648956997E+04  0.23847252872E+04  0.10000706500E+04 0.  0.
         25    2    3    3    0    0 -0.36770509512E+02 -0.94704177465E+02  0.63862222468E+03  0.65894628704E+03  0.12669219289E+03 0.  0.
         35    2    3    3    0    0  0.36770509512E+02  0.94704177465E+02  0.15262734750E+04  0.17257790002E+04  0.79905036475E+03 0.  0.
         22    1    5    5    0    0  0.17487603559E+03  0.40239404201E+03  0.10851960597E+04  0.11705353822E+04  0.00000000000E+00 0. -1.
         22    1    5    5    0    0 -0.13810552608E+03 -0.30768986455E+03  0.44107741524E+03  0.55524361799E+03  0.00000000000E+00 0. -1.
          5    1    4    4  502    0  0.61711782833E+01 -0.53632716756E+01 -0.28433578215E+01  0.98500156432E+01  0.47000000000E+01 0.  1.
         -5    1    4    4    0  502 -0.42941687795E+02 -0.89340905789E+02  0.64146558250E+03  0.64909627139E+03  0.47000000000E+01 0.  1.
<mgrwt>
<rscale>  0 0.10000707E+04</rscale>
<asrwt>0</asrwt>
<pdfrwt beam="1">  1        2 0.34997081E+00 0.10000707E+04</pdfrwt>
<pdfrwt beam="2">  1       -2 0.16909970E-01 0.10000707E+04</pdfrwt>
<totfact> 0.15507526E+02</totfact>
</mgrwt>
</event>
<event>
 9    1  0.4321150E-036  0.1000069E+04  0.7818608E-02  0.8680973E-01
         -2   -1    0    0    0  501 -0.00000000000E+00  0.00000000000E+00  0.28414432361E+03  0.28414432361E+03  0.00000000000E+00 0.  1.
          2   -1    0    0  501    0  0.00000000000E+00 -0.00000000000E+00 -0.87995544500E+03  0.87995544500E+03  0.00000000000E+00 0.  1.
         36    2    1    2    0    0  0.56843418861E-13 -0.71054273576E-14 -0.59581112139E+03  0.11640997686E+04  0.10000686871E+04 0.  0.
         25    2    3    3    0    0 -0.12548572257E+03 -0.36993639919E+02 -0.51674092808E+02  0.18810299348E+03  0.12488926426E+03 0.  0.
         35    2    3    3    0    0  0.12548572257E+03  0.36993639919E+02 -0.54413702858E+03  0.97599677512E+03  0.79960577987E+03 0.  0.
         22    1    5    5    0    0 -0.30847482862E+03  0.91651415826E+02 -0.40443125903E+03  0.51683783259E+03  0.00000000000E+00 0. -1.
         22    1    5    5    0    0  0.43396055119E+03 -0.54657775907E+02 -0.13970576955E+03  0.45915894253E+03  0.00000000000E+00 0. -1.
          5    1    4    4  502    0 -0.13053761307E+03  0.12082176530E+02 -0.34334908285E+02  0.13559875863E+03  0.47000000000E+01 0.  1.
         -5    1    4    4    0  502  0.50518904973E+01 -0.49075816449E+02 -0.17339184523E+02  0.52504234855E+02  0.47000000000E+01 0.  1.
<mgrwt>
<rscale>  0 0.10000687E+04</rscale>
<asrwt>0</asrwt>
<pdfrwt beam="1">  1        2 0.13537776E+00 0.10000687E+04</pdfrwt>
<pdfrwt beam="2">  1       -2 0.43714512E-01 0.10000687E+04</pdfrwt>
<totfact> 0.18167556E+02</totfact>
</mgrwt>
</event>
<event>
 9    1  0.4321150E-036  0.1004435E+04  0.7818608E-02  0.8676826E-01
          2   -1    0    0  501    0  0.00000000000E+00  0.00000000000E+00  0.12760986277E+04  0.12760986277E+04  0.00000000000E+00 0.  1.
         -2   -1    0    0    0  501 -0.00000000000E+00 -0.00000000000E+00 -0.19765104651E+03  0.19765104651E+03  0.00000000000E+00 0.  1.
         36    2    1    2    0    0 -0.28421709430E-13  0.00000000000E+00  0.10784475812E+04  0.14737496742E+04  0.10044346255E+04 0.  0.
         25    2    3    3    0    0 -0.89313627874E+02 -0.11540586592E+03  0.21258304060E+03  0.28649096328E+03  0.12486026138E+03 0.  0.
         35    2    3    3    0    0  0.89313627874E+02  0.11540586592E+03  0.86586454057E+03  0.11872587109E+04  0.79910350145E+03 0.  0.
         22    1    5    5    0    0  0.21746943948E+03 -0.53128958330E+01 -0.74971686581E+02  0.23009115098E+03  0.00000000000E+00 0. -1.
         22    1    5    5    0    0 -0.12815581161E+03  0.12071876176E+03  0.94083622716E+03  0.95716755995E+03  0.00000000000E+00 0. -1.
          5    1    4    4  502    0 -0.72491680839E+02  0.15168914511E+00  0.59534790992E+02  0.93923096941E+02  0.47000000000E+01 0.  1.
         -5    1    4    4    0  502 -0.16821947034E+02 -0.11555755507E+03  0.15304824961E+03  0.19256786634E+03  0.47000000000E+01 0. -1.
<mgrwt>
<rscale>  0 0.10044346E+04</rscale>
<asrwt>0</asrwt>
<pdfrwt beam="1">  1        2 0.19632286E+00 0.10044346E+04</pdfrwt>
<pdfrwt beam="2">  1       -2 0.30407854E-01 0.10044346E+04</pdfrwt>
<totfact> 0.20528933E+02</totfact>
</mgrwt>
</event>
<event>
 9    1  0.4321150E-036  0.9987774E+03  0.7818608E-02  0.8682203E-01
          2   -1    0    0  501    0  0.00000000000E+00  0.00000000000E+00  0.11314969619E+04  0.11314969619E+04  0.00000000000E+00 0.  1.
         -2   -1    0    0    0  501 -0.00000000000E+00 -0.00000000000E+00 -0.22040632569E+03  0.22040632569E+03  0.00000000000E+00 0.  1.
         36    2    1    2    0    0  0.00000000000E+00 -0.56843418861E-13  0.91109063624E+03  0.13519032876E+04  0.99877742846E+03 0.  0.
         25    2    3    3    0    0 -0.82476135248E+02  0.91839337242E+02  0.16107523259E+03  0.23955099534E+03  0.12728971704E+03 0.  0.
         35    2    3    3    0    0  0.82476135248E+02 -0.91839337242E+02  0.75001540365E+03  0.11123522923E+04  0.81213775904E+03 0.  0.
         22    1    5    5    0    0 -0.16930967584E+03 -0.38325219933E+03  0.27649973065E+03  0.50199613114E+03  0.00000000000E+00 0.  1.
         22    1    5    5    0    0  0.25178581109E+03  0.29141286209E+03  0.47351567299E+03  0.61035616113E+03  0.00000000000E+00 0.  1.
          5    1    4    4  502    0  0.27983747172E+02  0.51520900280E+02  0.43126074593E+02  0.72934501995E+02  0.47000000000E+01 0.  1.
         -5    1    4    4    0  502 -0.11045988242E+03  0.40318436962E+02  0.11794915800E+03  0.16661649335E+03  0.47000000000E+01 0.  1.
<mgrwt>
<rscale>  0 0.99877743E+03</rscale>
<asrwt>0</asrwt>
<pdfrwt beam="1">  1        2 0.17407645E+00 0.99877743E+03</pdfrwt>
<pdfrwt beam="2">  1       -2 0.33908666E-01 0.99877743E+03</pdfrwt>
<totfact> 0.20450284E+02</totfact>
</mgrwt>
</event>
<event>
 9    1  0.4321150E-036  0.9992512E+03  0.7818608E-02  0.8681751E-01
         -2   -1    0    0    0  501 -0.00000000000E+00  0.00000000000E+00  0.33190087855E+03  0.33190087855E+03  0.00000000000E+00 0. -1.
          2   -1    0    0  501    0  0.00000000000E+00 -0.00000000000E+00 -0.75210924190E+03  0.75210924190E+03  0.00000000000E+00 0. -1.
         36    2    1    2    0    0  0.71054273576E-14 -0.14210854715E-13 -0.42020836335E+03  0.10840101204E+04  0.99925115592E+03 0.  0.
         25    2    3    3    0    0 -0.61558942729E+02  0.78865965876E+02 -0.18369505695E+03  0.24333292834E+03  0.12432898321E+03 0.  0.
         35    2    3    3    0    0  0.61558942729E+02 -0.78865965876E+02 -0.23651330640E+03  0.84067719210E+03  0.80049375589E+03 0.  0.
         22    1    5    5    0    0  0.23966175360E+03 -0.36674271624E+03 -0.19437017467E+02  0.43853822376E+03  0.00000000000E+00 0.  1.
         22    1    5    5    0    0 -0.17810281087E+03  0.28787675037E+03 -0.21707628893E+03  0.40213896834E+03  0.00000000000E+00 0.  1.
          5    1    4    4  502    0 -0.96528982312E+02  0.72928451542E+02 -0.15903968642E+03  0.19988025247E+03  0.47000000000E+01 0. -1.
         -5    1    4    4    0  502  0.34970039583E+02  0.59375143342E+01 -0.24655370526E+02  0.43452675875E+02  0.47000000000E+01 0. -1.
<mgrwt>
<rscale>  0 0.99925116E+03</rscale>
<asrwt>0</asrwt>
<pdfrwt beam="1">  1        2 0.11570911E+00 0.99925116E+03</pdfrwt>
<pdfrwt beam="2">  1       -2 0.51061674E-01 0.99925116E+03</pdfrwt>
<totfact> 0.16392923E+02</totfact>
</mgrwt>
</event>
<event>
 9    1  0.4321150E-036  0.9992905E+03  0.7818608E-02  0.8681714E-01
         -4   -1    0    0    0  501 -0.00000000000E+00  0.00000000000E+00  0.13649736084E+04  0.13649736084E+04  0.00000000000E+00 0.  1.
          4   -1    0    0  501    0  0.00000000000E+00 -0.00000000000E+00 -0.18289390863E+03  0.18289390863E+03  0.00000000000E+00 0.  1.
         36    2    1    2    0    0 -0.11546319456E-13  0.00000000000E+00  0.11820796997E+04  0.15478675170E+04  0.99929046511E+03 0.  0.
         25    2    3    3    0    0  0.73617224604E+00 -0.12694748220E+03  0.17925617877E+03  0.25367238161E+03  0.12688851162E+03 0.  0.
         35    2    3    3    0    0 -0.73617224604E+00  0.12694748220E+03  0.10028235210E+04  0.12941951354E+04  0.80818922850E+03 0.  0.
         22    1    5    5    0    0 -0.22392441045E+03 -0.27624325982E+03  0.39624224472E+03  0.53240998928E+03  0.00000000000E+00 0.  1.
         22    1    5    5    0    0  0.22318823820E+03  0.40319074202E+03  0.60658127626E+03  0.76178514611E+03  0.00000000000E+00 0.  1.
          5    1    4    4  502    0 -0.42932146407E+01 -0.39835891148E+02  0.15891159325E+03  0.16395217102E+03  0.47000000000E+01 0.  1.
         -5    1    4    4    0  502  0.50293868867E+01 -0.87111591053E+02  0.20344585522E+02  0.89720210590E+02  0.47000000000E+01 0.  1.
<mgrwt>
<rscale>  0 0.99929047E+03</rscale>
<asrwt>0</asrwt>
<pdfrwt beam="1">  1        4 0.28137525E-01 0.99929047E+03</pdfrwt>
<pdfrwt beam="2">  1       -4 0.20999593E+00 0.99929047E+03</pdfrwt>
<totfact> 0.23973333E+00</totfact>
</mgrwt>
</event>
<event>
 9    1  0.4321150E-036  0.1000569E+04  0.7818608E-02  0.8680496E-01
          2   -1    0    0  501    0  0.00000000000E+00  0.00000000000E+00  0.13194849576E+04  0.13194849576E+04  0.00000000000E+00 0.  1.
         -2   -1    0    0    0  501 -0.00000000000E+00 -0.00000000000E+00 -0.18968363451E+03  0.18968363451E+03  0.00000000000E+00 0.  1.
         36    2    1    2    0    0 -0.28421709430E-13 -0.28421709430E-13  0.11298013231E+04  0.15091685921E+04  0.10005692428E+04 0.  0.
         25    2    3    3    0    0  0.31661066920E+02 -0.11913736053E+03  0.11019257185E+03  0.20732043953E+03  0.12507289044E+03 0.  0.
         35    2    3    3    0    0 -0.31661066920E+02  0.11913736053E+03  0.10196087512E+04  0.13018481525E+04  0.80000654553E+03 0.  0.
         22    1    5    5    0    0 -0.17630094539E+03 -0.82875348341E+02 -0.52149922314E+02  0.20166794764E+03  0.00000000000E+00 0.  1.
         22    1    5    5    0    0  0.14463987847E+03  0.20201270887E+03  0.10717586735E+04  0.11001802049E+04  0.00000000000E+00 0.  1.
          5    1    4    4  502    0 -0.41200500886E+02 -0.15769111874E+02  0.51034924629E+02  0.67622479210E+02  0.47000000000E+01 0. -1.
         -5    1    4    4    0  502  0.72861567806E+02 -0.10336824866E+03  0.59157647224E+02  0.13969796032E+03  0.47000000000E+01 0. -1.
<mgrwt>
<rscale>  0 0.10005692E+04</rscale>
<asrwt>0</asrwt>
<pdfrwt beam="1">  1        2 0.20299768E+00 0.10005692E+04</pdfrwt>
<pdfrwt beam="2">  1       -2 0.29182098E-01 0.10005692E+04</pdfrwt>
<totfact> 0.20879746E+02</totfact>
</mgrwt>
</event>
<event>
 9    1  0.4321150E-036  0.9998499E+03  0.7818608E-02  0.8681181E-01
         -1   -1    0    0    0  501 -0.00000000000E+00  0.00000000000E+00  0.84114525790E+03  0.84114525790E+03  0.00000000000E+00 0. -1.
          1   -1    0    0  501    0  0.00000000000E+00 -0.00000000000E+00 -0.29712458141E+03  0.29712458141E+03  0.00000000000E+00 0. -1.
         36    2    1    2    0    0 -0.35527136788E-14  0.00000000000E+00  0.54402067649E+03  0.11382698393E+04  0.99984985404E+03 0.  0.
         25    2    3    3    0    0  0.29734056308E+01  0.54388801685E+02  0.25042991987E+03  0.28494269720E+03  0.12454000575E+03 0.  0.
         35    2    3    3    0    0 -0.29734056308E+01 -0.54388801685E+02  0.29359075662E+03  0.85332714210E+03  0.79937769307E+03 0.  0.
         22    1    5    5    0    0 -0.19684073561E+03 -0.37672412875E+03  0.15985568137E+03  0.45411582580E+03  0.00000000000E+00 0. -1.
         22    1    5    5    0    0  0.19386732998E+03  0.32233532706E+03  0.13373507525E+03  0.39921131630E+03  0.00000000000E+00 0. -1.
          5    1    4    4  502    0  0.31655830438E+02 -0.30312114115E+02  0.10864625814E+03  0.11724766638E+03  0.47000000000E+01 0.  1.
         -5    1    4    4    0  502 -0.28682424807E+02  0.84700915800E+02  0.14178366173E+03  0.16769503083E+03  0.47000000000E+01 0.  1.
<mgrwt>
<rscale>  0 0.99984985E+03</rscale>
<asrwt>0</asrwt>
<pdfrwt beam="1">  1        1 0.45711474E-01 0.99984985E+03</pdfrwt>
<pdfrwt beam="2">  1       -1 0.12940696E+00 0.99984985E+03</pdfrwt>
<totfact> 0.54566453E+01</totfact>
</mgrwt>
</event>
<event>
 9    1  0.4321150E-036  0.1000024E+04  0.7818608E-02  0.8681016E-01
          2   -1    0    0  501    0  0.00000000000E+00  0.00000000000E+00  0.85444836381E+03  0.85444836381E+03  0.00000000000E+00 0.  1.
         -2   -1    0    0    0  501 -0.00000000000E+00 -0.00000000000E+00 -0.29260022807E+03  0.29260022807E+03  0.00000000000E+00 0.  1.
         36    2    1    2    0    0  0.00000000000E+00  0.71054273576E-13  0.56184813574E+03  0.11470485919E+04  0.10000235720E+04 0.  0.
         25    2    3    3    0    0 -0.63256944016E+02 -0.12251511477E+03  0.67225596708E+02  0.19779963148E+03  0.12487601470E+03 0.  0.
         35    2    3    3    0    0  0.63256944016E+02  0.12251511477E+03  0.49462253903E+03  0.94924896041E+03  0.79838007140E+03 0.  0.
         22    1    5    5    0    0  0.11467762520E+03 -0.32442996098E+03  0.12202348349E+03  0.36509654590E+03  0.00000000000E+00 0. -1.
         22    1    5    5    0    0 -0.51420681181E+02  0.44694507575E+03  0.37259905554E+03  0.58415241451E+03  0.00000000000E+00 0. -1.
          5    1    4    4  502    0  0.10896856199E+02 -0.84890587465E+02 -0.73161860989E+01  0.86027727473E+02  0.47000000000E+01 0. -1.
         -5    1    4    4    0  502 -0.74153800215E+02 -0.37624527304E+02  0.74541782807E+02  0.11177190401E+03  0.47000000000E+01 0. -1.
<mgrwt>
<rscale>  0 0.10000236E+04</rscale>
<asrwt>0</asrwt>
<pdfrwt beam="1">  1        2 0.13145359E+00 0.10000236E+04</pdfrwt>
<pdfrwt beam="2">  1       -2 0.45015420E-01 0.10000236E+04</pdfrwt>
<totfact> 0.17846166E+02</totfact>
</mgrwt>
</event>
<event>
 9    1  0.4321150E-036  0.9997988E+03  0.7818608E-02  0.8681230E-01
         -1   -1    0    0    0  501 -0.00000000000E+00  0.00000000000E+00  0.65108995278E+03  0.65108995278E+03  0.00000000000E+00 0.  1.
          1   -1    0    0  501    0  0.00000000000E+00 -0.00000000000E+00 -0.38381705307E+03  0.38381705307E+03  0.00000000000E+00 0.  1.
         36    2    1    2    0    0  0.35527136788E-13  0.00000000000E+00  0.26727289971E+03  0.10349070058E+04  0.99979883368E+03 0.  0.
         25    2    3    3    0    0  0.11298799378E+02 -0.24431723005E+02  0.19139297103E+03  0.23037443418E+03  0.12536561971E+03 0.  0.
         35    2    3    3    0    0 -0.11298799378E+02  0.24431723005E+02  0.75879928679E+02  0.80453257167E+03  0.80049379969E+03 0.  0.
         22    1    5    5    0    0  0.32927679806E+03  0.92009986539E+02 -0.16729919737E+03  0.38062851811E+03  0.00000000000E+00 0. -1.
         22    1    5    5    0    0 -0.34057559744E+03 -0.67578263534E+02  0.24317912605E+03  0.42390405355E+03  0.00000000000E+00 0. -1.
          5    1    4    4  502    0  0.35711957306E+02 -0.42269821026E+02  0.19189698119E+03  0.19977142702E+03  0.47000000000E+01 0.  1.
         -5    1    4    4    0  502 -0.24413157928E+02  0.17838098021E+02 -0.50401015490E+00  0.30603007160E+02  0.47000000000E+01 0.  1.
<mgrwt>
<rscale>  0 0.99979883E+03</rscale>
<asrwt>0</asrwt>
<pdfrwt beam="1">  1        1 0.59048778E-01 0.99979883E+03</pdfrwt>
<pdfrwt beam="2">  1       -1 0.10016768E+00 0.99979883E+03</pdfrwt>
<totfact> 0.72112115E+01</totfact>
</mgrwt>
</event>
<event>
 9    1  0.4321150E-036  0.9999443E+03  0.7818608E-02  0.8681091E-01
          2   -1    0    0  501    0  0.00000000000E+00  0.00000000000E+00  0.25981018395E+04  0.25981018395E+04  0.00000000000E+00 0. -1.
         -2   -1    0    0    0  501 -0.00000000000E+00 -0.00000000000E+00 -0.96213377608E+02  0.96213377608E+02  0.00000000000E+00 0. -1.
         36    2    1    2    0    0  0.14210854715E-13  0.00000000000E+00  0.25018884619E+04  0.26943152171E+04  0.99994430514E+03 0.  0.
         25    2    3    3    0    0 -0.37270021645E+02  0.98220734714E+02  0.72111565618E+03  0.73930591519E+03  0.12461572698E+03 0.  0.
         35    2    3    3    0    0  0.37270021645E+02 -0.98220734714E+02  0.17807728057E+04  0.19550093019E+04  0.79992075718E+03 0.  0.
         22    1    5    5    0    0  0.37697742561E+03 -0.12810573336E+03  0.55739555932E+03  0.68499114439E+03  0.00000000000E+00 0. -1.
         22    1    5    5    0    0 -0.33970740397E+03  0.29884998645E+02  0.12233772464E+04  0.12700181575E+04  0.00000000000E+00 0. -1.
          5    1    4    4  502    0 -0.19535329153E+02  0.22544300597E+02  0.26020351583E+02  0.39862554748E+02  0.47000000000E+01 0.  1.
         -5    1    4    4    0  502 -0.17734692492E+02  0.75676434117E+02  0.69509530460E+03  0.69944336045E+03  0.47000000000E+01 0.  1.
<mgrwt>
<rscale>  0 0.99994431E+03</rscale>
<asrwt>0</asrwt>
<pdfrwt beam="1">  1        2 0.39970792E+00 0.99994431E+03</pdfrwt>
<pdfrwt beam="2">  1       -2 0.14802060E-01 0.99994431E+03</pdfrwt>
<totfact> 0.12396297E+02</totfact>
</mgrwt>
</event>
<event>
 9    1  0.4321150E-036  0.9989373E+03  0.7818608E-02  0.8682051E-01
          1   -1    0    0  501    0  0.00000000000E+00  0.00000000000E+00  0.10268092392E+04  0.10268092392E+04  0.00000000000E+00 0.  1.
         -1   -1    0    0    0  501 -0.00000000000E+00 -0.00000000000E+00 -0.24295547936E+03  0.24295547936E+03  0.00000000000E+00 0.  1.
         36    2    1    2    0    0  0.14210854715E-13  0.28421709430E-13  0.78385375982E+03  0.12697647186E+04  0.99893729718E+03 0.  0.
         25    2    3    3    0    0  0.45727095771E+02  0.24071936581E+02 -0.22363103818E+02  0.13266478381E+03  0.12012248347E+03 0.  0.
         35    2    3    3    0    0 -0.45727095771E+02 -0.24071936581E+02  0.80621686364E+03  0.11370999347E+04  0.80021259984E+03 0.  0.
         22    1    5    5    0    0 -0.13392859329E+03  0.27036104171E+03  0.31155740413E+02  0.30331937151E+03  0.00000000000E+00 0. -1.
         22    1    5    5    0    0  0.88201497524E+02 -0.29443297829E+03  0.77506112323E+03  0.83378056323E+03  0.00000000000E+00 0. -1.
          5    1    4    4  502    0 -0.34376155882E+00  0.62632391397E+02  0.11027691568E+02  0.63770170185E+02  0.47000000000E+01 0. -1.
         -5    1    4    4    0  502  0.46070857330E+02 -0.38560454816E+02 -0.33390795386E+02  0.68894613630E+02  0.47000000000E+01 0. -1.
<mgrwt>
<rscale>  0 0.99893730E+03</rscale>
<asrwt>0</asrwt>
<pdfrwt beam="1">  1        1 0.15797065E+00 0.99893730E+03</pdfrwt>
<pdfrwt beam="2">  1       -1 0.37377767E-01 0.99893730E+03</pdfrwt>
<totfact> 0.11101993E+02</totfact>
</mgrwt>
</event>
<event>
 9    1  0.4321150E-036  0.1001772E+04  0.7818608E-02  0.8679352E-01
         -1   -1    0    0    0  501 -0.00000000000E+00  0.00000000000E+00  0.39315186121E+03  0.39315186121E+03  0.00000000000E+00 0.  1.
          1   -1    0    0  501    0  0.00000000000E+00 -0.00000000000E+00 -0.63814219022E+03  0.63814219022E+03  0.00000000000E+00 0.  1.
         36    2    1    2    0    0 -0.71054273576E-14  0.14210854715E-13 -0.24499032900E+03  0.10312940514E+04  0.10017720096E+04 0.  0.
         25    2    3    3    0    0 -0.15100758770E+02 -0.19932861903E+02 -0.18881939684E+03  0.22783068724E+03  0.12501482123E+03 0.  0.
         35    2    3    3    0    0  0.15100758770E+02  0.19932861903E+02 -0.56170932161E+02  0.80346336419E+03  0.80110726627E+03 0.  0.
         22    1    5    5    0    0  0.14391193210E+03  0.16284070002E+03  0.31657801648E+03  0.38399137790E+03  0.00000000000E+00 0. -1.
         22    1    5    5    0    0 -0.12881117333E+03 -0.14290783811E+03 -0.37274894864E+03  0.41947198629E+03  0.00000000000E+00 0. -1.
          5    1    4    4  502    0 -0.55657898733E+02  0.29655473210E+02 -0.95552085989E+02  0.11458420449E+03  0.47000000000E+01 0.  1.
         -5    1    4    4    0  502  0.40557139964E+02 -0.49588335114E+02 -0.93267310853E+02  0.11324648275E+03  0.47000000000E+01 0.  1.
<mgrwt>
<rscale>  0 0.10017720E+04</rscale>
<asrwt>0</asrwt>
<pdfrwt beam="1">  1        1 0.98175721E-01 0.10017720E+04</pdfrwt>
<pdfrwt beam="2">  1       -1 0.60484902E-01 0.10017720E+04</pdfrwt>
<totfact> 0.10047494E+02</totfact>
</mgrwt>
</event>
<event>
 9    1  0.4321150E-036  0.1000290E+04  0.7818608E-02  0.8680762E-01
          1   -1    0    0  501    0  0.00000000000E+00  0.00000000000E+00  0.18451610029E+04  0.18451610029E+04  0.00000000000E+00 0.  1.
         -1   -1    0    0    0  501 -0.00000000000E+00 -0.00000000000E+00 -0.13556812001E+03  0.13556812001E+03  0.00000000000E+00 0.  1.
         36    2    1    2    0    0 -0.14210854715E-13  0.21316282073E-13  0.17095928829E+04  0.19807291229E+04  0.10002899745E+04 0.  0.
         25    2    3    3    0    0 -0.10531317761E+03  0.24949633774E+02  0.49658799982E+03  0.52307015291E+03  0.12365028786E+03 0.  0.
         35    2    3    3    0    0  0.10531317761E+03 -0.24949633774E+02  0.12130048830E+04  0.14576589700E+04  0.80104648858E+03 0.  0.
         22    1    5    5    0    0  0.34703152477E+03  0.18705065336E+03  0.31750265429E+03  0.50618846449E+03  0.00000000000E+00 0.  1.
         22    1    5    5    0    0 -0.24171834716E+03 -0.21200028713E+03  0.89550222875E+03  0.95147050547E+03  0.00000000000E+00 0.  1.
          5    1    4    4  502    0 -0.62613636899E+01  0.77296492068E+01 -0.45643292032E+01  0.11911139878E+02  0.47000000000E+01 0. -1.
         -5    1    4    4    0  502 -0.99051813924E+02  0.17219984567E+02  0.50115232903E+03  0.51115901303E+03  0.47000000000E+01 0. -1.
<mgrwt>
<rscale>  0 0.10002900E+04</rscale>
<asrwt>0</asrwt>
<pdfrwt beam="1">  1        1 0.28387091E+00 0.10002900E+04</pdfrwt>
<pdfrwt beam="2">  1       -1 0.20856635E-01 0.10002900E+04</pdfrwt>
<totfact> 0.76297854E+01</totfact>
</mgrwt>
</event>
<event>
 9    1  0.4321150E-036  0.9997255E+03  0.7818608E-02  0.8681299E-01
          2   -1    0    0  501    0  0.00000000000E+00  0.00000000000E+00  0.53746684825E+03  0.53746684825E+03  0.00000000000E+00 0. -1.
         -2   -1    0    0    0  501 -0.00000000000E+00 -0.00000000000E+00 -0.46488959248E+03  0.46488959248E+03  0.00000000000E+00 0. -1.
         36    2    1    2    0    0  0.00000000000E+00  0.00000000000E+00  0.72577255765E+02  0.10023564407E+04  0.99972545042E+03 0.  0.
         25    2    3    3    0    0 -0.71543286543E+02  0.10610491971E+03  0.69869023719E+02  0.19266899589E+03  0.12594826584E+03 0.  0.
         35    2    3    3    0    0  0.71543286543E+02 -0.10610491971E+03  0.27082320468E+01  0.80968744484E+03  0.79950592741E+03 0.  0.
         22    1    5    5    0    0  0.24617060009E+03  0.19614680795E+03  0.23289479716E+03  0.39155270547E+03  0.00000000000E+00 0.  1.
         22    1    5    5    0    0 -0.17462731355E+03 -0.30225172765E+03 -0.23018656511E+03  0.41813473937E+03  0.00000000000E+00 0.  1.
          5    1    4    4  502    0 -0.31632304659E+02 -0.10930299392E+02  0.59582136325E+02  0.68499599356E+02  0.47000000000E+01 0. -1.
         -5    1    4    4    0  502 -0.39910981884E+02  0.11703521910E+03  0.10286887394E+02  0.12416939654E+03  0.47000000000E+01 0. -1.
<mgrwt>
<rscale>  0 0.99972545E+03</rscale>
<asrwt>0</asrwt>
<pdfrwt beam="1">  1        2 0.82687207E-01 0.99972545E+03</pdfrwt>
<pdfrwt beam="2">  1       -2 0.71521476E-01 0.99972545E+03</pdfrwt>
<totfact> 0.12131796E+02</totfact>
</mgrwt>
</event>
<event>
 9    1  0.4321150E-036  0.9999193E+03  0.7818608E-02  0.8681115E-01
          2   -1    0    0  501    0  0.00000000000E+00  0.00000000000E+00  0.22743988949E+03  0.22743988949E+03  0.00000000000E+00 0. -1.
         -2   -1    0    0    0  501 -0.00000000000E+00 -0.00000000000E+00 -0.10990141587E+04  0.10990141587E+04  0.00000000000E+00 0. -1.
         36    2    1    2    0    0  0.00000000000E+00  0.28421709430E-13 -0.87157426918E+03  0.13264540482E+04  0.99991931433E+03 0.  0.
         25    2    3    3    0    0  0.20452378758E+02 -0.90799366938E+02 -0.30040006772E+03  0.33906432823E+03  0.12673434088E+03 0.  0.
         35    2    3    3    0    0 -0.20452378758E+02  0.90799366938E+02 -0.57117420146E+03  0.98738971992E+03  0.80002229079E+03 0.  0.
         22    1    5    5    0    0  0.21018049891E+03  0.36823456410E+03 -0.19671340640E+03  0.46740635488E+03  0.00000000000E+00 0. -1.
         22    1    5    5    0    0 -0.23063287767E+03 -0.27743519716E+03 -0.37446079506E+03  0.51998336505E+03  0.00000000000E+00 0. -1.
          5    1    4    4  502    0  0.31480424377E+02  0.43676360903E-01 -0.20244709075E+03  0.20493397371E+03  0.47000000000E+01 0.  1.
         -5    1    4    4    0  502 -0.11028045619E+02 -0.90843043299E+02 -0.97952976965E+02  0.13413035451E+03  0.47000000000E+01 0.  1.
<mgrwt>
<rscale>  0 0.99991931E+03</rscale>
<asrwt>0</asrwt>
<pdfrwt beam="1">  1        2 0.34990752E-01 0.99991931E+03</pdfrwt>
<pdfrwt beam="2">  1       -2 0.16907910E+00 0.99991931E+03</pdfrwt>
<totfact> 0.36059412E+01</totfact>
</mgrwt>
</event>
<event>
 9    1  0.4321150E-036  0.9996295E+03  0.7818608E-02  0.8681391E-01
          2   -1    0    0  501    0  0.00000000000E+00  0.00000000000E+00  0.17046146686E+04  0.17046146686E+04  0.00000000000E+00 0. -1.
         -2   -1    0    0    0  501 -0.00000000000E+00 -0.00000000000E+00 -0.14655205004E+03  0.14655205004E+03  0.00000000000E+00 0. -1.
         36    2    1    2    0    0  0.00000000000E+00  0.00000000000E+00  0.15580626185E+04  0.18511667186E+04  0.99962947978E+03 0.  0.
         25    2    3    3    0    0  0.62842043448E+02 -0.11715120827E+03  0.21660253271E+03  0.28357035465E+03  0.12578537608E+03 0.  0.
         35    2    3    3    0    0 -0.62842043448E+02  0.11715120827E+03  0.13414600858E+04  0.15675963640E+04  0.80010603700E+03 0.  0.
         22    1    5    5    0    0 -0.15739190092E+03  0.19633385486E+03  0.14060430606E+04  0.14283824002E+04  0.00000000000E+00 0.  1.
         22    1    5    5    0    0  0.94549857473E+02 -0.79182646589E+02 -0.64582974775E+02  0.13921396374E+03  0.00000000000E+00 0.  1.
          5    1    4    4  502    0 -0.32599502512E+02 -0.65434641239E+02  0.10275699408E+03  0.12619631401E+03  0.47000000000E+01 0.  1.
         -5    1    4    4    0  502  0.95441545960E+02 -0.51716567034E+02  0.11384553864E+03  0.15737404064E+03  0.47000000000E+01 0.  1.
<mgrwt>
<rscale>  0 0.99962948E+03</rscale>
<asrwt>0</asrwt>
<pdfrwt beam="1">  1        2 0.26224840E+00 0.99962948E+03</pdfrwt>
<pdfrwt beam="2">  1       -2 0.22546470E-01 0.99962948E+03</pdfrwt>
<totfact> 0.19988946E+02</totfact>
</mgrwt>
</event>
<event>
 9    1  0.4321150E-036  0.1009526E+04  0.7818608E-02  0.8672019E-01
         -1   -1    0    0    0  501 -0.00000000000E+00  0.00000000000E+00  0.28763971893E+03  0.28763971893E+03  0.00000000000E+00 0. -1.
          1   -1    0    0  501    0  0.00000000000E+00 -0.00000000000E+00 -0.88578082442E+03  0.88578082442E+03  0.00000000000E+00 0. -1.
         36    2    1    2    0    0 -0.28421709430E-13  0.71054273576E-14 -0.59814110548E+03  0.11734205434E+04  0.10095261213E+04 0.  0.
         25    2    3    3    0    0 -0.11586552115E+03  0.32642148923E+02 -0.21819892943E+03  0.27728371805E+03  0.12159423758E+03 0.  0.
         35    2    3    3    0    0  0.11586552115E+03 -0.32642148923E+02 -0.37994217605E+03  0.89613682530E+03  0.80262994191E+03 0.  0.
         22    1    5    5    0    0 -0.11494108287E+02 -0.36030343180E+03 -0.40683442284E+03  0.54356685431E+03  0.00000000000E+00 0. -1.
         22    1    5    5    0    0  0.12735962944E+03  0.32766128288E+03  0.26892246792E+02  0.35256997099E+03  0.00000000000E+00 0. -1.
          5    1    4    4  502    0 -0.15481651251E+02  0.54980177026E+01  0.14469221805E+02  0.22391027304E+02  0.47000000000E+01 0.  1.
         -5    1    4    4    0  502 -0.10038386990E+03  0.27144131221E+02 -0.23266815123E+03  0.25489269074E+03  0.47000000000E+01 0.  1.
<mgrwt>
<rscale>  0 0.10095261E+04</rscale>
<asrwt>0</asrwt>
<pdfrwt beam="1">  1        1 0.13627397E+00 0.10095261E+04</pdfrwt>
<pdfrwt beam="2">  1       -1 0.44252265E-01 0.10095261E+04</pdfrwt>
<totfact> 0.10676204E+02</totfact>
</mgrwt>
</event>
<event>
 9    1  0.4321150E-036  0.1000047E+04  0.7818608E-02  0.8680994E-01
         -1   -1    0    0    0  501 -0.00000000000E+00  0.00000000000E+00  0.18344719113E+03  0.18344719113E+03  0.00000000000E+00 0. -1.
          1   -1    0    0  501    0  0.00000000000E+00 -0.00000000000E+00 -0.13629169148E+04  0.13629169148E+04  0.00000000000E+00 0. -1.
         36    2    1    2    0    0  0.00000000000E+00 -0.35527136788E-14 -0.11794697237E+04  0.15463641059E+04  0.10000465584E+04 0.  0.
         25    2    3    3    0    0  0.12884815341E+03 -0.18100334595E+02 -0.31923953335E+03  0.36356767511E+03  0.11549071818E+03 0.  0.
         35    2    3    3    0    0 -0.12884815341E+03  0.18100334595E+02 -0.86023019031E+03  0.11827964308E+04  0.80130016078E+03 0.  0.
         22    1    5    5    0    0 -0.11411142850E+03 -0.10558799662E+02 -0.10166514938E+04  0.10230900088E+04  0.00000000000E+00 0.  1.
         22    1    5    5    0    0 -0.14736724913E+02  0.28659134257E+02  0.15642130348E+03  0.15970642197E+03  0.00000000000E+00 0.  1.
          5    1    4    4  502    0  0.35612660590E+02 -0.41859623369E+02 -0.39880090889E+02  0.68066153940E+02  0.47000000000E+01 0.  1.
         -5    1    4    4    0  502  0.93235492819E+02  0.23759288774E+02 -0.27935944246E+03  0.29550152117E+03  0.47000000000E+01 0.  1.
<mgrwt>
<rscale>  0 0.10000466E+04</rscale>
<asrwt>0</asrwt>
<pdfrwt beam="1">  1        1 0.20967953E+00 0.10000466E+04</pdfrwt>
<pdfrwt beam="2">  1       -1 0.28222645E-01 0.10000466E+04</pdfrwt>
<totfact> 0.10097372E+02</totfact>
</mgrwt>
</event>
<event>
 9    1  0.4321150E-036  0.1001245E+04  0.7818608E-02  0.8679853E-01
         -2   -1    0    0    0  501 -0.00000000000E+00  0.00000000000E+00  0.13257977506E+03  0.13257977506E+03  0.00000000000E+00 0.  1.
          2   -1    0    0  501    0  0.00000000000E+00 -0.00000000000E+00 -0.18903562268E+04  0.18903562268E+04  0.00000000000E+00 0.  1.
         36    2    1    2    0    0 -0.14210854715E-13  0.00000000000E+00 -0.17577764518E+04  0.20229360019E+04  0.10012452314E+04 0.  0.
         25    2    3    3    0    0  0.64420117612E+02  0.12748709958E+03 -0.36873847605E+03  0.41458736151E+03  0.12454599347E+03 0.  0.
         35    2    3    3    0    0 -0.64420117612E+02 -0.12748709958E+03 -0.13890379757E+04  0.16083486404E+04  0.79809519413E+03 0.  0.
         22    1    5    5    0    0 -0.13605139512E+03 -0.33384726038E+03 -0.13356958958E+04  0.13834910557E+04  0.00000000000E+00 0.  1.
         22    1    5    5    0    0  0.71631277505E+02  0.20636016080E+03 -0.53342079990E+02  0.22485758466E+03  0.00000000000E+00 0.  1.
          5    1    4    4  502    0 -0.29529151329E+02  0.56717501288E+02 -0.78309962508E+02  0.10120961396E+03  0.47000000000E+01 0.  1.
         -5    1    4    4    0  502  0.93949268940E+02  0.70769598295E+02 -0.29042851354E+03  0.31337774754E+03  0.47000000000E+01 0.  1.
<mgrwt>
<rscale>  0 0.10012452E+04</rscale>
<asrwt>0</asrwt>
<pdfrwt beam="1">  1        2 0.29082404E+00 0.10012452E+04</pdfrwt>
<pdfrwt beam="2">  1       -2 0.20396888E-01 0.10012452E+04</pdfrwt>
<totfact> 0.18699718E+02</totfact>
</mgrwt>
</event>
<event>
 9    1  0.4321150E-036  0.1000546E+04  0.7818608E-02  0.8680518E-01
         -2   -1    0    0    0  501 -0.00000000000E+00  0.00000000000E+00  0.24162711284E+03  0.24162711284E+03  0.00000000000E+00 0. -1.
          2   -1    0    0  501    0  0.00000000000E+00 -0.00000000000E+00 -0.10357828146E+04  0.10357828146E+04  0.00000000000E+00 0. -1.
         36    2    1    2    0    0  0.00000000000E+00 -0.71054273576E-14 -0.79415570172E+03  0.12774099274E+04  0.10005462728E+04 0.  0.
         25    2    3    3    0    0 -0.12570259379E+03  0.90203090473E+01 -0.66004336275E+02  0.18972043760E+03  0.12551798267E+03 0.  0.
         35    2    3    3    0    0  0.12570259379E+03 -0.90203090473E+01 -0.72815136544E+03  0.10876894898E+04  0.79811121229E+03 0.  0.
         22    1    5    5    0    0  0.15728197898E+03  0.19944670192E+03 -0.81945963757E+03  0.85792231899E+03  0.00000000000E+00 0.  1.
         22    1    5    5    0    0 -0.31579385182E+02 -0.20846701096E+03  0.91308272123E+02  0.22976717082E+03  0.00000000000E+00 0.  1.
          5    1    4    4  502    0 -0.10006310705E+03  0.60807500041E+02 -0.28275437376E+02  0.12054778228E+03  0.47000000000E+01 0.  1.
         -5    1    4    4    0  502 -0.25639486741E+02 -0.51787190993E+02 -0.37728898899E+02  0.69172655316E+02  0.47000000000E+01 0.  1.
<mgrwt>
<rscale>  0 0.10005463E+04</rscale>
<asrwt>0</asrwt>
<pdfrwt beam="1">  1        2 0.15935120E+00 0.10005463E+04</pdfrwt>
<pdfrwt beam="2">  1       -2 0.37173402E-01 0.10005463E+04</pdfrwt>
<totfact> 0.19695571E+02</totfact>
</mgrwt>
</event>
<event>
 9    1  0.4321150E-036  0.1000547E+04  0.7818608E-02  0.8680517E-01
         -2   -1    0    0    0  501 -0.00000000000E+00  0.00000000000E+00  0.37882217693E+03  0.37882217693E+03  0.00000000000E+00 0.  1.
          2   -1    0    0  501    0  0.00000000000E+00 -0.00000000000E+00 -0.66066301222E+03  0.66066301222E+03  0.00000000000E+00 0.  1.
         36    2    1    2    0    0  0.00000000000E+00  0.00000000000E+00 -0.28184083529E+03  0.10394851891E+04  0.10005474512E+04 0.  0.
         25    2    3    3    0    0  0.51484219751E+00 -0.74511023716E+02 -0.17803768560E+03  0.22934132024E+03  0.12388650434E+03 0.  0.
         35    2    3    3    0    0 -0.51484219751E+00  0.74511023716E+02 -0.10380314969E+03  0.81014386891E+03  0.80000364795E+03 0.  0.
         22    1    5    5    0    0  0.24000695229E+03 -0.15881640022E+03  0.20588390369E+03  0.35385614015E+03  0.00000000000E+00 0. -1.
         22    1    5    5    0    0 -0.24052179448E+03  0.23332742393E+03 -0.30968705338E+03  0.45628772876E+03  0.00000000000E+00 0. -1.
          5    1    4    4  502    0  0.59920767690E+02 -0.44911148268E+02 -0.70941388882E+02  0.10325831829E+03  0.47000000000E+01 0. -1.
         -5    1    4    4    0  502 -0.59405925493E+02 -0.29599875448E+02 -0.10709629672E+03  0.12608300195E+03  0.47000000000E+01 0. -1.
<mgrwt>
<rscale>  0 0.10005475E+04</rscale>
<asrwt>0</asrwt>
<pdfrwt beam="1">  1        2 0.10164046E+00 0.10005475E+04</pdfrwt>
<pdfrwt beam="2">  1       -2 0.58280335E-01 0.10005475E+04</pdfrwt>
<totfact> 0.14682561E+02</totfact>
</mgrwt>
</event>
<event>
 9    1  0.4321150E-036  0.1001079E+04  0.7818608E-02  0.8680011E-01
          1   -1    0    0  501    0  0.00000000000E+00  0.00000000000E+00  0.49732099412E+03  0.49732099412E+03  0.00000000000E+00 0.  1.
         -1   -1    0    0    0  501 -0.00000000000E+00 -0.00000000000E+00 -0.50377882015E+03  0.50377882015E+03  0.00000000000E+00 0.  1.
         36    2    1    2    0    0 -0.56843418861E-13  0.00000000000E+00 -0.64578260293E+01  0.10010998143E+04  0.10010789852E+04 0.  0.
         25    2    3    3    0    0  0.50674520914E+02  0.87724347194E+02  0.95745607197E+02  0.18728496790E+03  0.12507985347E+03 0.  0.
         35    2    3    3    0    0 -0.50674520914E+02 -0.87724347194E+02 -0.10220343323E+03  0.81381484638E+03  0.80099038338E+03 0.  0.
         22    1    5    5    0    0  0.30716199824E+03 -0.18340697057E+03 -0.22612798893E+03  0.42322627210E+03  0.00000000000E+00 0.  1.
         22    1    5    5    0    0 -0.35783651915E+03  0.95682623380E+02  0.12392455570E+03  0.39058857428E+03  0.00000000000E+00 0.  1.
          5    1    4    4  502    0  0.67345519703E+02  0.23437580543E+02  0.97965927550E+00  0.71468796954E+02  0.47000000000E+01 0.  1.
         -5    1    4    4    0  502 -0.16670998790E+02  0.64286766651E+02  0.94765947921E+02  0.11581617095E+03  0.47000000000E+01 0.  1.
<mgrwt>
<rscale>  0 0.10010790E+04</rscale>
<asrwt>0</asrwt>
<pdfrwt beam="1">  1        1 0.76510922E-01 0.10010790E+04</pdfrwt>
<pdfrwt beam="2">  1       -1 0.77504434E-01 0.10010790E+04</pdfrwt>
<totfact> 0.87966109E+01</totfact>
</mgrwt>
</event>
<event>
 9    1  0.4321150E-036  0.1001240E+04  0.7818608E-02  0.8679858E-01
          1   -1    0    0  501    0  0.00000000000E+00  0.00000000000E+00  0.13750119811E+04  0.13750119811E+04  0.00000000000E+00 0.  1.
         -1   -1    0    0    0  501 -0.00000000000E+00 -0.00000000000E+00 -0.18226778374E+03  0.18226778374E+03  0.00000000000E+00 0.  1.
         36    2    1    2    0    0 -0.71054273576E-14 -0.14210854715E-13  0.11927441974E+04  0.15572797649E+04  0.10012400040E+04 0.  0.
         25    2    3    3    0    0 -0.84218436182E+01 -0.31815579532E+02  0.13078072938E+02  0.13191839193E+03  0.12707583400E+03 0.  0.
         35    2    3    3    0    0  0.84218436182E+01  0.31815579532E+02  0.11796661244E+04  0.14253613729E+04  0.79934956042E+03 0.  0.
         22    1    5    5    0    0  0.20576802176E+02  0.25269149709E+03  0.30799397947E+02  0.25539185657E+03  0.00000000000E+00 0.  1.
         22    1    5    5    0    0 -0.12154958558E+02 -0.22087591756E+03  0.11488667265E+04  0.11699695164E+04  0.00000000000E+00 0.  1.
          5    1    4    4  502    0 -0.35564427728E+02 -0.53032113311E+02 -0.34702554453E+02  0.72825756759E+02  0.47000000000E+01 0. -1.
         -5    1    4    4    0  502  0.27142584110E+02  0.21216533780E+02  0.47780627392E+02  0.59092635174E+02  0.47000000000E+01 0. -1.
<mgrwt>
<rscale>  0 0.10012400E+04</rscale>
<asrwt>0</asrwt>
<pdfrwt beam="1">  1        1 0.21154030E+00 0.10012400E+04</pdfrwt>
<pdfrwt beam="2">  1       -1 0.28041198E-01 0.10012400E+04</pdfrwt>
<totfact> 0.10004463E+02</totfact>
</mgrwt>
</event>
<event>
 9    1  0.4321150E-036  0.9910297E+03  0.7818608E-02  0.8689628E-01
          2   -1    0    0  501    0  0.00000000000E+00  0.00000000000E+00  0.17572597878E+04  0.17572597878E+04  0.00000000000E+00 0.  1.
         -2   -1    0    0    0  501 -0.00000000000E+00 -0.00000000000E+00 -0.13972603645E+03  0.13972603645E+03  0.00000000000E+00 0.  1.
         36    2    1    2    0    0  0.71054273576E-14  0.00000000000E+00  0.16175337514E+04  0.18969858243E+04  0.99102965681E+03 0.  0.
         25    2    3    3    0    0  0.48844073386E+02 -0.12014217438E+03  0.31805647829E+03  0.36684016286E+03  0.12880953433E+03 0.  0.
         35    2    3    3    0    0 -0.48844073386E+02  0.12014217438E+03  0.12994772731E+04  0.15301456614E+04  0.79742377462E+03 0.  0.
         22    1    5    5    0    0  0.23974408643E+03  0.15595262619E+03  0.11129659783E+03  0.30689636897E+03  0.00000000000E+00 0. -1.
         22    1    5    5    0    0 -0.28858815982E+03 -0.35810451815E+02  0.11881806752E+04  0.12232492924E+04  0.00000000000E+00 0. -1.
          5    1    4    4  502    0  0.85229482417E+02 -0.59348093693E+02  0.23867791673E+03  0.26033727899E+03  0.47000000000E+01 0. -1.
         -5    1    4    4    0  502 -0.36385409032E+02 -0.60794080682E+02  0.79378561553E+02  0.10650288386E+03  0.47000000000E+01 0. -1.
<mgrwt>
<rscale>  0 0.99102966E+03</rscale>
<asrwt>0</asrwt>
<pdfrwt beam="1">  1        2 0.27034764E+00 0.99102966E+03</pdfrwt>
<pdfrwt beam="2">  1       -2 0.21496315E-01 0.99102966E+03</pdfrwt>
<totfact> 0.20293225E+02</totfact>
</mgrwt>
</event>
<event>
 9    1  0.4321150E-036  0.1000626E+04  0.7818608E-02  0.8680442E-01
         -1   -1    0    0    0  501 -0.00000000000E+00  0.00000000000E+00  0.15985617887E+03  0.15985617887E+03  0.00000000000E+00 0. -1.
          1   -1    0    0  501    0  0.00000000000E+00 -0.00000000000E+00 -0.15658632499E+04  0.15658632499E+04  0.00000000000E+00 0. -1.
         36    2    1    2    0    0 -0.28421709430E-13  0.14210854715E-13 -0.14060070710E+04  0.17257194288E+04  0.10006256358E+04 0.  0.
         25    2    3    3    0    0 -0.83474287105E+02 -0.75849567611E+01 -0.72161539676E+02  0.16799150036E+03  0.12644511935E+03 0.  0.
         35    2    3    3    0    0  0.83474287105E+02  0.75849567611E+01 -0.13338455314E+04  0.15577279284E+04  0.80021678893E+03 0.  0.
         22    1    5    5    0    0 -0.26331943131E+03 -0.22900205129E+03 -0.83972378542E+03  0.90934872200E+03  0.00000000000E+00 0.  1.
         22    1    5    5    0    0  0.34679371841E+03  0.23658700806E+03 -0.49412174594E+03  0.64837920643E+03  0.00000000000E+00 0.  1.
          5    1    4    4  502    0  0.48208655980E+01 -0.32869750501E+02  0.18951740330E+02  0.38534655891E+02  0.47000000000E+01 0.  1.
         -5    1    4    4    0  502 -0.88295152703E+02  0.25284793739E+02 -0.91113280006E+02  0.12945684446E+03  0.47000000000E+01 0.  1.
<mgrwt>
<rscale>  0 0.10006256E+04</rscale>
<asrwt>0</asrwt>
<pdfrwt beam="1">  1        1 0.24090205E+00 0.10006256E+04</pdfrwt>
<pdfrwt beam="2">  1       -1 0.24593257E-01 0.10006256E+04</pdfrwt>
<totfact> 0.91204042E+01</totfact>
</mgrwt>
</event>
<event>
 9    1  0.4321150E-036  0.1000458E+04  0.7818608E-02  0.8680602E-01
          1   -1    0    0  501    0  0.00000000000E+00  0.00000000000E+00  0.31817804392E+03  0.31817804392E+03  0.00000000000E+00 0.  1.
         -1   -1    0    0    0  501 -0.00000000000E+00 -0.00000000000E+00 -0.78644368484E+03  0.78644368484E+03  0.00000000000E+00 0.  1.
         36    2    1    2    0    0  0.14210854715E-13  0.71054273576E-14 -0.46826564091E+03  0.11046217288E+04  0.10004581217E+04 0.  0.
         25    2    3    3    0    0  0.92063240714E+02 -0.34058552130E+02  0.16858856126E+02  0.16006028761E+03  0.12529744362E+03 0.  0.
         35    2    3    3    0    0 -0.92063240714E+02  0.34058552130E+02 -0.48512449704E+03  0.94456144115E+03  0.80449668316E+03 0.  0.
         22    1    5    5    0    0 -0.35324581154E+03 -0.91896746384E+02  0.16260346805E+02  0.36536558985E+03  0.00000000000E+00 0. -1.
         22    1    5    5    0    0  0.26118257083E+03  0.12595529851E+03 -0.50138484385E+03  0.57919585130E+03  0.00000000000E+00 0. -1.
          5    1    4    4  502    0 -0.31822352785E+01  0.25400575889E+02  0.37653183590E+02  0.45773006361E+02  0.47000000000E+01 0.  1.
         -5    1    4    4    0  502  0.95245475992E+02 -0.59459128019E+02 -0.20794327463E+02  0.11428728125E+03  0.47000000000E+01 0.  1.
<mgrwt>
<rscale>  0 0.10004581E+04</rscale>
<asrwt>0</asrwt>
<pdfrwt beam="1">  1        1 0.48950468E-01 0.10004581E+04</pdfrwt>
<pdfrwt beam="2">  1       -1 0.12099134E+00 0.10004581E+04</pdfrwt>
<totfact> 0.59182433E+01</totfact>
</mgrwt>
</event>
<event>
 9    1  0.4321150E-036  0.1000989E+04  0.7818608E-02  0.8680096E-01
         -1   -1    0    0    0  501 -0.00000000000E+00  0.00000000000E+00  0.30838841364E+03  0.30838841364E+03  0.00000000000E+00 0. -1.
          1   -1    0    0  501    0  0.00000000000E+00 -0.00000000000E+00 -0.81227103049E+03  0.81227103049E+03  0.00000000000E+00 0. -1.
         36    2    1    2    0    0 -0.71054273576E-14 -0.17763568394E-13 -0.50388261685E+03  0.11206594441E+04  0.10009894596E+04 0.  0.
         25    2    3    3    0    0  0.21905662713E+02 -0.55340812367E+01 -0.25183623116E+03  0.28254054564E+03  0.12608405327E+03 0.  0.
         35    2    3    3    0    0 -0.21905662713E+02  0.55340812367E+01 -0.25204638569E+03  0.83811889850E+03  0.79900276806E+03 0.  0.
         22    1    5    5    0    0  0.22042243595E+03 -0.31803287928E+03 -0.63754305300E+02  0.39216778809E+03  0.00000000000E+00 0.  1.
         22    1    5    5    0    0 -0.24232809866E+03  0.32356696052E+03 -0.18829208039E+03  0.44595111041E+03  0.00000000000E+00 0.  1.
          5    1    4    4  502    0  0.68246571211E+02  0.21955822274E+02 -0.11748854876E+03  0.13771456605E+03  0.47000000000E+01 0.  1.
         -5    1    4    4    0  502 -0.46340908498E+02 -0.27489903510E+02 -0.13434768240E+03  0.14482597959E+03  0.47000000000E+01 0.  1.
<mgrwt>
<rscale>  0 0.10009895E+04</rscale>
<asrwt>0</asrwt>
<pdfrwt beam="1">  1        1 0.12496477E+00 0.10009895E+04</pdfrwt>
<pdfrwt beam="2">  1       -1 0.47444371E-01 0.10009895E+04</pdfrwt>
<totfact> 0.10881119E+02</totfact>
</mgrwt>
</event>
<event>
 9    1  0.4321150E-036  0.9997379E+03  0.7818608E-02  0.8681288E-01
          2   -1    0    0  501    0  0.00000000000E+00  0.00000000000E+00  0.29630713747E+03  0.29630713747E+03  0.00000000000E+00 0.  1.
         -2   -1    0    0    0  501 -0.00000000000E+00 -0.00000000000E+00 -0.84327691598E+03  0.84327691598E+03  0.00000000000E+00 0.  1.
         36    2    1    2    0    0 -0.28421709430E-13  0.00000000000E+00 -0.54696977852E+03  0.11395840534E+04  0.99973790379E+03 0.  0.
         25    2    3    3    0    0 -0.12326946550E+03 -0.34572946606E+02 -0.36512599092E+02  0.18266087013E+03  0.12506467857E+03 0.  0.
         35    2    3    3    0    0  0.12326946550E+03  0.34572946606E+02 -0.51045717943E+03  0.95692318332E+03  0.79921511308E+03 0.  0.
         22    1    5    5    0    0  0.22698212921E+03  0.22202192373E+03  0.81153363420E+02  0.32772013974E+03  0.00000000000E+00 0.  1.
         22    1    5    5    0    0 -0.10371266372E+03 -0.18744897712E+03 -0.59161054285E+03  0.62920304358E+03  0.00000000000E+00 0.  1.
          5    1    4    4  502    0 -0.12279099170E+03 -0.41549292385E+02 -0.70506192097E+02  0.14763869569E+03  0.47000000000E+01 0. -1.
         -5    1    4    4    0  502 -0.47847379854E+00  0.69763457792E+01  0.33993593005E+02  0.35022174447E+02  0.47000000000E+01 0. -1.
<mgrwt>
<rscale>  0 0.99973790E+03</rscale>
<asrwt>0</asrwt>
<pdfrwt beam="1">  1        2 0.45585713E-01 0.99973790E+03</pdfrwt>
<pdfrwt beam="2">  1       -2 0.12973491E+00 0.99973790E+03</pdfrwt>
<totfact> 0.56131772E+01</totfact>
</mgrwt>
</event>
<event>
 9    1  0.4321150E-036  0.1001558E+04  0.7818608E-02  0.8679556E-01
         -1   -1    0    0    0  501 -0.00000000000E+00  0.00000000000E+00  0.17031492211E+03  0.17031492211E+03  0.00000000000E+00 0.  1.
          1   -1    0    0  501    0  0.00000000000E+00 -0.00000000000E+00 -0.14724456382E+04  0.14724456382E+04  0.00000000000E+00 0.  1.
         36    2    1    2    0    0 -0.44408920985E-13  0.00000000000E+00 -0.13021307161E+04  0.16427605603E+04  0.10015577151E+04 0.  0.
         25    2    3    3    0    0  0.52591186279E+01  0.83424342372E+02 -0.57339969250E+02  0.16068766774E+03  0.12468109424E+03 0.  0.
         35    2    3    3    0    0 -0.52591186279E+01 -0.83424342372E+02 -0.12447907468E+04  0.14820728925E+04  0.80003048456E+03 0.  0.
         22    1    5    5    0    0  0.37754435891E+03 -0.16647808677E+03 -0.64735948419E+03  0.76767766549E+03  0.00000000000E+00 0.  1.
         22    1    5    5    0    0 -0.38280347754E+03  0.83053744395E+02 -0.59743126262E+03  0.71439522705E+03  0.00000000000E+00 0.  1.
          5    1    4    4  502    0  0.11352409591E+02 -0.26002599600E+02 -0.40549658992E+02  0.49712948351E+02  0.47000000000E+01 0.  1.
         -5    1    4    4    0  502 -0.60932909629E+01  0.10942694197E+03 -0.16790310258E+02  0.11097471938E+03  0.47000000000E+01 0.  1.
<mgrwt>
<rscale>  0 0.10015577E+04</rscale>
<asrwt>0</asrwt>
<pdfrwt beam="1">  1        1 0.22653011E+00 0.10015577E+04</pdfrwt>
<pdfrwt beam="2">  1       -1 0.26202295E-01 0.10015577E+04</pdfrwt>
<totfact> 0.95529259E+01</totfact>
</mgrwt>
</event>
<event>
 9    1  0.4321150E-036  0.9984258E+03  0.7818608E-02  0.8682538E-01
          1   -1    0    0  501    0  0.00000000000E+00  0.00000000000E+00  0.40510408274E+03  0.40510408274E+03  0.00000000000E+00 0.  1.
         -1   -1    0    0    0  501 -0.00000000000E+00 -0.00000000000E+00 -0.61518395595E+03  0.61518395595E+03  0.00000000000E+00 0.  1.
         36    2    1    2    0    0  0.00000000000E+00 -0.71054273576E-14 -0.21007987321E+03  0.10202880387E+04  0.99842582538E+03 0.  0.
         25    2    3    3    0    0 -0.32927879726E+02  0.15535641444E+00  0.98325807228E+02  0.16223159043E+03  0.12476720389E+03 0.  0.
         35    2    3    3    0    0  0.32927879726E+02 -0.15535641444E+00 -0.30840568044E+03  0.85805644827E+03  0.80003908360E+03 0.  0.
         22    1    5    5    0    0 -0.15019096535E+03 -0.33224629100E+03 -0.31035966188E+03  0.47881942701E+03  0.00000000000E+00 0. -1.
         22    1    5    5    0    0  0.18311884508E+03  0.33209093458E+03  0.19539814424E+01  0.37923702127E+03  0.00000000000E+00 0. -1.
          5    1    4    4  502    0  0.83546173155E+01 -0.32650832565E+02 -0.14971033820E+02  0.37176583373E+02  0.47000000000E+01 0. -1.
         -5    1    4    4    0  502 -0.41282497041E+02  0.32806188979E+02  0.11329684105E+03  0.12505500705E+03  0.47000000000E+01 0. -1.
<mgrwt>
<rscale>  0 0.99842583E+03</rscale>
<asrwt>0</asrwt>
<pdfrwt beam="1">  1        1 0.62323705E-01 0.99842583E+03</pdfrwt>
<pdfrwt beam="2">  1       -1 0.94643686E-01 0.99842583E+03</pdfrwt>
<totfact> 0.76085325E+01</totfact>
</mgrwt>
</event>
<event>
 9    1  0.4321150E-036  0.9982495E+03  0.7818608E-02  0.8682707E-01
         -2   -1    0    0    0  501 -0.00000000000E+00  0.00000000000E+00  0.33594961615E+03  0.33594961615E+03  0.00000000000E+00 0. -1.
          2   -1    0    0  501    0  0.00000000000E+00 -0.00000000000E+00 -0.74155621030E+03  0.74155621030E+03  0.00000000000E+00 0. -1.
         36    2    1    2    0    0  0.71054273576E-14 -0.28421709430E-13 -0.40560659414E+03  0.10775058265E+04  0.99824951632E+03 0.  0.
         25    2    3    3    0    0 -0.21748887643E+02  0.10105349462E+03  0.23630623848E+02  0.16373618962E+03  0.12476502122E+03 0.  0.
         35    2    3    3    0    0  0.21748887643E+02 -0.10105349462E+03 -0.42923721799E+03  0.91376963683E+03  0.80002846012E+03 0.  0.
         22    1    5    5    0    0  0.20058990437E+03 -0.30592014069E+03 -0.51222576720E+03  0.62944314978E+03  0.00000000000E+00 0.  1.
         22    1    5    5    0    0 -0.17884101673E+03  0.20486664608E+03  0.82988549208E+02  0.28432648705E+03  0.00000000000E+00 0.  1.
          5    1    4    4  502    0  0.82484202954E+00  0.24886774627E+02 -0.49530542315E+02  0.55636287957E+02  0.47000000000E+01 0. -1.
         -5    1    4    4    0  502 -0.22573729672E+02  0.76166719992E+02  0.73161166163E+02  0.10809990166E+03  0.47000000000E+01 0. -1.
<mgrwt>
<rscale>  0 0.99824952E+03</rscale>
<asrwt>0</asrwt>
<pdfrwt beam="1">  1        2 0.11408557E+00 0.99824952E+03</pdfrwt>
<pdfrwt beam="2">  1       -2 0.51684558E-01 0.99824952E+03</pdfrwt>
<totfact> 0.16284634E+02</totfact>
</mgrwt>
</event>
<event>
 9    1  0.4321150E-036  0.1000320E+04  0.7818608E-02  0.8680733E-01
          2   -1    0    0  501    0  0.00000000000E+00  0.00000000000E+00  0.83357990070E+03  0.83357990070E+03  0.00000000000E+00 0.  1.
         -2   -1    0    0    0  501 -0.00000000000E+00 -0.00000000000E+00 -0.30010339041E+03  0.30010339041E+03  0.00000000000E+00 0.  1.
         36    2    1    2    0    0  0.00000000000E+00 -0.28421709430E-13  0.53347651029E+03  0.11336832911E+04  0.10003202575E+04 0.  0.
         25    2    3    3    0    0 -0.31223070643E+02 -0.11818452939E+03  0.25477515133E+02  0.17647394258E+03  0.12470559532E+03 0.  0.
         35    2    3    3    0    0  0.31223070643E+02  0.11818452939E+03  0.50799899515E+03  0.95720934853E+03  0.80202512099E+03 0.  0.
         22    1    5    5    0    0  0.63810122248E+02  0.27979865259E+03  0.66826631668E+03  0.72728184887E+03  0.00000000000E+00 0.  1.
         22    1    5    5    0    0 -0.32587051605E+02 -0.16161412319E+03 -0.16026732153E+03  0.22992749965E+03  0.00000000000E+00 0.  1.
          5    1    4    4  502    0 -0.34253168220E+02 -0.14329094728E+03  0.13260433330E+02  0.14799832498E+03  0.47000000000E+01 0.  1.
         -5    1    4    4    0  502  0.30300975764E+01  0.25106417880E+02  0.12217081803E+02  0.28475617603E+02  0.47000000000E+01 0.  1.
<mgrwt>
<rscale>  0 0.10003203E+04</rscale>
<asrwt>0</asrwt>
<pdfrwt beam="1">  1        2 0.12824306E+00 0.10003203E+04</pdfrwt>
<pdfrwt beam="2">  1       -2 0.46169753E-01 0.10003203E+04</pdfrwt>
<totfact> 0.17545168E+02</totfact>
</mgrwt>
</event>
<event>
 9    1  0.4321150E-036  0.9988824E+03  0.7818608E-02  0.8682103E-01
         -2   -1    0    0    0  501 -0.00000000000E+00  0.00000000000E+00  0.83870253905E+02  0.83870253905E+02  0.00000000000E+00 0.  1.
          2   -1    0    0  501    0  0.00000000000E+00 -0.00000000000E+00 -0.29741357588E+04  0.29741357588E+04  0.00000000000E+00 0.  1.
         36    2    1    2    0    0 -0.14210854715E-13  0.00000000000E+00 -0.28902655049E+04  0.30580060127E+04  0.99888241798E+03 0.  0.
         25    2    3    3    0    0 -0.10082884617E+02  0.11151695913E+03 -0.29063362349E+03  0.33567060969E+03  0.12517650887E+03 0.  0.
         35    2    3    3    0    0  0.10082884617E+02 -0.11151695913E+03 -0.25996318814E+04  0.27223354030E+04  0.80030396159E+03 0.  0.
         22    1    5    5    0    0 -0.32002818287E+03 -0.19454438714E+03 -0.19823776060E+04  0.20174455455E+04  0.00000000000E+00 0. -1.
         22    1    5    5    0    0  0.33011106749E+03  0.83027428011E+02 -0.61725427542E+03  0.70488985750E+03  0.00000000000E+00 0. -1.
          5    1    4    4  502    0 -0.57831248295E+02  0.62444895471E+02 -0.91548080749E+02  0.12508780651E+03  0.47000000000E+01 0.  1.
         -5    1    4    4    0  502  0.47748363679E+02  0.49072063660E+02 -0.19908554274E+03  0.21058280318E+03  0.47000000000E+01 0.  1.
<mgrwt>
<rscale>  0 0.99888242E+03</rscale>
<asrwt>0</asrwt>
<pdfrwt beam="1">  1        2 0.45755938E+00 0.99888242E+03</pdfrwt>
<pdfrwt beam="2">  1       -2 0.12903115E-01 0.99888242E+03</pdfrwt>
<totfact> 0.89479873E+01</totfact>
</mgrwt>
</event>
<event>
 9    1  0.4321150E-036  0.1000296E+04  0.7818608E-02  0.8680756E-01
         -2   -1    0    0    0  501 -0.00000000000E+00  0.00000000000E+00  0.17457589113E+03  0.17457589113E+03  0.00000000000E+00 0.  1.
          2   -1    0    0  501    0  0.00000000000E+00 -0.00000000000E+00 -0.14328900310E+04  0.14328900310E+04  0.00000000000E+00 0.  1.
         36    2    1    2    0    0 -0.14210854715E-13 -0.14210854715E-13 -0.12583141398E+04  0.16074659221E+04  0.10002960643E+04 0.  0.
         25    2    3    3    0    0  0.98750775683E+02 -0.38545933436E+02 -0.95327460356E+02  0.19143202895E+03  0.12775520470E+03 0.  0.
         35    2    3    3    0    0 -0.98750775683E+02  0.38545933436E+02 -0.11629866795E+04  0.14160338931E+04  0.80085982868E+03 0.  0.
         22    1    5    5    0    0 -0.29736497463E+03 -0.29495363513E+03 -0.57115002347E+03  0.70826260972E+03  0.00000000000E+00 0. -1.
         22    1    5    5    0    0  0.19861419894E+03  0.33349956856E+03 -0.59183665599E+03  0.70777128342E+03  0.00000000000E+00 0. -1.
          5    1    4    4  502    0 -0.79961062749E+01  0.28915543829E+02 -0.47380950654E+02  0.56276912454E+02  0.47000000000E+01 0.  1.
         -5    1    4    4    0  502  0.10674688196E+03 -0.67461477265E+02 -0.47946509702E+02  0.13515511650E+03  0.47000000000E+01 0.  1.
<mgrwt>
<rscale>  0 0.10002961E+04</rscale>
<asrwt>0</asrwt>
<pdfrwt beam="1">  1        2 0.22044463E+00 0.10002961E+04</pdfrwt>
<pdfrwt beam="2">  1       -2 0.26857828E-01 0.10002961E+04</pdfrwt>
<totfact> 0.20879959E+02</totfact>
</mgrwt>
</event>
<event>
 9    1  0.4321150E-036  0.1000821E+04  0.7818608E-02  0.8680257E-01
          2   -1    0    0  501    0  0.00000000000E+00  0.00000000000E+00  0.10564474802E+04  0.10564474802E+04  0.00000000000E+00 0. -1.
         -2   -1    0    0    0  501 -0.00000000000E+00 -0.00000000000E+00 -0.23703074295E+03  0.23703074295E+03  0.00000000000E+00 0. -1.
         36    2    1    2    0    0 -0.14210854715E-13  0.00000000000E+00  0.81941673729E+03  0.12934782232E+04  0.10008207255E+04 0.  0.
         25    2    3    3    0    0  0.97683641210E+02 -0.64207937516E+02  0.52507009293E+02  0.17846878496E+03  0.12421500787E+03 0.  0.
         35    2    3    3    0    0 -0.97683641210E+02  0.64207937516E+02  0.76690972800E+03  0.11150094382E+04  0.80089372792E+03 0.  0.
         22    1    5    5    0    0  0.46199783530E+02  0.42154492484E+03  0.39338870935E+03  0.57843687668E+03  0.00000000000E+00 0.  1.
         22    1    5    5    0    0 -0.14388342474E+03 -0.35733698733E+03  0.37352101865E+03  0.53657256154E+03  0.00000000000E+00 0.  1.
          5    1    4    4  502    0  0.11190043844E+03 -0.86597819424E+02  0.33443291286E+02  0.14546970195E+03  0.47000000000E+01 0. -1.
         -5    1    4    4    0  502 -0.14216797233E+02  0.22389881908E+02  0.19063718008E+02  0.32999083013E+02  0.47000000000E+01 0. -1.
<mgrwt>
<rscale>  0 0.10008207E+04</rscale>
<asrwt>0</asrwt>
<pdfrwt beam="1">  1        2 0.16253038E+00 0.10008207E+04</pdfrwt>
<pdfrwt beam="2">  1       -2 0.36466269E-01 0.10008207E+04</pdfrwt>
<totfact> 0.19829630E+02</totfact>
</mgrwt>
</event>
<event>
 9    1  0.4321150E-036  0.9995217E+03  0.7818608E-02  0.8681494E-01
         -2   -1    0    0    0  501 -0.00000000000E+00  0.00000000000E+00  0.69129583133E+03  0.69129583133E+03  0.00000000000E+00 0.  1.
          2   -1    0    0  501    0  0.00000000000E+00 -0.00000000000E+00 -0.36129380405E+03  0.36129380405E+03  0.00000000000E+00 0.  1.
         36    2    1    2    0    0  0.14210854715E-13  0.42632564146E-13  0.33000202728E+03  0.10525896354E+04  0.99952168686E+03 0.  0.
         25    2    3    3    0    0 -0.64232965984E+02 -0.10839997593E+03 -0.13292361735E+01  0.17739164130E+03  0.12485831504E+03 0.  0.
         35    2    3    3    0    0  0.64232965984E+02  0.10839997593E+03  0.33133126346E+03  0.87519799408E+03  0.80019665958E+03 0.  0.
         22    1    5    5    0    0 -0.11990393071E+03 -0.15140718568E+03  0.48468873751E+03  0.52175114829E+03  0.00000000000E+00 0.  1.
         22    1    5    5    0    0  0.18413689669E+03  0.25980716161E+03 -0.15335747405E+03  0.35344684579E+03  0.00000000000E+00 0.  1.
          5    1    4    4  502    0 -0.39328410286E+02  0.21237562675E+02 -0.52047826175E+01  0.45243095452E+02  0.47000000000E+01 0.  1.
         -5    1    4    4    0  502 -0.24904555699E+02 -0.12963753861E+03  0.38755464440E+01  0.13214854585E+03  0.47000000000E+01 0.  1.
<mgrwt>
<rscale>  0 0.99952169E+03</rscale>
<asrwt>0</asrwt>
<pdfrwt beam="1">  1        2 0.55583662E-01 0.99952169E+03</pdfrwt>
<pdfrwt beam="2">  1       -2 0.10635320E+00 0.99952169E+03</pdfrwt>
<totfact> 0.75149357E+01</totfact>
</mgrwt>
</event>
<event>
 9    1  0.4321150E-036  0.1000291E+04  0.7818608E-02  0.8680761E-01
         -2   -1    0    0    0  501 -0.00000000000E+00  0.00000000000E+00  0.19655599350E+03  0.19655599350E+03  0.00000000000E+00 0. -1.
          2   -1    0    0  501    0  0.00000000000E+00 -0.00000000000E+00 -0.12726427958E+04  0.12726427958E+04  0.00000000000E+00 0. -1.
         36    2    1    2    0    0 -0.35527136788E-14  0.00000000000E+00 -0.10760868023E+04  0.14691987893E+04  0.10002910958E+04 0.  0.
         25    2    3    3    0    0 -0.11065698093E+02  0.12845870716E+03 -0.12055452355E+03  0.21636332364E+03  0.12512236230E+03 0.  0.
         35    2    3    3    0    0  0.11065698093E+02 -0.12845870716E+03 -0.95553227876E+03  0.12528354657E+04  0.79995667331E+03 0.  0.
         22    1    5    5    0    0  0.21037254016E+02 -0.37600238930E+03 -0.93051401341E+03  0.10038310077E+04  0.00000000000E+00 0. -1.
         22    1    5    5    0    0 -0.99715559231E+01  0.24754368214E+03 -0.25018265343E+02  0.24900445799E+03  0.00000000000E+00 0. -1.
          5    1    4    4  502    0 -0.36852590245E+02  0.53515435439E+02  0.76202040974E+01  0.65590950203E+02  0.47000000000E+01 0.  1.
         -5    1    4    4    0  502  0.25786892152E+02  0.74943271717E+02 -0.12817472765E+03  0.15077237343E+03  0.47000000000E+01 0.  1.
<mgrwt>
<rscale>  0 0.10002911E+04</rscale>
<asrwt>0</asrwt>
<pdfrwt beam="1">  1        2 0.19579121E+00 0.10002911E+04</pdfrwt>
<pdfrwt beam="2">  1       -2 0.30239382E-01 0.10002911E+04</pdfrwt>
<totfact> 0.20834780E+02</totfact>
</mgrwt>
</event>
<event>
 9    1  0.4321150E-036  0.9998518E+03  0.7818608E-02  0.8681179E-01
         -2   -1    0    0    0  501 -0.00000000000E+00  0.00000000000E+00  0.12067396620E+03  0.12067396620E+03  0.00000000000E+00 0.  1.
          2   -1    0    0  501    0  0.00000000000E+00 -0.00000000000E+00 -0.20710840119E+04  0.20710840119E+04  0.00000000000E+00 0.  1.
         36    2    1    2    0    0  0.00000000000E+00  0.14210854715E-13 -0.19504100457E+04  0.21917579781E+04  0.99985183313E+03 0.  0.
         25    2    3    3    0    0 -0.10595901773E+03  0.13582022068E+02 -0.56853487826E+03  0.59137019874E+03  0.12278037056E+03 0.  0.
         35    2    3    3    0    0  0.10595901773E+03 -0.13582022068E+02 -0.13818751675E+04  0.16003877794E+04  0.80015641046E+03 0.  0.
         22    1    5    5    0    0  0.18866168829E+02  0.37443159145E+03 -0.44035862279E+03  0.57833438915E+03  0.00000000000E+00 0.  1.
         22    1    5    5    0    0  0.87092848904E+02 -0.38801361352E+03 -0.94151654467E+03  0.10220533902E+04  0.00000000000E+00 0.  1.
          5    1    4    4  502    0 -0.43646284944E+02  0.34546036392E+02 -0.46692346622E+03  0.47025316599E+03  0.47000000000E+01 0. -1.
         -5    1    4    4    0  502 -0.62312732790E+02 -0.20964014324E+02 -0.10161141205E+03  0.12111703275E+03  0.47000000000E+01 0. -1.
<mgrwt>
<rscale>  0 0.99985183E+03</rscale>
<asrwt>0</asrwt>
<pdfrwt beam="1">  1        2 0.31862830E+00 0.99985183E+03</pdfrwt>
<pdfrwt beam="2">  1       -2 0.18565226E-01 0.99985183E+03</pdfrwt>
<totfact> 0.17355781E+02</totfact>
</mgrwt>
</event>
<event>
 9    1  0.4321150E-036  0.9986797E+03  0.7818608E-02  0.8682296E-01
         -2   -1    0    0    0  501 -0.00000000000E+00  0.00000000000E+00  0.22012174755E+03  0.22012174755E+03  0.00000000000E+00 0.  1.
          2   -1    0    0  501    0  0.00000000000E+00 -0.00000000000E+00 -0.11327380159E+04  0.11327380159E+04  0.00000000000E+00 0.  1.
         36    2    1    2    0    0  0.28421709430E-13  0.14210854715E-13 -0.91261626839E+03  0.13528597635E+04  0.99867967155E+03 0.  0.
         25    2    3    3    0    0 -0.73451266110E+02  0.97092696949E+02 -0.26590732515E+03  0.31788028125E+03  0.12457562902E+03 0.  0.
         35    2    3    3    0    0  0.73451266110E+02 -0.97092696949E+02 -0.64670894324E+03  0.10349794822E+04  0.79882913762E+03 0.  0.
         22    1    5    5    0    0 -0.17746019035E+03 -0.28152716566E+03 -0.17882753046E+02  0.33327084634E+03  0.00000000000E+00 0.  1.
         22    1    5    5    0    0  0.25091145646E+03  0.18443446871E+03 -0.62882619019E+03  0.70170863590E+03  0.00000000000E+00 0.  1.
          5    1    4    4  502    0 -0.45338146331E+02  0.19219913568E+01 -0.18264261064E+03  0.18825422913E+03  0.47000000000E+01 0. -1.
         -5    1    4    4    0  502 -0.28113119779E+02  0.95170705592E+02 -0.83264714508E+02  0.12962605212E+03  0.47000000000E+01 0. -1.
<mgrwt>
<rscale>  0 0.99867967E+03</rscale>
<asrwt>0</asrwt>
<pdfrwt beam="1">  1        2 0.17426739E+00 0.99867967E+03</pdfrwt>
<pdfrwt beam="2">  1       -2 0.33864884E-01 0.99867967E+03</pdfrwt>
<totfact> 0.20464248E+02</totfact>
</mgrwt>
</event>
<event>
 9    1  0.4321150E-036  0.9999520E+03  0.7818608E-02  0.8681084E-01
          2   -1    0    0  501    0  0.00000000000E+00  0.00000000000E+00  0.62776400938E+03  0.62776400938E+03  0.00000000000E+00 0.  1.
         -2   -1    0    0    0  501 -0.00000000000E+00 -0.00000000000E+00 -0.39820062168E+03  0.39820062168E+03  0.00000000000E+00 0.  1.
         36    2    1    2    0    0  0.28421709430E-13 -0.21316282073E-13  0.22956338770E+03  0.10259646311E+04  0.99995203646E+03 0.  0.
         25    2    3    3    0    0  0.13517833312E+03  0.57842390874E+01  0.87973740142E+01  0.18516723842E+03  0.12610659470E+03 0.  0.
         35    2    3    3    0    0 -0.13517833312E+03 -0.57842390874E+01  0.22076601369E+03  0.84079739264E+03  0.79993498704E+03 0.  0.
         22    1    5    5    0    0 -0.19806127334E+03 -0.37549333352E+03  0.18818049504E+03  0.46436559975E+03  0.00000000000E+00 0. -1.
         22    1    5    5    0    0  0.62882940220E+02  0.36970909443E+03  0.32585518649E+02  0.37643179289E+03  0.00000000000E+00 0. -1.
          5    1    4    4  502    0  0.14009130242E+03 -0.31734519784E+02  0.20750195187E+02  0.14520782816E+03  0.47000000000E+01 0. -1.
         -5    1    4    4    0  502 -0.49129692938E+01  0.37518758871E+02 -0.11952821173E+02  0.39959410262E+02  0.47000000000E+01 0. -1.
<mgrwt>
<rscale>  0 0.99995204E+03</rscale>
<asrwt>0</asrwt>
<pdfrwt beam="1">  1        2 0.96579079E-01 0.99995204E+03</pdfrwt>
<pdfrwt beam="2">  1       -2 0.61261634E-01 0.99995204E+03</pdfrwt>
<totfact> 0.14072534E+02</totfact>
</mgrwt>
</event>
<event>
 9    1  0.4321150E-036  0.9998962E+03  0.7818608E-02  0.8681137E-01
          1   -1    0    0  501    0  0.00000000000E+00  0.00000000000E+00  0.23905185518E+04  0.23905185518E+04  0.00000000000E+00 0.  1.
         -1   -1    0    0    0  501 -0.00000000000E+00 -0.00000000000E+00 -0.10455811699E+03  0.10455811699E+03  0.00000000000E+00 0.  1.
         36    2    1    2    0    0 -0.35527136788E-14 -0.42632564146E-13  0.22859604348E+04  0.24950766688E+04  0.99989623144E+03 0.  0.
         25    2    3    3    0    0  0.41196520155E+01 -0.10233085999E+03  0.19038574077E+03  0.24978409087E+03  0.12512707670E+03 0.  0.
         35    2    3    3    0    0 -0.41196520155E+01  0.10233085999E+03  0.20955746940E+04  0.22452925779E+04  0.79963547055E+03 0.  0.
         22    1    5    5    0    0  0.27841990787E+02 -0.15886274349E+03  0.19249045187E+04  0.19316495422E+04  0.00000000000E+00 0.  1.
         22    1    5    5    0    0 -0.31961642803E+02  0.26119360348E+03  0.17067017531E+03  0.31364303571E+03  0.00000000000E+00 0.  1.
          5    1    4    4  502    0  0.45930676072E+02 -0.63317600611E+02  0.17285303522E+03  0.18978674173E+03  0.47000000000E+01 0.  1.
         -5    1    4    4    0  502 -0.41811024057E+02 -0.39013259376E+02  0.17532705556E+02  0.59997349141E+02  0.47000000000E+01 0.  1.
<mgrwt>
<rscale>  0 0.99989623E+03</rscale>
<asrwt>0</asrwt>
<pdfrwt beam="1">  1        1 0.36777204E+00 0.99989623E+03</pdfrwt>
<pdfrwt beam="2">  1       -1 0.16085866E-01 0.99989623E+03</pdfrwt>
<totfact> 0.48401092E+01</totfact>
</mgrwt>
</event>
<event>
 9    1  0.4321150E-036  0.9999883E+03  0.7818608E-02  0.8681049E-01
         -2   -1    0    0    0  501 -0.00000000000E+00  0.00000000000E+00  0.28255166444E+03  0.28255166444E+03  0.00000000000E+00 0. -1.
          2   -1    0    0  501    0  0.00000000000E+00 -0.00000000000E+00 -0.88477320889E+03  0.88477320889E+03  0.00000000000E+00 0. -1.
         36    2    1    2    0    0 -0.14210854715E-13 -0.28421709430E-13 -0.60222154445E+03  0.11673248733E+04  0.99998828559E+03 0.  0.
         25    2    3    3    0    0  0.77256590765E+02  0.11275781924E+03 -0.78544446486E+02  0.20144965968E+03  0.12541861383E+03 0.  0.
         35    2    3    3    0    0 -0.77256590765E+02 -0.11275781924E+03 -0.52367709797E+03  0.96587521366E+03  0.79999644924E+03 0.  0.
         22    1    5    5    0    0 -0.38082909414E+03 -0.15363317089E+03 -0.67145063096E+02  0.41610384478E+03  0.00000000000E+00 0.  1.
         22    1    5    5    0    0  0.30357250337E+03  0.40875351649E+02 -0.45653203487E+03  0.54977136888E+03  0.00000000000E+00 0.  1.
          5    1    4    4  502    0 -0.11901285560E+02 -0.19899151856E+02 -0.85781064388E+00  0.23673670642E+02  0.47000000000E+01 0. -1.
         -5    1    4    4    0  502  0.89157876325E+02  0.13265697109E+03 -0.77686635842E+02  0.17777598904E+03  0.47000000000E+01 0. -1.
<mgrwt>
<rscale>  0 0.99998829E+03</rscale>
<asrwt>0</asrwt>
<pdfrwt beam="1">  1        2 0.13611895E+00 0.99998829E+03</pdfrwt>
<pdfrwt beam="2">  1       -2 0.43469487E-01 0.99998829E+03</pdfrwt>
<totfact> 0.18232351E+02</totfact>
</mgrwt>
</event>
<event>
 9    1  0.4321150E-036  0.1000046E+04  0.7818608E-02  0.8680994E-01
          1   -1    0    0  501    0  0.00000000000E+00  0.00000000000E+00  0.41885220807E+03  0.41885220807E+03  0.00000000000E+00 0. -1.
         -1   -1    0    0    0  501 -0.00000000000E+00 -0.00000000000E+00 -0.59692404484E+03  0.59692404484E+03  0.00000000000E+00 0. -1.
         36    2    1    2    0    0  0.28421709430E-13  0.00000000000E+00 -0.17807183676E+03  0.10157762529E+04  0.10000459074E+04 0.  0.
         25    2    3    3    0    0 -0.11469727189E+03 -0.16984775843E+02 -0.11641156744E+03  0.20593452631E+03  0.12415083288E+03 0.  0.
         35    2    3    3    0    0  0.11469727189E+03  0.16984775843E+02 -0.61660269326E+02  0.80984172660E+03  0.79912307346E+03 0.  0.
         22    1    5    5    0    0  0.30231556343E+02 -0.39012271220E+03 -0.42964935143E+02  0.39364408191E+03  0.00000000000E+00 0. -1.
         22    1    5    5    0    0  0.84465715543E+02  0.40710748804E+03 -0.18695334183E+02  0.41619764469E+03  0.00000000000E+00 0. -1.
          5    1    4    4  502    0 -0.13288739275E+03 -0.24650638079E+02 -0.12475884260E+03  0.18399340183E+03  0.47000000000E+01 0. -1.
         -5    1    4    4    0  502  0.18190120862E+02  0.76658622356E+01  0.83472751678E+01  0.21941124481E+02  0.47000000000E+01 0. -1.
<mgrwt>
<rscale>  0 0.10000459E+04</rscale>
<asrwt>0</asrwt>
<pdfrwt beam="1">  1        1 0.64438801E-01 0.10000459E+04</pdfrwt>
<pdfrwt beam="2">  1       -1 0.91834468E-01 0.10000459E+04</pdfrwt>
<totfact> 0.77654016E+01</totfact>
</mgrwt>
</event>
<event>
 9    1  0.4321150E-036  0.9987594E+03  0.7818608E-02  0.8682220E-01
         -2   -1    0    0    0  501 -0.00000000000E+00  0.00000000000E+00  0.47575286236E+03  0.47575286236E+03  0.00000000000E+00 0.  1.
          2   -1    0    0  501    0  0.00000000000E+00 -0.00000000000E+00 -0.52417985153E+03  0.52417985153E+03  0.00000000000E+00 0.  1.
         36    2    1    2    0    0  0.00000000000E+00 -0.35527136788E-14 -0.48426989168E+02  0.99993271390E+03  0.99875935993E+03 0.  0.
         25    2    3    3    0    0 -0.11738403657E+03  0.34785720439E+00 -0.77823302259E+02  0.18817011858E+03  0.12478939901E+03 0.  0.
         35    2    3    3    0    0  0.11738403657E+03 -0.34785720439E+00  0.29396313090E+02  0.81176259532E+03  0.80269249087E+03 0.  0.
         22    1    5    5    0    0  0.39365283130E+03 -0.22526575640E+03 -0.74802085363E+01  0.45361124998E+03  0.00000000000E+00 0. -1.
         22    1    5    5    0    0 -0.27626879473E+03  0.22491789919E+03  0.36876521627E+02  0.35815134534E+03  0.00000000000E+00 0. -1.
          5    1    4    4  502    0 -0.90715335758E+02 -0.72864615707E+01  0.13941476733E+02  0.92189041851E+02  0.47000000000E+01 0.  1.
         -5    1    4    4    0  502 -0.26668700807E+02  0.76343187751E+01 -0.91764778991E+02  0.95981076725E+02  0.47000000000E+01 0.  1.
<mgrwt>
<rscale>  0 0.99875936E+03</rscale>
<asrwt>0</asrwt>
<pdfrwt beam="1">  1        2 0.80643054E-01 0.99875936E+03</pdfrwt>
<pdfrwt beam="2">  1       -2 0.73192749E-01 0.99875936E+03</pdfrwt>
<totfact> 0.11870806E+02</totfact>
</mgrwt>
</event>
<event>
 9    1  0.4321150E-036  0.9995499E+03  0.7818608E-02  0.8681467E-01
         -2   -1    0    0    0  501 -0.00000000000E+00  0.00000000000E+00  0.89768572539E+03  0.89768572539E+03  0.00000000000E+00 0. -1.
          2   -1    0    0  501    0  0.00000000000E+00 -0.00000000000E+00 -0.27824323313E+03  0.27824323313E+03  0.00000000000E+00 0. -1.
         36    2    1    2    0    0  0.00000000000E+00 -0.17763568394E-13  0.61944249226E+03  0.11759289585E+04  0.99954985581E+03 0.  0.
         25    2    3    3    0    0  0.11199411339E+03  0.31393062427E+01  0.22164173349E+03  0.27823122945E+03  0.12543931736E+03 0.  0.
         35    2    3    3    0    0 -0.11199411339E+03 -0.31393062427E+01  0.39780075877E+03  0.89769772907E+03  0.79690854708E+03 0.  0.
         22    1    5    5    0    0 -0.21327192027E+03  0.35388385901E+03  0.30945152025E+03  0.51621598293E+03  0.00000000000E+00 0. -1.
         22    1    5    5    0    0  0.10127780688E+03 -0.35702316525E+03  0.88349238522E+02  0.38148174614E+03  0.00000000000E+00 0. -1.
          5    1    4    4  502    0  0.12130834583E+03 -0.16260933791E+02  0.22477638402E+03  0.25598172893E+03  0.47000000000E+01 0. -1.
         -5    1    4    4    0  502 -0.93142324437E+01  0.19400240034E+02 -0.31346505245E+01  0.22249500518E+02  0.47000000000E+01 0. -1.
<mgrwt>
<rscale>  0 0.99954986E+03</rscale>
<asrwt>0</asrwt>
<pdfrwt beam="1">  1        2 0.42806652E-01 0.99954986E+03</pdfrwt>
<pdfrwt beam="2">  1       -2 0.13810550E+00 0.99954986E+03</pdfrwt>
<totfact> 0.50870711E+01</totfact>
</mgrwt>
</event>
<event>
 9    1  0.4321150E-036  0.9994960E+03  0.7818608E-02  0.8681518E-01
         -2   -1    0    0    0  501 -0.00000000000E+00  0.00000000000E+00  0.53767371322E+03  0.53767371322E+03  0.00000000000E+00 0.  1.
          2   -1    0    0  501    0  0.00000000000E+00 -0.00000000000E+00 -0.46449741717E+03  0.46449741717E+03  0.00000000000E+00 0.  1.
         36    2    1    2    0    0  0.14210854715E-13 -0.28421709430E-13  0.73176296050E+02  0.10021711304E+04  0.99949597513E+03 0.  0.
         25    2    3    3    0    0  0.11909516721E+03 -0.39396112231E+02  0.23864602595E+02  0.17800450705E+03  0.12401763085E+03 0.  0.
         35    2    3    3    0    0 -0.11909516721E+03  0.39396112231E+02  0.49311693455E+02  0.82416662334E+03  0.81307027212E+03 0.  0.
         22    1    5    5    0    0  0.64423989105E+02  0.17619830288E+03 -0.33089282069E+03  0.38037659115E+03  0.00000000000E+00 0. -1.
         22    1    5    5    0    0 -0.18351915632E+03 -0.13680219065E+03  0.38020451414E+03  0.44379003220E+03  0.00000000000E+00 0. -1.
          5    1    4    4  502    0  0.13375419124E+03 -0.22950576208E+02  0.48899823347E+02  0.14432669658E+03  0.47000000000E+01 0. -1.
         -5    1    4    4    0  502 -0.14659024023E+02 -0.16445536023E+02 -0.25035220752E+02  0.33677810476E+02  0.47000000000E+01 0. -1.
<mgrwt>
<rscale>  0 0.99949598E+03</rscale>
<asrwt>0</asrwt>
<pdfrwt beam="1">  1        2 0.71461141E-01 0.99949598E+03</pdfrwt>
<pdfrwt beam="2">  1       -2 0.82719033E-01 0.99949598E+03</pdfrwt>
<totfact> 0.10331448E+02</totfact>
</mgrwt>
</event>
<event>
 9    1  0.4321150E-036  0.9999697E+03  0.7818608E-02  0.8681067E-01
         -2   -1    0    0    0  501 -0.00000000000E+00  0.00000000000E+00  0.34498892691E+03  0.34498892691E+03  0.00000000000E+00 0.  1.
          2   -1    0    0  501    0  0.00000000000E+00 -0.00000000000E+00 -0.72461705396E+03  0.72461705396E+03  0.00000000000E+00 0.  1.
         36    2    1    2    0    0 -0.28421709430E-13  0.28421709430E-13 -0.37962812704E+03  0.10696059809E+04  0.99996971928E+03 0.  0.
         25    2    3    3    0    0 -0.77878373727E+02 -0.85831709530E+02  0.11518253751E+02  0.17121681113E+03  0.12550060872E+03 0.  0.
         35    2    3    3    0    0  0.77878373727E+02  0.85831709530E+02 -0.39114638079E+03  0.89838916974E+03  0.80042206719E+03 0.  0.
         22    1    5    5    0    0  0.25579345003E+03  0.31328310677E+03 -0.44855455644E+03  0.60396836356E+03  0.00000000000E+00 0.  1.
         22    1    5    5    0    0 -0.17791507631E+03 -0.22745139724E+03  0.57408175651E+02  0.29442080619E+03  0.00000000000E+00 0.  1.
          5    1    4    4  502    0  0.42468763266E+01  0.27679147465E+02  0.12513887695E+02  0.31029962104E+02  0.47000000000E+01 0.  1.
         -5    1    4    4    0  502 -0.82125250054E+02 -0.11351085700E+03 -0.99563394459E+00  0.14018684902E+03  0.47000000000E+01 0.  1.
<mgrwt>
<rscale>  0 0.99996972E+03</rscale>
<asrwt>0</asrwt>
<pdfrwt beam="1">  1        2 0.11147955E+00 0.99996972E+03</pdfrwt>
<pdfrwt beam="2">  1       -2 0.53075220E-01 0.99996972E+03</pdfrwt>
<totfact> 0.15884189E+02</totfact>
</mgrwt>
</event>
<event>
 9    1  0.4321150E-036  0.1000105E+04  0.7818608E-02  0.8680938E-01
          2   -1    0    0  501    0  0.00000000000E+00  0.00000000000E+00  0.11373202137E+04  0.11373202137E+04  0.00000000000E+00 0. -1.
         -2   -1    0    0    0  501 -0.00000000000E+00 -0.00000000000E+00 -0.21986118525E+03  0.21986118525E+03  0.00000000000E+00 0. -1.
         36    2    1    2    0    0  0.00000000000E+00  0.28421709430E-13  0.91745902849E+03  0.13571813990E+04  0.10001051349E+04 0.  0.
         25    2    3    3    0    0  0.12144316849E+03 -0.65409951662E+02  0.20385030207E+03  0.27616511353E+03  0.12524104489E+03 0.  0.
         35    2    3    3    0    0 -0.12144316849E+03  0.65409951662E+02  0.71360872642E+03  0.10810162855E+04  0.80020740439E+03 0.  0.
         22    1    5    5    0    0  0.11923667711E+02 -0.36142128272E+03  0.36709621619E+03  0.51529326543E+03  0.00000000000E+00 0. -1.
         22    1    5    5    0    0 -0.13336683621E+03  0.42683123438E+03  0.34651251023E+03  0.56572302003E+03  0.00000000000E+00 0. -1.
          5    1    4    4  502    0  0.14692111400E+03 -0.61704732682E+02  0.16607211635E+03  0.23020713630E+03  0.47000000000E+01 0. -1.
         -5    1    4    4    0  502 -0.25477945503E+02 -0.37052189800E+01  0.37778185719E+02  0.45957977229E+02  0.47000000000E+01 0. -1.
<mgrwt>
<rscale>  0 0.10001051E+04</rscale>
<asrwt>0</asrwt>
<pdfrwt beam="1">  1        2 0.17497234E+00 0.10001051E+04</pdfrwt>
<pdfrwt beam="2">  1       -2 0.33824798E-01 0.10001051E+04</pdfrwt>
<totfact> 0.20379638E+02</totfact>
</mgrwt>
</event>
<event>
 9    1  0.4321150E-036  0.1002506E+04  0.7818608E-02  0.8678655E-01
          2   -1    0    0  501    0  0.00000000000E+00  0.00000000000E+00  0.14267173364E+04  0.14267173364E+04  0.00000000000E+00 0. -1.
         -2   -1    0    0    0  501 -0.00000000000E+00 -0.00000000000E+00 -0.17610663534E+03  0.17610663534E+03  0.00000000000E+00 0. -1.
         36    2    1    2    0    0 -0.39079850467E-13 -0.56843418861E-13  0.12506107011E+04  0.16028239718E+04  0.10025056403E+04 0.  0.
         25    2    3    3    0    0  0.38155372625E+01 -0.13660686500E+03  0.13131534157E+03  0.22062504330E+03  0.11294112143E+03 0.  0.
         35    2    3    3    0    0 -0.38155372625E+01  0.13660686500E+03  0.11192953595E+04  0.13821989285E+04  0.79935960752E+03 0.  0.
         22    1    5    5    0    0 -0.35185543875E+03 -0.12674988354E+03  0.49193769111E+03  0.61795669322E+03  0.00000000000E+00 0.  1.
         22    1    5    5    0    0  0.34803990149E+03  0.26335674854E+03  0.62735766842E+03  0.76424223526E+03  0.00000000000E+00 0.  1.
          5    1    4    4  502    0 -0.84197787343E+01 -0.54934732415E+02  0.12593486516E+03  0.13773306706E+03  0.47000000000E+01 0. -1.
         -5    1    4    4    0  502  0.12235315997E+02 -0.81672132584E+02  0.53804764109E+01  0.82891976239E+02  0.47000000000E+01 0. -1.
<mgrwt>
<rscale>  0 0.10025056E+04</rscale>
<asrwt>0</asrwt>
<pdfrwt beam="1">  1        2 0.21949497E+00 0.10025056E+04</pdfrwt>
<pdfrwt beam="2">  1       -2 0.27093329E-01 0.10025056E+04</pdfrwt>
<totfact> 0.20722422E+02</totfact>
</mgrwt>
</event>
<event>
 9    1  0.4321150E-036  0.1000049E+04  0.7818608E-02  0.8680991E-01
         -2   -1    0    0    0  501 -0.00000000000E+00  0.00000000000E+00  0.30584394927E+03  0.30584394927E+03  0.00000000000E+00 0.  1.
          2   -1    0    0  501    0  0.00000000000E+00 -0.00000000000E+00 -0.81749105577E+03  0.81749105577E+03  0.00000000000E+00 0.  1.
         36    2    1    2    0    0 -0.71054273576E-14  0.49737991503E-13 -0.51164710650E+03  0.11233350050E+04  0.10000493848E+04 0.  0.
         25    2    3    3    0    0  0.51248259063E+02  0.59473612541E+02 -0.22594764285E+03  0.27011484367E+03  0.12548385081E+03 0.  0.
         35    2    3    3    0    0 -0.51248259063E+02 -0.59473612541E+02 -0.28569946365E+03  0.85322016137E+03  0.80012309403E+03 0.  0.
         22    1    5    5    0    0 -0.68990366686E+02 -0.31951411309E+03 -0.44166908871E+03  0.54947295027E+03  0.00000000000E+00 0. -1.
         22    1    5    5    0    0  0.17742107624E+02  0.26004050055E+03  0.15596962506E+03  0.30374721110E+03  0.00000000000E+00 0. -1.
          5    1    4    4  502    0  0.88006070910E+02  0.66351576779E+02 -0.16684364699E+03  0.20001623134E+03  0.47000000000E+01 0. -1.
         -5    1    4    4    0  502 -0.36757811847E+02 -0.68779642374E+01 -0.59103995860E+02  0.70098612329E+02  0.47000000000E+01 0. -1.
<mgrwt>
<rscale>  0 0.10000494E+04</rscale>
<asrwt>0</asrwt>
<pdfrwt beam="1">  1        2 0.12576785E+00 0.10000494E+04</pdfrwt>
<pdfrwt beam="2">  1       -2 0.47052916E-01 0.10000494E+04</pdfrwt>
<totfact> 0.17338638E+02</totfact>
</mgrwt>
</event>
<event>
 9    1  0.4321150E-036  0.1000094E+04  0.7818608E-02  0.8680948E-01
          2   -1    0    0  501    0  0.00000000000E+00  0.00000000000E+00  0.11239739238E+04  0.11239739238E+04  0.00000000000E+00 0.  1.
         -2   -1    0    0    0  501 -0.00000000000E+00 -0.00000000000E+00 -0.22246694988E+03  0.22246694988E+03  0.00000000000E+00 0.  1.
         36    2    1    2    0    0  0.28421709430E-13 -0.14210854715E-13  0.90150697396E+03  0.13464408737E+04  0.10000940967E+04 0.  0.
         25    2    3    3    0    0 -0.91166701888E+02 -0.41337252015E+02  0.30037653734E+03  0.34047060154E+03  0.12519596796E+03 0.  0.
         35    2    3    3    0    0  0.91166701888E+02  0.41337252015E+02  0.60113043662E+03  0.10059702722E+04  0.80037381938E+03 0.  0.
         22    1    5    5    0    0  0.38607608903E+03  0.72861844780E+02  0.72069367739E+02  0.39944660308E+03  0.00000000000E+00 0.  1.
         22    1    5    5    0    0 -0.29490938714E+03 -0.31524592765E+02  0.52906106888E+03  0.60652366910E+03  0.00000000000E+00 0.  1.
          5    1    4    4  502    0 -0.41575454720E+02  0.44072831790E+02  0.12949231681E+03  0.14304294128E+03  0.47000000000E+01 0.  1.
         -5    1    4    4    0  502 -0.49591247167E+02 -0.85410083805E+02  0.17088422053E+03  0.19742766026E+03  0.47000000000E+01 0.  1.
<mgrwt>
<rscale>  0 0.10000941E+04</rscale>
<asrwt>0</asrwt>
<pdfrwt beam="1">  1        2 0.17291906E+00 0.10000941E+04</pdfrwt>
<pdfrwt beam="2">  1       -2 0.34225685E-01 0.10000941E+04</pdfrwt>
<totfact> 0.20310009E+02</totfact>
</mgrwt>
</event>
<event>
 9    1  0.4321150E-036  0.9975799E+03  0.7818608E-02  0.8683346E-01
         -2   -1    0    0    0  501 -0.00000000000E+00  0.00000000000E+00  0.61267438468E+03  0.61267438468E+03  0.00000000000E+00 0. -1.
          2   -1    0    0  501    0  0.00000000000E+00 -0.00000000000E+00 -0.40607443544E+03  0.40607443544E+03  0.00000000000E+00 0. -1.
         36    2    1    2    0    0  0.00000000000E+00  0.28421709430E-13  0.20659994924E+03  0.10187488201E+04  0.99757988125E+03 0.  0.
         25    2    3    3    0    0  0.16421346965E+02  0.12891831469E+03 -0.88328852207E+01  0.18080047730E+03  0.12538421045E+03 0.  0.
         35    2    3    3    0    0 -0.16421346965E+02 -0.12891831469E+03  0.21543283446E+03  0.83794834283E+03  0.79928500961E+03 0.  0.
         22    1    5    5    0    0  0.28013845443E+02  0.73511364907E+02 -0.28533886217E+03  0.29598473368E+03  0.00000000000E+00 0.  1.
         22    1    5    5    0    0 -0.44435192407E+02 -0.20242967959E+03  0.50077169662E+03  0.54196360915E+03  0.00000000000E+00 0.  1.
          5    1    4    4  502    0  0.43165574334E+02  0.31061341556E+02  0.41346135074E+02  0.67525303645E+02  0.47000000000E+01 0.  1.
         -5    1    4    4    0  502 -0.26744227369E+02  0.97856973129E+02 -0.50179020295E+02  0.11327517365E+03  0.47000000000E+01 0.  1.
<mgrwt>
<rscale>  0 0.99757988E+03</rscale>
<asrwt>0</asrwt>
<pdfrwt beam="1">  1        2 0.62472990E-01 0.99757988E+03</pdfrwt>
<pdfrwt beam="2">  1       -2 0.94257597E-01 0.99757988E+03</pdfrwt>
<totfact> 0.88493575E+01</totfact>
</mgrwt>
</event>
<event>
 9    1  0.4321150E-036  0.9992608E+03  0.7818608E-02  0.8681742E-01
          1   -1    0    0  501    0  0.00000000000E+00  0.00000000000E+00  0.13314426614E+04  0.13314426614E+04  0.00000000000E+00 0.  1.
         -1   -1    0    0    0  501 -0.00000000000E+00 -0.00000000000E+00 -0.18748875129E+03  0.18748875129E+03  0.00000000000E+00 0.  1.
         36    2    1    2    0    0 -0.28421709430E-13  0.00000000000E+00  0.11439539101E+04  0.15189314127E+04  0.99926077077E+03 0.  0.
         25    2    3    3    0    0  0.85933855572E+02  0.63163666915E+02  0.82908015819E+02  0.18403907495E+03  0.12498946224E+03 0.  0.
         35    2    3    3    0    0 -0.85933855572E+02 -0.63163666915E+02  0.10610458943E+04  0.13348923378E+04  0.80296007821E+03 0.  0.
         22    1    5    5    0    0  0.29705049803E+03 -0.18491747270E+03  0.25094479972E+03  0.43058885563E+03  0.00000000000E+00 0.  1.
         22    1    5    5    0    0 -0.38298435360E+03  0.12175380578E+03  0.81010109460E+03  0.90430348213E+03  0.00000000000E+00 0.  1.
          5    1    4    4  502    0  0.34103116995E+02  0.95360176479E+02  0.38590316895E+02  0.10847989862E+03  0.47000000000E+01 0. -1.
         -5    1    4    4    0  502  0.51830738576E+02 -0.32196509565E+02  0.44317698924E+02  0.75559176328E+02  0.47000000000E+01 0. -1.
<mgrwt>
<rscale>  0 0.99926077E+03</rscale>
<asrwt>0</asrwt>
<pdfrwt beam="1">  1        1 0.20483733E+00 0.99926077E+03</pdfrwt>
<pdfrwt beam="2">  1       -1 0.28844424E-01 0.99926077E+03</pdfrwt>
<totfact> 0.10255060E+02</totfact>
</mgrwt>
</event>
<event>
 9    1  0.4321150E-036  0.9998989E+03  0.7818608E-02  0.8681134E-01
          3   -1    0    0  501    0  0.00000000000E+00  0.00000000000E+00  0.28483127423E+03  0.28483127423E+03  0.00000000000E+00 0.  1.
         -3   -1    0    0    0  501 -0.00000000000E+00 -0.00000000000E+00 -0.87753505837E+03  0.87753505837E+03  0.00000000000E+00 0.  1.
         36    2    1    2    0    0 -0.71054273576E-14 -0.14210854715E-13 -0.59270378414E+03  0.11623663326E+04  0.99989885259E+03 0.  0.
         25    2    3    3    0    0  0.35203841750E+02 -0.43994049882E+02 -0.26010458343E+03  0.29400293995E+03  0.12493417257E+03 0.  0.
         35    2    3    3    0    0 -0.35203841750E+02  0.43994049882E+02 -0.33259920071E+03  0.86836339265E+03  0.80016121281E+03 0.  0.
         22    1    5    5    0    0 -0.28543592423E+03 -0.27366983826E+03 -0.13142820389E+03  0.41670399565E+03  0.00000000000E+00 0. -1.
         22    1    5    5    0    0  0.25023208248E+03  0.31766388814E+03 -0.20117099682E+03  0.45165939699E+03  0.00000000000E+00 0. -1.
          5    1    4    4  502    0  0.24345228273E+02 -0.75754772756E+02 -0.24359110076E+03  0.25630097562E+03  0.47000000000E+01 0. -1.
         -5    1    4    4    0  502  0.10858613477E+02  0.31760722873E+02 -0.16513482670E+02  0.37701964325E+02  0.47000000000E+01 0. -1.
<mgrwt>
<rscale>  0 0.99989885E+03</rscale>
<asrwt>0</asrwt>
<pdfrwt beam="1">  1        3 0.43820197E-01 0.99989885E+03</pdfrwt>
<pdfrwt beam="2">  1       -3 0.13500539E+00 0.99989885E+03</pdfrwt>
<totfact> 0.73404024E+00</totfact>
</mgrwt>
</event>
<event>
 9    1  0.4321150E-036  0.9995320E+03  0.7818608E-02  0.8681484E-01
          2   -1    0    0  501    0  0.00000000000E+00  0.00000000000E+00  0.39440144639E+03  0.39440144639E+03  0.00000000000E+00 0. -1.
         -2   -1    0    0    0  501 -0.00000000000E+00 -0.00000000000E+00 -0.63327871830E+03  0.63327871830E+03  0.00000000000E+00 0. -1.
         36    2    1    2    0    0  0.00000000000E+00  0.00000000000E+00 -0.23887727191E+03  0.10276801647E+04  0.99953197541E+03 0.  0.
         25    2    3    3    0    0 -0.53922456060E+02 -0.12244068667E+03 -0.36245413188E+01  0.18320592509E+03  0.12510763633E+03 0.  0.
         35    2    3    3    0    0  0.53922456060E+02  0.12244068667E+03 -0.23525273059E+03  0.84447423961E+03  0.79993346042E+03 0.  0.
         22    1    5    5    0    0 -0.33652025771E+03  0.20816017376E+03 -0.34622319521E+02  0.39720932365E+03  0.00000000000E+00 0. -1.
         22    1    5    5    0    0  0.39044271377E+03 -0.85719487090E+02 -0.20063041107E+03  0.44726491596E+03  0.00000000000E+00 0. -1.
          5    1    4    4  502    0 -0.21113911964E+02  0.21002275999E+02 -0.18276553152E+02  0.35256421694E+02  0.47000000000E+01 0.  1.
         -5    1    4    4    0  502 -0.32808544095E+02 -0.14344296266E+03  0.14652011833E+02  0.14794950339E+03  0.47000000000E+01 0.  1.
<mgrwt>
<rscale>  0 0.99953198E+03</rscale>
<asrwt>0</asrwt>
<pdfrwt beam="1">  1        2 0.60677146E-01 0.99953198E+03</pdfrwt>
<pdfrwt beam="2">  1       -2 0.97427494E-01 0.99953198E+03</pdfrwt>
<totfact> 0.84469701E+01</totfact>
</mgrwt>
</event>
<event>
 9    1  0.4321150E-036  0.9997086E+03  0.7818608E-02  0.8681315E-01
         -2   -1    0    0    0  501 -0.00000000000E+00  0.00000000000E+00  0.20315698601E+03  0.20315698601E+03  0.00000000000E+00 0.  1.
          2   -1    0    0  501    0  0.00000000000E+00 -0.00000000000E+00 -0.12298583951E+04  0.12298583951E+04  0.00000000000E+00 0.  1.
         36    2    1    2    0    0  0.00000000000E+00 -0.71054273576E-14 -0.10267014091E+04  0.14330153811E+04  0.99970860707E+03 0.  0.
         25    2    3    3    0    0  0.13075993200E+03 -0.32911443585E+02 -0.17139181814E+03  0.25119375690E+03  0.12466685703E+03 0.  0.
         35    2    3    3    0    0 -0.13075993200E+03  0.32911443585E+02 -0.85530959092E+03  0.11818216242E+04  0.80434229786E+03 0.  0.
         22    1    5    5    0    0  0.25054655646E+03 -0.17917938998E+03 -0.60474505236E+03  0.67867179778E+03  0.00000000000E+00 0.  1.
         22    1    5    5    0    0 -0.38130648846E+03  0.21209083357E+03 -0.25056453857E+03  0.50314982641E+03  0.00000000000E+00 0.  1.
          5    1    4    4  502    0  0.57370641889E+02  0.46204666949E+02 -0.52610588737E+02  0.90643399351E+02  0.47000000000E+01 0.  1.
         -5    1    4    4    0  502  0.73389290109E+02 -0.79116110534E+02 -0.11878122941E+03  0.16055035755E+03  0.47000000000E+01 0.  1.
<mgrwt>
<rscale>  0 0.99970861E+03</rscale>
<asrwt>0</asrwt>
<pdfrwt beam="1">  1        2 0.18920898E+00 0.99970861E+03</pdfrwt>
<pdfrwt beam="2">  1       -2 0.31254921E-01 0.99970861E+03</pdfrwt>
<totfact> 0.20776081E+02</totfact>
</mgrwt>
</event>
<event>
 9    1  0.4321150E-036  0.1000075E+04  0.7818608E-02  0.8680967E-01
         -3   -1    0    0    0  501 -0.00000000000E+00  0.00000000000E+00  0.93381913745E+03  0.93381913745E+03  0.00000000000E+00 0.  1.
          3   -1    0    0  501    0  0.00000000000E+00 -0.00000000000E+00 -0.26775794884E+03  0.26775794884E+03  0.00000000000E+00 0.  1.
         36    2    1    2    0    0 -0.71054273576E-14  0.71054273576E-14  0.66606118861E+03  0.12015770863E+04  0.10000749909E+04 0.  0.
         25    2    3    3    0    0  0.22737650314E+02 -0.42505586129E+01 -0.41332907361E+02  0.13442940474E+03  0.12580853563E+03 0.  0.
         35    2    3    3    0    0 -0.22737650314E+02  0.42505586129E+01  0.70739409597E+03  0.10671476816E+04  0.79866306991E+03 0.  0.
         22    1    5    5    0    0  0.32282009316E+03 -0.11501776377E+03  0.97859619457E+02  0.35639641363E+03  0.00000000000E+00 0.  1.
         22    1    5    5    0    0 -0.34555774347E+03  0.11926832238E+03  0.60953447651E+03  0.71075126792E+03  0.00000000000E+00 0.  1.
          5    1    4    4  502    0  0.29283462089E+02 -0.46104905525E+02  0.21178989094E+02  0.58769235527E+02  0.47000000000E+01 0. -1.
         -5    1    4    4    0  502 -0.65458117748E+01  0.41854346912E+02 -0.62511896454E+02  0.75660169214E+02  0.47000000000E+01 0. -1.
<mgrwt>
<rscale>  0 0.10000750E+04</rscale>
<asrwt>0</asrwt>
<pdfrwt beam="1">  1        3 0.41193531E-01 0.10000750E+04</pdfrwt>
<pdfrwt beam="2">  1       -3 0.14366448E+00 0.10000750E+04</pdfrwt>
<totfact> 0.69088484E+00</totfact>
</mgrwt>
</event>
<event>
 9    1  0.4321150E-036  0.1001649E+04  0.7818608E-02  0.8679469E-01
         -2   -1    0    0    0  501 -0.00000000000E+00  0.00000000000E+00  0.12484503315E+03  0.12484503315E+03  0.00000000000E+00 0. -1.
          2   -1    0    0  501    0  0.00000000000E+00 -0.00000000000E+00 -0.20090922650E+04  0.20090922650E+04  0.00000000000E+00 0. -1.
         36    2    1    2    0    0 -0.14210854715E-13  0.14210854715E-13 -0.18842472319E+04  0.21339372982E+04  0.10016490212E+04 0.  0.
         25    2    3    3    0    0  0.67740125123E+02  0.49048003518E+02 -0.60121197663E+03  0.61921887931E+03  0.12239995284E+03 0.  0.
         35    2    3    3    0    0 -0.67740125123E+02 -0.49048003518E+02 -0.12830352552E+04  0.15147184189E+04  0.80074839434E+03 0.  0.
         22    1    5    5    0    0 -0.18662027612E+03  0.12974313815E+03 -0.14077490295E+02  0.22772480122E+03  0.00000000000E+00 0.  1.
         22    1    5    5    0    0  0.11888015100E+03 -0.17879114167E+03 -0.12689577649E+04  0.12869936176E+04  0.00000000000E+00 0.  1.
          5    1    4    4  502    0  0.15571385251E+02  0.13802328710E+02 -0.81973380564E+01  0.22852979404E+02  0.47000000000E+01 0.  1.
         -5    1    4    4    0  502  0.52168739873E+02  0.35245674808E+02 -0.59301463857E+03  0.59636589991E+03  0.47000000000E+01 0.  1.
<mgrwt>
<rscale>  0 0.10016490E+04</rscale>
<asrwt>0</asrwt>
<pdfrwt beam="1">  1        2 0.30909109E+00 0.10016490E+04</pdfrwt>
<pdfrwt beam="2">  1       -2 0.19206930E-01 0.10016490E+04</pdfrwt>
<totfact> 0.17762493E+02</totfact>
</mgrwt>
</event>
<event>
 9    1  0.4321150E-036  0.9998461E+03  0.7818608E-02  0.8681185E-01
          2   -1    0    0  501    0  0.00000000000E+00  0.00000000000E+00  0.42290265326E+03  0.42290265326E+03  0.00000000000E+00 0.  1.
         -2   -1    0    0    0  501 -0.00000000000E+00 -0.00000000000E+00 -0.59097065836E+03  0.59097065836E+03  0.00000000000E+00 0.  1.
         36    2    1    2    0    0  0.00000000000E+00  0.17763568394E-13 -0.16806800510E+03  0.10138733116E+04  0.99984610699E+03 0.  0.
         25    2    3    3    0    0 -0.88714497966E+02 -0.26342272841E+02  0.77162610755E+02  0.17216354063E+03  0.12297169892E+03 0.  0.
         35    2    3    3    0    0  0.88714497966E+02  0.26342272841E+02 -0.24523061585E+03  0.84170977098E+03  0.79985817876E+03 0.  0.
         22    1    5    5    0    0  0.42788045488E+03  0.12520118391E+03 -0.18793207850E+03  0.48381348292E+03  0.00000000000E+00 0.  1.
         22    1    5    5    0    0 -0.33916595692E+03 -0.98858911074E+02 -0.57298537347E+02  0.35789628807E+03  0.00000000000E+00 0.  1.
          5    1    4    4  502    0 -0.15352752680E+02 -0.17894274872E+02  0.93368178494E+02  0.96413789695E+02  0.47000000000E+01 0. -1.
         -5    1    4    4    0  502 -0.73361745286E+02 -0.84479979686E+01 -0.16205567739E+02  0.75749750936E+02  0.47000000000E+01 0. -1.
<mgrwt>
<rscale>  0 0.99984611E+03</rscale>
<asrwt>0</asrwt>
<pdfrwt beam="1">  1        2 0.65061947E-01 0.99984611E+03</pdfrwt>
<pdfrwt beam="2">  1       -2 0.90918563E-01 0.99984611E+03</pdfrwt>
<totfact> 0.92060342E+01</totfact>
</mgrwt>
</event>
<event>
 9    1  0.4321150E-036  0.1000087E+04  0.7818608E-02  0.8680955E-01
          1   -1    0    0  501    0  0.00000000000E+00  0.00000000000E+00  0.44087000748E+03  0.44087000748E+03  0.00000000000E+00 0.  1.
         -1   -1    0    0    0  501 -0.00000000000E+00 -0.00000000000E+00 -0.56715976527E+03  0.56715976527E+03  0.00000000000E+00 0.  1.
         36    2    1    2    0    0  0.35527136788E-14 -0.14210854715E-13 -0.12628975779E+03  0.10080297727E+04  0.10000874561E+04 0.  0.
         25    2    3    3    0    0  0.58695942810E+01  0.71397074855E+02 -0.14795733572E+03  0.20617286345E+03  0.12443424768E+03 0.  0.
         35    2    3    3    0    0 -0.58695942810E+01 -0.71397074855E+02  0.21667577935E+02  0.80185690930E+03  0.79835645211E+03 0.  0.
         22    1    5    5    0    0  0.69014085739E+02  0.20354570160E+03 -0.30196929694E+03  0.37064707333E+03  0.00000000000E+00 0. -1.
         22    1    5    5    0    0 -0.74883680020E+02 -0.27494277646E+03  0.32363687487E+03  0.43120983597E+03  0.00000000000E+00 0. -1.
          5    1    4    4  502    0  0.59837121635E+01  0.76153465172E+02 -0.16823277988E+03  0.18482292416E+03  0.47000000000E+01 0.  1.
         -5    1    4    4    0  502 -0.11411788253E+00 -0.47563903164E+01  0.20275444161E+02  0.21349939289E+02  0.47000000000E+01 0.  1.
<mgrwt>
<rscale>  0 0.10000875E+04</rscale>
<asrwt>0</asrwt>
<pdfrwt beam="1">  1        1 0.67826155E-01 0.10000875E+04</pdfrwt>
<pdfrwt beam="2">  1       -1 0.87255349E-01 0.10000875E+04</pdfrwt>
<totfact> 0.80864135E+01</totfact>
</mgrwt>
</event>
<event>
 9    1  0.4321150E-036  0.1000395E+04  0.7818608E-02  0.8680662E-01
         -2   -1    0    0    0  501 -0.00000000000E+00  0.00000000000E+00  0.15052677544E+03  0.15052677544E+03  0.00000000000E+00 0. -1.
          2   -1    0    0  501    0  0.00000000000E+00 -0.00000000000E+00 -0.16621460911E+04  0.16621460911E+04  0.00000000000E+00 0. -1.
         36    2    1    2    0    0  0.28421709430E-13  0.00000000000E+00 -0.15116193156E+04  0.18126728665E+04  0.10003949048E+04 0.  0.
         25    2    3    3    0    0 -0.75066131405E+02 -0.93526585232E+02 -0.41605846861E+03  0.45069233825E+03  0.12504714401E+03 0.  0.
         35    2    3    3    0    0  0.75066131405E+02  0.93526585232E+02 -0.10955608470E+04  0.13619805283E+04  0.80022199647E+03 0.  0.
         22    1    5    5    0    0  0.15420769619E+02 -0.32606414684E+03 -0.23340504105E+03  0.40128984684E+03  0.00000000000E+00 0.  1.
         22    1    5    5    0    0  0.59645361787E+02  0.41959073207E+03 -0.86215580597E+03  0.96069068143E+03  0.00000000000E+00 0.  1.
          5    1    4    4  502    0  0.30878549391E+02  0.70917486249E-01 -0.90357428063E+02  0.95603580728E+02  0.47000000000E+01 0. -1.
         -5    1    4    4    0  502 -0.10594468080E+03 -0.93597502718E+02 -0.32570104055E+03  0.35508875752E+03  0.47000000000E+01 0. -1.
<mgrwt>
<rscale>  0 0.10003949E+04</rscale>
<asrwt>0</asrwt>
<pdfrwt beam="1">  1        2 0.25571478E+00 0.10003949E+04</pdfrwt>
<pdfrwt beam="2">  1       -2 0.23157965E-01 0.10003949E+04</pdfrwt>
<totfact> 0.20152079E+02</totfact>
</mgrwt>
</event>
<event>
 9    1  0.4321150E-036  0.1000103E+04  0.7818608E-02  0.8680940E-01
          4   -1    0    0  501    0  0.00000000000E+00  0.00000000000E+00  0.39569459716E+03  0.39569459716E+03  0.00000000000E+00 0.  1.
         -4   -1    0    0    0  501 -0.00000000000E+00 -0.00000000000E+00 -0.63192999781E+03  0.63192999781E+03  0.00000000000E+00 0.  1.
         36    2    1    2    0    0  0.35527136788E-14  0.28421709430E-13 -0.23623540065E+03  0.10276245950E+04  0.10001025666E+04 0.  0.
         25    2    3    3    0    0  0.10999908336E+02 -0.13015129649E+03 -0.94740562917E+02  0.20387695587E+03  0.12461814038E+03 0.  0.
         35    2    3    3    0    0 -0.10999908336E+02  0.13015129649E+03 -0.14149483773E+03  0.82374763910E+03  0.80092385771E+03 0.  0.
         22    1    5    5    0    0  0.90982426552E+02  0.44148874911E+03  0.34078191400E+02  0.45205247556E+03  0.00000000000E+00 0. -1.
         22    1    5    5    0    0 -0.10198233489E+03 -0.31133745262E+03 -0.17557302913E+03  0.37169516353E+03  0.00000000000E+00 0. -1.
          5    1    4    4  502    0  0.41234735575E+02  0.41943327943E+01 -0.31501365502E+02  0.52271616333E+02  0.47000000000E+01 0. -1.
         -5    1    4    4    0  502 -0.30234827240E+02 -0.13434562928E+03 -0.63239197415E+02  0.15160533954E+03  0.47000000000E+01 0. -1.
<mgrwt>
<rscale>  0 0.10001026E+04</rscale>
<asrwt>0</asrwt>
<pdfrwt beam="1">  1        4 0.60876092E-01 0.10001026E+04</pdfrwt>
<pdfrwt beam="2">  1       -4 0.97219999E-01 0.10001026E+04</pdfrwt>
<totfact> 0.50589430E+00</totfact>
</mgrwt>
</event>
<event>
 9    1  0.4321150E-036  0.9999094E+03  0.7818608E-02  0.8681124E-01
          1   -1    0    0  501    0  0.00000000000E+00  0.00000000000E+00  0.80339403180E+03  0.80339403180E+03  0.00000000000E+00 0. -1.
         -1   -1    0    0    0  501 -0.00000000000E+00 -0.00000000000E+00 -0.31112342514E+03  0.31112342514E+03  0.00000000000E+00 0. -1.
         36    2    1    2    0    0  0.00000000000E+00  0.00000000000E+00  0.49227060666E+03  0.11145174569E+04  0.99990940172E+03 0.  0.
         25    2    3    3    0    0  0.13821075824E+03 -0.22900317418E+02  0.95058005719E+02  0.21066026561E+03  0.12535982141E+03 0.  0.
         35    2    3    3    0    0 -0.13821075824E+03  0.22900317418E+02  0.39721260094E+03  0.90385719133E+03  0.79972078486E+03 0.  0.
         22    1    5    5    0    0 -0.34968431071E+03 -0.16581719073E+03 -0.33280463693E+02  0.38843538351E+03  0.00000000000E+00 0.  1.
         22    1    5    5    0    0  0.21147355247E+03  0.18871750815E+03  0.43049306463E+03  0.51542180782E+03  0.00000000000E+00 0.  1.
          5    1    4    4  502    0  0.91307516835E+02  0.43398897250E+02  0.27390459080E+02  0.10484681284E+03  0.47000000000E+01 0.  1.
         -5    1    4    4    0  502  0.46903241405E+02 -0.66299214668E+02  0.67667546639E+02  0.10581345277E+03  0.47000000000E+01 0.  1.
<mgrwt>
<rscale>  0 0.99990940E+03</rscale>
<asrwt>0</asrwt>
<pdfrwt beam="1">  1        1 0.12359908E+00 0.99990940E+03</pdfrwt>
<pdfrwt beam="2">  1       -1 0.47865143E-01 0.99990940E+03</pdfrwt>
<totfact> 0.10901626E+02</totfact>
</mgrwt>
</event>
<event>
 9    1  0.4321150E-036  0.1000340E+04  0.7818608E-02  0.8680714E-01
         -2   -1    0    0    0  501 -0.00000000000E+00  0.00000000000E+00  0.43270681268E+03  0.43270681268E+03  0.00000000000E+00 0.  1.
          2   -1    0    0  501    0  0.00000000000E+00 -0.00000000000E+00 -0.57815113499E+03  0.57815113499E+03  0.00000000000E+00 0.  1.
         36    2    1    2    0    0  0.14210854715E-13 -0.28421709430E-13 -0.14544432232E+03  0.10108579477E+04  0.10003398120E+04 0.  0.
         25    2    3    3    0    0 -0.10247524594E+03 -0.66497481962E+02 -0.95244217286E+02  0.19932110534E+03  0.12543664126E+03 0.  0.
         35    2    3    3    0    0  0.10247524594E+03  0.66497481962E+02 -0.50200105030E+02  0.81153684233E+03  0.80071774351E+03 0.  0.
         22    1    5    5    0    0  0.43561661144E+03 -0.66083334608E+02 -0.93395632196E+02  0.45039047879E+03  0.00000000000E+00 0. -1.
         22    1    5    5    0    0 -0.33314136550E+03  0.13258081657E+03  0.43195527165E+02  0.36114636353E+03  0.00000000000E+00 0. -1.
          5    1    4    4  502    0 -0.12182687062E+02  0.30131918481E+02  0.51164012490E+01  0.33235793011E+02  0.47000000000E+01 0. -1.
         -5    1    4    4    0  502 -0.90292558881E+02 -0.96629400443E+02 -0.10036061853E+03  0.16608531233E+03  0.47000000000E+01 0. -1.
<mgrwt>
<rscale>  0 0.10003398E+04</rscale>
<asrwt>0</asrwt>
<pdfrwt beam="1">  1        2 0.88946328E-01 0.10003398E+04</pdfrwt>
<pdfrwt beam="2">  1       -2 0.66570279E-01 0.10003398E+04</pdfrwt>
<totfact> 0.13011661E+02</totfact>
</mgrwt>
</event>
<event>
 9    1  0.4321150E-036  0.1001138E+04  0.7818608E-02  0.8679955E-01
         -2   -1    0    0    0  501 -0.00000000000E+00  0.00000000000E+00  0.24728048336E+03  0.24728048336E+03  0.00000000000E+00 0. -1.
          2   -1    0    0  501    0  0.00000000000E+00 -0.00000000000E+00 -0.10132995668E+04  0.10132995668E+04  0.00000000000E+00 0. -1.
         36    2    1    2    0    0  0.00000000000E+00 -0.28421709430E-13 -0.76601908345E+03  0.12605800502E+04  0.10011377661E+04 0.  0.
         25    2    3    3    0    0 -0.36442437449E+02  0.83396100338E+02 -0.28109760993E+03  0.32086377575E+03  0.12511888538E+03 0.  0.
         35    2    3    3    0    0  0.36442437449E+02 -0.83396100338E+02 -0.48492147352E+03  0.93971627443E+03  0.79977176753E+03 0.  0.
         22    1    5    5    0    0  0.67615959406E+02 -0.40526896283E+03 -0.75105608359E+02  0.41767894681E+03  0.00000000000E+00 0. -1.
         22    1    5    5    0    0 -0.31173521957E+02  0.32187286250E+03 -0.40981586516E+03  0.52203732761E+03  0.00000000000E+00 0. -1.
          5    1    4    4  502    0 -0.14825941059E+02 -0.24772157095E+02 -0.15217873896E+02  0.32971836183E+02  0.47000000000E+01 0. -1.
         -5    1    4    4    0  502 -0.21616496390E+02  0.10816825743E+03 -0.26587973603E+03  0.28789193956E+03  0.47000000000E+01 0. -1.
<mgrwt>
<rscale>  0 0.10011378E+04</rscale>
<asrwt>0</asrwt>
<pdfrwt beam="1">  1        2 0.15589224E+00 0.10011378E+04</pdfrwt>
<pdfrwt beam="2">  1       -2 0.38043151E-01 0.10011378E+04</pdfrwt>
<totfact> 0.19469884E+02</totfact>
</mgrwt>
</event>
<event>
 9    1  0.4321150E-036  0.1000886E+04  0.7818608E-02  0.8680194E-01
          2   -1    0    0  501    0  0.00000000000E+00  0.00000000000E+00  0.50169196506E+03  0.50169196506E+03  0.00000000000E+00 0. -1.
         -2   -1    0    0    0  501 -0.00000000000E+00 -0.00000000000E+00 -0.49919756060E+03  0.49919756060E+03  0.00000000000E+00 0. -1.
         36    2    1    2    0    0  0.88817841970E-14 -0.28421709430E-13  0.24944044594E+01  0.10008895257E+04  0.10008864174E+04 0.  0.
         25    2    3    3    0    0 -0.39903639421E+01  0.10328317329E+03  0.95294045088E+02  0.18881427120E+03  0.12604180691E+03 0.  0.
         35    2    3    3    0    0  0.39903639421E+01 -0.10328317329E+03 -0.92799640629E+02  0.81207525447E+03  0.80010693581E+03 0.  0.
         22    1    5    5    0    0 -0.28908316711E+03 -0.31727705550E+03 -0.12690252392E+03  0.44759139629E+03  0.00000000000E+00 0. -1.
         22    1    5    5    0    0  0.29307353105E+03  0.21399388221E+03  0.34102883288E+02  0.36448385818E+03  0.00000000000E+00 0. -1.
          5    1    4    4  502    0 -0.10304274083E+02  0.97800693326E+02  0.56049578434E+01  0.98613686838E+02  0.47000000000E+01 0. -1.
         -5    1    4    4    0  502  0.63139101408E+01  0.54824799686E+01  0.89689087245E+02  0.90200584359E+02  0.47000000000E+01 0. -1.
<mgrwt>
<rscale>  0 0.10008864E+04</rscale>
<asrwt>0</asrwt>
<pdfrwt beam="1">  1        2 0.77183379E-01 0.10008864E+04</pdfrwt>
<pdfrwt beam="2">  1       -2 0.76799625E-01 0.10008864E+04</pdfrwt>
<totfact> 0.11215427E+02</totfact>
</mgrwt>
</event>
<event>
 9    1  0.4321150E-036  0.9997610E+03  0.7818608E-02  0.8681266E-01
         -2   -1    0    0    0  501 -0.00000000000E+00  0.00000000000E+00  0.15959286791E+03  0.15959286791E+03  0.00000000000E+00 0. -1.
          2   -1    0    0  501    0  0.00000000000E+00 -0.00000000000E+00 -0.15657372702E+04  0.15657372702E+04  0.00000000000E+00 0. -1.
         36    2    1    2    0    0  0.28421709430E-13 -0.14210854715E-13 -0.14061444023E+04  0.17253301381E+04  0.99976097413E+03 0.  0.
         25    2    3    3    0    0  0.13605036505E+03 -0.22744056078E+02 -0.30703183223E+03  0.35908620692E+03  0.12508942431E+03 0.  0.
         35    2    3    3    0    0 -0.13605036505E+03  0.22744056078E+02 -0.10991125701E+04  0.13662439312E+04  0.79971685236E+03 0.  0.
         22    1    5    5    0    0 -0.13483597724E+03 -0.27109475146E+02  0.97502972773E+02  0.16858972122E+03  0.00000000000E+00 0. -1.
         22    1    5    5    0    0 -0.12143878128E+01  0.49853531224E+02 -0.11966155429E+04  0.11976542100E+04  0.00000000000E+00 0. -1.
          5    1    4    4  502    0  0.10156120144E+03 -0.70726393963E+02 -0.17535915027E+03  0.21468540245E+03  0.47000000000E+01 0. -1.
         -5    1    4    4    0  502  0.34489163616E+02  0.47982337885E+02 -0.13167268196E+03  0.14440080447E+03  0.47000000000E+01 0. -1.
<mgrwt>
<rscale>  0 0.99976097E+03</rscale>
<asrwt>0</asrwt>
<pdfrwt beam="1">  1        2 0.24088266E+00 0.99976097E+03</pdfrwt>
<pdfrwt beam="2">  1       -2 0.24552748E-01 0.99976097E+03</pdfrwt>
<totfact> 0.20599735E+02</totfact>
</mgrwt>
</event>
<event>
 9    1  0.4321150E-036  0.9991606E+03  0.7818608E-02  0.8681838E-01
         -2   -1    0    0    0  501 -0.00000000000E+00  0.00000000000E+00  0.30952811239E+03  0.30952811239E+03  0.00000000000E+00 0.  1.
          2   -1    0    0  501    0  0.00000000000E+00 -0.00000000000E+00 -0.80632575323E+03  0.80632575323E+03  0.00000000000E+00 0.  1.
         36    2    1    2    0    0  0.42632564146E-13  0.28421709430E-13 -0.49679764083E+03  0.11158538656E+04  0.99916062447E+03 0.  0.
         25    2    3    3    0    0 -0.60910573844E+02 -0.11450365672E+03 -0.33924880639E+02  0.18288079768E+03  0.12439173295E+03 0.  0.
         35    2    3    3    0    0  0.60910573844E+02  0.11450365672E+03 -0.46287276019E+03  0.93297306794E+03  0.79960388191E+03 0.  0.
         22    1    5    5    0    0 -0.36386944763E+03  0.11214025189E+03 -0.26800960679E+03  0.46562383997E+03  0.00000000000E+00 0. -1.
         22    1    5    5    0    0  0.42478002148E+03  0.23634048280E+01 -0.19486315341E+03  0.46734922797E+03  0.00000000000E+00 0. -1.
          5    1    4    4  502    0  0.16620004531E+02  0.16035384254E+02 -0.18956041246E+02  0.30245323580E+02  0.47000000000E+01 0. -1.
         -5    1    4    4    0  502 -0.77530578375E+02 -0.13053904097E+03 -0.14968839394E+02  0.15263547410E+03  0.47000000000E+01 0. -1.
<mgrwt>
<rscale>  0 0.99916062E+03</rscale>
<asrwt>0</asrwt>
<pdfrwt beam="1">  1        2 0.12405012E+00 0.99916062E+03</pdfrwt>
<pdfrwt beam="2">  1       -2 0.47619710E-01 0.99916062E+03</pdfrwt>
<totfact> 0.17238490E+02</totfact>
</mgrwt>
</event>
<event>
 9    1  0.4321150E-036  0.9999764E+03  0.7818608E-02  0.8681060E-01
         -2   -1    0    0    0  501 -0.00000000000E+00  0.00000000000E+00  0.41020681451E+03  0.41020681451E+03  0.00000000000E+00 0.  1.
          2   -1    0    0  501    0  0.00000000000E+00 -0.00000000000E+00 -0.60941986993E+03  0.60941986993E+03  0.00000000000E+00 0.  1.
         36    2    1    2    0    0  0.00000000000E+00 -0.26645352591E-14 -0.19921305542E+03  0.10196266844E+04  0.99997636680E+03 0.  0.
         25    2    3    3    0    0 -0.73424432569E+02 -0.52233009718E+01  0.87695486891E+02  0.16636310890E+03  0.12069695692E+03 0.  0.
         35    2    3    3    0    0  0.73424432569E+02  0.52233009718E+01 -0.28690854231E+03  0.85326357554E+03  0.80020234161E+03 0.  0.
         22    1    5    5    0    0  0.20548947070E+03 -0.36011543937E+03 -0.16294245059E+03  0.44548770403E+03  0.00000000000E+00 0. -1.
         22    1    5    5    0    0 -0.13206503813E+03  0.36533874034E+03 -0.12396609172E+03  0.40777587151E+03  0.00000000000E+00 0. -1.
          5    1    4    4  502    0 -0.38279612878E+02 -0.91974606678E+01 -0.25858387501E+02  0.47335697407E+02  0.47000000000E+01 0. -1.
         -5    1    4    4    0  502 -0.35144819690E+02  0.39741596960E+01  0.11355387439E+03  0.11902741149E+03  0.47000000000E+01 0. -1.
<mgrwt>
<rscale>  0 0.99997637E+03</rscale>
<asrwt>0</asrwt>
<pdfrwt beam="1">  1        2 0.93756903E-01 0.99997637E+03</pdfrwt>
<pdfrwt beam="2">  1       -2 0.63108741E-01 0.99997637E+03</pdfrwt>
<totfact> 0.13696129E+02</totfact>
</mgrwt>
</event>
<event>
 9    1  0.4321150E-036  0.9979458E+03  0.7818608E-02  0.8682997E-01
          2   -1    0    0  501    0  0.00000000000E+00  0.00000000000E+00  0.91402252258E+03  0.91402252258E+03  0.00000000000E+00 0. -1.
         -2   -1    0    0    0  501 -0.00000000000E+00 -0.00000000000E+00 -0.27239369379E+03  0.27239369379E+03  0.00000000000E+00 0. -1.
         36    2    1    2    0    0  0.21316282073E-13  0.42632564146E-13  0.64162882879E+03  0.11864162164E+04  0.99794583247E+03 0.  0.
         25    2    3    3    0    0 -0.21895728264E+02  0.11432527703E+03  0.30692037944E+02  0.17255076625E+03  0.12362068539E+03 0.  0.
         35    2    3    3    0    0  0.21895728264E+02 -0.11432527703E+03  0.61093679085E+03  0.10138654501E+04  0.80070574911E+03 0.  0.
         22    1    5    5    0    0  0.21068250645E+03  0.24891557466E+03  0.48708038641E+03  0.58616839275E+03  0.00000000000E+00 0. -1.
         22    1    5    5    0    0 -0.18878677819E+03 -0.36324085170E+03  0.12385640443E+03  0.42769705737E+03  0.00000000000E+00 0. -1.
          5    1    4    4  502    0 -0.17138198090E+02  0.13596173148E+03  0.46661282198E+02  0.14484017232E+03  0.47000000000E+01 0.  1.
         -5    1    4    4    0  502 -0.47575301745E+01 -0.21636454444E+02 -0.15969244253E+02  0.27710593936E+02  0.47000000000E+01 0.  1.
<mgrwt>
<rscale>  0 0.99794583E+03</rscale>
<asrwt>0</asrwt>
<pdfrwt beam="1">  1        2 0.14061885E+00 0.99794583E+03</pdfrwt>
<pdfrwt beam="2">  1       -2 0.41906722E-01 0.99794583E+03</pdfrwt>
<totfact> 0.18723805E+02</totfact>
</mgrwt>
</event>
<event>
 9    1  0.4321150E-036  0.9988906E+03  0.7818608E-02  0.8682095E-01
         -1   -1    0    0    0  501 -0.00000000000E+00  0.00000000000E+00  0.16125534637E+03  0.16125534637E+03  0.00000000000E+00 0. -1.
          1   -1    0    0  501    0  0.00000000000E+00 -0.00000000000E+00 -0.15468981877E+04  0.15468981877E+04  0.00000000000E+00 0. -1.
         36    2    1    2    0    0 -0.14210854715E-13 -0.71054273576E-14 -0.13856428413E+04  0.17081535341E+04  0.99889059070E+03 0.  0.
         25    2    3    3    0    0  0.28235906251E+02  0.63091268569E+02 -0.46522230430E+03  0.48669668232E+03  0.12515627666E+03 0.  0.
         35    2    3    3    0    0 -0.28235906251E+02 -0.63091268569E+02 -0.92042053703E+03  0.12214568517E+04  0.80000318819E+03 0.  0.
         22    1    5    5    0    0  0.37730229419E+03 -0.10184129045E+03 -0.51738125921E+03  0.64839188538E+03  0.00000000000E+00 0.  1.
         22    1    5    5    0    0 -0.40553820044E+03  0.38750021882E+02 -0.40303927782E+03  0.57306496637E+03  0.00000000000E+00 0.  1.
          5    1    4    4  502    0  0.68129195346E+02  0.28854586907E+02 -0.15266151567E+03  0.16971093898E+03  0.47000000000E+01 0.  1.
         -5    1    4    4    0  502 -0.39893289094E+02  0.34236681662E+02 -0.31256078864E+03  0.31698574334E+03  0.47000000000E+01 0.  1.
<mgrwt>
<rscale>  0 0.99889059E+03</rscale>
<asrwt>0</asrwt>
<pdfrwt beam="1">  1        1 0.23798433E+00 0.99889059E+03</pdfrwt>
<pdfrwt beam="2">  1       -1 0.24808516E-01 0.99889059E+03</pdfrwt>
<totfact> 0.92722377E+01</totfact>
</mgrwt>
</event>
<event>
 9    1  0.4321150E-036  0.1001407E+04  0.7818608E-02  0.8679699E-01
          2   -1    0    0  501    0  0.00000000000E+00  0.00000000000E+00  0.21227871392E+04  0.21227871392E+04  0.00000000000E+00 0.  1.
         -2   -1    0    0    0  501 -0.00000000000E+00 -0.00000000000E+00 -0.11810127474E+03  0.11810127474E+03  0.00000000000E+00 0.  1.
         36    2    1    2    0    0 -0.14210854715E-13  0.00000000000E+00  0.20046858644E+04  0.22408884139E+04  0.10014067448E+04 0.  0.
         25    2    3    3    0    0 -0.43510935655E+02  0.12980764845E+03  0.31521447621E+03  0.36643077956E+03  0.12715393460E+03 0.  0.
         35    2    3    3    0    0  0.43510935655E+02 -0.12980764845E+03  0.16894713882E+04  0.18744576344E+04  0.80033407040E+03 0.  0.
         22    1    5    5    0    0  0.64139268757E+02  0.28104412947E+03  0.26426344388E+03  0.39106881271E+03  0.00000000000E+00 0.  1.
         22    1    5    5    0    0 -0.20628333103E+02 -0.41085177791E+03  0.14252079444E+04  0.14833888216E+04  0.00000000000E+00 0.  1.
          5    1    4    4  502    0  0.21765843587E+02  0.11391446294E+03  0.16422838926E+03  0.20110522284E+03  0.47000000000E+01 0.  1.
         -5    1    4    4    0  502 -0.65276779241E+02  0.15893185502E+02  0.15098608695E+03  0.16532555672E+03  0.47000000000E+01 0.  1.
<mgrwt>
<rscale>  0 0.10014067E+04</rscale>
<asrwt>0</asrwt>
<pdfrwt beam="1">  1        2 0.32658261E+00 0.10014067E+04</pdfrwt>
<pdfrwt beam="2">  1       -2 0.18169428E-01 0.10014067E+04</pdfrwt>
<totfact> 0.16818051E+02</totfact>
</mgrwt>
</event>
<event>
 9    1  0.4321150E-036  0.9985216E+03  0.7818608E-02  0.8682447E-01
          2   -1    0    0  501    0  0.00000000000E+00  0.00000000000E+00  0.38049648296E+04  0.38049648296E+04  0.00000000000E+00 0.  1.
         -2   -1    0    0    0  501 -0.00000000000E+00 -0.00000000000E+00 -0.65509494608E+02  0.65509494608E+02  0.00000000000E+00 0.  1.
         36    2    1    2    0    0  0.14210854715E-13  0.42632564146E-13  0.37394553350E+04  0.38704743242E+04  0.99852155307E+03 0.  0.
         25    2    3    3    0    0  0.31502785975E+02  0.11390009645E+03  0.98179480038E+03  0.99667928674E+03  0.12443035430E+03 0.  0.
         35    2    3    3    0    0 -0.31502785975E+02 -0.11390009645E+03  0.27576605346E+04  0.28737950374E+04  0.80002539691E+03 0.  0.
         22    1    5    5    0    0  0.14291704801E+03  0.31462843364E+03  0.11305854910E+04  0.11822182059E+04  0.00000000000E+00 0. -1.
         22    1    5    5    0    0 -0.17441983398E+03 -0.42852853009E+03  0.16270750435E+04  0.16915768315E+04  0.00000000000E+00 0. -1.
          5    1    4    4  502    0 -0.33529147483E+02  0.91101927212E+02  0.69054975893E+03  0.69735559396E+03  0.47000000000E+01 0. -1.
         -5    1    4    4    0  502  0.65031933459E+02  0.22798169240E+02  0.29124504145E+03  0.29932369278E+03  0.47000000000E+01 0. -1.
<mgrwt>
<rscale>  0 0.99852155E+03</rscale>
<asrwt>0</asrwt>
<pdfrwt beam="1">  1        2 0.58537903E+00 0.99852155E+03</pdfrwt>
<pdfrwt beam="2">  1       -2 0.10078387E-01 0.99852155E+03</pdfrwt>
<totfact> 0.32760601E+01</totfact>
</mgrwt>
</event>
<event>
 9    1  0.4321150E-036  0.9996698E+03  0.7818608E-02  0.8681352E-01
          1   -1    0    0  501    0  0.00000000000E+00  0.00000000000E+00  0.35415886100E+03  0.35415886100E+03  0.00000000000E+00 0.  1.
         -1   -1    0    0    0  501 -0.00000000000E+00 -0.00000000000E+00 -0.70543186347E+03  0.70543186347E+03  0.00000000000E+00 0.  1.
         36    2    1    2    0    0  0.10658141036E-13  0.00000000000E+00 -0.35127300247E+03  0.10595907245E+04  0.99966983605E+03 0.  0.
         25    2    3    3    0    0 -0.10564361508E+02 -0.13017140214E+03 -0.11794593847E+03  0.21637923209E+03  0.12590682273E+03 0.  0.
         35    2    3    3    0    0  0.10564361508E+02  0.13017140214E+03 -0.23332706401E+03  0.84321149237E+03  0.79969237986E+03 0.  0.
         22    1    5    5    0    0 -0.14194477321E+03 -0.22916304838E+03  0.13940883585E+03  0.30347791500E+03  0.00000000000E+00 0. -1.
         22    1    5    5    0    0  0.15250913472E+03  0.35933445052E+03 -0.37273589985E+03  0.53973357737E+03  0.00000000000E+00 0. -1.
          5    1    4    4  502    0  0.18552558989E+01 -0.28868447842E+02 -0.11007183636E+03  0.11390666537E+03  0.47000000000E+01 0. -1.
         -5    1    4    4    0  502 -0.12419617407E+02 -0.10130295430E+03 -0.78741021030E+01  0.10247256672E+03  0.47000000000E+01 0. -1.
<mgrwt>
<rscale>  0 0.99966984E+03</rscale>
<asrwt>0</asrwt>
<pdfrwt beam="1">  1        1 0.54485979E-01 0.99966984E+03</pdfrwt>
<pdfrwt beam="2">  1       -1 0.10852798E+00 0.99966984E+03</pdfrwt>
<totfact> 0.66792596E+01</totfact>
</mgrwt>
</event>
<event>
 9    1  0.4321150E-036  0.1000003E+04  0.7818608E-02  0.8681035E-01
         -1   -1    0    0    0  501 -0.00000000000E+00  0.00000000000E+00  0.15063924099E+03  0.15063924099E+03  0.00000000000E+00 0. -1.
          1   -1    0    0  501    0  0.00000000000E+00 -0.00000000000E+00 -0.16596035803E+04  0.16596035803E+04  0.00000000000E+00 0. -1.
         36    2    1    2    0    0  0.71054273576E-13 -0.14210854715E-13 -0.15089643393E+04  0.18102428213E+04  0.10000028474E+04 0.  0.
         25    2    3    3    0    0  0.12346472424E+03 -0.30157572852E+02 -0.40002769133E+03  0.43757994167E+03  0.12369734916E+03 0.  0.
         35    2    3    3    0    0 -0.12346472424E+03  0.30157572852E+02 -0.11089366480E+04  0.13726628796E+04  0.79894297327E+03 0.  0.
         22    1    5    5    0    0  0.32110769770E+03  0.13892897510E+03 -0.44027936966E+03  0.56236761730E+03  0.00000000000E+00 0. -1.
         22    1    5    5    0    0 -0.44457242194E+03 -0.10877140224E+03 -0.66865727834E+03  0.81029526235E+03  0.00000000000E+00 0. -1.
          5    1    4    4  502    0  0.12810992492E+03 -0.59060490872E+02 -0.36694774138E+03  0.39315776649E+03  0.47000000000E+01 0. -1.
         -5    1    4    4    0  502 -0.46452006731E+01  0.28902918020E+02 -0.33079949951E+02  0.44422175185E+02  0.47000000000E+01 0. -1.
<mgrwt>
<rscale>  0 0.10000028E+04</rscale>
<asrwt>0</asrwt>
<pdfrwt beam="1">  1        1 0.25532364E+00 0.10000028E+04</pdfrwt>
<pdfrwt beam="2">  1       -1 0.23175267E-01 0.10000028E+04</pdfrwt>
<totfact> 0.86475442E+01</totfact>
</mgrwt>
</event>
<event>
 9    1  0.4321150E-036  0.9971965E+03  0.7818608E-02  0.8683712E-01
         -3   -1    0    0    0  501 -0.00000000000E+00  0.00000000000E+00  0.91330267924E+02  0.91330267924E+02  0.00000000000E+00 0.  1.
          3   -1    0    0  501    0  0.00000000000E+00 -0.00000000000E+00 -0.27219914172E+04  0.27219914172E+04  0.00000000000E+00 0.  1.
         36    2    1    2    0    0  0.14210854715E-13  0.14210854715E-13 -0.26306611493E+04  0.28133216852E+04  0.99719648099E+03 0.  0.
         25    2    3    3    0    0  0.95126162999E+02  0.86119552082E+02 -0.35117855258E+03  0.39420896250E+03  0.12493504786E+03 0.  0.
         35    2    3    3    0    0 -0.95126162999E+02 -0.86119552082E+02 -0.22794825967E+04  0.24191127227E+04  0.79974989341E+03 0.  0.
         22    1    5    5    0    0 -0.35657880177E+02 -0.35897717843E+03 -0.19679241926E+04  0.20007153038E+04  0.00000000000E+00 0.  1.
         22    1    5    5    0    0 -0.59468282822E+02  0.27285762635E+03 -0.31155840412E+03  0.41839741884E+03  0.00000000000E+00 0.  1.
          5    1    4    4  502    0  0.72559870594E+02 -0.10092136787E+02 -0.98451313091E+02  0.12280690980E+03  0.47000000000E+01 0.  1.
         -5    1    4    4    0  502  0.22566292405E+02  0.96211688869E+02 -0.25272723949E+03  0.27140205270E+03  0.47000000000E+01 0.  1.
<mgrwt>
<rscale>  0 0.99719648E+03</rscale>
<asrwt>0</asrwt>
<pdfrwt beam="1">  1        3 0.41876793E+00 0.99719648E+03</pdfrwt>
<pdfrwt beam="2">  1       -3 0.14050810E-01 0.99719648E+03</pdfrwt>
<totfact> 0.33658781E+00</totfact>
</mgrwt>
</event>
<event>
 9    1  0.4321150E-036  0.1004158E+04  0.7818608E-02  0.8677088E-01
          1   -1    0    0  501    0  0.00000000000E+00  0.00000000000E+00  0.52658063403E+03  0.52658063403E+03  0.00000000000E+00 0.  1.
         -1   -1    0    0    0  501 -0.00000000000E+00 -0.00000000000E+00 -0.47871780185E+03  0.47871780185E+03  0.00000000000E+00 0.  1.
         36    2    1    2    0    0  0.00000000000E+00  0.00000000000E+00  0.47862832180E+02  0.10052984359E+04  0.10041584011E+04 0.  0.
         25    2    3    3    0    0  0.13560754221E+03  0.43927918904E+02 -0.19229128524E+02  0.19063018062E+03  0.12510411190E+03 0.  0.
         35    2    3    3    0    0 -0.13560754221E+03 -0.43927918904E+02  0.67091960704E+02  0.81466825526E+03  0.79928966425E+03 0.  0.
         22    1    5    5    0    0 -0.65953795136E+02  0.17260071957E+03  0.38308954905E+03  0.42532165954E+03  0.00000000000E+00 0.  1.
         22    1    5    5    0    0 -0.69653747072E+02 -0.21652863847E+03 -0.31599758834E+03  0.38934659572E+03  0.00000000000E+00 0.  1.
          5    1    4    4  502    0 -0.15914832521E+02  0.33144625811E+02 -0.98992642694E+01  0.38365786156E+02  0.47000000000E+01 0. -1.
         -5    1    4    4    0  502  0.15152237473E+03  0.10783293092E+02 -0.93298642545E+01  0.15226439446E+03  0.47000000000E+01 0. -1.
<mgrwt>
<rscale>  0 0.10041584E+04</rscale>
<asrwt>0</asrwt>
<pdfrwt beam="1">  1        1 0.81012405E-01 0.10041584E+04</pdfrwt>
<pdfrwt beam="2">  1       -1 0.73648893E-01 0.10041584E+04</pdfrwt>
<totfact> 0.90086996E+01</totfact>
</mgrwt>
</event>
<event>
 9    1  0.4321150E-036  0.9998014E+03  0.7818608E-02  0.8681227E-01
          2   -1    0    0  501    0  0.00000000000E+00  0.00000000000E+00  0.32856327364E+04  0.32856327364E+04  0.00000000000E+00 0.  1.
         -2   -1    0    0    0  501 -0.00000000000E+00 -0.00000000000E+00 -0.76058622000E+02  0.76058622000E+02  0.00000000000E+00 0.  1.
         36    2    1    2    0    0  0.14210854715E-13  0.00000000000E+00  0.32095741144E+04  0.33616913584E+04  0.99980137693E+03 0.  0.
         25    2    3    3    0    0  0.57622930418E+02  0.19194254317E+02  0.17819686367E+03  0.22608133537E+03  0.12517917747E+03 0.  0.
         35    2    3    3    0    0 -0.57622930418E+02 -0.19194254317E+02  0.30313772508E+04  0.31356100231E+04  0.79944565718E+03 0.  0.
         22    1    5    5    0    0  0.28097696865E+03  0.12406415942E+02  0.24177168742E+04  0.24340207188E+04  0.00000000000E+00 0. -1.
         22    1    5    5    0    0 -0.33859989907E+03 -0.31600670259E+02  0.61366037659E+03  0.70158930422E+03  0.00000000000E+00 0. -1.
          5    1    4    4  502    0  0.47184635121E+02 -0.41118224160E+02  0.14090948505E+03  0.15425521426E+03  0.47000000000E+01 0.  1.
         -5    1    4    4    0  502  0.10438295297E+02  0.60312478477E+02  0.37287378617E+02  0.71826121104E+02  0.47000000000E+01 0.  1.
<mgrwt>
<rscale>  0 0.99980138E+03</rscale>
<asrwt>0</asrwt>
<pdfrwt beam="1">  1        2 0.50548185E+00 0.99980138E+03</pdfrwt>
<pdfrwt beam="2">  1       -2 0.11701329E-01 0.99980138E+03</pdfrwt>
<totfact> 0.64173609E+01</totfact>
</mgrwt>
</event>
<event>
 9    1  0.4321150E-036  0.1000132E+04  0.7818608E-02  0.8680913E-01
          2   -1    0    0  501    0  0.00000000000E+00  0.00000000000E+00  0.22860466857E+04  0.22860466857E+04  0.00000000000E+00 0.  1.
         -2   -1    0    0    0  501 -0.00000000000E+00 -0.00000000000E+00 -0.10938786705E+03  0.10938786705E+03  0.00000000000E+00 0.  1.
         36    2    1    2    0    0 -0.71054273576E-14  0.14210854715E-13  0.21766588187E+04  0.23954345528E+04  0.10001315332E+04 0.  0.
         25    2    3    3    0    0 -0.26618532997E+02 -0.58816812115E+02  0.69899491804E+03  0.71362684595E+03  0.12845783795E+03 0.  0.
         35    2    3    3    0    0  0.26618532997E+02  0.58816812115E+02  0.14776639006E+04  0.16818077068E+04  0.80051145890E+03 0.  0.
         22    1    5    5    0    0  0.38857012796E+03 -0.87125792951E+02  0.90575715207E+03  0.98943098126E+03  0.00000000000E+00 0.  1.
         22    1    5    5    0    0 -0.36195159496E+03  0.14594260507E+03  0.57190674856E+03  0.69237672558E+03  0.00000000000E+00 0.  1.
          5    1    4    4  502    0  0.22528425997E+02  0.18874528208E+01  0.48872334509E+03  0.48926852596E+03  0.47000000000E+01 0. -1.
         -5    1    4    4    0  502 -0.49146958994E+02 -0.60704264935E+02  0.21027157295E+03  0.22435831999E+03  0.47000000000E+01 0. -1.
<mgrwt>
<rscale>  0 0.10001315E+04</rscale>
<asrwt>0</asrwt>
<pdfrwt beam="1">  1        2 0.35169945E+00 0.10001315E+04</pdfrwt>
<pdfrwt beam="2">  1       -2 0.16828904E-01 0.10001315E+04</pdfrwt>
<totfact> 0.15398467E+02</totfact>
</mgrwt>
</event>
<event>
 9    1  0.4321150E-036  0.9969069E+03  0.7818608E-02  0.8683989E-01
          1   -1    0    0  501    0  0.00000000000E+00  0.00000000000E+00  0.24695311783E+03  0.24695311783E+03  0.00000000000E+00 0.  1.
         -1   -1    0    0    0  501 -0.00000000000E+00 -0.00000000000E+00 -0.10060851091E+04  0.10060851091E+04  0.00000000000E+00 0.  1.
         36    2    1    2    0    0  0.28421709430E-13  0.14210854715E-13 -0.75913199126E+03  0.12530382269E+04  0.99690692543E+03 0.  0.
         25    2    3    3    0    0 -0.39875817647E+02 -0.53233439662E+02  0.70391612971E+01  0.14270952158E+03  0.12606576786E+03 0.  0.
         35    2    3    3    0    0  0.39875817647E+02  0.53233439662E+02 -0.76617115256E+03  0.11103287053E+04  0.80086685471E+03 0.  0.
         22    1    5    5    0    0 -0.29672060830E+03 -0.43338300146E+02 -0.68946016172E+03  0.75184881608E+03  0.00000000000E+00 0. -1.
         22    1    5    5    0    0  0.33659642595E+03  0.96571739808E+02 -0.76710990841E+02  0.35847988926E+03  0.00000000000E+00 0. -1.
          5    1    4    4  502    0 -0.66397348138E+02 -0.76304921085E+02 -0.12814503675E+02  0.10206542179E+03  0.47000000000E+01 0.  1.
         -5    1    4    4    0  502  0.26521530490E+02  0.23071481423E+02  0.19853664972E+02  0.40644099786E+02  0.47000000000E+01 0.  1.
<mgrwt>
<rscale>  0 0.99690693E+03</rscale>
<asrwt>0</asrwt>
<pdfrwt beam="1">  1        1 0.37992786E-01 0.99690693E+03</pdfrwt>
<pdfrwt beam="2">  1       -1 0.15478233E+00 0.99690693E+03</pdfrwt>
<totfact> 0.42238473E+01</totfact>
</mgrwt>
</event>
<event>
 9    1  0.4321150E-036  0.9997297E+03  0.7818608E-02  0.8681295E-01
          1   -1    0    0  501    0  0.00000000000E+00  0.00000000000E+00  0.16580351528E+04  0.16580351528E+04  0.00000000000E+00 0.  1.
         -1   -1    0    0    0  501 -0.00000000000E+00 -0.00000000000E+00 -0.15069938556E+03  0.15069938556E+03  0.00000000000E+00 0.  1.
         36    2    1    2    0    0 -0.17763568394E-13  0.00000000000E+00  0.15073357673E+04  0.18087345384E+04  0.99972972100E+03 0.  0.
         25    2    3    3    0    0 -0.16919467278E+02  0.83112046396E+02  0.48107515649E+03  0.50458815077E+03  0.12641999477E+03 0.  0.
         35    2    3    3    0    0  0.16919467278E+02 -0.83112046396E+02  0.10262606108E+04  0.13041463876E+04  0.80024563633E+03 0.  0.
         22    1    5    5    0    0 -0.24858023067E+03  0.23228757676E+03  0.23999143178E+03  0.41634785543E+03  0.00000000000E+00 0.  1.
         22    1    5    5    0    0  0.26549969795E+03 -0.31539962315E+03  0.78626917902E+03  0.88779853220E+03  0.00000000000E+00 0.  1.
          5    1    4    4  502    0 -0.49515133217E+01  0.10769859801E+03  0.25609095861E+03  0.27789957642E+03  0.47000000000E+01 0. -1.
         -5    1    4    4    0  502 -0.11967953956E+02 -0.24586551611E+02  0.22498419788E+03  0.22668857435E+03  0.47000000000E+01 0. -1.
<mgrwt>
<rscale>  0 0.99972972E+03</rscale>
<asrwt>0</asrwt>
<pdfrwt beam="1">  1        1 0.25508232E+00 0.99972972E+03</pdfrwt>
<pdfrwt beam="2">  1       -1 0.23184522E-01 0.99972972E+03</pdfrwt>
<totfact> 0.86640227E+01</totfact>
</mgrwt>
</event>
<event>
 9    1  0.4321150E-036  0.1000214E+04  0.7818608E-02  0.8680834E-01
         -1   -1    0    0    0  501 -0.00000000000E+00  0.00000000000E+00  0.23091472792E+03  0.23091472792E+03  0.00000000000E+00 0.  1.
          1   -1    0    0  501    0  0.00000000000E+00 -0.00000000000E+00 -0.10831139461E+04  0.10831139461E+04  0.00000000000E+00 0.  1.
         36    2    1    2    0    0  0.00000000000E+00 -0.14210854715E-13 -0.85219921820E+03  0.13140286740E+04  0.10002139015E+04 0.  0.
         25    2    3    3    0    0 -0.11740272623E+03  0.61579929515E+02 -0.21978894659E+03  0.28564817306E+03  0.12534835415E+03 0.  0.
         35    2    3    3    0    0  0.11740272623E+03 -0.61579929515E+02 -0.63241027161E+03  0.10283805010E+04  0.80003013399E+03 0.  0.
         22    1    5    5    0    0  0.22499710888E+03 -0.34211110673E+03 -0.10714438930E+03  0.42325362197E+03  0.00000000000E+00 0.  1.
         22    1    5    5    0    0 -0.10759438265E+03  0.28053117721E+03 -0.52526588231E+03  0.60512687900E+03  0.00000000000E+00 0.  1.
          5    1    4    4  502    0 -0.72927951675E+02 -0.14100320320E+02 -0.16768451039E+03  0.18345977813E+03  0.47000000000E+01 0. -1.
         -5    1    4    4    0  502 -0.44474774553E+02  0.75680249835E+02 -0.52104436197E+02  0.10218839493E+03  0.47000000000E+01 0. -1.
<mgrwt>
<rscale>  0 0.10002139E+04</rscale>
<asrwt>0</asrwt>
<pdfrwt beam="1">  1        1 0.16663291E+00 0.10002139E+04</pdfrwt>
<pdfrwt beam="2">  1       -1 0.35525343E-01 0.10002139E+04</pdfrwt>
<totfact> 0.10970406E+02</totfact>
</mgrwt>
</event>
<event>
 9    1  0.4321150E-036  0.9999793E+03  0.7818608E-02  0.8681058E-01
          2   -1    0    0  501    0  0.00000000000E+00  0.00000000000E+00  0.18631068078E+04  0.18631068078E+04  0.00000000000E+00 0.  1.
         -2   -1    0    0    0  501 -0.00000000000E+00 -0.00000000000E+00 -0.13417892438E+03  0.13417892438E+03  0.00000000000E+00 0.  1.
         36    2    1    2    0    0  0.00000000000E+00 -0.42632564146E-13  0.17289278834E+04  0.19972857321E+04  0.99997933471E+03 0.  0.
         25    2    3    3    0    0 -0.13562617629E+03 -0.47696313214E+02  0.27920797585E+03  0.33644175647E+03  0.12069202016E+03 0.  0.
         35    2    3    3    0    0  0.13562617629E+03  0.47696313214E+02  0.14497199075E+04  0.16608439757E+04  0.79752460978E+03 0.  0.
         22    1    5    5    0    0 -0.17995524311E+02 -0.36593965847E+03  0.72626145682E+03  0.81344414449E+03  0.00000000000E+00 0.  1.
         22    1    5    5    0    0  0.15362170060E+03  0.41363597169E+03  0.72345845072E+03  0.84739983118E+03  0.00000000000E+00 0.  1.
          5    1    4    4  502    0 -0.13087552393E+03 -0.79289467214E+02  0.20811608540E+03  0.25835947317E+03  0.47000000000E+01 0. -1.
         -5    1    4    4    0  502 -0.47506523554E+01  0.31593154000E+02  0.71091890450E+02  0.78082283300E+02  0.47000000000E+01 0. -1.
<mgrwt>
<rscale>  0 0.99997933E+03</rscale>
<asrwt>0</asrwt>
<pdfrwt beam="1">  1        2 0.28663180E+00 0.99997933E+03</pdfrwt>
<pdfrwt beam="2">  1       -2 0.20642913E-01 0.99997933E+03</pdfrwt>
<totfact> 0.18976816E+02</totfact>
</mgrwt>
</event>
<event>
 9    1  0.4321150E-036  0.9995486E+03  0.7818608E-02  0.8681468E-01
          2   -1    0    0  501    0  0.00000000000E+00  0.00000000000E+00  0.72921835129E+03  0.72921835129E+03  0.00000000000E+00 0. -1.
         -2   -1    0    0    0  501 -0.00000000000E+00 -0.00000000000E+00 -0.34252339883E+03  0.34252339883E+03  0.00000000000E+00 0. -1.
         36    2    1    2    0    0  0.00000000000E+00  0.00000000000E+00  0.38669495246E+03  0.10717417501E+04  0.99954859447E+03 0.  0.
         25    2    3    3    0    0 -0.82138497386E+02  0.78749621972E+02 -0.15375508239E+02  0.16966432645E+03  0.12490533096E+03 0.  0.
         35    2    3    3    0    0  0.82138497386E+02 -0.78749621972E+02  0.40207046070E+03  0.90207742368E+03  0.79945905913E+03 0.  0.
         22    1    5    5    0    0 -0.10579006844E+03  0.10730020759E+02  0.60328012100E+03  0.61257944490E+03  0.00000000000E+00 0.  1.
         22    1    5    5    0    0  0.18792856583E+03 -0.89479642731E+02 -0.20120966030E+03  0.28949797878E+03  0.00000000000E+00 0.  1.
          5    1    4    4  502    0 -0.82279171544E+02 -0.55096069997E+01 -0.20550761686E+02  0.85115460670E+02  0.47000000000E+01 0.  1.
         -5    1    4    4    0  502  0.14067415809E+00  0.84259228972E+02  0.51752534466E+01  0.84548865778E+02  0.47000000000E+01 0.  1.
<mgrwt>
<rscale>  0 0.99954859E+03</rscale>
<asrwt>0</asrwt>
<pdfrwt beam="1">  1        2 0.11218744E+00 0.99954859E+03</pdfrwt>
<pdfrwt beam="2">  1       -2 0.52695908E-01 0.99954859E+03</pdfrwt>
<totfact> 0.15990517E+02</totfact>
</mgrwt>
</event>
<event>
 9    1  0.4321150E-036  0.1000186E+04  0.7818608E-02  0.8680861E-01
          2   -1    0    0  501    0  0.00000000000E+00  0.00000000000E+00  0.22366572481E+04  0.22366572481E+04  0.00000000000E+00 0. -1.
         -2   -1    0    0    0  501 -0.00000000000E+00 -0.00000000000E+00 -0.11181551181E+03  0.11181551181E+03  0.00000000000E+00 0. -1.
         36    2    1    2    0    0 -0.42632564146E-13  0.00000000000E+00  0.21248417363E+04  0.23484727599E+04  0.10001859326E+04 0.  0.
         25    2    3    3    0    0 -0.28935703625E+02 -0.12728022049E+03  0.27976943830E+03  0.33336262168E+03  0.12578620535E+03 0.  0.
         35    2    3    3    0    0  0.28935703625E+02  0.12728022049E+03  0.18450722980E+04  0.20151101382E+04  0.79958711525E+03 0.  0.
         22    1    5    5    0    0  0.37574791304E+03  0.72770040164E+01  0.13339800608E+04  0.13859084571E+04  0.00000000000E+00 0. -1.
         22    1    5    5    0    0 -0.34681220942E+03  0.12000321647E+03  0.51109223718E+03  0.62920168107E+03  0.00000000000E+00 0. -1.
          5    1    4    4  502    0  0.31616330700E+02 -0.13706045165E+02  0.13584130312E+03  0.14022267175E+03  0.47000000000E+01 0.  1.
         -5    1    4    4    0  502 -0.60552034325E+02 -0.11357417532E+03  0.14392813518E+03  0.19313994992E+03  0.47000000000E+01 0.  1.
<mgrwt>
<rscale>  0 0.10001859E+04</rscale>
<asrwt>0</asrwt>
<pdfrwt beam="1">  1        2 0.34410108E+00 0.10001859E+04</pdfrwt>
<pdfrwt beam="2">  1       -2 0.17202388E-01 0.10001859E+04</pdfrwt>
<totfact> 0.15858015E+02</totfact>
</mgrwt>
</event>
<event>
 9    1  0.4321150E-036  0.9990828E+03  0.7818608E-02  0.8681912E-01
          1   -1    0    0  501    0  0.00000000000E+00  0.00000000000E+00  0.22900830257E+04  0.22900830257E+04  0.00000000000E+00 0. -1.
         -1   -1    0    0    0  501 -0.00000000000E+00 -0.00000000000E+00 -0.10896617395E+03  0.10896617395E+03  0.00000000000E+00 0. -1.
         36    2    1    2    0    0 -0.14210854715E-13  0.21316282073E-13  0.21811168518E+04  0.23990491997E+04  0.99908275003E+03 0.  0.
         25    2    3    3    0    0 -0.48805001685E+02  0.35500205852E+02  0.10866473956E+03  0.17628742285E+03  0.12500814785E+03 0.  0.
         35    2    3    3    0    0  0.48805001685E+02 -0.35500205852E+02  0.20724521122E+04  0.22227617768E+04  0.80123028293E+03 0.  0.
         22    1    5    5    0    0  0.19876322769E+03 -0.19386235223E+03  0.21138745827E+03  0.34896144459E+03  0.00000000000E+00 0. -1.
         22    1    5    5    0    0 -0.14995822600E+03  0.15836214638E+03  0.18610646539E+04  0.18738003322E+04  0.00000000000E+00 0. -1.
          5    1    4    4  502    0  0.27713920216E+02  0.30902332308E+02 -0.17245281700E+01  0.41810040818E+02  0.47000000000E+01 0. -1.
         -5    1    4    4    0  502 -0.76518921901E+02  0.45978735431E+01  0.11038926773E+03  0.13447738204E+03  0.47000000000E+01 0. -1.
<mgrwt>
<rscale>  0 0.99908275E+03</rscale>
<asrwt>0</asrwt>
<pdfrwt beam="1">  1        1 0.35232043E+00 0.99908275E+03</pdfrwt>
<pdfrwt beam="2">  1       -1 0.16764028E-01 0.99908275E+03</pdfrwt>
<totfact> 0.53248217E+01</totfact>
</mgrwt>
</event>
<event>
 9    1  0.4321150E-036  0.9989818E+03  0.7818608E-02  0.8682008E-01
         -2   -1    0    0    0  501 -0.00000000000E+00  0.00000000000E+00  0.32474506805E+03  0.32474506805E+03  0.00000000000E+00 0.  1.
          2   -1    0    0  501    0  0.00000000000E+00 -0.00000000000E+00 -0.76826774700E+03  0.76826774700E+03  0.00000000000E+00 0.  1.
         36    2    1    2    0    0  0.28421709430E-13  0.14210854715E-13 -0.44352267895E+03  0.10930128150E+04  0.99898180520E+03 0.  0.
         25    2    3    3    0    0  0.71302432123E+02  0.11178871546E+03 -0.12346846341E+03  0.22041445362E+03  0.12552814895E+03 0.  0.
         35    2    3    3    0    0 -0.71302432123E+02 -0.11178871546E+03 -0.32005421554E+03  0.87259836143E+03  0.80088229207E+03 0.  0.
         22    1    5    5    0    0  0.33746498180E+03  0.98590173239E+02 -0.15364898532E+03  0.38368039680E+03  0.00000000000E+00 0.  1.
         22    1    5    5    0    0 -0.40876741392E+03 -0.21037888870E+03 -0.16640523021E+03  0.48891796463E+03  0.00000000000E+00 0.  1.
          5    1    4    4  502    0  0.65412327670E+02  0.97470995360E+02 -0.14927265802E+03  0.18995732147E+03  0.47000000000E+01 0.  1.
         -5    1    4    4    0  502  0.58901044535E+01  0.14317720097E+02  0.25804194612E+02  0.30457132150E+02  0.47000000000E+01 0.  1.
<mgrwt>
<rscale>  0 0.99898181E+03</rscale>
<asrwt>0</asrwt>
<pdfrwt beam="1">  1        2 0.11819504E+00 0.99898181E+03</pdfrwt>
<pdfrwt beam="2">  1       -2 0.49960781E-01 0.99898181E+03</pdfrwt>
<totfact> 0.16670963E+02</totfact>
</mgrwt>
</event>
<event>
 9    1  0.4321150E-036  0.9994559E+03  0.7818608E-02  0.8681556E-01
         -2   -1    0    0    0  501 -0.00000000000E+00  0.00000000000E+00  0.11997151521E+03  0.11997151521E+03  0.00000000000E+00 0. -1.
          2   -1    0    0  501    0  0.00000000000E+00 -0.00000000000E+00 -0.20815610569E+04  0.20815610569E+04  0.00000000000E+00 0. -1.
         36    2    1    2    0    0  0.28421709430E-13 -0.28421709430E-13 -0.19615895417E+04  0.22015325721E+04  0.99945591998E+03 0.  0.
         25    2    3    3    0    0  0.66532245659E+02  0.12215627759E+03 -0.38731501617E+03  0.43009061351E+03  0.12496526802E+03 0.  0.
         35    2    3    3    0    0 -0.66532245659E+02 -0.12215627759E+03 -0.15742745256E+04  0.17714419586E+04  0.80019849733E+03 0.  0.
         22    1    5    5    0    0 -0.33118384035E+03 -0.31029228419E+03 -0.65796755622E+03  0.79930303563E+03  0.00000000000E+00 0.  1.
         22    1    5    5    0    0  0.26465159469E+03  0.18813600661E+03 -0.91630696935E+03  0.97213892301E+03  0.00000000000E+00 0.  1.
          5    1    4    4  502    0  0.56414487019E+02 -0.60617448670E+01 -0.14371503706E+03  0.15458150269E+03  0.47000000000E+01 0.  1.
         -5    1    4    4    0  502  0.10117758640E+02  0.12821802245E+03 -0.24359997911E+03  0.27550911081E+03  0.47000000000E+01 0.  1.
<mgrwt>
<rscale>  0 0.99945592E+03</rscale>
<asrwt>0</asrwt>
<pdfrwt beam="1">  1        2 0.32024015E+00 0.99945592E+03</pdfrwt>
<pdfrwt beam="2">  1       -2 0.18457157E-01 0.99945592E+03</pdfrwt>
<totfact> 0.17289864E+02</totfact>
</mgrwt>
</event>
<event>
 9    1  0.4321150E-036  0.1000425E+04  0.7818608E-02  0.8680634E-01
         -1   -1    0    0    0  501 -0.00000000000E+00  0.00000000000E+00  0.24882212865E+03  0.24882212865E+03  0.00000000000E+00 0. -1.
          1   -1    0    0  501    0  0.00000000000E+00 -0.00000000000E+00 -0.10055874517E+04  0.10055874517E+04  0.00000000000E+00 0. -1.
         36    2    1    2    0    0  0.14210854715E-13 -0.14210854715E-13 -0.75676532309E+03  0.12544095804E+04  0.10004247304E+04 0.  0.
         25    2    3    3    0    0  0.70691366315E+02 -0.95078765565E+02 -0.47686756912E+02  0.17866030283E+03  0.12493292637E+03 0.  0.
         35    2    3    3    0    0 -0.70691366315E+02  0.95078765565E+02 -0.70907856617E+03  0.10757492776E+04  0.80025424349E+03 0.  0.
         22    1    5    5    0    0 -0.39836020806E+03  0.20272221649E+03 -0.50747168914E+03  0.67625044747E+03  0.00000000000E+00 0. -1.
         22    1    5    5    0    0  0.32766884174E+03 -0.10764345092E+03 -0.20160687703E+03  0.39949883009E+03  0.00000000000E+00 0. -1.
          5    1    4    4  502    0  0.75568401995E+02 -0.19964485751E+02 -0.64432979366E+02  0.10140445208E+03  0.47000000000E+01 0. -1.
         -5    1    4    4    0  502 -0.48770356801E+01 -0.75114279814E+02  0.16746222455E+02  0.77255850753E+02  0.47000000000E+01 0. -1.
<mgrwt>
<rscale>  0 0.10004247E+04</rscale>
<asrwt>0</asrwt>
<pdfrwt beam="1">  1        1 0.15470577E+00 0.10004247E+04</pdfrwt>
<pdfrwt beam="2">  1       -1 0.38280327E-01 0.10004247E+04</pdfrwt>
<totfact> 0.11061183E+02</totfact>
</mgrwt>
</event>
<event>
 9    1  0.4321150E-036  0.9999246E+03  0.7818608E-02  0.8681110E-01
         -1   -1    0    0    0  501 -0.00000000000E+00  0.00000000000E+00  0.16615210114E+03  0.16615210114E+03  0.00000000000E+00 0. -1.
          1   -1    0    0  501    0  0.00000000000E+00 -0.00000000000E+00 -0.15044184948E+04  0.15044184948E+04  0.00000000000E+00 0. -1.
         36    2    1    2    0    0  0.14210854715E-13  0.14210854715E-13 -0.13382663936E+04  0.16705705959E+04  0.99992458497E+03 0.  0.
         25    2    3    3    0    0  0.46343010271E+02 -0.10099137482E+03 -0.10766135002E+03  0.19874749760E+03  0.12475042735E+03 0.  0.
         35    2    3    3    0    0 -0.46343010271E+02  0.10099137482E+03 -0.12306050436E+04  0.14718230983E+04  0.79970464985E+03 0.  0.
         22    1    5    5    0    0 -0.31137464154E+03  0.13503295799E+03 -0.17291837087E+03  0.38090527710E+03  0.00000000000E+00 0. -1.
         22    1    5    5    0    0  0.26503163127E+03 -0.34041583173E+02 -0.10576866728E+04  0.10909178212E+04  0.00000000000E+00 0. -1.
          5    1    4    4  502    0 -0.13400237284E+02 -0.70954965825E+02 -0.51993637017E+00  0.72363898930E+02  0.47000000000E+01 0. -1.
         -5    1    4    4    0  502  0.59743247555E+02 -0.30036408993E+02 -0.10714141365E+03  0.12638359867E+03  0.47000000000E+01 0. -1.
<mgrwt>
<rscale>  0 0.99992458E+03</rscale>
<asrwt>0</asrwt>
<pdfrwt beam="1">  1        1 0.23144899E+00 0.99992458E+03</pdfrwt>
<pdfrwt beam="2">  1       -1 0.25561863E-01 0.99992458E+03</pdfrwt>
<totfact> 0.94520273E+01</totfact>
</mgrwt>
</event>
<event>
 9    1  0.4321150E-036  0.1000333E+04  0.7818608E-02  0.8680721E-01
         -2   -1    0    0    0  501 -0.00000000000E+00  0.00000000000E+00  0.42736246165E+03  0.42736246165E+03  0.00000000000E+00 0.  1.
          2   -1    0    0  501    0  0.00000000000E+00 -0.00000000000E+00 -0.58537279507E+03  0.58537279507E+03  0.00000000000E+00 0.  1.
         36    2    1    2    0    0  0.00000000000E+00 -0.71054273576E-14 -0.15801033342E+03  0.10127352567E+04  0.10003326620E+04 0.  0.
         25    2    3    3    0    0 -0.10242052039E+03 -0.37359414948E+02  0.59136706353E+02  0.17627850786E+03  0.12526481314E+03 0.  0.
         35    2    3    3    0    0  0.10242052039E+03  0.37359414948E+02 -0.21714703977E+03  0.83645674887E+03  0.80038826014E+03 0.  0.
         22    1    5    5    0    0  0.41354030234E+03 -0.15384752938E+03 -0.14301241518E+03  0.46382884219E+03  0.00000000000E+00 0. -1.
         22    1    5    5    0    0 -0.31111978195E+03  0.19120694432E+03 -0.74134624594E+02  0.37262790668E+03  0.00000000000E+00 0. -1.
          5    1    4    4  502    0 -0.61175602643E+02 -0.37348117842E+01 -0.33005583585E+02  0.69770063247E+02  0.47000000000E+01 0.  1.
         -5    1    4    4    0  502 -0.41244917747E+02 -0.33624603164E+02  0.92142289937E+02  0.10650844461E+03  0.47000000000E+01 0.  1.
<mgrwt>
<rscale>  0 0.10003327E+04</rscale>
<asrwt>0</asrwt>
<pdfrwt beam="1">  1        2 0.90057353E-01 0.10003327E+04</pdfrwt>
<pdfrwt beam="2">  1       -2 0.65748071E-01 0.10003327E+04</pdfrwt>
<totfact> 0.13168116E+02</totfact>
</mgrwt>
</event>
<event>
 9    1  0.4321150E-036  0.9995597E+03  0.7818608E-02  0.8681457E-01
         -2   -1    0    0    0  501 -0.00000000000E+00  0.00000000000E+00  0.13937635098E+03  0.13937635098E+03  0.00000000000E+00 0. -1.
          2   -1    0    0  501    0  0.00000000000E+00 -0.00000000000E+00 -0.17921254815E+04  0.17921254815E+04  0.00000000000E+00 0. -1.
         36    2    1    2    0    0  0.14210854715E-13  0.00000000000E+00 -0.16527491305E+04  0.19315018325E+04  0.99955972329E+03 0.  0.
         25    2    3    3    0    0 -0.45890087424E+02 -0.10138709852E+03 -0.47302044815E+03  0.50178639016E+03  0.12512391105E+03 0.  0.
         35    2    3    3    0    0  0.45890087424E+02  0.10138709852E+03 -0.11797286824E+04  0.14297154423E+04  0.79996327298E+03 0.  0.
         22    1    5    5    0    0  0.25977246902E+03  0.61122443707E+02 -0.11823169192E+04  0.12120606364E+04  0.00000000000E+00 0. -1.
         22    1    5    5    0    0 -0.21388238159E+03  0.40264654812E+02  0.25882368345E+01  0.21765480595E+03  0.00000000000E+00 0. -1.
          5    1    4    4  502    0 -0.69372204364E+02 -0.96297914541E+02 -0.45780188701E+03  0.47295924648E+03  0.47000000000E+01 0.  1.
         -5    1    4    4    0  502  0.23482116941E+02 -0.50891839771E+01 -0.15218561135E+02  0.28827143677E+02  0.47000000000E+01 0.  1.
<mgrwt>
<rscale>  0 0.99955972E+03</rscale>
<asrwt>0</asrwt>
<pdfrwt beam="1">  1        2 0.27571162E+00 0.99955972E+03</pdfrwt>
<pdfrwt beam="2">  1       -2 0.21442515E-01 0.99955972E+03</pdfrwt>
<totfact> 0.19479797E+02</totfact>
</mgrwt>
</event>
<event>
 9    1  0.4321150E-036  0.9998628E+03  0.7818608E-02  0.8681169E-01
         -1   -1    0    0    0  501 -0.00000000000E+00  0.00000000000E+00  0.24863816603E+03  0.24863816603E+03  0.00000000000E+00 0.  1.
          1   -1    0    0  501    0  0.00000000000E+00 -0.00000000000E+00 -0.10052012828E+04  0.10052012828E+04  0.00000000000E+00 0.  1.
         36    2    1    2    0    0  0.00000000000E+00  0.00000000000E+00 -0.75656311678E+03  0.12538394488E+04  0.99986279749E+03 0.  0.
         25    2    3    3    0    0  0.99287758714E+02 -0.90486804786E+02 -0.88160304803E+02  0.20253938146E+03  0.12330466670E+03 0.  0.
         35    2    3    3    0    0 -0.99287758714E+02  0.90486804786E+02 -0.66840281198E+03  0.10513000674E+04  0.80026470104E+03 0.  0.
         22    1    5    5    0    0 -0.11432051778E+03  0.35193275936E+03 -0.42063571255E+02  0.37241803383E+03  0.00000000000E+00 0. -1.
         22    1    5    5    0    0  0.15032759062E+02 -0.26144595457E+03 -0.62633924072E+03  0.67888203355E+03  0.00000000000E+00 0. -1.
          5    1    4    4  502    0  0.51695046122E+02 -0.11138441339E+03 -0.86582988623E+02  0.15032487904E+03  0.47000000000E+01 0. -1.
         -5    1    4    4    0  502  0.47592712592E+02  0.20897608602E+02 -0.15773161799E+01  0.52214502425E+02  0.47000000000E+01 0. -1.
<mgrwt>
<rscale>  0 0.99986280E+03</rscale>
<asrwt>0</asrwt>
<pdfrwt beam="1">  1        1 0.15464635E+00 0.99986280E+03</pdfrwt>
<pdfrwt beam="2">  1       -1 0.38252025E-01 0.99986280E+03</pdfrwt>
<totfact> 0.11084028E+02</totfact>
</mgrwt>
</event>
<event>
 9    1  0.4321150E-036  0.1009896E+04  0.7818608E-02  0.8671671E-01
         -2   -1    0    0    0  501 -0.00000000000E+00  0.00000000000E+00  0.13607686829E+03  0.13607686829E+03  0.00000000000E+00 0. -1.
          2   -1    0    0  501    0  0.00000000000E+00 -0.00000000000E+00 -0.18737390197E+04  0.18737390197E+04  0.00000000000E+00 0. -1.
         36    2    1    2    0    0 -0.24868995752E-13  0.00000000000E+00 -0.17376621514E+04  0.20098158880E+04  0.10098961091E+04 0.  0.
         25    2    3    3    0    0  0.21470878255E+02  0.80042817172E+02 -0.86531556428E+02  0.17343405431E+03  0.12539461609E+03 0.  0.
         35    2    3    3    0    0 -0.21470878255E+02 -0.80042817172E+02 -0.16511305950E+04  0.18363818337E+04  0.79949868429E+03 0.  0.
         22    1    5    5    0    0  0.26158894574E+03 -0.93072269875E+02 -0.14790028723E+04  0.15048391012E+04  0.00000000000E+00 0. -1.
         22    1    5    5    0    0 -0.28305982399E+03  0.13029452703E+02 -0.17212772266E+03  0.33154273254E+03  0.00000000000E+00 0. -1.
          5    1    4    4  502    0 -0.29894647503E+02  0.91806441883E+02 -0.47605063603E+02  0.10775177401E+03  0.47000000000E+01 0.  1.
         -5    1    4    4    0  502  0.51365525758E+02 -0.11763624711E+02 -0.38926492825E+02  0.65682280308E+02  0.47000000000E+01 0.  1.
<mgrwt>
<rscale>  0 0.10098961E+04</rscale>
<asrwt>0</asrwt>
<pdfrwt beam="1">  1        2 0.28826752E+00 0.10098961E+04</pdfrwt>
<pdfrwt beam="2">  1       -2 0.20934904E-01 0.10098961E+04</pdfrwt>
<totfact> 0.18264259E+02</totfact>
</mgrwt>
</event>
<event>
 9    1  0.4321150E-036  0.1001494E+04  0.7818608E-02  0.8679617E-01
         -1   -1    0    0    0  501 -0.00000000000E+00  0.00000000000E+00  0.39345730524E+03  0.39345730524E+03  0.00000000000E+00 0. -1.
          1   -1    0    0  501    0  0.00000000000E+00 -0.00000000000E+00 -0.63729255199E+03  0.63729255199E+03  0.00000000000E+00 0. -1.
         36    2    1    2    0    0  0.56843418861E-13  0.00000000000E+00 -0.24383524675E+03  0.10307498572E+04  0.10014937047E+04 0.  0.
         25    2    3    3    0    0  0.13802944971E+03  0.17813067388E+02 -0.71823352414E+02  0.20121664312E+03  0.12633332561E+03 0.  0.
         35    2    3    3    0    0 -0.13802944971E+03 -0.17813067388E+02 -0.17201189434E+03  0.82953321411E+03  0.79947972280E+03 0.  0.
         22    1    5    5    0    0 -0.23863593560E+03  0.18001594970E+02  0.27811905121E+03  0.36690785469E+03  0.00000000000E+00 0. -1.
         22    1    5    5    0    0  0.10060648589E+03 -0.35814662358E+02 -0.45013094555E+03  0.46262535943E+03  0.00000000000E+00 0. -1.
          5    1    4    4  502    0  0.23082775684E+02 -0.34681301360E+02 -0.61381264709E+02  0.74332744162E+02  0.47000000000E+01 0. -1.
         -5    1    4    4    0  502  0.11494667402E+03  0.52494368748E+02 -0.10442087705E+02  0.12688389896E+03  0.47000000000E+01 0. -1.
<mgrwt>
<rscale>  0 0.10014937E+04</rscale>
<asrwt>0</asrwt>
<pdfrwt beam="1">  1        1 0.98045006E-01 0.10014937E+04</pdfrwt>
<pdfrwt beam="2">  1       -1 0.60531894E-01 0.10014937E+04</pdfrwt>
<totfact> 0.10052684E+02</totfact>
</mgrwt>
</event>
<event>
 9    1  0.4321150E-036  0.1001951E+04  0.7818608E-02  0.8679183E-01
         -2   -1    0    0    0  501 -0.00000000000E+00  0.00000000000E+00  0.56222217189E+03  0.56222217189E+03  0.00000000000E+00 0.  1.
          2   -1    0    0  501    0  0.00000000000E+00 -0.00000000000E+00 -0.44640048042E+03  0.44640048042E+03  0.00000000000E+00 0.  1.
         36    2    1    2    0    0  0.00000000000E+00 -0.35527136788E-14  0.11582169147E+03  0.10086226523E+04  0.10019505929E+04 0.  0.
         25    2    3    3    0    0  0.11384702786E+03  0.10703018171E+02  0.10717696136E+03  0.20040293619E+03  0.12489489757E+03 0.  0.
         35    2    3    3    0    0 -0.11384702786E+03 -0.10703018171E+02  0.86447301077E+01  0.80821971611E+03  0.80004292247E+03 0.  0.
         22    1    5    5    0    0  0.39782211401E+02  0.36011779092E+03 -0.12793662520E+03  0.38423329860E+03  0.00000000000E+00 0.  1.
         22    1    5    5    0    0 -0.15362923926E+03 -0.37082080909E+03  0.13658135531E+03  0.42398641751E+03  0.00000000000E+00 0.  1.
          5    1    4    4  502    0  0.12770036058E+03 -0.18559514249E+02  0.58517760416E+02  0.14176831785E+03  0.47000000000E+01 0. -1.
         -5    1    4    4    0  502 -0.13853332726E+02  0.29262532420E+02  0.48659200947E+02  0.58634618342E+02  0.47000000000E+01 0. -1.
<mgrwt>
<rscale>  0 0.10019506E+04</rscale>
<asrwt>0</asrwt>
<pdfrwt beam="1">  1        2 0.68676997E-01 0.10019506E+04</pdfrwt>
<pdfrwt beam="2">  1       -2 0.86495719E-01 0.10019506E+04</pdfrwt>
<totfact> 0.97349309E+01</totfact>
</mgrwt>
</event>
<event>
 9    1  0.4321150E-036  0.1002543E+04  0.7818608E-02  0.8678620E-01
         -2   -1    0    0    0  501 -0.00000000000E+00  0.00000000000E+00  0.58165267381E+03  0.58165267381E+03  0.00000000000E+00 0. -1.
          2   -1    0    0  501    0  0.00000000000E+00 -0.00000000000E+00 -0.43199870956E+03  0.43199870956E+03  0.00000000000E+00 0. -1.
         36    2    1    2    0    0  0.00000000000E+00  0.14210854715E-13  0.14965396425E+03  0.10136513834E+04  0.10025431751E+04 0.  0.
         25    2    3    3    0    0  0.10715410665E+03  0.77331109305E+00 -0.66479778241E+02  0.17795753149E+03  0.12556560642E+03 0.  0.
         35    2    3    3    0    0 -0.10715410665E+03 -0.77331109305E+00  0.21613374249E+03  0.83569385189E+03  0.80011737818E+03 0.  0.
         22    1    5    5    0    0 -0.16068007480E+03 -0.37041967746E+03 -0.78921153529E+00  0.40376905124E+03  0.00000000000E+00 0. -1.
         22    1    5    5    0    0  0.53525968151E+02  0.36964636636E+03  0.21692295403E+03  0.43192480065E+03  0.00000000000E+00 0. -1.
          5    1    4    4  502    0  0.60592542317E+02 -0.18515429783E+02 -0.99116659265E+02  0.11773053754E+03  0.47000000000E+01 0. -1.
         -5    1    4    4    0  502  0.46561564331E+02  0.19288740876E+02  0.32636881023E+02  0.60226993952E+02  0.47000000000E+01 0. -1.
<mgrwt>
<rscale>  0 0.10025432E+04</rscale>
<asrwt>0</asrwt>
<pdfrwt beam="1">  1        2 0.66461340E-01 0.10025432E+04</pdfrwt>
<pdfrwt beam="2">  1       -2 0.89485027E-01 0.10025432E+04</pdfrwt>
<totfact> 0.93287445E+01</totfact>
</mgrwt>
</event>
<event>
 9    1  0.4321150E-036  0.1001416E+04  0.7818608E-02  0.8679691E-01
         -2   -1    0    0    0  501 -0.00000000000E+00  0.00000000000E+00  0.55404014984E+03  0.55404014984E+03  0.00000000000E+00 0. -1.
          2   -1    0    0  501    0  0.00000000000E+00 -0.00000000000E+00 -0.45250938444E+03  0.45250938444E+03  0.00000000000E+00 0. -1.
         36    2    1    2    0    0  0.00000000000E+00  0.42632564146E-13  0.10153076539E+03  0.10065495343E+04  0.10014157322E+04 0.  0.
         25    2    3    3    0    0 -0.11781962692E+03  0.75194632876E+02  0.39875382339E+02  0.19172959234E+03  0.12503796687E+03 0.  0.
         35    2    3    3    0    0  0.11781962692E+03 -0.75194632876E+02  0.61655383053E+02  0.81481994194E+03  0.80037144766E+03 0.  0.
         22    1    5    5    0    0  0.76173813384E+02 -0.36512910597E+03 -0.19897356256E+03  0.42274364865E+03  0.00000000000E+00 0. -1.
         22    1    5    5    0    0  0.41645813538E+02  0.28993447310E+03  0.26062894561E+03  0.39207629330E+03  0.00000000000E+00 0. -1.
          5    1    4    4  502    0  0.11425403524E+02  0.49311914571E+02 -0.79048925216E+01  0.51446886107E+02  0.47000000000E+01 0. -1.
         -5    1    4    4    0  502 -0.12924503045E+03  0.25882718305E+02  0.47780274860E+02  0.14028270623E+03  0.47000000000E+01 0. -1.
<mgrwt>
<rscale>  0 0.10014157E+04</rscale>
<asrwt>0</asrwt>
<pdfrwt beam="1">  1        2 0.69616828E-01 0.10014157E+04</pdfrwt>
<pdfrwt beam="2">  1       -2 0.85236946E-01 0.10014157E+04</pdfrwt>
<totfact> 0.99210003E+01</totfact>
</mgrwt>
</event>
<event>
 9    1  0.4321150E-036  0.9990721E+03  0.7818608E-02  0.8681922E-01
          2   -1    0    0  501    0  0.00000000000E+00  0.00000000000E+00  0.19361979398E+04  0.19361979398E+04  0.00000000000E+00 0. -1.
         -2   -1    0    0    0  501 -0.00000000000E+00 -0.00000000000E+00 -0.12887952510E+03  0.12887952510E+03  0.00000000000E+00 0. -1.
         36    2    1    2    0    0 -0.28421709430E-13  0.00000000000E+00  0.18073184147E+04  0.20650774649E+04  0.99907211148E+03 0.  0.
         25    2    3    3    0    0 -0.64599586206E+02  0.95936536460E+02  0.49700246948E+03  0.52528537087E+03  0.12464485795E+03 0.  0.
         35    2    3    3    0    0  0.64599586206E+02 -0.95936536460E+02  0.13103159452E+04  0.15397920940E+04  0.80040920222E+03 0.  0.
         22    1    5    5    0    0 -0.36083940674E+03 -0.73241338891E+02  0.46446449631E+03  0.59270282563E+03  0.00000000000E+00 0.  1.
         22    1    5    5    0    0  0.42543899294E+03 -0.22695197569E+02  0.84585144892E+03  0.94708926841E+03  0.00000000000E+00 0.  1.
          5    1    4    4  502    0 -0.91113167144E+02  0.83803635333E+02  0.46713119944E+03  0.48327870428E+03  0.47000000000E+01 0.  1.
         -5    1    4    4    0  502  0.26513580939E+02  0.12132901126E+02  0.29871270042E+02  0.42006666588E+02  0.47000000000E+01 0.  1.
<mgrwt>
<rscale>  0 0.99907211E+03</rscale>
<asrwt>0</asrwt>
<pdfrwt beam="1">  1        2 0.29787658E+00 0.99907211E+03</pdfrwt>
<pdfrwt beam="2">  1       -2 0.19827621E-01 0.99907211E+03</pdfrwt>
<totfact> 0.18497983E+02</totfact>
</mgrwt>
</event>
<event>
 9    1  0.4321150E-036  0.9994816E+03  0.7818608E-02  0.8681532E-01
          2   -1    0    0  501    0  0.00000000000E+00  0.00000000000E+00  0.16915161738E+04  0.16915161738E+04  0.00000000000E+00 0. -1.
         -2   -1    0    0    0  501 -0.00000000000E+00 -0.00000000000E+00 -0.14764320202E+03  0.14764320202E+03  0.00000000000E+00 0. -1.
         36    2    1    2    0    0  0.00000000000E+00 -0.14210854715E-13  0.15438729718E+04  0.18391593759E+04  0.99948159397E+03 0.  0.
         25    2    3    3    0    0  0.65371952050E+02 -0.11285632614E+03  0.19471352456E+03  0.26524240289E+03  0.12421808718E+03 0.  0.
         35    2    3    3    0    0 -0.65371952050E+02  0.11285632614E+03  0.13491594473E+04  0.15739169730E+04  0.79998336307E+03 0.  0.
         22    1    5    5    0    0  0.27415268317E+03  0.23620838089E+03  0.10305808455E+04  0.10922687270E+04  0.00000000000E+00 0.  1.
         22    1    5    5    0    0 -0.33952463522E+03 -0.12335205475E+03  0.31857860176E+03  0.48164824596E+03  0.00000000000E+00 0.  1.
          5    1    4    4  502    0  0.72448835689E+02 -0.59675936413E+01  0.81513423580E+02  0.10932051130E+03  0.47000000000E+01 0.  1.
         -5    1    4    4    0  502 -0.70768836384E+01 -0.10688873250E+03  0.11320010098E+03  0.15592189160E+03  0.47000000000E+01 0.  1.
<mgrwt>
<rscale>  0 0.99948159E+03</rscale>
<asrwt>0</asrwt>
<pdfrwt beam="1">  1        2 0.26023324E+00 0.99948159E+03</pdfrwt>
<pdfrwt beam="2">  1       -2 0.22714340E-01 0.99948159E+03</pdfrwt>
<totfact> 0.20068710E+02</totfact>
</mgrwt>
</event>
<event>
 9    1  0.4321150E-036  0.1000195E+04  0.7818608E-02  0.8680853E-01
         -1   -1    0    0    0  501 -0.00000000000E+00  0.00000000000E+00  0.18805124218E+03  0.18805124218E+03  0.00000000000E+00 0.  1.
          1   -1    0    0  501    0  0.00000000000E+00 -0.00000000000E+00 -0.13299427018E+04  0.13299427018E+04  0.00000000000E+00 0.  1.
         36    2    1    2    0    0 -0.71054273576E-14  0.49737991503E-13 -0.11418914596E+04  0.15179939440E+04  0.10001947352E+04 0.  0.
         25    2    3    3    0    0 -0.28753486501E+02 -0.43026142872E+02 -0.40901902285E+03  0.43098944150E+03  0.12560782490E+03 0.  0.
         35    2    3    3    0    0  0.28753486501E+02  0.43026142872E+02 -0.73287243677E+03  0.10870045025E+04  0.80112344110E+03 0.  0.
         22    1    5    5    0    0 -0.16651532888E+03  0.36778112854E+03 -0.49836015587E+03  0.64136819240E+03  0.00000000000E+00 0.  1.
         22    1    5    5    0    0  0.19526881538E+03 -0.32475498566E+03 -0.23451228090E+03  0.44563631008E+03  0.00000000000E+00 0.  1.
          5    1    4    4  502    0 -0.35337826795E+02 -0.21063520296E+02 -0.29719174703E+02  0.50968159030E+02  0.47000000000E+01 0. -1.
         -5    1    4    4    0  502  0.65843402943E+01 -0.21962622577E+02 -0.37929984815E+03  0.38002128247E+03  0.47000000000E+01 0. -1.
<mgrwt>
<rscale>  0 0.10001947E+04</rscale>
<asrwt>0</asrwt>
<pdfrwt beam="1">  1        1 0.20460657E+00 0.10001947E+04</pdfrwt>
<pdfrwt beam="2">  1       -1 0.28930961E-01 0.10001947E+04</pdfrwt>
<totfact> 0.10227663E+02</totfact>
</mgrwt>
</event>
<event>
 9    1  0.4321150E-036  0.1000771E+04  0.7818608E-02  0.8680304E-01
          2   -1    0    0  501    0  0.00000000000E+00  0.00000000000E+00  0.18668939276E+04  0.18668939276E+04  0.00000000000E+00 0.  1.
         -2   -1    0    0    0  501 -0.00000000000E+00 -0.00000000000E+00 -0.13411880952E+03  0.13411880952E+03  0.00000000000E+00 0.  1.
         36    2    1    2    0    0  0.28421709430E-13 -0.42632564146E-13  0.17327751181E+04  0.20010127371E+04  0.10007708850E+04 0.  0.
         25    2    3    3    0    0  0.78522461630E+02 -0.63801479460E+02  0.13226313958E+03  0.20929605661E+03  0.12678681106E+03 0.  0.
         35    2    3    3    0    0 -0.78522461630E+02  0.63801479460E+02  0.16005119785E+04  0.17917166805E+04  0.79898289352E+03 0.  0.
         22    1    5    5    0    0 -0.31169918796E+03 -0.25760317632E+03  0.89566209840E+03  0.98271378067E+03  0.00000000000E+00 0. -1.
         22    1    5    5    0    0  0.23317672633E+03  0.32140465578E+03  0.70484988011E+03  0.80900289984E+03  0.00000000000E+00 0. -1.
          5    1    4    4  502    0  0.47437043379E+02 -0.31273240382E+02 -0.11866296129E+02  0.58233904491E+02  0.47000000000E+01 0. -1.
         -5    1    4    4    0  502  0.31085418251E+02 -0.32528239078E+02  0.14412943571E+03  0.15106215212E+03  0.47000000000E+01 0. -1.
<mgrwt>
<rscale>  0 0.10007709E+04</rscale>
<asrwt>0</asrwt>
<pdfrwt beam="1">  1        2 0.28721443E+00 0.10007709E+04</pdfrwt>
<pdfrwt beam="2">  1       -2 0.20633664E-01 0.10007709E+04</pdfrwt>
<totfact> 0.18898151E+02</totfact>
</mgrwt>
</event>
<event>
 9    1  0.4321150E-036  0.1000410E+04  0.7818608E-02  0.8680648E-01
         -2   -1    0    0    0  501 -0.00000000000E+00  0.00000000000E+00  0.31727312323E+03  0.31727312323E+03  0.00000000000E+00 0. -1.
          2   -1    0    0  501    0  0.00000000000E+00 -0.00000000000E+00 -0.78861047243E+03  0.78861047243E+03  0.00000000000E+00 0. -1.
         36    2    1    2    0    0 -0.28421709430E-13 -0.71054273576E-14 -0.47133734919E+03  0.11058835957E+04  0.10004097313E+04 0.  0.
         25    2    3    3    0    0 -0.13019742389E+03 -0.62904900653E+02 -0.71994436898E+02  0.19866429050E+03  0.11565425052E+03 0.  0.
         35    2    3    3    0    0  0.13019742389E+03  0.62904900653E+02 -0.39934291230E+03  0.90721930516E+03  0.80166309029E+03 0.  0.
         22    1    5    5    0    0 -0.72562549237E+01 -0.35667696985E+03 -0.89439935328E+02  0.36779153890E+03  0.00000000000E+00 0. -1.
         22    1    5    5    0    0  0.13745367881E+03  0.41958187050E+03 -0.30990297697E+03  0.53942776626E+03  0.00000000000E+00 0. -1.
          5    1    4    4  502    0 -0.11783707707E+03 -0.27955922067E+02 -0.95687158007E+02  0.15441901605E+03  0.47000000000E+01 0. -1.
         -5    1    4    4    0  502 -0.12360346821E+02 -0.34948978586E+02  0.23692721109E+02  0.44245274452E+02  0.47000000000E+01 0. -1.
<mgrwt>
<rscale>  0 0.10004097E+04</rscale>
<asrwt>0</asrwt>
<pdfrwt beam="1">  1        2 0.12132469E+00 0.10004097E+04</pdfrwt>
<pdfrwt beam="2">  1       -2 0.48811250E-01 0.10004097E+04</pdfrwt>
<totfact> 0.16889672E+02</totfact>
</mgrwt>
</event>
<event>
 9    1  0.4321150E-036  0.1001121E+04  0.7818608E-02  0.8679972E-01
         -2   -1    0    0    0  501 -0.00000000000E+00  0.00000000000E+00  0.24952320435E+03  0.24952320435E+03  0.00000000000E+00 0.  1.
          2   -1    0    0  501    0  0.00000000000E+00 -0.00000000000E+00 -0.10041575872E+04  0.10041575872E+04  0.00000000000E+00 0.  1.
         36    2    1    2    0    0  0.00000000000E+00  0.00000000000E+00 -0.75463438282E+03  0.12536807915E+04  0.10011206098E+04 0.  0.
         25    2    3    3    0    0 -0.65990914029E+02  0.79983300003E+02 -0.26387442593E+03  0.30966387500E+03  0.12453864384E+03 0.  0.
         35    2    3    3    0    0  0.65990914029E+02 -0.79983300003E+02 -0.49075995689E+03  0.94401691652E+03  0.79973150143E+03 0.  0.
         22    1    5    5    0    0 -0.30203800458E+03  0.46126755398E+02  0.15038141120E+02  0.30590975706E+03  0.00000000000E+00 0.  1.
         22    1    5    5    0    0  0.36802891861E+03 -0.12611005540E+03 -0.50579809801E+03  0.63810715946E+03  0.00000000000E+00 0.  1.
          5    1    4    4  502    0 -0.57119347685E+02  0.59685536542E+02 -0.27298828535E+03  0.28525370654E+03  0.47000000000E+01 0.  1.
         -5    1    4    4    0  502 -0.88715663438E+01  0.20297763461E+02  0.91138594279E+01  0.24410168467E+02  0.47000000000E+01 0.  1.
<mgrwt>
<rscale>  0 0.10011206E+04</rscale>
<asrwt>0</asrwt>
<pdfrwt beam="1">  1        2 0.15448578E+00 0.10011206E+04</pdfrwt>
<pdfrwt beam="2">  1       -2 0.38388186E-01 0.10011206E+04</pdfrwt>
<totfact> 0.19393064E+02</totfact>
</mgrwt>
</event>
<event>
 9    1  0.4321150E-036  0.9985712E+03  0.7818608E-02  0.8682400E-01
          3   -1    0    0  501    0  0.00000000000E+00  0.00000000000E+00  0.14992145817E+04  0.14992145817E+04  0.00000000000E+00 0.  1.
         -3   -1    0    0    0  501 -0.00000000000E+00 -0.00000000000E+00 -0.16627780215E+03  0.16627780215E+03  0.00000000000E+00 0.  1.
         36    2    1    2    0    0  0.28421709430E-13  0.00000000000E+00  0.13329367796E+04  0.16654923838E+04  0.99857119043E+03 0.  0.
         25    2    3    3    0    0  0.39632899515E+02  0.13101991463E+03  0.20981169922E+03  0.27985185068E+03  0.12473621946E+03 0.  0.
         35    2    3    3    0    0 -0.39632899515E+02 -0.13101991463E+03  0.11231250803E+04  0.13856405332E+04  0.79990796741E+03 0.  0.
         22    1    5    5    0    0  0.21930274862E+03  0.20425740920E+03  0.17466780547E+03  0.34687696238E+03  0.00000000000E+00 0.  1.
         22    1    5    5    0    0 -0.25893564813E+03 -0.33527732383E+03  0.94845727486E+03  0.10387635708E+04  0.00000000000E+00 0.  1.
          5    1    4    4  502    0 -0.39462663764E+02  0.42537210650E+02  0.33197670036E+02  0.67014113566E+02  0.47000000000E+01 0.  1.
         -5    1    4    4    0  502  0.79095563279E+02  0.88482703983E+02  0.17661402918E+03  0.21283773711E+03  0.47000000000E+01 0.  1.
<mgrwt>
<rscale>  0 0.99857119E+03</rscale>
<asrwt>0</asrwt>
<pdfrwt beam="1">  1        3 0.23064839E+00 0.99857119E+03</pdfrwt>
<pdfrwt beam="2">  1       -3 0.25581201E-01 0.99857119E+03</pdfrwt>
<totfact> 0.55417498E+00</totfact>
</mgrwt>
</event>
<event>
 9    1  0.4321150E-036  0.1001270E+04  0.7818608E-02  0.8679830E-01
          1   -1    0    0  501    0  0.00000000000E+00  0.00000000000E+00  0.23058607820E+03  0.23058607820E+03  0.00000000000E+00 0.  1.
         -1   -1    0    0    0  501 -0.00000000000E+00 -0.00000000000E+00 -0.10869485462E+04  0.10869485462E+04  0.00000000000E+00 0.  1.
         36    2    1    2    0    0  0.71054273576E-14  0.31974423109E-13 -0.85636246796E+03  0.13175346244E+04  0.10012695990E+04 0.  0.
         25    2    3    3    0    0 -0.29405985586E+02 -0.27482010113E+02  0.16963813656E+02  0.13239709441E+03  0.12498498617E+03 0.  0.
         35    2    3    3    0    0  0.29405985586E+02  0.27482010113E+02 -0.87332628162E+03  0.11851375300E+04  0.80014511052E+03 0.  0.
         22    1    5    5    0    0  0.24901511868E+03  0.31420340114E+03 -0.63986564295E+03  0.75508962888E+03  0.00000000000E+00 0.  1.
         22    1    5    5    0    0 -0.21960913310E+03 -0.28672139103E+03 -0.23346063867E+03  0.43004790108E+03  0.00000000000E+00 0.  1.
          5    1    4    4  502    0  0.81297292751E+01 -0.30151801778E+02 -0.47833599331E+02  0.57318119941E+02  0.47000000000E+01 0.  1.
         -5    1    4    4    0  502 -0.37535714862E+02  0.26697916654E+01  0.64797412988E+02  0.75078974471E+02  0.47000000000E+01 0.  1.
<mgrwt>
<rscale>  0 0.10012696E+04</rscale>
<asrwt>0</asrwt>
<pdfrwt beam="1">  1        1 0.35474781E-01 0.10012696E+04</pdfrwt>
<pdfrwt beam="2">  1       -1 0.16722285E+00 0.10012696E+04</pdfrwt>
<totfact> 0.36312274E+01</totfact>
</mgrwt>
</event>
<event>
 9    1  0.4321150E-036  0.9990412E+03  0.7818608E-02  0.8681952E-01
          2   -1    0    0  501    0  0.00000000000E+00  0.00000000000E+00  0.14569953934E+04  0.14569953934E+04  0.00000000000E+00 0. -1.
         -2   -1    0    0    0  501 -0.00000000000E+00 -0.00000000000E+00 -0.17125712903E+03  0.17125712903E+03  0.00000000000E+00 0. -1.
         36    2    1    2    0    0 -0.14210854715E-13  0.71054273576E-14  0.12857382644E+04  0.16282525224E+04  0.99904123656E+03 0.  0.
         25    2    3    3    0    0 -0.12129008763E+03 -0.53988671713E+02  0.30721479522E+03  0.35747301257E+03  0.12561831985E+03 0.  0.
         35    2    3    3    0    0  0.12129008763E+03  0.53988671713E+02  0.97852346914E+03  0.12707795099E+04  0.79984143491E+03 0.  0.
         22    1    5    5    0    0 -0.49120653924E+02 -0.71206544372E+02  0.10454208231E+04  0.10489937598E+04  0.00000000000E+00 0.  1.
         22    1    5    5    0    0  0.17041074155E+03  0.12519521608E+03 -0.66897354001E+02  0.22178575008E+03  0.00000000000E+00 0.  1.
          5    1    4    4  502    0 -0.11553602286E+03  0.11861663991E+02  0.18625924032E+03  0.21955378898E+03  0.47000000000E+01 0.  1.
         -5    1    4    4    0  502 -0.57540647643E+01 -0.65850335704E+02  0.12095555490E+03  0.13791922359E+03  0.47000000000E+01 0.  1.
<mgrwt>
<rscale>  0 0.99904124E+03</rscale>
<asrwt>0</asrwt>
<pdfrwt beam="1">  1        2 0.22415313E+00 0.99904124E+03</pdfrwt>
<pdfrwt beam="2">  1       -2 0.26347252E-01 0.99904124E+03</pdfrwt>
<totfact> 0.20938056E+02</totfact>
</mgrwt>
</event>
<event>
 9    1  0.4321150E-036  0.9979110E+03  0.7818608E-02  0.8683030E-01
          1   -1    0    0  501    0  0.00000000000E+00  0.00000000000E+00  0.12252347872E+03  0.12252347872E+03  0.00000000000E+00 0. -1.
         -1   -1    0    0    0  501 -0.00000000000E+00 -0.00000000000E+00 -0.20319093019E+04  0.20319093019E+04  0.00000000000E+00 0. -1.
         36    2    1    2    0    0  0.00000000000E+00  0.14210854715E-13 -0.19093858232E+04  0.21544327806E+04  0.99791101028E+03 0.  0.
         25    2    3    3    0    0  0.12862502116E+03 -0.43249432350E+02 -0.33369096047E+03  0.38200035806E+03  0.12712083618E+03 0.  0.
         35    2    3    3    0    0 -0.12862502116E+03  0.43249432350E+02 -0.15756948627E+04  0.17724324226E+04  0.80017965652E+03 0.  0.
         22    1    5    5    0    0 -0.31277560080E+03 -0.19656821820E+03 -0.34612606439E+03  0.50623205480E+03  0.00000000000E+00 0. -1.
         22    1    5    5    0    0  0.18415057964E+03  0.23981765055E+03 -0.12295687983E+04  0.12662003678E+04  0.00000000000E+00 0. -1.
          5    1    4    4  502    0  0.88326627434E+02 -0.72115941629E+02 -0.13313098759E+03  0.17535179500E+03  0.47000000000E+01 0. -1.
         -5    1    4    4    0  502  0.40298393726E+02  0.28866509280E+02 -0.20055997288E+03  0.20664856307E+03  0.47000000000E+01 0. -1.
<mgrwt>
<rscale>  0 0.99791101E+03</rscale>
<asrwt>0</asrwt>
<pdfrwt beam="1">  1        1 0.18849768E-01 0.99791101E+03</pdfrwt>
<pdfrwt beam="2">  1       -1 0.31260140E+00 0.99791101E+03</pdfrwt>
<totfact> 0.30177942E+00</totfact>
</mgrwt>
</event>
<event>
 9    1  0.4321150E-036  0.9999365E+03  0.7818608E-02  0.8681098E-01
         -2   -1    0    0    0  501 -0.00000000000E+00  0.00000000000E+00  0.26512317862E+03  0.26512317862E+03  0.00000000000E+00 0. -1.
          2   -1    0    0  501    0  0.00000000000E+00 -0.00000000000E+00 -0.94283808784E+03  0.94283808784E+03  0.00000000000E+00 0. -1.
         36    2    1    2    0    0 -0.14210854715E-13 -0.14210854715E-13 -0.67771490922E+03  0.12079612665E+04  0.99993645952E+03 0.  0.
         25    2    3    3    0    0 -0.12116194612E+03 -0.70220340223E+02 -0.13358635601E+03  0.23036309668E+03  0.12494290068E+03 0.  0.
         35    2    3    3    0    0  0.12116194612E+03  0.70220340223E+02 -0.54412855321E+03  0.97759816978E+03  0.80000699107E+03 0.  0.
         22    1    5    5    0    0  0.25957760815E+03 -0.66726093934E+02 -0.68612101646E+03  0.73661045030E+03  0.00000000000E+00 0. -1.
         22    1    5    5    0    0 -0.13841566203E+03  0.13694643416E+03  0.14199246324E+03  0.24098771948E+03  0.00000000000E+00 0. -1.
          5    1    4    4  502    0 -0.77797559728E+02  0.64848889198E+01 -0.11676071053E+03  0.14053351062E+03  0.47000000000E+01 0. -1.
         -5    1    4    4    0  502 -0.43364386391E+02 -0.76705229143E+02 -0.16825645473E+02  0.89829586053E+02  0.47000000000E+01 0. -1.
<mgrwt>
<rscale>  0 0.99993646E+03</rscale>
<asrwt>0</asrwt>
<pdfrwt beam="1">  1        2 0.14505202E+00 0.99993646E+03</pdfrwt>
<pdfrwt beam="2">  1       -2 0.40788180E-01 0.99993646E+03</pdfrwt>
<totfact> 0.18893422E+02</totfact>
</mgrwt>
</event>
<event>
 9    1  0.4321150E-036  0.9990744E+03  0.7818608E-02  0.8681920E-01
          2   -1    0    0  501    0  0.00000000000E+00  0.00000000000E+00  0.35971617568E+04  0.35971617568E+04  0.00000000000E+00 0. -1.
         -2   -1    0    0    0  501 -0.00000000000E+00 -0.00000000000E+00 -0.69370636579E+02  0.69370636579E+02  0.00000000000E+00 0. -1.
         36    2    1    2    0    0 -0.28421709430E-13  0.71054273576E-14  0.35277911202E+04  0.36665323933E+04  0.99907437350E+03 0.  0.
         25    2    3    3    0    0 -0.12166556049E+03 -0.23872607378E+02  0.43023054915E+03  0.46482349039E+03  0.12486048937E+03 0.  0.
         35    2    3    3    0    0  0.12166556049E+03  0.23872607378E+02  0.30975605710E+04  0.32017089030E+04  0.80042863393E+03 0.  0.
         22    1    5    5    0    0  0.31904927917E+03 -0.14098048747E+03  0.27352732742E+04  0.27574241286E+04  0.00000000000E+00 0. -1.
         22    1    5    5    0    0 -0.19738371867E+03  0.16485309485E+03  0.36228729683E+03  0.44428477436E+03  0.00000000000E+00 0. -1.
          5    1    4    4  502    0 -0.99852697177E+02  0.37153015055E+02  0.31464072539E+03  0.33222249131E+03  0.47000000000E+01 0. -1.
         -5    1    4    4    0  502 -0.21812863316E+02 -0.61025622434E+02  0.11558982376E+03  0.13260099908E+03  0.47000000000E+01 0. -1.
<mgrwt>
<rscale>  0 0.99907437E+03</rscale>
<asrwt>0</asrwt>
<pdfrwt beam="1">  1        2 0.55340936E+00 0.99907437E+03</pdfrwt>
<pdfrwt beam="2">  1       -2 0.10672408E-01 0.99907437E+03</pdfrwt>
<totfact> 0.43734135E+01</totfact>
</mgrwt>
</event>
<event>
 9    1  0.4321150E-036  0.1000537E+04  0.7818608E-02  0.8680527E-01
          1   -1    0    0  501    0  0.00000000000E+00  0.00000000000E+00  0.20765106504E+04  0.20765106504E+04  0.00000000000E+00 0. -1.
         -1   -1    0    0    0  501 -0.00000000000E+00 -0.00000000000E+00 -0.12052356886E+03  0.12052356886E+03  0.00000000000E+00 0. -1.
         36    2    1    2    0    0  0.00000000000E+00 -0.14210854715E-13  0.19559870815E+04  0.21970342192E+04  0.10005368046E+04 0.  0.
         25    2    3    3    0    0  0.13091100317E+03  0.44365402650E+02  0.44650827919E+03  0.48316961597E+03  0.12238159465E+03 0.  0.
         35    2    3    3    0    0 -0.13091100317E+03 -0.44365402650E+02  0.15094788023E+04  0.17138646032E+04  0.79981225542E+03 0.  0.
         22    1    5    5    0    0 -0.28648999418E+03  0.24948957488E+03  0.38346129165E+03  0.53978155483E+03  0.00000000000E+00 0. -1.
         22    1    5    5    0    0  0.15557899100E+03 -0.29385497753E+03  0.11260175107E+04  0.11740830484E+04  0.00000000000E+00 0. -1.
          5    1    4    4  502    0  0.50357716558E+02 -0.46999422016E+01  0.32665909162E+03  0.33058469597E+03  0.47000000000E+01 0.  1.
         -5    1    4    4    0  502  0.80553286614E+02  0.49065344851E+02  0.11984918757E+03  0.15258492000E+03  0.47000000000E+01 0.  1.
<mgrwt>
<rscale>  0 0.10005368E+04</rscale>
<asrwt>0</asrwt>
<pdfrwt beam="1">  1        1 0.31946315E+00 0.10005368E+04</pdfrwt>
<pdfrwt beam="2">  1       -1 0.18542089E-01 0.10005368E+04</pdfrwt>
<totfact> 0.63769379E+01</totfact>
</mgrwt>
</event>
<event>
 9    1  0.4321150E-036  0.1000615E+04  0.7818608E-02  0.8680453E-01
         -1   -1    0    0    0  501 -0.00000000000E+00  0.00000000000E+00  0.18037769051E+03  0.18037769051E+03  0.00000000000E+00 0.  1.
          1   -1    0    0  501    0  0.00000000000E+00 -0.00000000000E+00 -0.13876859552E+04  0.13876859552E+04  0.00000000000E+00 0.  1.
         36    2    1    2    0    0  0.14210854715E-13  0.00000000000E+00 -0.12073082646E+04  0.15680636457E+04  0.10006149864E+04 0.  0.
         25    2    3    3    0    0 -0.59944319458E+02  0.70866336225E+02 -0.60991560050E+02  0.16791399674E+03  0.12593562188E+03 0.  0.
         35    2    3    3    0    0  0.59944319458E+02 -0.70866336225E+02 -0.11463167046E+04  0.14001496489E+04  0.79859983291E+03 0.  0.
         22    1    5    5    0    0 -0.18221785409E+03  0.10791763231E+03 -0.10684453241E+04  0.10892313677E+04  0.00000000000E+00 0.  1.
         22    1    5    5    0    0  0.24216217355E+03 -0.17878396854E+03 -0.77871380450E+02  0.31091828122E+03  0.00000000000E+00 0.  1.
          5    1    4    4  502    0 -0.72980109597E+02  0.82585710009E+02 -0.65257662405E+01  0.11050416969E+03  0.47000000000E+01 0.  1.
         -5    1    4    4    0  502  0.13035790140E+02 -0.11719373783E+02 -0.54465793809E+02  0.57409827048E+02  0.47000000000E+01 0.  1.
<mgrwt>
<rscale>  0 0.10006150E+04</rscale>
<asrwt>0</asrwt>
<pdfrwt beam="1">  1        1 0.21349015E+00 0.10006150E+04</pdfrwt>
<pdfrwt beam="2">  1       -1 0.27750413E-01 0.10006150E+04</pdfrwt>
<totfact> 0.99716563E+01</totfact>
</mgrwt>
</event>
<event>
 9    1  0.4321150E-036  0.1001765E+04  0.7818608E-02  0.8679359E-01
         -2   -1    0    0    0  501 -0.00000000000E+00  0.00000000000E+00  0.18529723322E+03  0.18529723322E+03  0.00000000000E+00 0. -1.
          2   -1    0    0  501    0  0.00000000000E+00 -0.00000000000E+00 -0.13539493768E+04  0.13539493768E+04  0.00000000000E+00 0. -1.
         36    2    1    2    0    0 -0.14210854715E-13  0.28421709430E-13 -0.11686521436E+04  0.15392466100E+04  0.10017645900E+04 0.  0.
         25    2    3    3    0    0  0.39308229005E+02 -0.10583118976E+03 -0.35365400551E+03  0.39157759113E+03  0.12456515032E+03 0.  0.
         35    2    3    3    0    0 -0.39308229005E+02  0.10583118976E+03 -0.81499813807E+03  0.11476690189E+04  0.80011051378E+03 0.  0.
         22    1    5    5    0    0 -0.32395636704E+03 -0.20235105394E+03 -0.46155261772E+03  0.59910307602E+03  0.00000000000E+00 0. -1.
         22    1    5    5    0    0  0.28464813803E+03  0.30818224370E+03 -0.35344552034E+03  0.54856594286E+03  0.00000000000E+00 0. -1.
          5    1    4    4  502    0  0.51380823276E+02  0.88083418726E+01 -0.12322898571E+03  0.13388446066E+03  0.47000000000E+01 0. -1.
         -5    1    4    4    0  502 -0.12072594271E+02 -0.11463953163E+03 -0.23042501979E+03  0.25769313047E+03  0.47000000000E+01 0. -1.
<mgrwt>
<rscale>  0 0.10017646E+04</rscale>
<asrwt>0</asrwt>
<pdfrwt beam="1">  1        2 0.20829990E+00 0.10017646E+04</pdfrwt>
<pdfrwt beam="2">  1       -2 0.28507268E-01 0.10017646E+04</pdfrwt>
<totfact> 0.20809730E+02</totfact>
</mgrwt>
</event>
<event>
 9    1  0.4321150E-036  0.9991090E+03  0.7818608E-02  0.8681887E-01
          2   -1    0    0  501    0  0.00000000000E+00  0.00000000000E+00  0.16552015735E+04  0.16552015735E+04  0.00000000000E+00 0. -1.
         -2   -1    0    0    0  501 -0.00000000000E+00 -0.00000000000E+00 -0.15076996183E+03  0.15076996183E+03  0.00000000000E+00 0. -1.
         36    2    1    2    0    0  0.00000000000E+00  0.14210854715E-13  0.15044316117E+04  0.18059715353E+04  0.99910895915E+03 0.  0.
         25    2    3    3    0    0  0.95730775302E+02 -0.90213815489E+02  0.36194588574E+03  0.40480902839E+03  0.12475019604E+03 0.  0.
         35    2    3    3    0    0 -0.95730775302E+02  0.90213815489E+02  0.11424857259E+04  0.14011625070E+04  0.80042477666E+03 0.  0.
         22    1    5    5    0    0  0.22957420853E+03  0.28855318356E+03  0.83065593536E+03  0.90882151159E+03  0.00000000000E+00 0. -1.
         22    1    5    5    0    0 -0.32530498384E+03 -0.19833936807E+03  0.31182979058E+03  0.49234099538E+03  0.00000000000E+00 0. -1.
          5    1    4    4  502    0  0.29091902324E+02 -0.10976522378E+02  0.25108897363E+03  0.25305055918E+03  0.47000000000E+01 0.  1.
         -5    1    4    4    0  502  0.66638872977E+02 -0.79237293112E+02  0.11085691211E+03  0.15175846920E+03  0.47000000000E+01 0.  1.
<mgrwt>
<rscale>  0 0.99910896E+03</rscale>
<asrwt>0</asrwt>
<pdfrwt beam="1">  1        2 0.25464638E+00 0.99910896E+03</pdfrwt>
<pdfrwt beam="2">  1       -2 0.23195380E-01 0.99910896E+03</pdfrwt>
<totfact> 0.20276918E+02</totfact>
</mgrwt>
</event>
<event>
 9    1  0.4321150E-036  0.9997492E+03  0.7818608E-02  0.8681277E-01
          1   -1    0    0  501    0  0.00000000000E+00  0.00000000000E+00  0.66563047995E+03  0.66563047995E+03  0.00000000000E+00 0.  1.
         -1   -1    0    0    0  501 -0.00000000000E+00 -0.00000000000E+00 -0.37539539260E+03  0.37539539260E+03  0.00000000000E+00 0.  1.
         36    2    1    2    0    0  0.14210854715E-13  0.00000000000E+00  0.29023508736E+03  0.10410258726E+04  0.99974919924E+03 0.  0.
         25    2    3    3    0    0  0.38804209665E+02 -0.12825360311E+03  0.14180967005E+02  0.18412556850E+03  0.12548454787E+03 0.  0.
         35    2    3    3    0    0 -0.38804209665E+02  0.12825360311E+03  0.27605412035E+03  0.85690030405E+03  0.80007343433E+03 0.  0.
         22    1    5    5    0    0 -0.45815406145E+02  0.30249509675E+03 -0.18941798000E+03  0.35983538757E+03  0.00000000000E+00 0. -1.
         22    1    5    5    0    0  0.70111964809E+01 -0.17424149365E+03  0.46547210035E+03  0.49706491648E+03  0.00000000000E+00 0. -1.
          5    1    4    4  502    0  0.81881977146E+02 -0.57141776076E+02  0.13346264460E+02  0.10084668328E+03  0.47000000000E+01 0. -1.
         -5    1    4    4    0  502 -0.43077767481E+02 -0.71111827032E+02  0.83470254486E+00  0.83278885219E+02  0.47000000000E+01 0. -1.
<mgrwt>
<rscale>  0 0.99974920E+03</rscale>
<asrwt>0</asrwt>
<pdfrwt beam="1">  1        1 0.10240469E+00 0.99974920E+03</pdfrwt>
<pdfrwt beam="2">  1       -1 0.57753137E-01 0.99974920E+03</pdfrwt>
<totfact> 0.10305503E+02</totfact>
</mgrwt>
</event>
<event>
 9    1  0.4321150E-036  0.1000041E+04  0.7818608E-02  0.8680999E-01
         -1   -1    0    0    0  501 -0.00000000000E+00  0.00000000000E+00  0.53641599916E+03  0.53641599916E+03  0.00000000000E+00 0. -1.
          1   -1    0    0  501    0  0.00000000000E+00 -0.00000000000E+00 -0.46609476190E+03  0.46609476190E+03  0.00000000000E+00 0. -1.
         36    2    1    2    0    0 -0.35527136788E-14  0.56843418861E-13  0.70321237263E+02  0.10025107611E+04  0.10000413740E+04 0.  0.
         25    2    3    3    0    0 -0.26164203216E+02 -0.43443054478E+02 -0.11773903994E+03  0.17916032797E+03  0.12515621071E+03 0.  0.
         35    2    3    3    0    0  0.26164203216E+02  0.43443054478E+02  0.18806027720E+03  0.82335043309E+03  0.79997962680E+03 0.  0.
         22    1    5    5    0    0  0.11315648253E+03  0.40847761706E+03  0.67499214082E+02  0.42920216342E+03  0.00000000000E+00 0.  1.
         22    1    5    5    0    0 -0.86992279312E+02 -0.36503456259E+03  0.12056106312E+03  0.39414826967E+03  0.00000000000E+00 0.  1.
          5    1    4    4  502    0 -0.46159395535E+02 -0.77876421217E+01 -0.12832028362E+03  0.13667304912E+03  0.47000000000E+01 0. -1.
         -5    1    4    4    0  502  0.19995192319E+02 -0.35655412356E+02  0.10581243686E+02  0.42487278851E+02  0.47000000000E+01 0. -1.
<mgrwt>
<rscale>  0 0.10000414E+04</rscale>
<asrwt>0</asrwt>
<pdfrwt beam="1">  1        1 0.71706887E-01 0.10000414E+04</pdfrwt>
<pdfrwt beam="2">  1       -1 0.82525538E-01 0.10000414E+04</pdfrwt>
<totfact> 0.84391990E+01</totfact>
</mgrwt>
</event>
<event>
 9    1  0.4321150E-036  0.1000049E+04  0.7818608E-02  0.8680991E-01
          3   -1    0    0  501    0  0.00000000000E+00  0.00000000000E+00  0.24318103405E+04  0.24318103405E+04  0.00000000000E+00 0.  1.
         -3   -1    0    0    0  501 -0.00000000000E+00 -0.00000000000E+00 -0.10281416392E+03  0.10281416392E+03  0.00000000000E+00 0.  1.
         36    2    1    2    0    0  0.00000000000E+00  0.00000000000E+00  0.23289961766E+04  0.25346245044E+04  0.10000490927E+04 0.  0.
         25    2    3    3    0    0  0.47513893696E+02 -0.76868627877E+02  0.70821340077E+03  0.72493000209E+03  0.12566197063E+03 0.  0.
         35    2    3    3    0    0 -0.47513893696E+02  0.76868627877E+02  0.16207827758E+04  0.18096945023E+04  0.79993189042E+03 0.  0.
         22    1    5    5    0    0  0.11307149226E+03  0.35415352282E+03  0.39379793255E+03  0.54155949975E+03  0.00000000000E+00 0.  1.
         22    1    5    5    0    0 -0.16058538596E+03 -0.27728489494E+03  0.12269848433E+04  0.12681350026E+04  0.00000000000E+00 0.  1.
          5    1    4    4  502    0  0.67837971080E+02  0.63173337845E+00  0.22349027583E+03  0.23360732608E+03  0.47000000000E+01 0. -1.
         -5    1    4    4    0  502 -0.20324077383E+02 -0.77500361255E+02  0.48472312493E+03  0.49132267601E+03  0.47000000000E+01 0. -1.
<mgrwt>
<rscale>  0 0.10000491E+04</rscale>
<asrwt>0</asrwt>
<pdfrwt beam="1">  1        3 0.37412462E+00 0.10000491E+04</pdfrwt>
<pdfrwt beam="2">  1       -3 0.15817566E-01 0.10000491E+04</pdfrwt>
<totfact> 0.35436558E+00</totfact>
</mgrwt>
</event>
<event>
 9    1  0.4321150E-036  0.1000166E+04  0.7818608E-02  0.8680880E-01
         -2   -1    0    0    0  501 -0.00000000000E+00  0.00000000000E+00  0.42568397545E+03  0.42568397545E+03  0.00000000000E+00 0. -1.
          2   -1    0    0  501    0  0.00000000000E+00 -0.00000000000E+00 -0.58748488016E+03  0.58748488016E+03  0.00000000000E+00 0. -1.
         36    2    1    2    0    0  0.14210854715E-13  0.56843418861E-13 -0.16180090470E+03  0.10131688556E+04  0.10001657849E+04 0.  0.
         25    2    3    3    0    0  0.59613217176E+01 -0.84168338494E+02  0.79501275227E+02  0.17039169272E+03  0.12487205301E+03 0.  0.
         35    2    3    3    0    0 -0.59613217176E+01  0.84168338494E+02 -0.24130217993E+03  0.84277716289E+03  0.80307332024E+03 0.  0.
         22    1    5    5    0    0 -0.12634942996E+03 -0.28954299550E+03  0.90620197510E+02  0.32865079476E+03  0.00000000000E+00 0.  1.
         22    1    5    5    0    0  0.12038810825E+03  0.37371133400E+03 -0.33192237744E+03  0.51412636813E+03  0.00000000000E+00 0.  1.
          5    1    4    4  502    0  0.27879476764E+02 -0.10701169493E+03  0.36011149663E+02  0.11639441987E+03  0.47000000000E+01 0. -1.
         -5    1    4    4    0  502 -0.21918155046E+02  0.22843356433E+02  0.43490125564E+02  0.53997272851E+02  0.47000000000E+01 0. -1.
<mgrwt>
<rscale>  0 0.10001658E+04</rscale>
<asrwt>0</asrwt>
<pdfrwt beam="1">  1        2 0.90382289E-01 0.10001658E+04</pdfrwt>
<pdfrwt beam="2">  1       -2 0.65489843E-01 0.10001658E+04</pdfrwt>
<totfact> 0.13222890E+02</totfact>
</mgrwt>
</event>
<event>
 9    1  0.4321150E-036  0.1000488E+04  0.7818608E-02  0.8680573E-01
         -2   -1    0    0    0  501 -0.00000000000E+00  0.00000000000E+00  0.13864405320E+03  0.13864405320E+03  0.00000000000E+00 0. -1.
          2   -1    0    0  501    0  0.00000000000E+00 -0.00000000000E+00 -0.18049392948E+04  0.18049392948E+04  0.00000000000E+00 0. -1.
         36    2    1    2    0    0 -0.14210854715E-13 -0.26645352591E-14 -0.16662952416E+04  0.19435833480E+04  0.10004880801E+04 0.  0.
         25    2    3    3    0    0 -0.45593906880E+02  0.10442283447E+01 -0.57640429303E+03  0.59150352884E+03  0.12471816564E+03 0.  0.
         35    2    3    3    0    0  0.45593906880E+02 -0.10442283447E+01 -0.10898909486E+04  0.13520798192E+04  0.79886022735E+03 0.  0.
         22    1    5    5    0    0  0.17908198715E+03  0.27990501865E+02 -0.11764663433E+04  0.11903473793E+04  0.00000000000E+00 0.  1.
         22    1    5    5    0    0 -0.13348808027E+03 -0.29034730210E+02  0.86575394773E+02  0.16173243989E+03  0.00000000000E+00 0.  1.
          5    1    4    4  502    0 -0.35701061448E+02  0.11077392196E+01 -0.57910356664E+03  0.58022308104E+03  0.47000000000E+01 0. -1.
         -5    1    4    4    0  502 -0.98928454324E+01 -0.63510874933E-01  0.26992736118E+01  0.11280447793E+02  0.47000000000E+01 0. -1.
<mgrwt>
<rscale>  0 0.10004881E+04</rscale>
<asrwt>0</asrwt>
<pdfrwt beam="1">  1        2 0.27768295E+00 0.10004881E+04</pdfrwt>
<pdfrwt beam="2">  1       -2 0.21329856E-01 0.10004881E+04</pdfrwt>
<totfact> 0.19334772E+02</totfact>
</mgrwt>
</event>
<event>
 9    1  0.4321150E-036  0.9876465E+03  0.7818608E-02  0.8692892E-01
         -1   -1    0    0    0  501 -0.00000000000E+00  0.00000000000E+00  0.68275342286E+03  0.68275342286E+03  0.00000000000E+00 0. -1.
          1   -1    0    0  501    0  0.00000000000E+00 -0.00000000000E+00 -0.35717342831E+03  0.35717342831E+03  0.00000000000E+00 0. -1.
         36    2    1    2    0    0  0.00000000000E+00  0.00000000000E+00  0.32557999456E+03  0.10399268512E+04  0.98764645644E+03 0.  0.
         25    2    3    3    0    0  0.75419485711E+02 -0.91054869110E+02  0.14164569913E+02  0.17282576499E+03  0.12525582617E+03 0.  0.
         35    2    3    3    0    0 -0.75419485711E+02  0.91054869110E+02  0.31141542464E+03  0.86710108618E+03  0.80056582424E+03 0.  0.
         22    1    5    5    0    0 -0.57606704713E+02  0.37317532748E+03 -0.78329339415E+02  0.38563433831E+03  0.00000000000E+00 0. -1.
         22    1    5    5    0    0 -0.17812780998E+02 -0.28212045837E+03  0.38974476406E+03  0.48146674787E+03  0.00000000000E+00 0. -1.
          5    1    4    4  502    0  0.34708982741E+02  0.12743311627E+02 -0.34770916083E+02  0.50972660117E+02  0.47000000000E+01 0.  1.
         -5    1    4    4    0  502  0.40710502970E+02 -0.10379818074E+03  0.48935485996E+02  0.12185310487E+03  0.47000000000E+01 0.  1.
<mgrwt>
<rscale>  0 0.98764646E+03</rscale>
<asrwt>0</asrwt>
<pdfrwt beam="1">  1        1 0.54949758E-01 0.98764646E+03</pdfrwt>
<pdfrwt beam="2">  1       -1 0.10503899E+00 0.98764646E+03</pdfrwt>
<totfact> 0.71334816E+01</totfact>
</mgrwt>
</event>
<event>
 9    1  0.4321150E-036  0.9988131E+03  0.7818608E-02  0.8682169E-01
         -1   -1    0    0    0  501 -0.00000000000E+00  0.00000000000E+00  0.12671719804E+03  0.12671719804E+03  0.00000000000E+00 0.  1.
          1   -1    0    0  501    0  0.00000000000E+00 -0.00000000000E+00 -0.19682166283E+04  0.19682166283E+04  0.00000000000E+00 0.  1.
         36    2    1    2    0    0 -0.14210854715E-13  0.00000000000E+00 -0.18414994302E+04  0.20949338263E+04  0.99881308816E+03 0.  0.
         25    2    3    3    0    0  0.37019953595E+02 -0.91550595807E+02 -0.54795059916E+03  0.57084769058E+03  0.12595728706E+03 0.  0.
         35    2    3    3    0    0 -0.37019953595E+02  0.91550595807E+02 -0.12935488311E+04  0.15240861357E+04  0.79988623079E+03 0.  0.
         22    1    5    5    0    0 -0.20897832221E+03  0.38753799028E+03 -0.54236053678E+03  0.69857897544E+03  0.00000000000E+00 0.  1.
         22    1    5    5    0    0  0.17195836861E+03 -0.29598739447E+03 -0.75118829429E+03  0.82550716030E+03  0.00000000000E+00 0.  1.
          5    1    4    4  502    0 -0.42016918782E+02 -0.54076458259E+02 -0.18079625214E+03  0.19338836467E+03  0.47000000000E+01 0. -1.
         -5    1    4    4    0  502  0.79036872377E+02 -0.37474137549E+02 -0.36715434702E+03  0.37745932591E+03  0.47000000000E+01 0. -1.
<mgrwt>
<rscale>  0 0.99881309E+03</rscale>
<asrwt>0</asrwt>
<pdfrwt beam="1">  1        1 0.30280255E+00 0.99881309E+03</pdfrwt>
<pdfrwt beam="2">  1       -1 0.19494954E-01 0.99881309E+03</pdfrwt>
<totfact> 0.69944165E+01</totfact>
</mgrwt>
</event>
<event>
 9    1  0.4321150E-036  0.1000594E+04  0.7818608E-02  0.8680473E-01
          2   -1    0    0  501    0  0.00000000000E+00  0.00000000000E+00  0.11578924382E+04  0.11578924382E+04  0.00000000000E+00 0. -1.
         -2   -1    0    0    0  501 -0.00000000000E+00 -0.00000000000E+00 -0.21616588788E+03  0.21616588788E+03  0.00000000000E+00 0. -1.
         36    2    1    2    0    0  0.00000000000E+00  0.14210854715E-13  0.94172655030E+03  0.13740583261E+04  0.10005935178E+04 0.  0.
         25    2    3    3    0    0 -0.68225756162E+02 -0.51586682126E+02  0.22811419297E+02  0.15303802008E+03  0.12483723468E+03 0.  0.
         35    2    3    3    0    0  0.68225756162E+02  0.51586682126E+02  0.91891513100E+03  0.12210203060E+04  0.79948085033E+03 0.  0.
         22    1    5    5    0    0  0.16746731221E+02  0.12421380499E+03  0.10528035819E+04  0.10602381357E+04  0.00000000000E+00 0.  1.
         22    1    5    5    0    0  0.51479024941E+02 -0.72627122865E+02 -0.13388845091E+03  0.16078217025E+03  0.00000000000E+00 0.  1.
          5    1    4    4  502    0  0.28573327465E+02  0.13315863548E+02 -0.70397763593E+01  0.32640400053E+02  0.47000000000E+01 0. -1.
         -5    1    4    4    0  502 -0.96799083627E+02 -0.64902545674E+02  0.29851195656E+02  0.12039762003E+03  0.47000000000E+01 0. -1.
<mgrwt>
<rscale>  0 0.10005935E+04</rscale>
<asrwt>0</asrwt>
<pdfrwt beam="1">  1        2 0.17813729E+00 0.10005935E+04</pdfrwt>
<pdfrwt beam="2">  1       -2 0.33256291E-01 0.10005935E+04</pdfrwt>
<totfact> 0.20442095E+02</totfact>
</mgrwt>
</event>
<event>
 9    1  0.4321150E-036  0.1000568E+04  0.7818608E-02  0.8680498E-01
          3   -1    0    0  501    0  0.00000000000E+00  0.00000000000E+00  0.30752858031E+03  0.30752858031E+03  0.00000000000E+00 0. -1.
         -3   -1    0    0    0  501 -0.00000000000E+00 -0.00000000000E+00 -0.81385557838E+03  0.81385557838E+03  0.00000000000E+00 0. -1.
         36    2    1    2    0    0 -0.14210854715E-13  0.14210854715E-13 -0.50632699806E+03  0.11213841587E+04  0.10005675401E+04 0.  0.
         25    2    3    3    0    0  0.86288946361E+02 -0.74251441398E+02 -0.18914863998E+03  0.25362574876E+03  0.12485893485E+03 0.  0.
         35    2    3    3    0    0 -0.86288946361E+02  0.74251441398E+02 -0.31717835808E+03  0.86775840993E+03  0.79965210458E+03 0.  0.
         22    1    5    5    0    0 -0.35069959549E+03  0.15481855230E+03 -0.42383231506E+03  0.57148300212E+03  0.00000000000E+00 0.  1.
         22    1    5    5    0    0  0.26441064913E+03 -0.80567110906E+02  0.10665395698E+03  0.29627540781E+03  0.00000000000E+00 0.  1.
          5    1    4    4  502    0  0.35234628303E+02 -0.73887161151E+02 -0.31477397597E+02  0.87827718712E+02  0.47000000000E+01 0. -1.
         -5    1    4    4    0  502  0.51054318058E+02 -0.36428024638E+00 -0.15767124238E+03  0.16579803005E+03  0.47000000000E+01 0. -1.
<mgrwt>
<rscale>  0 0.10005675E+04</rscale>
<asrwt>0</asrwt>
<pdfrwt beam="1">  1        3 0.47312089E-01 0.10005675E+04</pdfrwt>
<pdfrwt beam="2">  1       -3 0.12520855E+00 0.10005675E+04</pdfrwt>
<totfact> 0.78087597E+00</totfact>
</mgrwt>
</event>
<event>
 9    1  0.4321150E-036  0.9859347E+03  0.7818608E-02  0.8694549E-01
          2   -1    0    0  501    0  0.00000000000E+00  0.00000000000E+00  0.10055121533E+04  0.10055121533E+04  0.00000000000E+00 0.  1.
         -2   -1    0    0    0  501 -0.00000000000E+00 -0.00000000000E+00 -0.24168458571E+03  0.24168458571E+03  0.00000000000E+00 0.  1.
         36    2    1    2    0    0 -0.71054273576E-14  0.00000000000E+00  0.76382756757E+03  0.12471967390E+04  0.98593465949E+03 0.  0.
         25    2    3    3    0    0 -0.18522142797E+02 -0.10496459321E+03  0.55546589973E+02  0.17326680612E+03  0.12480114921E+03 0.  0.
         35    2    3    3    0    0  0.18522142797E+02  0.10496459321E+03  0.70828097760E+03  0.10739299329E+04  0.80018930379E+03 0.  0.
         22    1    5    5    0    0  0.31348480455E+03 -0.34184080895E+02  0.24426950852E+02  0.31628776454E+03  0.00000000000E+00 0. -1.
         22    1    5    5    0    0 -0.29496266176E+03  0.13914867410E+03  0.68385402675E+03  0.75764216833E+03  0.00000000000E+00 0. -1.
          5    1    4    4  502    0 -0.51207648670E+02 -0.11614748828E+03  0.31363167606E+02  0.13083654153E+03  0.47000000000E+01 0.  1.
         -5    1    4    4    0  502  0.32685505873E+02  0.11182895071E+02  0.24183422366E+02  0.42430264596E+02  0.47000000000E+01 0.  1.
<mgrwt>
<rscale>  0 0.98593466E+03</rscale>
<asrwt>0</asrwt>
<pdfrwt beam="1">  1        2 0.15469418E+00 0.98593466E+03</pdfrwt>
<pdfrwt beam="2">  1       -2 0.37182244E-01 0.98593466E+03</pdfrwt>
<totfact> 0.20563054E+02</totfact>
</mgrwt>
</event>
<event>
 9    1  0.4321150E-036  0.1000158E+04  0.7818608E-02  0.8680888E-01
          1   -1    0    0  501    0  0.00000000000E+00  0.00000000000E+00  0.20549747373E+04  0.20549747373E+04  0.00000000000E+00 0.  1.
         -1   -1    0    0    0  501 -0.00000000000E+00 -0.00000000000E+00 -0.12169442709E+03  0.12169442709E+03  0.00000000000E+00 0.  1.
         36    2    1    2    0    0 -0.14210854715E-13  0.71054273576E-14  0.19332803102E+04  0.21766691644E+04  0.10001579342E+04 0.  0.
         25    2    3    3    0    0 -0.10940666931E+03 -0.23461886119E+02  0.54112972525E+03  0.56636696506E+03  0.12421706879E+03 0.  0.
         35    2    3    3    0    0  0.10940666931E+03  0.23461886119E+02  0.13921505850E+04  0.16103021993E+04  0.80154204042E+03 0.  0.
         22    1    5    5    0    0  0.28544203261E+03 -0.72111150660E+02  0.11266289860E+03  0.31523023451E+03  0.00000000000E+00 0.  1.
         22    1    5    5    0    0 -0.17603536330E+03  0.95573036778E+02  0.12794876864E+04  0.12950719648E+04  0.00000000000E+00 0.  1.
          5    1    4    4  502    0  0.94994932120E+01  0.30963949836E+02  0.16250684093E+03  0.16576962903E+03  0.47000000000E+01 0. -1.
         -5    1    4    4    0  502 -0.11890616252E+03 -0.54425835954E+02  0.37862288432E+03  0.40059733603E+03  0.47000000000E+01 0. -1.
<mgrwt>
<rscale>  0 0.10001579E+04</rscale>
<asrwt>0</asrwt>
<pdfrwt beam="1">  1        1 0.31614993E+00 0.10001579E+04</pdfrwt>
<pdfrwt beam="2">  1       -1 0.18722221E-01 0.10001579E+04</pdfrwt>
<totfact> 0.64986025E+01</totfact>
</mgrwt>
</event>
<event>
 9    1  0.4321150E-036  0.9995906E+03  0.7818608E-02  0.8681428E-01
          2   -1    0    0  501    0  0.00000000000E+00  0.00000000000E+00  0.19306411595E+04  0.19306411595E+04  0.00000000000E+00 0.  1.
         -2   -1    0    0    0  501 -0.00000000000E+00 -0.00000000000E+00 -0.12938464470E+03  0.12938464470E+03  0.00000000000E+00 0.  1.
         36    2    1    2    0    0  0.00000000000E+00  0.71054273576E-14  0.18012565148E+04  0.20600258042E+04  0.99959055710E+03 0.  0.
         25    2    3    3    0    0 -0.11543414700E+03 -0.27335588207E+02  0.16777333784E+03  0.23726939692E+03  0.11864483616E+03 0.  0.
         35    2    3    3    0    0  0.11543414700E+03  0.27335588207E+02  0.16334831770E+04  0.18227564073E+04  0.80006334385E+03 0.  0.
         22    1    5    5    0    0  0.38925149727E+03 -0.68289225242E+02  0.13867781658E+04  0.14419895379E+04  0.00000000000E+00 0. -1.
         22    1    5    5    0    0 -0.27381735027E+03  0.95624813450E+02  0.24670501121E+03  0.38076686937E+03  0.00000000000E+00 0. -1.
          5    1    4    4  502    0 -0.94500086627E+01 -0.62469866136E+01 -0.18307379187E+02  0.22035826242E+02  0.47000000000E+01 0. -1.
         -5    1    4    4    0  502 -0.10598413834E+03 -0.21088601594E+02  0.18608071703E+03  0.21523357067E+03  0.47000000000E+01 0. -1.
<mgrwt>
<rscale>  0 0.99959056E+03</rscale>
<asrwt>0</asrwt>
<pdfrwt beam="1">  1        2 0.29702170E+00 0.99959056E+03</pdfrwt>
<pdfrwt beam="2">  1       -2 0.19905331E-01 0.99959056E+03</pdfrwt>
<totfact> 0.18507166E+02</totfact>
</mgrwt>
</event>
<event>
 9    1  0.4321150E-036  0.1005440E+04  0.7818608E-02  0.8675875E-01
          2   -1    0    0  501    0  0.00000000000E+00  0.00000000000E+00  0.75774903781E+03  0.75774903781E+03  0.00000000000E+00 0. -1.
         -2   -1    0    0    0  501 -0.00000000000E+00 -0.00000000000E+00 -0.33352397003E+03  0.33352397003E+03  0.00000000000E+00 0. -1.
         36    2    1    2    0    0  0.00000000000E+00 -0.28421709430E-13  0.42422506778E+03  0.10912730078E+04  0.10054401372E+04 0.  0.
         25    2    3    3    0    0  0.10932290519E+03  0.29504318766E+02 -0.19463685131E+02  0.16922174719E+03  0.12423832846E+03 0.  0.
         35    2    3    3    0    0 -0.10932290519E+03 -0.29504318766E+02  0.44368875291E+03  0.92205126066E+03  0.80031044938E+03 0.  0.
         22    1    5    5    0    0  0.24587157155E+02 -0.40337829579E+03  0.16310910238E+03  0.43580174057E+03  0.00000000000E+00 0. -1.
         22    1    5    5    0    0 -0.13391006234E+03  0.37387397702E+03  0.28057965053E+03  0.48624952008E+03  0.00000000000E+00 0. -1.
          5    1    4    4  502    0  0.12545986052E+03  0.54416342479E+02 -0.23707127628E+02  0.13887200161E+03  0.47000000000E+01 0.  1.
         -5    1    4    4    0  502 -0.16136955330E+02 -0.24912023713E+02  0.42434424969E+01  0.30349745584E+02  0.47000000000E+01 0.  1.
<mgrwt>
<rscale>  0 0.10054401E+04</rscale>
<asrwt>0</asrwt>
<pdfrwt beam="1">  1        2 0.11657677E+00 0.10054401E+04</pdfrwt>
<pdfrwt beam="2">  1       -2 0.51311380E-01 0.10054401E+04</pdfrwt>
<totfact> 0.16078018E+02</totfact>
</mgrwt>
</event>
<event>
 9    1  0.4321150E-036  0.1000834E+04  0.7818608E-02  0.8680244E-01
          2   -1    0    0  501    0  0.00000000000E+00  0.00000000000E+00  0.80366283818E+03  0.80366283818E+03  0.00000000000E+00 0. -1.
         -2   -1    0    0    0  501 -0.00000000000E+00 -0.00000000000E+00 -0.31159499455E+03  0.31159499455E+03  0.00000000000E+00 0. -1.
         36    2    1    2    0    0  0.00000000000E+00  0.28421709430E-13  0.49206784363E+03  0.11152578327E+04  0.10008342874E+04 0.  0.
         25    2    3    3    0    0  0.59233335057E+02  0.12059490730E+03  0.50334518782E+02  0.19064869991E+03  0.12554538361E+03 0.  0.
         35    2    3    3    0    0 -0.59233335057E+02 -0.12059490730E+03  0.44173332485E+03  0.92460913283E+03  0.80107552614E+03 0.  0.
         22    1    5    5    0    0 -0.19683638326E+03 -0.39459103441E+01  0.63227696650E+03  0.66221921926E+03  0.00000000000E+00 0.  1.
         22    1    5    5    0    0  0.13760304820E+03 -0.11664899696E+03 -0.19054364166E+03  0.26238991357E+03  0.00000000000E+00 0.  1.
          5    1    4    4  502    0  0.84908341633E+02  0.12843503766E+03  0.53831879194E+02  0.16317152508E+03  0.47000000000E+01 0. -1.
         -5    1    4    4    0  502 -0.25675006576E+02 -0.78401303608E+01 -0.34973604122E+01  0.27477174830E+02  0.47000000000E+01 0. -1.
<mgrwt>
<rscale>  0 0.10008343E+04</rscale>
<asrwt>0</asrwt>
<pdfrwt beam="1">  1        2 0.12364044E+00 0.10008343E+04</pdfrwt>
<pdfrwt beam="2">  1       -2 0.47937692E-01 0.10008343E+04</pdfrwt>
<totfact> 0.17085044E+02</totfact>
</mgrwt>
</event>
<event>
 9    1  0.4321150E-036  0.1000105E+04  0.7818608E-02  0.8680938E-01
         -2   -1    0    0    0  501 -0.00000000000E+00  0.00000000000E+00  0.21507347842E+03  0.21507347842E+03  0.00000000000E+00 0.  1.
          2   -1    0    0  501    0  0.00000000000E+00 -0.00000000000E+00 -0.11626384791E+04  0.11626384791E+04  0.00000000000E+00 0.  1.
         36    2    1    2    0    0  0.19539925233E-13  0.28421709430E-13 -0.94756500065E+03  0.13777119575E+04  0.10001053981E+04 0.  0.
         25    2    3    3    0    0  0.82979580077E+01  0.11894376976E+03 -0.79332704840E+02  0.19019528903E+03  0.12515627608E+03 0.  0.
         35    2    3    3    0    0 -0.82979580077E+01 -0.11894376976E+03 -0.86823229581E+03  0.11875166684E+04  0.80134389739E+03 0.  0.
         22    1    5    5    0    0 -0.29319590626E+03  0.21905190304E+03 -0.35065422270E+03  0.50685891486E+03  0.00000000000E+00 0.  1.
         22    1    5    5    0    0  0.28489794825E+03 -0.33799567280E+03 -0.51757807310E+03  0.68065775358E+03  0.00000000000E+00 0.  1.
          5    1    4    4  502    0  0.44824985854E+00 -0.17200379265E+02 -0.46565719619E+02  0.49864919717E+02  0.47000000000E+01 0.  1.
         -5    1    4    4    0  502  0.78497081491E+01  0.13614414902E+03 -0.32766985222E+02  0.14033036932E+03  0.47000000000E+01 0.  1.
<mgrwt>
<rscale>  0 0.10001054E+04</rscale>
<asrwt>0</asrwt>
<pdfrwt beam="1">  1        2 0.17886745E+00 0.10001054E+04</pdfrwt>
<pdfrwt beam="2">  1       -2 0.33088229E-01 0.10001054E+04</pdfrwt>
<totfact> 0.20500517E+02</totfact>
</mgrwt>
</event>
<event>
 9    1  0.4321150E-036  0.1000511E+04  0.7818608E-02  0.8680551E-01
          2   -1    0    0  501    0  0.00000000000E+00  0.00000000000E+00  0.15913892206E+04  0.15913892206E+04  0.00000000000E+00 0.  1.
         -2   -1    0    0    0  501 -0.00000000000E+00 -0.00000000000E+00 -0.15725617898E+03  0.15725617898E+03  0.00000000000E+00 0.  1.
         36    2    1    2    0    0  0.00000000000E+00 -0.28421709430E-13  0.14341330417E+04  0.17486453996E+04  0.10005114454E+04 0.  0.
         25    2    3    3    0    0  0.75430393382E+02  0.48615874069E+02  0.45112140574E+03  0.47709347912E+03  0.12670602843E+03 0.  0.
         35    2    3    3    0    0 -0.75430393382E+02 -0.48615874069E+02  0.98301163592E+03  0.12715519205E+04  0.80154797906E+03 0.  0.
         22    1    5    5    0    0 -0.71369347274E+02 -0.41622187324E+03  0.39598488854E+03  0.57891127424E+03  0.00000000000E+00 0. -1.
         22    1    5    5    0    0 -0.40610461080E+01  0.36760599917E+03  0.58702674737E+03  0.69264064626E+03  0.00000000000E+00 0. -1.
          5    1    4    4  502    0  0.16123863184E+02 -0.40842513798E+02  0.88723883022E+02  0.99106545272E+02  0.47000000000E+01 0. -1.
         -5    1    4    4    0  502  0.59306530198E+02  0.89458387867E+02  0.36239752272E+03  0.37798693384E+03  0.47000000000E+01 0. -1.
<mgrwt>
<rscale>  0 0.10005114E+04</rscale>
<asrwt>0</asrwt>
<pdfrwt beam="1">  1        2 0.24482910E+00 0.10005114E+04</pdfrwt>
<pdfrwt beam="2">  1       -2 0.24193259E-01 0.10005114E+04</pdfrwt>
<totfact> 0.20451088E+02</totfact>
</mgrwt>
</event>
<event>
 9    1  0.4321150E-036  0.1002389E+04  0.7818608E-02  0.8678766E-01
          2   -1    0    0  501    0  0.00000000000E+00  0.00000000000E+00  0.19496606502E+04  0.19496606502E+04  0.00000000000E+00 0. -1.
         -2   -1    0    0    0  501 -0.00000000000E+00 -0.00000000000E+00 -0.12884089239E+03  0.12884089239E+03  0.00000000000E+00 0. -1.
         36    2    1    2    0    0  0.71054273576E-14 -0.71054273576E-14  0.18208197578E+04  0.20785015425E+04  0.10023891819E+04 0.  0.
         25    2    3    3    0    0 -0.87489715122E+01  0.63424940428E+02  0.66675315681E+02  0.14972825889E+03  0.11778661307E+03 0.  0.
         35    2    3    3    0    0  0.87489715122E+01 -0.63424940428E+02  0.17541444421E+04  0.19287732836E+04  0.79940251967E+03 0.  0.
         22    1    5    5    0    0 -0.17897942124E+03 -0.12103939494E+03  0.17149777857E+04  0.17285349212E+04  0.00000000000E+00 0. -1.
         22    1    5    5    0    0  0.18772839275E+03  0.57614454510E+02  0.39166656350E+02  0.20023836242E+03  0.00000000000E+00 0. -1.
          5    1    4    4  502    0 -0.46369726537E+02  0.21216008815E+02  0.76589748384E+02  0.92132242601E+02  0.47000000000E+01 0. -1.
         -5    1    4    4    0  502  0.37620755025E+02  0.42208931613E+02 -0.99144327026E+01  0.57596016289E+02  0.47000000000E+01 0. -1.
<mgrwt>
<rscale>  0 0.10023892E+04</rscale>
<asrwt>0</asrwt>
<pdfrwt beam="1">  1        2 0.29994777E+00 0.10023892E+04</pdfrwt>
<pdfrwt beam="2">  1       -2 0.19821677E-01 0.10023892E+04</pdfrwt>
<totfact> 0.18184494E+02</totfact>
</mgrwt>
</event>
<event>
 9    1  0.4321150E-036  0.9998505E+03  0.7818608E-02  0.8681180E-01
          2   -1    0    0  501    0  0.00000000000E+00  0.00000000000E+00  0.17560309382E+04  0.17560309382E+04  0.00000000000E+00 0.  1.
         -2   -1    0    0    0  501 -0.00000000000E+00 -0.00000000000E+00 -0.14232394636E+03  0.14232394636E+03  0.00000000000E+00 0.  1.
         36    2    1    2    0    0 -0.28421709430E-13  0.00000000000E+00  0.16137069918E+04  0.18983548845E+04  0.99985049493E+03 0.  0.
         25    2    3    3    0    0 -0.11609453653E+03 -0.38083386500E+02  0.16771820633E+03  0.24250900276E+03  0.12551069256E+03 0.  0.
         35    2    3    3    0    0  0.11609453653E+03  0.38083386500E+02  0.14459887855E+04  0.16558458818E+04  0.79750469009E+03 0.  0.
         22    1    5    5    0    0 -0.23802005998E+03 -0.16281662489E+03  0.10462917971E+04  0.10853060982E+04  0.00000000000E+00 0.  1.
         22    1    5    5    0    0  0.35411459651E+03  0.20090001139E+03  0.39969698841E+03  0.57053978352E+03  0.00000000000E+00 0.  1.
          5    1    4    4  502    0 -0.11071981453E+03  0.21764014916E+02  0.12600954549E+03  0.16921301732E+03  0.47000000000E+01 0. -1.
         -5    1    4    4    0  502 -0.53747219969E+01 -0.59847401416E+02  0.41708660835E+02  0.73295985438E+02  0.47000000000E+01 0. -1.
<mgrwt>
<rscale>  0 0.99985049E+03</rscale>
<asrwt>0</asrwt>
<pdfrwt beam="1">  1        2 0.27015859E+00 0.99985049E+03</pdfrwt>
<pdfrwt beam="2">  1       -2 0.21895993E-01 0.99985049E+03</pdfrwt>
<totfact> 0.19682645E+02</totfact>
</mgrwt>
</event>
<event>
 9    1  0.4321150E-036  0.1000269E+04  0.7818608E-02  0.8680781E-01
          2   -1    0    0  501    0  0.00000000000E+00  0.00000000000E+00  0.17523935055E+04  0.17523935055E+04  0.00000000000E+00 0. -1.
         -2   -1    0    0    0  501 -0.00000000000E+00 -0.00000000000E+00 -0.14273892297E+03  0.14273892297E+03  0.00000000000E+00 0. -1.
         36    2    1    2    0    0  0.00000000000E+00 -0.42632564146E-13  0.16096545825E+04  0.18951324284E+04  0.10002694869E+04 0.  0.
         25    2    3    3    0    0 -0.39328829187E+02  0.12416888929E+03  0.40155673699E+03  0.44026130506E+03  0.12497013180E+03 0.  0.
         35    2    3    3    0    0  0.39328829187E+02 -0.12416888929E+03  0.12080978455E+04  0.14548711234E+04  0.80011556131E+03 0.  0.
         22    1    5    5    0    0  0.98929771101E+02 -0.19055041291E+03 -0.27145570752E+02  0.21641035437E+03  0.00000000000E+00 0.  1.
         22    1    5    5    0    0 -0.59600941913E+02  0.66381523619E+02  0.12352434163E+04  0.12384607690E+04  0.00000000000E+00 0.  1.
          5    1    4    4  502    0 -0.22733597874E+02  0.11307286737E+03  0.40347558489E+03  0.41966287352E+03  0.47000000000E+01 0.  1.
         -5    1    4    4    0  502 -0.16595231314E+02  0.11096021918E+02 -0.19188479036E+01  0.20598431543E+02  0.47000000000E+01 0.  1.
<mgrwt>
<rscale>  0 0.10002695E+04</rscale>
<asrwt>0</asrwt>
<pdfrwt beam="1">  1        2 0.26959899E+00 0.10002695E+04</pdfrwt>
<pdfrwt beam="2">  1       -2 0.21959836E-01 0.10002695E+04</pdfrwt>
<totfact> 0.19675435E+02</totfact>
</mgrwt>
</event>
<event>
 9    1  0.4321150E-036  0.1001037E+04  0.7818608E-02  0.8680051E-01
         -1   -1    0    0    0  501 -0.00000000000E+00  0.00000000000E+00  0.22375110751E+03  0.22375110751E+03  0.00000000000E+00 0.  1.
          1   -1    0    0  501    0  0.00000000000E+00 -0.00000000000E+00 -0.11196319255E+04  0.11196319255E+04  0.00000000000E+00 0.  1.
         36    2    1    2    0    0  0.00000000000E+00  0.00000000000E+00 -0.89588081802E+03  0.13433830331E+04  0.10010372288E+04 0.  0.
         25    2    3    3    0    0 -0.11574774388E+03  0.36842235703E+02 -0.26343705618E+03  0.31568112839E+03  0.12450141247E+03 0.  0.
         35    2    3    3    0    0  0.11574774388E+03 -0.36842235703E+02 -0.63244376184E+03  0.10277019047E+04  0.80089400198E+03 0.  0.
         22    1    5    5    0    0 -0.51440290484E+01 -0.20124248030E+03  0.12919515224E+03  0.23919946546E+03  0.00000000000E+00 0. -1.
         22    1    5    5    0    0  0.12089177293E+03  0.16440024460E+03 -0.76163891409E+03  0.78850243921E+03  0.00000000000E+00 0. -1.
          5    1    4    4  502    0 -0.81801479702E+02  0.22467478929E+02 -0.26519962408E+03  0.27847657047E+03  0.47000000000E+01 0.  1.
         -5    1    4    4    0  502 -0.33946264179E+02  0.14374756774E+02  0.17625678990E+01  0.37204557915E+02  0.47000000000E+01 0.  1.
<mgrwt>
<rscale>  0 0.10010372E+04</rscale>
<asrwt>0</asrwt>
<pdfrwt beam="1">  1        1 0.17225106E+00 0.10010372E+04</pdfrwt>
<pdfrwt beam="2">  1       -1 0.34423248E-01 0.10010372E+04</pdfrwt>
<totfact> 0.10865721E+02</totfact>
</mgrwt>
</event>
<event>
 9    1  0.4321150E-036  0.1000768E+04  0.7818608E-02  0.8680306E-01
          2   -1    0    0  501    0  0.00000000000E+00  0.00000000000E+00  0.13729840582E+04  0.13729840582E+04  0.00000000000E+00 0.  1.
         -2   -1    0    0    0  501 -0.00000000000E+00 -0.00000000000E+00 -0.18236510625E+03  0.18236510625E+03  0.00000000000E+00 0.  1.
         36    2    1    2    0    0 -0.42632564146E-13  0.00000000000E+00  0.11906189519E+04  0.15553491644E+04  0.10007684720E+04 0.  0.
         25    2    3    3    0    0  0.86873031368E+02  0.10547009845E+03  0.28324592395E+03  0.33832079658E+03  0.12474711508E+03 0.  0.
         35    2    3    3    0    0 -0.86873031368E+02 -0.10547009845E+03  0.90737302798E+03  0.12170283678E+04  0.79947568504E+03 0.  0.
         22    1    5    5    0    0  0.25299476796E+03 -0.32018591614E+03  0.48701135257E+03  0.63537817955E+03  0.00000000000E+00 0.  1.
         22    1    5    5    0    0 -0.33986779933E+03  0.21471581770E+03  0.42036167540E+03  0.58165018829E+03  0.00000000000E+00 0.  1.
          5    1    4    4  502    0  0.96337750821E+02  0.21833477063E+02  0.17631867422E+03  0.20215842261E+03  0.47000000000E+01 0. -1.
         -5    1    4    4    0  502 -0.94647194536E+01  0.83636621383E+02  0.10692724973E+03  0.13616237397E+03  0.47000000000E+01 0. -1.
<mgrwt>
<rscale>  0 0.10007685E+04</rscale>
<asrwt>0</asrwt>
<pdfrwt beam="1">  1        2 0.21122831E+00 0.10007685E+04</pdfrwt>
<pdfrwt beam="2">  1       -2 0.28056171E-01 0.10007685E+04</pdfrwt>
<totfact> 0.20886375E+02</totfact>
</mgrwt>
</event>
<event>
 9    1  0.4321150E-036  0.9986598E+03  0.7818608E-02  0.8682315E-01
          2   -1    0    0  501    0  0.00000000000E+00  0.00000000000E+00  0.36529627784E+03  0.36529627784E+03  0.00000000000E+00 0.  1.
         -2   -1    0    0    0  501 -0.00000000000E+00 -0.00000000000E+00 -0.68254283547E+03  0.68254283547E+03  0.00000000000E+00 0.  1.
         36    2    1    2    0    0 -0.42632564146E-13  0.14210854715E-13 -0.31724655763E+03  0.10478391133E+04  0.99865981648E+03 0.  0.
         25    2    3    3    0    0  0.88558639615E+02  0.33391660305E+02  0.54563164537E+02  0.16084291110E+03  0.11804942819E+03 0.  0.
         35    2    3    3    0    0 -0.88558639615E+02 -0.33391660305E+02 -0.37180972217E+03  0.88699620221E+03  0.79972630169E+03 0.  0.
         22    1    5    5    0    0 -0.39867833907E+03  0.84358277854E+02 -0.26804919244E+02  0.40838614176E+03  0.00000000000E+00 0. -1.
         22    1    5    5    0    0  0.31011969946E+03 -0.11774993816E+03 -0.34500480292E+03  0.47861006045E+03  0.00000000000E+00 0. -1.
          5    1    4    4  502    0  0.92298767860E+02 -0.12985716429E+02  0.61450121039E+01  0.93528298142E+02  0.47000000000E+01 0. -1.
         -5    1    4    4    0  502 -0.37401282454E+01  0.46377376734E+02  0.48418152433E+02  0.67314612953E+02  0.47000000000E+01 0. -1.
<mgrwt>
<rscale>  0 0.99865982E+03</rscale>
<asrwt>0</asrwt>
<pdfrwt beam="1">  1        2 0.56199428E-01 0.99865982E+03</pdfrwt>
<pdfrwt beam="2">  1       -2 0.10500659E+00 0.99865982E+03</pdfrwt>
<totfact> 0.76622622E+01</totfact>
</mgrwt>
</event>
<event>
 9    1  0.4321150E-036  0.1000090E+04  0.7818608E-02  0.8680952E-01
         -3   -1    0    0    0  501 -0.00000000000E+00  0.00000000000E+00  0.25848209958E+03  0.25848209958E+03  0.00000000000E+00 0.  1.
          3   -1    0    0  501    0  0.00000000000E+00 -0.00000000000E+00 -0.96735939599E+03  0.96735939599E+03  0.00000000000E+00 0.  1.
         36    2    1    2    0    0 -0.14210854715E-13  0.28421709430E-13 -0.70887729641E+03  0.12258414956E+04  0.10000901714E+04 0.  0.
         25    2    3    3    0    0  0.63322706844E+02 -0.10588084077E+03 -0.21614590425E+03  0.27866691504E+03  0.12536219513E+03 0.  0.
         35    2    3    3    0    0 -0.63322706844E+02  0.10588084077E+03 -0.49273139216E+03  0.94717458053E+03  0.79945915689E+03 0.  0.
         22    1    5    5    0    0  0.22519150135E+03  0.35765182006E+03 -0.30147372386E+03  0.51914587820E+03  0.00000000000E+00 0.  1.
         22    1    5    5    0    0 -0.28851420819E+03 -0.25177097928E+03 -0.19125766830E+03  0.42802870233E+03  0.00000000000E+00 0.  1.
          5    1    4    4  502    0  0.95634946266E+01 -0.10935869997E+03 -0.18787579502E+03  0.21764693898E+03  0.47000000000E+01 0. -1.
         -5    1    4    4    0  502  0.53759212218E+02  0.34778592015E+01 -0.28270109225E+02  0.61019976061E+02  0.47000000000E+01 0. -1.
<mgrwt>
<rscale>  0 0.10000902E+04</rscale>
<asrwt>0</asrwt>
<pdfrwt beam="1">  1        3 0.14882452E+00 0.10000902E+04</pdfrwt>
<pdfrwt beam="2">  1       -3 0.39766476E-01 0.10000902E+04</pdfrwt>
<totfact> 0.86447687E+00</totfact>
</mgrwt>
</event>
<event>
 9    1  0.4321150E-036  0.1000028E+04  0.7818608E-02  0.8681011E-01
          3   -1    0    0  501    0  0.00000000000E+00  0.00000000000E+00  0.51378935704E+03  0.51378935704E+03  0.00000000000E+00 0. -1.
         -3   -1    0    0    0  501 -0.00000000000E+00 -0.00000000000E+00 -0.48660779853E+03  0.48660779853E+03  0.00000000000E+00 0. -1.
         36    2    1    2    0    0  0.28421709430E-13  0.28421709430E-13  0.27181558510E+02  0.10003971556E+04  0.10000278155E+04 0.  0.
         25    2    3    3    0    0 -0.14552212068E+02  0.92197077062E+02 -0.98926474573E+02  0.18485657126E+03  0.12519359677E+03 0.  0.
         35    2    3    3    0    0  0.14552212068E+02 -0.92197077062E+02  0.12610803308E+03  0.81554058430E+03  0.80030690410E+03 0.  0.
         22    1    5    5    0    0  0.33802446036E+03 -0.25621032757E+03 -0.19801464847E+02  0.42461319547E+03  0.00000000000E+00 0.  1.
         22    1    5    5    0    0 -0.32347224829E+03  0.16401325050E+03  0.14590949793E+03  0.39092738884E+03  0.00000000000E+00 0.  1.
          5    1    4    4  502    0  0.41840029052E+02  0.81641332078E+02 -0.86055955910E+02  0.12587141328E+03  0.47000000000E+01 0. -1.
         -5    1    4    4    0  502 -0.56392241120E+02  0.10555744984E+02 -0.12870518664E+02  0.58985157975E+02  0.47000000000E+01 0. -1.
<mgrwt>
<rscale>  0 0.10000278E+04</rscale>
<asrwt>0</asrwt>
<pdfrwt beam="1">  1        3 0.79044516E-01 0.10000278E+04</pdfrwt>
<pdfrwt beam="2">  1       -3 0.74862738E-01 0.10000278E+04</pdfrwt>
<totfact> 0.10075336E+01</totfact>
</mgrwt>
</event>
<event>
 9    1  0.4321150E-036  0.9993445E+03  0.7818608E-02  0.8681662E-01
         -2   -1    0    0    0  501 -0.00000000000E+00  0.00000000000E+00  0.16410733029E+03  0.16410733029E+03  0.00000000000E+00 0. -1.
          2   -1    0    0  501    0  0.00000000000E+00 -0.00000000000E+00 -0.15213967395E+04  0.15213967395E+04  0.00000000000E+00 0. -1.
         36    2    1    2    0    0 -0.71054273576E-14  0.71054273576E-14 -0.13572894092E+04  0.16855040697E+04  0.99934449961E+03 0.  0.
         25    2    3    3    0    0 -0.45223091070E+02  0.56429942963E+02 -0.53324828021E+02  0.15378422092E+03  0.12480618131E+03 0.  0.
         35    2    3    3    0    0  0.45223091070E+02 -0.56429942963E+02 -0.13039645811E+04  0.15317198488E+04  0.80038278340E+03 0.  0.
         22    1    5    5    0    0  0.10283648109E+03 -0.35431815477E+03 -0.11145829816E+04  0.11740578860E+04  0.00000000000E+00 0.  1.
         22    1    5    5    0    0 -0.57613390019E+02  0.29788821181E+03 -0.18938159951E+03  0.35766196286E+03  0.00000000000E+00 0.  1.
          5    1    4    4  502    0 -0.54886683124E+02  0.89066445543E+02 -0.56991947134E+02  0.11922898869E+03  0.47000000000E+01 0.  1.
         -5    1    4    4    0  502  0.96635920535E+01 -0.32636502581E+02  0.36671191133E+01  0.34555232233E+02  0.47000000000E+01 0.  1.
<mgrwt>
<rscale>  0 0.99934450E+03</rscale>
<asrwt>0</asrwt>
<pdfrwt beam="1">  1        2 0.23406102E+00 0.99934450E+03</pdfrwt>
<pdfrwt beam="2">  1       -2 0.25247283E-01 0.99934450E+03</pdfrwt>
<totfact> 0.20770427E+02</totfact>
</mgrwt>
</event>
<event>
 9    1  0.4321150E-036  0.1000080E+04  0.7818608E-02  0.8680962E-01
          2   -1    0    0  501    0  0.00000000000E+00  0.00000000000E+00  0.48153206310E+03  0.48153206310E+03  0.00000000000E+00 0. -1.
         -2   -1    0    0    0  501 -0.00000000000E+00 -0.00000000000E+00 -0.51925921195E+03  0.51925921195E+03  0.00000000000E+00 0. -1.
         36    2    1    2    0    0  0.00000000000E+00  0.00000000000E+00 -0.37727148850E+02  0.10007912750E+04  0.10000799160E+04 0.  0.
         25    2    3    3    0    0 -0.79295186267E+02 -0.96790154641E+01 -0.12578378037E+03  0.19451356453E+03  0.12503022626E+03 0.  0.
         35    2    3    3    0    0  0.79295186267E+02  0.96790154641E+01  0.88056631518E+02  0.80627771052E+03  0.79746370840E+03 0.  0.
         22    1    5    5    0    0  0.29142118697E+03 -0.26248745580E+03 -0.11138856100E+03  0.40771728464E+03  0.00000000000E+00 0. -1.
         22    1    5    5    0    0 -0.21212600071E+03  0.27216647127E+03  0.19944519252E+03  0.39856042588E+03  0.00000000000E+00 0. -1.
          5    1    4    4  502    0 -0.82373929100E+02  0.33811206195E+02 -0.39087643532E+02  0.97358079976E+02  0.47000000000E+01 0.  1.
         -5    1    4    4    0  502  0.30787428328E+01 -0.43490221659E+02 -0.86696136836E+02  0.97155484558E+02  0.47000000000E+01 0.  1.
<mgrwt>
<rscale>  0 0.10000799E+04</rscale>
<asrwt>0</asrwt>
<pdfrwt beam="1">  1        2 0.74081856E-01 0.10000799E+04</pdfrwt>
<pdfrwt beam="2">  1       -2 0.79886032E-01 0.10000799E+04</pdfrwt>
<totfact> 0.10748439E+02</totfact>
</mgrwt>
</event>
<event>
 9    1  0.4321150E-036  0.1002713E+04  0.7818608E-02  0.8678459E-01
         -2   -1    0    0    0  501 -0.00000000000E+00  0.00000000000E+00  0.30526823431E+03  0.30526823431E+03  0.00000000000E+00 0. -1.
          2   -1    0    0  501    0  0.00000000000E+00 -0.00000000000E+00 -0.82340074359E+03  0.82340074359E+03  0.00000000000E+00 0. -1.
         36    2    1    2    0    0  0.00000000000E+00  0.00000000000E+00 -0.51813250928E+03  0.11286689779E+04  0.10027125034E+04 0.  0.
         25    2    3    3    0    0 -0.13916338810E+03 -0.33029137578E+02 -0.11650727088E+03  0.22285060214E+03  0.12502429440E+03 0.  0.
         35    2    3    3    0    0  0.13916338810E+03  0.33029137578E+02 -0.40162523840E+03  0.90581837575E+03  0.79921631941E+03 0.  0.
         22    1    5    5    0    0  0.43223050986E+03 -0.15857685045E+03 -0.25406906403E+03  0.52585256532E+03  0.00000000000E+00 0.  1.
         22    1    5    5    0    0 -0.29306712176E+03  0.19160598803E+03 -0.14755617437E+03  0.37996581043E+03  0.00000000000E+00 0.  1.
          5    1    4    4  502    0 -0.13771444515E+03 -0.48401373604E+02 -0.13459433237E+03  0.19860937962E+03  0.47000000000E+01 0.  1.
         -5    1    4    4    0  502 -0.14489429536E+01  0.15372236026E+02  0.18087061484E+02  0.24241222519E+02  0.47000000000E+01 0.  1.
<mgrwt>
<rscale>  0 0.10027125E+04</rscale>
<asrwt>0</asrwt>
<pdfrwt beam="1">  1        2 0.12667704E+00 0.10027125E+04</pdfrwt>
<pdfrwt beam="2">  1       -2 0.46964344E-01 0.10027125E+04</pdfrwt>
<totfact> 0.17239476E+02</totfact>
</mgrwt>
</event>
<event>
 9    1  0.4321150E-036  0.1000244E+04  0.7818608E-02  0.8680806E-01
         -2   -1    0    0    0  501 -0.00000000000E+00  0.00000000000E+00  0.26278631951E+03  0.26278631951E+03  0.00000000000E+00 0.  1.
          2   -1    0    0  501    0  0.00000000000E+00 -0.00000000000E+00 -0.95180680129E+03  0.95180680129E+03  0.00000000000E+00 0.  1.
         36    2    1    2    0    0  0.00000000000E+00  0.00000000000E+00 -0.68902048177E+03  0.12145931208E+04  0.10002435827E+04 0.  0.
         25    2    3    3    0    0 -0.20928952568E+02  0.10609579068E+03 -0.12305587537E+02  0.16585404829E+03  0.12514711340E+03 0.  0.
         35    2    3    3    0    0  0.20928952568E+02 -0.10609579068E+03 -0.67671489424E+03  0.10487390725E+04  0.79386161029E+03 0.  0.
         22    1    5    5    0    0 -0.76314728268E+01  0.30208206614E+03 -0.59137670938E+02  0.30791082830E+03  0.00000000000E+00 0. -1.
         22    1    5    5    0    0  0.28560425395E+02 -0.40817785682E+03 -0.61757722330E+03  0.74082824422E+03  0.00000000000E+00 0. -1.
          5    1    4    4  502    0  0.12600563377E+02  0.86374275324E+02  0.43520845837E+02  0.97649596300E+02  0.47000000000E+01 0.  1.
         -5    1    4    4    0  502 -0.33529515945E+02  0.19721515358E+02 -0.55826433374E+02  0.68204451986E+02  0.47000000000E+01 0.  1.
<mgrwt>
<rscale>  0 0.10002436E+04</rscale>
<asrwt>0</asrwt>
<pdfrwt beam="1">  1        2 0.14643182E+00 0.10002436E+04</pdfrwt>
<pdfrwt beam="2">  1       -2 0.40428664E-01 0.10002436E+04</pdfrwt>
<totfact> 0.18963671E+02</totfact>
</mgrwt>
</event>
<event>
 9    1  0.4321150E-036  0.1000466E+04  0.7818608E-02  0.8680594E-01
         -1   -1    0    0    0  501 -0.00000000000E+00  0.00000000000E+00  0.50315584414E+03  0.50315584414E+03  0.00000000000E+00 0. -1.
          1   -1    0    0  501    0  0.00000000000E+00 -0.00000000000E+00 -0.49732713101E+03  0.49732713101E+03  0.00000000000E+00 0. -1.
         36    2    1    2    0    0  0.21316282073E-13  0.28421709430E-13  0.58287131337E+01  0.10004829751E+04  0.10004659963E+04 0.  0.
         25    2    3    3    0    0 -0.48591365715E+02 -0.10002960695E+03 -0.88299566352E+02  0.18896459142E+03  0.12467461772E+03 0.  0.
         35    2    3    3    0    0  0.48591365715E+02  0.10002960695E+03  0.94128279485E+02  0.81151838372E+03  0.79833258172E+03 0.  0.
         22    1    5    5    0    0 -0.80784779250E+02  0.22917182663E+03 -0.29464199746E+03  0.38191597681E+03  0.00000000000E+00 0. -1.
         22    1    5    5    0    0  0.12937614496E+03 -0.12914221968E+03  0.38877027694E+03  0.42960240691E+03  0.00000000000E+00 0. -1.
          5    1    4    4  502    0 -0.15793096416E+02 -0.61865694475E+01 -0.87693373101E+02  0.89442233994E+02  0.47000000000E+01 0. -1.
         -5    1    4    4    0  502 -0.32798269298E+02 -0.93843037506E+02 -0.60619325021E+00  0.99522357426E+02  0.47000000000E+01 0. -1.
<mgrwt>
<rscale>  0 0.10004660E+04</rscale>
<asrwt>0</asrwt>
<pdfrwt beam="1">  1        1 0.76511867E-01 0.10004660E+04</pdfrwt>
<pdfrwt beam="2">  1       -1 0.77408591E-01 0.10004660E+04</pdfrwt>
<totfact> 0.88194019E+01</totfact>
</mgrwt>
</event>
<event>
 9    1  0.4321150E-036  0.9994107E+03  0.7818608E-02  0.8681599E-01
          2   -1    0    0  501    0  0.00000000000E+00  0.00000000000E+00  0.10792431081E+03  0.10792431081E+03  0.00000000000E+00 0. -1.
         -2   -1    0    0    0  501 -0.00000000000E+00 -0.00000000000E+00 -0.23137090902E+04  0.23137090902E+04  0.00000000000E+00 0. -1.
         36    2    1    2    0    0 -0.71054273576E-14 -0.14210854715E-13 -0.22057847794E+04  0.24216334011E+04  0.99941074436E+03 0.  0.
         25    2    3    3    0    0 -0.62084295900E+02 -0.12072491084E+03 -0.33813117522E+03  0.38558880704E+03  0.12616288110E+03 0.  0.
         35    2    3    3    0    0  0.62084295900E+02  0.12072491084E+03 -0.18676536042E+04  0.20360445940E+04  0.79932386402E+03 0.  0.
         22    1    5    5    0    0  0.11909065616E+03  0.22516139941E+02 -0.19107476114E+04  0.19145876829E+04  0.00000000000E+00 0.  1.
         22    1    5    5    0    0 -0.57006360262E+02  0.98208770899E+02  0.43094007238E+02  0.12145691109E+03  0.00000000000E+00 0.  1.
          5    1    4    4  502    0 -0.53964749727E+02 -0.14171751512E+03 -0.32603706581E+03  0.35960854632E+03  0.47000000000E+01 0. -1.
         -5    1    4    4    0  502 -0.81195461729E+01  0.20992604283E+02 -0.12094109406E+02  0.25980260718E+02  0.47000000000E+01 0. -1.
<mgrwt>
<rscale>  0 0.99941074E+03</rscale>
<asrwt>0</asrwt>
<pdfrwt beam="1">  1        2 0.16603740E-01 0.99941074E+03</pdfrwt>
<pdfrwt beam="2">  1       -2 0.35595525E+00 0.99941074E+03</pdfrwt>
<totfact> 0.63376727E+00</totfact>
</mgrwt>
</event>
<event>
 9    1  0.4321150E-036  0.9956273E+03  0.7818608E-02  0.8685213E-01
          1   -1    0    0  501    0  0.00000000000E+00  0.00000000000E+00  0.46625309599E+03  0.46625309599E+03  0.00000000000E+00 0.  1.
         -1   -1    0    0    0  501 -0.00000000000E+00 -0.00000000000E+00 -0.53151049442E+03  0.53151049442E+03  0.00000000000E+00 0.  1.
         36    2    1    2    0    0  0.00000000000E+00 -0.14210854715E-13 -0.65257398430E+02  0.99776359041E+03  0.99562726676E+03 0.  0.
         25    2    3    3    0    0 -0.59044858217E+02 -0.95427082825E+02  0.61783870715E+02  0.17921706721E+03  0.12533509916E+03 0.  0.
         35    2    3    3    0    0  0.59044858217E+02  0.95427082825E+02 -0.12704126914E+03  0.81854652320E+03  0.80080353593E+03 0.  0.
         22    1    5    5    0    0 -0.36783289973E+03 -0.42555197369E+01 -0.89442027462E+02  0.37857499633E+03  0.00000000000E+00 0.  1.
         22    1    5    5    0    0  0.42687775795E+03  0.99682602562E+02 -0.37599241683E+02  0.43997152687E+03  0.00000000000E+00 0.  1.
          5    1    4    4  502    0 -0.11045549488E+02 -0.59013690287E+02  0.93310318578E+02  0.11105640620E+03  0.47000000000E+01 0.  1.
         -5    1    4    4    0  502 -0.47999308729E+02 -0.36413392538E+02 -0.31526447863E+02  0.68160661011E+02  0.47000000000E+01 0.  1.
<mgrwt>
<rscale>  0 0.99562727E+03</rscale>
<asrwt>0</asrwt>
<pdfrwt beam="1">  1        1 0.71731245E-01 0.99562727E+03</pdfrwt>
<pdfrwt beam="2">  1       -1 0.81770846E-01 0.99562727E+03</pdfrwt>
<totfact> 0.86043278E+01</totfact>
</mgrwt>
</event>
<event>
 9    1  0.4321150E-036  0.1001056E+04  0.7818608E-02  0.8680033E-01
          2   -1    0    0  501    0  0.00000000000E+00  0.00000000000E+00  0.60520944967E+03  0.60520944967E+03  0.00000000000E+00 0.  1.
         -2   -1    0    0    0  501 -0.00000000000E+00 -0.00000000000E+00 -0.41395302190E+03  0.41395302190E+03  0.00000000000E+00 0.  1.
         36    2    1    2    0    0  0.00000000000E+00  0.00000000000E+00  0.19125642777E+03  0.10191624716E+04  0.10010560036E+04 0.  0.
         25    2    3    3    0    0 -0.40190271389E+02 -0.13622194818E+03  0.33145521579E+02  0.19193745376E+03  0.12477853771E+03 0.  0.
         35    2    3    3    0    0  0.40190271389E+02  0.13622194818E+03  0.15811090619E+03  0.82722501782E+03  0.79945637428E+03 0.  0.
         22    1    5    5    0    0  0.24772079019E+03 -0.26124517004E+03  0.31982263552E+02  0.36143809144E+03  0.00000000000E+00 0. -1.
         22    1    5    5    0    0 -0.20753051880E+03  0.39746711822E+03  0.12612864264E+03  0.46578692638E+03  0.00000000000E+00 0. -1.
          5    1    4    4  502    0 -0.43201182834E+02 -0.68336930470E+02 -0.41405920608E+02  0.90955035736E+02  0.47000000000E+01 0.  1.
         -5    1    4    4    0  502  0.30109114445E+01 -0.67885017708E+02  0.74551442188E+02  0.10098241802E+03  0.47000000000E+01 0.  1.
<mgrwt>
<rscale>  0 0.10010560E+04</rscale>
<asrwt>0</asrwt>
<pdfrwt beam="1">  1        2 0.93109146E-01 0.10010560E+04</pdfrwt>
<pdfrwt beam="2">  1       -2 0.63685081E-01 0.10010560E+04</pdfrwt>
<totfact> 0.13546186E+02</totfact>
</mgrwt>
</event>
<event>
 9    1  0.4321150E-036  0.1000422E+04  0.7818608E-02  0.8680636E-01
          3   -1    0    0  501    0  0.00000000000E+00  0.00000000000E+00  0.31841029984E+03  0.31841029984E+03  0.00000000000E+00 0.  1.
         -3   -1    0    0    0  501 -0.00000000000E+00 -0.00000000000E+00 -0.78581332499E+03  0.78581332499E+03  0.00000000000E+00 0.  1.
         36    2    1    2    0    0  0.00000000000E+00  0.00000000000E+00 -0.46740302516E+03  0.11042236248E+04  0.10004220238E+04 0.  0.
         25    2    3    3    0    0  0.10693291926E+03  0.41379958355E+02  0.44194195824E+01  0.16971952735E+03  0.12505293487E+03 0.  0.
         35    2    3    3    0    0 -0.10693291926E+03 -0.41379958355E+02 -0.47182244474E+03  0.93450409748E+03  0.79845759979E+03 0.  0.
         22    1    5    5    0    0 -0.46405906056E+02 -0.30561375060E+03 -0.56816828590E+03  0.64681409522E+03  0.00000000000E+00 0. -1.
         22    1    5    5    0    0 -0.60527013208E+02  0.26423379224E+03  0.96345841162E+02  0.28769000226E+03  0.00000000000E+00 0. -1.
          5    1    4    4  502    0 -0.27567432839E+02  0.39730294960E+01 -0.83456107443E+01  0.29453141350E+02  0.47000000000E+01 0.  1.
         -5    1    4    4    0  502  0.13450035210E+03  0.37406928859E+02  0.12765030327E+02  0.14026638600E+03  0.47000000000E+01 0.  1.
<mgrwt>
<rscale>  0 0.10004220E+04</rscale>
<asrwt>0</asrwt>
<pdfrwt beam="1">  1        3 0.48986200E-01 0.10004220E+04</pdfrwt>
<pdfrwt beam="2">  1       -3 0.12089436E+00 0.10004220E+04</pdfrwt>
<totfact> 0.80307059E+00</totfact>
</mgrwt>
</event>
<event>
 9    1  0.4321150E-036  0.1001597E+04  0.7818608E-02  0.8679519E-01
         -3   -1    0    0    0  501 -0.00000000000E+00  0.00000000000E+00  0.81551733828E+03  0.81551733828E+03  0.00000000000E+00 0.  1.
          3   -1    0    0  501    0  0.00000000000E+00 -0.00000000000E+00 -0.30753348410E+03  0.30753348410E+03  0.00000000000E+00 0.  1.
         36    2    1    2    0    0  0.00000000000E+00  0.00000000000E+00  0.50798385418E+03  0.11230508224E+04  0.10015965024E+04 0.  0.
         25    2    3    3    0    0  0.75717011577E+02 -0.65364416778E+02  0.20071271351E+03  0.25752989244E+03  0.12661152915E+03 0.  0.
         35    2    3    3    0    0 -0.75717011577E+02  0.65364416778E+02  0.30727114067E+03  0.86552092994E+03  0.80293546032E+03 0.  0.
         22    1    5    5    0    0 -0.42513412688E+03  0.14553187662E+03  0.19515987052E+03  0.48990399877E+03  0.00000000000E+00 0. -1.
         22    1    5    5    0    0  0.34941711530E+03 -0.80167459845E+02  0.11211127015E+03  0.37561693117E+03  0.00000000000E+00 0. -1.
          5    1    4    4  502    0  0.10552168515E+03 -0.21486914621E+02  0.14179728559E+03  0.17811533830E+03  0.47000000000E+01 0. -1.
         -5    1    4    4    0  502 -0.29804673578E+02 -0.43877502157E+02  0.58915427923E+02  0.79414554144E+02  0.47000000000E+01 0. -1.
<mgrwt>
<rscale>  0 0.10015965E+04</rscale>
<asrwt>0</asrwt>
<pdfrwt beam="1">  1        3 0.47312844E-01 0.10015965E+04</pdfrwt>
<pdfrwt beam="2">  1       -3 0.12546420E+00 0.10015965E+04</pdfrwt>
<totfact> 0.77638462E+00</totfact>
</mgrwt>
</event>
<event>
 9    1  0.4321150E-036  0.9992810E+03  0.7818608E-02  0.8681723E-01
          2   -1    0    0  501    0  0.00000000000E+00  0.00000000000E+00  0.78060152813E+03  0.78060152813E+03  0.00000000000E+00 0.  1.
         -2   -1    0    0    0  501 -0.00000000000E+00 -0.00000000000E+00 -0.31980545426E+03  0.31980545426E+03  0.00000000000E+00 0.  1.
         36    2    1    2    0    0  0.14210854715E-13  0.71054273576E-14  0.46079607386E+03  0.11004069824E+04  0.99928099412E+03 0.  0.
         25    2    3    3    0    0  0.84525851588E+02 -0.57318175095E+02 -0.96078924259E+01  0.16082695497E+03  0.12386688445E+03 0.  0.
         35    2    3    3    0    0 -0.84525851588E+02  0.57318175095E+02  0.47040396629E+03  0.93958002742E+03  0.80690813830E+03 0.  0.
         22    1    5    5    0    0 -0.11594825605E+03 -0.35389183903E+03  0.34723469559E+03  0.50917125374E+03  0.00000000000E+00 0. -1.
         22    1    5    5    0    0  0.31422404463E+02  0.41121001413E+03  0.12316927070E+03  0.43040877368E+03  0.00000000000E+00 0. -1.
          5    1    4    4  502    0  0.11147693757E+03 -0.22918735516E+02  0.63130091331E+01  0.11408032316E+03  0.47000000000E+01 0. -1.
         -5    1    4    4    0  502 -0.26951085982E+02 -0.34399439579E+02 -0.15920901559E+02  0.46746631808E+02  0.47000000000E+01 0. -1.
<mgrwt>
<rscale>  0 0.99928099E+03</rscale>
<asrwt>0</asrwt>
<pdfrwt beam="1">  1        2 0.12009254E+00 0.99928099E+03</pdfrwt>
<pdfrwt beam="2">  1       -2 0.49200839E-01 0.99928099E+03</pdfrwt>
<totfact> 0.16843581E+02</totfact>
</mgrwt>
</event>
<event>
 9    1  0.4321150E-036  0.9990262E+03  0.7818608E-02  0.8681966E-01
         -1   -1    0    0    0  501 -0.00000000000E+00  0.00000000000E+00  0.22781361867E+03  0.22781361867E+03  0.00000000000E+00 0.  1.
          1   -1    0    0  501    0  0.00000000000E+00 -0.00000000000E+00 -0.10952521101E+04  0.10952521101E+04  0.00000000000E+00 0.  1.
         36    2    1    2    0    0  0.00000000000E+00  0.00000000000E+00 -0.86743849140E+03  0.13230657287E+04  0.99902621897E+03 0.  0.
         25    2    3    3    0    0  0.45059801202E+02 -0.15948662141E+02 -0.33511817218E+03  0.36102940602E+03  0.12551213954E+03 0.  0.
         35    2    3    3    0    0 -0.45059801202E+02  0.15948662141E+02 -0.53232031922E+03  0.96203632272E+03  0.79991513204E+03 0.  0.
         22    1    5    5    0    0  0.14423834032E+03 -0.64295446524E+02  0.16894039475E+03  0.23125626530E+03  0.00000000000E+00 0. -1.
         22    1    5    5    0    0 -0.18929814152E+03  0.80244108665E+02 -0.70126071397E+03  0.73078005742E+03  0.00000000000E+00 0. -1.
          5    1    4    4  502    0  0.57357674327E+02 -0.34863048012E+02 -0.33081171987E+03  0.33758527652E+03  0.47000000000E+01 0.  1.
         -5    1    4    4    0  502 -0.12297873126E+02  0.18914385871E+02 -0.43064523148E+01  0.23444129496E+02  0.47000000000E+01 0.  1.
<mgrwt>
<rscale>  0 0.99902622E+03</rscale>
<asrwt>0</asrwt>
<pdfrwt beam="1">  1        1 0.16850032E+00 0.99902622E+03</pdfrwt>
<pdfrwt beam="2">  1       -1 0.35048249E-01 0.99902622E+03</pdfrwt>
<totfact> 0.10994529E+02</totfact>
</mgrwt>
</event>
<event>
 9    1  0.4321150E-036  0.9999448E+03  0.7818608E-02  0.8681091E-01
          2   -1    0    0  501    0  0.00000000000E+00  0.00000000000E+00  0.12254422216E+04  0.12254422216E+04  0.00000000000E+00 0. -1.
         -2   -1    0    0    0  501 -0.00000000000E+00 -0.00000000000E+00 -0.20398546050E+03  0.20398546050E+03  0.00000000000E+00 0. -1.
         36    2    1    2    0    0 -0.35527136788E-14  0.71054273576E-14  0.10214567611E+04  0.14294276821E+04  0.99994479026E+03 0.  0.
         25    2    3    3    0    0  0.76015492329E+01  0.33583506572E+02  0.38701957498E+03  0.40819422426E+03  0.12511090216E+03 0.  0.
         35    2    3    3    0    0 -0.76015492329E+01 -0.33583506572E+02  0.63443718611E+03  0.10212334578E+04  0.79951334999E+03 0.  0.
         22    1    5    5    0    0  0.13542375752E+03 -0.20241039378E+03 -0.93152559341E+02  0.26074309372E+03  0.00000000000E+00 0. -1.
         22    1    5    5    0    0 -0.14302530675E+03  0.16882688721E+03  0.72758974545E+03  0.76049036411E+03  0.00000000000E+00 0. -1.
          5    1    4    4  502    0  0.35899529381E+02 -0.21469763810E+02  0.49338904181E+02  0.64854794994E+02  0.47000000000E+01 0. -1.
         -5    1    4    4    0  502 -0.28297980148E+02  0.55053270382E+02  0.33768067080E+03  0.34333942927E+03  0.47000000000E+01 0. -1.
<mgrwt>
<rscale>  0 0.99994479E+03</rscale>
<asrwt>0</asrwt>
<pdfrwt beam="1">  1        2 0.18852957E+00 0.99994479E+03</pdfrwt>
<pdfrwt beam="2">  1       -2 0.31382379E-01 0.99994479E+03</pdfrwt>
<totfact> 0.20745130E+02</totfact>
</mgrwt>
</event>
<event>
 9    1  0.4321150E-036  0.1005237E+04  0.7818608E-02  0.8676066E-01
          2   -1    0    0  501    0  0.00000000000E+00  0.00000000000E+00  0.11905472032E+04  0.11905472032E+04  0.00000000000E+00 0. -1.
         -2   -1    0    0    0  501 -0.00000000000E+00 -0.00000000000E+00 -0.21219278579E+03  0.21219278579E+03  0.00000000000E+00 0. -1.
         36    2    1    2    0    0  0.00000000000E+00 -0.14210854715E-13  0.97835441738E+03  0.14027399890E+04  0.10052373404E+04 0.  0.
         25    2    3    3    0    0 -0.10422256137E+03 -0.75763474591E+02  0.28623054887E+03  0.33801739901E+03  0.12540091128E+03 0.  0.
         35    2    3    3    0    0  0.10422256137E+03  0.75763474591E+02  0.69212386851E+03  0.10647225899E+04  0.79874670440E+03 0.  0.
         22    1    5    5    0    0 -0.35584616186E+02 -0.26681819895E+03 -0.11839714966E+02  0.26944089343E+03  0.00000000000E+00 0.  1.
         22    1    5    5    0    0  0.13980717756E+03  0.34258167354E+03  0.70396358348E+03  0.79528169651E+03  0.00000000000E+00 0.  1.
          5    1    4    4  502    0 -0.50983301918E+02 -0.10526125548E+03  0.16523637902E+03  0.20249538249E+03  0.47000000000E+01 0. -1.
         -5    1    4    4    0  502 -0.53239259455E+02  0.29497780886E+02  0.12099416985E+03  0.13552201652E+03  0.47000000000E+01 0. -1.
<mgrwt>
<rscale>  0 0.10052373E+04</rscale>
<asrwt>0</asrwt>
<pdfrwt beam="1">  1        2 0.18316110E+00 0.10052373E+04</pdfrwt>
<pdfrwt beam="2">  1       -2 0.32645045E-01 0.10052373E+04</pdfrwt>
<totfact> 0.20229225E+02</totfact>
</mgrwt>
</event>
<event>
 9    1  0.4321150E-036  0.9990613E+03  0.7818608E-02  0.8681932E-01
         -1   -1    0    0    0  501 -0.00000000000E+00  0.00000000000E+00  0.40863048087E+03  0.40863048087E+03  0.00000000000E+00 0. -1.
          1   -1    0    0  501    0  0.00000000000E+00 -0.00000000000E+00 -0.61065158827E+03  0.61065158827E+03  0.00000000000E+00 0. -1.
         36    2    1    2    0    0  0.19984014443E-14 -0.28421709430E-13 -0.20202110740E+03  0.10192820691E+04  0.99906126370E+03 0.  0.
         25    2    3    3    0    0  0.29881636193E-01 -0.95659881918E+02  0.62330747455E+02  0.16957177262E+03  0.12537404073E+03 0.  0.
         35    2    3    3    0    0 -0.29881636193E-01  0.95659881918E+02 -0.26435185486E+03  0.84971029652E+03  0.80185713874E+03 0.  0.
         22    1    5    5    0    0  0.14609167840E+03 -0.32658847257E+03 -0.15372449444E+03  0.38940214316E+03  0.00000000000E+00 0. -1.
         22    1    5    5    0    0 -0.14612156004E+03  0.42224835448E+03 -0.11062736042E+03  0.46030815336E+03  0.00000000000E+00 0. -1.
          5    1    4    4  502    0  0.12064083524E+01 -0.20478316783E+02 -0.38397413078E+02  0.43786621363E+02  0.47000000000E+01 0. -1.
         -5    1    4    4    0  502 -0.11765267162E+01 -0.75181565135E+02  0.10072816053E+03  0.12578515125E+03  0.47000000000E+01 0. -1.
<mgrwt>
<rscale>  0 0.99906126E+03</rscale>
<asrwt>0</asrwt>
<pdfrwt beam="1">  1        1 0.93946398E-01 0.99906126E+03</pdfrwt>
<pdfrwt beam="2">  1       -1 0.62866228E-01 0.99906126E+03</pdfrwt>
<totfact> 0.99565176E+01</totfact>
</mgrwt>
</event>
<event>
 9    1  0.4321150E-036  0.9996923E+03  0.7818608E-02  0.8681331E-01
          2   -1    0    0  501    0  0.00000000000E+00  0.00000000000E+00  0.12471268917E+04  0.12471268917E+04  0.00000000000E+00 0. -1.
         -2   -1    0    0    0  501 -0.00000000000E+00 -0.00000000000E+00 -0.20033740750E+03  0.20033740750E+03  0.00000000000E+00 0. -1.
         36    2    1    2    0    0  0.21316282073E-13  0.00000000000E+00  0.10467894843E+04  0.14474642992E+04  0.99969228928E+03 0.  0.
         25    2    3    3    0    0 -0.57098565759E+02  0.91117078209E+02  0.65666325051E+02  0.17707339704E+03  0.12442006888E+03 0.  0.
         35    2    3    3    0    0  0.57098565759E+02 -0.91117078209E+02  0.98112315920E+03  0.12703909022E+04  0.79982987113E+03 0.  0.
         22    1    5    5    0    0  0.28968905111E+03  0.79916241341E+02  0.92980383793E+03  0.97715993009E+03  0.00000000000E+00 0.  1.
         22    1    5    5    0    0 -0.23259048535E+03 -0.17103331955E+03  0.51319321276E+02  0.29323097212E+03  0.00000000000E+00 0.  1.
          5    1    4    4  502    0 -0.24588835436E+02  0.87764651375E+02 -0.12596696131E+02  0.92130405472E+02  0.47000000000E+01 0.  1.
         -5    1    4    4    0  502 -0.32509730323E+02  0.33524268341E+01  0.78263021182E+02  0.84942991564E+02  0.47000000000E+01 0.  1.
<mgrwt>
<rscale>  0 0.99969229E+03</rscale>
<asrwt>0</asrwt>
<pdfrwt beam="1">  1        2 0.19186567E+00 0.99969229E+03</pdfrwt>
<pdfrwt beam="2">  1       -2 0.30821140E-01 0.99969229E+03</pdfrwt>
<totfact> 0.20823914E+02</totfact>
</mgrwt>
</event>
<event>
 9    1  0.4321150E-036  0.1000192E+04  0.7818608E-02  0.8680856E-01
          2   -1    0    0  501    0  0.00000000000E+00  0.00000000000E+00  0.20132611318E+04  0.20132611318E+04  0.00000000000E+00 0. -1.
         -2   -1    0    0    0  501 -0.00000000000E+00 -0.00000000000E+00 -0.12422420298E+03  0.12422420298E+03  0.00000000000E+00 0. -1.
         36    2    1    2    0    0 -0.28421709430E-13  0.14210854715E-13  0.18890369288E+04  0.21374853348E+04  0.10001915007E+04 0.  0.
         25    2    3    3    0    0 -0.73716845995E+02  0.11695416608E+03  0.27399915368E+03  0.33024265119E+03  0.12195172036E+03 0.  0.
         35    2    3    3    0    0  0.73716845995E+02 -0.11695416608E+03  0.16150377752E+04  0.18072426836E+04  0.79916622297E+03 0.  0.
         22    1    5    5    0    0 -0.16612615644E+03  0.19968749653E+03  0.17446380455E+03  0.31290671968E+03  0.00000000000E+00 0.  1.
         22    1    5    5    0    0  0.23984300243E+03 -0.31664166261E+03  0.14405739706E+04  0.14943359639E+04  0.00000000000E+00 0.  1.
          5    1    4    4  502    0 -0.43897068786E+02  0.19667157080E+02  0.19620772520E+03  0.20207253932E+03  0.47000000000E+01 0. -1.
         -5    1    4    4    0  502 -0.29819777209E+02  0.97287009001E+02  0.77791428472E+02  0.12817011187E+03  0.47000000000E+01 0. -1.
<mgrwt>
<rscale>  0 0.10001915E+04</rscale>
<asrwt>0</asrwt>
<pdfrwt beam="1">  1        2 0.30973246E+00 0.10001915E+04</pdfrwt>
<pdfrwt beam="2">  1       -2 0.19111417E-01 0.10001915E+04</pdfrwt>
<totfact> 0.17817991E+02</totfact>
</mgrwt>
</event>
<event>
 9    1  0.4321150E-036  0.9987647E+03  0.7818608E-02  0.8682215E-01
         -2   -1    0    0    0  501 -0.00000000000E+00  0.00000000000E+00  0.39513867694E+03  0.39513867694E+03  0.00000000000E+00 0. -1.
          2   -1    0    0  501    0  0.00000000000E+00 -0.00000000000E+00 -0.63112712759E+03  0.63112712759E+03  0.00000000000E+00 0. -1.
         36    2    1    2    0    0  0.14210854715E-13  0.14210854715E-13 -0.23598845065E+03  0.10262658045E+04  0.99876471339E+03 0.  0.
         25    2    3    3    0    0  0.32764557086E+02 -0.11903141538E+03 -0.11012596313E+03  0.20673094290E+03  0.12396758025E+03 0.  0.
         35    2    3    3    0    0 -0.32764557086E+02  0.11903141538E+03 -0.12586248752E+03  0.81953486162E+03  0.80034619359E+03 0.  0.
         22    1    5    5    0    0 -0.39488171718E+03  0.18462000846E+03 -0.18991115107E+02  0.43632187722E+03  0.00000000000E+00 0. -1.
         22    1    5    5    0    0  0.36211716009E+03 -0.65588593083E+02 -0.10687137241E+03  0.38321298441E+03  0.00000000000E+00 0. -1.
          5    1    4    4  502    0  0.24500428819E+02 -0.97965987193E+02 -0.13765409629E+03  0.17078742894E+03  0.47000000000E+01 0.  1.
         -5    1    4    4    0  502  0.82641282679E+01 -0.21065428183E+02  0.27528133164E+02  0.35943513964E+02  0.47000000000E+01 0.  1.
<mgrwt>
<rscale>  0 0.99876471E+03</rscale>
<asrwt>0</asrwt>
<pdfrwt beam="1">  1        2 0.97096480E-01 0.99876471E+03</pdfrwt>
<pdfrwt beam="2">  1       -2 0.60790566E-01 0.99876471E+03</pdfrwt>
<totfact> 0.14211085E+02</totfact>
</mgrwt>
</event>
<event>
 9    1  0.4321150E-036  0.1002450E+04  0.7818608E-02  0.8678708E-01
          2   -1    0    0  501    0  0.00000000000E+00  0.00000000000E+00  0.37291973164E+03  0.37291973164E+03  0.00000000000E+00 0.  1.
         -2   -1    0    0    0  501 -0.00000000000E+00 -0.00000000000E+00 -0.67367459400E+03  0.67367459400E+03  0.00000000000E+00 0.  1.
         36    2    1    2    0    0  0.00000000000E+00 -0.35527136788E-13 -0.30075486236E+03  0.10465943256E+04  0.10024500961E+04 0.  0.
         25    2    3    3    0    0 -0.80378888170E+02 -0.19084471291E+02  0.68849254914E+02  0.16346946345E+03  0.12311402386E+03 0.  0.
         35    2    3    3    0    0  0.80378888170E+02  0.19084471291E+02 -0.36960411727E+03  0.88312486219E+03  0.79779529706E+03 0.  0.
         22    1    5    5    0    0  0.21732197541E+03 -0.34700458092E+03 -0.15986520414E+03  0.43954283486E+03  0.00000000000E+00 0. -1.
         22    1    5    5    0    0 -0.13694308724E+03  0.36608905222E+03 -0.20973891313E+03  0.44358202734E+03  0.00000000000E+00 0. -1.
          5    1    4    4  502    0 -0.89137781468E+02  0.12017339560E+01  0.94019249543E+02  0.12964836109E+03  0.47000000000E+01 0.  1.
         -5    1    4    4    0  502  0.87588932973E+01 -0.20286205247E+02 -0.25169994629E+02  0.33821102359E+02  0.47000000000E+01 0.  1.
<mgrwt>
<rscale>  0 0.10024501E+04</rscale>
<asrwt>0</asrwt>
<pdfrwt beam="1">  1        2 0.57372267E-01 0.10024501E+04</pdfrwt>
<pdfrwt beam="2">  1       -2 0.10364224E+00 0.10024501E+04</pdfrwt>
<totfact> 0.77311649E+01</totfact>
</mgrwt>
</event>
<event>
 9    1  0.4321150E-036  0.9999573E+03  0.7818608E-02  0.8681079E-01
         -1   -1    0    0    0  501 -0.00000000000E+00  0.00000000000E+00  0.19282598927E+03  0.19282598927E+03  0.00000000000E+00 0.  1.
          1   -1    0    0  501    0  0.00000000000E+00 -0.00000000000E+00 -0.12963949388E+04  0.12963949388E+04  0.00000000000E+00 0.  1.
         36    2    1    2    0    0  0.00000000000E+00  0.14210854715E-13 -0.11035689495E+04  0.14892209280E+04  0.99995727219E+03 0.  0.
         25    2    3    3    0    0 -0.97759186038E+02 -0.72051604618E+02 -0.10339772481E+03  0.20267834764E+03  0.12505651093E+03 0.  0.
         35    2    3    3    0    0  0.97759186038E+02  0.72051604618E+02 -0.10001712247E+04  0.12865425804E+04  0.80006314768E+03 0.  0.
         22    1    5    5    0    0 -0.33163388839E+03 -0.51084063271E+02 -0.59685002819E+03  0.68470473461E+03  0.00000000000E+00 0. -1.
         22    1    5    5    0    0  0.42939307442E+03  0.12313566789E+03 -0.40332119649E+03  0.60183784578E+03  0.00000000000E+00 0. -1.
          5    1    4    4  502    0 -0.57049613520E+02 -0.63834259693E+02  0.56180352259E+01  0.85925103626E+02  0.47000000000E+01 0.  1.
         -5    1    4    4    0  502 -0.40709572518E+02 -0.82173449250E+01 -0.10901576004E+03  0.11675324402E+03  0.47000000000E+01 0.  1.
<mgrwt>
<rscale>  0 0.99995727E+03</rscale>
<asrwt>0</asrwt>
<pdfrwt beam="1">  1        1 0.19944537E+00 0.99995727E+03</pdfrwt>
<pdfrwt beam="2">  1       -1 0.29665537E-01 0.99995727E+03</pdfrwt>
<totfact> 0.10367305E+02</totfact>
</mgrwt>
</event>
<event>
 9    1  0.4321150E-036  0.9998806E+03  0.7818608E-02  0.8681152E-01
         -2   -1    0    0    0  501 -0.00000000000E+00  0.00000000000E+00  0.10030932506E+03  0.10030932506E+03  0.00000000000E+00 0.  1.
          2   -1    0    0  501    0  0.00000000000E+00 -0.00000000000E+00 -0.24916958378E+04  0.24916958378E+04  0.00000000000E+00 0.  1.
         36    2    1    2    0    0 -0.14210854715E-13  0.14210854715E-13 -0.23913865127E+04  0.25920051628E+04  0.99988064834E+03 0.  0.
         25    2    3    3    0    0  0.52994394990E+02  0.97476314536E+02 -0.66224979210E+03  0.68348016766E+03  0.12751593879E+03 0.  0.
         35    2    3    3    0    0 -0.52994394990E+02 -0.97476314536E+02 -0.17291367206E+04  0.19085249952E+04  0.80015237350E+03 0.  0.
         22    1    5    5    0    0 -0.32161263238E+03  0.21924049755E+03 -0.92274895916E+03  0.10014822628E+04  0.00000000000E+00 0.  1.
         22    1    5    5    0    0  0.26861823739E+03 -0.31671681209E+03 -0.80638776146E+03  0.90704273238E+03  0.00000000000E+00 0.  1.
          5    1    4    4  502    0 -0.11944599790E+02  0.10184096498E+03 -0.36548316788E+03  0.37962388177E+03  0.47000000000E+01 0. -1.
         -5    1    4    4    0  502  0.64938994779E+02 -0.43646504440E+01 -0.29676662423E+03  0.30385628588E+03  0.47000000000E+01 0. -1.
<mgrwt>
<rscale>  0 0.99988065E+03</rscale>
<asrwt>0</asrwt>
<pdfrwt beam="1">  1        2 0.38333780E+00 0.99988065E+03</pdfrwt>
<pdfrwt beam="2">  1       -2 0.15432205E-01 0.99988065E+03</pdfrwt>
<totfact> 0.13432380E+02</totfact>
</mgrwt>
</event>
<event>
 9    1  0.4321150E-036  0.1000518E+04  0.7818608E-02  0.8680544E-01
         -2   -1    0    0    0  501 -0.00000000000E+00  0.00000000000E+00  0.46750966936E+03  0.46750966936E+03  0.00000000000E+00 0.  1.
          2   -1    0    0  501    0  0.00000000000E+00 -0.00000000000E+00 -0.53530288837E+03  0.53530288837E+03  0.00000000000E+00 0.  1.
         36    2    1    2    0    0  0.14210854715E-13 -0.14210854715E-13 -0.67793219008E+02  0.10028125577E+04  0.10005184183E+04 0.  0.
         25    2    3    3    0    0 -0.68965640141E+02  0.12472915395E+03 -0.10587517369E+02  0.18983024394E+03  0.12493920372E+03 0.  0.
         35    2    3    3    0    0  0.68965640141E+02 -0.12472915395E+03 -0.57205701639E+02  0.81298231379E+03  0.79834461786E+03 0.  0.
         22    1    5    5    0    0 -0.18666328234E+03 -0.37659157700E+03  0.81690922034E+02  0.42817963939E+03  0.00000000000E+00 0.  1.
         22    1    5    5    0    0  0.25562892248E+03  0.25186242306E+03 -0.13889662367E+03  0.38480267440E+03  0.00000000000E+00 0.  1.
          5    1    4    4  502    0 -0.74721131555E+02  0.14711831436E+03 -0.15277236899E+02  0.16577855678E+03  0.47000000000E+01 0. -1.
         -5    1    4    4    0  502  0.57554914139E+01 -0.22389160419E+02  0.46897195303E+01  0.24051687154E+02  0.47000000000E+01 0. -1.
<mgrwt>
<rscale>  0 0.10005184E+04</rscale>
<asrwt>0</asrwt>
<pdfrwt beam="1">  1        2 0.82354290E-01 0.10005184E+04</pdfrwt>
<pdfrwt beam="2">  1       -2 0.71924565E-01 0.10005184E+04</pdfrwt>
<totfact> 0.12039216E+02</totfact>
</mgrwt>
</event>
<event>
 9    1  0.4321150E-036  0.1000200E+04  0.7818608E-02  0.8680847E-01
          2   -1    0    0  501    0  0.00000000000E+00  0.00000000000E+00  0.45996156317E+03  0.45996156317E+03  0.00000000000E+00 0. -1.
         -2   -1    0    0    0  501 -0.00000000000E+00 -0.00000000000E+00 -0.54374123889E+03  0.54374123889E+03  0.00000000000E+00 0. -1.
         36    2    1    2    0    0 -0.14210854715E-13  0.00000000000E+00 -0.83779675714E+02  0.10037028021E+04  0.10002001204E+04 0.  0.
         25    2    3    3    0    0 -0.11074246170E+02  0.13854371134E+03 -0.28761892923E+02  0.18899598425E+03  0.12480078805E+03 0.  0.
         35    2    3    3    0    0  0.11074246170E+02 -0.13854371134E+03 -0.55017782791E+02  0.81470681781E+03  0.80087654709E+03 0.  0.
         22    1    5    5    0    0  0.25482540302E+03  0.20104037655E+03 -0.18918715951E+03  0.37569269404E+03  0.00000000000E+00 0. -1.
         22    1    5    5    0    0 -0.24375115685E+03 -0.33958408790E+03  0.13416937672E+03  0.43901412377E+03  0.00000000000E+00 0. -1.
          5    1    4    4  502    0  0.39840252656E+02  0.83371797333E+01 -0.27053905483E+02  0.49099471479E+02  0.47000000000E+01 0. -1.
         -5    1    4    4    0  502 -0.50914498825E+02  0.13020653161E+03 -0.17079874399E+01  0.13989651277E+03  0.47000000000E+01 0. -1.
<mgrwt>
<rscale>  0 0.10002001E+04</rscale>
<asrwt>0</asrwt>
<pdfrwt beam="1">  1        2 0.70763317E-01 0.10002001E+04</pdfrwt>
<pdfrwt beam="2">  1       -2 0.83652498E-01 0.10002001E+04</pdfrwt>
<totfact> 0.10176363E+02</totfact>
</mgrwt>
</event>
<event>
 9    1  0.4321150E-036  0.9984921E+03  0.7818608E-02  0.8682475E-01
         -2   -1    0    0    0  501 -0.00000000000E+00  0.00000000000E+00  0.26659718766E+03  0.26659718766E+03  0.00000000000E+00 0. -1.
          2   -1    0    0  501    0  0.00000000000E+00 -0.00000000000E+00 -0.93491835766E+03  0.93491835766E+03  0.00000000000E+00 0. -1.
         36    2    1    2    0    0  0.71054273576E-14  0.00000000000E+00 -0.66832117000E+03  0.12015155453E+04  0.99849207277E+03 0.  0.
         25    2    3    3    0    0  0.16351655866E+02 -0.71404267649E+02  0.15636689711E+02  0.14611215402E+03  0.12545241886E+03 0.  0.
         35    2    3    3    0    0 -0.16351655866E+02  0.71404267649E+02 -0.68395785971E+03  0.10554033913E+04  0.80044488782E+03 0.  0.
         22    1    5    5    0    0 -0.11035745957E+03 -0.21738144230E+03  0.60668386455E+02  0.25122522456E+03  0.00000000000E+00 0. -1.
         22    1    5    5    0    0  0.94005803704E+02  0.28878570995E+03 -0.74462624616E+03  0.80417816675E+03  0.00000000000E+00 0. -1.
          5    1    4    4  502    0 -0.18177712508E+02 -0.99030750895E+02  0.11558485714E+02  0.10145544562E+03  0.47000000000E+01 0.  1.
         -5    1    4    4    0  502  0.34529368373E+02  0.27626483246E+02  0.40782039971E+01  0.44656708395E+02  0.47000000000E+01 0.  1.
<mgrwt>
<rscale>  0 0.99849207E+03</rscale>
<asrwt>0</asrwt>
<pdfrwt beam="1">  1        2 0.14383360E+00 0.99849207E+03</pdfrwt>
<pdfrwt beam="2">  1       -2 0.41014951E-01 0.99849207E+03</pdfrwt>
<totfact> 0.18914862E+02</totfact>
</mgrwt>
</event>
<event>
 9    1  0.4321150E-036  0.9935615E+03  0.7818608E-02  0.8687194E-01
          1   -1    0    0  501    0  0.00000000000E+00  0.00000000000E+00  0.53471351129E+03  0.53471351129E+03  0.00000000000E+00 0.  1.
         -1   -1    0    0    0  501 -0.00000000000E+00 -0.00000000000E+00 -0.46153892273E+03  0.46153892273E+03  0.00000000000E+00 0.  1.
         36    2    1    2    0    0  0.00000000000E+00  0.14210854715E-13  0.73174588559E+02  0.99625243401E+03  0.99356146859E+03 0.  0.
         25    2    3    3    0    0 -0.85699954234E+02 -0.33569083824E+02 -0.81302648115E+02  0.17479281884E+03  0.12438264905E+03 0.  0.
         35    2    3    3    0    0  0.85699954234E+02  0.33569083824E+02  0.15447723667E+03  0.82145961517E+03  0.80153684704E+03 0.  0.
         22    1    5    5    0    0 -0.14794361684E+03 -0.20124779863E+03 -0.21188924064E+03  0.32754395204E+03  0.00000000000E+00 0.  1.
         22    1    5    5    0    0  0.23364357108E+03  0.23481688245E+03  0.36636647731E+03  0.49391566313E+03  0.00000000000E+00 0.  1.
          5    1    4    4  502    0 -0.59174598648E+02  0.32388994299E+02 -0.78333505659E+02  0.10348385471E+03  0.47000000000E+01 0.  1.
         -5    1    4    4    0  502 -0.26525355586E+02 -0.65958078123E+02 -0.29691424559E+01  0.71308964131E+02  0.47000000000E+01 0.  1.
<mgrwt>
<rscale>  0 0.99356147E+03</rscale>
<asrwt>0</asrwt>
<pdfrwt beam="1">  1        1 0.82263617E-01 0.99356147E+03</pdfrwt>
<pdfrwt beam="2">  1       -1 0.71005988E-01 0.99356147E+03</pdfrwt>
<totfact> 0.94962763E+01</totfact>
</mgrwt>
</event>
<event>
 9    1  0.4321150E-036  0.1000195E+04  0.7818608E-02  0.8680852E-01
          2   -1    0    0  501    0  0.00000000000E+00  0.00000000000E+00  0.25933283792E+04  0.25933283792E+04  0.00000000000E+00 0.  1.
         -2   -1    0    0    0  501 -0.00000000000E+00 -0.00000000000E+00 -0.96438898691E+02  0.96438898691E+02  0.00000000000E+00 0.  1.
         36    2    1    2    0    0  0.00000000000E+00  0.00000000000E+00  0.24968894805E+04  0.26897672779E+04  0.10001954466E+04 0.  0.
         25    2    3    3    0    0 -0.13220164709E+03  0.47155872868E+02  0.50595436381E+03  0.53957097280E+03  0.12428219740E+03 0.  0.
         35    2    3    3    0    0  0.13220164709E+03 -0.47155872868E+02  0.19909351167E+04  0.21501963051E+04  0.79988784194E+03 0.  0.
         22    1    5    5    0    0 -0.32777445071E+03  0.67188979512E+02  0.92419560820E+03  0.98289774225E+03  0.00000000000E+00 0. -1.
         22    1    5    5    0    0  0.45997609780E+03 -0.11434485238E+03  0.10667395085E+04  0.11672985628E+04  0.00000000000E+00 0. -1.
          5    1    4    4  502    0 -0.90059132202E+02 -0.31071879716E+02  0.21256911003E+03  0.23298889574E+03  0.47000000000E+01 0. -1.
         -5    1    4    4    0  502 -0.42142514886E+02  0.78227752584E+02  0.29338525378E+03  0.30658207706E+03  0.47000000000E+01 0. -1.
<mgrwt>
<rscale>  0 0.10001954E+04</rscale>
<asrwt>0</asrwt>
<pdfrwt beam="1">  1        2 0.39897354E+00 0.10001954E+04</pdfrwt>
<pdfrwt beam="2">  1       -2 0.14836756E-01 0.10001954E+04</pdfrwt>
<totfact> 0.12431981E+02</totfact>
</mgrwt>
</event>
<event>
 9    1  0.4321150E-036  0.1000371E+04  0.7818608E-02  0.8680685E-01
          2   -1    0    0  501    0  0.00000000000E+00  0.00000000000E+00  0.14853125580E+04  0.14853125580E+04  0.00000000000E+00 0. -1.
         -2   -1    0    0    0  501 -0.00000000000E+00 -0.00000000000E+00 -0.16843969543E+03  0.16843969543E+03  0.00000000000E+00 0. -1.
         36    2    1    2    0    0  0.00000000000E+00 -0.35527136788E-14  0.13168728626E+04  0.16537522535E+04  0.10003711209E+04 0.  0.
         25    2    3    3    0    0 -0.12557521692E+03  0.85364092174E+01  0.34936974656E+03  0.39175219741E+03  0.12477403167E+03 0.  0.
         35    2    3    3    0    0  0.12557521692E+03 -0.85364092174E+01  0.96750311605E+03  0.12620000561E+04  0.80046227677E+03 0.  0.
         22    1    5    5    0    0 -0.78207552294E+02 -0.64515074381E+02  0.10351520772E+04  0.10401050135E+04  0.00000000000E+00 0. -1.
         22    1    5    5    0    0  0.20378276921E+03  0.55978665164E+02 -0.67648961168E+02  0.22189504260E+03  0.00000000000E+00 0. -1.
          5    1    4    4  502    0 -0.25512833496E+02 -0.20813612013E+02  0.72205757683E+01  0.34034362525E+02  0.47000000000E+01 0.  1.
         -5    1    4    4    0  502 -0.10006238342E+03  0.29350021230E+02  0.34214917079E+03  0.35771783488E+03  0.47000000000E+01 0.  1.
<mgrwt>
<rscale>  0 0.10003711E+04</rscale>
<asrwt>0</asrwt>
<pdfrwt beam="1">  1        2 0.22850962E+00 0.10003711E+04</pdfrwt>
<pdfrwt beam="2">  1       -2 0.25913800E-01 0.10003711E+04</pdfrwt>
<totfact> 0.20784040E+02</totfact>
</mgrwt>
</event>
<event>
 9    1  0.4321150E-036  0.9997909E+03  0.7818608E-02  0.8681237E-01
         -2   -1    0    0    0  501 -0.00000000000E+00  0.00000000000E+00  0.22541521507E+03  0.22541521507E+03  0.00000000000E+00 0.  1.
          2   -1    0    0  501    0  0.00000000000E+00 -0.00000000000E+00 -0.11086006633E+04  0.11086006633E+04  0.00000000000E+00 0.  1.
         36    2    1    2    0    0 -0.10658141036E-13  0.00000000000E+00 -0.88318544828E+03  0.13340158784E+04  0.99979089205E+03 0.  0.
         25    2    3    3    0    0 -0.83411010119E+01  0.13913500862E+03 -0.14124707089E+03  0.23461434196E+03  0.12516001689E+03 0.  0.
         35    2    3    3    0    0  0.83411010119E+01 -0.13913500862E+03 -0.74193837738E+03  0.10994015365E+04  0.79923904931E+03 0.  0.
         22    1    5    5    0    0 -0.12759807012E+03 -0.44614363974E+03 -0.33767679919E+03  0.57389113557E+03  0.00000000000E+00 0.  1.
         22    1    5    5    0    0  0.13593917113E+03  0.30700863112E+03 -0.40426157820E+03  0.52551040089E+03  0.00000000000E+00 0.  1.
          5    1    4    4  502    0  0.23166432165E+02  0.14175209201E+03 -0.14282561859E+03  0.20261191103E+03  0.47000000000E+01 0. -1.
         -5    1    4    4    0  502 -0.31507533177E+02 -0.26170833879E+01  0.15785476942E+01  0.32002430926E+02  0.47000000000E+01 0. -1.
<mgrwt>
<rscale>  0 0.99979089E+03</rscale>
<asrwt>0</asrwt>
<pdfrwt beam="1">  1        2 0.17055395E+00 0.99979089E+03</pdfrwt>
<pdfrwt beam="2">  1       -2 0.34679264E-01 0.99979089E+03</pdfrwt>
<totfact> 0.20246202E+02</totfact>
</mgrwt>
</event>
<event>
 9    1  0.4321150E-036  0.1000456E+04  0.7818608E-02  0.8680604E-01
         -1   -1    0    0    0  501 -0.00000000000E+00  0.00000000000E+00  0.38489504633E+03  0.38489504633E+03  0.00000000000E+00 0.  1.
          1   -1    0    0  501    0  0.00000000000E+00 -0.00000000000E+00 -0.65011968512E+03  0.65011968512E+03  0.00000000000E+00 0.  1.
         36    2    1    2    0    0  0.28421709430E-13  0.00000000000E+00 -0.26522463879E+03  0.10350147315E+04  0.10004555889E+04 0.  0.
         25    2    3    3    0    0  0.12194224321E+03  0.22136684464E+02 -0.12124318068E+03  0.21399488269E+03  0.12543507276E+03 0.  0.
         35    2    3    3    0    0 -0.12194224321E+03 -0.22136684464E+02 -0.14398145810E+03  0.82101984876E+03  0.79873837288E+03 0.  0.
         22    1    5    5    0    0 -0.32785573042E+03 -0.66614931954E+02 -0.37891184071E+03  0.50547117837E+03  0.00000000000E+00 0. -1.
         22    1    5    5    0    0  0.20591348721E+03  0.44478247489E+02  0.23493038261E+03  0.31554867040E+03  0.00000000000E+00 0. -1.
          5    1    4    4  502    0  0.87728209762E+02  0.61235219362E+02 -0.34022010009E+02  0.11236359750E+03  0.47000000000E+01 0.  1.
         -5    1    4    4    0  502  0.34214033445E+02 -0.39098534898E+02 -0.87221170676E+02  0.10163128519E+03  0.47000000000E+01 0.  1.
<mgrwt>
<rscale>  0 0.10004556E+04</rscale>
<asrwt>0</asrwt>
<pdfrwt beam="1">  1        1 0.10001841E+00 0.10004556E+04</pdfrwt>
<pdfrwt beam="2">  1       -1 0.59214623E-01 0.10004556E+04</pdfrwt>
<totfact> 0.10179309E+02</totfact>
</mgrwt>
</event>
<event>
 9    1  0.4321150E-036  0.1000241E+04  0.7818608E-02  0.8680809E-01
         -3   -1    0    0    0  501 -0.00000000000E+00  0.00000000000E+00  0.59816348096E+03  0.59816348096E+03  0.00000000000E+00 0. -1.
          3   -1    0    0  501    0  0.00000000000E+00 -0.00000000000E+00 -0.41814721763E+03  0.41814721763E+03  0.00000000000E+00 0. -1.
         36    2    1    2    0    0 -0.71054273576E-14  0.14210854715E-13  0.18001626333E+03  0.10163106986E+04  0.10002407615E+04 0.  0.
         25    2    3    3    0    0 -0.22200346462E+02 -0.10129957720E+03 -0.60156984422E+02  0.17369290199E+03  0.12568174769E+03 0.  0.
         35    2    3    3    0    0  0.22200346462E+02  0.10129957720E+03  0.24017324775E+03  0.84261779660E+03  0.80097884022E+03 0.  0.
         22    1    5    5    0    0 -0.34306254552E+03  0.87841240561E+02 -0.72665664943E+02  0.36150835750E+03  0.00000000000E+00 0.  1.
         22    1    5    5    0    0  0.36526289198E+03  0.13458336640E+02  0.31283891270E+03  0.48110943909E+03  0.00000000000E+00 0.  1.
          5    1    4    4  502    0  0.52126600437E+02 -0.34565046185E+02 -0.18807814034E+02  0.65480903779E+02  0.47000000000E+01 0. -1.
         -5    1    4    4    0  502 -0.74326946899E+02 -0.66734531016E+02 -0.41349170388E+02  0.10821199821E+03  0.47000000000E+01 0. -1.
<mgrwt>
<rscale>  0 0.10002408E+04</rscale>
<asrwt>0</asrwt>
<pdfrwt beam="1">  1        3 0.64330341E-01 0.10002408E+04</pdfrwt>
<pdfrwt beam="2">  1       -3 0.92025151E-01 0.10002408E+04</pdfrwt>
<totfact> 0.93906466E+00</totfact>
</mgrwt>
</event>
<event>
 9    1  0.4321150E-036  0.1000027E+04  0.7818608E-02  0.8681013E-01
         -1   -1    0    0    0  501 -0.00000000000E+00  0.00000000000E+00  0.50144056137E+03  0.50144056137E+03  0.00000000000E+00 0. -1.
          1   -1    0    0  501    0  0.00000000000E+00 -0.00000000000E+00 -0.49859005711E+03  0.49859005711E+03  0.00000000000E+00 0. -1.
         36    2    1    2    0    0 -0.21316282073E-13 -0.28421709430E-13  0.28505042622E+01  0.10000306185E+04  0.10000265559E+04 0.  0.
         25    2    3    3    0    0 -0.49686254591E+02  0.12658363059E+03  0.24578848812E+02  0.18678740399E+03  0.12567129764E+03 0.  0.
         35    2    3    3    0    0  0.49686254591E+02 -0.12658363059E+03 -0.21728344550E+02  0.81324321449E+03  0.80149876203E+03 0.  0.
         22    1    5    5    0    0 -0.33618968780E+03  0.19465297504E+02 -0.16691995097E+03  0.37585193098E+03  0.00000000000E+00 0.  1.
         22    1    5    5    0    0  0.38587594239E+03 -0.14604892809E+03  0.14519160642E+03  0.43739128351E+03  0.00000000000E+00 0.  1.
          5    1    4    4  502    0  0.40536641372E-01  0.10115828530E+03 -0.32927569310E+02  0.10648622047E+03  0.47000000000E+01 0.  1.
         -5    1    4    4    0  502 -0.49726791232E+02  0.25425345285E+02  0.57506418122E+02  0.80301183518E+02  0.47000000000E+01 0.  1.
<mgrwt>
<rscale>  0 0.10000266E+04</rscale>
<asrwt>0</asrwt>
<pdfrwt beam="1">  1        1 0.76706163E-01 0.10000266E+04</pdfrwt>
<pdfrwt beam="2">  1       -1 0.77144702E-01 0.10000266E+04</pdfrwt>
<totfact> 0.88506832E+01</totfact>
</mgrwt>
</event>
<event>
 9    1  0.4321150E-036  0.1000744E+04  0.7818608E-02  0.8680330E-01
         -2   -1    0    0    0  501 -0.00000000000E+00  0.00000000000E+00  0.25848748787E+03  0.25848748787E+03  0.00000000000E+00 0.  1.
          2   -1    0    0  501    0  0.00000000000E+00 -0.00000000000E+00 -0.96860398926E+03  0.96860398926E+03  0.00000000000E+00 0.  1.
         36    2    1    2    0    0  0.14210854715E-13 -0.71054273576E-14 -0.71011650139E+03  0.12270914771E+04  0.10007437473E+04 0.  0.
         25    2    3    3    0    0 -0.11024849006E+03 -0.36431511118E+02 -0.35247986146E+02  0.17345896696E+03  0.12395002270E+03 0.  0.
         35    2    3    3    0    0  0.11024849006E+03  0.36431511118E+02 -0.67486851524E+03  0.10536325102E+04  0.80075712240E+03 0.  0.
         22    1    5    5    0    0  0.10772493649E+03 -0.31372474954E+03 -0.47405988925E+02  0.33507492923E+03  0.00000000000E+00 0.  1.
         22    1    5    5    0    0  0.25235535689E+01  0.35015626065E+03 -0.62746252632E+03  0.71855758094E+03  0.00000000000E+00 0.  1.
          5    1    4    4  502    0 -0.45489833561E+02  0.44203910605E+02 -0.28544742236E+02  0.69715156024E+02  0.47000000000E+01 0. -1.
         -5    1    4    4    0  502 -0.64758656502E+02 -0.80635421723E+02 -0.67032439099E+01  0.10374381093E+03  0.47000000000E+01 0. -1.
<mgrwt>
<rscale>  0 0.10007437E+04</rscale>
<asrwt>0</asrwt>
<pdfrwt beam="1">  1        2 0.14901600E+00 0.10007437E+04</pdfrwt>
<pdfrwt beam="2">  1       -2 0.39767306E-01 0.10007437E+04</pdfrwt>
<totfact> 0.19094197E+02</totfact>
</mgrwt>
</event>
<event>
 9    1  0.4321150E-036  0.9997666E+03  0.7818608E-02  0.8681260E-01
         -1   -1    0    0    0  501 -0.00000000000E+00  0.00000000000E+00  0.57671917644E+03  0.57671917644E+03  0.00000000000E+00 0.  1.
          1   -1    0    0  501    0  0.00000000000E+00 -0.00000000000E+00 -0.43328419324E+03  0.43328419324E+03  0.00000000000E+00 0.  1.
         36    2    1    2    0    0  0.00000000000E+00  0.14210854715E-13  0.14343498320E+03  0.10100033697E+04  0.99976657894E+03 0.  0.
         25    2    3    3    0    0  0.50679048216E+02 -0.69633607239E+02  0.13821982808E+03  0.20549862709E+03  0.12533060151E+03 0.  0.
         35    2    3    3    0    0 -0.50679048216E+02  0.69633607239E+02  0.52151551164E+01  0.80450474259E+03  0.79986466219E+03 0.  0.
         22    1    5    5    0    0  0.50947279784E+02  0.26146140167E+03  0.32361189648E+03  0.41914478337E+03  0.00000000000E+00 0. -1.
         22    1    5    5    0    0 -0.10162632800E+03 -0.19182779443E+03 -0.31839674137E+03  0.38535995922E+03  0.00000000000E+00 0. -1.
          5    1    4    4  502    0  0.58034207347E+02 -0.68941442059E+02  0.27362081977E+02  0.94295626546E+02  0.47000000000E+01 0. -1.
         -5    1    4    4    0  502 -0.73551591308E+01 -0.69216517993E+00  0.11085774611E+03  0.11120300054E+03  0.47000000000E+01 0. -1.
<mgrwt>
<rscale>  0 0.99976658E+03</rscale>
<asrwt>0</asrwt>
<pdfrwt beam="1">  1        1 0.66659106E-01 0.99976658E+03</pdfrwt>
<pdfrwt beam="2">  1       -1 0.88726027E-01 0.99976658E+03</pdfrwt>
<totfact> 0.79885591E+01</totfact>
</mgrwt>
</event>
<event>
 9    1  0.4321150E-036  0.1000390E+04  0.7818608E-02  0.8680667E-01
          1   -1    0    0  501    0  0.00000000000E+00  0.00000000000E+00  0.41816384461E+03  0.41816384461E+03  0.00000000000E+00 0.  1.
         -1   -1    0    0    0  501 -0.00000000000E+00 -0.00000000000E+00 -0.59831761732E+03  0.59831761732E+03  0.00000000000E+00 0.  1.
         36    2    1    2    0    0 -0.56843418861E-13  0.28421709430E-13 -0.18015377271E+03  0.10164814619E+04  0.10003895144E+04 0.  0.
         25    2    3    3    0    0  0.93803775898E+02  0.79129537918E+02  0.22655456613E+02  0.18158957250E+03  0.13191236100E+03 0.  0.
         35    2    3    3    0    0 -0.93803775898E+02 -0.79129537918E+02 -0.20280922932E+03  0.83489188942E+03  0.80053247991E+03 0.  0.
         22    1    5    5    0    0  0.17717489554E+03  0.24682419290E+03  0.93292876721E+02  0.31783122354E+03  0.00000000000E+00 0. -1.
         22    1    5    5    0    0 -0.27097867143E+03 -0.32595373082E+03 -0.29610210604E+03  0.51706066589E+03  0.00000000000E+00 0. -1.
          5    1    4    4  502    0  0.68895967321E+02 -0.10104458594E+02 -0.28811366576E+02  0.75504564369E+02  0.47000000000E+01 0. -1.
         -5    1    4    4    0  502  0.24907808577E+02  0.89233996512E+02  0.51466823189E+02  0.10608500813E+03  0.47000000000E+01 0. -1.
<mgrwt>
<rscale>  0 0.10003895E+04</rscale>
<asrwt>0</asrwt>
<pdfrwt beam="1">  1        1 0.64332900E-01 0.10003895E+04</pdfrwt>
<pdfrwt beam="2">  1       -1 0.92048863E-01 0.10003895E+04</pdfrwt>
<totfact> 0.77432113E+01</totfact>
</mgrwt>
</event>
<event>
 9    1  0.4321150E-036  0.9923773E+03  0.7818608E-02  0.8688331E-01
         -2   -1    0    0    0  501 -0.00000000000E+00  0.00000000000E+00  0.19140845433E+03  0.19140845433E+03  0.00000000000E+00 0. -1.
          2   -1    0    0  501    0  0.00000000000E+00 -0.00000000000E+00 -0.12862712586E+04  0.12862712586E+04  0.00000000000E+00 0. -1.
         36    2    1    2    0    0  0.00000000000E+00  0.14210854715E-13 -0.10948628043E+04  0.14776797129E+04  0.99237733441E+03 0.  0.
         25    2    3    3    0    0  0.91658519329E+01  0.60936599479E+02 -0.24990961489E+02  0.14026389418E+03  0.12349951359E+03 0.  0.
         35    2    3    3    0    0 -0.91658519329E+01 -0.60936599479E+02 -0.10698718428E+04  0.13374158188E+04  0.80016125267E+03 0.  0.
         22    1    5    5    0    0  0.17954125906E+03  0.18929931040E+03 -0.97596430274E+03  0.10102354245E+04  0.00000000000E+00 0. -1.
         22    1    5    5    0    0 -0.18870711099E+03 -0.25023590988E+03 -0.93907540048E+02  0.32718039429E+03  0.00000000000E+00 0. -1.
          5    1    4    4  502    0 -0.21822459956E+02  0.38379576711E+02 -0.68789080912E+02  0.81873312622E+02  0.47000000000E+01 0. -1.
         -5    1    4    4    0  502  0.30988311889E+02  0.22557022768E+02  0.43798119423E+02  0.58390581560E+02  0.47000000000E+01 0. -1.
<mgrwt>
<rscale>  0 0.99237733E+03</rscale>
<asrwt>0</asrwt>
<pdfrwt beam="1">  1        2 0.19788789E+00 0.99237733E+03</pdfrwt>
<pdfrwt beam="2">  1       -2 0.29447454E-01 0.99237733E+03</pdfrwt>
<totfact> 0.21470942E+02</totfact>
</mgrwt>
</event>
<event>
 9    1  0.4321150E-036  0.1001329E+04  0.7818608E-02  0.8679773E-01
          2   -1    0    0  501    0  0.00000000000E+00  0.00000000000E+00  0.69156418506E+03  0.69156418506E+03  0.00000000000E+00 0.  1.
         -2   -1    0    0    0  501 -0.00000000000E+00 -0.00000000000E+00 -0.36246080754E+03  0.36246080754E+03  0.00000000000E+00 0.  1.
         36    2    1    2    0    0  0.28421709430E-13 -0.28421709430E-13  0.32910337752E+03  0.10540249926E+04  0.10013289429E+04 0.  0.
         25    2    3    3    0    0  0.13252214511E+03 -0.38988910798E+02  0.31529586426E+02  0.18927135551E+03  0.12548815516E+03 0.  0.
         35    2    3    3    0    0 -0.13252214511E+03  0.38988910798E+02  0.29757379110E+03  0.86475363708E+03  0.80010401673E+03 0.  0.
         22    1    5    5    0    0 -0.16275835129E+03  0.37723976489E+03  0.32527425448E+03  0.52402620331E+03  0.00000000000E+00 0. -1.
         22    1    5    5    0    0  0.30236206175E+02 -0.33825085409E+03 -0.27700463384E+02  0.34072743378E+03  0.00000000000E+00 0. -1.
          5    1    4    4  502    0  0.13750849820E+03 -0.70032675622E+02  0.31042340507E+02  0.15747660028E+03  0.47000000000E+01 0.  1.
         -5    1    4    4    0  502 -0.49863530887E+01  0.31043764824E+02  0.48724591851E+00  0.31794755230E+02  0.47000000000E+01 0.  1.
<mgrwt>
<rscale>  0 0.10013289E+04</rscale>
<asrwt>0</asrwt>
<pdfrwt beam="1">  1        2 0.10639449E+00 0.10013289E+04</pdfrwt>
<pdfrwt beam="2">  1       -2 0.55763201E-01 0.10013289E+04</pdfrwt>
<totfact> 0.15211834E+02</totfact>
</mgrwt>
</event>
<event>
 9    1  0.4321150E-036  0.1000156E+04  0.7818608E-02  0.8680889E-01
          1   -1    0    0  501    0  0.00000000000E+00  0.00000000000E+00  0.35206107049E+03  0.35206107049E+03  0.00000000000E+00 0. -1.
         -1   -1    0    0    0  501 -0.00000000000E+00 -0.00000000000E+00 -0.71032568633E+03  0.71032568633E+03  0.00000000000E+00 0. -1.
         36    2    1    2    0    0 -0.14210854715E-13  0.00000000000E+00 -0.35826461584E+03  0.10623867568E+04  0.10001560309E+04 0.  0.
         25    2    3    3    0    0 -0.11112211815E+03 -0.69004494943E+02 -0.23578471372E+02  0.18193253285E+03  0.12423267175E+03 0.  0.
         35    2    3    3    0    0  0.11112211815E+03  0.69004494943E+02 -0.33468614447E+03  0.88045422398E+03  0.80378795697E+03 0.  0.
         22    1    5    5    0    0 -0.31843250387E+03  0.18308758138E+03 -0.18654075493E+03  0.41196817259E+03  0.00000000000E+00 0. -1.
         22    1    5    5    0    0  0.42955462202E+03 -0.11408308643E+03 -0.14814538954E+03  0.46848605140E+03  0.00000000000E+00 0. -1.
          5    1    4    4  502    0 -0.32645380093E+02 -0.34485566878E+02  0.49811258337E+02  0.68979900126E+02  0.47000000000E+01 0. -1.
         -5    1    4    4    0  502 -0.78476738061E+02 -0.34518928065E+02 -0.73389729709E+02  0.11295263272E+03  0.47000000000E+01 0. -1.
<mgrwt>
<rscale>  0 0.10001560E+04</rscale>
<asrwt>0</asrwt>
<pdfrwt beam="1">  1        1 0.54163242E-01 0.10001560E+04</pdfrwt>
<pdfrwt beam="2">  1       -1 0.10928087E+00 0.10001560E+04</pdfrwt>
<totfact> 0.66236390E+01</totfact>
</mgrwt>
</event>
<event>
 9    1  0.4321150E-036  0.1000149E+04  0.7818608E-02  0.8680896E-01
         -1   -1    0    0    0  501 -0.00000000000E+00  0.00000000000E+00  0.32611070504E+03  0.32611070504E+03  0.00000000000E+00 0.  1.
          1   -1    0    0  501    0  0.00000000000E+00 -0.00000000000E+00 -0.76683985742E+03  0.76683985742E+03  0.00000000000E+00 0.  1.
         36    2    1    2    0    0  0.71054273576E-14 -0.14210854715E-13 -0.44072915239E+03  0.10929505625E+04  0.10001493620E+04 0.  0.
         25    2    3    3    0    0 -0.43863455074E+02  0.10074723930E+03  0.13429638140E+02  0.16509170610E+03  0.12247819122E+03 0.  0.
         35    2    3    3    0    0  0.43863455074E+02 -0.10074723930E+03 -0.45415879053E+03  0.92785885636E+03  0.80161576918E+03 0.  0.
         22    1    5    5    0    0 -0.40208513408E+02  0.34853248379E+03 -0.22223809758E+03  0.41530878731E+03  0.00000000000E+00 0.  1.
         22    1    5    5    0    0  0.84071968481E+02 -0.44927972309E+03 -0.23192069295E+03  0.51255006905E+03  0.00000000000E+00 0.  1.
          5    1    4    4  502    0  0.29848043946E+02 -0.55586615510E+01  0.17920232429E+02  0.35567248642E+02  0.47000000000E+01 0.  1.
         -5    1    4    4    0  502 -0.73711499020E+02  0.10630590085E+03 -0.44905942884E+01  0.12952445746E+03  0.47000000000E+01 0.  1.
<mgrwt>
<rscale>  0 0.10001494E+04</rscale>
<asrwt>0</asrwt>
<pdfrwt beam="1">  1        1 0.11797536E+00 0.10001494E+04</pdfrwt>
<pdfrwt beam="2">  1       -1 0.50170878E-01 0.10001494E+04</pdfrwt>
<totfact> 0.10776246E+02</totfact>
</mgrwt>
</event>
<event>
 9    1  0.4321150E-036  0.9992020E+03  0.7818608E-02  0.8681798E-01
          2   -1    0    0  501    0  0.00000000000E+00  0.00000000000E+00  0.89035696607E+03  0.89035696607E+03  0.00000000000E+00 0.  1.
         -2   -1    0    0    0  501 -0.00000000000E+00 -0.00000000000E+00 -0.28033832138E+03  0.28033832138E+03  0.00000000000E+00 0.  1.
         36    2    1    2    0    0  0.42632564146E-13 -0.28421709430E-13  0.61001864469E+03  0.11706952875E+04  0.99920203622E+03 0.  0.
         25    2    3    3    0    0 -0.84157005506E+02  0.10033615204E+03  0.57788393841E+02  0.19011778519E+03  0.12512205561E+03 0.  0.
         35    2    3    3    0    0  0.84157005506E+02 -0.10033615204E+03  0.55223025085E+03  0.98057750227E+03  0.79964007091E+03 0.  0.
         22    1    5    5    0    0  0.35317990588E+03  0.19164585320E+03  0.35983760617E+03  0.53939529270E+03  0.00000000000E+00 0.  1.
         22    1    5    5    0    0 -0.26902290038E+03 -0.29198200524E+03  0.19239264468E+03  0.44118220957E+03  0.00000000000E+00 0.  1.
          5    1    4    4  502    0  0.78077221802E+01  0.28778543074E+02 -0.31208345548E+02  0.43419072986E+02  0.47000000000E+01 0. -1.
         -5    1    4    4    0  502 -0.91964727686E+02  0.71557608969E+02  0.88996739389E+02  0.14669871220E+03  0.47000000000E+01 0. -1.
<mgrwt>
<rscale>  0 0.99920204E+03</rscale>
<asrwt>0</asrwt>
<pdfrwt beam="1">  1        2 0.13697799E+00 0.99920204E+03</pdfrwt>
<pdfrwt beam="2">  1       -2 0.43128973E-01 0.99920204E+03</pdfrwt>
<totfact> 0.18356145E+02</totfact>
</mgrwt>
</event>
<event>
 9    1  0.4321150E-036  0.1000053E+04  0.7818608E-02  0.8680987E-01
          2   -1    0    0  501    0  0.00000000000E+00  0.00000000000E+00  0.25574710584E+04  0.25574710584E+04  0.00000000000E+00 0. -1.
         -2   -1    0    0    0  501 -0.00000000000E+00 -0.00000000000E+00 -0.97763196783E+02  0.97763196783E+02  0.00000000000E+00 0. -1.
         36    2    1    2    0    0 -0.35527136788E-13 -0.28421709430E-13  0.24597078616E+04  0.26552342552E+04  0.10000530913E+04 0.  0.
         25    2    3    3    0    0 -0.12153250853E+00  0.13105035380E+03  0.57069013982E+03  0.59863633857E+03  0.12451514031E+03 0.  0.
         35    2    3    3    0    0  0.12153250853E+00 -0.13105035380E+03  0.18890177218E+04  0.20565979166E+04  0.80251655894E+03 0.  0.
         22    1    5    5    0    0  0.27864329891E+03  0.19871704823E+03  0.11593949452E+04  0.12088536687E+04  0.00000000000E+00 0.  1.
         22    1    5    5    0    0 -0.27852176641E+03 -0.32976740203E+03  0.72962277658E+03  0.84774424794E+03  0.00000000000E+00 0.  1.
          5    1    4    4  502    0 -0.45736753536E+02  0.12627586027E+03  0.40992519147E+03  0.43139100143E+03  0.47000000000E+01 0. -1.
         -5    1    4    4    0  502  0.45615221028E+02  0.47744935360E+01  0.16076494834E+03  0.16724533714E+03  0.47000000000E+01 0. -1.
<mgrwt>
<rscale>  0 0.10000531E+04</rscale>
<asrwt>0</asrwt>
<pdfrwt beam="1">  1        2 0.39345704E+00 0.10000531E+04</pdfrwt>
<pdfrwt beam="2">  1       -2 0.15040494E-01 0.10000531E+04</pdfrwt>
<totfact> 0.12785249E+02</totfact>
</mgrwt>
</event>
<event>
 9    1  0.4321150E-036  0.9998853E+03  0.7818608E-02  0.8681147E-01
          2   -1    0    0  501    0  0.00000000000E+00  0.00000000000E+00  0.60782884336E+03  0.60782884336E+03  0.00000000000E+00 0. -1.
         -2   -1    0    0    0  501 -0.00000000000E+00 -0.00000000000E+00 -0.41120561284E+03  0.41120561284E+03  0.00000000000E+00 0. -1.
         36    2    1    2    0    0 -0.42632564146E-13 -0.35527136788E-14  0.19662323052E+03  0.10190344562E+04  0.99988525749E+03 0.  0.
         25    2    3    3    0    0 -0.12873837196E+02 -0.26797361652E+02 -0.10839066946E+03  0.16118131735E+03  0.11552941426E+03 0.  0.
         35    2    3    3    0    0  0.12873837196E+02  0.26797361652E+02  0.30501389998E+03  0.85785313886E+03  0.80124571412E+03 0.  0.
         22    1    5    5    0    0  0.30647220280E+03  0.23872484561E+03  0.30797519410E+03  0.49574538141E+03  0.00000000000E+00 0. -1.
         22    1    5    5    0    0 -0.29359836561E+03 -0.21192748396E+03 -0.29612941236E+01  0.36210775745E+03  0.00000000000E+00 0. -1.
          5    1    4    4  502    0  0.24808010159E+02 -0.49821402670E+02 -0.15098849293E+02  0.57859094203E+02  0.47000000000E+01 0.  1.
         -5    1    4    4    0  502 -0.37681847354E+02  0.23024041018E+02 -0.93291820168E+02  0.10332222314E+03  0.47000000000E+01 0.  1.
<mgrwt>
<rscale>  0 0.99988526E+03</rscale>
<asrwt>0</asrwt>
<pdfrwt beam="1">  1        2 0.93512130E-01 0.99988526E+03</pdfrwt>
<pdfrwt beam="2">  1       -2 0.63262402E-01 0.99988526E+03</pdfrwt>
<totfact> 0.13668399E+02</totfact>
</mgrwt>
</event>
<event>
 9    1  0.4321150E-036  0.9999612E+03  0.7818608E-02  0.8681075E-01
         -1   -1    0    0    0  501 -0.00000000000E+00  0.00000000000E+00  0.27384292409E+03  0.27384292409E+03  0.00000000000E+00 0. -1.
          1   -1    0    0  501    0  0.00000000000E+00 -0.00000000000E+00 -0.91286118286E+03  0.91286118286E+03  0.00000000000E+00 0. -1.
         36    2    1    2    0    0 -0.14210854715E-13  0.42632564146E-13 -0.63901825877E+03  0.11867041070E+04  0.99996115046E+03 0.  0.
         25    2    3    3    0    0 -0.70483059513E+02  0.55488479072E+02 -0.24474798156E+03  0.28889074830E+03  0.12453697038E+03 0.  0.
         35    2    3    3    0    0  0.70483059513E+02 -0.55488479072E+02 -0.39427027721E+03  0.89781335865E+03  0.80160647608E+03 0.  0.
         22    1    5    5    0    0  0.16991475519E+03  0.34995820192E+03 -0.18237238412E+03  0.42965271280E+03  0.00000000000E+00 0.  1.
         22    1    5    5    0    0 -0.99431695677E+02 -0.40544668099E+03 -0.21189789309E+03  0.46816064585E+03  0.00000000000E+00 0.  1.
          5    1    4    4  502    0  0.71415668395E+01  0.62040282936E+02 -0.16859122399E+03  0.17984740612E+03  0.47000000000E+01 0.  1.
         -5    1    4    4    0  502 -0.77624626353E+02 -0.65518038645E+01 -0.76156757571E+02  0.10904334218E+03  0.47000000000E+01 0.  1.
<mgrwt>
<rscale>  0 0.99996115E+03</rscale>
<asrwt>0</asrwt>
<pdfrwt beam="1">  1        1 0.14044018E+00 0.99996115E+03</pdfrwt>
<pdfrwt beam="2">  1       -1 0.42129681E-01 0.99996115E+03</pdfrwt>
<totfact> 0.11084484E+02</totfact>
</mgrwt>
</event>
<event>
 9    1  0.4321150E-036  0.9981636E+03  0.7818608E-02  0.8682789E-01
         -2   -1    0    0    0  501 -0.00000000000E+00  0.00000000000E+00  0.33542823875E+03  0.33542823875E+03  0.00000000000E+00 0. -1.
          2   -1    0    0  501    0  0.00000000000E+00 -0.00000000000E+00 -0.74258101494E+03  0.74258101494E+03  0.00000000000E+00 0. -1.
         36    2    1    2    0    0  0.00000000000E+00  0.00000000000E+00 -0.40715277618E+03  0.10780092537E+04  0.99816359775E+03 0.  0.
         25    2    3    3    0    0  0.77716529963E+02 -0.22426208900E+02 -0.19930440243E+03  0.24781369419E+03  0.12307147648E+03 0.  0.
         35    2    3    3    0    0 -0.77716529963E+02  0.22426208900E+02 -0.20784837375E+03  0.83019555950E+03  0.79967551336E+03 0.  0.
         22    1    5    5    0    0 -0.25191953571E+03  0.11455189516E+03  0.22365784105E+03  0.35582076812E+03  0.00000000000E+00 0.  1.
         22    1    5    5    0    0  0.17420300575E+03 -0.92125686263E+02 -0.43150621481E+03  0.47437479138E+03  0.00000000000E+00 0.  1.
          5    1    4    4  502    0  0.38512846587E+02  0.48119730511E+02 -0.11770004776E+03  0.13294412007E+03  0.47000000000E+01 0.  1.
         -5    1    4    4    0  502  0.39203683376E+02 -0.70545939411E+02 -0.81604354671E+02  0.11486957412E+03  0.47000000000E+01 0.  1.
<mgrwt>
<rscale>  0 0.99816360E+03</rscale>
<asrwt>0</asrwt>
<pdfrwt beam="1">  1        2 0.11424323E+00 0.99816360E+03</pdfrwt>
<pdfrwt beam="2">  1       -2 0.51604345E-01 0.99816360E+03</pdfrwt>
<totfact> 0.16307474E+02</totfact>
</mgrwt>
</event>
<event>
 9    1  0.4321150E-036  0.1000192E+04  0.7818608E-02  0.8680855E-01
          1   -1    0    0  501    0  0.00000000000E+00  0.00000000000E+00  0.14106025770E+04  0.14106025770E+04  0.00000000000E+00 0.  1.
         -1   -1    0    0    0  501 -0.00000000000E+00 -0.00000000000E+00 -0.17729734522E+03  0.17729734522E+03  0.00000000000E+00 0.  1.
         36    2    1    2    0    0  0.00000000000E+00  0.00000000000E+00  0.12333052318E+04  0.15878999222E+04  0.10001921657E+04 0.  0.
         25    2    3    3    0    0  0.20889219137E+02  0.98542996966E+02  0.63691376090E+02  0.17273570913E+03  0.12503580325E+03 0.  0.
         35    2    3    3    0    0 -0.20889219137E+02 -0.98542996966E+02  0.11696138557E+04  0.14151642131E+04  0.79028228934E+03 0.  0.
         22    1    5    5    0    0  0.10136040839E+03  0.22368515100E+03  0.10025090808E+04  0.10321499097E+04  0.00000000000E+00 0. -1.
         22    1    5    5    0    0 -0.12224962753E+03 -0.32222814797E+03  0.16710477496E+03  0.38301430337E+03  0.00000000000E+00 0. -1.
          5    1    4    4  502    0  0.76810208042E+01 -0.87808278242E+01  0.63261045414E+02  0.64499231661E+02  0.47000000000E+01 0.  1.
         -5    1    4    4    0  502  0.13208198332E+02  0.10732382479E+03  0.43033067523E+00  0.10823647747E+03  0.47000000000E+01 0.  1.
<mgrwt>
<rscale>  0 0.10001922E+04</rscale>
<asrwt>0</asrwt>
<pdfrwt beam="1">  1        1 0.21701577E+00 0.10001922E+04</pdfrwt>
<pdfrwt beam="2">  1       -1 0.27276516E-01 0.10001922E+04</pdfrwt>
<totfact> 0.98850078E+01</totfact>
</mgrwt>
</event>
<event>
 9    1  0.4321150E-036  0.9983504E+03  0.7818608E-02  0.8682610E-01
          2   -1    0    0  501    0  0.00000000000E+00  0.00000000000E+00  0.87620250899E+03  0.87620250899E+03  0.00000000000E+00 0. -1.
         -2   -1    0    0    0  501 -0.00000000000E+00 -0.00000000000E+00 -0.28438158838E+03  0.28438158838E+03  0.00000000000E+00 0. -1.
         36    2    1    2    0    0 -0.14210854715E-13  0.28421709430E-13  0.59182092061E+03  0.11605840974E+04  0.99835036185E+03 0.  0.
         25    2    3    3    0    0  0.88458236588E+02 -0.98679151561E+02  0.15907490021E+03  0.24164345941E+03  0.12459656106E+03 0.  0.
         35    2    3    3    0    0 -0.88458236588E+02  0.98679151561E+02  0.43274602041E+03  0.91894063797E+03  0.79976267940E+03 0.  0.
         22    1    5    5    0    0 -0.32415663691E+03  0.32916986342E+03  0.34847153295E+03  0.57867325281E+03  0.00000000000E+00 0.  1.
         22    1    5    5    0    0  0.23569840032E+03 -0.23049071186E+03  0.84274487458E+02  0.34026738516E+03  0.00000000000E+00 0.  1.
          5    1    4    4  502    0 -0.33479188221E+01  0.11049727762E+02 -0.12866136583E+02  0.17914589435E+02  0.47000000000E+01 0.  1.
         -5    1    4    4    0  502  0.91806155410E+02 -0.10972887932E+03  0.17194103679E+03  0.22372886998E+03  0.47000000000E+01 0.  1.
<mgrwt>
<rscale>  0 0.99835036E+03</rscale>
<asrwt>0</asrwt>
<pdfrwt beam="1">  1        2 0.13480039E+00 0.99835036E+03</pdfrwt>
<pdfrwt beam="2">  1       -2 0.43751014E-01 0.99835036E+03</pdfrwt>
<totfact> 0.18243329E+02</totfact>
</mgrwt>
</event>
<event>
 9    1  0.4321150E-036  0.9990197E+03  0.7818608E-02  0.8681972E-01
         -1   -1    0    0    0  501 -0.00000000000E+00  0.00000000000E+00  0.32123576434E+03  0.32123576434E+03  0.00000000000E+00 0. -1.
          1   -1    0    0  501    0  0.00000000000E+00 -0.00000000000E+00 -0.77671946672E+03  0.77671946672E+03  0.00000000000E+00 0. -1.
         36    2    1    2    0    0 -0.71054273576E-14  0.35527136788E-14 -0.45548370239E+03  0.10979552311E+04  0.99901966261E+03 0.  0.
         25    2    3    3    0    0  0.46971297857E+02  0.61539342731E+01  0.58058640238E+02  0.14619129241E+03  0.12552654915E+03 0.  0.
         35    2    3    3    0    0 -0.46971297857E+02 -0.61539342731E+01 -0.51354234263E+03  0.95176393865E+03  0.79992792395E+03 0.  0.
         22    1    5    5    0    0  0.31561237598E+03 -0.66826874505E+02 -0.29842235984E+01  0.32262347809E+03  0.00000000000E+00 0.  1.
         22    1    5    5    0    0 -0.36258367384E+03  0.60672940232E+02 -0.51055811903E+03  0.62914046056E+03  0.00000000000E+00 0.  1.
          5    1    4    4  502    0  0.82711176409E+02 -0.34899983762E+01  0.68377963926E+02  0.10747536807E+03  0.47000000000E+01 0. -1.
         -5    1    4    4    0  502 -0.35739878552E+02  0.96439326493E+01 -0.10319323688E+02  0.38715924337E+02  0.47000000000E+01 0. -1.
<mgrwt>
<rscale>  0 0.99901966E+03</rscale>
<asrwt>0</asrwt>
<pdfrwt beam="1">  1        1 0.11949530E+00 0.99901966E+03</pdfrwt>
<pdfrwt beam="2">  1       -1 0.49420887E-01 0.99901966E+03</pdfrwt>
<totfact> 0.10856741E+02</totfact>
</mgrwt>
</event>
<event>
 9    1  0.4321150E-036  0.1001315E+04  0.7818608E-02  0.8679787E-01
         -1   -1    0    0    0  501 -0.00000000000E+00  0.00000000000E+00  0.15211506851E+03  0.15211506851E+03  0.00000000000E+00 0.  1.
          1   -1    0    0  501    0  0.00000000000E+00 -0.00000000000E+00 -0.16478162797E+04  0.16478162797E+04  0.00000000000E+00 0.  1.
         36    2    1    2    0    0  0.14210854715E-13 -0.14210854715E-13 -0.14957012112E+04  0.17999313482E+04  0.10013145086E+04 0.  0.
         25    2    3    3    0    0  0.98453083208E+02 -0.89522298362E+02 -0.20049912434E+03  0.27098838538E+03  0.12460960898E+03 0.  0.
         35    2    3    3    0    0 -0.98453083208E+02  0.89522298362E+02 -0.12952020868E+04  0.15289429628E+04  0.80150538756E+03 0.  0.
         22    1    5    5    0    0  0.29448528305E+03  0.17262324459E+02 -0.96978578078E+03  0.10136587347E+04  0.00000000000E+00 0. -1.
         22    1    5    5    0    0 -0.39293836626E+03  0.72259973904E+02 -0.32541630603E+03  0.51528422811E+03  0.00000000000E+00 0. -1.
          5    1    4    4  502    0  0.10319110582E+03 -0.30288978730E+02 -0.72485008785E+02  0.12977670458E+03  0.47000000000E+01 0. -1.
         -5    1    4    4    0  502 -0.47380226080E+01 -0.59233319633E+02 -0.12801411556E+03  0.14121168080E+03  0.47000000000E+01 0. -1.
<mgrwt>
<rscale>  0 0.10013145E+04</rscale>
<asrwt>0</asrwt>
<pdfrwt beam="1">  1        1 0.25351021E+00 0.10013145E+04</pdfrwt>
<pdfrwt beam="2">  1       -1 0.23402317E-01 0.10013145E+04</pdfrwt>
<totfact> 0.86717485E+01</totfact>
</mgrwt>
</event>
<event>
 9    1  0.4321150E-036  0.1000036E+04  0.7818608E-02  0.8681004E-01
          1   -1    0    0  501    0  0.00000000000E+00  0.00000000000E+00  0.27770451410E+03  0.27770451410E+03  0.00000000000E+00 0. -1.
         -1   -1    0    0    0  501 -0.00000000000E+00 -0.00000000000E+00 -0.90030198995E+03  0.90030198995E+03  0.00000000000E+00 0. -1.
         36    2    1    2    0    0  0.14210854715E-13  0.00000000000E+00 -0.62259747584E+03  0.11780065040E+04  0.10000358527E+04 0.  0.
         25    2    3    3    0    0  0.93164567001E+02  0.69265797364E+02 -0.21126070918E+03  0.27122234848E+03  0.12431044945E+03 0.  0.
         35    2    3    3    0    0 -0.93164567001E+02 -0.69265797364E+02 -0.41133676667E+03  0.90678415557E+03  0.79973882108E+03 0.  0.
         22    1    5    5    0    0 -0.17805069270E+03 -0.27406623687E+03  0.10629472986E+03  0.34367560426E+03  0.00000000000E+00 0.  1.
         22    1    5    5    0    0  0.84886125697E+02  0.20480043951E+03 -0.51763149653E+03  0.56310855131E+03  0.00000000000E+00 0.  1.
          5    1    4    4  502    0  0.77642416073E+02 -0.11874313345E+02 -0.14594282476E+03  0.16580332382E+03  0.47000000000E+01 0. -1.
         -5    1    4    4    0  502  0.15522150927E+02  0.81140110709E+02 -0.65317884419E+02  0.10541902466E+03  0.47000000000E+01 0. -1.
<mgrwt>
<rscale>  0 0.10000359E+04</rscale>
<asrwt>0</asrwt>
<pdfrwt beam="1">  1        1 0.42723771E-01 0.10000359E+04</pdfrwt>
<pdfrwt beam="2">  1       -1 0.13850800E+00 0.10000359E+04</pdfrwt>
<totfact> 0.49736401E+01</totfact>
</mgrwt>
</event>
<event>
 9    1  0.4321150E-036  0.9996044E+03  0.7818608E-02  0.8681415E-01
          2   -1    0    0  501    0  0.00000000000E+00  0.00000000000E+00  0.40603186908E+03  0.40603186908E+03  0.00000000000E+00 0.  1.
         -2   -1    0    0    0  501 -0.00000000000E+00 -0.00000000000E+00 -0.61522820488E+03  0.61522820488E+03  0.00000000000E+00 0.  1.
         36    2    1    2    0    0  0.00000000000E+00  0.88817841970E-15 -0.20919633580E+03  0.10212600740E+04  0.99960443764E+03 0.  0.
         25    2    3    3    0    0  0.40457783983E+02  0.78971346942E+01  0.96791860550E+02  0.16352540503E+03  0.12519064183E+03 0.  0.
         35    2    3    3    0    0 -0.40457783983E+02 -0.78971346942E+01 -0.30598819635E+03  0.85773466892E+03  0.80023795770E+03 0.  0.
         22    1    5    5    0    0  0.37967323668E+03 -0.20670296667E+01 -0.11953344346E+03  0.39805060403E+03  0.00000000000E+00 0.  1.
         22    1    5    5    0    0 -0.42013102066E+03 -0.58301050274E+01 -0.18645475289E+03  0.45968406490E+03  0.00000000000E+00 0.  1.
          5    1    4    4  502    0  0.62306651933E+02 -0.24779002613E+02  0.10346175118E+03  0.12337966527E+03  0.47000000000E+01 0.  1.
         -5    1    4    4    0  502 -0.21848867950E+02  0.32676137307E+02 -0.66698906264E+01  0.40145739761E+02  0.47000000000E+01 0.  1.
<mgrwt>
<rscale>  0 0.99960444E+03</rscale>
<asrwt>0</asrwt>
<pdfrwt beam="1">  1        2 0.62466442E-01 0.99960444E+03</pdfrwt>
<pdfrwt beam="2">  1       -2 0.94650493E-01 0.99960444E+03</pdfrwt>
<totfact> 0.87621201E+01</totfact>
</mgrwt>
</event>
<event>
 9    1  0.4321150E-036  0.1000680E+04  0.7818608E-02  0.8680391E-01
          2   -1    0    0  501    0  0.00000000000E+00  0.00000000000E+00  0.38161004825E+03  0.38161004825E+03  0.00000000000E+00 0. -1.
         -2   -1    0    0    0  501 -0.00000000000E+00 -0.00000000000E+00 -0.65600979112E+03  0.65600979112E+03  0.00000000000E+00 0. -1.
         36    2    1    2    0    0 -0.28421709430E-13  0.00000000000E+00 -0.27439974288E+03  0.10376198394E+04  0.10006796251E+04 0.  0.
         25    2    3    3    0    0  0.76938762930E+02  0.49542929782E+02  0.58652483160E+02  0.16536386797E+03  0.12462351269E+03 0.  0.
         35    2    3    3    0    0 -0.76938762930E+02 -0.49542929782E+02 -0.33305222604E+03  0.87225597140E+03  0.80095731425E+03 0.  0.
         22    1    5    5    0    0 -0.42653155168E+03 -0.45038988789E+02 -0.29502079494E+03  0.52057174773E+03  0.00000000000E+00 0. -1.
         22    1    5    5    0    0  0.34959278875E+03 -0.45039409925E+01 -0.38031431102E+02  0.35168422368E+03  0.00000000000E+00 0. -1.
          5    1    4    4  502    0  0.14827180618E+02 -0.31045943302E+02  0.52986545850E+02  0.63351084614E+02  0.47000000000E+01 0.  1.
         -5    1    4    4    0  502  0.62111582311E+02  0.80588873084E+02  0.56659373098E+01  0.10201278335E+03  0.47000000000E+01 0.  1.
<mgrwt>
<rscale>  0 0.10006796E+04</rscale>
<asrwt>0</asrwt>
<pdfrwt beam="1">  1        2 0.58709238E-01 0.10006796E+04</pdfrwt>
<pdfrwt beam="2">  1       -2 0.10092458E+00 0.10006796E+04</pdfrwt>
<totfact> 0.80440814E+01</totfact>
</mgrwt>
</event>
<event>
 9    1  0.4321150E-036  0.1000095E+04  0.7818608E-02  0.8680948E-01
          2   -1    0    0  501    0  0.00000000000E+00  0.00000000000E+00  0.83780351138E+03  0.83780351138E+03  0.00000000000E+00 0. -1.
         -2   -1    0    0    0  501 -0.00000000000E+00 -0.00000000000E+00 -0.29845588297E+03  0.29845588297E+03  0.00000000000E+00 0. -1.
         36    2    1    2    0    0  0.14210854715E-13  0.00000000000E+00  0.53934762840E+03  0.11362593943E+04  0.10000947690E+04 0.  0.
         25    2    3    3    0    0  0.22622299158E+02 -0.12878977033E+03  0.15864300997E+03  0.24068503630E+03  0.12515234206E+03 0.  0.
         35    2    3    3    0    0 -0.22622299158E+02  0.12878977033E+03  0.38070461843E+03  0.89557435805E+03  0.80001178175E+03 0.  0.
         22    1    5    5    0    0  0.19233766478E+03 -0.24674698932E+03 -0.93764589338E+01  0.31299484343E+03  0.00000000000E+00 0. -1.
         22    1    5    5    0    0 -0.21495996394E+03  0.37553675964E+03  0.39008107736E+03  0.58257951462E+03  0.00000000000E+00 0. -1.
          5    1    4    4  502    0 -0.46220930451E+02 -0.63872277769E+02  0.39035797114E+02  0.88101791897E+02  0.47000000000E+01 0.  1.
         -5    1    4    4    0  502  0.68843229609E+02 -0.64917492557E+02  0.11960721286E+03  0.15258324440E+03  0.47000000000E+01 0.  1.
<mgrwt>
<rscale>  0 0.10000948E+04</rscale>
<asrwt>0</asrwt>
<pdfrwt beam="1">  1        2 0.12889285E+00 0.10000948E+04</pdfrwt>
<pdfrwt beam="2">  1       -2 0.45916290E-01 0.10000948E+04</pdfrwt>
<totfact> 0.17618639E+02</totfact>
</mgrwt>
</event>
<event>
 9    1  0.4321150E-036  0.9995560E+03  0.7818608E-02  0.8681461E-01
          1   -1    0    0  501    0  0.00000000000E+00  0.00000000000E+00  0.22259834202E+03  0.22259834202E+03  0.00000000000E+00 0. -1.
         -1   -1    0    0    0  501 -0.00000000000E+00 -0.00000000000E+00 -0.11221020673E+04  0.11221020673E+04  0.00000000000E+00 0. -1.
         36    2    1    2    0    0  0.00000000000E+00  0.00000000000E+00 -0.89950372530E+03  0.13447004093E+04  0.99955602097E+03 0.  0.
         25    2    3    3    0    0 -0.16605968969E+01  0.13690150633E+03 -0.12569475589E+03  0.22355588412E+03  0.12423075967E+03 0.  0.
         35    2    3    3    0    0  0.16605968969E+01 -0.13690150633E+03 -0.77380896941E+03  0.11211445252E+04  0.79964988919E+03 0.  0.
         22    1    5    5    0    0 -0.10535165456E+03 -0.30943006195E+03 -0.59790849875E+01  0.32692764308E+03  0.00000000000E+00 0. -1.
         22    1    5    5    0    0  0.10701225145E+03  0.17252855562E+03 -0.76782988442E+03  0.79421688214E+03  0.00000000000E+00 0. -1.
          5    1    4    4  502    0 -0.50182652220E+02  0.24172824863E+02 -0.14190802354E+02  0.57672288988E+02  0.47000000000E+01 0.  1.
         -5    1    4    4    0  502  0.48522055323E+02  0.11272868147E+03 -0.11150395354E+03  0.16588359513E+03  0.47000000000E+01 0.  1.
<mgrwt>
<rscale>  0 0.99955602E+03</rscale>
<asrwt>0</asrwt>
<pdfrwt beam="1">  1        1 0.34245899E-01 0.99955602E+03</pdfrwt>
<pdfrwt beam="2">  1       -1 0.17263109E+00 0.99955602E+03</pdfrwt>
<totfact> 0.34262813E+01</totfact>
</mgrwt>
</event>
<event>
 9    1  0.4321150E-036  0.9996675E+03  0.7818608E-02  0.8681355E-01
          2   -1    0    0  501    0  0.00000000000E+00  0.00000000000E+00  0.10928252830E+04  0.10928252830E+04  0.00000000000E+00 0.  1.
         -2   -1    0    0    0  501 -0.00000000000E+00 -0.00000000000E+00 -0.22861273968E+03  0.22861273968E+03  0.00000000000E+00 0.  1.
         36    2    1    2    0    0 -0.14210854715E-13 -0.28421709430E-13  0.86421254335E+03  0.13214380227E+04  0.99966750861E+03 0.  0.
         25    2    3    3    0    0 -0.11576901709E+03  0.75983710799E+02  0.17771603319E+03  0.25872385355E+03  0.12719691159E+03 0.  0.
         35    2    3    3    0    0  0.11576901709E+03 -0.75983710799E+02  0.68649651015E+03  0.10627141692E+04  0.79931718188E+03 0.  0.
         22    1    5    5    0    0  0.26738914369E+02  0.34552431413E+03  0.46017603089E+03  0.57607638435E+03  0.00000000000E+00 0.  1.
         22    1    5    5    0    0  0.89030102720E+02 -0.42150802493E+03  0.22632047926E+03  0.48663778480E+03  0.00000000000E+00 0.  1.
          5    1    4    4  502    0 -0.49156605655E+02 -0.25387760482E+02  0.18530760384E+02  0.58535368302E+02  0.47000000000E+01 0.  1.
         -5    1    4    4    0  502 -0.66612411434E+02  0.10137147128E+03  0.15918527281E+03  0.20018848525E+03  0.47000000000E+01 0.  1.
<mgrwt>
<rscale>  0 0.99966751E+03</rscale>
<asrwt>0</asrwt>
<pdfrwt beam="1">  1        2 0.16812696E+00 0.99966751E+03</pdfrwt>
<pdfrwt beam="2">  1       -2 0.35171191E-01 0.99966751E+03</pdfrwt>
<totfact> 0.20160307E+02</totfact>
</mgrwt>
</event>
<event>
 9    1  0.4321150E-036  0.9997378E+03  0.7818608E-02  0.8681288E-01
          1   -1    0    0  501    0  0.00000000000E+00  0.00000000000E+00  0.98593241239E+03  0.98593241239E+03  0.00000000000E+00 0. -1.
         -1   -1    0    0    0  501 -0.00000000000E+00 -0.00000000000E+00 -0.25343410193E+03  0.25343410193E+03  0.00000000000E+00 0. -1.
         36    2    1    2    0    0 -0.14210854715E-13 -0.35527136788E-13  0.73249831046E+03  0.12393665143E+04  0.99973775662E+03 0.  0.
         25    2    3    3    0    0  0.33577754537E+02 -0.22911395943E+02  0.30531981395E+03  0.33200908093E+03  0.12392515226E+03 0.  0.
         35    2    3    3    0    0 -0.33577754537E+02  0.22911395943E+02  0.42717849651E+03  0.90735743340E+03  0.79947710812E+03 0.  0.
         22    1    5    5    0    0  0.54137715522E+02 -0.35332397853E+03  0.37407764642E+03  0.51740004986E+03  0.00000000000E+00 0. -1.
         22    1    5    5    0    0 -0.87715470058E+02  0.37623537447E+03  0.53100850086E+02  0.38995738353E+03  0.00000000000E+00 0. -1.
          5    1    4    4  502    0  0.10001755326E+02  0.22122692891E+01  0.29572168890E+03  0.29593637243E+03  0.47000000000E+01 0.  1.
         -5    1    4    4    0  502  0.23575999211E+02 -0.25123665232E+02  0.95981250571E+01  0.36072708494E+02  0.47000000000E+01 0.  1.
<mgrwt>
<rscale>  0 0.99973776E+03</rscale>
<asrwt>0</asrwt>
<pdfrwt beam="1">  1        1 0.15168191E+00 0.99973776E+03</pdfrwt>
<pdfrwt beam="2">  1       -1 0.38989862E-01 0.99973776E+03</pdfrwt>
<totfact> 0.11100494E+02</totfact>
</mgrwt>
</event>
<event>
 9    1  0.4321150E-036  0.9999260E+03  0.7818608E-02  0.8681108E-01
          2   -1    0    0  501    0  0.00000000000E+00  0.00000000000E+00  0.69532852524E+03  0.69532852524E+03  0.00000000000E+00 0. -1.
         -2   -1    0    0    0  501 -0.00000000000E+00 -0.00000000000E+00 -0.35948904804E+03  0.35948904804E+03  0.00000000000E+00 0. -1.
         36    2    1    2    0    0  0.35527136788E-14  0.00000000000E+00  0.33583947720E+03  0.10548175733E+04  0.99992597649E+03 0.  0.
         25    2    3    3    0    0 -0.28684060734E+02 -0.40265348174E+02  0.20196007431E+03  0.24230363237E+03  0.12441505150E+03 0.  0.
         35    2    3    3    0    0  0.28684060734E+02  0.40265348174E+02  0.13387940289E+03  0.81251394092E+03  0.79988195133E+03 0.  0.
         22    1    5    5    0    0  0.17518587116E+03 -0.33900400977E+03  0.13837503478E+03  0.40590818955E+03  0.00000000000E+00 0. -1.
         22    1    5    5    0    0 -0.14650181042E+03  0.37926935795E+03 -0.44956318939E+01  0.40660575136E+03  0.00000000000E+00 0. -1.
          5    1    4    4  502    0  0.92157305564E+01 -0.12697899021E+01  0.18479214491E+03  0.18508584191E+03  0.47000000000E+01 0. -1.
         -5    1    4    4    0  502 -0.37899791290E+02 -0.38995558272E+02  0.17167929404E+02  0.57217790457E+02  0.47000000000E+01 0. -1.
<mgrwt>
<rscale>  0 0.99992598E+03</rscale>
<asrwt>0</asrwt>
<pdfrwt beam="1">  1        2 0.10697362E+00 0.99992598E+03</pdfrwt>
<pdfrwt beam="2">  1       -2 0.55306008E-01 0.99992598E+03</pdfrwt>
<totfact> 0.15368808E+02</totfact>
</mgrwt>
</event>
<event>
 9    1  0.4321150E-036  0.9995181E+03  0.7818608E-02  0.8681497E-01
         -2   -1    0    0    0  501 -0.00000000000E+00  0.00000000000E+00  0.25428103443E+03  0.25428103443E+03  0.00000000000E+00 0. -1.
          2   -1    0    0  501    0  0.00000000000E+00 -0.00000000000E+00 -0.98221674346E+03  0.98221674346E+03  0.00000000000E+00 0. -1.
         36    2    1    2    0    0  0.56843418861E-13 -0.28421709430E-13 -0.72793570903E+03  0.12364977779E+04  0.99951806299E+03 0.  0.
         25    2    3    3    0    0 -0.10461512855E+03 -0.90065082381E+02 -0.16372241444E+03  0.24812901774E+03  0.12532731653E+03 0.  0.
         35    2    3    3    0    0  0.10461512855E+03  0.90065082381E+02 -0.56421329459E+03  0.98836876015E+03  0.79967500903E+03 0.  0.
         22    1    5    5    0    0  0.38748630947E+03 -0.17087321082E+03 -0.25190716975E+03  0.49274792376E+03  0.00000000000E+00 0. -1.
         22    1    5    5    0    0 -0.28287118092E+03  0.26093829321E+03 -0.31230612483E+03  0.49562083639E+03  0.00000000000E+00 0. -1.
          5    1    4    4  502    0 -0.43584613414E+02 -0.41901038272E+02  0.64451081748E+01  0.60983153035E+02  0.47000000000E+01 0. -1.
         -5    1    4    4    0  502 -0.61030515135E+02 -0.48164044109E+02 -0.17016752262E+03  0.18714586470E+03  0.47000000000E+01 0. -1.
<mgrwt>
<rscale>  0 0.99951806E+03</rscale>
<asrwt>0</asrwt>
<pdfrwt beam="1">  1        2 0.15111027E+00 0.99951806E+03</pdfrwt>
<pdfrwt beam="2">  1       -2 0.39120159E-01 0.99951806E+03</pdfrwt>
<totfact> 0.19313843E+02</totfact>
</mgrwt>
</event>
<event>
 9    1  0.4321150E-036  0.1000257E+04  0.7818608E-02  0.8680793E-01
          2   -1    0    0  501    0  0.00000000000E+00  0.00000000000E+00  0.35135761280E+03  0.35135761280E+03  0.00000000000E+00 0. -1.
         -2   -1    0    0    0  501 -0.00000000000E+00 -0.00000000000E+00 -0.71189156873E+03  0.71189156873E+03  0.00000000000E+00 0. -1.
         36    2    1    2    0    0  0.00000000000E+00  0.00000000000E+00 -0.36053395592E+03  0.10632491815E+04  0.10002570113E+04 0.  0.
         25    2    3    3    0    0 -0.84951196675E+02  0.10739769815E+03 -0.10875864141E+03  0.21414351111E+03  0.12360432794E+03 0.  0.
         35    2    3    3    0    0  0.84951196675E+02 -0.10739769815E+03 -0.25177531451E+03  0.84910567042E+03  0.79927383240E+03 0.  0.
         22    1    5    5    0    0  0.23339205925E+03 -0.18624045416E+03 -0.48022552534E+03  0.56548555709E+03  0.00000000000E+00 0.  1.
         22    1    5    5    0    0 -0.14844086258E+03  0.78842756013E+02  0.22845021083E+03  0.28362011333E+03  0.00000000000E+00 0.  1.
          5    1    4    4  502    0 -0.67997809269E+02  0.56590508904E+01 -0.62977301694E+01  0.68683901517E+02  0.47000000000E+01 0. -1.
         -5    1    4    4    0  502 -0.16953387406E+02  0.10173864726E+03 -0.10246091124E+03  0.14545960959E+03  0.47000000000E+01 0. -1.
<mgrwt>
<rscale>  0 0.10002570E+04</rscale>
<asrwt>0</asrwt>
<pdfrwt beam="1">  1        2 0.54055018E-01 0.10002570E+04</pdfrwt>
<pdfrwt beam="2">  1       -2 0.10952178E+00 0.10002570E+04</pdfrwt>
<totfact> 0.72028485E+01</totfact>
</mgrwt>
</event>
<event>
 9    1  0.4321150E-036  0.1000898E+04  0.7818608E-02  0.8680183E-01
          1   -1    0    0  501    0  0.00000000000E+00  0.00000000000E+00  0.31518369518E+04  0.31518369518E+04  0.00000000000E+00 0.  1.
         -1   -1    0    0    0  501 -0.00000000000E+00 -0.00000000000E+00 -0.79461369022E+02  0.79461369022E+02  0.00000000000E+00 0.  1.
         36    2    1    2    0    0  0.00000000000E+00  0.14210854715E-13  0.30723755828E+04  0.32312983208E+04  0.10008981549E+04 0.  0.
         25    2    3    3    0    0  0.13171047876E+03  0.46925264799E+02  0.53589287226E+03  0.56783698324E+03  0.12533171310E+03 0.  0.
         35    2    3    3    0    0 -0.13171047876E+03 -0.46925264799E+02  0.25364827105E+04  0.26634613376E+04  0.80045744754E+03 0.  0.
         22    1    5    5    0    0  0.17845134897E+03  0.29726101365E+03  0.98255687181E+03  0.10419342592E+04  0.00000000000E+00 0.  1.
         22    1    5    5    0    0 -0.31016182773E+03 -0.34418627845E+03  0.15539258387E+04  0.16215270783E+04  0.00000000000E+00 0.  1.
          5    1    4    4  502    0 -0.13410085801E+02  0.31840720616E+02  0.53657802544E+02  0.63991496813E+02  0.47000000000E+01 0.  1.
         -5    1    4    4    0  502  0.14512056456E+03  0.15084544183E+02  0.48223506972E+03  0.50384548643E+03  0.47000000000E+01 0.  1.
<mgrwt>
<rscale>  0 0.10008982E+04</rscale>
<asrwt>0</asrwt>
<pdfrwt beam="1">  1        1 0.48489789E+00 0.10008982E+04</pdfrwt>
<pdfrwt beam="2">  1       -1 0.12224828E-01 0.10008982E+04</pdfrwt>
<totfact> 0.21542641E+01</totfact>
</mgrwt>
</event>
<event>
 9    1  0.4321150E-036  0.1000021E+04  0.7818608E-02  0.8681018E-01
         -1   -1    0    0    0  501 -0.00000000000E+00  0.00000000000E+00  0.33590899716E+03  0.33590899716E+03  0.00000000000E+00 0. -1.
          1   -1    0    0  501    0  0.00000000000E+00 -0.00000000000E+00 -0.74428026557E+03  0.74428026557E+03  0.00000000000E+00 0. -1.
         36    2    1    2    0    0  0.00000000000E+00  0.00000000000E+00 -0.40837126841E+03  0.10801892627E+04  0.10000208750E+04 0.  0.
         25    2    3    3    0    0 -0.19238301971E+02 -0.12198527782E+03 -0.37636812620E+01  0.17631320293E+03  0.12578418009E+03 0.  0.
         35    2    3    3    0    0  0.19238301971E+02  0.12198527782E+03 -0.40460758715E+03  0.90387605980E+03  0.79877037478E+03 0.  0.
         22    1    5    5    0    0 -0.25863574826E+02  0.40543263093E+03  0.18945712437E+01  0.40626116246E+03  0.00000000000E+00 0. -1.
         22    1    5    5    0    0  0.45101876797E+02 -0.28344735311E+03 -0.40650215840E+03  0.49761489734E+03  0.00000000000E+00 0. -1.
          5    1    4    4  502    0 -0.24247604582E+02 -0.25236573697E+02  0.53183472199E+02  0.63838880747E+02  0.47000000000E+01 0.  1.
         -5    1    4    4    0  502  0.50093026106E+01 -0.96748704124E+02 -0.56947153461E+02  0.11247432218E+03  0.47000000000E+01 0.  1.
<mgrwt>
<rscale>  0 0.10000209E+04</rscale>
<asrwt>0</asrwt>
<pdfrwt beam="1">  1        1 0.11450466E+00 0.10000209E+04</pdfrwt>
<pdfrwt beam="2">  1       -1 0.51678308E-01 0.10000209E+04</pdfrwt>
<totfact> 0.10694933E+02</totfact>
</mgrwt>
</event>
<event>
 9    1  0.4321150E-036  0.1000498E+04  0.7818608E-02  0.8680563E-01
         -2   -1    0    0    0  501 -0.00000000000E+00  0.00000000000E+00  0.21608139124E+03  0.21608139124E+03  0.00000000000E+00 0. -1.
          2   -1    0    0  501    0  0.00000000000E+00 -0.00000000000E+00 -0.11581250061E+04  0.11581250061E+04  0.00000000000E+00 0. -1.
         36    2    1    2    0    0 -0.28421709430E-13  0.00000000000E+00 -0.94204361487E+03  0.13742063974E+04  0.10004984009E+04 0.  0.
         25    2    3    3    0    0  0.12804186184E+03 -0.25182277552E+02 -0.10786678233E+03  0.21056935333E+03  0.12520121543E+03 0.  0.
         35    2    3    3    0    0 -0.12804186184E+03  0.25182277552E+02 -0.83417683253E+03  0.11636370440E+04  0.80073173834E+03 0.  0.
         22    1    5    5    0    0  0.13449907524E+03 -0.24383706626E+03 -0.71813313469E+03  0.77023484423E+03  0.00000000000E+00 0. -1.
         22    1    5    5    0    0 -0.26254093708E+03  0.26901934381E+03 -0.11604369784E+03  0.39340219979E+03  0.00000000000E+00 0. -1.
          5    1    4    4  502    0  0.12548727066E+03 -0.62890564187E+02 -0.97909186747E+02  0.17120332068E+03  0.47000000000E+01 0.  1.
         -5    1    4    4    0  502  0.25545911741E+01  0.37708286634E+02 -0.99575955872E+01  0.39366032653E+02  0.47000000000E+01 0.  1.
<mgrwt>
<rscale>  0 0.10004984E+04</rscale>
<asrwt>0</asrwt>
<pdfrwt beam="1">  1        2 0.17817308E+00 0.10004984E+04</pdfrwt>
<pdfrwt beam="2">  1       -2 0.33243291E-01 0.10004984E+04</pdfrwt>
<totfact> 0.20450362E+02</totfact>
</mgrwt>
</event>
<event>
 9    1  0.4321150E-036  0.1000043E+04  0.7818608E-02  0.8680997E-01
          2   -1    0    0  501    0  0.00000000000E+00  0.00000000000E+00  0.82045561634E+03  0.82045561634E+03  0.00000000000E+00 0. -1.
         -2   -1    0    0    0  501 -0.00000000000E+00 -0.00000000000E+00 -0.30473518314E+03  0.30473518314E+03  0.00000000000E+00 0. -1.
         36    2    1    2    0    0 -0.49737991503E-13  0.00000000000E+00  0.51572043320E+03  0.11251907995E+04  0.10000433841E+04 0.  0.
         25    2    3    3    0    0  0.50633035311E+02 -0.12806042936E+03  0.62888956004E+02  0.19620758269E+03  0.12481673319E+03 0.  0.
         35    2    3    3    0    0 -0.50633035311E+02  0.12806042936E+03  0.45283147720E+03  0.92898321679E+03  0.79936868372E+03 0.  0.
         22    1    5    5    0    0  0.29718002014E+03  0.35584513360E+02 -0.57237609780E+02  0.30472670696E+03  0.00000000000E+00 0.  1.
         22    1    5    5    0    0 -0.34781305545E+03  0.92475915995E+02  0.51006908698E+03  0.62425650983E+03  0.00000000000E+00 0.  1.
          5    1    4    4  502    0 -0.14552935233E+02 -0.11887835088E+03  0.40283577017E+02  0.12644645827E+03  0.47000000000E+01 0. -1.
         -5    1    4    4    0  502  0.65185970543E+02 -0.91820784757E+01  0.22605378986E+02  0.69761124417E+02  0.47000000000E+01 0. -1.
<mgrwt>
<rscale>  0 0.10000434E+04</rscale>
<asrwt>0</asrwt>
<pdfrwt beam="1">  1        2 0.12622394E+00 0.10000434E+04</pdfrwt>
<pdfrwt beam="2">  1       -2 0.46882336E-01 0.10000434E+04</pdfrwt>
<totfact> 0.17381173E+02</totfact>
</mgrwt>
</event>
<event>
 9    1  0.4321150E-036  0.1007364E+04  0.7818608E-02  0.8674057E-01
          1   -1    0    0  501    0  0.00000000000E+00  0.00000000000E+00  0.19817214158E+03  0.19817214158E+03  0.00000000000E+00 0. -1.
         -1   -1    0    0    0  501 -0.00000000000E+00 -0.00000000000E+00 -0.12801782494E+04  0.12801782494E+04  0.00000000000E+00 0. -1.
         36    2    1    2    0    0  0.21316282073E-13 -0.14210854715E-13 -0.10820061078E+04  0.14783503910E+04  0.10073642147E+04 0.  0.
         25    2    3    3    0    0  0.56664256660E+02 -0.81119280500E+02 -0.37514292807E+03  0.40477416149E+03  0.11540680082E+03 0.  0.
         35    2    3    3    0    0 -0.56664256660E+02  0.81119280500E+02 -0.70686317976E+03  0.10735762295E+04  0.80194712419E+03 0.  0.
         22    1    5    5    0    0  0.89080529981E+02  0.34905180432E+03 -0.69346285174E+02  0.36685339059E+03  0.00000000000E+00 0.  1.
         22    1    5    5    0    0 -0.14574478664E+03 -0.26793252382E+03 -0.63751689459E+03  0.70672283891E+03  0.00000000000E+00 0.  1.
          5    1    4    4  502    0  0.19344041544E+01 -0.33316434465E+02 -0.14220598919E+02  0.36579258583E+02  0.47000000000E+01 0. -1.
         -5    1    4    4    0  502  0.54729852506E+02 -0.47802846035E+02 -0.36092232916E+03  0.36819490291E+03  0.47000000000E+01 0. -1.
<mgrwt>
<rscale>  0 0.10073642E+04</rscale>
<asrwt>0</asrwt>
<pdfrwt beam="1">  1        1 0.30488022E-01 0.10073642E+04</pdfrwt>
<pdfrwt beam="2">  1       -1 0.19695050E+00 0.10073642E+04</pdfrwt>
<totfact> 0.24858147E+01</totfact>
</mgrwt>
</event>
<event>
 9    1  0.4321150E-036  0.9997200E+03  0.7818608E-02  0.8681305E-01
          2   -1    0    0  501    0  0.00000000000E+00  0.00000000000E+00  0.35355771482E+03  0.35355771482E+03  0.00000000000E+00 0. -1.
         -2   -1    0    0    0  501 -0.00000000000E+00 -0.00000000000E+00 -0.70670217234E+03  0.70670217234E+03  0.00000000000E+00 0. -1.
         36    2    1    2    0    0 -0.71054273576E-14  0.14210854715E-13 -0.35314445752E+03  0.10602598872E+04  0.99971997102E+03 0.  0.
         25    2    3    3    0    0  0.30780241187E+00  0.12473086826E+03 -0.13391005102E+03  0.22149003182E+03  0.12477198480E+03 0.  0.
         35    2    3    3    0    0 -0.30780241187E+00 -0.12473086826E+03 -0.21923440650E+03  0.83876985535E+03  0.79994578629E+03 0.  0.
         22    1    5    5    0    0 -0.22750624560E+03  0.23860174787E+03 -0.24304867182E+03  0.40958826002E+03  0.00000000000E+00 0.  1.
         22    1    5    5    0    0  0.22719844319E+03 -0.36333261614E+03  0.23814265320E+02  0.42918159533E+03  0.00000000000E+00 0.  1.
          5    1    4    4  502    0  0.57207045866E+02  0.64342631505E+02 -0.37003644886E+02  0.93829526592E+02  0.47000000000E+01 0. -1.
         -5    1    4    4    0  502 -0.56899243454E+02  0.60388236758E+02 -0.96906406132E+02  0.12766050522E+03  0.47000000000E+01 0. -1.
<mgrwt>
<rscale>  0 0.99971997E+03</rscale>
<asrwt>0</asrwt>
<pdfrwt beam="1">  1        2 0.54393494E-01 0.99971997E+03</pdfrwt>
<pdfrwt beam="2">  1       -2 0.10872341E+00 0.99971997E+03</pdfrwt>
<totfact> 0.72858988E+01</totfact>
</mgrwt>
</event>
<event>
 9    1  0.4321150E-036  0.1002416E+04  0.7818608E-02  0.8678741E-01
         -2   -1    0    0    0  501 -0.00000000000E+00  0.00000000000E+00  0.13315431946E+03  0.13315431946E+03  0.00000000000E+00 0. -1.
          2   -1    0    0  501    0  0.00000000000E+00 -0.00000000000E+00 -0.18866034630E+04  0.18866034630E+04  0.00000000000E+00 0. -1.
         36    2    1    2    0    0  0.00000000000E+00  0.00000000000E+00 -0.17534491435E+04  0.20197577824E+04  0.10024158822E+04 0.  0.
         25    2    3    3    0    0  0.88699847778E+02  0.34689710799E+02 -0.12040019060E+03  0.19807719237E+03  0.12516920232E+03 0.  0.
         35    2    3    3    0    0 -0.88699847778E+02 -0.34689710799E+02 -0.16330489529E+04  0.18216805901E+04  0.80162350924E+03 0.  0.
         22    1    5    5    0    0 -0.44028039418E+03 -0.55167567519E+02 -0.75652056515E+03  0.87704826065E+03  0.00000000000E+00 0.  1.
         22    1    5    5    0    0  0.35158054640E+03  0.20477856720E+02 -0.87652838778E+03  0.94463232943E+03  0.00000000000E+00 0.  1.
          5    1    4    4  502    0  0.68457815790E+02  0.76191987164E+02 -0.50826908067E+02  0.11444280683E+03  0.47000000000E+01 0. -1.
         -5    1    4    4    0  502  0.20242031989E+02 -0.41502276365E+02 -0.69573282530E+02  0.83634385539E+02  0.47000000000E+01 0. -1.
<mgrwt>
<rscale>  0 0.10024159E+04</rscale>
<asrwt>0</asrwt>
<pdfrwt beam="1">  1        2 0.29024666E+00 0.10024159E+04</pdfrwt>
<pdfrwt beam="2">  1       -2 0.20485282E-01 0.10024159E+04</pdfrwt>
<totfact> 0.18651020E+02</totfact>
</mgrwt>
</event>
<event>
 9    1  0.4321150E-036  0.9997491E+03  0.7818608E-02  0.8681277E-01
          1   -1    0    0  501    0  0.00000000000E+00  0.00000000000E+00  0.10621393487E+04  0.10621393487E+04  0.00000000000E+00 0.  1.
         -1   -1    0    0    0  501 -0.00000000000E+00 -0.00000000000E+00 -0.23525590744E+03  0.23525590744E+03  0.00000000000E+00 0.  1.
         36    2    1    2    0    0  0.14210854715E-13 -0.28421709430E-13  0.82688344122E+03  0.12973952561E+04  0.99974908111E+03 0.  0.
         25    2    3    3    0    0 -0.82461746513E+02 -0.64668290492E+02  0.33566876535E+02  0.16601095322E+03  0.12430194670E+03 0.  0.
         35    2    3    3    0    0  0.82461746513E+02  0.64668290492E+02  0.79331656468E+03  0.11313843029E+04  0.79981081611E+03 0.  0.
         22    1    5    5    0    0 -0.45707880154E+02 -0.35750518765E+03  0.29441569815E+03  0.46538131980E+03  0.00000000000E+00 0.  1.
         22    1    5    5    0    0  0.12816962667E+03  0.42217347814E+03  0.49890086653E+03  0.66600298308E+03  0.00000000000E+00 0.  1.
          5    1    4    4  502    0 -0.11264285128E+03 -0.31132738350E+02  0.28379803050E+02  0.12035432091E+03  0.47000000000E+01 0. -1.
         -5    1    4    4    0  502  0.30181104762E+02 -0.33535552142E+02  0.51870734854E+01  0.45656632306E+02  0.47000000000E+01 0. -1.
<mgrwt>
<rscale>  0 0.99974908E+03</rscale>
<asrwt>0</asrwt>
<pdfrwt beam="1">  1        1 0.16340605E+00 0.99974908E+03</pdfrwt>
<pdfrwt beam="2">  1       -1 0.36193217E-01 0.99974908E+03</pdfrwt>
<totfact> 0.11023627E+02</totfact>
</mgrwt>
</event>
<event>
 9    1  0.4321150E-036  0.9995636E+03  0.7818608E-02  0.8681454E-01
         -1   -1    0    0    0  501 -0.00000000000E+00  0.00000000000E+00  0.54450630004E+03  0.54450630004E+03  0.00000000000E+00 0.  1.
          1   -1    0    0  501    0  0.00000000000E+00 -0.00000000000E+00 -0.45873087602E+03  0.45873087602E+03  0.00000000000E+00 0.  1.
         36    2    1    2    0    0 -0.14210854715E-13 -0.14210854715E-13  0.85775424012E+02  0.10032371761E+04  0.99956360881E+03 0.  0.
         25    2    3    3    0    0 -0.55510739566E+02 -0.11381317834E+03 -0.43801538054E+02  0.18367014171E+03  0.12562350277E+03 0.  0.
         35    2    3    3    0    0  0.55510739566E+02  0.11381317834E+03  0.12957696207E+03  0.81956703435E+03  0.79929034332E+03 0.  0.
         22    1    5    5    0    0 -0.72650420978E+02  0.11028135493E+03  0.45289503354E+03  0.47175626368E+03  0.00000000000E+00 0. -1.
         22    1    5    5    0    0  0.12816116054E+03  0.35318234089E+01 -0.32331807148E+03  0.34781077067E+03  0.00000000000E+00 0. -1.
          5    1    4    4  502    0 -0.24631005485E+02 -0.11488304942E+03  0.13539572726E+02  0.11836473928E+03  0.47000000000E+01 0. -1.
         -5    1    4    4    0  502 -0.30879734081E+02  0.10698710783E+01 -0.57341110780E+02  0.65305402430E+02  0.47000000000E+01 0. -1.
<mgrwt>
<rscale>  0 0.99956361E+03</rscale>
<asrwt>0</asrwt>
<pdfrwt beam="1">  1        1 0.70573981E-01 0.99956361E+03</pdfrwt>
<pdfrwt beam="2">  1       -1 0.83770200E-01 0.99956361E+03</pdfrwt>
<totfact> 0.83557111E+01</totfact>
</mgrwt>
</event>
<event>
 9    1  0.4321150E-036  0.1000654E+04  0.7818608E-02  0.8680416E-01
         -1   -1    0    0    0  501 -0.00000000000E+00  0.00000000000E+00  0.21709504436E+03  0.21709504436E+03  0.00000000000E+00 0. -1.
          1   -1    0    0  501    0  0.00000000000E+00 -0.00000000000E+00 -0.11530751475E+04  0.11530751475E+04  0.00000000000E+00 0. -1.
         36    2    1    2    0    0  0.00000000000E+00  0.21316282073E-13 -0.93598010311E+03  0.13701701918E+04  0.10006535870E+04 0.  0.
         25    2    3    3    0    0 -0.42855491632E+02 -0.37714092927E+02 -0.63694946808E+00  0.13753583109E+03  0.12512694818E+03 0.  0.
         35    2    3    3    0    0  0.42855491632E+02  0.37714092927E+02 -0.93534315364E+03  0.12326343607E+04  0.80078817814E+03 0.  0.
         22    1    5    5    0    0 -0.22399371386E+03 -0.28908938051E+03 -0.55460941053E+03  0.66433233552E+03  0.00000000000E+00 0. -1.
         22    1    5    5    0    0  0.26684920549E+03  0.32680347344E+03 -0.38073374312E+03  0.56830202522E+03  0.00000000000E+00 0. -1.
          5    1    4    4  502    0  0.26396220566E+02 -0.11960303222E+02 -0.43129490190E+02  0.52173290460E+02  0.47000000000E+01 0.  1.
         -5    1    4    4    0  502 -0.69251712199E+02 -0.25753789705E+02  0.42492540722E+02  0.85362540635E+02  0.47000000000E+01 0.  1.
<mgrwt>
<rscale>  0 0.10006536E+04</rscale>
<asrwt>0</asrwt>
<pdfrwt beam="1">  1        1 0.17739618E+00 0.10006536E+04</pdfrwt>
<pdfrwt beam="2">  1       -1 0.33399238E-01 0.10006536E+04</pdfrwt>
<totfact> 0.10801485E+02</totfact>
</mgrwt>
</event>
<event>
 9    1  0.4321150E-036  0.1000120E+04  0.7818608E-02  0.8680924E-01
          1   -1    0    0  501    0  0.00000000000E+00  0.00000000000E+00  0.68337413448E+03  0.68337413448E+03  0.00000000000E+00 0.  1.
         -1   -1    0    0    0  501 -0.00000000000E+00 -0.00000000000E+00 -0.36591931670E+03  0.36591931670E+03  0.00000000000E+00 0.  1.
         36    2    1    2    0    0  0.71054273576E-14 -0.21316282073E-13  0.31745481778E+03  0.10492934512E+04  0.10001195855E+04 0.  0.
         25    2    3    3    0    0  0.52052562549E+02  0.59563135259E+02 -0.60546815967E+02  0.16094142075E+03  0.12640802048E+03 0.  0.
         35    2    3    3    0    0 -0.52052562549E+02 -0.59563135259E+02  0.37800163374E+03  0.88835203042E+03  0.80001678638E+03 0.  0.
         22    1    5    5    0    0  0.26192716748E+03 -0.23898923995E+03  0.38926669724E+03  0.52654559105E+03  0.00000000000E+00 0. -1.
         22    1    5    5    0    0 -0.31397973003E+03  0.17942610469E+03 -0.11265063498E+02  0.36180643937E+03  0.00000000000E+00 0. -1.
          5    1    4    4  502    0  0.77575147275E+02  0.26796443699E+01 -0.60322279650E+02  0.98417231168E+02  0.47000000000E+01 0. -1.
         -5    1    4    4    0  502 -0.25522584726E+02  0.56883490889E+02 -0.22453631783E+00  0.62524189586E+02  0.47000000000E+01 0. -1.
<mgrwt>
<rscale>  0 0.10001196E+04</rscale>
<asrwt>0</asrwt>
<pdfrwt beam="1">  1        1 0.10513448E+00 0.10001196E+04</pdfrwt>
<pdfrwt beam="2">  1       -1 0.56295280E-01 0.10001196E+04</pdfrwt>
<totfact> 0.10395167E+02</totfact>
</mgrwt>
</event>
<event>
 9    1  0.4321150E-036  0.1000225E+04  0.7818608E-02  0.8680824E-01
         -2   -1    0    0    0  501 -0.00000000000E+00  0.00000000000E+00  0.62418173100E+03  0.62418173100E+03  0.00000000000E+00 0. -1.
          2   -1    0    0  501    0  0.00000000000E+00 -0.00000000000E+00 -0.40070431028E+03  0.40070431028E+03  0.00000000000E+00 0. -1.
         36    2    1    2    0    0  0.14210854715E-13  0.00000000000E+00  0.22347742072E+03  0.10248860413E+04  0.10002245948E+04 0.  0.
         25    2    3    3    0    0  0.81160156254E+02 -0.87220130422E+02 -0.31390687726E+02  0.17542384541E+03  0.12487525035E+03 0.  0.
         35    2    3    3    0    0 -0.81160156254E+02  0.87220130422E+02  0.25486810845E+03  0.84946219587E+03  0.80151977355E+03 0.  0.
         22    1    5    5    0    0  0.90800410047E+01 -0.76029153041E+02 -0.27618496833E+03  0.28660254009E+03  0.00000000000E+00 0. -1.
         22    1    5    5    0    0 -0.90240197259E+02  0.16324928346E+03  0.53105307677E+03  0.56285965578E+03  0.00000000000E+00 0. -1.
          5    1    4    4  502    0  0.99082388380E+02 -0.10589268616E+03 -0.33888609803E+02  0.14900036424E+03  0.47000000000E+01 0. -1.
         -5    1    4    4    0  502 -0.17922232126E+02  0.18672555742E+02  0.24979220772E+01  0.26423481168E+02  0.47000000000E+01 0. -1.
<mgrwt>
<rscale>  0 0.10002246E+04</rscale>
<asrwt>0</asrwt>
<pdfrwt beam="1">  1        2 0.61646817E-01 0.10002246E+04</pdfrwt>
<pdfrwt beam="2">  1       -2 0.96027958E-01 0.10002246E+04</pdfrwt>
<totfact> 0.85911151E+01</totfact>
</mgrwt>
</event>
<event>
 9    1  0.4321150E-036  0.9988284E+03  0.7818608E-02  0.8682154E-01
          2   -1    0    0  501    0  0.00000000000E+00  0.00000000000E+00  0.22322629865E+04  0.22322629865E+04  0.00000000000E+00 0.  1.
         -2   -1    0    0    0  501 -0.00000000000E+00 -0.00000000000E+00 -0.11173171180E+03  0.11173171180E+03  0.00000000000E+00 0.  1.
         36    2    1    2    0    0  0.00000000000E+00 -0.14210854715E-13  0.21205312747E+04  0.23439946983E+04  0.99882844309E+03 0.  0.
         25    2    3    3    0    0  0.96452576765E+02 -0.38968914293E+02  0.21534093202E+03  0.27498108000E+03  0.13572472697E+03 0.  0.
         35    2    3    3    0    0 -0.96452576765E+02  0.38968914293E+02  0.19051903427E+04  0.20690136183E+04  0.80015338220E+03 0.  0.
         22    1    5    5    0    0 -0.94040556057E+02 -0.23672937013E+03  0.17156060198E+04  0.17344129946E+04  0.00000000000E+00 0.  1.
         22    1    5    5    0    0 -0.24120207080E+01  0.27569828442E+03  0.18958432293E+03  0.33460062370E+03  0.00000000000E+00 0.  1.
          5    1    4    4  502    0  0.94478825919E+02  0.31227368853E+02  0.11128522157E+03  0.14935825271E+03  0.47000000000E+01 0. -1.
         -5    1    4    4    0  502  0.19737508460E+01 -0.70196283146E+02  0.10405571045E+03  0.12562282730E+03  0.47000000000E+01 0. -1.
<mgrwt>
<rscale>  0 0.99882844E+03</rscale>
<asrwt>0</asrwt>
<pdfrwt beam="1">  1        2 0.34342504E+00 0.99882844E+03</pdfrwt>
<pdfrwt beam="2">  1       -2 0.17189496E-01 0.99882844E+03</pdfrwt>
<totfact> 0.15972622E+02</totfact>
</mgrwt>
</event>
<event>
 9    1  0.4321150E-036  0.1001026E+04  0.7818608E-02  0.8680062E-01
         -2   -1    0    0    0  501 -0.00000000000E+00  0.00000000000E+00  0.16095322665E+03  0.16095322665E+03  0.00000000000E+00 0. -1.
          2   -1    0    0  501    0  0.00000000000E+00 -0.00000000000E+00 -0.15564336832E+04  0.15564336832E+04  0.00000000000E+00 0. -1.
         36    2    1    2    0    0 -0.14210854715E-13  0.00000000000E+00 -0.13954804566E+04  0.17173869099E+04  0.10010255209E+04 0.  0.
         25    2    3    3    0    0 -0.98522652225E+02 -0.18231084764E+02 -0.92209981646E+02  0.18477703846E+03  0.12490311355E+03 0.  0.
         35    2    3    3    0    0  0.98522652225E+02  0.18231084764E+02 -0.13032704749E+04  0.15326098714E+04  0.80021247286E+03 0.  0.
         22    1    5    5    0    0 -0.87040454718E+02  0.24878201892E+03 -0.82056541418E+02  0.27604675272E+03  0.00000000000E+00 0. -1.
         22    1    5    5    0    0  0.18556310694E+03 -0.23055093416E+03 -0.12212139335E+04  0.12565631187E+04  0.00000000000E+00 0. -1.
          5    1    4    4  502    0 -0.19443478161E+02  0.46677396016E+02 -0.64374335275E+01  0.51189439265E+02  0.47000000000E+01 0. -1.
         -5    1    4    4    0  502 -0.79079174064E+02 -0.64908480780E+02 -0.85772548118E+02  0.13358759919E+03  0.47000000000E+01 0. -1.
<mgrwt>
<rscale>  0 0.10010255E+04</rscale>
<asrwt>0</asrwt>
<pdfrwt beam="1">  1        2 0.23945133E+00 0.10010255E+04</pdfrwt>
<pdfrwt beam="2">  1       -2 0.24762035E-01 0.10010255E+04</pdfrwt>
<totfact> 0.20539335E+02</totfact>
</mgrwt>
</event>
<event>
 9    1  0.4321150E-036  0.9999632E+03  0.7818608E-02  0.8681073E-01
         -1   -1    0    0    0  501 -0.00000000000E+00  0.00000000000E+00  0.72620470529E+03  0.72620470529E+03  0.00000000000E+00 0. -1.
          1   -1    0    0  501    0  0.00000000000E+00 -0.00000000000E+00 -0.34423022745E+03  0.34423022745E+03  0.00000000000E+00 0. -1.
         36    2    1    2    0    0 -0.14210854715E-13  0.00000000000E+00  0.38197447784E+03  0.10704349327E+04  0.99996322108E+03 0.  0.
         25    2    3    3    0    0 -0.92179740828E+02  0.39518473575E+02 -0.34039533978E+02  0.16348316843E+03  0.12453610767E+03 0.  0.
         35    2    3    3    0    0  0.92179740828E+02 -0.39518473575E+02  0.41601401181E+03  0.90695176431E+03  0.79964681603E+03 0.  0.
         22    1    5    5    0    0  0.73013908918E+02  0.49183273253E+02  0.65002580288E+03  0.65596003664E+03  0.00000000000E+00 0. -1.
         22    1    5    5    0    0  0.19165831910E+02 -0.88701746828E+02 -0.23401179106E+03  0.25099172767E+03  0.00000000000E+00 0. -1.
          5    1    4    4  502    0 -0.84551632513E+02  0.39421820531E+02  0.30548200171E+02  0.98276859068E+02  0.47000000000E+01 0. -1.
         -5    1    4    4    0  502 -0.76281083154E+01  0.96653044005E-01 -0.64587734148E+02  0.65206309363E+02  0.47000000000E+01 0. -1.
<mgrwt>
<rscale>  0 0.99996322E+03</rscale>
<asrwt>0</asrwt>
<pdfrwt beam="1">  1        1 0.52958497E-01 0.99996322E+03</pdfrwt>
<pdfrwt beam="2">  1       -1 0.11172380E+00 0.99996322E+03</pdfrwt>
<totfact> 0.64770807E+01</totfact>
</mgrwt>
</event>
<event>
 9    1  0.4321150E-036  0.1000380E+04  0.7818608E-02  0.8680676E-01
          2   -1    0    0  501    0  0.00000000000E+00  0.00000000000E+00  0.22158706287E+04  0.22158706287E+04  0.00000000000E+00 0.  1.
         -2   -1    0    0    0  501 -0.00000000000E+00 -0.00000000000E+00 -0.11290829245E+03  0.11290829245E+03  0.00000000000E+00 0.  1.
         36    2    1    2    0    0 -0.14210854715E-13 -0.14210854715E-13  0.21029623362E+04  0.23287789211E+04  0.10003802656E+04 0.  0.
         25    2    3    3    0    0 -0.37270533694E+02  0.12508947982E+03  0.28451052581E+03  0.33788834848E+03  0.12722352809E+03 0.  0.
         35    2    3    3    0    0  0.37270533694E+02 -0.12508947982E+03  0.18184518104E+04  0.19908905726E+04  0.79990112812E+03 0.  0.
         22    1    5    5    0    0 -0.85703387726E+02 -0.40213370945E+03  0.14822631954E+04  0.15382330030E+04  0.00000000000E+00 0.  1.
         22    1    5    5    0    0  0.12297392142E+03  0.27704422963E+03  0.33618861501E+03  0.45265756967E+03  0.00000000000E+00 0.  1.
          5    1    4    4  502    0  0.35453694183E+02  0.46025341119E+02  0.17483694963E+03  0.18429689474E+03  0.47000000000E+01 0.  1.
         -5    1    4    4    0  502 -0.72724227877E+02  0.79064138704E+02  0.10967357618E+03  0.15359145374E+03  0.47000000000E+01 0.  1.
<mgrwt>
<rscale>  0 0.10003803E+04</rscale>
<asrwt>0</asrwt>
<pdfrwt beam="1">  1        2 0.34090314E+00 0.10003803E+04</pdfrwt>
<pdfrwt beam="2">  1       -2 0.17370508E-01 0.10003803E+04</pdfrwt>
<totfact> 0.16039397E+02</totfact>
</mgrwt>
</event>
<event>
 9    1  0.4321150E-036  0.9998080E+03  0.7818608E-02  0.8681221E-01
         -2   -1    0    0    0  501 -0.00000000000E+00  0.00000000000E+00  0.89652918499E+02  0.89652918499E+02  0.00000000000E+00 0. -1.
          2   -1    0    0  501    0  0.00000000000E+00 -0.00000000000E+00 -0.27874609164E+04  0.27874609164E+04  0.00000000000E+00 0. -1.
         36    2    1    2    0    0  0.28421709430E-13  0.35527136788E-14 -0.26978079979E+04  0.28771138349E+04  0.99980799427E+03 0.  0.
         25    2    3    3    0    0 -0.13365750571E+03 -0.30262593744E+02 -0.56971957977E+03  0.59898097635E+03  0.12416785836E+03 0.  0.
         35    2    3    3    0    0  0.13365750571E+03  0.30262593744E+02 -0.21280884181E+04  0.22781328585E+04  0.80146668824E+03 0.  0.
         22    1    5    5    0    0  0.36524911582E+03 -0.79357968839E+02 -0.18957760880E+04  0.19322710937E+04  0.00000000000E+00 0.  1.
         22    1    5    5    0    0 -0.23159161011E+03  0.10962056258E+03 -0.23231233007E+03  0.34586176475E+03  0.00000000000E+00 0.  1.
          5    1    4    4  502    0 -0.15616420310E+03 -0.14506822914E+02 -0.47491731615E+03  0.50016622579E+03  0.47000000000E+01 0. -1.
         -5    1    4    4    0  502  0.22506697394E+02 -0.15755770830E+02 -0.94802263615E+02  0.98814750561E+02  0.47000000000E+01 0. -1.
<mgrwt>
<rscale>  0 0.99980799E+03</rscale>
<asrwt>0</asrwt>
<pdfrwt beam="1">  1        2 0.42884015E+00 0.99980799E+03</pdfrwt>
<pdfrwt beam="2">  1       -2 0.13792756E-01 0.99980799E+03</pdfrwt>
<totfact> 0.10600157E+02</totfact>
</mgrwt>
</event>
<event>
 9    1  0.4321150E-036  0.9999441E+03  0.7818608E-02  0.8681091E-01
          2   -1    0    0  501    0  0.00000000000E+00  0.00000000000E+00  0.91564165824E+03  0.91564165824E+03  0.00000000000E+00 0. -1.
         -2   -1    0    0    0  501 -0.00000000000E+00 -0.00000000000E+00 -0.27300202930E+03  0.27300202930E+03  0.00000000000E+00 0. -1.
         36    2    1    2    0    0  0.14210854715E-13  0.35527136788E-14  0.64263962893E+03  0.11886436875E+04  0.99994406006E+03 0.  0.
         25    2    3    3    0    0 -0.81133520687E+02  0.17497220661E+02 -0.15405517173E+02  0.15012838726E+03  0.12414669465E+03 0.  0.
         35    2    3    3    0    0  0.81133520687E+02 -0.17497220661E+02  0.65804514611E+03  0.10385153003E+04  0.79912565575E+03 0.  0.
         22    1    5    5    0    0  0.40679178114E+03 -0.15880665933E+03  0.27401269881E+03  0.51554055840E+03  0.00000000000E+00 0.  1.
         22    1    5    5    0    0 -0.32565826045E+03  0.14130943867E+03  0.38403244730E+03  0.52297474187E+03  0.00000000000E+00 0.  1.
          5    1    4    4  502    0  0.16430911177E+01  0.81465148797E+01  0.45714815101E+02  0.46701175283E+02  0.47000000000E+01 0.  1.
         -5    1    4    4    0  502 -0.82776611805E+02  0.93507057811E+01 -0.61120332274E+02  0.10342721198E+03  0.47000000000E+01 0.  1.
<mgrwt>
<rscale>  0 0.99994406E+03</rscale>
<asrwt>0</asrwt>
<pdfrwt beam="1">  1        2 0.14086795E+00 0.99994406E+03</pdfrwt>
<pdfrwt beam="2">  1       -2 0.42000313E-01 0.99994406E+03</pdfrwt>
<totfact> 0.18597465E+02</totfact>
</mgrwt>
</event>
<event>
 9    1  0.4321150E-036  0.1001375E+04  0.7818608E-02  0.8679730E-01
         -2   -1    0    0    0  501 -0.00000000000E+00  0.00000000000E+00  0.49147235656E+03  0.49147235656E+03  0.00000000000E+00 0. -1.
          2   -1    0    0  501    0  0.00000000000E+00 -0.00000000000E+00 -0.51007495713E+03  0.51007495713E+03  0.00000000000E+00 0. -1.
         36    2    1    2    0    0  0.00000000000E+00  0.71054273576E-14 -0.18602600569E+02  0.10015473137E+04  0.10013745377E+04 0.  0.
         25    2    3    3    0    0 -0.12553642306E+03  0.34935289314E+02 -0.58618278506E+02  0.18970721254E+03  0.12479124953E+03 0.  0.
         35    2    3    3    0    0  0.12553642306E+03 -0.34935289314E+02  0.40015677936E+02  0.81184010115E+03  0.80031445532E+03 0.  0.
         22    1    5    5    0    0  0.45989300133E+03 -0.22710321853E+02  0.10187761758E+03  0.47158920720E+03  0.00000000000E+00 0. -1.
         22    1    5    5    0    0 -0.33435657826E+03 -0.12224967461E+02 -0.61861939642E+02  0.34025089395E+03  0.00000000000E+00 0. -1.
          5    1    4    4  502    0 -0.45387627959E+02 -0.46940301970E+02 -0.26486583767E+02  0.70619103934E+02  0.47000000000E+01 0.  1.
         -5    1    4    4    0  502 -0.80148795104E+02  0.81875591285E+02 -0.32131694739E+02  0.11908810861E+03  0.47000000000E+01 0.  1.
<mgrwt>
<rscale>  0 0.10013745E+04</rscale>
<asrwt>0</asrwt>
<pdfrwt beam="1">  1        2 0.78473071E-01 0.10013745E+04</pdfrwt>
<pdfrwt beam="2">  1       -2 0.75611132E-01 0.10013745E+04</pdfrwt>
<totfact> 0.11395542E+02</totfact>
</mgrwt>
</event>
<event>
 9    1  0.4321150E-036  0.9996818E+03  0.7818608E-02  0.8681341E-01
         -2   -1    0    0    0  501 -0.00000000000E+00  0.00000000000E+00  0.27335518607E+03  0.27335518607E+03  0.00000000000E+00 0.  1.
          2   -1    0    0  501    0  0.00000000000E+00 -0.00000000000E+00 -0.91397911331E+03  0.91397911331E+03  0.00000000000E+00 0.  1.
         36    2    1    2    0    0 -0.42632564146E-13  0.00000000000E+00 -0.64062392725E+03  0.11873342994E+04  0.99968181054E+03 0.  0.
         25    2    3    3    0    0  0.12385222989E+03  0.41979235873E+02 -0.19380791966E+03  0.26185132428E+03  0.11791087826E+03 0.  0.
         35    2    3    3    0    0 -0.12385222989E+03 -0.41979235873E+02 -0.44681600758E+03  0.92548297510E+03  0.79985783829E+03 0.  0.
         22    1    5    5    0    0  0.22400949755E+03 -0.27210099153E+03 -0.35123975146E+03  0.49758272436E+03  0.00000000000E+00 0. -1.
         22    1    5    5    0    0 -0.34786172744E+03  0.23012175566E+03 -0.95576256125E+02  0.42790025073E+03  0.00000000000E+00 0. -1.
          5    1    4    4  502    0  0.27032485759E+02 -0.33954914215E+01  0.11795781019E+02  0.30058527877E+02  0.47000000000E+01 0.  1.
         -5    1    4    4    0  502  0.96819744129E+02  0.45374727295E+02 -0.20560370068E+03  0.23179279640E+03  0.47000000000E+01 0.  1.
<mgrwt>
<rscale>  0 0.99968181E+03</rscale>
<asrwt>0</asrwt>
<pdfrwt beam="1">  1        2 0.14061217E+00 0.99968181E+03</pdfrwt>
<pdfrwt beam="2">  1       -2 0.42054644E-01 0.99968181E+03</pdfrwt>
<totfact> 0.18597604E+02</totfact>
</mgrwt>
</event>
<event>
 9    1  0.4321150E-036  0.1001641E+04  0.7818608E-02  0.8679476E-01
          1   -1    0    0  501    0  0.00000000000E+00  0.00000000000E+00  0.70057073150E+03  0.70057073150E+03  0.00000000000E+00 0.  1.
         -1   -1    0    0    0  501 -0.00000000000E+00 -0.00000000000E+00 -0.35802434979E+03  0.35802434979E+03  0.00000000000E+00 0.  1.
         36    2    1    2    0    0  0.00000000000E+00 -0.28421709430E-13  0.34254638171E+03  0.10585950813E+04  0.10016414141E+04 0.  0.
         25    2    3    3    0    0  0.33533244528E+02 -0.13481517938E+03  0.96040835132E+02  0.20971671315E+03  0.12432878462E+03 0.  0.
         35    2    3    3    0    0 -0.33533244528E+02  0.13481517938E+03  0.24650554658E+03  0.84887836814E+03  0.80033111168E+03 0.  0.
         22    1    5    5    0    0 -0.50187075085E+02  0.43965541892E+03 -0.20940911754E+02  0.44300581450E+03  0.00000000000E+00 0.  1.
         22    1    5    5    0    0  0.16653830557E+02 -0.30484023955E+03  0.26744645833E+03  0.40587255364E+03  0.00000000000E+00 0.  1.
          5    1    4    4  502    0  0.38986487318E+02 -0.41430241497E+02  0.10090074417E+03  0.11592869049E+03  0.47000000000E+01 0.  1.
         -5    1    4    4    0  502 -0.54532427902E+01 -0.93384937879E+02 -0.48599090394E+01  0.93788022665E+02  0.47000000000E+01 0.  1.
<mgrwt>
<rscale>  0 0.10016414E+04</rscale>
<asrwt>0</asrwt>
<pdfrwt beam="1">  1        1 0.10778011E+00 0.10016414E+04</pdfrwt>
<pdfrwt beam="2">  1       -1 0.55080669E-01 0.10016414E+04</pdfrwt>
<totfact> 0.10426940E+02</totfact>
</mgrwt>
</event>
<event>
 9    1  0.4321150E-036  0.1002213E+04  0.7818608E-02  0.8678934E-01
         -1   -1    0    0    0  501 -0.00000000000E+00  0.00000000000E+00  0.29019848560E+03  0.29019848560E+03  0.00000000000E+00 0. -1.
          1   -1    0    0  501    0  0.00000000000E+00 -0.00000000000E+00 -0.86529619180E+03  0.86529619180E+03  0.00000000000E+00 0. -1.
         36    2    1    2    0    0  0.12434497876E-13  0.28421709430E-13 -0.57509770620E+03  0.11554946774E+04  0.10022128406E+04 0.  0.
         25    2    3    3    0    0  0.35694190146E+01 -0.80984550564E+02  0.26465970625E+02  0.15116218485E+03  0.12481314172E+03 0.  0.
         35    2    3    3    0    0 -0.35694190146E+01  0.80984550564E+02 -0.60156367683E+03  0.10043324925E+04  0.80014602425E+03 0.  0.
         22    1    5    5    0    0  0.17734940412E+03  0.23926177160E+03  0.57035598707E+02  0.30323599063E+03  0.00000000000E+00 0. -1.
         22    1    5    5    0    0 -0.18091882314E+03 -0.15827722104E+03 -0.65859927554E+03  0.70109650192E+03  0.00000000000E+00 0. -1.
          5    1    4    4  502    0  0.87133740869E+00 -0.11453551417E+03  0.23736848899E+02  0.11706695192E+03  0.47000000000E+01 0. -1.
         -5    1    4    4    0  502  0.26980816059E+01  0.33550963609E+02  0.27291217260E+01  0.34095232935E+02  0.47000000000E+01 0. -1.
<mgrwt>
<rscale>  0 0.10022128E+04</rscale>
<asrwt>0</asrwt>
<pdfrwt beam="1">  1        1 0.13312249E+00 0.10022128E+04</pdfrwt>
<pdfrwt beam="2">  1       -1 0.44645921E-01 0.10022128E+04</pdfrwt>
<totfact> 0.10939671E+02</totfact>
</mgrwt>
</event>
<event>
 9    1  0.4321150E-036  0.1004993E+04  0.7818608E-02  0.8676298E-01
          2   -1    0    0  501    0  0.00000000000E+00  0.00000000000E+00  0.30227454434E+04  0.30227454434E+04  0.00000000000E+00 0. -1.
         -2   -1    0    0    0  501 -0.00000000000E+00 -0.00000000000E+00 -0.83534238984E+02  0.83534238984E+02  0.00000000000E+00 0. -1.
         36    2    1    2    0    0 -0.14210854715E-13  0.00000000000E+00  0.29392112044E+04  0.31062796824E+04  0.10049930154E+04 0.  0.
         25    2    3    3    0    0 -0.41413585990E+02 -0.89204356544E+01  0.13008489440E+03  0.18498394270E+03  0.12450831309E+03 0.  0.
         35    2    3    3    0    0  0.41413585990E+02  0.89204356544E+01  0.28091263100E+04  0.29212957397E+04  0.80061446015E+03 0.  0.
         22    1    5    5    0    0  0.19281174173E+03 -0.23462961697E+03  0.24142402509E+04  0.24332659974E+04  0.00000000000E+00 0. -1.
         22    1    5    5    0    0 -0.15139815574E+03  0.24355005262E+03  0.39488605910E+03  0.48802974230E+03  0.00000000000E+00 0. -1.
          5    1    4    4  502    0  0.33365923158E+01 -0.56392343936E+02  0.26733292639E+02  0.62673664630E+02  0.47000000000E+01 0.  1.
         -5    1    4    4    0  502 -0.44750178306E+02  0.47471908282E+02  0.10335160176E+03  0.12231027806E+03  0.47000000000E+01 0.  1.
<mgrwt>
<rscale>  0 0.10049930E+04</rscale>
<asrwt>0</asrwt>
<pdfrwt beam="1">  1        2 0.46503768E+00 0.10049930E+04</pdfrwt>
<pdfrwt beam="2">  1       -2 0.12851424E-01 0.10049930E+04</pdfrwt>
<totfact> 0.83568592E+01</totfact>
</mgrwt>
</event>
<event>
 9    1  0.4321150E-036  0.9994613E+03  0.7818608E-02  0.8681551E-01
          2   -1    0    0  501    0  0.00000000000E+00  0.00000000000E+00  0.31851178391E+03  0.31851178391E+03  0.00000000000E+00 0. -1.
         -2   -1    0    0    0  501 -0.00000000000E+00 -0.00000000000E+00 -0.78405485117E+03  0.78405485117E+03  0.00000000000E+00 0. -1.
         36    2    1    2    0    0 -0.35527136788E-14  0.71054273576E-14 -0.46554306726E+03  0.11025666351E+04  0.99946127354E+03 0.  0.
         25    2    3    3    0    0 -0.31735101642E+02 -0.39787124937E+02  0.56308595908E+02  0.14553618574E+03  0.12417725798E+03 0.  0.
         35    2    3    3    0    0  0.31735101642E+02  0.39787124937E+02 -0.52185166317E+03  0.95703044933E+03  0.80061725600E+03 0.  0.
         22    1    5    5    0    0  0.14579782607E+03  0.58480030762E+02  0.18390960937E+03  0.24186703889E+03  0.00000000000E+00 0. -1.
         22    1    5    5    0    0 -0.11406272442E+03 -0.18692905824E+02 -0.70576127253E+03  0.71516341044E+03  0.00000000000E+00 0. -1.
          5    1    4    4  502    0 -0.19927546068E+02 -0.64261446193E+02  0.83142632357E+02  0.10705805843E+03  0.47000000000E+01 0.  1.
         -5    1    4    4    0  502 -0.11807555574E+02  0.24474321255E+02 -0.26834036449E+02  0.38478127315E+02  0.47000000000E+01 0.  1.
<mgrwt>
<rscale>  0 0.99946127E+03</rscale>
<asrwt>0</asrwt>
<pdfrwt beam="1">  1        2 0.49001814E-01 0.99946127E+03</pdfrwt>
<pdfrwt beam="2">  1       -2 0.12062382E+00 0.99946127E+03</pdfrwt>
<totfact> 0.62729663E+01</totfact>
</mgrwt>
</event>
<event>
 9    1  0.4321150E-036  0.1000328E+04  0.7818608E-02  0.8680725E-01
         -2   -1    0    0    0  501 -0.00000000000E+00  0.00000000000E+00  0.10069601408E+03  0.10069601408E+03  0.00000000000E+00 0. -1.
          2   -1    0    0  501    0  0.00000000000E+00 -0.00000000000E+00 -0.24843500416E+04  0.24843500416E+04  0.00000000000E+00 0. -1.
         36    2    1    2    0    0  0.00000000000E+00  0.00000000000E+00 -0.23836540275E+04  0.25850460556E+04  0.10003282396E+04 0.  0.
         25    2    3    3    0    0 -0.83295344175E+02 -0.59446520831E+02 -0.69550375794E+03  0.71432599457E+03  0.12674441213E+03 0.  0.
         35    2    3    3    0    0  0.83295344175E+02  0.59446520831E+02 -0.16881502695E+04  0.18707200611E+04  0.79954375184E+03 0.  0.
         22    1    5    5    0    0  0.14289000905E+03 -0.33229773282E+03 -0.49209523620E+03  0.61073485197E+03  0.00000000000E+00 0.  1.
         22    1    5    5    0    0 -0.59594664879E+02  0.39174425365E+03 -0.11960550333E+04  0.12599852091E+04  0.00000000000E+00 0.  1.
          5    1    4    4  502    0  0.30367212265E+02 -0.20734195951E+01 -0.78930555978E+02  0.84726556148E+02  0.47000000000E+01 0. -1.
         -5    1    4    4    0  502 -0.11366255644E+03 -0.57373101236E+02 -0.61657320196E+03  0.62959943842E+03  0.47000000000E+01 0. -1.
<mgrwt>
<rscale>  0 0.10003282E+04</rscale>
<asrwt>0</asrwt>
<pdfrwt beam="1">  1        2 0.38220766E+00 0.10003282E+04</pdfrwt>
<pdfrwt beam="2">  1       -2 0.15491696E-01 0.10003282E+04</pdfrwt>
<totfact> 0.13483461E+02</totfact>
</mgrwt>
</event>
<event>
 9    1  0.4321150E-036  0.1001225E+04  0.7818608E-02  0.8679872E-01
          2   -1    0    0  501    0  0.00000000000E+00  0.00000000000E+00  0.24188336324E+04  0.24188336324E+04  0.00000000000E+00 0.  1.
         -2   -1    0    0    0  501 -0.00000000000E+00 -0.00000000000E+00 -0.10360904268E+03  0.10360904268E+03  0.00000000000E+00 0.  1.
         36    2    1    2    0    0 -0.28421709430E-13 -0.21316282073E-13  0.23152245898E+04  0.25224426751E+04  0.10012253234E+04 0.  0.
         25    2    3    3    0    0  0.12920895197E+03  0.58106146685E+02  0.43265182570E+03  0.47211592409E+03  0.12503825794E+03 0.  0.
         35    2    3    3    0    0 -0.12920895197E+03 -0.58106146685E+02  0.18825727641E+04  0.20503267510E+04  0.79980516157E+03 0.  0.
         22    1    5    5    0    0  0.18809429599E+03  0.26109997162E+03  0.48481472622E+03  0.58189172371E+03  0.00000000000E+00 0. -1.
         22    1    5    5    0    0 -0.31730324796E+03 -0.31920611830E+03  0.13977580378E+04  0.14684350273E+04  0.00000000000E+00 0. -1.
          5    1    4    4  502    0 -0.37224261369E+00 -0.10797242885E+02 -0.31882354604E+01  0.12205484990E+02  0.47000000000E+01 0.  1.
         -5    1    4    4    0  502  0.12958119458E+03  0.68903389570E+02  0.43584006116E+03  0.45991043910E+03  0.47000000000E+01 0.  1.
<mgrwt>
<rscale>  0 0.10012253E+04</rscale>
<asrwt>0</asrwt>
<pdfrwt beam="1">  1        2 0.37212821E+00 0.10012253E+04</pdfrwt>
<pdfrwt beam="2">  1       -2 0.15939855E-01 0.10012253E+04</pdfrwt>
<totfact> 0.14075351E+02</totfact>
</mgrwt>
</event>
<event>
 9    1  0.4321150E-036  0.1000359E+04  0.7818608E-02  0.8680696E-01
          2   -1    0    0  501    0  0.00000000000E+00  0.00000000000E+00  0.47023852842E+03  0.47023852842E+03  0.00000000000E+00 0. -1.
         -2   -1    0    0    0  501 -0.00000000000E+00 -0.00000000000E+00 -0.53202739435E+03  0.53202739435E+03  0.00000000000E+00 0. -1.
         36    2    1    2    0    0  0.00000000000E+00 -0.14210854715E-13 -0.61788865934E+02  0.10022659228E+04  0.10003594934E+04 0.  0.
         25    2    3    3    0    0  0.13368466154E+03 -0.20719174519E+02 -0.54208132674E+02  0.19206963086E+03  0.12510534972E+03 0.  0.
         35    2    3    3    0    0 -0.13368466154E+03  0.20719174519E+02 -0.75807332600E+01  0.81019629191E+03  0.79878638633E+03 0.  0.
         22    1    5    5    0    0 -0.21643578559E+03 -0.35935239615E+03 -0.30043463334E+02  0.42057247127E+03  0.00000000000E+00 0. -1.
         22    1    5    5    0    0  0.82751124053E+02  0.38007157067E+03  0.22462730074E+02  0.38962382064E+03  0.00000000000E+00 0. -1.
          5    1    4    4  502    0  0.76306090991E+02 -0.67349445822E+02 -0.59163997310E+02  0.11781780830E+03  0.47000000000E+01 0. -1.
         -5    1    4    4    0  502  0.57378570547E+02  0.46630271304E+02  0.49558646360E+01  0.74251822564E+02  0.47000000000E+01 0. -1.
<mgrwt>
<rscale>  0 0.10003595E+04</rscale>
<asrwt>0</asrwt>
<pdfrwt beam="1">  1        2 0.72344389E-01 0.10003595E+04</pdfrwt>
<pdfrwt beam="2">  1       -2 0.81850368E-01 0.10003595E+04</pdfrwt>
<totfact> 0.10441198E+02</totfact>
</mgrwt>
</event>
<event>
 9    1  0.4321150E-036  0.9987878E+03  0.7818608E-02  0.8682193E-01
         -1   -1    0    0    0  501 -0.00000000000E+00  0.00000000000E+00  0.17358445227E+03  0.17358445227E+03  0.00000000000E+00 0. -1.
          1   -1    0    0  501    0  0.00000000000E+00 -0.00000000000E+00 -0.14367314954E+04  0.14367314954E+04  0.00000000000E+00 0. -1.
         36    2    1    2    0    0  0.00000000000E+00  0.00000000000E+00 -0.12631470431E+04  0.16103159476E+04  0.99878776459E+03 0.  0.
         25    2    3    3    0    0 -0.83155153145E+02 -0.68173109895E+02 -0.94546560674E+02  0.19022029251E+03  0.12522921041E+03 0.  0.
         35    2    3    3    0    0  0.83155153145E+02  0.68173109895E+02 -0.11686004824E+04  0.14200956551E+04  0.79967632813E+03 0.  0.
         22    1    5    5    0    0  0.25938120657E+03  0.35064942268E+03 -0.86849974314E+03  0.97186698255E+03  0.00000000000E+00 0. -1.
         22    1    5    5    0    0 -0.17622605342E+03 -0.28247631279E+03 -0.30010073928E+03  0.44822867256E+03  0.00000000000E+00 0. -1.
          5    1    4    4  502    0 -0.93369307025E+02 -0.88939239245E+02 -0.10303626779E+03  0.16512594664E+03  0.47000000000E+01 0. -1.
         -5    1    4    4    0  502  0.10214153880E+02  0.20766129351E+02  0.84897071190E+01  0.25094345870E+02  0.47000000000E+01 0. -1.
<mgrwt>
<rscale>  0 0.99878776E+03</rscale>
<asrwt>0</asrwt>
<pdfrwt beam="1">  1        1 0.22103561E+00 0.99878776E+03</pdfrwt>
<pdfrwt beam="2">  1       -1 0.26705301E-01 0.99878776E+03</pdfrwt>
<totfact> 0.98136645E+01</totfact>
</mgrwt>
</event>
<event>
 9    1  0.4321150E-036  0.1000349E+04  0.7818608E-02  0.8680705E-01
          2   -1    0    0  501    0  0.00000000000E+00  0.00000000000E+00  0.63389642435E+03  0.63389642435E+03  0.00000000000E+00 0.  1.
         -2   -1    0    0    0  501 -0.00000000000E+00 -0.00000000000E+00 -0.39466168455E+03  0.39466168455E+03  0.00000000000E+00 0.  1.
         36    2    1    2    0    0  0.00000000000E+00  0.00000000000E+00  0.23923473979E+03  0.10285581089E+04  0.10003492004E+04 0.  0.
         25    2    3    3    0    0 -0.16517399974E+02 -0.13496330069E+03  0.10809426109E+02  0.18511575685E+03  0.12515223812E+03 0.  0.
         35    2    3    3    0    0  0.16517399974E+02  0.13496330069E+03  0.22842531368E+03  0.84344235205E+03  0.80045547051E+03 0.  0.
         22    1    5    5    0    0 -0.17527125195E+03  0.21803968790E+03 -0.21526504630E+03  0.35298775817E+03  0.00000000000E+00 0.  1.
         22    1    5    5    0    0  0.19178865192E+03 -0.83076387217E+02  0.44369035998E+03  0.49045459388E+03  0.00000000000E+00 0.  1.
          5    1    4    4  502    0  0.15143817892E+02 -0.14800067801E+03 -0.18469081734E+00  0.14884777467E+03  0.47000000000E+01 0.  1.
         -5    1    4    4    0  502 -0.31661217866E+02  0.13037377326E+02  0.10994116926E+02  0.36267982178E+02  0.47000000000E+01 0.  1.
<mgrwt>
<rscale>  0 0.10003492E+04</rscale>
<asrwt>0</asrwt>
<pdfrwt beam="1">  1        2 0.97522527E-01 0.10003492E+04</pdfrwt>
<pdfrwt beam="2">  1       -2 0.60717182E-01 0.10003492E+04</pdfrwt>
<totfact> 0.14171825E+02</totfact>
</mgrwt>
</event>
<event>
 9    1  0.4321150E-036  0.9996409E+03  0.7818608E-02  0.8681380E-01
         -1   -1    0    0    0  501 -0.00000000000E+00  0.00000000000E+00  0.52417145418E+03  0.52417145418E+03  0.00000000000E+00 0.  1.
          1   -1    0    0  501    0  0.00000000000E+00 -0.00000000000E+00 -0.47660066727E+03  0.47660066727E+03  0.00000000000E+00 0.  1.
         36    2    1    2    0    0  0.00000000000E+00  0.14210854715E-13  0.47570786915E+02  0.10007721215E+04  0.99964086516E+03 0.  0.
         25    2    3    3    0    0 -0.77461314561E+02  0.47855798261E+02  0.11314066932E+03  0.19233549645E+03  0.12610194074E+03 0.  0.
         35    2    3    3    0    0  0.77461314561E+02 -0.47855798261E+02 -0.65569882406E+02  0.80843662500E+03  0.80061222479E+03 0.  0.
         22    1    5    5    0    0  0.31068893882E+03 -0.23589220415E+03 -0.24363573987E+03  0.45992512698E+03  0.00000000000E+00 0.  1.
         22    1    5    5    0    0 -0.23322762426E+03  0.18803640589E+03  0.17806585747E+03  0.34851149802E+03  0.00000000000E+00 0.  1.
          5    1    4    4  502    0 -0.14591628655E+02 -0.42509981984E+02  0.28946437261E+02  0.53665635422E+02  0.47000000000E+01 0. -1.
         -5    1    4    4    0  502 -0.62869685905E+02  0.90365780246E+02  0.84194232060E+02  0.13866986103E+03  0.47000000000E+01 0. -1.
<mgrwt>
<rscale>  0 0.99964087E+03</rscale>
<asrwt>0</asrwt>
<pdfrwt beam="1">  1        1 0.73323179E-01 0.99964087E+03</pdfrwt>
<pdfrwt beam="2">  1       -1 0.80641762E-01 0.99964087E+03</pdfrwt>
<totfact> 0.85929647E+01</totfact>
</mgrwt>
</event>
<event>
 9    1  0.4321150E-036  0.1000586E+04  0.7818608E-02  0.8680480E-01
          2   -1    0    0  501    0  0.00000000000E+00  0.00000000000E+00  0.57972036068E+03  0.57972036068E+03  0.00000000000E+00 0. -1.
         -2   -1    0    0    0  501 -0.00000000000E+00 -0.00000000000E+00 -0.43174808290E+03  0.43174808290E+03  0.00000000000E+00 0. -1.
         36    2    1    2    0    0  0.00000000000E+00 -0.71054273576E-14  0.14797227778E+03  0.10114684436E+04  0.10005861369E+04 0.  0.
         25    2    3    3    0    0 -0.11888660056E+03  0.36392127384E+02  0.95089954384E+02  0.20051619142E+03  0.12532451025E+03 0.  0.
         35    2    3    3    0    0  0.11888660056E+03 -0.36392127384E+02  0.52882323394E+02  0.81095225216E+03  0.79961778646E+03 0.  0.
         22    1    5    5    0    0 -0.18712166282E+03  0.26290326707E+03 -0.12681751612E+03  0.34672081987E+03  0.00000000000E+00 0.  1.
         22    1    5    5    0    0  0.30600826338E+03 -0.29929539446E+03  0.17969983952E+03  0.46423143229E+03  0.00000000000E+00 0.  1.
          5    1    4    4  502    0 -0.34526168418E+01 -0.26906459201E+02  0.57137199639E+02  0.63424188543E+02  0.47000000000E+01 0. -1.
         -5    1    4    4    0  502 -0.11543398372E+03  0.63298586585E+02  0.37952754746E+02  0.13709200288E+03  0.47000000000E+01 0. -1.
<mgrwt>
<rscale>  0 0.10005861E+04</rscale>
<asrwt>0</asrwt>
<pdfrwt beam="1">  1        2 0.89187748E-01 0.10005861E+04</pdfrwt>
<pdfrwt beam="2">  1       -2 0.66422782E-01 0.10005861E+04</pdfrwt>
<totfact> 0.13031891E+02</totfact>
</mgrwt>
</event>
<event>
 9    1 -0.4321150E-036  0.1000264E+04  0.7818608E-02  0.8680787E-01
          1   -1    0    0  501    0  0.00000000000E+00  0.00000000000E+00  0.64577337483E+02  0.64577337483E+02  0.00000000000E+00 0.  1.
         -1   -1    0    0    0  501 -0.00000000000E+00 -0.00000000000E+00 -0.38733718038E+04  0.38733718038E+04  0.00000000000E+00 0.  1.
         36    2    1    2    0    0  0.28421709430E-13 -0.71054273576E-14 -0.38087944663E+04  0.39379491413E+04  0.10002640415E+04 0.  0.
         25    2    3    3    0    0  0.13829085756E+03 -0.24761286903E+02 -0.75523576795E+03  0.77814352151E+03  0.12405157101E+03 0.  0.
         35    2    3    3    0    0 -0.13829085756E+03  0.24761286903E+02 -0.30535586984E+04  0.31598056198E+04  0.80025830064E+03 0.  0.
         22    1    5    5    0    0 -0.37349181214E+03  0.15813960033E+03 -0.87383046444E+03  0.96337113695E+03  0.00000000000E+00 0. -1.
         22    1    5    5    0    0  0.23520095458E+03 -0.13337831343E+03 -0.21797282339E+04  0.21964344828E+04  0.00000000000E+00 0. -1.
          5    1    4    4  502    0  0.35539787049E+02  0.43984844136E+02 -0.14958457378E+03  0.15998555463E+03  0.47000000000E+01 0.  1.
         -5    1    4    4    0  502  0.10275107051E+03 -0.68746131039E+02 -0.60565119417E+03  0.61815796689E+03  0.47000000000E+01 0.  1.
<mgrwt>
<rscale>  0 0.10002640E+04</rscale>
<asrwt>0</asrwt>
<pdfrwt beam="1">  1        1 0.99349744E-02 0.10002640E+04</pdfrwt>
<pdfrwt beam="2">  1       -1 0.59590339E+00 0.10002640E+04</pdfrwt>
<totfact>-0.20171518E+00</totfact>
</mgrwt>
</event>
<event>
 9    1  0.4321150E-036  0.9996870E+03  0.7818608E-02  0.8681336E-01
          1   -1    0    0  501    0  0.00000000000E+00  0.00000000000E+00  0.96085148397E+03  0.96085148397E+03  0.00000000000E+00 0. -1.
         -1   -1    0    0    0  501 -0.00000000000E+00 -0.00000000000E+00 -0.26002302225E+03  0.26002302225E+03  0.00000000000E+00 0. -1.
         36    2    1    2    0    0  0.14210854715E-13 -0.14210854715E-13  0.70082846172E+03  0.12208745062E+04  0.99968696458E+03 0.  0.
         25    2    3    3    0    0 -0.90445818419E+02  0.68839196941E+02  0.23307034046E+03  0.28747799149E+03  0.12410693327E+03 0.  0.
         35    2    3    3    0    0  0.90445818419E+02 -0.68839196941E+02  0.46775812126E+03  0.93339651472E+03  0.79969501223E+03 0.  0.
         22    1    5    5    0    0  0.35262355759E+03 -0.25069921792E+01 -0.43214072623E+02  0.35527048069E+03  0.00000000000E+00 0. -1.
         22    1    5    5    0    0 -0.26217773917E+03 -0.66332204762E+02  0.51097219389E+03  0.57812603404E+03  0.00000000000E+00 0. -1.
          5    1    4    4  502    0 -0.12052553666E+03  0.43430743705E+02  0.18650686049E+03  0.22631732920E+03  0.47000000000E+01 0.  1.
         -5    1    4    4    0  502  0.30079718241E+02  0.25408453236E+02  0.46563479961E+02  0.61160662288E+02  0.47000000000E+01 0.  1.
<mgrwt>
<rscale>  0 0.99968696E+03</rscale>
<asrwt>0</asrwt>
<pdfrwt beam="1">  1        1 0.14782330E+00 0.99968696E+03</pdfrwt>
<pdfrwt beam="2">  1       -1 0.40003542E-01 0.99968696E+03</pdfrwt>
<totfact> 0.11109457E+02</totfact>
</mgrwt>
</event>
<event>
 9    1  0.4321150E-036  0.1000026E+04  0.7818608E-02  0.8681013E-01
          2   -1    0    0  501    0  0.00000000000E+00  0.00000000000E+00  0.62704035082E+03  0.62704035082E+03  0.00000000000E+00 0. -1.
         -2   -1    0    0    0  501 -0.00000000000E+00 -0.00000000000E+00 -0.39871914571E+03  0.39871914571E+03  0.00000000000E+00 0. -1.
         36    2    1    2    0    0  0.14210854715E-13 -0.28421709430E-13  0.22832120511E+03  0.10257594965E+04  0.10000259857E+04 0.  0.
         25    2    3    3    0    0  0.10222658407E+03  0.40973611989E+02 -0.45433293296E+02  0.17229744592E+03  0.12447133951E+03 0.  0.
         35    2    3    3    0    0 -0.10222658407E+03 -0.40973611989E+02  0.27375449840E+03  0.85346205061E+03  0.80082884256E+03 0.  0.
         22    1    5    5    0    0  0.31479603408E+03 -0.18071206395E+03  0.74150098753E+02  0.37047487131E+03  0.00000000000E+00 0. -1.
         22    1    5    5    0    0 -0.41702261815E+03  0.13973845196E+03  0.19960439965E+03  0.48298717930E+03  0.00000000000E+00 0. -1.
          5    1    4    4  502    0  0.48705247301E+01 -0.27800502068E+02 -0.44618207522E+02  0.53004380657E+02  0.47000000000E+01 0. -1.
         -5    1    4    4    0  502  0.97356059343E+02  0.68774114057E+02 -0.81508577409E+00  0.11929306526E+03  0.47000000000E+01 0. -1.
<mgrwt>
<rscale>  0 0.10000260E+04</rscale>
<asrwt>0</asrwt>
<pdfrwt beam="1">  1        2 0.96467746E-01 0.10000260E+04</pdfrwt>
<pdfrwt beam="2">  1       -2 0.61341407E-01 0.10000260E+04</pdfrwt>
<totfact> 0.14053555E+02</totfact>
</mgrwt>
</event>
<event>
 9    1  0.4321150E-036  0.9995945E+03  0.7818608E-02  0.8681424E-01
          2   -1    0    0  501    0  0.00000000000E+00  0.00000000000E+00  0.16813407573E+04  0.16813407573E+04  0.00000000000E+00 0. -1.
         -2   -1    0    0    0  501 -0.00000000000E+00 -0.00000000000E+00 -0.14857028247E+03  0.14857028247E+03  0.00000000000E+00 0. -1.
         36    2    1    2    0    0  0.00000000000E+00  0.71054273576E-14  0.15327704748E+04  0.18299110397E+04  0.99959446025E+03 0.  0.
         25    2    3    3    0    0 -0.13367847673E+03  0.19964512627E+02  0.38460293601E+03  0.42409345795E+03  0.11690733847E+03 0.  0.
         35    2    3    3    0    0  0.13367847673E+03 -0.19964512627E+02  0.11481675388E+04  0.14058175818E+04  0.79985364863E+03 0.  0.
         22    1    5    5    0    0 -0.59318706559E+02  0.13393483468E+03  0.11496727199E+04  0.11589670452E+04  0.00000000000E+00 0.  1.
         22    1    5    5    0    0  0.19299718329E+03 -0.15389934731E+03 -0.15051811214E+01  0.24685053662E+03  0.00000000000E+00 0.  1.
          5    1    4    4  502    0 -0.46359269552E+02  0.64805850280E+02  0.18998905540E+03  0.20607501371E+03  0.47000000000E+01 0. -1.
         -5    1    4    4    0  502 -0.87319207177E+02 -0.44841337653E+02  0.19461388061E+03  0.21801844424E+03  0.47000000000E+01 0. -1.
<mgrwt>
<rscale>  0 0.99959446E+03</rscale>
<asrwt>0</asrwt>
<pdfrwt beam="1">  1        2 0.25866780E+00 0.99959446E+03</pdfrwt>
<pdfrwt beam="2">  1       -2 0.22856968E-01 0.99959446E+03</pdfrwt>
<totfact> 0.20113271E+02</totfact>
</mgrwt>
</event>
<event>
 9    1  0.4321150E-036  0.1000160E+04  0.7818608E-02  0.8680886E-01
          2   -1    0    0  501    0  0.00000000000E+00  0.00000000000E+00  0.23734510286E+04  0.23734510286E+04  0.00000000000E+00 0. -1.
         -2   -1    0    0    0  501 -0.00000000000E+00 -0.00000000000E+00 -0.10536551515E+03  0.10536551515E+03  0.00000000000E+00 0. -1.
         36    2    1    2    0    0 -0.71054273576E-14 -0.42632564146E-13  0.22680855134E+04  0.24788165437E+04  0.10001597679E+04 0.  0.
         25    2    3    3    0    0  0.29615186525E+02 -0.11527050456E+03  0.24303921325E+03  0.29821257660E+03  0.12529298930E+03 0.  0.
         35    2    3    3    0    0 -0.29615186525E+02  0.11527050456E+03  0.20250463002E+04  0.21806039671E+04  0.80003549616E+03 0.  0.
         22    1    5    5    0    0 -0.29838908627E+03 -0.19429131959E+03  0.59940164132E+03  0.69718540668E+03  0.00000000000E+00 0. -1.
         22    1    5    5    0    0  0.26877389975E+03  0.30956182415E+03  0.14256446589E+04  0.14834185605E+04  0.00000000000E+00 0. -1.
          5    1    4    4  502    0  0.56827953084E+02 -0.12966490907E+03  0.19761157955E+03  0.24313541755E+03  0.47000000000E+01 0. -1.
         -5    1    4    4    0  502 -0.27212766559E+02  0.14394404509E+02  0.45427633696E+02  0.55077159042E+02  0.47000000000E+01 0. -1.
<mgrwt>
<rscale>  0 0.10001598E+04</rscale>
<asrwt>0</asrwt>
<pdfrwt beam="1">  1        2 0.36514627E+00 0.10001598E+04</pdfrwt>
<pdfrwt beam="2">  1       -2 0.16210081E-01 0.10001598E+04</pdfrwt>
<totfact> 0.14564356E+02</totfact>
</mgrwt>
</event>
<event>
 9    1  0.4321150E-036  0.9995861E+03  0.7818608E-02  0.8681432E-01
         -1   -1    0    0    0  501 -0.00000000000E+00  0.00000000000E+00  0.26121856235E+03  0.26121856235E+03  0.00000000000E+00 0.  1.
          1   -1    0    0  501    0  0.00000000000E+00 -0.00000000000E+00 -0.95626084449E+03  0.95626084449E+03  0.00000000000E+00 0.  1.
         36    2    1    2    0    0  0.14210854715E-13  0.00000000000E+00 -0.69504228214E+03  0.12174794068E+04  0.99958608040E+03 0.  0.
         25    2    3    3    0    0  0.10382304424E+03  0.91766082600E+02 -0.15189982637E+03  0.24106077238E+03  0.12584315753E+03 0.  0.
         35    2    3    3    0    0 -0.10382304424E+03 -0.91766082600E+02 -0.54314245577E+03  0.97641863447E+03  0.79949320450E+03 0.  0.
         22    1    5    5    0    0  0.32340482819E+03 -0.17152447142E+03 -0.17009570496E+03  0.40366307242E+03  0.00000000000E+00 0.  1.
         22    1    5    5    0    0 -0.42722787243E+03  0.79758388819E+02 -0.37304675081E+03  0.57275556205E+03  0.00000000000E+00 0.  1.
          5    1    4    4  502    0  0.77626097009E+02  0.64040226819E+01 -0.18049254320E+02  0.80091747546E+02  0.47000000000E+01 0.  1.
         -5    1    4    4    0  502  0.26196947229E+02  0.85362059918E+02 -0.13385057205E+03  0.16096902483E+03  0.47000000000E+01 0.  1.
<mgrwt>
<rscale>  0 0.99958608E+03</rscale>
<asrwt>0</asrwt>
<pdfrwt beam="1">  1        1 0.14711705E+00 0.99958608E+03</pdfrwt>
<pdfrwt beam="2">  1       -1 0.40187471E-01 0.99958608E+03</pdfrwt>
<totfact> 0.11113818E+02</totfact>
</mgrwt>
</event>
<event>
 9    1  0.4321150E-036  0.1000360E+04  0.7818608E-02  0.8680695E-01
         -2   -1    0    0    0  501 -0.00000000000E+00  0.00000000000E+00  0.28307098148E+03  0.28307098148E+03  0.00000000000E+00 0. -1.
          2   -1    0    0  501    0  0.00000000000E+00 -0.00000000000E+00 -0.88380701650E+03  0.88380701650E+03  0.00000000000E+00 0. -1.
         36    2    1    2    0    0  0.14210854715E-13  0.00000000000E+00 -0.60073603501E+03  0.11668779980E+04  0.10003601743E+04 0.  0.
         25    2    3    3    0    0  0.47410868531E+02 -0.12865505037E+03 -0.14640815376E+03  0.23688595524E+03  0.12601466526E+03 0.  0.
         35    2    3    3    0    0 -0.47410868531E+02  0.12865505037E+03 -0.45432788125E+03  0.92999204274E+03  0.79979463829E+03 0.  0.
         22    1    5    5    0    0 -0.91388272509E+02 -0.31284337260E+03 -0.34175733352E+03  0.47225085193E+03  0.00000000000E+00 0.  1.
         22    1    5    5    0    0  0.43977403978E+02  0.44149842297E+03 -0.11257054773E+03  0.45774119081E+03  0.00000000000E+00 0.  1.
          5    1    4    4  502    0  0.66247643319E+02 -0.38388307548E+02 -0.11714886638E+03  0.14002985144E+03  0.47000000000E+01 0. -1.
         -5    1    4    4    0  502 -0.18836774787E+02 -0.90266742821E+02 -0.29259287380E+02  0.96856103792E+02  0.47000000000E+01 0. -1.
<mgrwt>
<rscale>  0 0.10003602E+04</rscale>
<asrwt>0</asrwt>
<pdfrwt beam="1">  1        2 0.13597031E+00 0.10003602E+04</pdfrwt>
<pdfrwt beam="2">  1       -2 0.43549383E-01 0.10003602E+04</pdfrwt>
<totfact> 0.18194119E+02</totfact>
</mgrwt>
</event>
<event>
 9    1  0.4321150E-036  0.1000461E+04  0.7818608E-02  0.8680599E-01
         -1   -1    0    0    0  501 -0.00000000000E+00  0.00000000000E+00  0.33932592610E+03  0.33932592610E+03  0.00000000000E+00 0. -1.
          1   -1    0    0  501    0  0.00000000000E+00 -0.00000000000E+00 -0.73743452729E+03  0.73743452729E+03  0.00000000000E+00 0. -1.
         36    2    1    2    0    0  0.71054273576E-14 -0.28421709430E-13 -0.39810860119E+03  0.10767604534E+04  0.10004612015E+04 0.  0.
         25    2    3    3    0    0 -0.24396003102E+00  0.14233320038E+03 -0.18858512098E+02  0.19026334608E+03  0.12484269276E+03 0.  0.
         35    2    3    3    0    0  0.24396003102E+00 -0.14233320038E+03 -0.37925008909E+03  0.88649710731E+03  0.78853515568E+03 0.  0.
         22    1    5    5    0    0 -0.38001332156E+03 -0.15873766864E+03 -0.13135137503E+03  0.43227416732E+03  0.00000000000E+00 0. -1.
         22    1    5    5    0    0  0.38025728159E+03  0.16404468260E+02 -0.24789871406E+03  0.45422293999E+03  0.00000000000E+00 0. -1.
          5    1    4    4  502    0 -0.34010233105E+02  0.47824457793E+02  0.42435794336E+02  0.72572455932E+02  0.47000000000E+01 0.  1.
         -5    1    4    4    0  502  0.33766273074E+02  0.94508742588E+02 -0.61294306434E+02  0.11769089015E+03  0.47000000000E+01 0.  1.
<mgrwt>
<rscale>  0 0.10004612E+04</rscale>
<asrwt>0</asrwt>
<pdfrwt beam="1">  1        1 0.11345146E+00 0.10004612E+04</pdfrwt>
<pdfrwt beam="2">  1       -1 0.52203989E-01 0.10004612E+04</pdfrwt>
<totfact> 0.10648396E+02</totfact>
</mgrwt>
</event>
<event>
 9    1  0.4321150E-036  0.9999911E+03  0.7818608E-02  0.8681046E-01
         -1   -1    0    0    0  501 -0.00000000000E+00  0.00000000000E+00  0.56254589566E+02  0.56254589566E+02  0.00000000000E+00 0. -1.
          1   -1    0    0  501    0  0.00000000000E+00 -0.00000000000E+00 -0.44440031014E+04  0.44440031014E+04  0.00000000000E+00 0. -1.
         36    2    1    2    0    0  0.71054273576E-14 -0.14210854715E-13 -0.43877485119E+04  0.45002576910E+04  0.99999114096E+03 0.  0.
         25    2    3    3    0    0 -0.60038164187E+02  0.39888516734E+02 -0.28228782775E+03  0.31713219735E+03  0.12526267590E+03 0.  0.
         35    2    3    3    0    0  0.60038164187E+02 -0.39888516734E+02 -0.41054606841E+04  0.41831254936E+04  0.79908434589E+03 0.  0.
         22    1    5    5    0    0  0.19690923329E+03 -0.81333403455E+02 -0.26507524642E+03  0.34007830706E+03  0.00000000000E+00 0. -1.
         22    1    5    5    0    0 -0.13687106911E+03  0.41444886721E+02 -0.38403854377E+04  0.38430471866E+04  0.00000000000E+00 0. -1.
          5    1    4    4  502    0 -0.10958500421E+02 -0.13584408720E+02  0.65895402757E+01  0.19238943131E+02  0.47000000000E+01 0.  1.
         -5    1    4    4    0  502 -0.49079663766E+02  0.53472925454E+02 -0.28887736803E+03  0.29789325422E+03  0.47000000000E+01 0.  1.
<mgrwt>
<rscale>  0 0.99999114E+03</rscale>
<asrwt>0</asrwt>
<pdfrwt beam="1">  1        1 0.68369271E+00 0.99999114E+03</pdfrwt>
<pdfrwt beam="2">  1       -1 0.86545531E-02 0.99999114E+03</pdfrwt>
<totfact> 0.38627915E+00</totfact>
</mgrwt>
</event>
<event>
 9    1  0.4321150E-036  0.9994083E+03  0.7818608E-02  0.8681602E-01
         -2   -1    0    0    0  501 -0.00000000000E+00  0.00000000000E+00  0.52664974559E+03  0.52664974559E+03  0.00000000000E+00 0.  1.
          2   -1    0    0  501    0  0.00000000000E+00 -0.00000000000E+00 -0.47413719834E+03  0.47413719834E+03  0.00000000000E+00 0.  1.
         36    2    1    2    0    0  0.00000000000E+00  0.28421709430E-13  0.52512547242E+02  0.10007869439E+04  0.99940829470E+03 0.  0.
         25    2    3    3    0    0  0.43986370628E+02  0.95358774051E+02 -0.80232122157E+02  0.18241914757E+03  0.12574360971E+03 0.  0.
         35    2    3    3    0    0 -0.43986370628E+02 -0.95358774051E+02  0.13274466940E+03  0.81836779636E+03  0.80067259618E+03 0.  0.
         22    1    5    5    0    0  0.30263346390E+03 -0.20997771374E+03 -0.10461349345E+03  0.38291204833E+03  0.00000000000E+00 0. -1.
         22    1    5    5    0    0 -0.34661983453E+03  0.11461893969E+03  0.23735816285E+03  0.43545574804E+03  0.00000000000E+00 0. -1.
          5    1    4    4  502    0  0.51235266634E+02  0.12118160864E+03 -0.47773575980E+02  0.14005155973E+03  0.47000000000E+01 0. -1.
         -5    1    4    4    0  502 -0.72488960056E+01 -0.25822834589E+02 -0.32458546177E+02  0.42367587841E+02  0.47000000000E+01 0. -1.
<mgrwt>
<rscale>  0 0.99940829E+03</rscale>
<asrwt>0</asrwt>
<pdfrwt beam="1">  1        2 0.72944184E-01 0.99940829E+03</pdfrwt>
<pdfrwt beam="2">  1       -2 0.81023038E-01 0.99940829E+03</pdfrwt>
<totfact> 0.10590098E+02</totfact>
</mgrwt>
</event>
<event>
 9    1  0.4321150E-036  0.1002753E+04  0.7818608E-02  0.8678420E-01
          2   -1    0    0  501    0  0.00000000000E+00  0.00000000000E+00  0.64790983951E+03  0.64790983951E+03  0.00000000000E+00 0.  1.
         -2   -1    0    0    0  501 -0.00000000000E+00 -0.00000000000E+00 -0.38798380701E+03  0.38798380701E+03  0.00000000000E+00 0.  1.
         36    2    1    2    0    0  0.00000000000E+00 -0.14210854715E-13  0.25992603250E+03  0.10358936465E+04  0.10027532620E+04 0.  0.
         25    2    3    3    0    0  0.98807730101E+02 -0.65539832483E+02 -0.36893551335E+02  0.17604335012E+03  0.12478657709E+03 0.  0.
         35    2    3    3    0    0 -0.98807730101E+02  0.65539832483E+02  0.29681958383E+03  0.85985029640E+03  0.79823695085E+03 0.  0.
         22    1    5    5    0    0 -0.14255468241E+03 -0.28849329620E+03 -0.89514627791E+02  0.33401061064E+03  0.00000000000E+00 0. -1.
         22    1    5    5    0    0  0.43746952309E+02  0.35403312869E+03  0.38633421162E+03  0.52583968576E+03  0.00000000000E+00 0. -1.
          5    1    4    4  502    0  0.63024777547E+01 -0.19581806221E+02 -0.65454585085E+02  0.68771804319E+02  0.47000000000E+01 0. -1.
         -5    1    4    4    0  502  0.92505252346E+02 -0.45958026262E+02  0.28561033750E+02  0.10727154580E+03  0.47000000000E+01 0. -1.
<mgrwt>
<rscale>  0 0.10027533E+04</rscale>
<asrwt>0</asrwt>
<pdfrwt beam="1">  1        2 0.99678437E-01 0.10027533E+04</pdfrwt>
<pdfrwt beam="2">  1       -2 0.59689816E-01 0.10027533E+04</pdfrwt>
<totfact> 0.14303492E+02</totfact>
</mgrwt>
</event>
<event>
 9    1  0.4321150E-036  0.1000026E+04  0.7818608E-02  0.8681013E-01
          2   -1    0    0  501    0  0.00000000000E+00  0.00000000000E+00  0.10748569405E+04  0.10748569405E+04  0.00000000000E+00 0.  1.
         -2   -1    0    0    0  501 -0.00000000000E+00 -0.00000000000E+00 -0.23260141407E+03  0.23260141407E+03  0.00000000000E+00 0.  1.
         36    2    1    2    0    0  0.14210854715E-13  0.00000000000E+00  0.84225552641E+03  0.13074583546E+04  0.10000264882E+04 0.  0.
         25    2    3    3    0    0 -0.30115032689E+02  0.41982697236E+02 -0.12594199032E+02  0.13600495964E+03  0.12517696727E+03 0.  0.
         35    2    3    3    0    0  0.30115032689E+02 -0.41982697236E+02  0.85484972544E+03  0.11714533949E+04  0.79929064883E+03 0.  0.
         22    1    5    5    0    0  0.37629628636E+03 -0.32980846817E+02  0.69286151509E+03  0.78914112203E+03  0.00000000000E+00 0. -1.
         22    1    5    5    0    0 -0.34618125367E+03 -0.90018504184E+01  0.16198821035E+03  0.38231227288E+03  0.00000000000E+00 0. -1.
          5    1    4    4  502    0  0.47589606909E+02  0.22146868915E+01 -0.15893864234E+01  0.47898764838E+02  0.47000000000E+01 0. -1.
         -5    1    4    4    0  502 -0.77704639598E+02  0.39768010344E+02 -0.11004812609E+02  0.88106194802E+02  0.47000000000E+01 0. -1.
<mgrwt>
<rscale>  0 0.10000265E+04</rscale>
<asrwt>0</asrwt>
<pdfrwt beam="1">  1        2 0.16536260E+00 0.10000265E+04</pdfrwt>
<pdfrwt beam="2">  1       -2 0.35784834E-01 0.10000265E+04</pdfrwt>
<totfact> 0.20017008E+02</totfact>
</mgrwt>
</event>
<event>
 9    1  0.4321150E-036  0.1000210E+04  0.7818608E-02  0.8680838E-01
         -3   -1    0    0    0  501 -0.00000000000E+00  0.00000000000E+00  0.13238717092E+03  0.13238717092E+03  0.00000000000E+00 0.  1.
          3   -1    0    0  501    0  0.00000000000E+00 -0.00000000000E+00 -0.18891953528E+04  0.18891953528E+04  0.00000000000E+00 0.  1.
         36    2    1    2    0    0 -0.14210854715E-13 -0.71054273576E-14 -0.17568081818E+04  0.20215825237E+04  0.10002104340E+04 0.  0.
         25    2    3    3    0    0  0.44496494082E+02 -0.12935339871E+00 -0.63508172231E+02  0.14823301758E+03  0.12633204203E+03 0.  0.
         35    2    3    3    0    0 -0.44496494082E+02  0.12935339871E+00 -0.16933000096E+04  0.18733495061E+04  0.80012092509E+03 0.  0.
         22    1    5    5    0    0  0.19515059090E+03  0.88280627372E+02 -0.15792197626E+04  0.15936788512E+04  0.00000000000E+00 0. -1.
         22    1    5    5    0    0 -0.23964708499E+03 -0.88151273974E+02 -0.11408024704E+03  0.27967065489E+03  0.00000000000E+00 0. -1.
          5    1    4    4  502    0 -0.22160282937E+02 -0.32799093409E+02  0.12608374817E+02  0.41808130595E+02  0.47000000000E+01 0. -1.
         -5    1    4    4    0  502  0.66656777019E+02  0.32669740011E+02 -0.76116547047E+02  0.10642488698E+03  0.47000000000E+01 0. -1.
<mgrwt>
<rscale>  0 0.10002104E+04</rscale>
<asrwt>0</asrwt>
<pdfrwt beam="1">  1        3 0.29064544E+00 0.10002104E+04</pdfrwt>
<pdfrwt beam="2">  1       -3 0.20367257E-01 0.10002104E+04</pdfrwt>
<totfact> 0.41931308E+00</totfact>
</mgrwt>
</event>
<event>
 9    1  0.4321150E-036  0.9988544E+03  0.7818608E-02  0.8682130E-01
          2   -1    0    0  501    0  0.00000000000E+00  0.00000000000E+00  0.10603946241E+04  0.10603946241E+04  0.00000000000E+00 0.  1.
         -2   -1    0    0    0  501 -0.00000000000E+00 -0.00000000000E+00 -0.23522143867E+03  0.23522143867E+03  0.00000000000E+00 0.  1.
         36    2    1    2    0    0  0.00000000000E+00  0.88817841970E-14  0.82517318540E+03  0.12956160627E+04  0.99885444190E+03 0.  0.
         25    2    3    3    0    0 -0.10579710977E+03  0.80220116955E+01  0.26826411592E+03  0.31423120038E+03  0.12457218908E+03 0.  0.
         35    2    3    3    0    0  0.10579710977E+03 -0.80220116955E+01  0.55690906947E+03  0.98138486235E+03  0.80106875815E+03 0.  0.
         22    1    5    5    0    0  0.71440400173E+02  0.11198427532E+03 -0.18572248143E+03  0.22833538667E+03  0.00000000000E+00 0. -1.
         22    1    5    5    0    0  0.34356709595E+02 -0.12000628701E+03  0.74263155091E+03  0.75304947568E+03  0.00000000000E+00 0. -1.
          5    1    4    4  502    0 -0.77184534010E+02 -0.15089219678E+02  0.51059887260E+02  0.93884710831E+02  0.47000000000E+01 0.  1.
         -5    1    4    4    0  502 -0.28612575758E+02  0.23111231374E+02  0.21720422866E+03  0.22034648955E+03  0.47000000000E+01 0.  1.
<mgrwt>
<rscale>  0 0.99885444E+03</rscale>
<asrwt>0</asrwt>
<pdfrwt beam="1">  1        2 0.16313763E+00 0.99885444E+03</pdfrwt>
<pdfrwt beam="2">  1       -2 0.36187914E-01 0.99885444E+03</pdfrwt>
<totfact> 0.20005351E+02</totfact>
</mgrwt>
</event>
<event>
 9    1  0.4321150E-036  0.9998476E+03  0.7818608E-02  0.8681183E-01
          2   -1    0    0  501    0  0.00000000000E+00  0.00000000000E+00  0.14834916006E+03  0.14834916006E+03  0.00000000000E+00 0. -1.
         -2   -1    0    0    0  501 -0.00000000000E+00 -0.00000000000E+00 -0.16846998775E+04  0.16846998775E+04  0.00000000000E+00 0. -1.
         36    2    1    2    0    0  0.28421709430E-13 -0.35527136788E-14 -0.15363507175E+04  0.18330490376E+04  0.99984761195E+03 0.  0.
         25    2    3    3    0    0  0.13808901418E+03  0.20756555335E+02 -0.30321230389E+03  0.35645259824E+03  0.12498537169E+03 0.  0.
         35    2    3    3    0    0 -0.13808901418E+03 -0.20756555335E+02 -0.12331384136E+04  0.14765964394E+04  0.80012954402E+03 0.  0.
         22    1    5    5    0    0 -0.21777634043E+03 -0.28742487687E+03 -0.21222331146E+03  0.41842362292E+03  0.00000000000E+00 0. -1.
         22    1    5    5    0    0  0.79687326249E+02  0.26666832153E+03 -0.10209151021E+04  0.10581728164E+04  0.00000000000E+00 0. -1.
          5    1    4    4  502    0  0.13556238964E+03  0.44823356535E+02 -0.29909384507E+03  0.33145967015E+03  0.47000000000E+01 0.  1.
         -5    1    4    4    0  502  0.25266245354E+01 -0.24066801199E+02 -0.41184588185E+01  0.24992928091E+02  0.47000000000E+01 0.  1.
<mgrwt>
<rscale>  0 0.99984761E+03</rscale>
<asrwt>0</asrwt>
<pdfrwt beam="1">  1        2 0.22822946E-01 0.99984761E+03</pdfrwt>
<pdfrwt beam="2">  1       -2 0.25918461E+00 0.99984761E+03</pdfrwt>
<totfact> 0.14732253E+01</totfact>
</mgrwt>
</event>
<event>
 9    1  0.4321150E-036  0.9996910E+03  0.7818608E-02  0.8681332E-01
          1   -1    0    0  501    0  0.00000000000E+00  0.00000000000E+00  0.97615750930E+03  0.97615750930E+03  0.00000000000E+00 0. -1.
         -1   -1    0    0    0  501 -0.00000000000E+00 -0.00000000000E+00 -0.25594797809E+03  0.25594797809E+03  0.00000000000E+00 0. -1.
         36    2    1    2    0    0  0.00000000000E+00  0.00000000000E+00  0.72020953121E+03  0.12321054874E+04  0.99969103388E+03 0.  0.
         25    2    3    3    0    0  0.11775723390E+03  0.51869779019E+01  0.44507566467E+02  0.17861497092E+03  0.12660455556E+03 0.  0.
         35    2    3    3    0    0 -0.11775723390E+03 -0.51869779019E+01  0.67570196474E+03  0.10534905165E+04  0.79960956239E+03 0.  0.
         22    1    5    5    0    0 -0.15487562207E+03  0.92373074877E+02 -0.14176697073E+03  0.22938421320E+03  0.00000000000E+00 0.  1.
         22    1    5    5    0    0  0.37118388171E+02 -0.97560052779E+02  0.81746893547E+03  0.82410630328E+03  0.00000000000E+00 0.  1.
          5    1    4    4  502    0  0.87447000088E+02 -0.46160156711E+02  0.61368760015E+02  0.11647296939E+03  0.47000000000E+01 0. -1.
         -5    1    4    4    0  502  0.30310233814E+02  0.51347134613E+02 -0.16861193548E+02  0.62142001534E+02  0.47000000000E+01 0. -1.
<mgrwt>
<rscale>  0 0.99969103E+03</rscale>
<asrwt>0</asrwt>
<pdfrwt beam="1">  1        1 0.15017808E+00 0.99969103E+03</pdfrwt>
<pdfrwt beam="2">  1       -1 0.39376613E-01 0.99969103E+03</pdfrwt>
<totfact> 0.11106169E+02</totfact>
</mgrwt>
</event>
