<event>
 9    1  0.2094635E-002  0.2841789E+03  0.7818608E-02  0.1093428E+00
         -2   -1    0    0    0  501 -0.00000000000E+00  0.00000000000E+00  0.82975466583E+01  0.82975466583E+01  0.00000000000E+00 0. -1.
          2   -1    0    0  501    0  0.00000000000E+00 -0.00000000000E+00 -0.24331777908E+04  0.24331777908E+04  0.00000000000E+00 0. -1.
         36    2    1    2    0    0  0.35527136788E-14 -0.71054273576E-14 -0.24248802441E+04  0.24414753375E+04  0.28417886091E+03 0.  0.
         25    2    3    3    0    0 -0.20665665152E+02  0.30416618697E+02 -0.17074946331E+04  0.17123810901E+04  0.12393076820E+03 0.  0.
         25    2    3    3    0    0  0.20665665152E+02 -0.30416618697E+02 -0.71738561102E+03  0.72909424732E+03  0.12483615730E+03 0.  0.
          5    1    4    4  502    0 -0.61885559156E+02 -0.18843438614E+02 -0.86581970826E+03  0.86824579171E+03  0.47000000000E+01 0. -1.
         -5    1    4    4    0  502  0.41219894004E+02  0.49260057311E+02 -0.84167492486E+03  0.84413529843E+03  0.47000000000E+01 0. -1.
          5    1    5    5  503    0  0.16288423813E+02  0.13691700427E+02 -0.63541397826E+03  0.63578753462E+03  0.47000000000E+01 0. -1.
         -5    1    5    5    0  503  0.43772413389E+01 -0.44108319124E+02 -0.81971632754E+02  0.93306712695E+02  0.47000000000E+01 0. -1.
<mgrwt>
<rscale>  0 0.28417886E+03</rscale>
<asrwt>0</asrwt>
<pdfrwt beam="1">  1        2 0.37433488E+00 0.28417886E+03</pdfrwt>
<pdfrwt beam="2">  1       -2 0.12765462E-02 0.28417886E+03</pdfrwt>
<totfact> 0.65160469E+03</totfact>
</mgrwt>
</event>
<event>
 9    1  0.2094635E-002  0.2754278E+03  0.7818608E-02  0.1098213E+00
         -1   -1    0    0    0  501 -0.00000000000E+00  0.00000000000E+00  0.28519366090E+02  0.28519366090E+02  0.00000000000E+00 0.  1.
          1   -1    0    0  501    0  0.00000000000E+00 -0.00000000000E+00 -0.66499097044E+03  0.66499097044E+03  0.00000000000E+00 0.  1.
         36    2    1    2    0    0  0.00000000000E+00  0.00000000000E+00 -0.63647160435E+03  0.69351033653E+03  0.27542781946E+03 0.  0.
         25    2    3    3    0    0  0.61036265580E+02 -0.73686471975E+01 -0.25526329992E+03  0.28764488348E+03  0.11747554653E+03 0.  0.
         25    2    3    3    0    0 -0.61036265580E+02  0.73686471975E+01 -0.38120830443E+03  0.40586545305E+03  0.12500908739E+03 0.  0.
          5    1    4    4  502    0  0.52676221219E+02  0.27587280988E+02 -0.24168587153E+03  0.24893772887E+03  0.47000000000E+01 0. -1.
         -5    1    4    4    0  502  0.83600443615E+01 -0.34955928185E+02 -0.13577428383E+02  0.38707154617E+02  0.47000000000E+01 0. -1.
          5    1    5    5  503    0  0.60244439993E+01 -0.46510300624E+02 -0.19619092248E+03  0.20177331353E+03  0.47000000000E+01 0. -1.
         -5    1    5    5    0  503 -0.67060709580E+02  0.53878947822E+02 -0.18501738195E+03  0.20409213951E+03  0.47000000000E+01 0. -1.
<mgrwt>
<rscale>  0 0.27542782E+03</rscale>
<asrwt>0</asrwt>
<pdfrwt beam="1">  1        1 0.10230630E+00 0.27542782E+03</pdfrwt>
<pdfrwt beam="2">  1       -1 0.43875949E-02 0.27542782E+03</pdfrwt>
<totfact> 0.64867753E+03</totfact>
</mgrwt>
</event>
<event>
 9    1  0.2094635E-002  0.2752060E+03  0.7818608E-02  0.1098337E+00
          2   -1    0    0  501    0  0.00000000000E+00  0.00000000000E+00  0.75963662759E+02  0.75963662759E+02  0.00000000000E+00 0.  1.
         -2   -1    0    0    0  501 -0.00000000000E+00 -0.00000000000E+00 -0.24925837170E+03  0.24925837170E+03  0.00000000000E+00 0.  1.
         36    2    1    2    0    0  0.00000000000E+00 -0.35527136788E-14 -0.17329470894E+03  0.32522203446E+03  0.27520595116E+03 0.  0.
         25    2    3    3    0    0  0.65803360978E+02 -0.20324518125E+02 -0.90145812359E+02  0.16456653010E+03  0.11921705830E+03 0.  0.
         25    2    3    3    0    0 -0.65803360978E+02  0.20324518125E+02 -0.83148896584E+02  0.16065550436E+03  0.11896757426E+03 0.  0.
          5    1    4    4  502    0  0.33374412121E+02 -0.67867712440E+02 -0.70706461799E+02  0.10364058817E+03  0.47000000000E+01 0.  1.
         -5    1    4    4    0  502  0.32428948857E+02  0.47543194315E+02 -0.19439350560E+02  0.60925941928E+02  0.47000000000E+01 0.  1.
          5    1    5    5  503    0 -0.89795201651E+02  0.11671147334E+02 -0.95709258388E+02  0.13183985005E+03  0.47000000000E+01 0.  1.
         -5    1    5    5    0  503  0.23991840673E+02  0.86533707913E+01  0.12560361804E+02  0.28815654315E+02  0.47000000000E+01 0.  1.
<mgrwt>
<rscale>  0 0.27520595E+03</rscale>
<asrwt>0</asrwt>
<pdfrwt beam="1">  1        2 0.11686717E-01 0.27520595E+03</pdfrwt>
<pdfrwt beam="2">  1       -2 0.38347442E-01 0.27520595E+03</pdfrwt>
<totfact> 0.33946051E+03</totfact>
</mgrwt>
</event>
<event>
 9    1  0.2094635E-002  0.2751992E+03  0.7818608E-02  0.1098340E+00
          2   -1    0    0  501    0  0.00000000000E+00  0.00000000000E+00  0.10191875572E+04  0.10191875572E+04  0.00000000000E+00 0. -1.
         -2   -1    0    0    0  501 -0.00000000000E+00 -0.00000000000E+00 -0.18577197757E+02  0.18577197757E+02  0.00000000000E+00 0. -1.
         36    2    1    2    0    0  0.00000000000E+00  0.00000000000E+00  0.10006103594E+04  0.10377647549E+04  0.27519919186E+03 0.  0.
         25    2    3    3    0    0  0.40990038531E+01  0.19015941839E+02  0.57415671419E+03  0.59405945284E+03  0.15123588588E+03 0.  0.
         25    2    3    3    0    0 -0.40990038531E+01 -0.19015941839E+02  0.42645364523E+03  0.44370530209E+03  0.12096807720E+03 0.  0.
          5    1    4    4  502    0 -0.31872018310E+02  0.53967568749E+02  0.10624548901E+03  0.12344439219E+03  0.47000000000E+01 0. -1.
         -5    1    4    4    0  502  0.35971022163E+02 -0.34951626910E+02  0.46791122518E+03  0.47061506065E+03  0.47000000000E+01 0. -1.
          5    1    5    5  503    0 -0.19848912360E+02 -0.52878451689E+02  0.98841365709E+02  0.11393777052E+03  0.47000000000E+01 0. -1.
         -5    1    5    5    0  503  0.15749908507E+02  0.33862509850E+02  0.32761227952E+03  0.32976753158E+03  0.47000000000E+01 0. -1.
<mgrwt>
<rscale>  0 0.27519919E+03</rscale>
<asrwt>0</asrwt>
<pdfrwt beam="1">  1        2 0.15679804E+00 0.27519919E+03</pdfrwt>
<pdfrwt beam="2">  1       -2 0.28580312E-02 0.27519919E+03</pdfrwt>
<totfact> 0.11608369E+04</totfact>
</mgrwt>
</event>
<event>
 9    1  0.2094635E-002  0.2744939E+03  0.7818608E-02  0.1098735E+00
          1   -1    0    0  501    0  0.00000000000E+00  0.00000000000E+00  0.25590358389E+02  0.25590358389E+02  0.00000000000E+00 0. -1.
         -1   -1    0    0    0  501 -0.00000000000E+00 -0.00000000000E+00 -0.73608700059E+03  0.73608700059E+03  0.00000000000E+00 0. -1.
         36    2    1    2    0    0  0.71054273576E-14 -0.71054273576E-14 -0.71049664220E+03  0.76167735898E+03  0.27449393546E+03 0.  0.
         25    2    3    3    0    0  0.55463407806E+02 -0.17975842797E+02 -0.36462437607E+03  0.38974960220E+03  0.12471766619E+03 0.  0.
         25    2    3    3    0    0 -0.55463407806E+02  0.17975842797E+02 -0.34587226613E+03  0.37192775678E+03  0.12370655300E+03 0.  0.
          5    1    4    4  502    0  0.64182596746E+02  0.61542039468E+01 -0.75268969801E+02  0.99220903877E+02  0.47000000000E+01 0. -1.
         -5    1    4    4    0  502 -0.87191889398E+01 -0.24130046744E+02 -0.28935540627E+03  0.29052869832E+03  0.47000000000E+01 0. -1.
          5    1    5    5  503    0 -0.34857082889E+02  0.45883309445E+02 -0.32716765562E+03  0.33223645073E+03  0.47000000000E+01 0.  1.
         -5    1    5    5    0  503 -0.20606324917E+02 -0.27907466648E+02 -0.18704610513E+02  0.39691306047E+02  0.47000000000E+01 0.  1.
<mgrwt>
<rscale>  0 0.27449394E+03</rscale>
<asrwt>0</asrwt>
<pdfrwt beam="1">  1        1 0.39369777E-02 0.27449394E+03</pdfrwt>
<pdfrwt beam="2">  1       -1 0.11324417E+00 0.27449394E+03</pdfrwt>
<totfact> 0.17617354E+03</totfact>
</mgrwt>
</event>
<event>
 8    1  0.2094635E-002  0.3011006E+03  0.7818608E-02  0.1084692E+00
         -2   -1    0    0    0  501 -0.00000000000E+00  0.00000000000E+00  0.17063022676E+03  0.17063022676E+03  0.00000000000E+00 0. -1.
          2   -1    0    0  501    0  0.00000000000E+00 -0.00000000000E+00 -0.13283340193E+03  0.13283340193E+03  0.00000000000E+00 0. -1.
         25    2    1    2    0    0  0.19135604127E+02  0.32313553462E+02  0.97477013227E+02  0.16291761895E+03  0.12502017986E+03 0.  0.
         25    2    1    2    0    0 -0.19135604127E+02 -0.32313553462E+02 -0.59680188400E+02  0.14054600974E+03  0.12157762493E+03 0.  0.
          5    1    3    3  502    0 -0.18319780652E+02  0.34076135144E+02  0.11488144169E+03  0.12131213045E+03  0.47000000000E+01 0. -1.
         -5    1    3    3    0  502  0.37455384779E+02 -0.17625816825E+01 -0.17404428461E+02  0.41605488499E+02  0.47000000000E+01 0. -1.
          5    1    4    4  503    0 -0.36910626879E+02 -0.24447737219E+02  0.26677940660E+02  0.51902685379E+02  0.47000000000E+01 0. -1.
         -5    1    4    4    0  503  0.17775022752E+02 -0.78658162427E+01 -0.86358129059E+02  0.88643324360E+02  0.47000000000E+01 0. -1.
<mgrwt>
<rscale>  0 0.30110060E+03</rscale>
<asrwt>0</asrwt>
<pdfrwt beam="1">  1        2 0.20435908E-01 0.30110060E+03</pdfrwt>
<pdfrwt beam="2">  1       -2 0.26250804E-01 0.30110060E+03</pdfrwt>
<totfact> 0.35234274E+03</totfact>
</mgrwt>
</event>
<event>
 9    1  0.2094635E-002  0.2751943E+03  0.7818608E-02  0.1098343E+00
          2   -1    0    0  501    0  0.00000000000E+00  0.00000000000E+00  0.30810296863E+03  0.30810296863E+03  0.00000000000E+00 0.  1.
         -2   -1    0    0    0  501 -0.00000000000E+00 -0.00000000000E+00 -0.61450140394E+02  0.61450140394E+02  0.00000000000E+00 0.  1.
         36    2    1    2    0    0  0.00000000000E+00  0.00000000000E+00  0.24665282823E+03  0.36955310902E+03  0.27519426359E+03 0.  0.
         25    2    3    3    0    0  0.18347193961E+02 -0.34987565199E+02  0.10633753288E+03  0.17089902277E+03  0.12782040462E+03 0.  0.
         25    2    3    3    0    0 -0.18347193961E+02  0.34987565199E+02  0.14031529535E+03  0.19865408625E+03  0.13496041876E+03 0.  0.
          5    1    4    4  502    0  0.98075948716E+01 -0.39140655923E+02 -0.19187970126E+02  0.44927141695E+02  0.47000000000E+01 0.  1.
         -5    1    4    4    0  502  0.85395990897E+01  0.41530907243E+01  0.12552550301E+03  0.12597188107E+03  0.47000000000E+01 0.  1.
          5    1    5    5  503    0 -0.20760196925E+02  0.39879680944E+02  0.16596589317E+03  0.17201204151E+03  0.47000000000E+01 0.  1.
         -5    1    5    5    0  503  0.24130029642E+01 -0.48921157446E+01 -0.25650597819E+02  0.26642044746E+02  0.47000000000E+01 0.  1.
<mgrwt>
<rscale>  0 0.27519426E+03</rscale>
<asrwt>0</asrwt>
<pdfrwt beam="1">  1        2 0.47400456E-01 0.27519426E+03</pdfrwt>
<pdfrwt beam="2">  1       -2 0.94538680E-02 0.27519426E+03</pdfrwt>
<totfact> 0.76524731E+03</totfact>
</mgrwt>
</event>
<event>
 9    1  0.2094635E-002  0.2730840E+03  0.7818608E-02  0.1099527E+00
          2   -1    0    0  501    0  0.00000000000E+00  0.00000000000E+00  0.27724581299E+03  0.27724581299E+03  0.00000000000E+00 0.  1.
         -2   -1    0    0    0  501 -0.00000000000E+00 -0.00000000000E+00 -0.67246186690E+02  0.67246186690E+02  0.00000000000E+00 0.  1.
         36    2    1    2    0    0  0.71054273576E-14  0.17763568394E-14  0.20999962630E+03  0.34449199968E+03  0.27308404347E+03 0.  0.
         25    2    3    3    0    0  0.54448950609E+02 -0.34502818315E+01  0.97304165262E+02  0.16643393094E+03  0.12351340059E+03 0.  0.
         25    2    3    3    0    0 -0.54448950609E+02  0.34502818315E+01  0.11269546104E+03  0.17805806873E+03  0.12660101199E+03 0.  0.
          5    1    4    4  502    0  0.68416168238E+02  0.11048656290E+02  0.26115263312E+01  0.69510826150E+02  0.47000000000E+01 0.  1.
         -5    1    4    4    0  502 -0.13967217629E+02 -0.14498938122E+02  0.94692638931E+02  0.96923104792E+02  0.47000000000E+01 0.  1.
          5    1    5    5  503    0  0.34281106471E+02 -0.22787631178E+02  0.16769732559E+02  0.44696580694E+02  0.47000000000E+01 0.  1.
         -5    1    5    5    0  503 -0.88730057081E+02  0.26237913010E+02  0.95925728477E+02  0.13336148804E+03  0.47000000000E+01 0.  1.
<mgrwt>
<rscale>  0 0.27308404E+03</rscale>
<asrwt>0</asrwt>
<pdfrwt beam="1">  1        2 0.42653201E-01 0.27308404E+03</pdfrwt>
<pdfrwt beam="2">  1       -2 0.10345567E-01 0.27308404E+03</pdfrwt>
<totfact> 0.74267953E+03</totfact>
</mgrwt>
</event>
<event>
 9    1  0.2094635E-002  0.2731227E+03  0.7818608E-02  0.1099506E+00
         -3   -1    0    0    0  501 -0.00000000000E+00  0.00000000000E+00  0.10197367722E+03  0.10197367722E+03  0.00000000000E+00 0. -1.
          3   -1    0    0  501    0  0.00000000000E+00 -0.00000000000E+00 -0.18288051848E+03  0.18288051848E+03  0.00000000000E+00 0. -1.
         36    2    1    2    0    0 -0.71054273576E-14 -0.71054273576E-14 -0.80906841267E+02  0.28485419570E+03  0.27312267545E+03 0.  0.
         25    2    3    3    0    0  0.45109871667E+02  0.47007092929E+02 -0.93137632546E+02  0.13939172207E+03  0.80689939141E+02 0.  0.
         25    2    3    3    0    0 -0.45109871667E+02 -0.47007092929E+02  0.12230791279E+02  0.14546247363E+03  0.12948039107E+03 0.  0.
          5    1    4    4  502    0  0.41359050278E+02  0.18089274018E+02 -0.99334875483E+02  0.10921218046E+03  0.47000000000E+01 0.  1.
         -5    1    4    4    0  502  0.37508213888E+01  0.28917818911E+02  0.61972429373E+01  0.30179541608E+02  0.47000000000E+01 0.  1.
          5    1    5    5  503    0  0.68606730333E+01 -0.73148027003E+02  0.36599741948E+02  0.82215167698E+02  0.47000000000E+01 0. -1.
         -5    1    5    5    0  503 -0.51970544700E+02  0.26140934075E+02 -0.24368950669E+02  0.63247305931E+02  0.47000000000E+01 0. -1.
<mgrwt>
<rscale>  0 0.27312268E+03</rscale>
<asrwt>0</asrwt>
<pdfrwt beam="1">  1        3 0.28135464E-01 0.27312268E+03</pdfrwt>
<pdfrwt beam="2">  1       -3 0.15688258E-01 0.27312268E+03</pdfrwt>
<totfact> 0.10559706E+03</totfact>
</mgrwt>
</event>
<event>
 9    1  0.2094635E-002  0.2747957E+03  0.7818608E-02  0.1098566E+00
         -1   -1    0    0    0  501 -0.00000000000E+00  0.00000000000E+00  0.21332514446E+02  0.21332514446E+02  0.00000000000E+00 0.  1.
          1   -1    0    0  501    0  0.00000000000E+00 -0.00000000000E+00 -0.88494829991E+03  0.88494829991E+03  0.00000000000E+00 0.  1.
         36    2    1    2    0    0 -0.35527136788E-14 -0.35527136788E-14 -0.86361578547E+03  0.90628081436E+03  0.27479572334E+03 0.  0.
         25    2    3    3    0    0  0.28828340634E+02  0.17741051452E+01 -0.38584201023E+03  0.41126091224E+03  0.13938170755E+03 0.  0.
         25    2    3    3    0    0 -0.28828340634E+02 -0.17741051452E+01 -0.47777377523E+03  0.49501990212E+03  0.12626441511E+03 0.  0.
          5    1    4    4  502    0  0.39349045736E+02 -0.28354329252E+02 -0.37651772838E+02  0.61579715699E+02  0.47000000000E+01 0. -1.
         -5    1    4    4    0  502 -0.10520705102E+02  0.30128434397E+02 -0.34819023740E+03  0.34968119654E+03  0.47000000000E+01 0. -1.
          5    1    5    5  503    0 -0.61312673880E+02  0.42106079505E+02 -0.26158981178E+03  0.27199905429E+03  0.47000000000E+01 0.  1.
         -5    1    5    5    0  503  0.32484333246E+02 -0.43880184650E+02 -0.21618396346E+03  0.22302084783E+03  0.47000000000E+01 0.  1.
<mgrwt>
<rscale>  0 0.27479572E+03</rscale>
<asrwt>0</asrwt>
<pdfrwt beam="1">  1        1 0.13614591E+00 0.27479572E+03</pdfrwt>
<pdfrwt beam="2">  1       -1 0.32819249E-02 0.27479572E+03</pdfrwt>
<totfact> 0.64728079E+03</totfact>
</mgrwt>
</event>
<event>
 9    1  0.2094635E-002  0.2753739E+03  0.7818608E-02  0.1098243E+00
          2   -1    0    0  501    0  0.00000000000E+00  0.00000000000E+00  0.48009853910E+03  0.48009853910E+03  0.00000000000E+00 0.  1.
         -2   -1    0    0    0  501 -0.00000000000E+00 -0.00000000000E+00 -0.39487099380E+02  0.39487099380E+02  0.00000000000E+00 0.  1.
         36    2    1    2    0    0 -0.35527136788E-14  0.71054273576E-14  0.44061143972E+03  0.51958563849E+03  0.27537391834E+03 0.  0.
         25    2    3    3    0    0 -0.22227041823E+02 -0.31561869173E+02  0.30429410260E+03  0.33032447213E+03  0.12259348693E+03 0.  0.
         25    2    3    3    0    0  0.22227041823E+02  0.31561869173E+02  0.13631733713E+03  0.18926116636E+03  0.12548776719E+03 0.  0.
          5    1    4    4  502    0 -0.41774896088E+02  0.26542581487E+02  0.57623265994E+02  0.76106381854E+02  0.47000000000E+01 0. -1.
         -5    1    4    4    0  502  0.19547854265E+02 -0.58104450661E+02  0.24667083660E+03  0.25421809027E+03  0.47000000000E+01 0. -1.
          5    1    5    5  503    0  0.13004052089E+02 -0.47140436761E+02  0.71650144597E+02  0.86874388456E+02  0.47000000000E+01 0. -1.
         -5    1    5    5    0  503  0.92229897336E+01  0.78702305934E+02  0.64667192531E+02  0.10238677790E+03  0.47000000000E+01 0. -1.
<mgrwt>
<rscale>  0 0.27537392E+03</rscale>
<asrwt>0</asrwt>
<pdfrwt beam="1">  1        2 0.73861309E-01 0.27537392E+03</pdfrwt>
<pdfrwt beam="2">  1       -2 0.60749387E-02 0.27537392E+03</pdfrwt>
<totfact> 0.94071557E+03</totfact>
</mgrwt>
</event>
<event>
 9    1  0.2094635E-002  0.2757406E+03  0.7818608E-02  0.1098038E+00
         -4   -1    0    0    0  501 -0.00000000000E+00  0.00000000000E+00  0.36006138041E+03  0.36006138041E+03  0.00000000000E+00 0. -1.
          4   -1    0    0  501    0  0.00000000000E+00 -0.00000000000E+00 -0.52791597067E+02  0.52791597067E+02  0.00000000000E+00 0. -1.
         36    2    1    2    0    0 -0.71054273576E-14  0.00000000000E+00  0.30726978334E+03  0.41285297747E+03  0.27574056875E+03 0.  0.
         25    2    3    3    0    0  0.53018797670E+02 -0.16213003428E+02  0.20352613748E+03  0.24074137459E+03  0.11601580244E+03 0.  0.
         25    2    3    3    0    0 -0.53018797670E+02  0.16213003428E+02  0.10374364586E+03  0.17211160288E+03  0.12564157514E+03 0.  0.
          5    1    4    4  502    0 -0.24537668666E+02 -0.99983132928E+01  0.48790678641E+01  0.27348834628E+02  0.47000000000E+01 0. -1.
         -5    1    4    4    0  502  0.77556466337E+02 -0.62146901353E+01  0.19864706962E+03  0.21339253996E+03  0.47000000000E+01 0. -1.
          5    1    5    5  503    0 -0.18635955885E+02 -0.54918954401E+02  0.43950544763E+02  0.72918658718E+02  0.47000000000E+01 0. -1.
         -5    1    5    5    0  503 -0.34382841785E+02  0.71131957829E+02  0.59793101094E+02  0.99192944166E+02  0.47000000000E+01 0. -1.
<mgrwt>
<rscale>  0 0.27574057E+03</rscale>
<asrwt>0</asrwt>
<pdfrwt beam="1">  1        4 0.81217844E-02 0.27574057E+03</pdfrwt>
<pdfrwt beam="2">  1       -4 0.55394057E-01 0.27574057E+03</pdfrwt>
<totfact> 0.63342990E+02</totfact>
</mgrwt>
</event>
<event>
 9    1  0.2094635E-002  0.2739800E+03  0.7818608E-02  0.1099023E+00
         -2   -1    0    0    0  501 -0.00000000000E+00  0.00000000000E+00  0.43319803684E+01  0.43319803684E+01  0.00000000000E+00 0. -1.
          2   -1    0    0  501    0  0.00000000000E+00 -0.00000000000E+00 -0.43320269185E+04  0.43320269185E+04  0.00000000000E+00 0. -1.
         36    2    1    2    0    0  0.35527136788E-14  0.00000000000E+00 -0.43276949382E+04  0.43363588989E+04  0.27397996691E+03 0.  0.
         25    2    3    3    0    0  0.22173025524E+02  0.25720487892E+02 -0.11330301567E+04  0.11405103581E+04  0.12591010442E+03 0.  0.
         25    2    3    3    0    0 -0.22173025524E+02 -0.25720487892E+02 -0.31946647814E+04  0.31958485408E+04  0.80072737061E+02 0.  0.
          5    1    4    4  502    0  0.49566770564E+02  0.55869033253E+01 -0.17945089297E+03  0.18631369038E+03  0.47000000000E+01 0. -1.
         -5    1    4    4    0  502 -0.27393745040E+02  0.20133584566E+02 -0.95357926374E+03  0.95419666774E+03  0.47000000000E+01 0. -1.
          5    1    5    5  503    0 -0.34816963660E+02 -0.15666058815E+02 -0.30446990156E+04  0.30449420080E+04  0.47000000000E+01 0. -1.
         -5    1    5    5    0  503  0.12643938136E+02 -0.10054429077E+02 -0.14996576587E+03  0.15090653282E+03  0.47000000000E+01 0. -1.
<mgrwt>
<rscale>  0 0.27397997E+03</rscale>
<asrwt>0</asrwt>
<pdfrwt beam="1">  1        2 0.66646593E+00 0.27397997E+03</pdfrwt>
<pdfrwt beam="2">  1       -2 0.66645827E-03 0.27397997E+03</pdfrwt>
<totfact> 0.92192481E+02</totfact>
</mgrwt>
</event>
<event>
 9    1  0.2094635E-002  0.2746562E+03  0.7818608E-02  0.1098644E+00
          1   -1    0    0  501    0  0.00000000000E+00  0.00000000000E+00  0.21809638784E+03  0.21809638784E+03  0.00000000000E+00 0.  1.
         -1   -1    0    0    0  501 -0.00000000000E+00 -0.00000000000E+00 -0.86470989375E+02  0.86470989375E+02  0.00000000000E+00 0.  1.
         36    2    1    2    0    0 -0.71054273576E-14  0.71054273576E-14  0.13162539846E+03  0.30456737721E+03  0.27465622466E+03 0.  0.
         25    2    3    3    0    0  0.24639719715E+02 -0.34022628412E+02 -0.15729516620E+02  0.10956982648E+03  0.99967365428E+02 0.  0.
         25    2    3    3    0    0 -0.24639719715E+02  0.34022628412E+02  0.14735491508E+03  0.19499755073E+03  0.12060646235E+03 0.  0.
          5    1    4    4  502    0 -0.16299906566E+02 -0.53763345659E+02 -0.26998964464E+02  0.62507746501E+02  0.47000000000E+01 0.  1.
         -5    1    4    4    0  502  0.40939626281E+02  0.19740717247E+02  0.11269447843E+02  0.47062079982E+02  0.47000000000E+01 0.  1.
          5    1    5    5  503    0 -0.71728891833E+02  0.23101475005E+02  0.66175519485E+02  0.10039921041E+03  0.47000000000E+01 0.  1.
         -5    1    5    5    0  503  0.47089172118E+02  0.10921153406E+02  0.81179395599E+02  0.94598340325E+02  0.47000000000E+01 0.  1.
<mgrwt>
<rscale>  0 0.27465622E+03</rscale>
<asrwt>0</asrwt>
<pdfrwt beam="1">  1        1 0.33553290E-01 0.27465622E+03</pdfrwt>
<pdfrwt beam="2">  1       -1 0.13303229E-01 0.27465622E+03</pdfrwt>
<totfact> 0.50765028E+03</totfact>
</mgrwt>
</event>
<event>
 9    1  0.2094635E-002  0.2746195E+03  0.7818608E-02  0.1098665E+00
         -2   -1    0    0    0  501 -0.00000000000E+00  0.00000000000E+00  0.27116005985E+02  0.27116005985E+02  0.00000000000E+00 0. -1.
          2   -1    0    0  501    0  0.00000000000E+00 -0.00000000000E+00 -0.69530745867E+03  0.69530745867E+03  0.00000000000E+00 0. -1.
         36    2    1    2    0    0  0.71054273576E-14  0.00000000000E+00 -0.66819145269E+03  0.72242346466E+03  0.27461945460E+03 0.  0.
         25    2    3    3    0    0  0.58978808600E+02  0.44028382609E+01 -0.35220382466E+03  0.37735621005E+03  0.12186997295E+03 0.  0.
         25    2    3    3    0    0 -0.58978808600E+02 -0.44028382609E+01 -0.31598762803E+03  0.34506725461E+03  0.12540073481E+03 0.  0.
          5    1    4    4  502    0  0.88676058281E+02  0.13253504902E+02 -0.16782482775E+03  0.19033223982E+03  0.47000000000E+01 0. -1.
         -5    1    4    4    0  502 -0.29697249680E+02 -0.88506666410E+01 -0.18437899691E+03  0.18702397023E+03  0.47000000000E+01 0. -1.
          5    1    5    5  503    0 -0.92006513033E+02 -0.26836331843E+01 -0.15238366771E+03  0.17808782247E+03  0.47000000000E+01 0. -1.
         -5    1    5    5    0  503  0.33027704433E+02 -0.17192050765E+01 -0.16360396032E+03  0.16697943214E+03  0.47000000000E+01 0. -1.
<mgrwt>
<rscale>  0 0.27461945E+03</rscale>
<asrwt>0</asrwt>
<pdfrwt beam="1">  1        2 0.10697039E+00 0.27461945E+03</pdfrwt>
<pdfrwt beam="2">  1       -2 0.41716929E-02 0.27461945E+03</pdfrwt>
<totfact> 0.10861702E+04</totfact>
</mgrwt>
</event>
<event>
 9    1  0.2094635E-002  0.2742191E+03  0.7818608E-02  0.1098889E+00
          2   -1    0    0  501    0  0.00000000000E+00  0.00000000000E+00  0.14286294520E+04  0.14286294520E+04  0.00000000000E+00 0. -1.
         -2   -1    0    0    0  501 -0.00000000000E+00 -0.00000000000E+00 -0.13158786567E+02  0.13158786567E+02  0.00000000000E+00 0. -1.
         36    2    1    2    0    0 -0.71054273576E-14 -0.71054273576E-14  0.14154706654E+04  0.14417882386E+04  0.27421910978E+03 0.  0.
         25    2    3    3    0    0  0.22507439454E+02 -0.39624275887E+02  0.94654290505E+03  0.95569230014E+03  0.12380481972E+03 0.  0.
         25    2    3    3    0    0 -0.22507439454E+02  0.39624275887E+02  0.46892776040E+03  0.48609593844E+03  0.11966348157E+03 0.  0.
          5    1    4    4  502    0  0.60520343543E+02 -0.60923699628E+02  0.54178000749E+03  0.54856364779E+03  0.47000000000E+01 0. -1.
         -5    1    4    4    0  502 -0.38012904089E+02  0.21299423741E+02  0.40476289756E+03  0.40712865236E+03  0.47000000000E+01 0. -1.
          5    1    5    5  503    0 -0.35295545377E+02  0.41573153877E+02  0.46914860599E+03  0.47233103555E+03  0.47000000000E+01 0.  1.
         -5    1    5    5    0  503  0.12788105923E+02 -0.19488779900E+01 -0.22084559135E+00  0.13764902880E+02  0.47000000000E+01 0.  1.
<mgrwt>
<rscale>  0 0.27421911E+03</rscale>
<asrwt>0</asrwt>
<pdfrwt beam="1">  1        2 0.21978902E+00 0.27421911E+03</pdfrwt>
<pdfrwt beam="2">  1       -2 0.20244298E-02 0.27421911E+03</pdfrwt>
<totfact> 0.11318362E+04</totfact>
</mgrwt>
</event>
<event>
 9    1  0.2094635E-002  0.2810751E+03  0.7818608E-02  0.1095103E+00
          1   -1    0    0  501    0  0.00000000000E+00  0.00000000000E+00  0.33622649543E+03  0.33622649543E+03  0.00000000000E+00 0.  1.
         -1   -1    0    0    0  501 -0.00000000000E+00 -0.00000000000E+00 -0.58742535517E+02  0.58742535517E+02  0.00000000000E+00 0.  1.
         36    2    1    2    0    0  0.00000000000E+00  0.00000000000E+00  0.27748395992E+03  0.39496903095E+03  0.28107505652E+03 0.  0.
         25    2    3    3    0    0  0.61182146803E+02 -0.77904067742E+01  0.11232635960E+03  0.17850759102E+03  0.12427310034E+03 0.  0.
         25    2    3    3    0    0 -0.61182146803E+02  0.77904067742E+01  0.16515760032E+03  0.21646143993E+03  0.12559688096E+03 0.  0.
          5    1    4    4  502    0  0.57864072233E+02  0.44952354812E+02  0.99962398895E+02  0.12403038439E+03  0.47000000000E+01 0.  1.
         -5    1    4    4    0  502  0.33180745696E+01 -0.52742761586E+02  0.12363960702E+02  0.54477206636E+02  0.47000000000E+01 0.  1.
          5    1    5    5  503    0 -0.11388195003E+02  0.12297195241E+02 -0.18889135009E+02  0.25686599962E+02  0.47000000000E+01 0.  1.
         -5    1    5    5    0  503 -0.49793951800E+02 -0.45067884667E+01  0.18404673533E+03  0.19077483997E+03  0.47000000000E+01 0.  1.
<mgrwt>
<rscale>  0 0.28107506E+03</rscale>
<asrwt>0</asrwt>
<pdfrwt beam="1">  1        1 0.51727152E-01 0.28107506E+03</pdfrwt>
<pdfrwt beam="2">  1       -1 0.90373134E-02 0.28107506E+03</pdfrwt>
<totfact> 0.53765983E+03</totfact>
</mgrwt>
</event>
<event>
 9    1  0.2094635E-002  0.2748238E+03  0.7818608E-02  0.1098550E+00
         -2   -1    0    0    0  501 -0.00000000000E+00  0.00000000000E+00  0.22400156084E+02  0.22400156084E+02  0.00000000000E+00 0. -1.
          2   -1    0    0  501    0  0.00000000000E+00 -0.00000000000E+00 -0.84294163147E+03  0.84294163147E+03  0.00000000000E+00 0. -1.
         36    2    1    2    0    0  0.00000000000E+00  0.00000000000E+00 -0.82054147538E+03  0.86534178755E+03  0.27482375527E+03 0.  0.
         25    2    3    3    0    0 -0.92933981922E+01 -0.21022554483E+02 -0.23821558734E+03  0.26912849320E+03  0.12310631483E+03 0.  0.
         25    2    3    3    0    0  0.92933981922E+01  0.21022554483E+02 -0.58232588804E+03  0.59621329436E+03  0.12585125123E+03 0.  0.
          5    1    4    4  502    0  0.12601312313E+02 -0.16387736484E+02  0.73971424002E+01  0.22453478456E+02  0.47000000000E+01 0. -1.
         -5    1    4    4    0  502 -0.21894710505E+02 -0.46348179984E+01 -0.24561272974E+03  0.24667501474E+03  0.47000000000E+01 0. -1.
          5    1    5    5  503    0  0.30963609327E+02  0.68617175577E+02 -0.34330917455E+03  0.35149728479E+03  0.47000000000E+01 0. -1.
         -5    1    5    5    0  503 -0.21670211135E+02 -0.47594621095E+02 -0.23901671349E+03  0.24471600956E+03  0.47000000000E+01 0. -1.
<mgrwt>
<rscale>  0 0.27482376E+03</rscale>
<asrwt>0</asrwt>
<pdfrwt beam="1">  1        2 0.12968331E+00 0.27482376E+03</pdfrwt>
<pdfrwt beam="2">  1       -2 0.34461782E-02 0.27482376E+03</pdfrwt>
<totfact> 0.11367941E+04</totfact>
</mgrwt>
</event>
<event>
 9    1  0.2094635E-002  0.2750506E+03  0.7818608E-02  0.1098423E+00
         -2   -1    0    0    0  501 -0.00000000000E+00  0.00000000000E+00  0.14366416439E+02  0.14366416439E+02  0.00000000000E+00 0.  1.
          2   -1    0    0  501    0  0.00000000000E+00 -0.00000000000E+00 -0.13164874780E+04  0.13164874780E+04  0.00000000000E+00 0.  1.
         36    2    1    2    0    0  0.00000000000E+00  0.00000000000E+00 -0.13021210615E+04  0.13308538944E+04  0.27505059422E+03 0.  0.
         25    2    3    3    0    0 -0.25848532412E+02 -0.17089216437E+02 -0.56334631779E+03  0.58070540452E+03  0.13747547099E+03 0.  0.
         25    2    3    3    0    0  0.25848532412E+02  0.17089216437E+02 -0.73877474375E+03  0.75014848990E+03  0.12639005875E+03 0.  0.
          5    1    4    4  502    0 -0.42264745464E+02 -0.28695498560E+02 -0.55663678000E+03  0.55899582753E+03  0.47000000000E+01 0. -1.
         -5    1    4    4    0  502  0.16416213052E+02  0.11606282122E+02 -0.67095377898E+01  0.21709576989E+02  0.47000000000E+01 0. -1.
          5    1    5    5  503    0 -0.28270374916E+02 -0.37825045891E+02 -0.39277427943E+03  0.39563072780E+03  0.47000000000E+01 0.  1.
         -5    1    5    5    0  503  0.54118907328E+02  0.54914262328E+02 -0.34600046432E+03  0.35451776210E+03  0.47000000000E+01 0.  1.
<mgrwt>
<rscale>  0 0.27505059E+03</rscale>
<asrwt>0</asrwt>
<pdfrwt beam="1">  1        2 0.20253653E+00 0.27505059E+03</pdfrwt>
<pdfrwt beam="2">  1       -2 0.22102180E-02 0.27505059E+03</pdfrwt>
<totfact> 0.11450979E+04</totfact>
</mgrwt>
</event>
<event>
 9    1  0.2094635E-002  0.2753873E+03  0.7818608E-02  0.1098235E+00
          2   -1    0    0  501    0  0.00000000000E+00  0.00000000000E+00  0.26723602095E+03  0.26723602095E+03  0.00000000000E+00 0.  1.
         -2   -1    0    0    0  501 -0.00000000000E+00 -0.00000000000E+00 -0.70946807343E+02  0.70946807343E+02  0.00000000000E+00 0.  1.
         36    2    1    2    0    0  0.14210854715E-13  0.00000000000E+00  0.19628921360E+03  0.33818282829E+03  0.27538730903E+03 0.  0.
         25    2    3    3    0    0  0.55231537775E+02 -0.21096787140E+02  0.12193294154E+03  0.18267966594E+03  0.12250967685E+03 0.  0.
         25    2    3    3    0    0 -0.55231537775E+02  0.21096787140E+02  0.74356272061E+02  0.15550316235E+03  0.12311287956E+03 0.  0.
          5    1    4    4  502    0  0.75636108392E+02 -0.45322421694E+02  0.44485129473E+02  0.98873452175E+02  0.47000000000E+01 0. -1.
         -5    1    4    4    0  502 -0.20404570617E+02  0.24225634554E+02  0.77447812070E+02  0.83806213767E+02  0.47000000000E+01 0. -1.
          5    1    5    5  503    0 -0.88942850831E+02 -0.28437102515E+01  0.28451693805E+02  0.93544140823E+02  0.47000000000E+01 0.  1.
         -5    1    5    5    0  503  0.33711313056E+02  0.23940497391E+02  0.45904578256E+02  0.61959021524E+02  0.47000000000E+01 0.  1.
<mgrwt>
<rscale>  0 0.27538731E+03</rscale>
<asrwt>0</asrwt>
<pdfrwt beam="1">  1        2 0.41113234E-01 0.27538731E+03</pdfrwt>
<pdfrwt beam="2">  1       -2 0.10914894E-01 0.27538731E+03</pdfrwt>
<totfact> 0.70951994E+03</totfact>
</mgrwt>
</event>
<event>
 9    1  0.2094635E-002  0.2758959E+03  0.7818608E-02  0.1097952E+00
          1   -1    0    0  501    0  0.00000000000E+00  0.00000000000E+00  0.68477011348E+02  0.68477011348E+02  0.00000000000E+00 0.  1.
         -1   -1    0    0    0  501 -0.00000000000E+00 -0.00000000000E+00 -0.27789819873E+03  0.27789819873E+03  0.00000000000E+00 0.  1.
         36    2    1    2    0    0  0.00000000000E+00  0.71054273576E-14 -0.20942118738E+03  0.34637521008E+03  0.27589590869E+03 0.  0.
         25    2    3    3    0    0 -0.35058756078E+02  0.19763476490E+02 -0.16391437543E+03  0.21001030557E+03  0.12496677396E+03 0.  0.
         25    2    3    3    0    0  0.35058756078E+02 -0.19763476490E+02 -0.45506811957E+02  0.13636490451E+03  0.12208524017E+03 0.  0.
          5    1    4    4  502    0 -0.12915770148E+02 -0.53030306074E+02 -0.61919103868E+02  0.82674638823E+02  0.47000000000E+01 0.  1.
         -5    1    4    4    0  502 -0.22142985930E+02  0.72793782564E+02 -0.10199527156E+03  0.12733566675E+03  0.47000000000E+01 0.  1.
          5    1    5    5  503    0 -0.91693516563E+01  0.38996139785E+02 -0.47914130420E+02  0.62630901492E+02  0.47000000000E+01 0.  1.
         -5    1    5    5    0  503  0.44228107734E+02 -0.58759616274E+02  0.24073184623E+01  0.73734003015E+02  0.47000000000E+01 0.  1.
<mgrwt>
<rscale>  0 0.27589591E+03</rscale>
<asrwt>0</asrwt>
<pdfrwt beam="1">  1        1 0.10534925E-01 0.27589591E+03</pdfrwt>
<pdfrwt beam="2">  1       -1 0.42753569E-01 0.27589591E+03</pdfrwt>
<totfact> 0.32609078E+03</totfact>
</mgrwt>
</event>
<event>
 9    1  0.2094635E-002  0.2749572E+03  0.7818608E-02  0.1098476E+00
          2   -1    0    0  501    0  0.00000000000E+00  0.00000000000E+00  0.30831672663E+02  0.30831672663E+02  0.00000000000E+00 0.  1.
         -2   -1    0    0    0  501 -0.00000000000E+00 -0.00000000000E+00 -0.61301781314E+03  0.61301781314E+03  0.00000000000E+00 0.  1.
         36    2    1    2    0    0  0.71054273576E-14  0.00000000000E+00 -0.58218614048E+03  0.64384948581E+03  0.27495719341E+03 0.  0.
         25    2    3    3    0    0  0.12180165478E+02 -0.57351217757E+02 -0.26446329345E+03  0.29700044242E+03  0.12178222616E+03 0.  0.
         25    2    3    3    0    0 -0.12180165478E+02  0.57351217757E+02 -0.31772284703E+03  0.34684904338E+03  0.12617025307E+03 0.  0.
          5    1    4    4  502    0 -0.42754575529E+02 -0.14588984751E+02 -0.18833227659E+03  0.19373158909E+03  0.47000000000E+01 0. -1.
         -5    1    4    4    0  502  0.54934741007E+02 -0.42762233006E+02 -0.76131016852E+02  0.10326885333E+03  0.47000000000E+01 0. -1.
          5    1    5    5  503    0 -0.43099650534E+02 -0.20920335406E+02 -0.68227170948E+02  0.83500162666E+02  0.47000000000E+01 0. -1.
         -5    1    5    5    0  503  0.30919485056E+02  0.78271553163E+02 -0.24949567608E+03  0.26334888072E+03  0.47000000000E+01 0. -1.
<mgrwt>
<rscale>  0 0.27495719E+03</rscale>
<asrwt>0</asrwt>
<pdfrwt beam="1">  1        2 0.47433344E-02 0.27495719E+03</pdfrwt>
<pdfrwt beam="2">  1       -2 0.94310430E-01 0.27495719E+03</pdfrwt>
<totfact> 0.16546576E+03</totfact>
</mgrwt>
</event>
<event>
 9    1  0.2094635E-002  0.2744121E+03  0.7818608E-02  0.1098781E+00
          1   -1    0    0  501    0  0.00000000000E+00  0.00000000000E+00  0.10575541762E+03  0.10575541762E+03  0.00000000000E+00 0. -1.
         -1   -1    0    0    0  501 -0.00000000000E+00 -0.00000000000E+00 -0.17800982809E+03  0.17800982809E+03  0.00000000000E+00 0. -1.
         36    2    1    2    0    0 -0.35527136788E-14  0.00000000000E+00 -0.72254410470E+02  0.28376524572E+03  0.27441212590E+03 0.  0.
         25    2    3    3    0    0 -0.37425889649E+01  0.50248156714E+01 -0.93829109962E+02  0.15644293345E+03  0.12502493274E+03 0.  0.
         25    2    3    3    0    0  0.37425889649E+01 -0.50248156714E+01  0.21574699492E+02  0.12732231226E+03  0.12532456981E+03 0.  0.
          5    1    4    4  502    0  0.15702936597E+02 -0.29759505342E+02  0.17418341610E+02  0.38179824521E+02  0.47000000000E+01 0. -1.
         -5    1    4    4    0  502 -0.19445525562E+02  0.34784321014E+02 -0.11124745157E+03  0.11826310893E+03  0.47000000000E+01 0. -1.
          5    1    5    5  503    0 -0.54116612605E+02 -0.29651125733E+02  0.48005611835E+01  0.62071993724E+02  0.47000000000E+01 0.  1.
         -5    1    5    5    0  503  0.57859201570E+02  0.24626310062E+02  0.16774138309E+02  0.65250318540E+02  0.47000000000E+01 0.  1.
<mgrwt>
<rscale>  0 0.27441213E+03</rscale>
<asrwt>0</asrwt>
<pdfrwt beam="1">  1        1 0.16270064E-01 0.27441213E+03</pdfrwt>
<pdfrwt beam="2">  1       -1 0.27386127E-01 0.27441213E+03</pdfrwt>
<totfact> 0.39721763E+03</totfact>
</mgrwt>
</event>
<event>
 9    1  0.2094635E-002  0.2749234E+03  0.7818608E-02  0.1098494E+00
          2   -1    0    0  501    0  0.00000000000E+00  0.00000000000E+00  0.19731151598E+04  0.19731151598E+04  0.00000000000E+00 0.  1.
         -2   -1    0    0    0  501 -0.00000000000E+00 -0.00000000000E+00 -0.95765891740E+01  0.95765891740E+01  0.00000000000E+00 0.  1.
         36    2    1    2    0    0  0.00000000000E+00 -0.71054273576E-14  0.19635385706E+04  0.19826917490E+04  0.27492335862E+03 0.  0.
         25    2    3    3    0    0  0.15380664569E+02  0.44903580606E+02  0.11201097411E+04  0.11276522249E+04  0.12124690457E+03 0.  0.
         25    2    3    3    0    0 -0.15380664569E+02 -0.44903580606E+02  0.84342882957E+03  0.85503952410E+03  0.13216467313E+03 0.  0.
          5    1    4    4  502    0  0.60438720789E+02 -0.71161400254E+01  0.55617095254E+03  0.55951022946E+03  0.47000000000E+01 0. -1.
         -5    1    4    4    0  502 -0.45058056220E+02  0.52019720632E+02  0.56393878852E+03  0.56814199542E+03  0.47000000000E+01 0. -1.
          5    1    5    5  503    0 -0.70443310244E+02 -0.12584750674E+02  0.55352650984E+03  0.55815259832E+03  0.47000000000E+01 0.  1.
         -5    1    5    5    0  503  0.55062645675E+02 -0.32318829932E+02  0.28990231973E+03  0.29688692578E+03  0.47000000000E+01 0.  1.
<mgrwt>
<rscale>  0 0.27492336E+03</rscale>
<asrwt>0</asrwt>
<pdfrwt beam="1">  1        2 0.30355586E+00 0.27492336E+03</pdfrwt>
<pdfrwt beam="2">  1       -2 0.14733230E-02 0.27492336E+03</pdfrwt>
<totfact> 0.92965694E+03</totfact>
</mgrwt>
</event>
<event>
 9    1  0.2094635E-002  0.2736974E+03  0.7818608E-02  0.1099182E+00
          4   -1    0    0  501    0  0.00000000000E+00  0.00000000000E+00  0.77134144357E+03  0.77134144357E+03  0.00000000000E+00 0.  1.
         -4   -1    0    0    0  501 -0.00000000000E+00 -0.00000000000E+00 -0.24279216426E+02  0.24279216426E+02  0.00000000000E+00 0.  1.
         36    2    1    2    0    0  0.00000000000E+00 -0.71054273576E-14  0.74706222714E+03  0.79562066000E+03  0.27369739383E+03 0.  0.
         25    2    3    3    0    0  0.53785607323E+01 -0.42056055022E+02  0.19240201050E+03  0.23304735893E+03  0.12447850087E+03 0.  0.
         25    2    3    3    0    0 -0.53785607323E+01  0.42056055022E+02  0.55466021664E+03  0.56257330107E+03  0.83923313034E+02 0.  0.
          5    1    4    4  502    0  0.27271086813E+00 -0.84000456288E+02  0.95767947500E+02  0.12747447115E+03  0.47000000000E+01 0.  1.
         -5    1    4    4    0  502  0.51058498641E+01  0.41944401266E+02  0.96634063002E+02  0.10557288777E+03  0.47000000000E+01 0.  1.
          5    1    5    5  503    0  0.17000069409E+02 -0.19740710521E+02  0.21090575168E+03  0.21256063630E+03  0.47000000000E+01 0. -1.
         -5    1    5    5    0  503 -0.22378630142E+02  0.61796765543E+02  0.34375446496E+03  0.35001266477E+03  0.47000000000E+01 0. -1.
<mgrwt>
<rscale>  0 0.27369739E+03</rscale>
<asrwt>0</asrwt>
<pdfrwt beam="1">  1        4 0.11866790E+00 0.27369739E+03</pdfrwt>
<pdfrwt beam="2">  1       -4 0.37352647E-02 0.27369739E+03</pdfrwt>
<totfact> 0.40553209E+02</totfact>
</mgrwt>
</event>
<event>
 9    1  0.2094635E-002  0.2729757E+03  0.7818608E-02  0.1099589E+00
          1   -1    0    0  501    0  0.00000000000E+00  0.00000000000E+00  0.23266358306E+04  0.23266358306E+04  0.00000000000E+00 0.  1.
         -1   -1    0    0    0  501 -0.00000000000E+00 -0.00000000000E+00 -0.80068094401E+01  0.80068094401E+01  0.00000000000E+00 0.  1.
         36    2    1    2    0    0  0.71054273576E-14  0.00000000000E+00  0.23186290212E+04  0.23346426401E+04  0.27297567461E+03 0.  0.
         25    2    3    3    0    0 -0.21971732797E+02  0.33516429158E+02  0.11647548468E+04  0.11720116240E+04  0.12390030505E+03 0.  0.
         25    2    3    3    0    0  0.21971732797E+02 -0.33516429158E+02  0.11538741743E+04  0.11626310160E+04  0.13667172761E+03 0.  0.
          5    1    4    4  502    0 -0.68104782215E+01 -0.18270302157E+01  0.21251362816E+01  0.87365243220E+01  0.47000000000E+01 0. -1.
         -5    1    4    4    0  502 -0.15161254575E+02  0.35343459374E+02  0.11626297105E+04  0.11632750997E+04  0.47000000000E+01 0. -1.
          5    1    5    5  503    0  0.29208529604E+02 -0.72022193111E+02  0.10224534251E+04  0.10254137853E+04  0.47000000000E+01 0. -1.
         -5    1    5    5    0  503 -0.72367968073E+01  0.38505763952E+02  0.13142074924E+03  0.13721723076E+03  0.47000000000E+01 0. -1.
<mgrwt>
<rscale>  0 0.27297567E+03</rscale>
<asrwt>0</asrwt>
<pdfrwt beam="1">  1        1 0.35794344E+00 0.27297567E+03</pdfrwt>
<pdfrwt beam="2">  1       -1 0.12318187E-02 0.27297567E+03</pdfrwt>
<totfact> 0.28704993E+03</totfact>
</mgrwt>
</event>
<event>
 9    1  0.2094635E-002  0.2754453E+03  0.7818608E-02  0.1098203E+00
          2   -1    0    0  501    0  0.00000000000E+00  0.00000000000E+00  0.23345217641E+04  0.23345217641E+04  0.00000000000E+00 0.  1.
         -2   -1    0    0    0  501 -0.00000000000E+00 -0.00000000000E+00 -0.81248013341E+01  0.81248013341E+01  0.00000000000E+00 0.  1.
         36    2    1    2    0    0  0.14210854715E-13  0.10658141036E-13  0.23263969628E+04  0.23426465654E+04  0.27544527982E+03 0.  0.
         25    2    3    3    0    0  0.39670051643E+02  0.20564569746E+02  0.83819541515E+03  0.84857839678E+03  0.12456776058E+03 0.  0.
         25    2    3    3    0    0 -0.39670051643E+02 -0.20564569746E+02  0.14882015476E+04  0.14940681686E+04  0.12449591052E+03 0.  0.
          5    1    4    4  502    0  0.11995005922E+01  0.46278560847E+02  0.72086758709E+03  0.72236785097E+03  0.47000000000E+01 0. -1.
         -5    1    4    4    0  502  0.38470551051E+02 -0.25713991100E+02  0.11732782806E+03  0.12621054581E+03  0.47000000000E+01 0. -1.
          5    1    5    5  503    0  0.24158266235E-01 -0.57499556261E+02  0.36341132242E+03  0.36796206166E+03  0.47000000000E+01 0.  1.
         -5    1    5    5    0  503 -0.39694209909E+02  0.36934986515E+02  0.11247902252E+04  0.11261061070E+04  0.47000000000E+01 0.  1.
<mgrwt>
<rscale>  0 0.27544528E+03</rscale>
<asrwt>0</asrwt>
<pdfrwt beam="1">  1        2 0.35915666E+00 0.27544528E+03</pdfrwt>
<pdfrwt beam="2">  1       -2 0.12499713E-02 0.27544528E+03</pdfrwt>
<totfact> 0.75987513E+03</totfact>
</mgrwt>
</event>
<event>
 9    1  0.2094635E-002  0.2737354E+03  0.7818608E-02  0.1099161E+00
          1   -1    0    0  501    0  0.00000000000E+00  0.00000000000E+00  0.44593099577E+03  0.44593099577E+03  0.00000000000E+00 0.  1.
         -1   -1    0    0    0  501 -0.00000000000E+00 -0.00000000000E+00 -0.42008215199E+02  0.42008215199E+02  0.00000000000E+00 0.  1.
         36    2    1    2    0    0  0.00000000000E+00  0.35527136788E-14  0.40392278057E+03  0.48793921097E+03  0.27373538488E+03 0.  0.
         25    2    3    3    0    0 -0.47288452385E+02  0.34362225527E+01  0.24294208158E+03  0.27553913514E+03  0.12104938925E+03 0.  0.
         25    2    3    3    0    0  0.47288452385E+02 -0.34362225527E+01  0.16098069899E+03  0.21240007583E+03  0.13019601150E+03 0.  0.
          5    1    4    4  502    0 -0.74101250528E+01 -0.17474764913E+02 -0.75704883474E+01  0.20968539670E+02  0.47000000000E+01 0. -1.
         -5    1    4    4    0  502 -0.39878327333E+02  0.20910987466E+02  0.25051256993E+03  0.25457059547E+03  0.47000000000E+01 0. -1.
          5    1    5    5  503    0 -0.28741353256E+02 -0.43484400284E+02  0.65927563261E+02  0.84175364879E+02  0.47000000000E+01 0.  1.
         -5    1    5    5    0  503  0.76029805642E+02  0.40048177731E+02  0.95053135732E+02  0.12822471095E+03  0.47000000000E+01 0.  1.
<mgrwt>
<rscale>  0 0.27373538E+03</rscale>
<asrwt>0</asrwt>
<pdfrwt beam="1">  1        1 0.68604765E-01 0.27373538E+03</pdfrwt>
<pdfrwt beam="2">  1       -1 0.64628026E-02 0.27373538E+03</pdfrwt>
<totfact> 0.62393365E+03</totfact>
</mgrwt>
</event>
<event>
 9    1  0.2094635E-002  0.2751132E+03  0.7818608E-02  0.1098388E+00
         -1   -1    0    0    0  501 -0.00000000000E+00  0.00000000000E+00  0.85303735630E+01  0.85303735630E+01  0.00000000000E+00 0. -1.
          1   -1    0    0  501    0  0.00000000000E+00 -0.00000000000E+00 -0.22181707426E+04  0.22181707426E+04  0.00000000000E+00 0. -1.
         36    2    1    2    0    0  0.00000000000E+00  0.00000000000E+00 -0.22096403690E+04  0.22267011162E+04  0.27511324985E+03 0.  0.
         25    2    3    3    0    0  0.18642252605E+02  0.38698373162E+02 -0.77359746451E+03  0.78485474364E+03  0.12529498737E+03 0.  0.
         25    2    3    3    0    0 -0.18642252605E+02 -0.38698373162E+02 -0.14360429045E+04  0.14418463725E+04  0.12188781987E+03 0.  0.
          5    1    4    4  502    0 -0.16514006806E+02 -0.41417519020E+02 -0.25990833461E+03  0.26374714349E+03  0.47000000000E+01 0. -1.
         -5    1    4    4    0  502  0.35156259412E+02  0.80115892183E+02 -0.51368912990E+03  0.52110760015E+03  0.47000000000E+01 0. -1.
          5    1    5    5  503    0 -0.89674104659E+01  0.24606452711E+02 -0.10618976911E+04  0.10622309957E+04  0.47000000000E+01 0. -1.
         -5    1    5    5    0  503 -0.96748421395E+01 -0.63304825874E+02 -0.37414521345E+03  0.37961537679E+03  0.47000000000E+01 0. -1.
<mgrwt>
<rscale>  0 0.27511325E+03</rscale>
<asrwt>0</asrwt>
<pdfrwt beam="1">  1        1 0.34125683E+00 0.27511325E+03</pdfrwt>
<pdfrwt beam="2">  1       -1 0.13123659E-02 0.27511325E+03</pdfrwt>
<totfact> 0.30836088E+03</totfact>
</mgrwt>
</event>
<event>
 9    1  0.2094635E-002  0.2759810E+03  0.7818608E-02  0.1097905E+00
          2   -1    0    0  501    0  0.00000000000E+00  0.00000000000E+00  0.48472977344E+03  0.48472977344E+03  0.00000000000E+00 0.  1.
         -2   -1    0    0    0  501 -0.00000000000E+00 -0.00000000000E+00 -0.39282449875E+02  0.39282449875E+02  0.00000000000E+00 0.  1.
         36    2    1    2    0    0  0.00000000000E+00  0.00000000000E+00  0.44544732357E+03  0.52401222332E+03  0.27598096332E+03 0.  0.
         25    2    3    3    0    0  0.54888056002E+02  0.60369589991E+02  0.24974344762E+03  0.29002411074E+03  0.12282104501E+03 0.  0.
         25    2    3    3    0    0 -0.54888056002E+02 -0.60369589991E+02  0.19570387595E+03  0.23398811258E+03  0.98960818902E+02 0.  0.
          5    1    4    4  502    0  0.34974226800E+02 -0.23260387352E+02  0.24421338411E+02  0.48813255677E+02  0.47000000000E+01 0. -1.
         -5    1    4    4    0  502  0.19913829203E+02  0.83629977343E+02  0.22532210921E+03  0.24121085507E+03  0.47000000000E+01 0. -1.
          5    1    5    5  503    0 -0.36989469632E+02 -0.12358463136E+02  0.17359734379E+03  0.17798617993E+03  0.47000000000E+01 0.  1.
         -5    1    5    5    0  503 -0.17898586370E+02 -0.48011126854E+02  0.22106532157E+02  0.56001932644E+02  0.47000000000E+01 0.  1.
<mgrwt>
<rscale>  0 0.27598096E+03</rscale>
<asrwt>0</asrwt>
<pdfrwt beam="1">  1        2 0.74573807E-01 0.27598096E+03</pdfrwt>
<pdfrwt beam="2">  1       -2 0.60434542E-02 0.27598096E+03</pdfrwt>
<totfact> 0.93825620E+03</totfact>
</mgrwt>
</event>
<event>
 9    1  0.2094635E-002  0.2746765E+03  0.7818608E-02  0.1098633E+00
          2   -1    0    0  501    0  0.00000000000E+00  0.00000000000E+00  0.14305888500E+04  0.14305888500E+04  0.00000000000E+00 0. -1.
         -2   -1    0    0    0  501 -0.00000000000E+00 -0.00000000000E+00 -0.13184637782E+02  0.13184637782E+02  0.00000000000E+00 0. -1.
         36    2    1    2    0    0 -0.71054273576E-14  0.71054273576E-14  0.14174042122E+04  0.14437734878E+04  0.27467650648E+03 0.  0.
         25    2    3    3    0    0  0.20612932812E+00 -0.56871904964E+02  0.91480230136E+03  0.92427129419E+03  0.11907862376E+03 0.  0.
         25    2    3    3    0    0 -0.20612932812E+00  0.56871904964E+02  0.50260191089E+03  0.51950219362E+03  0.11848794150E+03 0.  0.
          5    1    4    4  502    0  0.46108135222E+02 -0.47461968345E+02  0.28109620205E+03  0.28881787234E+03  0.47000000000E+01 0.  1.
         -5    1    4    4    0  502 -0.45902005894E+02 -0.94099366198E+01  0.63370609930E+03  0.63545342185E+03  0.47000000000E+01 0.  1.
          5    1    5    5  503    0 -0.34484090105E+02 -0.23156986087E+02  0.21288204586E+03  0.21694758336E+03  0.47000000000E+01 0.  1.
         -5    1    5    5    0  503  0.34277960777E+02  0.80028891051E+02  0.28971986503E+03  0.30255461026E+03  0.47000000000E+01 0.  1.
<mgrwt>
<rscale>  0 0.27467651E+03</rscale>
<asrwt>0</asrwt>
<pdfrwt beam="1">  1        2 0.22009047E+00 0.27467651E+03</pdfrwt>
<pdfrwt beam="2">  1       -2 0.20284069E-02 0.27467651E+03</pdfrwt>
<totfact> 0.11258657E+04</totfact>
</mgrwt>
</event>
<event>
 9    1  0.2094635E-002  0.2744612E+03  0.7818608E-02  0.1098753E+00
          1   -1    0    0  501    0  0.00000000000E+00  0.00000000000E+00  0.84660320627E+03  0.84660320627E+03  0.00000000000E+00 0. -1.
         -1   -1    0    0    0  501 -0.00000000000E+00 -0.00000000000E+00 -0.22244464083E+02  0.22244464083E+02  0.00000000000E+00 0. -1.
         36    2    1    2    0    0  0.35527136788E-14  0.71054273576E-14  0.82435874219E+03  0.86884767036E+03  0.27446117842E+03 0.  0.
         25    2    3    3    0    0  0.31432512997E+02  0.49710821628E+02  0.43887340943E+03  0.45987286756E+03  0.12415319628E+03 0.  0.
         25    2    3    3    0    0 -0.31432512997E+02 -0.49710821628E+02  0.38548533276E+03  0.40897480280E+03  0.12329752185E+03 0.  0.
          5    1    4    4  502    0 -0.36180852089E+01  0.63136941488E+02  0.40226181493E+03  0.40722969154E+03  0.47000000000E+01 0. -1.
         -5    1    4    4    0  502  0.35050598206E+02 -0.13426119860E+02  0.36611594503E+02  0.52643176017E+02  0.47000000000E+01 0. -1.
          5    1    5    5  503    0 -0.31616906404E+02  0.36642153701E+02  0.11086930101E+03  0.12106348791E+03  0.47000000000E+01 0.  1.
         -5    1    5    5    0  503  0.18439340657E+00 -0.86352975329E+02  0.27461603175E+03  0.28791131489E+03  0.47000000000E+01 0.  1.
<mgrwt>
<rscale>  0 0.27446118E+03</rscale>
<asrwt>0</asrwt>
<pdfrwt beam="1">  1        1 0.13024662E+00 0.27446118E+03</pdfrwt>
<pdfrwt beam="2">  1       -1 0.34222259E-02 0.27446118E+03</pdfrwt>
<totfact> 0.65297301E+03</totfact>
</mgrwt>
</event>
<event>
 9    1  0.2094635E-002  0.2753048E+03  0.7818608E-02  0.1098281E+00
         -1   -1    0    0    0  501 -0.00000000000E+00  0.00000000000E+00  0.14225407704E+02  0.14225407704E+02  0.00000000000E+00 0.  1.
          1   -1    0    0  501    0  0.00000000000E+00 -0.00000000000E+00 -0.13319962015E+04  0.13319962015E+04  0.00000000000E+00 0.  1.
         36    2    1    2    0    0  0.00000000000E+00  0.00000000000E+00 -0.13177707937E+04  0.13462216092E+04  0.27530484214E+03 0.  0.
         25    2    3    3    0    0 -0.23257912738E+02  0.33319989707E+01 -0.41785631454E+03  0.43708426644E+03  0.12604254699E+03 0.  0.
         25    2    3    3    0    0  0.23257912738E+02 -0.33319989707E+01 -0.89991447921E+03  0.90913734271E+03  0.12701419330E+03 0.  0.
          5    1    4    4  502    0 -0.11655068644E+02 -0.32379618695E+02 -0.38616718851E+03  0.38772602158E+03  0.47000000000E+01 0. -1.
         -5    1    4    4    0  502 -0.11602844095E+02  0.35711617666E+02 -0.31689126031E+02  0.49358244863E+02  0.47000000000E+01 0. -1.
          5    1    5    5  503    0  0.12038829811E+02  0.44482919823E+02 -0.13680575771E+03  0.14443534512E+03  0.47000000000E+01 0. -1.
         -5    1    5    5    0  503  0.11219082928E+02 -0.47814918793E+02 -0.76310872150E+03  0.76470199759E+03  0.47000000000E+01 0. -1.
<mgrwt>
<rscale>  0 0.27530484E+03</rscale>
<asrwt>0</asrwt>
<pdfrwt beam="1">  1        1 0.20492253E+00 0.27530484E+03</pdfrwt>
<pdfrwt beam="2">  1       -1 0.21885239E-02 0.27530484E+03</pdfrwt>
<totfact> 0.55750202E+03</totfact>
</mgrwt>
</event>
<event>
 9    1  0.2094635E-002  0.2752390E+03  0.7818608E-02  0.1098318E+00
         -2   -1    0    0    0  501 -0.00000000000E+00  0.00000000000E+00  0.46413462860E+02  0.46413462860E+02  0.00000000000E+00 0.  1.
          2   -1    0    0  501    0  0.00000000000E+00 -0.00000000000E+00 -0.40805244617E+03  0.40805244617E+03  0.00000000000E+00 0.  1.
         36    2    1    2    0    0  0.00000000000E+00  0.71054273576E-14 -0.36163898331E+03  0.45446590903E+03  0.27523900200E+03 0.  0.
         25    2    3    3    0    0 -0.60886614142E+02 -0.11601603338E+02 -0.17894226522E+03  0.22804908036E+03  0.12706011093E+03 0.  0.
         25    2    3    3    0    0  0.60886614142E+02  0.11601603338E+02 -0.18269671809E+03  0.22641682867E+03  0.11851038993E+03 0.  0.
          5    1    4    4  502    0 -0.34553991379E+02  0.35075345552E+02 -0.16530996104E+03  0.17255066330E+03  0.47000000000E+01 0. -1.
         -5    1    4    4    0  502 -0.26332622763E+02 -0.46676948889E+02 -0.13632304180E+02  0.55498417063E+02  0.47000000000E+01 0. -1.
          5    1    5    5  503    0  0.65025431926E+02  0.12806258672E+01 -0.19710980462E+03  0.20761577945E+03  0.47000000000E+01 0.  1.
         -5    1    5    5    0  503 -0.41388177836E+01  0.10320977471E+02  0.14413086527E+02  0.18801049221E+02  0.47000000000E+01 0.  1.
<mgrwt>
<rscale>  0 0.27523900E+03</rscale>
<asrwt>0</asrwt>
<pdfrwt beam="1">  1        2 0.62777299E-01 0.27523900E+03</pdfrwt>
<pdfrwt beam="2">  1       -2 0.71405328E-02 0.27523900E+03</pdfrwt>
<totfact> 0.87655974E+03</totfact>
</mgrwt>
</event>
<event>
 9    1  0.2094635E-002  0.2756282E+03  0.7818608E-02  0.1098101E+00
         -2   -1    0    0    0  501 -0.00000000000E+00  0.00000000000E+00  0.15910301564E+03  0.15910301564E+03  0.00000000000E+00 0.  1.
          2   -1    0    0  501    0  0.00000000000E+00 -0.00000000000E+00 -0.11937378263E+03  0.11937378263E+03  0.00000000000E+00 0.  1.
         36    2    1    2    0    0  0.71054273576E-14  0.00000000000E+00  0.39729233011E+02  0.27847679827E+03  0.27562821920E+03 0.  0.
         25    2    3    3    0    0 -0.36085527294E+02  0.19167721305E+01  0.62656809415E+02  0.14667342712E+03  0.12759850768E+03 0.  0.
         25    2    3    3    0    0  0.36085527294E+02 -0.19167721305E+01 -0.22927576404E+02  0.13180337115E+03  0.12466200540E+03 0.  0.
          5    1    4    4  502    0 -0.60471062811E+02 -0.40040889667E+02  0.65494111889E+02  0.97834508099E+02  0.47000000000E+01 0. -1.
         -5    1    4    4    0  502  0.24385535517E+02  0.41957661797E+02 -0.28373024744E+01  0.48838919022E+02  0.47000000000E+01 0. -1.
          5    1    5    5  503    0  0.96514290574E+00  0.57505405801E+02 -0.24280543197E+02  0.62605414903E+02  0.47000000000E+01 0. -1.
         -5    1    5    5    0  503  0.35120384388E+02 -0.59422177932E+02  0.13529667932E+01  0.69197956248E+02  0.47000000000E+01 0. -1.
<mgrwt>
<rscale>  0 0.27562822E+03</rscale>
<asrwt>0</asrwt>
<pdfrwt beam="1">  1        2 0.18365197E-01 0.27562822E+03</pdfrwt>
<pdfrwt beam="2">  1       -2 0.24477387E-01 0.27562822E+03</pdfrwt>
<totfact> 0.44980796E+03</totfact>
</mgrwt>
</event>
<event>
 9    1  0.2094635E-002  0.2727700E+03  0.7818608E-02  0.1099705E+00
         -3   -1    0    0    0  501 -0.00000000000E+00  0.00000000000E+00  0.13477292967E+04  0.13477292967E+04  0.00000000000E+00 0.  1.
          3   -1    0    0  501    0  0.00000000000E+00 -0.00000000000E+00 -0.13801630943E+02  0.13801630943E+02  0.00000000000E+00 0.  1.
         36    2    1    2    0    0  0.88817841970E-15  0.71054273576E-14  0.13339276658E+04  0.13615309276E+04  0.27276995703E+03 0.  0.
         25    2    3    3    0    0 -0.18554266364E+01  0.45276828569E+02  0.79233289207E+03  0.80330102734E+03  0.12428875592E+03 0.  0.
         25    2    3    3    0    0  0.18554266364E+01 -0.45276828569E+02  0.54159477368E+03  0.55822990031E+03  0.12744523883E+03 0.  0.
          5    1    4    4  502    0  0.41700121688E+01  0.81376343266E+02  0.68408555957E+03  0.68893732738E+03  0.47000000000E+01 0.  1.
         -5    1    4    4    0  502 -0.60254388051E+01 -0.36099514697E+02  0.10824733250E+03  0.11436369996E+03  0.47000000000E+01 0.  1.
          5    1    5    5  503    0 -0.50943790316E+02 -0.59110572056E+02  0.36734237379E+03  0.37556868757E+03  0.47000000000E+01 0.  1.
         -5    1    5    5    0  503  0.52799216953E+02  0.13833743486E+02  0.17425239989E+03  0.18266121273E+03  0.47000000000E+01 0.  1.
<mgrwt>
<rscale>  0 0.27276996E+03</rscale>
<asrwt>0</asrwt>
<pdfrwt beam="1">  1        3 0.21233289E-02 0.27276996E+03</pdfrwt>
<pdfrwt beam="2">  1       -3 0.20734286E+00 0.27276996E+03</pdfrwt>
<totfact> 0.31668621E+02</totfact>
</mgrwt>
</event>
<event>
 9    1  0.2094635E-002  0.2749848E+03  0.7818608E-02  0.1098460E+00
          1   -1    0    0  501    0  0.00000000000E+00  0.00000000000E+00  0.81788545197E+02  0.81788545197E+02  0.00000000000E+00 0. -1.
         -1   -1    0    0    0  501 -0.00000000000E+00 -0.00000000000E+00 -0.23113456634E+03  0.23113456634E+03  0.00000000000E+00 0. -1.
         36    2    1    2    0    0  0.00000000000E+00 -0.71054273576E-14 -0.14934602114E+03  0.31292311154E+03  0.27498479904E+03 0.  0.
         25    2    3    3    0    0  0.22211266807E+02  0.31917568540E+02 -0.12434996328E+03  0.17843132704E+03  0.12191289328E+03 0.  0.
         25    2    3    3    0    0 -0.22211266807E+02 -0.31917568540E+02 -0.24996057865E+02  0.13449178450E+03  0.12629792411E+03 0.  0.
          5    1    4    4  502    0  0.16801940919E+02  0.67451777601E+02 -0.27294522877E+02  0.74827324550E+02  0.47000000000E+01 0.  1.
         -5    1    4    4    0  502  0.54093258878E+01 -0.35534209061E+02 -0.97055440403E+02  0.10360400249E+03  0.47000000000E+01 0.  1.
          5    1    5    5  503    0 -0.48967200997E+02 -0.69565951022E+02 -0.10447662071E+02  0.85839687545E+02  0.47000000000E+01 0. -1.
         -5    1    5    5    0  503  0.26755934190E+02  0.37648382482E+02 -0.14548395793E+02  0.48652096954E+02  0.47000000000E+01 0. -1.
<mgrwt>
<rscale>  0 0.27498480E+03</rscale>
<asrwt>0</asrwt>
<pdfrwt beam="1">  1        1 0.12582853E-01 0.27498480E+03</pdfrwt>
<pdfrwt beam="2">  1       -1 0.35559164E-01 0.27498480E+03</pdfrwt>
<totfact> 0.35637541E+03</totfact>
</mgrwt>
</event>
<event>
 9    1  0.2094635E-002  0.2745884E+03  0.7818608E-02  0.1098682E+00
         -1   -1    0    0    0  501 -0.00000000000E+00  0.00000000000E+00  0.33689292415E+02  0.33689292415E+02  0.00000000000E+00 0.  1.
          1   -1    0    0  501    0  0.00000000000E+00 -0.00000000000E+00 -0.55951608295E+03  0.55951608295E+03  0.00000000000E+00 0.  1.
         36    2    1    2    0    0 -0.35527136788E-14  0.71054273576E-14 -0.52582679054E+03  0.59320537537E+03  0.27458842605E+03 0.  0.
         25    2    3    3    0    0 -0.19746541482E+02  0.57633319420E+02 -0.24649400079E+03  0.27920293019E+03  0.11611829482E+03 0.  0.
         25    2    3    3    0    0  0.19746541482E+02 -0.57633319420E+02 -0.27933278974E+03  0.31400244518E+03  0.12984299266E+03 0.  0.
          5    1    4    4  502    0 -0.93297450395E+01  0.87923750470E+02 -0.22073450373E+03  0.23783069856E+03  0.47000000000E+01 0. -1.
         -5    1    4    4    0  502 -0.10416796442E+02 -0.30290431050E+02 -0.25759497058E+02  0.41372231629E+02  0.47000000000E+01 0. -1.
          5    1    5    5  503    0 -0.27364289933E+01 -0.66342977716E+02 -0.49733149822E+02  0.83092448075E+02  0.47000000000E+01 0.  1.
         -5    1    5    5    0  503  0.22482970475E+02  0.87096582965E+01 -0.22959963992E+03  0.23090999710E+03  0.47000000000E+01 0.  1.
<mgrwt>
<rscale>  0 0.27458843E+03</rscale>
<asrwt>0</asrwt>
<pdfrwt beam="1">  1        1 0.86079396E-01 0.27458843E+03</pdfrwt>
<pdfrwt beam="2">  1       -1 0.51829681E-02 0.27458843E+03</pdfrwt>
<totfact> 0.64343925E+03</totfact>
</mgrwt>
</event>
<event>
 9    1  0.2094635E-002  0.2748673E+03  0.7818608E-02  0.1098526E+00
          3   -1    0    0  501    0  0.00000000000E+00  0.00000000000E+00  0.48401851612E+03  0.48401851612E+03  0.00000000000E+00 0.  1.
         -3   -1    0    0    0  501 -0.00000000000E+00 -0.00000000000E+00 -0.39023316849E+02  0.39023316849E+02  0.00000000000E+00 0.  1.
         36    2    1    2    0    0  0.35527136788E-14  0.71054273576E-14  0.44499519927E+03  0.52304183297E+03  0.27486729827E+03 0.  0.
         25    2    3    3    0    0 -0.10517944433E+02  0.40009820971E+02  0.28402868868E+03  0.31584366884E+03  0.13180862727E+03 0.  0.
         25    2    3    3    0    0  0.10517944433E+02 -0.40009820971E+02  0.16096651059E+03  0.20719816413E+03  0.12373135721E+03 0.  0.
          5    1    4    4  502    0 -0.56563333205E+02 -0.61928557656E+01  0.20733370042E+03  0.21505142515E+03  0.47000000000E+01 0.  1.
         -5    1    4    4    0  502  0.46045388772E+02  0.46202676737E+02  0.76694988259E+02  0.10079224369E+03  0.47000000000E+01 0.  1.
          5    1    5    5  503    0  0.20987796929E+02  0.31680813266E+02  0.98390805008E+01  0.39535541659E+02  0.47000000000E+01 0. -1.
         -5    1    5    5    0  503 -0.10469852496E+02 -0.71690634238E+02  0.15112743009E+03  0.16766262247E+03  0.47000000000E+01 0. -1.
<mgrwt>
<rscale>  0 0.27486730E+03</rscale>
<asrwt>0</asrwt>
<pdfrwt beam="1">  1        3 0.74464383E-01 0.27486730E+03</pdfrwt>
<pdfrwt beam="2">  1       -3 0.60035876E-02 0.27486730E+03</pdfrwt>
<totfact> 0.75360710E+02</totfact>
</mgrwt>
</event>
<event>
 9    1  0.2094635E-002  0.2742281E+03  0.7818608E-02  0.1098884E+00
         -2   -1    0    0    0  501 -0.00000000000E+00  0.00000000000E+00  0.14193377862E+03  0.14193377862E+03  0.00000000000E+00 0. -1.
          2   -1    0    0  501    0  0.00000000000E+00 -0.00000000000E+00 -0.13245802245E+03  0.13245802245E+03  0.00000000000E+00 0. -1.
         36    2    1    2    0    0 -0.71054273576E-14  0.00000000000E+00  0.94757561767E+01  0.27439180107E+03  0.27422813593E+03 0.  0.
         25    2    3    3    0    0  0.29495451138E+02  0.41215442868E+02  0.37292710803E+02  0.13393045853E+03  0.11822828373E+03 0.  0.
         25    2    3    3    0    0 -0.29495451138E+02 -0.41215442868E+02 -0.27816954627E+02  0.14046134254E+03  0.12801137221E+03 0.  0.
          5    1    4    4  502    0  0.65002186665E+02  0.47186451334E+00 -0.46788507968E+01  0.65341323618E+02  0.47000000000E+01 0. -1.
         -5    1    4    4    0  502 -0.35506735528E+02  0.40743578355E+02  0.41971561600E+02  0.68589134913E+02  0.47000000000E+01 0. -1.
          5    1    5    5  503    0  0.50318011104E+02 -0.12650902711E+02 -0.38315696893E+01  0.52237137241E+02  0.47000000000E+01 0.  1.
         -5    1    5    5    0  503 -0.79813462242E+02 -0.28564540157E+02 -0.23985384937E+02  0.88224205295E+02  0.47000000000E+01 0.  1.
<mgrwt>
<rscale>  0 0.27422814E+03</rscale>
<asrwt>0</asrwt>
<pdfrwt beam="1">  1        2 0.20378157E-01 0.27422814E+03</pdfrwt>
<pdfrwt beam="2">  1       -2 0.21835966E-01 0.27422814E+03</pdfrwt>
<totfact> 0.48702021E+03</totfact>
</mgrwt>
</event>
<event>
 9    1  0.2094635E-002  0.2739324E+03  0.7818608E-02  0.1099050E+00
         -2   -1    0    0    0  501 -0.00000000000E+00  0.00000000000E+00  0.91725431029E+01  0.91725431029E+01  0.00000000000E+00 0.  1.
          2   -1    0    0  501    0  0.00000000000E+00 -0.00000000000E+00 -0.20452058025E+04  0.20452058025E+04  0.00000000000E+00 0.  1.
         36    2    1    2    0    0 -0.71054273576E-14  0.00000000000E+00 -0.20360332594E+04  0.20543783456E+04  0.27393238857E+03 0.  0.
         25    2    3    3    0    0 -0.52419571514E+02  0.16431024593E+02 -0.10292204480E+04  0.10383689360E+04  0.12608539432E+03 0.  0.
         25    2    3    3    0    0  0.52419571514E+02 -0.16431024593E+02 -0.10068128114E+04  0.10160094096E+04  0.12484107145E+03 0.  0.
          5    1    4    4  502    0 -0.62682551039E+02 -0.39370201253E+02 -0.42042472659E+03  0.42691703606E+03  0.47000000000E+01 0.  1.
         -5    1    4    4    0  502  0.10262979525E+02  0.55801225846E+02 -0.60879572139E+03  0.61145189993E+03  0.47000000000E+01 0.  1.
          5    1    5    5  503    0 -0.35773193097E+02 -0.29986730633E+02 -0.32617725162E+03  0.32953393578E+03  0.47000000000E+01 0.  1.
         -5    1    5    5    0  503  0.88192764611E+02  0.13555706040E+02 -0.68063555977E+03  0.68647547379E+03  0.47000000000E+01 0.  1.
<mgrwt>
<rscale>  0 0.27393239E+03</rscale>
<asrwt>0</asrwt>
<pdfrwt beam="1">  1        2 0.31464720E+00 0.27393239E+03</pdfrwt>
<pdfrwt beam="2">  1       -2 0.14111598E-02 0.27393239E+03</pdfrwt>
<totfact> 0.90726211E+03</totfact>
</mgrwt>
</event>
<event>
 9    1  0.2094635E-002  0.2738441E+03  0.7818608E-02  0.1099099E+00
          2   -1    0    0  501    0  0.00000000000E+00  0.00000000000E+00  0.43209034872E+03  0.43209034872E+03  0.00000000000E+00 0.  1.
         -2   -1    0    0    0  501 -0.00000000000E+00 -0.00000000000E+00 -0.43388242871E+02  0.43388242871E+02  0.00000000000E+00 0.  1.
         36    2    1    2    0    0 -0.35527136788E-14  0.71054273576E-14  0.38870210585E+03  0.47547859159E+03  0.27384405045E+03 0.  0.
         25    2    3    3    0    0  0.22952667984E+02 -0.45791540225E+02  0.15797904439E+03  0.20782374060E+03  0.12493853916E+03 0.  0.
         25    2    3    3    0    0 -0.22952667984E+02  0.45791540225E+02  0.23072306146E+03  0.26765485099E+03  0.12562761656E+03 0.  0.
          5    1    4    4  502    0 -0.82826930662E+00 -0.10951648858E+01 -0.21102759208E+02  0.21663376061E+02  0.47000000000E+01 0.  1.
         -5    1    4    4    0  502  0.23780937291E+02 -0.44696375339E+02  0.17908180359E+03  0.18616036454E+03  0.47000000000E+01 0.  1.
          5    1    5    5  503    0 -0.25609998602E+02  0.44825078906E+01  0.22388311714E+03  0.22543669853E+03  0.47000000000E+01 0. -1.
         -5    1    5    5    0  503  0.26573306181E+01  0.41309032335E+02  0.68399443233E+01  0.42218152456E+02  0.47000000000E+01 0. -1.
<mgrwt>
<rscale>  0 0.27384405E+03</rscale>
<asrwt>0</asrwt>
<pdfrwt beam="1">  1        2 0.66475435E-01 0.27384405E+03</pdfrwt>
<pdfrwt beam="2">  1       -2 0.66751146E-02 0.27384405E+03</pdfrwt>
<totfact> 0.91377089E+03</totfact>
</mgrwt>
</event>
<event>
 9    1  0.2094635E-002  0.2748905E+03  0.7818608E-02  0.1098513E+00
          1   -1    0    0  501    0  0.00000000000E+00  0.00000000000E+00  0.98387135106E+03  0.98387135106E+03  0.00000000000E+00 0. -1.
         -1   -1    0    0    0  501 -0.00000000000E+00 -0.00000000000E+00 -0.19200874411E+02  0.19200874411E+02  0.00000000000E+00 0. -1.
         36    2    1    2    0    0 -0.71054273576E-14  0.00000000000E+00  0.96467047665E+03  0.10030722255E+04  0.27489045271E+03 0.  0.
         25    2    3    3    0    0 -0.51207896502E+02  0.10942280212E+02  0.54261145675E+03  0.55958094125E+03  0.12633944219E+03 0.  0.
         25    2    3    3    0    0  0.51207896502E+02 -0.10942280212E+02  0.42205901989E+03  0.44349128421E+03  0.12573273536E+03 0.  0.
          5    1    4    4  502    0 -0.58249304142E+01  0.63129985266E+02  0.19420269415E+03  0.20434309694E+03  0.47000000000E+01 0. -1.
         -5    1    4    4    0  502 -0.45382966087E+02 -0.52187705054E+02  0.34840876260E+03  0.35523784431E+03  0.47000000000E+01 0. -1.
          5    1    5    5  503    0  0.64190937264E+00  0.38327553258E+02  0.29945174020E+03  0.30193186002E+03  0.47000000000E+01 0. -1.
         -5    1    5    5    0  503  0.50565987129E+02 -0.49269833470E+02  0.12260727969E+03  0.14155942419E+03  0.47000000000E+01 0. -1.
<mgrwt>
<rscale>  0 0.27489045E+03</rscale>
<asrwt>0</asrwt>
<pdfrwt beam="1">  1        1 0.15136478E+00 0.27489045E+03</pdfrwt>
<pdfrwt beam="2">  1       -1 0.29539814E-02 0.27489045E+03</pdfrwt>
<totfact> 0.63422077E+03</totfact>
</mgrwt>
</event>
<event>
 9    1  0.2094635E-002  0.2772070E+03  0.7818608E-02  0.1097224E+00
         -1   -1    0    0    0  501 -0.00000000000E+00  0.00000000000E+00  0.11641814634E+03  0.11641814634E+03  0.00000000000E+00 0. -1.
          1   -1    0    0  501    0  0.00000000000E+00 -0.00000000000E+00 -0.16501667576E+03  0.16501667576E+03  0.00000000000E+00 0. -1.
         36    2    1    2    0    0  0.17763568394E-14  0.00000000000E+00 -0.48598529416E+02  0.28143482210E+03  0.27720703820E+03 0.  0.
         25    2    3    3    0    0  0.18562123684E+00 -0.12921952180E+02 -0.82518231023E+02  0.14922028502E+03  0.12365445284E+03 0.  0.
         25    2    3    3    0    0 -0.18562123684E+00  0.12921952180E+02  0.33919701607E+02  0.13221453708E+03  0.12713428473E+03 0.  0.
          5    1    4    4  502    0  0.33745000285E+02  0.32034128277E+02 -0.80244485925E+02  0.92877219705E+02  0.47000000000E+01 0.  1.
         -5    1    4    4    0  502 -0.33559379048E+02 -0.44956080457E+02 -0.22737450984E+01  0.56343065314E+02  0.47000000000E+01 0.  1.
          5    1    5    5  503    0 -0.11807384281E+02  0.59217266143E+02  0.53111757177E+02  0.80554625463E+02  0.47000000000E+01 0.  1.
         -5    1    5    5    0  503  0.11621763044E+02 -0.46295313963E+02 -0.19192055570E+02  0.51659911616E+02  0.47000000000E+01 0.  1.
<mgrwt>
<rscale>  0 0.27720704E+03</rscale>
<asrwt>0</asrwt>
<pdfrwt beam="1">  1        1 0.25387181E-01 0.27720704E+03</pdfrwt>
<pdfrwt beam="2">  1       -1 0.17910484E-01 0.27720704E+03</pdfrwt>
<totfact> 0.45013165E+03</totfact>
</mgrwt>
</event>
<event>
 9    1  0.2094635E-002  0.2747610E+03  0.7818608E-02  0.1098585E+00
          2   -1    0    0  501    0  0.00000000000E+00  0.00000000000E+00  0.89392190992E+02  0.89392190992E+02  0.00000000000E+00 0.  1.
         -2   -1    0    0    0  501 -0.00000000000E+00 -0.00000000000E+00 -0.21113031622E+03  0.21113031622E+03  0.00000000000E+00 0.  1.
         36    2    1    2    0    0  0.71054273576E-14  0.00000000000E+00 -0.12173812523E+03  0.30052250722E+03  0.27476099834E+03 0.  0.
         25    2    3    3    0    0  0.19774515712E+02 -0.37725743025E+02 -0.88918754722E+02  0.15947580355E+03  0.12534641525E+03 0.  0.
         25    2    3    3    0    0 -0.19774515712E+02  0.37725743025E+02 -0.32819370509E+02  0.14104670367E+03  0.13039477895E+03 0.  0.
          5    1    4    4  502    0 -0.52287153095E+02 -0.51884521149E+01 -0.29344130967E+02  0.60365838322E+02  0.47000000000E+01 0. -1.
         -5    1    4    4    0  502  0.72061668807E+02 -0.32537290910E+02 -0.59574623755E+02  0.99109965224E+02  0.47000000000E+01 0. -1.
          5    1    5    5  503    0 -0.85130248860E+01  0.24136223010E+02  0.49930970093E+02  0.56304712310E+02  0.47000000000E+01 0.  1.
         -5    1    5    5    0  503 -0.11261490826E+02  0.13589520015E+02 -0.82750340601E+02  0.84741991359E+02  0.47000000000E+01 0.  1.
<mgrwt>
<rscale>  0 0.27476100E+03</rscale>
<asrwt>0</asrwt>
<pdfrwt beam="1">  1        2 0.13752645E-01 0.27476100E+03</pdfrwt>
<pdfrwt beam="2">  1       -2 0.32481587E-01 0.27476100E+03</pdfrwt>
<totfact> 0.38009330E+03</totfact>
</mgrwt>
</event>
<event>
 9    1  0.2094635E-002  0.2754781E+03  0.7818608E-02  0.1098185E+00
         -2   -1    0    0    0  501 -0.00000000000E+00  0.00000000000E+00  0.11248755591E+02  0.11248755591E+02  0.00000000000E+00 0. -1.
          2   -1    0    0  501    0  0.00000000000E+00 -0.00000000000E+00 -0.16865908238E+04  0.16865908238E+04  0.00000000000E+00 0. -1.
         36    2    1    2    0    0  0.00000000000E+00  0.00000000000E+00 -0.16753420682E+04  0.16978395794E+04  0.27547811498E+03 0.  0.
         25    2    3    3    0    0 -0.33496446889E+02 -0.18162061890E+01 -0.10942639988E+04  0.11021756951E+04  0.12748432551E+03 0.  0.
         25    2    3    3    0    0  0.33496446889E+02  0.18162061890E+01 -0.58107806945E+03  0.59566388433E+03  0.12664292217E+03 0.  0.
          5    1    4    4  502    0 -0.47787292086E+02  0.36662635919E+02 -0.26152167387E+03  0.26840910950E+03  0.47000000000E+01 0. -1.
         -5    1    4    4    0  502  0.14290845197E+02 -0.38478842108E+02 -0.83274232491E+03  0.83376658559E+03  0.47000000000E+01 0. -1.
          5    1    5    5  503    0  0.38178862300E+02 -0.49810796105E+02 -0.16948738089E+03  0.18079492033E+03  0.47000000000E+01 0.  1.
         -5    1    5    5    0  503 -0.46824154106E+01  0.51627002294E+02 -0.41159068856E+03  0.41486896400E+03  0.47000000000E+01 0.  1.
<mgrwt>
<rscale>  0 0.27547811E+03</rscale>
<asrwt>0</asrwt>
<pdfrwt beam="1">  1        2 0.25947531E+00 0.27547811E+03</pdfrwt>
<pdfrwt beam="2">  1       -2 0.17305791E-02 0.27547811E+03</pdfrwt>
<totfact> 0.10387378E+04</totfact>
</mgrwt>
</event>
<event>
 9    1  0.2094635E-002  0.2751020E+03  0.7818608E-02  0.1098395E+00
          1   -1    0    0  501    0  0.00000000000E+00  0.00000000000E+00  0.55165283138E+01  0.55165283138E+01  0.00000000000E+00 0.  1.
         -1   -1    0    0    0  501 -0.00000000000E+00 -0.00000000000E+00 -0.34297433470E+04  0.34297433470E+04  0.00000000000E+00 0.  1.
         36    2    1    2    0    0  0.35527136788E-14 -0.10658141036E-13 -0.34242268186E+04  0.34352598753E+04  0.27510199041E+03 0.  0.
         25    2    3    3    0    0  0.27387430379E+02 -0.15099053325E+02 -0.22185123343E+04  0.22223354621E+04  0.12649061574E+03 0.  0.
         25    2    3    3    0    0 -0.27387430379E+02  0.15099053325E+02 -0.12057144843E+04  0.12129244132E+04  0.12829716123E+03 0.  0.
          5    1    4    4  502    0  0.27834925854E+02 -0.64342227983E+02 -0.17046586562E+04  0.17061060722E+04  0.47000000000E+01 0. -1.
         -5    1    4    4    0  502 -0.44749547500E+00  0.49243174658E+02 -0.51385367814E+03  0.51622938995E+03  0.47000000000E+01 0. -1.
          5    1    5    5  503    0 -0.58585820430E+02 -0.15728224572E+02 -0.10286643717E+04  0.10304621075E+04  0.47000000000E+01 0. -1.
         -5    1    5    5    0  503  0.31198390052E+02  0.30827277897E+02 -0.17705011264E+03  0.18246230567E+03  0.47000000000E+01 0. -1.
<mgrwt>
<rscale>  0 0.27510199E+03</rscale>
<asrwt>0</asrwt>
<pdfrwt beam="1">  1        1 0.84869688E-03 0.27510199E+03</pdfrwt>
<pdfrwt beam="2">  1       -1 0.52765269E+00 0.27510199E+03</pdfrwt>
<totfact> 0.24962173E+01</totfact>
</mgrwt>
</event>
<event>
 9    1  0.2094635E-002  0.2755252E+03  0.7818608E-02  0.1098158E+00
          1   -1    0    0  501    0  0.00000000000E+00  0.00000000000E+00  0.10524507280E+04  0.10524507280E+04  0.00000000000E+00 0.  1.
         -1   -1    0    0    0  501 -0.00000000000E+00 -0.00000000000E+00 -0.18032701755E+02  0.18032701755E+02  0.00000000000E+00 0.  1.
         36    2    1    2    0    0 -0.71054273576E-14  0.00000000000E+00  0.10344180263E+04  0.10704834298E+04  0.27552517192E+03 0.  0.
         25    2    3    3    0    0  0.25364528666E+02 -0.30691653494E+02  0.68991012542E+03  0.70248240716E+03  0.12617533160E+03 0.  0.
         25    2    3    3    0    0 -0.25364528666E+02  0.30691653494E+02  0.34450790084E+03  0.36800102261E+03  0.12310045488E+03 0.  0.
          5    1    4    4  502    0  0.76665503556E+02 -0.18198061212E+02  0.38684757523E+03  0.39481882595E+03  0.47000000000E+01 0. -1.
         -5    1    4    4    0  502 -0.51300974889E+02 -0.12493592282E+02  0.30306255020E+03  0.30766358121E+03  0.47000000000E+01 0. -1.
          5    1    5    5  503    0  0.12551266035E+02  0.65111431150E+02  0.26577291673E+03  0.27396051908E+03  0.47000000000E+01 0.  1.
         -5    1    5    5    0  503 -0.37915794702E+02 -0.34419777657E+02  0.78734984111E+02  0.94040503533E+02  0.47000000000E+01 0.  1.
<mgrwt>
<rscale>  0 0.27552517E+03</rscale>
<asrwt>0</asrwt>
<pdfrwt beam="1">  1        1 0.16191545E+00 0.27552517E+03</pdfrwt>
<pdfrwt beam="2">  1       -1 0.27742626E-02 0.27552517E+03</pdfrwt>
<totfact> 0.61868595E+03</totfact>
</mgrwt>
</event>
<event>
 9    1  0.2094635E-002  0.2733084E+03  0.7818608E-02  0.1099401E+00
          4   -1    0    0  501    0  0.00000000000E+00  0.00000000000E+00  0.16502627219E+02  0.16502627219E+02  0.00000000000E+00 0.  1.
         -4   -1    0    0    0  501 -0.00000000000E+00 -0.00000000000E+00 -0.11315998628E+04  0.11315998628E+04  0.00000000000E+00 0.  1.
         36    2    1    2    0    0  0.00000000000E+00 -0.35527136788E-14 -0.11150972356E+04  0.11481024900E+04  0.27330840234E+03 0.  0.
         25    2    3    3    0    0  0.41697047922E+02  0.11153890831E+02 -0.40719544744E+03  0.42801273637E+03  0.12459420932E+03 0.  0.
         25    2    3    3    0    0 -0.41697047922E+02 -0.11153890831E+02 -0.70790178813E+03  0.72008975364E+03  0.12466458426E+03 0.  0.
          5    1    4    4  502    0 -0.19398825036E+02 -0.13760260921E+02 -0.30697536019E+03  0.30793119516E+03  0.47000000000E+01 0. -1.
         -5    1    4    4    0  502  0.61095872958E+02  0.24914151752E+02 -0.10022008726E+03  0.12008154121E+03  0.47000000000E+01 0. -1.
          5    1    5    5  503    0 -0.30736393420E+02 -0.65050868614E+02 -0.49141803116E+03  0.49667908425E+03  0.47000000000E+01 0.  1.
         -5    1    5    5    0  503 -0.10960654502E+02  0.53896977784E+02 -0.21648375697E+03  0.22341066938E+03  0.47000000000E+01 0.  1.
<mgrwt>
<rscale>  0 0.27330840E+03</rscale>
<asrwt>0</asrwt>
<pdfrwt beam="1">  1        4 0.25388647E-02 0.27330840E+03</pdfrwt>
<pdfrwt beam="2">  1       -4 0.17409236E+00 0.27330840E+03</pdfrwt>
<totfact> 0.27907643E+02</totfact>
</mgrwt>
</event>
<event>
 9    1  0.2094635E-002  0.2760786E+03  0.7818608E-02  0.1097850E+00
          2   -1    0    0  501    0  0.00000000000E+00  0.00000000000E+00  0.18225291906E+04  0.18225291906E+04  0.00000000000E+00 0.  1.
         -2   -1    0    0    0  501 -0.00000000000E+00 -0.00000000000E+00 -0.10455168358E+02  0.10455168358E+02  0.00000000000E+00 0.  1.
         36    2    1    2    0    0  0.00000000000E+00  0.35527136788E-14  0.18120740222E+04  0.18329843590E+04  0.27607860856E+03 0.  0.
         25    2    3    3    0    0 -0.50625424093E+02  0.10225858173E+02  0.74712291707E+03  0.75967330646E+03  0.12744951001E+03 0.  0.
         25    2    3    3    0    0  0.50625424093E+02 -0.10225858173E+02  0.10649511052E+04  0.10733110525E+04  0.12332176312E+03 0.  0.
          5    1    4    4  502    0 -0.44856000437E+02 -0.54390380363E+02  0.45008665791E+03  0.45559901655E+03  0.47000000000E+01 0.  1.
         -5    1    4    4    0  502 -0.57694236564E+01  0.64616238536E+02  0.29703625916E+03  0.30407428991E+03  0.47000000000E+01 0.  1.
          5    1    5    5  503    0 -0.21811211959E+02  0.18798696947E+02  0.67340885151E+03  0.67404057094E+03  0.47000000000E+01 0. -1.
         -5    1    5    5    0  503  0.72436636052E+02 -0.29024555119E+02  0.39154225367E+03  0.39927048157E+03  0.47000000000E+01 0. -1.
<mgrwt>
<rscale>  0 0.27607861E+03</rscale>
<asrwt>0</asrwt>
<pdfrwt beam="1">  1        2 0.28038885E+00 0.27607861E+03</pdfrwt>
<pdfrwt beam="2">  1       -2 0.16084889E-02 0.27607861E+03</pdfrwt>
<totfact> 0.98089498E+03</totfact>
</mgrwt>
</event>
<event>
 9    1  0.2094635E-002  0.2749619E+03  0.7818608E-02  0.1098473E+00
         -2   -1    0    0    0  501 -0.00000000000E+00  0.00000000000E+00  0.20024437178E+02  0.20024437178E+02  0.00000000000E+00 0.  1.
          2   -1    0    0  501    0  0.00000000000E+00 -0.00000000000E+00 -0.94389754593E+03  0.94389754593E+03  0.00000000000E+00 0.  1.
         36    2    1    2    0    0  0.00000000000E+00  0.00000000000E+00 -0.92387310875E+03  0.96392198311E+03  0.27496193999E+03 0.  0.
         25    2    3    3    0    0  0.11960172085E+02 -0.12672733875E+02 -0.27799309080E+03  0.30615756873E+03  0.12707735621E+03 0.  0.
         25    2    3    3    0    0 -0.11960172085E+02  0.12672733875E+02 -0.64588001795E+03  0.65776441437E+03  0.12324521624E+03 0.  0.
          5    1    4    4  502    0 -0.56731436930E+02 -0.15985917159E+02 -0.11972490367E+03  0.13352957740E+03  0.47000000000E+01 0.  1.
         -5    1    4    4    0  502  0.68691609015E+02  0.33131832842E+01 -0.15826818713E+03  0.17262799133E+03  0.47000000000E+01 0.  1.
          5    1    5    5  503    0  0.42253875018E+02 -0.30218322640E+02 -0.35093370760E+03  0.35478880211E+03  0.47000000000E+01 0. -1.
         -5    1    5    5    0  503 -0.54214047103E+02  0.42891056516E+02 -0.29494631036E+03  0.30297561226E+03  0.47000000000E+01 0. -1.
<mgrwt>
<rscale>  0 0.27496194E+03</rscale>
<asrwt>0</asrwt>
<pdfrwt beam="1">  1        2 0.14521501E+00 0.27496194E+03</pdfrwt>
<pdfrwt beam="2">  1       -2 0.30806827E-02 0.27496194E+03</pdfrwt>
<totfact> 0.11556749E+04</totfact>
</mgrwt>
</event>
<event>
 9    1  0.2094635E-002  0.2789622E+03  0.7818608E-02  0.1096257E+00
         -1   -1    0    0    0  501 -0.00000000000E+00  0.00000000000E+00  0.20936131847E+03  0.20936131847E+03  0.00000000000E+00 0. -1.
          1   -1    0    0  501    0  0.00000000000E+00 -0.00000000000E+00 -0.92925391432E+02  0.92925391432E+02  0.00000000000E+00 0. -1.
         36    2    1    2    0    0  0.00000000000E+00 -0.71054273576E-14  0.11643592703E+03  0.30228670990E+03  0.27896223737E+03 0.  0.
         25    2    3    3    0    0 -0.51291870605E+02 -0.14039688390E+02  0.11011154767E+03  0.16693499472E+03  0.11364317266E+03 0.  0.
         25    2    3    3    0    0  0.51291870605E+02  0.14039688390E+02  0.63243793676E+01  0.13535171518E+03  0.12430655730E+03 0.  0.
          5    1    4    4  502    0 -0.24693958018E+02 -0.63922583258E+02  0.62795410262E+02  0.93065792657E+02  0.47000000000E+01 0.  1.
         -5    1    4    4    0  502 -0.26597912588E+02  0.49882894868E+02  0.47316137405E+02  0.73869202063E+02  0.47000000000E+01 0.  1.
          5    1    5    5  503    0  0.28581410670E+02  0.69388805315E+02  0.37292857200E+01  0.75284134523E+02  0.47000000000E+01 0. -1.
         -5    1    5    5    0  503  0.22710459936E+02 -0.55349116925E+02  0.25950936475E+01  0.60067580656E+02  0.47000000000E+01 0. -1.
<mgrwt>
<rscale>  0 0.27896224E+03</rscale>
<asrwt>0</asrwt>
<pdfrwt beam="1">  1        1 0.14296214E-01 0.27896224E+03</pdfrwt>
<pdfrwt beam="2">  1       -1 0.32209433E-01 0.27896224E+03</pdfrwt>
<totfact> 0.35739126E+03</totfact>
</mgrwt>
</event>
<event>
 9    1  0.2094635E-002  0.2744157E+03  0.7818608E-02  0.1098779E+00
          4   -1    0    0  501    0  0.00000000000E+00  0.00000000000E+00  0.10371498180E+02  0.10371498180E+02  0.00000000000E+00 0. -1.
         -4   -1    0    0    0  501 -0.00000000000E+00 -0.00000000000E+00 -0.18151667403E+04  0.18151667403E+04  0.00000000000E+00 0. -1.
         36    2    1    2    0    0  0.00000000000E+00  0.00000000000E+00 -0.18047952422E+04  0.18255382385E+04  0.27441573238E+03 0.  0.
         25    2    3    3    0    0  0.26957039390E+02 -0.33471277428E+02 -0.11812959898E+04  0.11891133724E+04  0.12916419185E+03 0.  0.
         25    2    3    3    0    0 -0.26957039390E+02  0.33471277428E+02 -0.62349925233E+03  0.63642486611E+03  0.12015941149E+03 0.  0.
          5    1    4    4  502    0  0.63996774492E+02 -0.12335669263E+02 -0.10236486856E+04  0.10257321665E+04  0.47000000000E+01 0. -1.
         -5    1    4    4    0  502 -0.37039735101E+02 -0.21135608165E+02 -0.15764730425E+03  0.16338120591E+03  0.47000000000E+01 0. -1.
          5    1    5    5  503    0  0.28609280181E+02 -0.30894745139E+02 -0.21807753744E+03  0.22215507765E+03  0.47000000000E+01 0. -1.
         -5    1    5    5    0  503 -0.55566319571E+02  0.64366022567E+02 -0.40542171488E+03  0.41426978846E+03  0.47000000000E+01 0. -1.
<mgrwt>
<rscale>  0 0.27441573E+03</rscale>
<asrwt>0</asrwt>
<pdfrwt beam="1">  1        4 0.15956156E-02 0.27441573E+03</pdfrwt>
<pdfrwt beam="2">  1       -4 0.27925633E+00 0.27441573E+03</pdfrwt>
<totfact> 0.12944108E+02</totfact>
</mgrwt>
</event>
<event>
 9    1  0.2094635E-002  0.2746626E+03  0.7818608E-02  0.1098640E+00
          2   -1    0    0  501    0  0.00000000000E+00  0.00000000000E+00  0.15503489504E+03  0.15503489504E+03  0.00000000000E+00 0.  1.
         -2   -1    0    0    0  501 -0.00000000000E+00 -0.00000000000E+00 -0.12164928970E+03  0.12164928970E+03  0.00000000000E+00 0.  1.
         36    2    1    2    0    0 -0.35527136788E-14 -0.71054273576E-14  0.33385605335E+02  0.27668418474E+03  0.27466259200E+03 0.  0.
         25    2    3    3    0    0 -0.18720309605E+02  0.52595010608E+02  0.10169785510E+02  0.13594737069E+03  0.12353775912E+03 0.  0.
         25    2    3    3    0    0  0.18720309605E+02 -0.52595010608E+02  0.23215819825E+02  0.14073681405E+03  0.12708733771E+03 0.  0.
          5    1    4    4  502    0 -0.18763298814E+02 -0.37538545946E+01  0.58395673123E+02  0.61630328947E+02  0.47000000000E+01 0. -1.
         -5    1    4    4    0  502  0.42989208423E-01  0.56348865202E+02 -0.48225887612E+02  0.74317041744E+02  0.47000000000E+01 0. -1.
          5    1    5    5  503    0  0.73972981897E+01  0.42034042732E+02  0.12479820011E+02  0.44714837318E+02  0.47000000000E+01 0.  1.
         -5    1    5    5    0  503  0.11323011416E+02 -0.94629053340E+02  0.10735999814E+02  0.96021976732E+02  0.47000000000E+01 0.  1.
<mgrwt>
<rscale>  0 0.27466259E+03</rscale>
<asrwt>0</asrwt>
<pdfrwt beam="1">  1        2 0.23851522E-01 0.27466259E+03</pdfrwt>
<pdfrwt beam="2">  1       -2 0.18715275E-01 0.27466259E+03</pdfrwt>
<totfact> 0.53075820E+03</totfact>
</mgrwt>
</event>
<event>
 9    1  0.2094635E-002  0.2749796E+03  0.7818608E-02  0.1098463E+00
         -1   -1    0    0    0  501 -0.00000000000E+00  0.00000000000E+00  0.16233812645E+02  0.16233812645E+02  0.00000000000E+00 0. -1.
          1   -1    0    0  501    0  0.00000000000E+00 -0.00000000000E+00 -0.11644492224E+04  0.11644492224E+04  0.00000000000E+00 0. -1.
         36    2    1    2    0    0  0.17763568394E-14 -0.71054273576E-14 -0.11482154097E+04  0.11806830350E+04  0.27497963933E+03 0.  0.
         25    2    3    3    0    0 -0.66878357181E+00 -0.43745143173E+02 -0.78750418767E+03  0.79704886214E+03  0.11493458234E+03 0.  0.
         25    2    3    3    0    0  0.66878357181E+00  0.43745143173E+02 -0.36071122207E+03  0.38363417289E+03  0.12307927551E+03 0.  0.
          5    1    4    4  502    0  0.33547148248E+02  0.26373883776E+01 -0.76611742044E+02  0.83808209575E+02  0.47000000000E+01 0. -1.
         -5    1    4    4    0  502 -0.34215931820E+02 -0.46382531551E+02 -0.71089244563E+03  0.71324065257E+03  0.47000000000E+01 0. -1.
          5    1    5    5  503    0  0.14304972366E+02 -0.34246089443E+02 -0.21020881200E+03  0.21351173625E+03  0.47000000000E+01 0.  1.
         -5    1    5    5    0  503 -0.13636188795E+02  0.77991232616E+02 -0.15050241007E+03  0.17012243664E+03  0.47000000000E+01 0.  1.
<mgrwt>
<rscale>  0 0.27497964E+03</rscale>
<asrwt>0</asrwt>
<pdfrwt beam="1">  1        1 0.17914599E+00 0.27497964E+03</pdfrwt>
<pdfrwt beam="2">  1       -1 0.24975102E-02 0.27497964E+03</pdfrwt>
<totfact> 0.59984559E+03</totfact>
</mgrwt>
</event>
<event>
 9    1  0.2094635E-002  0.2759749E+03  0.7818608E-02  0.1097908E+00
         -1   -1    0    0    0  501 -0.00000000000E+00  0.00000000000E+00  0.14979343691E+02  0.14979343691E+02  0.00000000000E+00 0.  1.
          1   -1    0    0  501    0  0.00000000000E+00 -0.00000000000E+00 -0.12711194551E+04  0.12711194551E+04  0.00000000000E+00 0.  1.
         36    2    1    2    0    0 -0.71054273576E-14  0.71054273576E-14 -0.12561401114E+04  0.12860987987E+04  0.27597489153E+03 0.  0.
         25    2    3    3    0    0 -0.19829751794E+02  0.58937751137E+02 -0.62087864931E+03  0.63668506375E+03  0.12653337768E+03 0.  0.
         25    2    3    3    0    0  0.19829751794E+02 -0.58937751137E+02 -0.63526146205E+03  0.64941373500E+03  0.11964195111E+03 0.  0.
          5    1    4    4  502    0  0.15909869323E+02  0.58115837260E+02 -0.57578584884E+03  0.57894905493E+03  0.47000000000E+01 0.  1.
         -5    1    4    4    0  502 -0.35739621117E+02  0.82191387718E+00 -0.45092800473E+02  0.57736008820E+02  0.47000000000E+01 0.  1.
          5    1    5    5  503    0  0.21134512105E+02  0.11388838954E+02 -0.45794166212E+03  0.45859462400E+03  0.47000000000E+01 0. -1.
         -5    1    5    5    0  503 -0.13047603103E+01 -0.70326590091E+02 -0.17731979993E+03  0.19081911099E+03  0.47000000000E+01 0. -1.
<mgrwt>
<rscale>  0 0.27597489E+03</rscale>
<asrwt>0</asrwt>
<pdfrwt beam="1">  1        1 0.19555684E+00 0.27597489E+03</pdfrwt>
<pdfrwt beam="2">  1       -1 0.23045144E-02 0.27597489E+03</pdfrwt>
<totfact> 0.56885617E+03</totfact>
</mgrwt>
</event>
<event>
 9    1  0.2094635E-002  0.2749099E+03  0.7818608E-02  0.1098502E+00
          2   -1    0    0  501    0  0.00000000000E+00  0.00000000000E+00  0.32040682503E+03  0.32040682503E+03  0.00000000000E+00 0.  1.
         -2   -1    0    0    0  501 -0.00000000000E+00 -0.00000000000E+00 -0.58968342018E+02  0.58968342018E+02  0.00000000000E+00 0.  1.
         36    2    1    2    0    0  0.00000000000E+00  0.00000000000E+00  0.26143848301E+03  0.37937516705E+03  0.27490987064E+03 0.  0.
         25    2    3    3    0    0 -0.80041406621E+01  0.12349259887E+02  0.53118698745E+02  0.13534736604E+03  0.12361530184E+03 0.  0.
         25    2    3    3    0    0  0.80041406621E+01 -0.12349259887E+02  0.20831978427E+03  0.24402780101E+03  0.12623733466E+03 0.  0.
          5    1    4    4  502    0  0.18168923599E+02  0.43044453474E+02  0.75548868568E+02  0.88953112939E+02  0.47000000000E+01 0.  1.
         -5    1    4    4    0  502 -0.26173064261E+02 -0.30695193587E+02 -0.22430169823E+02  0.46394253097E+02  0.47000000000E+01 0.  1.
          5    1    5    5  503    0  0.28114583176E+02  0.10603949220E+02  0.21086445818E+03  0.21304643449E+03  0.47000000000E+01 0.  1.
         -5    1    5    5    0  503 -0.20110442514E+02 -0.22953209107E+02 -0.25446739084E+01  0.30981366525E+02  0.47000000000E+01 0.  1.
<mgrwt>
<rscale>  0 0.27490987E+03</rscale>
<asrwt>0</asrwt>
<pdfrwt beam="1">  1        2 0.49293357E-01 0.27490987E+03</pdfrwt>
<pdfrwt beam="2">  1       -2 0.90720528E-02 0.27490987E+03</pdfrwt>
<totfact> 0.78301788E+03</totfact>
</mgrwt>
</event>
<event>
 9    1  0.2094635E-002  0.2775378E+03  0.7818608E-02  0.1097041E+00
          1   -1    0    0  501    0  0.00000000000E+00  0.00000000000E+00  0.59640519939E+02  0.59640519939E+02  0.00000000000E+00 0.  1.
         -1   -1    0    0    0  501 -0.00000000000E+00 -0.00000000000E+00 -0.32288129922E+03  0.32288129922E+03  0.00000000000E+00 0.  1.
         36    2    1    2    0    0 -0.71054273576E-14  0.17763568394E-14 -0.26324077928E+03  0.38252181916E+03  0.27753780690E+03 0.  0.
         25    2    3    3    0    0  0.30710875733E+02  0.31653128471E+00 -0.20463184015E+03  0.24261766632E+03  0.12667234870E+03 0.  0.
         25    2    3    3    0    0 -0.30710875733E+02 -0.31653128471E+00 -0.58608939130E+02  0.13990415284E+03  0.12326762007E+03 0.  0.
          5    1    4    4  502    0  0.73765971277E+02 -0.15674831517E+02 -0.81610103317E+02  0.11121788447E+03  0.47000000000E+01 0.  1.
         -5    1    4    4    0  502 -0.43055095544E+02  0.15991362802E+02 -0.12302173683E+03  0.13139978185E+03  0.47000000000E+01 0.  1.
          5    1    5    5  503    0  0.29352149765E+02  0.10546391204E+02  0.22166596691E+02  0.38551563809E+02  0.47000000000E+01 0.  1.
         -5    1    5    5    0  503 -0.60063025499E+02 -0.10862922489E+02 -0.80775535821E+02  0.10135258904E+03  0.47000000000E+01 0.  1.
<mgrwt>
<rscale>  0 0.27753781E+03</rscale>
<asrwt>0</asrwt>
<pdfrwt beam="1">  1        1 0.91754645E-02 0.27753781E+03</pdfrwt>
<pdfrwt beam="2">  1       -1 0.49674047E-01 0.27753781E+03</pdfrwt>
<totfact> 0.29888166E+03</totfact>
</mgrwt>
</event>
<event>
 9    1  0.2094635E-002  0.2808621E+03  0.7818608E-02  0.1095219E+00
         -1   -1    0    0    0  501 -0.00000000000E+00  0.00000000000E+00  0.25359820662E+02  0.25359820662E+02  0.00000000000E+00 0. -1.
          1   -1    0    0  501    0  0.00000000000E+00 -0.00000000000E+00 -0.77764252931E+03  0.77764252931E+03  0.00000000000E+00 0. -1.
         36    2    1    2    0    0  0.35527136788E-14 -0.14210854715E-13 -0.75228270865E+03  0.80300234997E+03  0.28086206638E+03 0.  0.
         25    2    3    3    0    0  0.10636243723E+02 -0.69676032944E+02 -0.33372414391E+03  0.36340994365E+03  0.12540774964E+03 0.  0.
         25    2    3    3    0    0 -0.10636243723E+02  0.69676032944E+02 -0.41855856474E+03  0.43959240632E+03  0.11437802381E+03 0.  0.
          5    1    4    4  502    0 -0.44642062574E+02  0.89520835548E+01 -0.13632949152E+03  0.14380846223E+03  0.47000000000E+01 0.  1.
         -5    1    4    4    0  502  0.55278306296E+02 -0.78628116499E+02 -0.19739465239E+03  0.21960148142E+03  0.47000000000E+01 0.  1.
          5    1    5    5  503    0  0.24430748346E+02  0.73993240907E+02 -0.37628842358E+03  0.38430057102E+03  0.47000000000E+01 0.  1.
         -5    1    5    5    0  503 -0.35066992069E+02 -0.43172079630E+01 -0.42270141154E+02  0.55291835297E+02  0.47000000000E+01 0.  1.
<mgrwt>
<rscale>  0 0.28086207E+03</rscale>
<asrwt>0</asrwt>
<pdfrwt beam="1">  1        1 0.11963731E+00 0.28086207E+03</pdfrwt>
<pdfrwt beam="2">  1       -1 0.39015109E-02 0.28086207E+03</pdfrwt>
<totfact> 0.61361759E+03</totfact>
</mgrwt>
</event>
<event>
 9    1  0.2094635E-002  0.2773160E+03  0.7818608E-02  0.1097164E+00
          1   -1    0    0  501    0  0.00000000000E+00  0.00000000000E+00  0.21219570882E+04  0.21219570882E+04  0.00000000000E+00 0.  1.
         -1   -1    0    0    0  501 -0.00000000000E+00 -0.00000000000E+00 -0.90605252052E+01  0.90605252052E+01  0.00000000000E+00 0.  1.
         36    2    1    2    0    0 -0.14210854715E-13  0.00000000000E+00  0.21128965630E+04  0.21310176134E+04  0.27731603403E+03 0.  0.
         25    2    3    3    0    0 -0.64663001952E+02  0.42624923469E+01  0.10335744756E+04  0.10429079117E+04  0.12321218683E+03 0.  0.
         25    2    3    3    0    0  0.64663001952E+02 -0.42624923469E+01  0.10793220874E+04  0.10881097018E+04  0.12184860267E+03 0.  0.
          5    1    4    4  502    0  0.12673299533E+02 -0.38255768493E+02  0.16785842653E+03  0.17269237882E+03  0.47000000000E+01 0.  1.
         -5    1    4    4    0  502 -0.77336301485E+02  0.42518260840E+02  0.86571604905E+03  0.87021553285E+03  0.47000000000E+01 0.  1.
          5    1    5    5  503    0  0.24119378755E+02 -0.56455017828E+02  0.31771713992E+03  0.32362815772E+03  0.47000000000E+01 0.  1.
         -5    1    5    5    0  503  0.40543623197E+02  0.52192525481E+02  0.76160494751E+03  0.76448154403E+03  0.47000000000E+01 0.  1.
<mgrwt>
<rscale>  0 0.27731603E+03</rscale>
<asrwt>0</asrwt>
<pdfrwt beam="1">  1        1 0.32645454E+00 0.27731603E+03</pdfrwt>
<pdfrwt beam="2">  1       -1 0.13939286E-02 0.27731603E+03</pdfrwt>
<totfact> 0.32639253E+03</totfact>
</mgrwt>
</event>
<event>
 9    1  0.2094635E-002  0.2748988E+03  0.7818608E-02  0.1098508E+00
         -2   -1    0    0    0  501 -0.00000000000E+00  0.00000000000E+00  0.24084557746E+02  0.24084557746E+02  0.00000000000E+00 0.  1.
          2   -1    0    0  501    0  0.00000000000E+00 -0.00000000000E+00 -0.78441712294E+03  0.78441712294E+03  0.00000000000E+00 0.  1.
         36    2    1    2    0    0  0.00000000000E+00 -0.35527136788E-14 -0.76033256519E+03  0.80850168068E+03  0.27489881407E+03 0.  0.
         25    2    3    3    0    0 -0.49588673225E+02  0.31162089462E+02 -0.43433934203E+03  0.45488401924E+03  0.12181418059E+03 0.  0.
         25    2    3    3    0    0  0.49588673225E+02 -0.31162089462E+02 -0.32599322316E+03  0.35361766144E+03  0.12386991808E+03 0.  0.
          5    1    4    4  502    0 -0.29651636482E+02  0.44442756632E+02 -0.42558280216E+03  0.42894893595E+03  0.47000000000E+01 0.  1.
         -5    1    4    4    0  502 -0.19937036744E+02 -0.13280667169E+02 -0.87565398726E+01  0.25935083287E+02  0.47000000000E+01 0.  1.
          5    1    5    5  503    0 -0.30782068421E+02  0.13207628606E+02 -0.35971451758E+02  0.49376234478E+02  0.47000000000E+01 0. -1.
         -5    1    5    5    0  503  0.80370741646E+02 -0.44369718068E+02 -0.29002177140E+03  0.30424142697E+03  0.47000000000E+01 0. -1.
<mgrwt>
<rscale>  0 0.27489881E+03</rscale>
<asrwt>0</asrwt>
<pdfrwt beam="1">  1        2 0.12067953E+00 0.27489881E+03</pdfrwt>
<pdfrwt beam="2">  1       -2 0.37053173E-02 0.27489881E+03</pdfrwt>
<totfact> 0.11183495E+04</totfact>
</mgrwt>
</event>
<event>
 9    1  0.2094635E-002  0.2752500E+03  0.7818608E-02  0.1098312E+00
         -1   -1    0    0    0  501 -0.00000000000E+00  0.00000000000E+00  0.60409646779E+02  0.60409646779E+02  0.00000000000E+00 0. -1.
          1   -1    0    0  501    0  0.00000000000E+00 -0.00000000000E+00 -0.31353667829E+03  0.31353667829E+03  0.00000000000E+00 0. -1.
         36    2    1    2    0    0  0.00000000000E+00 -0.35527136788E-14 -0.25312703151E+03  0.37394632507E+03  0.27524999537E+03 0.  0.
         25    2    3    3    0    0 -0.25811687899E+02 -0.28384394823E+02 -0.63137557652E+02  0.14416180764E+03  0.12379159299E+03 0.  0.
         25    2    3    3    0    0  0.25811687899E+02  0.28384394823E+02 -0.18998947386E+03  0.22978451743E+03  0.12342206922E+03 0.  0.
          5    1    4    4  502    0 -0.74062367267E+02 -0.26598551380E+02 -0.25811665593E+02  0.82952090157E+02  0.47000000000E+01 0.  1.
         -5    1    4    4    0  502  0.48250679368E+02 -0.17858434432E+01 -0.37325892059E+02  0.61209717483E+02  0.47000000000E+01 0.  1.
          5    1    5    5  503    0 -0.13689262738E+02  0.31178026939E+02 -0.18662622024E+03  0.18976538504E+03  0.47000000000E+01 0.  1.
         -5    1    5    5    0  503  0.39500950638E+02 -0.27936321159E+01 -0.33632536108E+01  0.40019132381E+02  0.47000000000E+01 0.  1.
<mgrwt>
<rscale>  0 0.27525000E+03</rscale>
<asrwt>0</asrwt>
<pdfrwt beam="1">  1        1 0.48236413E-01 0.27525000E+03</pdfrwt>
<pdfrwt beam="2">  1       -1 0.92937916E-02 0.27525000E+03</pdfrwt>
<totfact> 0.56212226E+03</totfact>
</mgrwt>
</event>
<event>
 9    1  0.2094635E-002  0.2774229E+03  0.7818608E-02  0.1097105E+00
          2   -1    0    0  501    0  0.00000000000E+00  0.00000000000E+00  0.19265494757E+04  0.19265494757E+04  0.00000000000E+00 0.  1.
         -2   -1    0    0    0  501 -0.00000000000E+00 -0.00000000000E+00 -0.99872192411E+01  0.99872192411E+01  0.00000000000E+00 0.  1.
         36    2    1    2    0    0 -0.35527136788E-14 -0.14210854715E-13  0.19165622565E+04  0.19365366950E+04  0.27742294060E+03 0.  0.
         25    2    3    3    0    0  0.24296473428E+02  0.54004397721E+02  0.75031470765E+03  0.76271772163E+03  0.12352881761E+03 0.  0.
         25    2    3    3    0    0 -0.24296473428E+02 -0.54004397721E+02  0.11662475488E+04  0.11738189733E+04  0.11920924213E+03 0.  0.
          5    1    4    4  502    0  0.31329804940E+02 -0.17515493670E+02  0.52335899851E+03  0.52460945523E+03  0.47000000000E+01 0. -1.
         -5    1    4    4    0  502 -0.70333315122E+01  0.71519891391E+02  0.22695570914E+03  0.23810826640E+03  0.47000000000E+01 0. -1.
          5    1    5    5  503    0 -0.42672018839E+02 -0.60522442791E+02  0.37252971799E+03  0.37984779591E+03  0.47000000000E+01 0.  1.
         -5    1    5    5    0  503  0.18375545411E+02  0.65180450707E+01  0.79371783086E+03  0.79397117744E+03  0.47000000000E+01 0.  1.
<mgrwt>
<rscale>  0 0.27742294E+03</rscale>
<asrwt>0</asrwt>
<pdfrwt beam="1">  1        2 0.29639193E+00 0.27742294E+03</pdfrwt>
<pdfrwt beam="2">  1       -2 0.15364968E-02 0.27742294E+03</pdfrwt>
<totfact> 0.92502754E+03</totfact>
</mgrwt>
</event>
<event>
 8    1  0.2094635E-002  0.2980147E+03  0.7818608E-02  0.1086237E+00
         -2   -1    0    0    0  501 -0.00000000000E+00  0.00000000000E+00  0.36740320982E+02  0.36740320982E+02  0.00000000000E+00 0. -1.
          2   -1    0    0  501    0  0.00000000000E+00 -0.00000000000E+00 -0.60432779508E+03  0.60432779508E+03  0.00000000000E+00 0. -1.
         25    2    1    2    0    0  0.29476646669E+02 -0.38510285274E+02 -0.14602361580E+03  0.19882062702E+03  0.12591596637E+03 0.  0.
         25    2    1    2    0    0 -0.29476646669E+02  0.38510285274E+02 -0.42156385830E+03  0.44224748905E+03  0.12455858127E+03 0.  0.
          5    1    3    3  502    0  0.25837406874E+02 -0.23596488245E+02 -0.16796354724E+03  0.17163393910E+03  0.47000000000E+01 0.  1.
         -5    1    3    3    0  502  0.36392397945E+01 -0.14913797029E+02  0.21939931442E+02  0.27186687915E+02  0.47000000000E+01 0.  1.
          5    1    4    4  503    0  0.25548288147E+02  0.12065097832E+02 -0.33497058460E+03  0.33619289725E+03  0.47000000000E+01 0.  1.
         -5    1    4    4    0  503 -0.55024934816E+02  0.26445187441E+02 -0.86593273703E+02  0.10605459180E+03  0.47000000000E+01 0.  1.
<mgrwt>
<rscale>  0 0.29801475E+03</rscale>
<asrwt>0</asrwt>
<pdfrwt beam="1">  1        2 0.92973505E-01 0.29801475E+03</pdfrwt>
<pdfrwt beam="2">  1       -2 0.56523572E-02 0.29801475E+03</pdfrwt>
<totfact> 0.81098498E+03</totfact>
</mgrwt>
</event>
<event>
 9    1  0.2094635E-002  0.2755465E+03  0.7818608E-02  0.1098147E+00
          1   -1    0    0  501    0  0.00000000000E+00  0.00000000000E+00  0.98634097640E+03  0.98634097640E+03  0.00000000000E+00 0. -1.
         -1   -1    0    0    0  501 -0.00000000000E+00 -0.00000000000E+00 -0.19244328088E+02  0.19244328088E+02  0.00000000000E+00 0. -1.
         36    2    1    2    0    0  0.00000000000E+00  0.71054273576E-14  0.96709664831E+03  0.10055853045E+04  0.27554650683E+03 0.  0.
         25    2    3    3    0    0 -0.25517910217E+02 -0.50137455075E+02  0.58793195572E+03  0.60368516621E+03  0.12492744776E+03 0.  0.
         25    2    3    3    0    0  0.25517910217E+02  0.50137455075E+02  0.37916469259E+03  0.40190013828E+03  0.12080119575E+03 0.  0.
          5    1    4    4  502    0 -0.66191659208E+02  0.14851069529E+01  0.37373328776E+03  0.37958161398E+03  0.47000000000E+01 0.  1.
         -5    1    4    4    0  502  0.40673748991E+02 -0.51622562028E+02  0.21419866796E+03  0.22410355223E+03  0.47000000000E+01 0.  1.
          5    1    5    5  503    0  0.73318307590E+01  0.43456106802E+02  0.33236792783E+02  0.55398225199E+02  0.47000000000E+01 0.  1.
         -5    1    5    5    0  503  0.18186079458E+02  0.66813482729E+01  0.34592789981E+03  0.34650191308E+03  0.47000000000E+01 0.  1.
<mgrwt>
<rscale>  0 0.27554651E+03</rscale>
<asrwt>0</asrwt>
<pdfrwt beam="1">  1        1 0.15174473E+00 0.27554651E+03</pdfrwt>
<pdfrwt beam="2">  1       -1 0.29606666E-02 0.27554651E+03</pdfrwt>
<totfact> 0.62943873E+03</totfact>
</mgrwt>
</event>
<event>
 9    1  0.2094635E-002  0.2780039E+03  0.7818608E-02  0.1096784E+00
         -1   -1    0    0    0  501 -0.00000000000E+00  0.00000000000E+00  0.37903238522E+02  0.37903238522E+02  0.00000000000E+00 0. -1.
          1   -1    0    0  501    0  0.00000000000E+00 -0.00000000000E+00 -0.50975967688E+03  0.50975967688E+03  0.00000000000E+00 0. -1.
         36    2    1    2    0    0  0.14210854715E-13  0.00000000000E+00 -0.47185643835E+03  0.54766291540E+03  0.27800390373E+03 0.  0.
         25    2    3    3    0    0  0.37614702846E+02  0.34463346731E+02 -0.26498344479E+03  0.29820134072E+03  0.12690636491E+03 0.  0.
         25    2    3    3    0    0 -0.37614702846E+02 -0.34463346731E+02 -0.20687299356E+03  0.24946157468E+03  0.12973840464E+03 0.  0.
          5    1    4    4  502    0  0.44262372863E+02  0.51819357977E+01 -0.26401790076E+03  0.26779386108E+03  0.47000000000E+01 0. -1.
         -5    1    4    4    0  502 -0.66476700166E+01  0.29281410933E+02 -0.96554403533E+00  0.30407479642E+02  0.47000000000E+01 0. -1.
          5    1    5    5  503    0 -0.19625842224E+02  0.48755817860E+02 -0.96519599060E+02  0.11000193844E+03  0.47000000000E+01 0. -1.
         -5    1    5    5    0  503 -0.17988860622E+02 -0.83219164591E+02 -0.11035339450E+03  0.13945963624E+03  0.47000000000E+01 0. -1.
<mgrwt>
<rscale>  0 0.27800390E+03</rscale>
<asrwt>0</asrwt>
<pdfrwt beam="1">  1        1 0.78424564E-01 0.27800390E+03</pdfrwt>
<pdfrwt beam="2">  1       -1 0.58312676E-02 0.27800390E+03</pdfrwt>
<totfact> 0.61129380E+03</totfact>
</mgrwt>
</event>
<event>
 9    1  0.2094635E-002  0.2756102E+03  0.7818608E-02  0.1098111E+00
         -2   -1    0    0    0  501 -0.00000000000E+00  0.00000000000E+00  0.64052756454E+02  0.64052756454E+02  0.00000000000E+00 0.  1.
          2   -1    0    0  501    0  0.00000000000E+00 -0.00000000000E+00 -0.29647808971E+03  0.29647808971E+03  0.00000000000E+00 0.  1.
         36    2    1    2    0    0  0.00000000000E+00 -0.71054273576E-14 -0.23242533325E+03  0.36053084616E+03  0.27561015129E+03 0.  0.
         25    2    3    3    0    0  0.37998310599E+02 -0.48986685049E+02 -0.11747639044E+03  0.18165857475E+03  0.12391758773E+03 0.  0.
         25    2    3    3    0    0 -0.37998310599E+02  0.48986685049E+02 -0.11494894281E+03  0.17887227141E+03  0.12222300564E+03 0.  0.
          5    1    4    4  502    0  0.71742904536E+01  0.21507251712E+02 -0.99966538817E+02  0.10261301673E+03  0.47000000000E+01 0.  1.
         -5    1    4    4    0  502  0.30824020146E+02 -0.70493936762E+02 -0.17509851623E+02  0.79045558015E+02  0.47000000000E+01 0.  1.
          5    1    5    5  503    0  0.32947568124E+02 -0.85325151484E+01 -0.32515242761E+01  0.34510990570E+02  0.47000000000E+01 0.  1.
         -5    1    5    5    0  503 -0.70945878723E+02  0.57519200198E+02 -0.11169741854E+03  0.14436128084E+03  0.47000000000E+01 0.  1.
<mgrwt>
<rscale>  0 0.27561015E+03</rscale>
<asrwt>0</asrwt>
<pdfrwt beam="1">  1        2 0.45612013E-01 0.27561015E+03</pdfrwt>
<pdfrwt beam="2">  1       -2 0.98542703E-02 0.27561015E+03</pdfrwt>
<totfact> 0.74685858E+03</totfact>
</mgrwt>
</event>
<event>
 9    1  0.2094635E-002  0.2750140E+03  0.7818608E-02  0.1098444E+00
          1   -1    0    0  501    0  0.00000000000E+00  0.00000000000E+00  0.27120106034E+02  0.27120106034E+02  0.00000000000E+00 0. -1.
         -1   -1    0    0    0  501 -0.00000000000E+00 -0.00000000000E+00 -0.69720112252E+03  0.69720112252E+03  0.00000000000E+00 0. -1.
         36    2    1    2    0    0  0.00000000000E+00  0.00000000000E+00 -0.67008101648E+03  0.72432122855E+03  0.27501395142E+03 0.  0.
         25    2    3    3    0    0 -0.21804885958E+02  0.38125780204E+02 -0.39362464843E+03  0.41518370265E+03  0.12453158203E+03 0.  0.
         25    2    3    3    0    0  0.21804885958E+02 -0.38125780204E+02 -0.27645636805E+03  0.30913752590E+03  0.13118253816E+03 0.  0.
          5    1    4    4  502    0  0.37533119835E+02 -0.24951367340E+02 -0.13711485827E+03  0.14440872611E+03  0.47000000000E+01 0. -1.
         -5    1    4    4    0  502 -0.59338005793E+02  0.63077147543E+02 -0.25650979016E+03  0.27077497654E+03  0.47000000000E+01 0. -1.
          5    1    5    5  503    0 -0.32645420052E+02 -0.64974946046E+02 -0.11049666319E+03  0.13235962239E+03  0.47000000000E+01 0.  1.
         -5    1    5    5    0  503  0.54450306010E+02  0.26849165842E+02 -0.16595970487E+03  0.17677790351E+03  0.47000000000E+01 0.  1.
<mgrwt>
<rscale>  0 0.27501395E+03</rscale>
<asrwt>0</asrwt>
<pdfrwt beam="1">  1        1 0.41723245E-02 0.27501395E+03</pdfrwt>
<pdfrwt beam="2">  1       -1 0.10726170E+00 0.27501395E+03</pdfrwt>
<totfact> 0.18412725E+03</totfact>
</mgrwt>
</event>
<event>
 9    1  0.2094635E-002  0.2750310E+03  0.7818608E-02  0.1098434E+00
          1   -1    0    0  501    0  0.00000000000E+00  0.00000000000E+00  0.44091998565E+03  0.44091998565E+03  0.00000000000E+00 0.  1.
         -1   -1    0    0    0  501 -0.00000000000E+00 -0.00000000000E+00 -0.42888756775E+02  0.42888756775E+02  0.00000000000E+00 0.  1.
         36    2    1    2    0    0  0.35527136788E-14 -0.35527136788E-14  0.39803122888E+03  0.48380874243E+03  0.27503098023E+03 0.  0.
         25    2    3    3    0    0 -0.19161186112E+02 -0.24056477179E+02  0.28320735138E+03  0.31035825572E+03  0.12316646406E+03 0.  0.
         25    2    3    3    0    0  0.19161186112E+02  0.24056477179E+02  0.11482387750E+03  0.17345048671E+03  0.12631184960E+03 0.  0.
          5    1    4    4  502    0 -0.32800367885E+02  0.26038192490E+02  0.23693546807E+03  0.24065402060E+03  0.47000000000E+01 0. -1.
         -5    1    4    4    0  502  0.13639181773E+02 -0.50094669668E+02  0.46271883317E+02  0.69704235125E+02  0.47000000000E+01 0. -1.
          5    1    5    5  503    0 -0.44609280141E+02  0.42106810350E+02  0.70554702527E+02  0.93611043158E+02  0.47000000000E+01 0. -1.
         -5    1    5    5    0  503  0.63770466253E+02 -0.18050333171E+02  0.44269174968E+02  0.79839443548E+02  0.47000000000E+01 0. -1.
<mgrwt>
<rscale>  0 0.27503098E+03</rscale>
<asrwt>0</asrwt>
<pdfrwt beam="1">  1        1 0.67833841E-01 0.27503098E+03</pdfrwt>
<pdfrwt beam="2">  1       -1 0.65982706E-02 0.27503098E+03</pdfrwt>
<totfact> 0.61369082E+03</totfact>
</mgrwt>
</event>
<event>
 9    1  0.2094635E-002  0.2753615E+03  0.7818608E-02  0.1098250E+00
          1   -1    0    0  501    0  0.00000000000E+00  0.00000000000E+00  0.10907971340E+04  0.10907971340E+04  0.00000000000E+00 0. -1.
         -1   -1    0    0    0  501 -0.00000000000E+00 -0.00000000000E+00 -0.17378100409E+02  0.17378100409E+02  0.00000000000E+00 0. -1.
         36    2    1    2    0    0  0.00000000000E+00  0.14210854715E-13  0.10734190336E+04  0.11081752344E+04  0.27536145061E+03 0.  0.
         25    2    3    3    0    0 -0.37397663606E+02  0.34974251996E+02  0.51639551865E+03  0.53510063200E+03  0.13056251812E+03 0.  0.
         25    2    3    3    0    0  0.37397663606E+02 -0.34974251996E+02  0.55702351494E+03  0.57307460241E+03  0.12456933886E+03 0.  0.
          5    1    4    4  502    0  0.50938476987E+01  0.77932903907E+02  0.25296194512E+03  0.26478542346E+03  0.47000000000E+01 0.  1.
         -5    1    4    4    0  502 -0.42491511305E+02 -0.42958651911E+02  0.26343357353E+03  0.27031520855E+03  0.47000000000E+01 0.  1.
          5    1    5    5  503    0  0.12694087666E+02 -0.79476722994E+02  0.39633979501E+03  0.40445644076E+03  0.47000000000E+01 0.  1.
         -5    1    5    5    0  503  0.24703575941E+02  0.44502470999E+02  0.16068371993E+03  0.16861816165E+03  0.47000000000E+01 0.  1.
<mgrwt>
<rscale>  0 0.27536145E+03</rscale>
<asrwt>0</asrwt>
<pdfrwt beam="1">  1        1 0.16781489E+00 0.27536145E+03</pdfrwt>
<pdfrwt beam="2">  1       -1 0.26735548E-02 0.27536145E+03</pdfrwt>
<totfact> 0.61261329E+03</totfact>
</mgrwt>
</event>
<event>
 9    1  0.2094635E-002  0.2743779E+03  0.7818608E-02  0.1098800E+00
         -2   -1    0    0    0  501 -0.00000000000E+00  0.00000000000E+00  0.22414782285E+02  0.22414782285E+02  0.00000000000E+00 0.  1.
          2   -1    0    0  501    0  0.00000000000E+00 -0.00000000000E+00 -0.83966046460E+03  0.83966046460E+03  0.00000000000E+00 0.  1.
         36    2    1    2    0    0  0.00000000000E+00  0.00000000000E+00 -0.81724568231E+03  0.86207524688E+03  0.27437788910E+03 0.  0.
         25    2    3    3    0    0  0.52460232431E+02  0.26894633345E+02 -0.47906786699E+03  0.49847300761E+03  0.12447457909E+03 0.  0.
         25    2    3    3    0    0 -0.52460232431E+02 -0.26894633345E+02 -0.33817781532E+03  0.36360223927E+03  0.11986223901E+03 0.  0.
          5    1    4    4  502    0  0.19865340032E+02  0.28029196660E+02 -0.23899530300E+02  0.42113479417E+02  0.47000000000E+01 0.  1.
         -5    1    4    4    0  502  0.32594892399E+02 -0.11345633151E+01 -0.45516833669E+03  0.45635952819E+03  0.47000000000E+01 0.  1.
          5    1    5    5  503    0  0.18741240222E+02 -0.68144963954E+01 -0.34647489762E+01  0.20778978118E+02  0.47000000000E+01 0.  1.
         -5    1    5    5    0  503 -0.71201472653E+02 -0.20080136950E+02 -0.33471306634E+03  0.34282326115E+03  0.47000000000E+01 0.  1.
<mgrwt>
<rscale>  0 0.27437789E+03</rscale>
<asrwt>0</asrwt>
<pdfrwt beam="1">  1        2 0.12917854E+00 0.27437789E+03</pdfrwt>
<pdfrwt beam="2">  1       -2 0.34484278E-02 0.27437789E+03</pdfrwt>
<totfact> 0.11413906E+04</totfact>
</mgrwt>
</event>
<event>
 9    1  0.2094635E-002  0.2758670E+03  0.7818608E-02  0.1097968E+00
         -1   -1    0    0    0  501 -0.00000000000E+00  0.00000000000E+00  0.28251539656E+03  0.28251539656E+03  0.00000000000E+00 0. -1.
          1   -1    0    0  501    0  0.00000000000E+00 -0.00000000000E+00 -0.67343754174E+02  0.67343754174E+02  0.00000000000E+00 0. -1.
         36    2    1    2    0    0  0.00000000000E+00  0.35527136788E-14  0.21517164239E+03  0.34985915074E+03  0.27586697821E+03 0.  0.
         25    2    3    3    0    0  0.44633859125E+02 -0.20742470371E+02  0.12588537580E+03  0.18417528217E+03  0.12510385792E+03 0.  0.
         25    2    3    3    0    0 -0.44633859125E+02  0.20742470371E+02  0.89286266588E+02  0.16568386856E+03  0.13060120766E+03 0.  0.
          5    1    4    4  502    0 -0.35604585377E+02  0.16806360457E+02  0.15534065005E+02  0.42585648137E+02  0.47000000000E+01 0.  1.
         -5    1    4    4    0  502  0.80238444502E+02 -0.37548830827E+02  0.11035131079E+03  0.14158963404E+03  0.47000000000E+01 0.  1.
          5    1    5    5  503    0  0.26057107849E+02  0.29502872107E+02  0.85446103060E+02  0.94194048964E+02  0.47000000000E+01 0. -1.
         -5    1    5    5    0  503 -0.70690966974E+02 -0.87604017362E+01  0.38401635279E+01  0.71489819599E+02  0.47000000000E+01 0. -1.
<mgrwt>
<rscale>  0 0.27586698E+03</rscale>
<asrwt>0</asrwt>
<pdfrwt beam="1">  1        1 0.10360578E-01 0.27586698E+03</pdfrwt>
<pdfrwt beam="2">  1       -1 0.43463906E-01 0.27586698E+03</pdfrwt>
<totfact> 0.32373076E+03</totfact>
</mgrwt>
</event>
<event>
 9    1  0.2094635E-002  0.2743836E+03  0.7818608E-02  0.1098797E+00
         -2   -1    0    0    0  501 -0.00000000000E+00  0.00000000000E+00  0.25600003528E+03  0.25600003528E+03  0.00000000000E+00 0.  1.
          2   -1    0    0  501    0  0.00000000000E+00 -0.00000000000E+00 -0.73521838158E+02  0.73521838158E+02  0.00000000000E+00 0.  1.
         36    2    1    2    0    0 -0.71054273576E-14  0.00000000000E+00  0.18247819712E+03  0.32952187343E+03  0.27438362314E+03 0.  0.
         25    2    3    3    0    0 -0.59078378703E+02  0.30454546879E+01  0.80497743003E+02  0.15800823825E+03  0.12242216753E+03 0.  0.
         25    2    3    3    0    0  0.59078378703E+02 -0.30454546879E+01  0.10198045412E+03  0.17151363518E+03  0.12456879388E+03 0.  0.
          5    1    4    4  502    0 -0.45948326841E+02  0.17386330585E+02  0.11103135427E+03  0.12150549314E+03  0.47000000000E+01 0. -1.
         -5    1    4    4    0  502 -0.13130051863E+02 -0.14340875897E+02 -0.30533611272E+02  0.36502745112E+02  0.47000000000E+01 0. -1.
          5    1    5    5  503    0  0.94900794200E+02 -0.96533386308E+01  0.49820191470E+02  0.10771949296E+03  0.47000000000E+01 0.  1.
         -5    1    5    5    0  503 -0.35822415497E+02  0.66078839428E+01  0.52160262646E+02  0.63794142220E+02  0.47000000000E+01 0.  1.
<mgrwt>
<rscale>  0 0.27438362E+03</rscale>
<asrwt>0</asrwt>
<pdfrwt beam="1">  1        2 0.11311052E-01 0.27438362E+03</pdfrwt>
<pdfrwt beam="2">  1       -2 0.39384621E-01 0.27438362E+03</pdfrwt>
<totfact> 0.33580676E+03</totfact>
</mgrwt>
</event>
<event>
 9    1  0.2094635E-002  0.2744954E+03  0.7818608E-02  0.1098734E+00
          2   -1    0    0  501    0  0.00000000000E+00  0.00000000000E+00  0.57680249554E+03  0.57680249554E+03  0.00000000000E+00 0. -1.
         -2   -1    0    0    0  501 -0.00000000000E+00 -0.00000000000E+00 -0.32657514621E+02  0.32657514621E+02  0.00000000000E+00 0. -1.
         36    2    1    2    0    0  0.17763568394E-14  0.00000000000E+00  0.54414498091E+03  0.60946001016E+03  0.27449543480E+03 0.  0.
         25    2    3    3    0    0  0.12459066092E+02 -0.63178229297E+02  0.27487881650E+03  0.30875760456E+03  0.12500471043E+03 0.  0.
         25    2    3    3    0    0 -0.12459066092E+02  0.63178229297E+02  0.26926616442E+03  0.30070240560E+03  0.11734970151E+03 0.  0.
          5    1    4    4  502    0  0.48109137309E+01 -0.93706429820E+02  0.25369251354E+03  0.27052915057E+03  0.47000000000E+01 0. -1.
         -5    1    4    4    0  502  0.76481523610E+01  0.30528200523E+02  0.21186302954E+02  0.38228453991E+02  0.47000000000E+01 0. -1.
          5    1    5    5  503    0 -0.39383094430E+02 -0.19025855999E+02  0.12394499407E+03  0.13151981934E+03  0.47000000000E+01 0. -1.
         -5    1    5    5    0  503  0.26924028338E+02  0.82204085297E+02  0.14532117034E+03  0.16918258625E+03  0.47000000000E+01 0. -1.
<mgrwt>
<rscale>  0 0.27449543E+03</rscale>
<asrwt>0</asrwt>
<pdfrwt beam="1">  1        2 0.88738838E-01 0.27449543E+03</pdfrwt>
<pdfrwt beam="2">  1       -2 0.50242334E-02 0.27449543E+03</pdfrwt>
<totfact> 0.10217457E+04</totfact>
</mgrwt>
</event>
<event>
 9    1  0.2094635E-002  0.2795771E+03  0.7818608E-02  0.1095920E+00
         -2   -1    0    0    0  501 -0.00000000000E+00  0.00000000000E+00  0.10333024486E+03  0.10333024486E+03  0.00000000000E+00 0. -1.
          2   -1    0    0  501    0  0.00000000000E+00 -0.00000000000E+00 -0.18911050612E+03  0.18911050612E+03  0.00000000000E+00 0. -1.
         36    2    1    2    0    0  0.00000000000E+00 -0.35527136788E-14 -0.85780261269E+02  0.29244075098E+03  0.27957707275E+03 0.  0.
         25    2    3    3    0    0 -0.51804550679E+01  0.23220111169E+02  0.12594366480E+02  0.12703362970E+03  0.12414875887E+03 0.  0.
         25    2    3    3    0    0  0.51804550679E+01 -0.23220111169E+02 -0.98374627749E+02  0.16540712128E+03  0.13082789347E+03 0.  0.
          5    1    4    4  502    0 -0.31550485265E+02  0.17869696405E+02  0.61193414779E+02  0.71284522740E+02  0.47000000000E+01 0.  1.
         -5    1    4    4    0  502  0.26370030197E+02  0.53504147649E+01 -0.48599048299E+02  0.55749106955E+02  0.47000000000E+01 0.  1.
          5    1    5    5  503    0 -0.16282515824E+02  0.50838564259E+02 -0.26049373176E+02  0.59584727744E+02  0.47000000000E+01 0.  1.
         -5    1    5    5    0  503  0.21462970891E+02 -0.74058675428E+02 -0.72325254573E+02  0.10582239354E+03  0.47000000000E+01 0.  1.
<mgrwt>
<rscale>  0 0.27957707E+03</rscale>
<asrwt>0</asrwt>
<pdfrwt beam="1">  1        2 0.29093924E-01 0.27957707E+03</pdfrwt>
<pdfrwt beam="2">  1       -2 0.15896961E-01 0.27957707E+03</pdfrwt>
<totfact> 0.56007689E+03</totfact>
</mgrwt>
</event>
<event>
 9    1  0.2094635E-002  0.2745735E+03  0.7818608E-02  0.1098690E+00
         -2   -1    0    0    0  501 -0.00000000000E+00  0.00000000000E+00  0.15231665809E+03  0.15231665809E+03  0.00000000000E+00 0. -1.
          2   -1    0    0  501    0  0.00000000000E+00 -0.00000000000E+00 -0.12373993961E+03  0.12373993961E+03  0.00000000000E+00 0. -1.
         36    2    1    2    0    0  0.00000000000E+00 -0.17763568394E-14  0.28576718478E+02  0.27605659770E+03  0.27457351711E+03 0.  0.
         25    2    3    3    0    0 -0.46361717193E+02  0.48045358203E+01 -0.13701158011E+02  0.13522793071E+03  0.12619975883E+03 0.  0.
         25    2    3    3    0    0  0.46361717193E+02 -0.48045358203E+01  0.42277876488E+02  0.14082866699E+03  0.12598730976E+03 0.  0.
          5    1    4    4  502    0 -0.81613207835E+02 -0.91562490637E+00 -0.39623309825E+02  0.90849605082E+02  0.47000000000E+01 0. -1.
         -5    1    4    4    0  502  0.35251490641E+02  0.57201607267E+01  0.25922151814E+02  0.44378325631E+02  0.47000000000E+01 0. -1.
          5    1    5    5  503    0  0.82873720550E+02  0.23261072107E+02  0.16253344695E+02  0.87723384836E+02  0.47000000000E+01 0.  1.
         -5    1    5    5    0  503 -0.36512003356E+02 -0.28065607927E+02  0.26024531794E+02  0.53105282152E+02  0.47000000000E+01 0.  1.
<mgrwt>
<rscale>  0 0.27457352E+03</rscale>
<asrwt>0</asrwt>
<pdfrwt beam="1">  1        2 0.19036914E-01 0.27457352E+03</pdfrwt>
<pdfrwt beam="2">  1       -2 0.23433332E-01 0.27457352E+03</pdfrwt>
<totfact> 0.46575079E+03</totfact>
</mgrwt>
</event>
<event>
 9    1  0.2094635E-002  0.2748320E+03  0.7818608E-02  0.1098546E+00
          2   -1    0    0  501    0  0.00000000000E+00  0.00000000000E+00  0.99571466771E+03  0.99571466771E+03  0.00000000000E+00 0.  1.
         -2   -1    0    0    0  501 -0.00000000000E+00 -0.00000000000E+00 -0.18964429072E+02  0.18964429072E+02  0.00000000000E+00 0.  1.
         36    2    1    2    0    0  0.71054273576E-14 -0.71054273576E-14  0.97675023864E+03  0.10146790968E+04  0.27483202282E+03 0.  0.
         25    2    3    3    0    0  0.22394249200E+02  0.44458617514E+02  0.45951609136E+03  0.48140940981E+03  0.13461764582E+03 0.  0.
         25    2    3    3    0    0 -0.22394249200E+02 -0.44458617514E+02  0.51723414727E+03  0.53326968697E+03  0.11986377628E+03 0.  0.
          5    1    4    4  502    0  0.39909993533E+02  0.57381466926E+02  0.10517782573E+03  0.12637209089E+03  0.47000000000E+01 0. -1.
         -5    1    4    4    0  502 -0.17515744333E+02 -0.12922849411E+02  0.35433826564E+03  0.35503731893E+03  0.47000000000E+01 0. -1.
          5    1    5    5  503    0  0.37029238097E+02  0.87973975879E+01  0.79128501875E+02  0.87931612559E+02  0.47000000000E+01 0.  1.
         -5    1    5    5    0  503 -0.59423487297E+02 -0.53256015102E+02  0.43810564540E+03  0.44533807441E+03  0.47000000000E+01 0.  1.
<mgrwt>
<rscale>  0 0.27483202E+03</rscale>
<asrwt>0</asrwt>
<pdfrwt beam="1">  1        2 0.15318683E+00 0.27483202E+03</pdfrwt>
<pdfrwt beam="2">  1       -2 0.29176052E-02 0.27483202E+03</pdfrwt>
<totfact> 0.11634985E+04</totfact>
</mgrwt>
</event>
<event>
 9    1  0.2094635E-002  0.2749549E+03  0.7818608E-02  0.1098477E+00
         -1   -1    0    0    0  501 -0.00000000000E+00  0.00000000000E+00  0.18086449416E+02  0.18086449416E+02  0.00000000000E+00 0. -1.
          1   -1    0    0  501    0  0.00000000000E+00 -0.00000000000E+00 -0.10449841055E+04  0.10449841055E+04  0.00000000000E+00 0. -1.
         36    2    1    2    0    0  0.00000000000E+00 -0.71054273576E-14 -0.10268976560E+04  0.10630705549E+04  0.27495492113E+03 0.  0.
         25    2    3    3    0    0 -0.28137609807E+02 -0.30906384937E+02 -0.73158683505E+03  0.74107297906E+03  0.11055737582E+03 0.  0.
         25    2    3    3    0    0  0.28137609807E+02  0.30906384937E+02 -0.29531082098E+03  0.32199757581E+03  0.12135496744E+03 0.  0.
          5    1    4    4  502    0 -0.30773099656E+02 -0.18626121907E+02 -0.65690658750E+02  0.75041779875E+02  0.47000000000E+01 0.  1.
         -5    1    4    4    0  502  0.26354898490E+01 -0.12280263030E+02 -0.66589617630E+03  0.66603119918E+03  0.47000000000E+01 0.  1.
          5    1    5    5  503    0  0.70180793697E+02  0.15291189186E+02 -0.11134724405E+03  0.13258756740E+03  0.47000000000E+01 0.  1.
         -5    1    5    5    0  503 -0.42043183890E+02  0.15615195751E+02 -0.18396357693E+03  0.18941000841E+03  0.47000000000E+01 0.  1.
<mgrwt>
<rscale>  0 0.27495492E+03</rscale>
<asrwt>0</asrwt>
<pdfrwt beam="1">  1        1 0.16076680E+00 0.27495492E+03</pdfrwt>
<pdfrwt beam="2">  1       -1 0.27825304E-02 0.27495492E+03</pdfrwt>
<totfact> 0.62377885E+03</totfact>
</mgrwt>
</event>
<event>
 9    1  0.2094635E-002  0.2750563E+03  0.7818608E-02  0.1098420E+00
          2   -1    0    0  501    0  0.00000000000E+00  0.00000000000E+00  0.58702041564E+03  0.58702041564E+03  0.00000000000E+00 0. -1.
         -2   -1    0    0    0  501 -0.00000000000E+00 -0.00000000000E+00 -0.32220328743E+02  0.32220328743E+02  0.00000000000E+00 0. -1.
         36    2    1    2    0    0  0.00000000000E+00  0.00000000000E+00  0.55480008690E+03  0.61924074439E+03  0.27505629075E+03 0.  0.
         25    2    3    3    0    0 -0.21321213749E+02  0.44581094741E+02  0.33928269528E+03  0.36547442522E+03  0.12655725981E+03 0.  0.
         25    2    3    3    0    0  0.21321213749E+02 -0.44581094741E+02  0.21551739162E+03  0.25376631916E+03  0.12452923547E+03 0.  0.
          5    1    4    4  502    0 -0.66562930360E+00  0.80772983315E+02  0.28841307987E+03  0.29954784682E+03  0.47000000000E+01 0. -1.
         -5    1    4    4    0  502 -0.20655584445E+02 -0.36191888574E+02  0.50869615413E+02  0.65926578400E+02  0.47000000000E+01 0. -1.
          5    1    5    5  503    0  0.68274656225E+02 -0.29217851581E+02  0.17334388380E+03  0.18864067320E+03  0.47000000000E+01 0.  1.
         -5    1    5    5    0  503 -0.46953442476E+02 -0.15363243160E+02  0.42173507817E+02  0.65125645965E+02  0.47000000000E+01 0.  1.
<mgrwt>
<rscale>  0 0.27505629E+03</rscale>
<asrwt>0</asrwt>
<pdfrwt beam="1">  1        2 0.90310826E-01 0.27505629E+03</pdfrwt>
<pdfrwt beam="2">  1       -2 0.49569741E-02 0.27505629E+03</pdfrwt>
<totfact> 0.10220638E+04</totfact>
</mgrwt>
</event>
<event>
 9    1  0.2094635E-002  0.2738904E+03  0.7818608E-02  0.1099073E+00
          1   -1    0    0  501    0  0.00000000000E+00  0.00000000000E+00  0.23251407153E+03  0.23251407153E+03  0.00000000000E+00 0. -1.
         -1   -1    0    0    0  501 -0.00000000000E+00 -0.00000000000E+00 -0.80657430619E+02  0.80657430619E+02  0.00000000000E+00 0. -1.
         36    2    1    2    0    0  0.00000000000E+00  0.71054273576E-14  0.15185664091E+03  0.31317150215E+03  0.27389039846E+03 0.  0.
         25    2    3    3    0    0  0.19332486504E+02  0.49516317132E+02  0.57188728889E+02  0.14867742944E+03  0.12652595234E+03 0.  0.
         25    2    3    3    0    0 -0.19332486504E+02 -0.49516317132E+02  0.94667912019E+02  0.16449407271E+03  0.12357457543E+03 0.  0.
          5    1    4    4  502    0  0.34711239793E+02 -0.12266371610E+01 -0.30258173744E+02  0.46303583933E+02  0.47000000000E+01 0. -1.
         -5    1    4    4    0  502 -0.15378753290E+02  0.50742954293E+02  0.87446902633E+02  0.10237384550E+03  0.47000000000E+01 0. -1.
          5    1    5    5  503    0  0.45471121600E+02  0.95608401700E+01  0.32293528710E+02  0.56780230370E+02  0.47000000000E+01 0.  1.
         -5    1    5    5    0  503 -0.64803608104E+02 -0.59077157302E+02  0.62374383309E+02  0.10771384234E+03  0.47000000000E+01 0.  1.
<mgrwt>
<rscale>  0 0.27389040E+03</rscale>
<asrwt>0</asrwt>
<pdfrwt beam="1">  1        1 0.35771395E-01 0.27389040E+03</pdfrwt>
<pdfrwt beam="2">  1       -1 0.12408836E-01 0.27389040E+03</pdfrwt>
<totfact> 0.52241112E+03</totfact>
</mgrwt>
</event>
<event>
 9    1  0.2094635E-002  0.2749089E+03  0.7818608E-02  0.1098503E+00
          1   -1    0    0  501    0  0.00000000000E+00  0.00000000000E+00  0.30282189013E+02  0.30282189013E+02  0.00000000000E+00 0. -1.
         -1   -1    0    0    0  501 -0.00000000000E+00 -0.00000000000E+00 -0.62392194477E+03  0.62392194477E+03  0.00000000000E+00 0. -1.
         36    2    1    2    0    0  0.00000000000E+00 -0.35527136788E-14 -0.59363975575E+03  0.65420413378E+03  0.27490887407E+03 0.  0.
         25    2    3    3    0    0 -0.67110411029E+02 -0.28060734947E+02 -0.27723636202E+03  0.30845830526E+03  0.11399698918E+03 0.  0.
         25    2    3    3    0    0  0.67110411029E+02  0.28060734947E+02 -0.31640339373E+03  0.34574582852E+03  0.11890272604E+03 0.  0.
          5    1    4    4  502    0 -0.18900924524E+02 -0.68111025743E+01  0.50638925491E+01  0.21245448310E+02  0.47000000000E+01 0. -1.
         -5    1    4    4    0  502 -0.48209486505E+02 -0.21249632373E+02 -0.28230025457E+03  0.28721285695E+03  0.47000000000E+01 0. -1.
          5    1    5    5  503    0  0.10096760524E+03  0.15458893493E+02 -0.21722125901E+03  0.24008456856E+03  0.47000000000E+01 0.  1.
         -5    1    5    5    0  503 -0.33857194213E+02  0.12601841454E+02 -0.99182134717E+02  0.10566125995E+03  0.47000000000E+01 0.  1.
<mgrwt>
<rscale>  0 0.27490887E+03</rscale>
<asrwt>0</asrwt>
<pdfrwt beam="1">  1        1 0.46587984E-02 0.27490887E+03</pdfrwt>
<pdfrwt beam="2">  1       -1 0.95987990E-01 0.27490887E+03</pdfrwt>
<totfact> 0.20254589E+03</totfact>
</mgrwt>
</event>
<event>
 9    1  0.2094635E-002  0.2724955E+03  0.7818608E-02  0.1099860E+00
          1   -1    0    0  501    0  0.00000000000E+00  0.00000000000E+00  0.82946055432E+02  0.82946055432E+02  0.00000000000E+00 0.  1.
         -1   -1    0    0    0  501 -0.00000000000E+00 -0.00000000000E+00 -0.22380143485E+03  0.22380143485E+03  0.00000000000E+00 0.  1.
         36    2    1    2    0    0 -0.71054273576E-14  0.00000000000E+00 -0.14085537942E+03  0.30674749028E+03  0.27249547681E+03 0.  0.
         25    2    3    3    0    0  0.25010333324E+02 -0.11743322793E+02 -0.19831362921E+02  0.13367196832E+03  0.12927292739E+03 0.  0.
         25    2    3    3    0    0 -0.25010333324E+02  0.11743322793E+02 -0.12102401650E+03  0.17307552196E+03  0.12060224430E+03 0.  0.
          5    1    4    4  502    0  0.43880722513E+02  0.62191647882E+00  0.46104467349E+02  0.63824889329E+02  0.47000000000E+01 0.  1.
         -5    1    4    4    0  502 -0.18870389189E+02 -0.12365239272E+02 -0.65935830270E+02  0.69847078992E+02  0.47000000000E+01 0.  1.
          5    1    5    5  503    0  0.18572207046E+02 -0.27995500932E+02  0.45828142453E+01  0.34231084315E+02  0.47000000000E+01 0.  1.
         -5    1    5    5    0  503 -0.43582540369E+02  0.39738823725E+02 -0.12560683074E+03  0.13884443765E+03  0.47000000000E+01 0.  1.
<mgrwt>
<rscale>  0 0.27249548E+03</rscale>
<asrwt>0</asrwt>
<pdfrwt beam="1">  1        1 0.12760931E-01 0.27249548E+03</pdfrwt>
<pdfrwt beam="2">  1       -1 0.34430990E-01 0.27249548E+03</pdfrwt>
<totfact> 0.36985580E+03</totfact>
</mgrwt>
</event>
<event>
 9    1  0.2094635E-002  0.2748893E+03  0.7818608E-02  0.1098513E+00
         -1   -1    0    0    0  501 -0.00000000000E+00  0.00000000000E+00  0.20769426433E+02  0.20769426433E+02  0.00000000000E+00 0. -1.
          1   -1    0    0  501    0  0.00000000000E+00 -0.00000000000E+00 -0.90955968751E+03  0.90955968751E+03  0.00000000000E+00 0. -1.
         36    2    1    2    0    0  0.00000000000E+00  0.35527136788E-14 -0.88879026108E+03  0.93032911394E+03  0.27488930875E+03 0.  0.
         25    2    3    3    0    0  0.35113328776E+02 -0.21759137492E+02 -0.35215547113E+03  0.37842588736E+03  0.13223566255E+03 0.  0.
         25    2    3    3    0    0 -0.35113328776E+02  0.21759137492E+02 -0.53663478994E+03  0.55190322659E+03  0.12212234773E+03 0.  0.
          5    1    4    4  502    0  0.75731736354E+02  0.78920225799E+01 -0.13116078807E+03  0.15173273292E+03  0.47000000000E+01 0.  1.
         -5    1    4    4    0  502 -0.40618407578E+02 -0.29651160072E+02 -0.22099468306E+03  0.22669315443E+03  0.47000000000E+01 0.  1.
          5    1    5    5  503    0  0.30817476135E+02  0.30167949306E+02 -0.36853629050E+03  0.37108073167E+03  0.47000000000E+01 0. -1.
         -5    1    5    5    0  503 -0.65930804911E+02 -0.84088118143E+01 -0.16809849944E+03  0.18082249491E+03  0.47000000000E+01 0. -1.
<mgrwt>
<rscale>  0 0.27488931E+03</rscale>
<asrwt>0</asrwt>
<pdfrwt beam="1">  1        1 0.13993221E+00 0.27488931E+03</pdfrwt>
<pdfrwt beam="2">  1       -1 0.31952974E-02 0.27488931E+03</pdfrwt>
<totfact> 0.64402715E+03</totfact>
</mgrwt>
</event>
<event>
 9    1  0.2094635E-002  0.2748240E+03  0.7818608E-02  0.1098550E+00
         -2   -1    0    0    0  501 -0.00000000000E+00  0.00000000000E+00  0.93343061599E+03  0.93343061599E+03  0.00000000000E+00 0. -1.
          2   -1    0    0  501    0  0.00000000000E+00 -0.00000000000E+00 -0.20228673424E+02  0.20228673424E+02  0.00000000000E+00 0. -1.
         36    2    1    2    0    0 -0.53290705182E-14 -0.71054273576E-14  0.91320194257E+03  0.95365928942E+03  0.27482403894E+03 0.  0.
         25    2    3    3    0    0 -0.13332990829E+02  0.46609747849E+02  0.37177272323E+03  0.39502290495E+03  0.12441021042E+03 0.  0.
         25    2    3    3    0    0  0.13332990829E+02 -0.46609747849E+02  0.54142921934E+03  0.55863638446E+03  0.12875858518E+03 0.  0.
          5    1    4    4  502    0 -0.11875190500E+02 -0.36570296984E+02  0.53676324138E+02  0.66193991751E+02  0.47000000000E+01 0.  1.
         -5    1    4    4    0  502 -0.14578003295E+01  0.83180044833E+02  0.31809639910E+03  0.32882891320E+03  0.47000000000E+01 0.  1.
          5    1    5    5  503    0 -0.52252100251E+02 -0.48998412264E+02  0.28294865982E+03  0.29191293305E+03  0.47000000000E+01 0. -1.
         -5    1    5    5    0  503  0.65585091080E+02  0.23886644155E+01  0.25848055951E+03  0.26672345142E+03  0.47000000000E+01 0. -1.
<mgrwt>
<rscale>  0 0.27482404E+03</rscale>
<asrwt>0</asrwt>
<pdfrwt beam="1">  1        2 0.31121043E-02 0.27482404E+03</pdfrwt>
<pdfrwt beam="2">  1       -2 0.14360468E+00 0.27482404E+03</pdfrwt>
<totfact> 0.10572493E+03</totfact>
</mgrwt>
</event>
<event>
 9    1  0.2094635E-002  0.2751960E+03  0.7818608E-02  0.1098342E+00
         -1   -1    0    0    0  501 -0.00000000000E+00  0.00000000000E+00  0.34472315709E+02  0.34472315709E+02  0.00000000000E+00 0.  1.
          1   -1    0    0  501    0  0.00000000000E+00 -0.00000000000E+00 -0.54922941735E+03  0.54922941735E+03  0.00000000000E+00 0.  1.
         36    2    1    2    0    0  0.71054273576E-14  0.00000000000E+00 -0.51475710164E+03  0.58370173306E+03  0.27519600194E+03 0.  0.
         25    2    3    3    0    0 -0.66579999172E+01 -0.54644805340E+02 -0.30345314928E+03  0.33198917408E+03  0.12289269378E+03 0.  0.
         25    2    3    3    0    0  0.66579999172E+01  0.54644805340E+02 -0.21130395236E+03  0.25171255898E+03  0.12521768386E+03 0.  0.
          5    1    4    4  502    0  0.40754239745E+02 -0.65626696297E+02 -0.23815041680E+03  0.25041062746E+03  0.47000000000E+01 0. -1.
         -5    1    4    4    0  502 -0.47412239662E+02  0.10981890957E+02 -0.65302732483E+02  0.81578546619E+02  0.47000000000E+01 0. -1.
          5    1    5    5  503    0  0.38072649579E+02 -0.16631113373E+02 -0.22640047204E+02  0.47547684648E+02  0.47000000000E+01 0.  1.
         -5    1    5    5    0  503 -0.31414649662E+02  0.71275918712E+02 -0.18866390516E+03  0.20416487433E+03  0.47000000000E+01 0.  1.
<mgrwt>
<rscale>  0 0.27519600E+03</rscale>
<asrwt>0</asrwt>
<pdfrwt beam="1">  1        1 0.84496826E-01 0.27519600E+03</pdfrwt>
<pdfrwt beam="2">  1       -1 0.53034336E-02 0.27519600E+03</pdfrwt>
<totfact> 0.63756280E+03</totfact>
</mgrwt>
</event>
<event>
 9    1  0.2094635E-002  0.2752121E+03  0.7818608E-02  0.1098333E+00
          1   -1    0    0  501    0  0.00000000000E+00  0.00000000000E+00  0.74171043451E+03  0.74171043451E+03  0.00000000000E+00 0. -1.
         -1   -1    0    0    0  501 -0.00000000000E+00 -0.00000000000E+00 -0.25529399329E+02  0.25529399329E+02  0.00000000000E+00 0. -1.
         36    2    1    2    0    0  0.71054273576E-14  0.35527136788E-14  0.71618103518E+03  0.76723983384E+03  0.27521207727E+03 0.  0.
         25    2    3    3    0    0  0.40355399882E+02  0.12256707542E+02  0.23472064034E+03  0.26872443915E+03  0.12385580331E+03 0.  0.
         25    2    3    3    0    0 -0.40355399882E+02 -0.12256707542E+02  0.48146039483E+03  0.49851539469E+03  0.12220761746E+03 0.  0.
          5    1    4    4  502    0  0.79743690237E+02 -0.73688891556E+01  0.18784293745E+03  0.20425576077E+03  0.47000000000E+01 0.  1.
         -5    1    4    4    0  502 -0.39388290356E+02  0.19625596698E+02  0.46877702894E+02  0.64468678376E+02  0.47000000000E+01 0.  1.
          5    1    5    5  503    0 -0.42438472897E+01 -0.59663757699E+02  0.14731302749E+03  0.15906285641E+03  0.47000000000E+01 0.  1.
         -5    1    5    5    0  503 -0.36111552592E+02  0.47407050157E+02  0.33414736735E+03  0.33945253827E+03  0.47000000000E+01 0.  1.
<mgrwt>
<rscale>  0 0.27521208E+03</rscale>
<asrwt>0</asrwt>
<pdfrwt beam="1">  1        1 0.11410928E+00 0.27521208E+03</pdfrwt>
<pdfrwt beam="2">  1       -1 0.39276005E-02 0.27521208E+03</pdfrwt>
<totfact> 0.65210923E+03</totfact>
</mgrwt>
</event>
<event>
 9    1  0.2094635E-002  0.2761079E+03  0.7818608E-02  0.1097834E+00
         -2   -1    0    0    0  501 -0.00000000000E+00  0.00000000000E+00  0.13195652130E+03  0.13195652130E+03  0.00000000000E+00 0.  1.
          2   -1    0    0  501    0  0.00000000000E+00 -0.00000000000E+00 -0.14443316052E+03  0.14443316052E+03  0.00000000000E+00 0.  1.
         36    2    1    2    0    0  0.00000000000E+00  0.00000000000E+00 -0.12476639222E+02  0.27638968181E+03  0.27610793123E+03 0.  0.
         25    2    3    3    0    0 -0.65353809052E+02 -0.54188354397E+02  0.51940760789E+01  0.12603926533E+03  0.93013009143E+02 0.  0.
         25    2    3    3    0    0  0.65353809052E+02  0.54188354397E+02 -0.17670715300E+02  0.15035041648E+03  0.12282302490E+03 0.  0.
          5    1    4    4  502    0 -0.14293527754E+02  0.15505052617E+01 -0.36552758705E+02  0.39558857051E+02  0.47000000000E+01 0.  1.
         -5    1    4    4    0  502 -0.51060281297E+02 -0.55738859659E+02  0.41746834784E+02  0.86480408283E+02  0.47000000000E+01 0.  1.
          5    1    5    5  503    0  0.53663349446E+02  0.91634170749E+02 -0.27176185683E+02  0.10971422602E+03  0.47000000000E+01 0. -1.
         -5    1    5    5    0  503  0.11690459606E+02 -0.37445816352E+02  0.95054703826E+01  0.40636190462E+02  0.47000000000E+01 0. -1.
<mgrwt>
<rscale>  0 0.27610793E+03</rscale>
<asrwt>0</asrwt>
<pdfrwt beam="1">  1        2 0.22220486E-01 0.27610793E+03</pdfrwt>
<pdfrwt beam="2">  1       -2 0.20301003E-01 0.27610793E+03</pdfrwt>
<totfact> 0.50053115E+03</totfact>
</mgrwt>
</event>
<event>
 9    1  0.2094635E-002  0.2743665E+03  0.7818608E-02  0.1098806E+00
          2   -1    0    0  501    0  0.00000000000E+00  0.00000000000E+00  0.29013569116E+04  0.29013569116E+04  0.00000000000E+00 0.  1.
         -2   -1    0    0    0  501 -0.00000000000E+00 -0.00000000000E+00 -0.64863595504E+01  0.64863595504E+01  0.00000000000E+00 0.  1.
         36    2    1    2    0    0  0.00000000000E+00 -0.71054273576E-14  0.28948705520E+04  0.29078432711E+04  0.27436650023E+03 0.  0.
         25    2    3    3    0    0 -0.28941873104E+02 -0.54438778389E+02  0.13690413459E+04  0.13759979006E+04  0.12367215965E+03 0.  0.
         25    2    3    3    0    0  0.28941873104E+02  0.54438778389E+02  0.15258292061E+04  0.15318453705E+04  0.12080670640E+03 0.  0.
          5    1    4    4  502    0  0.13875807388E+02 -0.49611903298E+02  0.21473322940E+03  0.22087627484E+03  0.47000000000E+01 0. -1.
         -5    1    4    4    0  502 -0.42817680492E+02 -0.48268750908E+01  0.11543081165E+04  0.11551216258E+04  0.47000000000E+01 0. -1.
          5    1    5    5  503    0  0.12222931326E+02 -0.13226125223E+01  0.15278758868E+02  0.20166304238E+02  0.47000000000E+01 0.  1.
         -5    1    5    5    0  503  0.16718941779E+02  0.55761390912E+02  0.15105504472E+04  0.15116790662E+04  0.47000000000E+01 0.  1.
<mgrwt>
<rscale>  0 0.27436650E+03</rscale>
<asrwt>0</asrwt>
<pdfrwt beam="1">  1        2 0.44636157E+00 0.27436650E+03</pdfrwt>
<pdfrwt beam="2">  1       -2 0.99790378E-03 0.27436650E+03</pdfrwt>
<totfact> 0.50924432E+03</totfact>
</mgrwt>
</event>
<event>
 9    1  0.2094635E-002  0.2761931E+03  0.7818608E-02  0.1097787E+00
         -1   -1    0    0    0  501 -0.00000000000E+00  0.00000000000E+00  0.17914086660E+02  0.17914086660E+02  0.00000000000E+00 0.  1.
          1   -1    0    0  501    0  0.00000000000E+00 -0.00000000000E+00 -0.10645616980E+04  0.10645616980E+04  0.00000000000E+00 0.  1.
         36    2    1    2    0    0 -0.71054273576E-14  0.00000000000E+00 -0.10466476113E+04  0.10824757846E+04  0.27619305214E+03 0.  0.
         25    2    3    3    0    0  0.44868155557E+02  0.37277614180E+02 -0.46784552787E+03  0.48776753287E+03  0.12503981874E+03 0.  0.
         25    2    3    3    0    0 -0.44868155557E+02 -0.37277614180E+02 -0.57880208343E+03  0.59470825175E+03  0.12354465191E+03 0.  0.
          5    1    4    4  502    0 -0.14778502757E+02  0.67578186867E+02 -0.27447356682E+03  0.28309546865E+03  0.47000000000E+01 0.  1.
         -5    1    4    4    0  502  0.59646658314E+02 -0.30300572688E+02 -0.19337196105E+03  0.20467206422E+03  0.47000000000E+01 0.  1.
          5    1    5    5  503    0 -0.32050035879E+02  0.27035907020E+02 -0.42954510363E+03  0.43161236210E+03  0.47000000000E+01 0.  1.
         -5    1    5    5    0  503 -0.12818119678E+02 -0.64313521199E+02 -0.14925697980E+03  0.16309588965E+03  0.47000000000E+01 0.  1.
<mgrwt>
<rscale>  0 0.27619305E+03</rscale>
<asrwt>0</asrwt>
<pdfrwt beam="1">  1        1 0.16377872E+00 0.27619305E+03</pdfrwt>
<pdfrwt beam="2">  1       -1 0.27560134E-02 0.27619305E+03</pdfrwt>
<totfact> 0.61214137E+03</totfact>
</mgrwt>
</event>
<event>
 9    1  0.2094635E-002  0.2755350E+03  0.7818608E-02  0.1098153E+00
         -1   -1    0    0    0  501 -0.00000000000E+00  0.00000000000E+00  0.23120913128E+03  0.23120913128E+03  0.00000000000E+00 0. -1.
          1   -1    0    0  501    0  0.00000000000E+00 -0.00000000000E+00 -0.82089679517E+02  0.82089679517E+02  0.00000000000E+00 0. -1.
         36    2    1    2    0    0  0.00000000000E+00 -0.35527136788E-14  0.14911945176E+03  0.31329881080E+03  0.27553499588E+03 0.  0.
         25    2    3    3    0    0 -0.53175837613E+02 -0.26596036965E+02  0.77053617548E+02  0.15244565174E+03  0.11733455531E+03 0.  0.
         25    2    3    3    0    0  0.53175837613E+02  0.26596036965E+02  0.72065834217E+02  0.16085315906E+03  0.13093981606E+03 0.  0.
          5    1    4    4  502    0  0.34144148179E+02 -0.15907635751E+02  0.44584632073E+02  0.58555573152E+02  0.47000000000E+01 0.  1.
         -5    1    4    4    0  502 -0.87319985792E+02 -0.10688401215E+02  0.32468985475E+02  0.93890078587E+02  0.47000000000E+01 0.  1.
          5    1    5    5  503    0 -0.18975967894E+01  0.11849070139E+02  0.97427597430E+02  0.98276284411E+02  0.47000000000E+01 0.  1.
         -5    1    5    5    0  503  0.55073434402E+02  0.14746966826E+02 -0.25361763213E+02  0.62576874648E+02  0.47000000000E+01 0.  1.
<mgrwt>
<rscale>  0 0.27553500E+03</rscale>
<asrwt>0</asrwt>
<pdfrwt beam="1">  1        1 0.12629182E-01 0.27553500E+03</pdfrwt>
<pdfrwt beam="2">  1       -1 0.35570635E-01 0.27553500E+03</pdfrwt>
<totfact> 0.35446337E+03</totfact>
</mgrwt>
</event>
<event>
 9    1  0.2094635E-002  0.2738505E+03  0.7818608E-02  0.1099096E+00
          1   -1    0    0  501    0  0.00000000000E+00  0.00000000000E+00  0.44713039828E+02  0.44713039828E+02  0.00000000000E+00 0.  1.
         -1   -1    0    0    0  501 -0.00000000000E+00 -0.00000000000E+00 -0.41930766212E+03  0.41930766212E+03  0.00000000000E+00 0.  1.
         36    2    1    2    0    0 -0.71054273576E-14  0.00000000000E+00 -0.37459462230E+03  0.46402070195E+03  0.27385047158E+03 0.  0.
         25    2    3    3    0    0 -0.15070905529E+01  0.32418100861E+02 -0.26431422527E+03  0.29348849080E+03  0.12337049879E+03 0.  0.
         25    2    3    3    0    0  0.15070905529E+01 -0.32418100861E+02 -0.11028039703E+03  0.17053221115E+03  0.12596136108E+03 0.  0.
          5    1    4    4  502    0 -0.44341483472E+02  0.44669977424E+02 -0.22565229456E+03  0.23431308559E+03  0.47000000000E+01 0. -1.
         -5    1    4    4    0  502  0.42834392919E+02 -0.12251876563E+02 -0.38661930704E+02  0.59175405211E+02  0.47000000000E+01 0. -1.
          5    1    5    5  503    0 -0.31834364026E+02 -0.25743747073E+02  0.12483824427E+02  0.43059297702E+02  0.47000000000E+01 0.  1.
         -5    1    5    5    0  503  0.33341454579E+02 -0.66743537879E+01 -0.12276422146E+03  0.12747291344E+03  0.47000000000E+01 0.  1.
<mgrwt>
<rscale>  0 0.27385047E+03</rscale>
<asrwt>0</asrwt>
<pdfrwt beam="1">  1        1 0.68789292E-02 0.27385047E+03</pdfrwt>
<pdfrwt beam="2">  1       -1 0.64508871E-01 0.27385047E+03</pdfrwt>
<totfact> 0.26909398E+03</totfact>
</mgrwt>
</event>
<event>
 9    1  0.2094635E-002  0.2774486E+03  0.7818608E-02  0.1097091E+00
         -4   -1    0    0    0  501 -0.00000000000E+00  0.00000000000E+00  0.16750348859E+03  0.16750348859E+03  0.00000000000E+00 0.  1.
          4   -1    0    0  501    0  0.00000000000E+00 -0.00000000000E+00 -0.11488973421E+03  0.11488973421E+03  0.00000000000E+00 0.  1.
         36    2    1    2    0    0 -0.71054273576E-14 -0.71054273576E-14  0.52613754378E+02  0.28239322280E+03  0.27744859909E+03 0.  0.
         25    2    3    3    0    0 -0.20600414265E+02 -0.16747725827E+01 -0.39205445743E+02  0.12976796221E+03  0.12196505692E+03 0.  0.
         25    2    3    3    0    0  0.20600414265E+02  0.16747725827E+01  0.91819200121E+02  0.15262526059E+03  0.12015208166E+03 0.  0.
          5    1    4    4  502    0 -0.35146772076E+02  0.50824009238E+02  0.86614588786E+00  0.61977541990E+02  0.47000000000E+01 0.  1.
         -5    1    4    4    0  502  0.14546357811E+02 -0.52498781821E+02 -0.40071591631E+02  0.67790420223E+02  0.47000000000E+01 0.  1.
          5    1    5    5  503    0  0.38296341790E+02 -0.40790442667E+02  0.90328569828E+02  0.10635699570E+03  0.47000000000E+01 0.  1.
         -5    1    5    5    0  503 -0.17695927525E+02  0.42465215249E+02  0.14906302931E+01  0.46268264889E+02  0.47000000000E+01 0.  1.
<mgrwt>
<rscale>  0 0.27744860E+03</rscale>
<asrwt>0</asrwt>
<pdfrwt beam="1">  1        4 0.17675344E-01 0.27744860E+03</pdfrwt>
<pdfrwt beam="2">  1       -4 0.25769768E-01 0.27744860E+03</pdfrwt>
<totfact> 0.74914898E+02</totfact>
</mgrwt>
</event>
<event>
 9    1  0.2094635E-002  0.2746331E+03  0.7818608E-02  0.1098657E+00
         -2   -1    0    0    0  501 -0.00000000000E+00  0.00000000000E+00  0.31748587760E+02  0.31748587760E+02  0.00000000000E+00 0.  1.
          2   -1    0    0  501    0  0.00000000000E+00 -0.00000000000E+00 -0.59391118097E+03  0.59391118097E+03  0.00000000000E+00 0.  1.
         36    2    1    2    0    0  0.00000000000E+00  0.00000000000E+00 -0.56216259321E+03  0.62565976873E+03  0.27463314622E+03 0.  0.
         25    2    3    3    0    0  0.18391280830E+02 -0.99710655623E+01 -0.31657818930E+03  0.34102759607E+03  0.12506162474E+03 0.  0.
         25    2    3    3    0    0 -0.18391280830E+02  0.99710655623E+01 -0.24558440391E+03  0.28463217266E+03  0.14235909845E+03 0.  0.
          5    1    4    4  502    0 -0.41822787657E+02  0.25323475184E+02 -0.19168519681E+03  0.19787806508E+03  0.47000000000E+01 0.  1.
         -5    1    4    4    0  502  0.60214068487E+02 -0.35294540746E+02 -0.12489299249E+03  0.14314953099E+03  0.47000000000E+01 0.  1.
          5    1    5    5  503    0  0.39627320224E+02 -0.47381202277E+02 -0.11383149894E+03  0.12959553614E+03  0.47000000000E+01 0.  1.
         -5    1    5    5    0  503 -0.58018601055E+02  0.57352267839E+02 -0.13175290497E+03  0.15503663652E+03  0.47000000000E+01 0.  1.
<mgrwt>
<rscale>  0 0.27463315E+03</rscale>
<asrwt>0</asrwt>
<pdfrwt beam="1">  1        2 0.91370944E-01 0.27463315E+03</pdfrwt>
<pdfrwt beam="2">  1       -2 0.48843985E-02 0.27463315E+03</pdfrwt>
<totfact> 0.10311347E+04</totfact>
</mgrwt>
</event>
<event>
 9    1  0.2094635E-002  0.2744986E+03  0.7818608E-02  0.1098732E+00
          2   -1    0    0  501    0  0.00000000000E+00  0.00000000000E+00  0.12782879289E+04  0.12782879289E+04  0.00000000000E+00 0. -1.
         -2   -1    0    0    0  501 -0.00000000000E+00 -0.00000000000E+00 -0.14736408044E+02  0.14736408044E+02  0.00000000000E+00 0. -1.
         36    2    1    2    0    0  0.00000000000E+00 -0.71054273576E-14  0.12635515209E+04  0.12930243370E+04  0.27449861580E+03 0.  0.
         25    2    3    3    0    0 -0.48503170903E+02  0.16525320263E+02  0.75281646602E+03  0.76533574669E+03  0.12798644403E+03 0.  0.
         25    2    3    3    0    0  0.48503170903E+02 -0.16525320263E+02  0.51073505485E+03  0.52768859027E+03  0.12238998426E+03 0.  0.
          5    1    4    4  502    0 -0.85311578080E+01 -0.37500146329E+02  0.55522422238E+03  0.55657440540E+03  0.47000000000E+01 0. -1.
         -5    1    4    4    0  502 -0.39972013095E+02  0.54025466592E+02  0.19759224364E+03  0.20876134129E+03  0.47000000000E+01 0. -1.
          5    1    5    5  503    0  0.30201399530E+02  0.17162858732E+02  0.32204074222E+02  0.47601267314E+02  0.47000000000E+01 0. -1.
         -5    1    5    5    0  503  0.18301771373E+02 -0.33688178995E+02  0.47853098063E+03  0.48008732295E+03  0.47000000000E+01 0. -1.
<mgrwt>
<rscale>  0 0.27449862E+03</rscale>
<asrwt>0</asrwt>
<pdfrwt beam="1">  1        2 0.19665959E+00 0.27449862E+03</pdfrwt>
<pdfrwt beam="2">  1       -2 0.22671407E-02 0.27449862E+03</pdfrwt>
<totfact> 0.11579628E+04</totfact>
</mgrwt>
</event>
<event>
 9    1  0.2094635E-002  0.2747880E+03  0.7818608E-02  0.1098570E+00
          1   -1    0    0  501    0  0.00000000000E+00  0.00000000000E+00  0.68632878635E+03  0.68632878635E+03  0.00000000000E+00 0.  1.
         -1   -1    0    0    0  501 -0.00000000000E+00 -0.00000000000E+00 -0.27504469573E+02  0.27504469573E+02  0.00000000000E+00 0.  1.
         36    2    1    2    0    0 -0.17763568394E-14  0.00000000000E+00  0.65882431678E+03  0.71383325593E+03  0.27478798534E+03 0.  0.
         25    2    3    3    0    0 -0.12580296251E+01 -0.35516796937E+02  0.43046888966E+03  0.45152454477E+03  0.13155958371E+03 0.  0.
         25    2    3    3    0    0  0.12580296251E+01  0.35516796937E+02  0.22835542712E+03  0.26230871115E+03  0.12408317109E+03 0.  0.
          5    1    4    4  502    0  0.41575115689E+02 -0.48283614579E+02  0.37368784445E+03  0.37911013278E+03  0.47000000000E+01 0. -1.
         -5    1    4    4    0  502 -0.42833145315E+02  0.12766817642E+02  0.56781045205E+02  0.72414411996E+02  0.47000000000E+01 0. -1.
          5    1    5    5  503    0  0.10291820670E+02  0.78598849839E+02  0.10786134570E+03  0.13393976506E+03  0.47000000000E+01 0. -1.
         -5    1    5    5    0  503 -0.90337910453E+01 -0.43082052902E+02  0.12049408142E+03  0.12836894609E+03  0.47000000000E+01 0. -1.
<mgrwt>
<rscale>  0 0.27478799E+03</rscale>
<asrwt>0</asrwt>
<pdfrwt beam="1">  1        1 0.10558903E+00 0.27478799E+03</pdfrwt>
<pdfrwt beam="2">  1       -1 0.42314574E-02 0.27478799E+03</pdfrwt>
<totfact> 0.65416196E+03</totfact>
</mgrwt>
</event>
<event>
 9    1  0.2094635E-002  0.2755691E+03  0.7818608E-02  0.1098134E+00
          2   -1    0    0  501    0  0.00000000000E+00  0.00000000000E+00  0.61313901658E+03  0.61313901658E+03  0.00000000000E+00 0.  1.
         -2   -1    0    0    0  501 -0.00000000000E+00 -0.00000000000E+00 -0.30962931953E+02  0.30962931953E+02  0.00000000000E+00 0.  1.
         36    2    1    2    0    0  0.00000000000E+00  0.14210854715E-13  0.58217608463E+03  0.64410194853E+03  0.27556909586E+03 0.  0.
         25    2    3    3    0    0 -0.12860615517E+02  0.58865565135E+02  0.27804644338E+03  0.30968403268E+03  0.12232671511E+03 0.  0.
         25    2    3    3    0    0  0.12860615517E+02 -0.58865565135E+02  0.30412964125E+03  0.33441791585E+03  0.12533935363E+03 0.  0.
          5    1    4    4  502    0 -0.45485348825E+02  0.26682923900E+02  0.25044728497E+03  0.25598208518E+03  0.47000000000E+01 0. -1.
         -5    1    4    4    0  502  0.32624733307E+02  0.32182641235E+02  0.27599158415E+02  0.53701947502E+02  0.47000000000E+01 0. -1.
          5    1    5    5  503    0 -0.38076277351E+02  0.17884399595E+02  0.13867372893E+03  0.14499016429E+03  0.47000000000E+01 0.  1.
         -5    1    5    5    0  503  0.50936892869E+02 -0.76749964730E+02  0.16545591231E+03  0.18942775156E+03  0.47000000000E+01 0.  1.
<mgrwt>
<rscale>  0 0.27556910E+03</rscale>
<asrwt>0</asrwt>
<pdfrwt beam="1">  1        2 0.94329070E-01 0.27556910E+03</pdfrwt>
<pdfrwt beam="2">  1       -2 0.47635285E-02 0.27556910E+03</pdfrwt>
<totfact> 0.10322473E+04</totfact>
</mgrwt>
</event>
<event>
 9    1  0.2094635E-002  0.2777938E+03  0.7818608E-02  0.1096900E+00
          1   -1    0    0  501    0  0.00000000000E+00  0.00000000000E+00  0.98614516678E+03  0.98614516678E+03  0.00000000000E+00 0.  1.
         -1   -1    0    0    0  501 -0.00000000000E+00 -0.00000000000E+00 -0.19563393846E+02  0.19563393846E+02  0.00000000000E+00 0.  1.
         36    2    1    2    0    0  0.71054273576E-14 -0.71054273576E-14  0.96658177294E+03  0.10057085606E+04  0.27779378170E+03 0.  0.
         25    2    3    3    0    0  0.17911884443E+02  0.19588620100E+02  0.28711629749E+03  0.31439520570E+03  0.12531571108E+03 0.  0.
         25    2    3    3    0    0 -0.17911884443E+02 -0.19588620100E+02  0.67946547545E+03  0.69131335493E+03  0.12464458566E+03 0.  0.
          5    1    4    4  502    0  0.67842291189E+02  0.23594386045E+01  0.10848777735E+03  0.12806182592E+03  0.47000000000E+01 0. -1.
         -5    1    4    4    0  502 -0.49930406745E+02  0.17229181496E+02  0.17862852014E+03  0.18633337978E+03  0.47000000000E+01 0. -1.
          5    1    5    5  503    0 -0.16824681644E+02  0.47147765405E+02  0.43361416785E+03  0.43651955083E+03  0.47000000000E+01 0. -1.
         -5    1    5    5    0  503 -0.10872027998E+01 -0.66736385506E+02  0.24585130759E+03  0.25479380410E+03  0.47000000000E+01 0. -1.
<mgrwt>
<rscale>  0 0.27779378E+03</rscale>
<asrwt>0</asrwt>
<pdfrwt beam="1">  1        1 0.15171460E+00 0.27779378E+03</pdfrwt>
<pdfrwt beam="2">  1       -1 0.30097537E-02 0.27779378E+03</pdfrwt>
<totfact> 0.61466104E+03</totfact>
</mgrwt>
</event>
<event>
 9    1  0.2094635E-002  0.2769928E+03  0.7818608E-02  0.1097343E+00
         -1   -1    0    0    0  501 -0.00000000000E+00  0.00000000000E+00  0.66789971966E+03  0.66789971966E+03  0.00000000000E+00 0. -1.
          1   -1    0    0  501    0  0.00000000000E+00 -0.00000000000E+00 -0.28718762995E+02  0.28718762995E+02  0.00000000000E+00 0. -1.
         36    2    1    2    0    0  0.71054273576E-14  0.00000000000E+00  0.63918095666E+03  0.69661848265E+03  0.27699280679E+03 0.  0.
         25    2    3    3    0    0  0.40280358031E+02 -0.33469204957E+02  0.24187162160E+03  0.27790825214E+03  0.12644532553E+03 0.  0.
         25    2    3    3    0    0 -0.40280358031E+02  0.33469204957E+02  0.39730933506E+03  0.41871023052E+03  0.12132952849E+03 0.  0.
          5    1    4    4  502    0  0.25312233137E+02 -0.27083379012E+02  0.19802815453E+01  0.37419648316E+02  0.47000000000E+01 0.  1.
         -5    1    4    4    0  502  0.14968124894E+02 -0.63858259449E+01  0.23989134005E+03  0.24048860382E+03  0.47000000000E+01 0.  1.
          5    1    5    5  503    0  0.35273281314E+02  0.30525888945E+02  0.23446821563E+03  0.23910974135E+03  0.47000000000E+01 0.  1.
         -5    1    5    5    0  503 -0.75553639345E+02  0.29433160117E+01  0.16284111944E+03  0.17960048916E+03  0.47000000000E+01 0.  1.
<mgrwt>
<rscale>  0 0.27699281E+03</rscale>
<asrwt>0</asrwt>
<pdfrwt beam="1">  1        1 0.44182717E-02 0.27699281E+03</pdfrwt>
<pdfrwt beam="2">  1       -1 0.10275379E+00 0.27699281E+03</pdfrwt>
<totfact> 0.18742833E+03</totfact>
</mgrwt>
</event>
<event>
 9    1  0.2094635E-002  0.2755564E+03  0.7818608E-02  0.1098141E+00
         -3   -1    0    0    0  501 -0.00000000000E+00  0.00000000000E+00  0.13071154861E+04  0.13071154861E+04  0.00000000000E+00 0.  1.
          3   -1    0    0  501    0  0.00000000000E+00 -0.00000000000E+00 -0.14522687519E+02  0.14522687519E+02  0.00000000000E+00 0.  1.
         36    2    1    2    0    0  0.00000000000E+00  0.35527136788E-14  0.12925927986E+04  0.13216381736E+04  0.27555638084E+03 0.  0.
         25    2    3    3    0    0  0.45289179055E+02  0.11237061919E+02  0.54830969331E+03  0.56567224626E+03  0.13101217158E+03 0.  0.
         25    2    3    3    0    0 -0.45289179055E+02 -0.11237061919E+02  0.74428310525E+03  0.75596592734E+03  0.12389415340E+03 0.  0.
          5    1    4    4  502    0  0.65337106589E+02 -0.69869029098E+01  0.12348471914E+03  0.13995828011E+03  0.47000000000E+01 0. -1.
         -5    1    4    4    0  502 -0.20047927534E+02  0.18223964829E+02  0.42482497417E+03  0.42571396614E+03  0.47000000000E+01 0. -1.
          5    1    5    5  503    0 -0.62922515205E+02  0.39571787286E+02  0.51827733289E+03  0.52360161675E+03  0.47000000000E+01 0. -1.
         -5    1    5    5    0  503  0.17633336150E+02 -0.50808849205E+02  0.22600577236E+03  0.23236431060E+03  0.47000000000E+01 0. -1.
<mgrwt>
<rscale>  0 0.27555638E+03</rscale>
<asrwt>0</asrwt>
<pdfrwt beam="1">  1        3 0.22342606E-02 0.27555638E+03</pdfrwt>
<pdfrwt beam="2">  1       -3 0.20109460E+00 0.27555638E+03</pdfrwt>
<totfact> 0.31960162E+02</totfact>
</mgrwt>
</event>
<event>
 9    1  0.2094635E-002  0.2735306E+03  0.7818608E-02  0.1099276E+00
         -1   -1    0    0    0  501 -0.00000000000E+00  0.00000000000E+00  0.42570614262E+02  0.42570614262E+02  0.00000000000E+00 0.  1.
          1   -1    0    0  501    0  0.00000000000E+00 -0.00000000000E+00 -0.43938176339E+03  0.43938176339E+03  0.00000000000E+00 0.  1.
         36    2    1    2    0    0  0.71054273576E-14  0.00000000000E+00 -0.39681114913E+03  0.48195237765E+03  0.27353063129E+03 0.  0.
         25    2    3    3    0    0  0.48353185466E+01 -0.47406593521E+02 -0.20695563398E+03  0.24584528100E+03  0.12384870746E+03 0.  0.
         25    2    3    3    0    0 -0.48353185466E+01  0.47406593521E+02 -0.18985551515E+03  0.23610709666E+03  0.13202529698E+03 0.  0.
          5    1    4    4  502    0  0.30453130869E+02 -0.73210227299E+02 -0.18901783680E+03  0.20502917643E+03  0.47000000000E+01 0.  1.
         -5    1    4    4    0  502 -0.25617812322E+02  0.25803633778E+02 -0.17937797179E+02  0.40816104566E+02  0.47000000000E+01 0.  1.
          5    1    5    5  503    0 -0.66352360457E+02  0.40438568592E+02 -0.96406376258E+02  0.12391203715E+03  0.47000000000E+01 0. -1.
         -5    1    5    5    0  503  0.61517041911E+02  0.69680249290E+01 -0.93449138895E+02  0.11219505950E+03  0.47000000000E+01 0. -1.
<mgrwt>
<rscale>  0 0.27353063E+03</rscale>
<asrwt>0</asrwt>
<pdfrwt beam="1">  1        1 0.67597194E-01 0.27353063E+03</pdfrwt>
<pdfrwt beam="2">  1       -1 0.65493253E-02 0.27353063E+03</pdfrwt>
<totfact> 0.62336438E+03</totfact>
</mgrwt>
</event>
<event>
 9    1  0.2094635E-002  0.2756919E+03  0.7818608E-02  0.1098065E+00
          2   -1    0    0  501    0  0.00000000000E+00  0.00000000000E+00  0.21562768264E+04  0.21562768264E+04  0.00000000000E+00 0.  1.
         -2   -1    0    0    0  501 -0.00000000000E+00 -0.00000000000E+00 -0.88121861277E+01  0.88121861277E+01  0.00000000000E+00 0.  1.
         36    2    1    2    0    0  0.00000000000E+00 -0.35527136788E-14  0.21474646402E+04  0.21650890125E+04  0.27569194937E+03 0.  0.
         25    2    3    3    0    0 -0.45811954406E+02 -0.18500026394E+02  0.13733238093E+04  0.13798812562E+04  0.12495202987E+03 0.  0.
         25    2    3    3    0    0  0.45811954406E+02  0.18500026394E+02  0.77414083092E+03  0.78520775631E+03  0.12172184823E+03 0.  0.
          5    1    4    4  502    0  0.16668006579E+02  0.19500757260E+01  0.10377398375E+04  0.10378861621E+04  0.47000000000E+01 0.  1.
         -5    1    4    4    0  502 -0.62479960985E+02 -0.20450102120E+02  0.33558397184E+03  0.34199509405E+03  0.47000000000E+01 0.  1.
          5    1    5    5  503    0 -0.93321525473E+01  0.50814742634E+02  0.53896828989E+03  0.54145926407E+03  0.47000000000E+01 0. -1.
         -5    1    5    5    0  503  0.55144106953E+02 -0.32314716241E+02  0.23517254103E+03  0.24374849224E+03  0.47000000000E+01 0. -1.
<mgrwt>
<rscale>  0 0.27569195E+03</rscale>
<asrwt>0</asrwt>
<pdfrwt beam="1">  1        2 0.33173448E+00 0.27569195E+03</pdfrwt>
<pdfrwt beam="2">  1       -2 0.13557227E-02 0.27569195E+03</pdfrwt>
<totfact> 0.84036236E+03</totfact>
</mgrwt>
</event>
<event>
 9    1  0.2094635E-002  0.2750230E+03  0.7818608E-02  0.1098439E+00
          2   -1    0    0  501    0  0.00000000000E+00  0.00000000000E+00  0.16829382465E+04  0.16829382465E+04  0.00000000000E+00 0.  1.
         -2   -1    0    0    0  501 -0.00000000000E+00 -0.00000000000E+00 -0.11235948043E+02  0.11235948043E+02  0.00000000000E+00 0.  1.
         36    2    1    2    0    0 -0.14210854715E-13  0.71054273576E-14  0.16717022985E+04  0.16941741945E+04  0.27502295684E+03 0.  0.
         25    2    3    3    0    0 -0.49332534001E+02  0.34443110082E+02  0.90032364377E+03  0.91109096868E+03  0.12603199172E+03 0.  0.
         25    2    3    3    0    0  0.49332534001E+02 -0.34443110082E+02  0.77137865469E+03  0.78308322587E+03  0.12072399503E+03 0.  0.
          5    1    4    4  502    0 -0.78581192781E+02 -0.16725938574E+02  0.50662374004E+03  0.51297608604E+03  0.47000000000E+01 0. -1.
         -5    1    4    4    0  502  0.29248658779E+02  0.51169048656E+02  0.39369990373E+03  0.39811488264E+03  0.47000000000E+01 0. -1.
          5    1    5    5  503    0  0.76363701630E+02  0.27773519750E+01  0.30675372495E+03  0.31616303766E+03  0.47000000000E+01 0.  1.
         -5    1    5    5    0  503 -0.27031167628E+02 -0.37220462057E+02  0.46462492974E+03  0.46692018821E+03  0.47000000000E+01 0.  1.
<mgrwt>
<rscale>  0 0.27502296E+03</rscale>
<asrwt>0</asrwt>
<pdfrwt beam="1">  1        2 0.25891338E+00 0.27502296E+03</pdfrwt>
<pdfrwt beam="2">  1       -2 0.17286087E-02 0.27502296E+03</pdfrwt>
<totfact> 0.10450684E+04</totfact>
</mgrwt>
</event>
<event>
 8    1  0.2094635E-002  0.2980363E+03  0.7818608E-02  0.1086226E+00
         -1   -1    0    0    0  501 -0.00000000000E+00  0.00000000000E+00  0.78928009523E+02  0.78928009523E+02  0.00000000000E+00 0. -1.
          1   -1    0    0  501    0  0.00000000000E+00 -0.00000000000E+00 -0.28135018369E+03  0.28135018369E+03  0.00000000000E+00 0. -1.
         25    2    1    2    0    0  0.20354443082E+02 -0.30966665284E+02 -0.14937621239E+01  0.12103937600E+03  0.11521745313E+03 0.  0.
         25    2    1    2    0    0 -0.20354443082E+02  0.30966665284E+02 -0.20092841205E+03  0.23923881721E+03  0.12445781286E+03 0.  0.
          5    1    3    3  502    0  0.60354969411E+02 -0.33516171323E+02 -0.25890988833E+02  0.73881590234E+02  0.47000000000E+01 0. -1.
         -5    1    3    3    0  502 -0.40000526328E+02  0.25495060392E+01  0.24397226709E+02  0.47157785769E+02  0.47000000000E+01 0. -1.
          5    1    4    4  503    0  0.32166964418E+02 -0.28178283192E+02 -0.35367089383E+02  0.55692461383E+02  0.47000000000E+01 0.  1.
         -5    1    4    4    0  503 -0.52521407501E+02  0.59144948476E+02 -0.16556132266E+03  0.18354635583E+03  0.47000000000E+01 0.  1.
<mgrwt>
<rscale>  0 0.29803631E+03</rscale>
<asrwt>0</asrwt>
<pdfrwt beam="1">  1        1 0.43284643E-01 0.29803631E+03</pdfrwt>
<pdfrwt beam="2">  1       -1 0.12142771E-01 0.29803631E+03</pdfrwt>
<totfact> 0.42631894E+03</totfact>
</mgrwt>
</event>
<event>
 9    1  0.2094635E-002  0.2753063E+03  0.7818608E-02  0.1098280E+00
         -1   -1    0    0    0  501 -0.00000000000E+00  0.00000000000E+00  0.47336112898E+02  0.47336112898E+02  0.00000000000E+00 0.  1.
          1   -1    0    0  501    0  0.00000000000E+00 -0.00000000000E+00 -0.40029469857E+03  0.40029469857E+03  0.00000000000E+00 0.  1.
         36    2    1    2    0    0 -0.71054273576E-14  0.35527136788E-14 -0.35295858567E+03  0.44763081146E+03  0.27530633878E+03 0.  0.
         25    2    3    3    0    0  0.35421209591E+02 -0.18913963098E+02 -0.23019338779E+03  0.26825250044E+03  0.13174979362E+03 0.  0.
         25    2    3    3    0    0 -0.35421209591E+02  0.18913963098E+02 -0.12276519788E+03  0.17937831103E+03  0.12447041644E+03 0.  0.
          5    1    4    4  502    0  0.71304174481E+02 -0.24969714804E+02 -0.67331622010E+02  0.10130848572E+03  0.47000000000E+01 0. -1.
         -5    1    4    4    0  502 -0.35882964890E+02  0.60557517064E+01 -0.16286176578E+03  0.16694401472E+03  0.47000000000E+01 0. -1.
          5    1    5    5  503    0 -0.52252905074E+02 -0.28543956239E+02 -0.11308304040E+03  0.12788661991E+03  0.47000000000E+01 0. -1.
         -5    1    5    5    0  503  0.16831695483E+02  0.47457919337E+02 -0.96821574824E+01  0.51491691118E+02  0.47000000000E+01 0. -1.
<mgrwt>
<rscale>  0 0.27530634E+03</rscale>
<asrwt>0</asrwt>
<pdfrwt beam="1">  1        1 0.61583801E-01 0.27530634E+03</pdfrwt>
<pdfrwt beam="2">  1       -1 0.72824787E-02 0.27530634E+03</pdfrwt>
<totfact> 0.59858824E+03</totfact>
</mgrwt>
</event>
<event>
 9    1  0.2094635E-002  0.2755101E+03  0.7818608E-02  0.1098167E+00
          2   -1    0    0  501    0  0.00000000000E+00  0.00000000000E+00  0.78691498876E+03  0.78691498876E+03  0.00000000000E+00 0. -1.
         -2   -1    0    0    0  501 -0.00000000000E+00 -0.00000000000E+00 -0.24115002227E+02  0.24115002227E+02  0.00000000000E+00 0. -1.
         36    2    1    2    0    0  0.71054273576E-14 -0.35527136788E-14  0.76279998653E+03  0.81102999099E+03  0.27551012109E+03 0.  0.
         25    2    3    3    0    0  0.11536627385E+02 -0.18021737885E+02  0.52949558597E+03  0.54498449713E+03  0.12721890481E+03 0.  0.
         25    2    3    3    0    0 -0.11536627385E+02  0.18021737885E+02  0.23330440057E+03  0.26604549386E+03  0.12606103550E+03 0.  0.
          5    1    4    4  502    0 -0.42774846731E+02 -0.65573271069E+01  0.72187730522E+02  0.84296171263E+02  0.47000000000E+01 0.  1.
         -5    1    4    4    0  502  0.54311474116E+02 -0.11464410778E+02  0.45730785545E+03  0.46068832586E+03  0.47000000000E+01 0.  1.
          5    1    5    5  503    0 -0.49549493452E+02 -0.35281472524E+02  0.13077548032E+03  0.14430610125E+03  0.47000000000E+01 0.  1.
         -5    1    5    5    0  503  0.38012866066E+02  0.53303210409E+02  0.10252892025E+03  0.12173939261E+03  0.47000000000E+01 0.  1.
<mgrwt>
<rscale>  0 0.27551012E+03</rscale>
<asrwt>0</asrwt>
<pdfrwt beam="1">  1        2 0.12106383E+00 0.27551012E+03</pdfrwt>
<pdfrwt beam="2">  1       -2 0.37100009E-02 0.27551012E+03</pdfrwt>
<totfact> 0.11118428E+04</totfact>
</mgrwt>
</event>
<event>
 9    1  0.2094635E-002  0.2747431E+03  0.7818608E-02  0.1098595E+00
         -2   -1    0    0    0  501 -0.00000000000E+00  0.00000000000E+00  0.54006921706E+01  0.54006921706E+01  0.00000000000E+00 0.  1.
          2   -1    0    0  501    0  0.00000000000E+00 -0.00000000000E+00 -0.34941721940E+04  0.34941721940E+04  0.00000000000E+00 0.  1.
         36    2    1    2    0    0 -0.35527136788E-14  0.00000000000E+00 -0.34887715019E+04  0.34995728862E+04  0.27474314122E+03 0.  0.
         25    2    3    3    0    0 -0.23606465224E+02 -0.48704827473E+02 -0.20875040638E+04  0.20919445700E+04  0.12501776773E+03 0.  0.
         25    2    3    3    0    0  0.23606465224E+02  0.48704827473E+02 -0.14012674381E+04  0.14076283162E+04  0.12221954885E+03 0.  0.
          5    1    4    4  502    0  0.26896528649E+02 -0.22949360894E+02 -0.17515995871E+03  0.17875457352E+03  0.47000000000E+01 0. -1.
         -5    1    4    4    0  502 -0.50502993874E+02 -0.25755466579E+02 -0.19123441051E+04  0.19131899965E+04  0.47000000000E+01 0. -1.
          5    1    5    5  503    0 -0.14621348698E+02  0.62813007707E+01 -0.24045774803E+02  0.29215199177E+02  0.47000000000E+01 0. -1.
         -5    1    5    5    0  503  0.38227813922E+02  0.42423526702E+02 -0.13772216633E+04  0.13784131170E+04  0.47000000000E+01 0. -1.
<mgrwt>
<rscale>  0 0.27474314E+03</rscale>
<asrwt>0</asrwt>
<pdfrwt beam="1">  1        2 0.53756665E+00 0.27474314E+03</pdfrwt>
<pdfrwt beam="2">  1       -2 0.83087309E-03 0.27474314E+03</pdfrwt>
<totfact> 0.28547498E+03</totfact>
</mgrwt>
</event>
<event>
 9    1  0.2094635E-002  0.2727740E+03  0.7818608E-02  0.1099702E+00
         -1   -1    0    0    0  501 -0.00000000000E+00  0.00000000000E+00  0.84813308933E+02  0.84813308933E+02  0.00000000000E+00 0. -1.
          1   -1    0    0  501    0  0.00000000000E+00 -0.00000000000E+00 -0.21932186157E+03  0.21932186157E+03  0.00000000000E+00 0. -1.
         36    2    1    2    0    0 -0.35527136788E-14  0.00000000000E+00 -0.13450855264E+03  0.30413517050E+03  0.27277399290E+03 0.  0.
         25    2    3    3    0    0 -0.54002054412E+01  0.45252030842E+02 -0.88870636842E+02  0.16387022239E+03  0.12991747835E+03 0.  0.
         25    2    3    3    0    0  0.54002054412E+01 -0.45252030842E+02 -0.45637915795E+02  0.14026494811E+03  0.12455732735E+03 0.  0.
          5    1    4    4  502    0  0.35354669891E+02 -0.22839610086E+01  0.17925768110E+02  0.39982400170E+02  0.47000000000E+01 0.  1.
         -5    1    4    4    0  502 -0.40754875333E+02  0.47535991850E+02 -0.10679640495E+03  0.12388782222E+03  0.47000000000E+01 0.  1.
          5    1    5    5  503    0  0.35556801549E+02 -0.58554192811E+02 -0.70727246709E+02  0.98576432575E+02  0.47000000000E+01 0.  1.
         -5    1    5    5    0  503 -0.30156596108E+02  0.13302161970E+02  0.25089330913E+02  0.41688515535E+02  0.47000000000E+01 0.  1.
<mgrwt>
<rscale>  0 0.27277399E+03</rscale>
<asrwt>0</asrwt>
<pdfrwt beam="1">  1        1 0.33741824E-01 0.27277399E+03</pdfrwt>
<pdfrwt beam="2">  1       -1 0.13048202E-01 0.27277399E+03</pdfrwt>
<totfact> 0.51954281E+03</totfact>
</mgrwt>
</event>
<event>
 9    1  0.2094635E-002  0.2741669E+03  0.7818608E-02  0.1098918E+00
         -4   -1    0    0    0  501 -0.00000000000E+00  0.00000000000E+00  0.56279993014E+03  0.56279993014E+03  0.00000000000E+00 0.  1.
          4   -1    0    0  501    0  0.00000000000E+00 -0.00000000000E+00 -0.33389974891E+02  0.33389974891E+02  0.00000000000E+00 0.  1.
         36    2    1    2    0    0 -0.71054273576E-14  0.00000000000E+00  0.52940995525E+03  0.59618990503E+03  0.27416692387E+03 0.  0.
         25    2    3    3    0    0  0.27613031368E+02 -0.25737261599E+02  0.17572771755E+03  0.21884818206E+03  0.12485755861E+03 0.  0.
         25    2    3    3    0    0 -0.27613031368E+02  0.25737261599E+02  0.35368223770E+03  0.37734172296E+03  0.12597922245E+03 0.  0.
          5    1    4    4  502    0  0.73713606933E+02  0.57146037375E+01  0.92079033216E+02  0.11818202444E+03  0.47000000000E+01 0. -1.
         -5    1    4    4    0  502 -0.46100575565E+02 -0.31451865336E+02  0.83648684330E+02  0.10066615762E+03  0.47000000000E+01 0. -1.
          5    1    5    5  503    0 -0.24614675480E+02  0.18135474002E+02  0.85668940852E+01  0.32097653193E+02  0.47000000000E+01 0.  1.
         -5    1    5    5    0  503 -0.29983558882E+01  0.76017875970E+01  0.34511534361E+03  0.34524406977E+03  0.47000000000E+01 0.  1.
<mgrwt>
<rscale>  0 0.27416692E+03</rscale>
<asrwt>0</asrwt>
<pdfrwt beam="1">  1        4 0.51369196E-02 0.27416692E+03</pdfrwt>
<pdfrwt beam="2">  1       -4 0.86584598E-01 0.27416692E+03</pdfrwt>
<totfact> 0.50893599E+02</totfact>
</mgrwt>
</event>
<event>
 9    1  0.2094635E-002  0.2754710E+03  0.7818608E-02  0.1098189E+00
         -3   -1    0    0    0  501 -0.00000000000E+00  0.00000000000E+00  0.25271850281E+02  0.25271850281E+02  0.00000000000E+00 0.  1.
          3   -1    0    0  501    0  0.00000000000E+00 -0.00000000000E+00 -0.75067995348E+03  0.75067995348E+03  0.00000000000E+00 0.  1.
         36    2    1    2    0    0  0.00000000000E+00 -0.17763568394E-14 -0.72540810320E+03  0.77595180376E+03  0.27547102493E+03 0.  0.
         25    2    3    3    0    0  0.52476431398E+02 -0.11933123134E+02 -0.41184557157E+03  0.43502390927E+03  0.12935552378E+03 0.  0.
         25    2    3    3    0    0 -0.52476431398E+02  0.11933123134E+02 -0.31356253162E+03  0.34092789449E+03  0.12253241499E+03 0.  0.
          5    1    4    4  502    0 -0.23237332238E+02 -0.18804848347E+02 -0.21019294081E+02  0.36844221454E+02  0.47000000000E+01 0.  1.
         -5    1    4    4    0  502  0.75713763636E+02  0.68717252130E+01 -0.39082627749E+03  0.39817968782E+03  0.47000000000E+01 0.  1.
          5    1    5    5  503    0 -0.22969630438E+02 -0.54091899169E+02 -0.10922971443E+03  0.12412396220E+03  0.47000000000E+01 0. -1.
         -5    1    5    5    0  503 -0.29506800960E+02  0.66025022303E+02 -0.20433281719E+03  0.21680393228E+03  0.47000000000E+01 0. -1.
<mgrwt>
<rscale>  0 0.27547102E+03</rscale>
<asrwt>0</asrwt>
<pdfrwt beam="1">  1        3 0.11548921E+00 0.27547102E+03</pdfrwt>
<pdfrwt beam="2">  1       -3 0.38879773E-02 0.27547102E+03</pdfrwt>
<totfact> 0.55904354E+02</totfact>
</mgrwt>
</event>
<event>
 9    1  0.2094635E-002  0.2744478E+03  0.7818608E-02  0.1098761E+00
         -2   -1    0    0    0  501 -0.00000000000E+00  0.00000000000E+00  0.10872390845E+02  0.10872390845E+02  0.00000000000E+00 0. -1.
          2   -1    0    0  501    0  0.00000000000E+00 -0.00000000000E+00 -0.17319469032E+04  0.17319469032E+04  0.00000000000E+00 0. -1.
         36    2    1    2    0    0  0.00000000000E+00 -0.71054273576E-14 -0.17210745124E+04  0.17428192941E+04  0.27444783587E+03 0.  0.
         25    2    3    3    0    0  0.33389874559E+02  0.41716726015E+02 -0.70507178150E+03  0.71781998759E+03  0.12362907657E+03 0.  0.
         25    2    3    3    0    0 -0.33389874559E+02 -0.41716726015E+02 -0.10160027309E+04  0.10249993065E+04  0.12452654400E+03 0.  0.
          5    1    4    4  502    0 -0.22170278034E+01  0.79669773239E+02 -0.35478883579E+03  0.36366110045E+03  0.47000000000E+01 0.  1.
         -5    1    4    4    0  502  0.35606902363E+02 -0.37953047223E+02 -0.35028294571E+03  0.35415888715E+03  0.47000000000E+01 0.  1.
          5    1    5    5  503    0 -0.39259258237E-01 -0.78578033237E+02 -0.45317072065E+03  0.45995684679E+03  0.47000000000E+01 0.  1.
         -5    1    5    5    0  503 -0.33350615301E+02  0.36861307221E+02 -0.56283201021E+03  0.56504245967E+03  0.47000000000E+01 0.  1.
<mgrwt>
<rscale>  0 0.27444784E+03</rscale>
<asrwt>0</asrwt>
<pdfrwt beam="1">  1        2 0.26645349E+00 0.27444784E+03</pdfrwt>
<pdfrwt beam="2">  1       -2 0.16726747E-02 0.27444784E+03</pdfrwt>
<totfact> 0.10334058E+04</totfact>
</mgrwt>
</event>
<event>
 9    1  0.2094635E-002  0.2734531E+03  0.7818608E-02  0.1099319E+00
          1   -1    0    0  501    0  0.00000000000E+00  0.00000000000E+00  0.64720847073E+03  0.64720847073E+03  0.00000000000E+00 0.  1.
         -1   -1    0    0    0  501 -0.00000000000E+00 -0.00000000000E+00 -0.28884273314E+02  0.28884273314E+02  0.00000000000E+00 0.  1.
         36    2    1    2    0    0  0.00000000000E+00 -0.71054273576E-14  0.61832419741E+03  0.67609274404E+03  0.27345307722E+03 0.  0.
         25    2    3    3    0    0  0.25606449417E+01  0.47168829153E+02  0.41337062645E+03  0.43447575198E+03  0.12514970596E+03 0.  0.
         25    2    3    3    0    0 -0.25606449417E+01 -0.47168829153E+02  0.20495357096E+03  0.24161699206E+03  0.11891740518E+03 0.  0.
          5    1    4    4  502    0  0.11087201377E+02  0.30437905417E+02  0.15646415840E+02  0.36280744882E+02  0.47000000000E+01 0. -1.
         -5    1    4    4    0  502 -0.85265564351E+01  0.16730923736E+02  0.39772421061E+03  0.39819500710E+03  0.47000000000E+01 0. -1.
          5    1    5    5  503    0  0.26624361383E+02 -0.65978565664E+02  0.62179928028E+02  0.94606877106E+02  0.47000000000E+01 0.  1.
         -5    1    5    5    0  503 -0.29185006325E+02  0.18809736511E+02  0.14277364293E+03  0.14701011495E+03  0.47000000000E+01 0.  1.
<mgrwt>
<rscale>  0 0.27345308E+03</rscale>
<asrwt>0</asrwt>
<pdfrwt beam="1">  1        1 0.99570523E-01 0.27345308E+03</pdfrwt>
<pdfrwt beam="2">  1       -1 0.44437349E-02 0.27345308E+03</pdfrwt>
<totfact> 0.66146727E+03</totfact>
</mgrwt>
</event>
<event>
 9    1  0.2094635E-002  0.2744743E+03  0.7818608E-02  0.1098746E+00
         -2   -1    0    0    0  501 -0.00000000000E+00  0.00000000000E+00  0.92947641174E+02  0.92947641174E+02  0.00000000000E+00 0. -1.
          2   -1    0    0  501    0  0.00000000000E+00 -0.00000000000E+00 -0.20263057319E+03  0.20263057319E+03  0.00000000000E+00 0. -1.
         36    2    1    2    0    0  0.35527136788E-14 -0.35527136788E-14 -0.10968293201E+03  0.29557821436E+03  0.27447428883E+03 0.  0.
         25    2    3    3    0    0 -0.10368807401E+02  0.26532689541E+02 -0.11018375300E+03  0.16639773814E+03  0.12139296542E+03 0.  0.
         25    2    3    3    0    0  0.10368807401E+02 -0.26532689541E+02  0.50082098264E+00  0.12918047622E+03  0.12599940013E+03 0.  0.
          5    1    4    4  502    0  0.27243023279E+02  0.43382194306E+02 -0.11367243246E+03  0.12477062555E+03  0.47000000000E+01 0.  1.
         -5    1    4    4    0  502 -0.37611830681E+02 -0.16849504765E+02  0.34886794606E+01  0.41627112587E+02  0.47000000000E+01 0.  1.
          5    1    5    5  503    0  0.68156263075E+02 -0.16336167187E+02  0.23493095231E+01  0.70283396403E+02  0.47000000000E+01 0. -1.
         -5    1    5    5    0  503 -0.57787455674E+02 -0.10196522354E+02 -0.18484885405E+01  0.58897079819E+02  0.47000000000E+01 0. -1.
<mgrwt>
<rscale>  0 0.27447429E+03</rscale>
<asrwt>0</asrwt>
<pdfrwt beam="1">  1        2 0.31173934E-01 0.27447429E+03</pdfrwt>
<pdfrwt beam="2">  1       -2 0.14299637E-01 0.27447429E+03</pdfrwt>
<totfact> 0.61813745E+03</totfact>
</mgrwt>
</event>
<event>
 9    1  0.2094635E-002  0.2748626E+03  0.7818608E-02  0.1098528E+00
         -1   -1    0    0    0  501 -0.00000000000E+00  0.00000000000E+00  0.30490740482E+03  0.30490740482E+03  0.00000000000E+00 0. -1.
          1   -1    0    0  501    0  0.00000000000E+00 -0.00000000000E+00 -0.61944589590E+02  0.61944589590E+02  0.00000000000E+00 0. -1.
         36    2    1    2    0    0 -0.17763568394E-14  0.00000000000E+00  0.24296281523E+03  0.36685199441E+03  0.27486261335E+03 0.  0.
         25    2    3    3    0    0 -0.13972120640E+02  0.56091119878E+02  0.11519459720E+03  0.17936021925E+03  0.12473515599E+03 0.  0.
         25    2    3    3    0    0  0.13972120640E+02 -0.56091119878E+02  0.12776821803E+03  0.18749177517E+03  0.12444683335E+03 0.  0.
          5    1    4    4  502    0 -0.28473494036E+02 -0.30044031076E+02  0.68579553425E+02  0.80241066879E+02  0.47000000000E+01 0. -1.
         -5    1    4    4    0  502  0.14501373396E+02  0.86135150953E+02  0.46615043774E+02  0.99119152368E+02  0.47000000000E+01 0. -1.
          5    1    5    5  503    0  0.16211703626E+02 -0.67075543281E+02  0.10932501343E+02  0.70025405579E+02  0.47000000000E+01 0.  1.
         -5    1    5    5    0  503 -0.22395829864E+01  0.10984423403E+02  0.11683571669E+03  0.11746636959E+03  0.47000000000E+01 0.  1.
<mgrwt>
<rscale>  0 0.27486261E+03</rscale>
<asrwt>0</asrwt>
<pdfrwt beam="1">  1        1 0.95299370E-02 0.27486261E+03</pdfrwt>
<pdfrwt beam="2">  1       -1 0.46908831E-01 0.27486261E+03</pdfrwt>
<totfact> 0.31540129E+03</totfact>
</mgrwt>
</event>
<event>
 9    1  0.2094635E-002  0.2745125E+03  0.7818608E-02  0.1098724E+00
         -1   -1    0    0    0  501 -0.00000000000E+00  0.00000000000E+00  0.13015124881E+02  0.13015124881E+02  0.00000000000E+00 0.  1.
          1   -1    0    0  501    0  0.00000000000E+00 -0.00000000000E+00 -0.14474909475E+04  0.14474909475E+04  0.00000000000E+00 0.  1.
         36    2    1    2    0    0  0.00000000000E+00  0.71054273576E-14 -0.14344758226E+04  0.14605060724E+04  0.27451248020E+03 0.  0.
         25    2    3    3    0    0 -0.14471516262E+02 -0.39119112835E+02 -0.86237981906E+03  0.87322425700E+03  0.13069782294E+03 0.  0.
         25    2    3    3    0    0  0.14471516262E+02  0.39119112835E+02 -0.57209600354E+03  0.58728181537E+03  0.12596175457E+03 0.  0.
          5    1    4    4  502    0 -0.54441530238E+00  0.14510342139E+02 -0.83714218968E+01  0.17407386984E+02  0.47000000000E+01 0.  1.
         -5    1    4    4    0  502 -0.13927100960E+02 -0.53629454974E+02 -0.85400839717E+03  0.85581687002E+03  0.47000000000E+01 0.  1.
          5    1    5    5  503    0  0.61407849223E+01  0.79853398396E+02 -0.47235641869E+03  0.47912101890E+03  0.47000000000E+01 0. -1.
         -5    1    5    5    0  503  0.83307313401E+01 -0.40734285562E+02 -0.99739584853E+02  0.10816079646E+03  0.47000000000E+01 0. -1.
<mgrwt>
<rscale>  0 0.27451248E+03</rscale>
<asrwt>0</asrwt>
<pdfrwt beam="1">  1        1 0.22269090E+00 0.27451248E+03</pdfrwt>
<pdfrwt beam="2">  1       -1 0.20023271E-02 0.27451248E+03</pdfrwt>
<totfact> 0.53091778E+03</totfact>
</mgrwt>
</event>
<event>
 9    1  0.2094635E-002  0.2746942E+03  0.7818608E-02  0.1098623E+00
         -2   -1    0    0    0  501 -0.00000000000E+00  0.00000000000E+00  0.56150911814E+03  0.56150911814E+03  0.00000000000E+00 0.  1.
          2   -1    0    0  501    0  0.00000000000E+00 -0.00000000000E+00 -0.33595594352E+02  0.33595594352E+02  0.00000000000E+00 0.  1.
         36    2    1    2    0    0  0.00000000000E+00 -0.71054273576E-14  0.52791352379E+03  0.59510471249E+03  0.27469424863E+03 0.  0.
         25    2    3    3    0    0 -0.16539134533E+02  0.54894059089E+02  0.22702169269E+03  0.26438003435E+03  0.12276421675E+03 0.  0.
         25    2    3    3    0    0  0.16539134533E+02 -0.54894059089E+02  0.30089183110E+03  0.33072467814E+03  0.12472376685E+03 0.  0.
          5    1    4    4  502    0  0.47372617565E+02  0.30166242549E+02  0.15465693152E+03  0.16460566076E+03  0.47000000000E+01 0.  1.
         -5    1    4    4    0  502 -0.63911752098E+02  0.24727816540E+02  0.72364761167E+02  0.99774373593E+02  0.47000000000E+01 0.  1.
          5    1    5    5  503    0 -0.22383255155E+02  0.30798600374E+02  0.13036574072E+03  0.13589289993E+03  0.47000000000E+01 0.  1.
         -5    1    5    5    0  503  0.38922389688E+02 -0.85692659463E+02  0.17052609038E+03  0.19483177822E+03  0.47000000000E+01 0.  1.
<mgrwt>
<rscale>  0 0.27469425E+03</rscale>
<asrwt>0</asrwt>
<pdfrwt beam="1">  1        2 0.51685534E-02 0.27469425E+03</pdfrwt>
<pdfrwt beam="2">  1       -2 0.86386011E-01 0.27469425E+03</pdfrwt>
<totfact> 0.18017854E+03</totfact>
</mgrwt>
</event>
<event>
 9    1  0.2094635E-002  0.2754884E+03  0.7818608E-02  0.1098179E+00
         -2   -1    0    0    0  501 -0.00000000000E+00  0.00000000000E+00  0.89024956632E+02  0.89024956632E+02  0.00000000000E+00 0. -1.
          2   -1    0    0  501    0  0.00000000000E+00 -0.00000000000E+00 -0.21312525870E+03  0.21312525870E+03  0.00000000000E+00 0. -1.
         36    2    1    2    0    0  0.00000000000E+00  0.00000000000E+00 -0.12410030207E+03  0.30215021533E+03  0.27548841655E+03 0.  0.
         25    2    3    3    0    0  0.16952255995E+02  0.24693771091E+02 -0.11747789619E+03  0.17523259756E+03  0.12652369675E+03 0.  0.
         25    2    3    3    0    0 -0.16952255995E+02 -0.24693771091E+02 -0.66224058728E+01  0.12691761778E+03  0.12315463503E+03 0.  0.
          5    1    4    4  502    0 -0.45143260840E+01  0.49502375726E+02 -0.13042215637E+03  0.13965275942E+03  0.47000000000E+01 0. -1.
         -5    1    4    4    0  502  0.21466582079E+02 -0.24808604635E+02  0.12944260175E+02  0.35579838133E+02  0.47000000000E+01 0. -1.
          5    1    5    5  503    0  0.30189086813E+01  0.55242136403E+01  0.54851704137E+02  0.55411462647E+02  0.47000000000E+01 0.  1.
         -5    1    5    5    0  503 -0.19971164676E+02 -0.30217984732E+02 -0.61474110010E+02  0.71506155128E+02  0.47000000000E+01 0.  1.
<mgrwt>
<rscale>  0 0.27548842E+03</rscale>
<asrwt>0</asrwt>
<pdfrwt beam="1">  1        2 0.32788501E-01 0.27548842E+03</pdfrwt>
<pdfrwt beam="2">  1       -2 0.13696147E-01 0.27548842E+03</pdfrwt>
<totfact> 0.62791960E+03</totfact>
</mgrwt>
</event>
<event>
 9    1  0.2094635E-002  0.2754669E+03  0.7818608E-02  0.1098191E+00
          2   -1    0    0  501    0  0.00000000000E+00  0.00000000000E+00  0.47002507140E+03  0.47002507140E+03  0.00000000000E+00 0. -1.
         -2   -1    0    0    0  501 -0.00000000000E+00 -0.00000000000E+00 -0.40360606759E+02  0.40360606759E+02  0.00000000000E+00 0. -1.
         36    2    1    2    0    0  0.35527136788E-14 -0.35527136788E-14  0.42966446464E+03  0.51038567816E+03  0.27546685516E+03 0.  0.
         25    2    3    3    0    0 -0.80979981260E+01 -0.11523410619E+02  0.32941008920E+03  0.35235889267E+03  0.12428763338E+03 0.  0.
         25    2    3    3    0    0  0.80979981260E+01  0.11523410619E+02  0.10025437544E+03  0.15802678549E+03  0.12133902328E+03 0.  0.
          5    1    4    4  502    0  0.18996263949E+02 -0.29169498176E+02  0.18429948142E+02  0.39666997068E+02  0.47000000000E+01 0. -1.
         -5    1    4    4    0  502 -0.27094262075E+02  0.17646087557E+02  0.31098014106E+03  0.31269189561E+03  0.47000000000E+01 0. -1.
          5    1    5    5  503    0 -0.40444253461E+01 -0.19120717792E+02 -0.22888543299E+02  0.30462019625E+02  0.47000000000E+01 0.  1.
         -5    1    5    5    0  503  0.12142423472E+02  0.30644128410E+02  0.12314291874E+03  0.12756476586E+03  0.47000000000E+01 0.  1.
<mgrwt>
<rscale>  0 0.27546686E+03</rscale>
<asrwt>0</asrwt>
<pdfrwt beam="1">  1        2 0.72311546E-01 0.27546686E+03</pdfrwt>
<pdfrwt beam="2">  1       -2 0.62093244E-02 0.27546686E+03</pdfrwt>
<totfact> 0.93128746E+03</totfact>
</mgrwt>
</event>
<event>
 9    1  0.2094635E-002  0.2747034E+03  0.7818608E-02  0.1098617E+00
          1   -1    0    0  501    0  0.00000000000E+00  0.00000000000E+00  0.18555453180E+04  0.18555453180E+04  0.00000000000E+00 0.  1.
         -1   -1    0    0    0  501 -0.00000000000E+00 -0.00000000000E+00 -0.10167087947E+02  0.10167087947E+02  0.00000000000E+00 0.  1.
         36    2    1    2    0    0  0.00000000000E+00  0.00000000000E+00  0.18453782301E+04  0.18657124060E+04  0.27470342144E+03 0.  0.
         25    2    3    3    0    0 -0.65200860317E+02 -0.14238671961E+02  0.96854097786E+03  0.97871330674E+03  0.12391214237E+03 0.  0.
         25    2    3    3    0    0  0.65200860317E+02  0.14238671961E+02  0.87683725223E+03  0.88699909925E+03  0.11606008443E+03 0.  0.
          5    1    4    4  502    0 -0.88548635233E+01  0.18107232322E+02  0.23040250482E+02  0.30971335338E+02  0.47000000000E+01 0.  1.
         -5    1    4    4    0  502 -0.56345996794E+02 -0.32345904283E+02  0.94550072738E+03  0.94774197140E+03  0.47000000000E+01 0.  1.
          5    1    5    5  503    0 -0.34773129173E+01  0.44763033012E+02  0.53821793912E+03  0.54010782333E+03  0.47000000000E+01 0. -1.
         -5    1    5    5    0  503  0.68678173235E+02 -0.30524361051E+02  0.33861931311E+03  0.34689127592E+03  0.47000000000E+01 0. -1.
<mgrwt>
<rscale>  0 0.27470342E+03</rscale>
<asrwt>0</asrwt>
<pdfrwt beam="1">  1        1 0.28546824E+00 0.27470342E+03</pdfrwt>
<pdfrwt beam="2">  1       -1 0.15641688E-02 0.27470342E+03</pdfrwt>
<totfact> 0.41115332E+03</totfact>
</mgrwt>
</event>
<event>
 9    1  0.2094635E-002  0.2751622E+03  0.7818608E-02  0.1098361E+00
         -1   -1    0    0    0  501 -0.00000000000E+00  0.00000000000E+00  0.17166628029E+03  0.17166628029E+03  0.00000000000E+00 0.  1.
          1   -1    0    0  501    0  0.00000000000E+00 -0.00000000000E+00 -0.11026373144E+03  0.11026373144E+03  0.00000000000E+00 0.  1.
         36    2    1    2    0    0 -0.35527136788E-14  0.35527136788E-14  0.61402548850E+02  0.28193001173E+03  0.27516224034E+03 0.  0.
         25    2    3    3    0    0  0.20517280163E+02 -0.40426846341E+01  0.80063067471E+02  0.15139204360E+03  0.12677599934E+03 0.  0.
         25    2    3    3    0    0 -0.20517280163E+02  0.40426846341E+01 -0.18660518620E+02  0.13053796813E+03  0.12749370213E+03 0.  0.
          5    1    4    4  502    0  0.32572186926E+01  0.30207442625E+02  0.10229329106E+03  0.10681341891E+03  0.47000000000E+01 0. -1.
         -5    1    4    4    0  502  0.17260061470E+02 -0.34250127259E+02 -0.22230223586E+02  0.44578624697E+02  0.47000000000E+01 0. -1.
          5    1    5    5  503    0 -0.13987178236E+02  0.30726755375E+02  0.47662599664E+02  0.58596826344E+02  0.47000000000E+01 0.  1.
         -5    1    5    5    0  503 -0.65301019267E+01 -0.26684070741E+02 -0.66323118284E+02  0.71941141786E+02  0.47000000000E+01 0.  1.
<mgrwt>
<rscale>  0 0.27516224E+03</rscale>
<asrwt>0</asrwt>
<pdfrwt beam="1">  1        1 0.16963651E-01 0.27516224E+03</pdfrwt>
<pdfrwt beam="2">  1       -1 0.26410197E-01 0.27516224E+03</pdfrwt>
<totfact> 0.39981752E+03</totfact>
</mgrwt>
</event>
<event>
 9    1  0.2094635E-002  0.2741355E+03  0.7818608E-02  0.1098936E+00
          1   -1    0    0  501    0  0.00000000000E+00  0.00000000000E+00  0.17816134592E+03  0.17816134592E+03  0.00000000000E+00 0.  1.
         -1   -1    0    0    0  501 -0.00000000000E+00 -0.00000000000E+00 -0.10545258146E+03  0.10545258146E+03  0.00000000000E+00 0.  1.
         36    2    1    2    0    0 -0.71054273576E-14  0.00000000000E+00  0.72708764467E+02  0.28361392738E+03  0.27413554197E+03 0.  0.
         25    2    3    3    0    0  0.35472099253E+02  0.62045142762E+00 -0.14594412076E+02  0.12983737803E+03  0.12404069124E+03 0.  0.
         25    2    3    3    0    0 -0.35472099253E+02 -0.62045142762E+00  0.87303176543E+02  0.15377654935E+03  0.12151842540E+03 0.  0.
          5    1    4    4  502    0  0.16732737800E+02  0.45508257266E+02  0.35175318171E+02  0.60086429434E+02  0.47000000000E+01 0.  1.
         -5    1    4    4    0  502  0.18739361453E+02 -0.44887805838E+02 -0.49769730247E+02  0.69750948592E+02  0.47000000000E+01 0.  1.
          5    1    5    5  503    0 -0.63415830362E+02  0.27429347712E+02  0.90293141820E+02  0.11379313739E+03  0.47000000000E+01 0. -1.
         -5    1    5    5    0  503  0.27943731109E+02 -0.28049799139E+02 -0.29899652767E+01  0.39983411966E+02  0.47000000000E+01 0. -1.
<mgrwt>
<rscale>  0 0.27413554E+03</rscale>
<asrwt>0</asrwt>
<pdfrwt beam="1">  1        1 0.27409438E-01 0.27413554E+03</pdfrwt>
<pdfrwt beam="2">  1       -1 0.16223474E-01 0.27413554E+03</pdfrwt>
<totfact> 0.47840152E+03</totfact>
</mgrwt>
</event>
<event>
 9    1  0.2094635E-002  0.2750503E+03  0.7818608E-02  0.1098423E+00
          2   -1    0    0  501    0  0.00000000000E+00  0.00000000000E+00  0.65101392662E+02  0.65101392662E+02  0.00000000000E+00 0. -1.
         -2   -1    0    0    0  501 -0.00000000000E+00 -0.00000000000E+00 -0.29051868466E+03  0.29051868466E+03  0.00000000000E+00 0. -1.
         36    2    1    2    0    0 -0.71054273576E-14  0.71054273576E-14 -0.22541729200E+03  0.35562007732E+03  0.27505032969E+03 0.  0.
         25    2    3    3    0    0  0.34887063165E+02  0.41270262078E+02 -0.81895447044E+02  0.15864086371E+03  0.12465840399E+03 0.  0.
         25    2    3    3    0    0 -0.34887063165E+02 -0.41270262078E+02 -0.14352184495E+03  0.19697921361E+03  0.12362018001E+03 0.  0.
          5    1    4    4  502    0  0.52623852672E+02  0.70904434588E+02 -0.86240550414E+02  0.12351611737E+03  0.47000000000E+01 0. -1.
         -5    1    4    4    0  502 -0.17736789507E+02 -0.29634172510E+02  0.43451033703E+01  0.35124746343E+02  0.47000000000E+01 0. -1.
          5    1    5    5  503    0  0.26860101670E+01 -0.75947714860E+02 -0.52538504501E+02  0.92507591571E+02  0.47000000000E+01 0.  1.
         -5    1    5    5    0  503 -0.37573073332E+02  0.34677452782E+02 -0.90983340454E+02  0.10447162204E+03  0.47000000000E+01 0.  1.
<mgrwt>
<rscale>  0 0.27505033E+03</rscale>
<asrwt>0</asrwt>
<pdfrwt beam="1">  1        2 0.10015599E-01 0.27505033E+03</pdfrwt>
<pdfrwt beam="2">  1       -2 0.44695182E-01 0.27505033E+03</pdfrwt>
<totfact> 0.30578594E+03</totfact>
</mgrwt>
</event>
<event>
 9    1  0.2094635E-002  0.2750279E+03  0.7818608E-02  0.1098436E+00
          1   -1    0    0  501    0  0.00000000000E+00  0.00000000000E+00  0.19878824029E+03  0.19878824029E+03  0.00000000000E+00 0.  1.
         -1   -1    0    0    0  501 -0.00000000000E+00 -0.00000000000E+00 -0.95126809084E+02  0.95126809084E+02  0.00000000000E+00 0.  1.
         36    2    1    2    0    0  0.71054273576E-14  0.00000000000E+00  0.10366143121E+03  0.29391504938E+03  0.27502793300E+03 0.  0.
         25    2    3    3    0    0  0.54700127079E+02  0.12941202477E+01  0.21608991596E+02  0.13661976595E+03  0.12330544708E+03 0.  0.
         25    2    3    3    0    0 -0.54700127079E+02 -0.12941202477E+01  0.82052439611E+02  0.15729528343E+03  0.12253744201E+03 0.  0.
          5    1    4    4  502    0  0.25683455936E+02 -0.48982489690E+02 -0.26097218401E+02  0.61335789009E+02  0.47000000000E+01 0. -1.
         -5    1    4    4    0  502  0.29016671143E+02  0.50276609938E+02  0.47706209996E+02  0.75283976936E+02  0.47000000000E+01 0. -1.
          5    1    5    5  503    0 -0.77478771044E+02 -0.37707705293E+02  0.73267462197E+02  0.11320354243E+03  0.47000000000E+01 0. -1.
         -5    1    5    5    0  503  0.22778643964E+02  0.36413585045E+02  0.87849774146E+01  0.44091741005E+02  0.47000000000E+01 0. -1.
<mgrwt>
<rscale>  0 0.27502793E+03</rscale>
<asrwt>0</asrwt>
<pdfrwt beam="1">  1        1 0.30582806E-01 0.27502793E+03</pdfrwt>
<pdfrwt beam="2">  1       -1 0.14634894E-01 0.27502793E+03</pdfrwt>
<totfact> 0.49077252E+03</totfact>
</mgrwt>
</event>
<event>
 9    1  0.2094635E-002  0.2753840E+03  0.7818608E-02  0.1098237E+00
         -1   -1    0    0    0  501 -0.00000000000E+00  0.00000000000E+00  0.12312262311E+02  0.12312262311E+02  0.00000000000E+00 0.  1.
          1   -1    0    0  501    0  0.00000000000E+00 -0.00000000000E+00 -0.15398539415E+04  0.15398539415E+04  0.00000000000E+00 0.  1.
         36    2    1    2    0    0 -0.71054273576E-14  0.00000000000E+00 -0.15275416792E+04  0.15521662039E+04  0.27538399117E+03 0.  0.
         25    2    3    3    0    0 -0.33717742524E+02 -0.16464839588E+02 -0.99586588111E+03  0.10046701766E+04  0.12730017058E+03 0.  0.
         25    2    3    3    0    0  0.33717742524E+02  0.16464839588E+02 -0.53167579812E+03  0.54749602728E+03  0.12515897282E+03 0.  0.
          5    1    4    4  502    0 -0.80534369314E+02 -0.27191657446E+01 -0.71696980285E+03  0.72149911067E+03  0.47000000000E+01 0. -1.
         -5    1    4    4    0  502  0.46816626790E+02 -0.13745673844E+02 -0.27889607826E+03  0.28317106590E+03  0.47000000000E+01 0. -1.
          5    1    5    5  503    0 -0.31860004161E+02 -0.25153185482E+02 -0.87696166125E+02  0.96749419420E+02  0.47000000000E+01 0. -1.
         -5    1    5    5    0  503  0.65577746686E+02  0.41618025071E+02 -0.44397963199E+03  0.45074660786E+03  0.47000000000E+01 0. -1.
<mgrwt>
<rscale>  0 0.27538399E+03</rscale>
<asrwt>0</asrwt>
<pdfrwt beam="1">  1        1 0.23690048E+00 0.27538399E+03</pdfrwt>
<pdfrwt beam="2">  1       -1 0.18941952E-02 0.27538399E+03</pdfrwt>
<totfact> 0.50002565E+03</totfact>
</mgrwt>
</event>
<event>
 9    1  0.2094635E-002  0.2759948E+03  0.7818608E-02  0.1097897E+00
         -2   -1    0    0    0  501 -0.00000000000E+00  0.00000000000E+00  0.34253033180E+03  0.34253033180E+03  0.00000000000E+00 0. -1.
          2   -1    0    0  501    0  0.00000000000E+00 -0.00000000000E+00 -0.55595914935E+02  0.55595914935E+02  0.00000000000E+00 0. -1.
         36    2    1    2    0    0 -0.71054273576E-14 -0.71054273576E-14  0.28693441686E+03  0.39812624673E+03  0.27599483466E+03 0.  0.
         25    2    3    3    0    0 -0.23634333785E+02  0.43265823156E+02  0.11507638900E+03  0.17603181985E+03  0.12375020447E+03 0.  0.
         25    2    3    3    0    0  0.23634333785E+02 -0.43265823156E+02  0.17185802787E+03  0.22209442689E+03  0.13175826169E+03 0.  0.
          5    1    4    4  502    0  0.33738999286E+02  0.51760916764E+02  0.21023443009E+02  0.65433842414E+02  0.47000000000E+01 0. -1.
         -5    1    4    4    0  502 -0.57373333071E+02 -0.84950936083E+01  0.94052945986E+02  0.11059797743E+03  0.47000000000E+01 0. -1.
          5    1    5    5  503    0  0.39954380813E+01 -0.69181356634E+02  0.17578240105E+03  0.18900678864E+03  0.47000000000E+01 0.  1.
         -5    1    5    5    0  503  0.19638895704E+02  0.25915533477E+02 -0.39243731873E+01  0.33087638248E+02  0.47000000000E+01 0.  1.
<mgrwt>
<rscale>  0 0.27599483E+03</rscale>
<asrwt>0</asrwt>
<pdfrwt beam="1">  1        2 0.85532179E-02 0.27599483E+03</pdfrwt>
<pdfrwt beam="2">  1       -2 0.52696973E-01 0.27599483E+03</pdfrwt>
<totfact> 0.26882251E+03</totfact>
</mgrwt>
</event>
<event>
 9    1  0.2094635E-002  0.2748739E+03  0.7818608E-02  0.1098522E+00
         -2   -1    0    0    0  501 -0.00000000000E+00  0.00000000000E+00  0.20108133135E+02  0.20108133135E+02  0.00000000000E+00 0. -1.
          2   -1    0    0  501    0  0.00000000000E+00 -0.00000000000E+00 -0.93936673740E+03  0.93936673740E+03  0.00000000000E+00 0. -1.
         36    2    1    2    0    0  0.35527136788E-14 -0.35527136788E-14 -0.91925860426E+03  0.95947487053E+03  0.27487387230E+03 0.  0.
         25    2    3    3    0    0  0.27433291976E+02 -0.29045589581E+02 -0.61317551621E+03  0.62713311811E+03  0.12536148677E+03 0.  0.
         25    2    3    3    0    0 -0.27433291976E+02  0.29045589581E+02 -0.30608308805E+03  0.33234175243E+03  0.12315823899E+03 0.  0.
          5    1    4    4  502    0 -0.49201967539E+02 -0.15416444715E+02 -0.19543590028E+03  0.20217759890E+03  0.47000000000E+01 0.  1.
         -5    1    4    4    0  502  0.76635259515E+02 -0.13629144866E+02 -0.41773961593E+03  0.42495551921E+03  0.47000000000E+01 0.  1.
          5    1    5    5  503    0 -0.49015127230E+02 -0.13135980380E+02 -0.48353960351E+02  0.70251207531E+02  0.47000000000E+01 0. -1.
         -5    1    5    5    0  503  0.21581835254E+02  0.42181569961E+02 -0.25772912770E+03  0.26209054490E+03  0.47000000000E+01 0. -1.
<mgrwt>
<rscale>  0 0.27487387E+03</rscale>
<asrwt>0</asrwt>
<pdfrwt beam="1">  1        2 0.14451795E+00 0.27487387E+03</pdfrwt>
<pdfrwt beam="2">  1       -2 0.30935592E-02 0.27487387E+03</pdfrwt>
<totfact> 0.11560883E+04</totfact>
</mgrwt>
</event>
<event>
 9    1  0.2094635E-002  0.2749233E+03  0.7818608E-02  0.1098494E+00
         -2   -1    0    0    0  501 -0.00000000000E+00  0.00000000000E+00  0.67945387570E+01  0.67945387570E+01  0.00000000000E+00 0.  1.
          2   -1    0    0  501    0  0.00000000000E+00 -0.00000000000E+00 -0.27810138989E+04  0.27810138989E+04  0.00000000000E+00 0.  1.
         36    2    1    2    0    0  0.00000000000E+00  0.71054273576E-14 -0.27742193601E+04  0.27878084376E+04  0.27492331090E+03 0.  0.
         25    2    3    3    0    0 -0.15300081768E+02  0.12168748022E+02 -0.85339803108E+03  0.86276827863E+03  0.12529458182E+03 0.  0.
         25    2    3    3    0    0  0.15300081768E+02 -0.12168748022E+02 -0.19208213290E+04  0.19250401590E+04  0.12586844220E+03 0.  0.
          5    1    4    4  502    0 -0.97440556269E+01  0.62750575344E+02 -0.64749358285E+03  0.65061710026E+03  0.47000000000E+01 0.  1.
         -5    1    4    4    0  502 -0.55560261411E+01 -0.50581827322E+02 -0.20590444823E+03  0.21215117837E+03  0.47000000000E+01 0.  1.
          5    1    5    5  503    0  0.39659124179E+02 -0.48245801467E+02 -0.16023117105E+04  0.16035352853E+04  0.47000000000E+01 0.  1.
         -5    1    5    5    0  503 -0.24359042411E+02  0.36077053445E+02 -0.31850961854E+03  0.32150487373E+03  0.47000000000E+01 0.  1.
<mgrwt>
<rscale>  0 0.27492331E+03</rscale>
<asrwt>0</asrwt>
<pdfrwt beam="1">  1        2 0.42784818E+00 0.27492331E+03</pdfrwt>
<pdfrwt beam="2">  1       -2 0.10453139E-02 0.27492331E+03</pdfrwt>
<totfact> 0.55841520E+03</totfact>
</mgrwt>
</event>
<event>
 9    1  0.2094635E-002  0.2749618E+03  0.7818608E-02  0.1098473E+00
          4   -1    0    0  501    0  0.00000000000E+00  0.00000000000E+00  0.48687548705E+03  0.48687548705E+03  0.00000000000E+00 0. -1.
         -4   -1    0    0    0  501 -0.00000000000E+00 -0.00000000000E+00 -0.38821018325E+02  0.38821018325E+02  0.00000000000E+00 0. -1.
         36    2    1    2    0    0 -0.35527136788E-14  0.14210854715E-13  0.44805446872E+03  0.52569650537E+03  0.27496183157E+03 0.  0.
         25    2    3    3    0    0 -0.18901737199E+02  0.56062929238E+02  0.22020340819E+03  0.25870045017E+03  0.12221315083E+03 0.  0.
         25    2    3    3    0    0  0.18901737199E+02 -0.56062929238E+02  0.22785106053E+03  0.26699605520E+03  0.12597801397E+03 0.  0.
          5    1    4    4  502    0 -0.66539884152E+02  0.29826514190E+02  0.16784911845E+03  0.18306445230E+03  0.47000000000E+01 0. -1.
         -5    1    4    4    0  502  0.47638146953E+02  0.26236415048E+02  0.52354289740E+02  0.75635997871E+02  0.47000000000E+01 0. -1.
          5    1    5    5  503    0 -0.18824955489E+02  0.21800407678E+02  0.14218322876E+03  0.14514750176E+03  0.47000000000E+01 0. -1.
         -5    1    5    5    0  503  0.37726692688E+02 -0.77863336916E+02  0.85667831770E+02  0.12184855345E+03  0.47000000000E+01 0. -1.
<mgrwt>
<rscale>  0 0.27496183E+03</rscale>
<asrwt>0</asrwt>
<pdfrwt beam="1">  1        4 0.74903917E-01 0.27496183E+03</pdfrwt>
<pdfrwt beam="2">  1       -4 0.59724647E-02 0.27496183E+03</pdfrwt>
<totfact> 0.55074228E+02</totfact>
</mgrwt>
</event>
<event>
 9    1  0.2094635E-002  0.2731392E+03  0.7818608E-02  0.1099496E+00
         -2   -1    0    0    0  501 -0.00000000000E+00  0.00000000000E+00  0.49893597603E+01  0.49893597603E+01  0.00000000000E+00 0.  1.
          2   -1    0    0  501    0  0.00000000000E+00 -0.00000000000E+00 -0.37382071443E+04  0.37382071443E+04  0.00000000000E+00 0.  1.
         36    2    1    2    0    0 -0.53290705182E-14  0.35527136788E-14 -0.37332177845E+04  0.37431965040E+04  0.27313923410E+03 0.  0.
         25    2    3    3    0    0  0.14942297159E+02  0.27014152266E+02 -0.11500657741E+04  0.11568439089E+04  0.12117552616E+03 0.  0.
         25    2    3    3    0    0 -0.14942297159E+02 -0.27014152266E+02 -0.25831520104E+04  0.25863525951E+04  0.12486953502E+03 0.  0.
          5    1    4    4  502    0 -0.52202919947E+02  0.19317564068E+01 -0.54958359963E+03  0.55208070019E+03  0.47000000000E+01 0.  1.
         -5    1    4    4    0  502  0.67145217107E+02  0.25082395859E+02 -0.60048217450E+03  0.60476320874E+03  0.47000000000E+01 0.  1.
          5    1    5    5  503    0  0.89274915336E+01 -0.36141800379E+02 -0.24688174868E+04  0.24691026311E+04  0.47000000000E+01 0. -1.
         -5    1    5    5    0  503 -0.23869788693E+02  0.91276481135E+01 -0.11433452357E+03  0.11724996397E+03  0.47000000000E+01 0. -1.
<mgrwt>
<rscale>  0 0.27313923E+03</rscale>
<asrwt>0</asrwt>
<pdfrwt beam="1">  1        2 0.57511042E+00 0.27313923E+03</pdfrwt>
<pdfrwt beam="2">  1       -2 0.76759163E-03 0.27313923E+03</pdfrwt>
<totfact> 0.21813622E+03</totfact>
</mgrwt>
</event>
<event>
 9    1  0.2094635E-002  0.2750377E+03  0.7818608E-02  0.1098431E+00
          2   -1    0    0  501    0  0.00000000000E+00  0.00000000000E+00  0.33507163986E+03  0.33507163986E+03  0.00000000000E+00 0.  1.
         -2   -1    0    0    0  501 -0.00000000000E+00 -0.00000000000E+00 -0.56439984721E+02  0.56439984721E+02  0.00000000000E+00 0.  1.
         36    2    1    2    0    0  0.00000000000E+00  0.35527136788E-14  0.27863165514E+03  0.39151162458E+03  0.27503773002E+03 0.  0.
         25    2    3    3    0    0 -0.99611144203E+01  0.62474047654E+01  0.59584793044E+02  0.13926939961E+03  0.12532902392E+03 0.  0.
         25    2    3    3    0    0  0.99611144203E+01 -0.62474047654E+01  0.21904686209E+03  0.25224222497E+03  0.12452452931E+03 0.  0.
          5    1    4    4  502    0 -0.50341846342E+02 -0.11573704810E+02 -0.13648461516E+02  0.53634155516E+02  0.47000000000E+01 0. -1.
         -5    1    4    4    0  502  0.40380731922E+02  0.17821109575E+02  0.73233254559E+02  0.85635244090E+02  0.47000000000E+01 0. -1.
          5    1    5    5  503    0  0.98716454519E+01  0.58808564780E+02  0.10783467900E+03  0.12331384622E+03  0.47000000000E+01 0. -1.
         -5    1    5    5    0  503  0.89468968421E-01 -0.65055969546E+02  0.11121218309E+03  0.12892837875E+03  0.47000000000E+01 0. -1.
<mgrwt>
<rscale>  0 0.27503773E+03</rscale>
<asrwt>0</asrwt>
<pdfrwt beam="1">  1        2 0.51549482E-01 0.27503773E+03</pdfrwt>
<pdfrwt beam="2">  1       -2 0.86830748E-02 0.27503773E+03</pdfrwt>
<totfact> 0.79948726E+03</totfact>
</mgrwt>
</event>
<event>
 9    1  0.2094635E-002  0.2758018E+03  0.7818608E-02  0.1098004E+00
          2   -1    0    0  501    0  0.00000000000E+00  0.00000000000E+00  0.11755359151E+04  0.11755359151E+04  0.00000000000E+00 0. -1.
         -2   -1    0    0    0  501 -0.00000000000E+00 -0.00000000000E+00 -0.16177010955E+02  0.16177010955E+02  0.00000000000E+00 0. -1.
         36    2    1    2    0    0  0.71054273576E-14  0.00000000000E+00  0.11593589041E+04  0.11917129260E+04  0.27580179388E+03 0.  0.
         25    2    3    3    0    0 -0.24553581834E+02 -0.31466035214E+02  0.74019081227E+03  0.75192542433E+03  0.12616027676E+03 0.  0.
         25    2    3    3    0    0  0.24553581834E+02  0.31466035214E+02  0.41916809186E+03  0.43978750171E+03  0.12695734589E+03 0.  0.
          5    1    4    4  502    0  0.18079586480E+02 -0.69303104252E+02  0.49340725096E+03  0.49860063879E+03  0.47000000000E+01 0. -1.
         -5    1    4    4    0  502 -0.42633168314E+02  0.37837069038E+02  0.24678356131E+03  0.25332478554E+03  0.47000000000E+01 0. -1.
          5    1    5    5  503    0  0.68855203125E+02 -0.12410366009E+02  0.23917850759E+03  0.24924587193E+03  0.47000000000E+01 0.  1.
         -5    1    5    5    0  503 -0.44301621291E+02  0.43876401223E+02  0.17998958427E+03  0.19054162978E+03  0.47000000000E+01 0.  1.
<mgrwt>
<rscale>  0 0.27580179E+03</rscale>
<asrwt>0</asrwt>
<pdfrwt beam="1">  1        2 0.18085161E+00 0.27580179E+03</pdfrwt>
<pdfrwt beam="2">  1       -2 0.24887718E-02 0.27580179E+03</pdfrwt>
<totfact> 0.11530738E+04</totfact>
</mgrwt>
</event>
<event>
 9    1  0.2094635E-002  0.2747139E+03  0.7818608E-02  0.1098612E+00
         -4   -1    0    0    0  501 -0.00000000000E+00  0.00000000000E+00  0.29151118464E+03  0.29151118464E+03  0.00000000000E+00 0. -1.
          4   -1    0    0  501    0  0.00000000000E+00 -0.00000000000E+00 -0.64721118007E+02  0.64721118007E+02  0.00000000000E+00 0. -1.
         36    2    1    2    0    0 -0.14210854715E-13  0.71054273576E-14  0.22679006663E+03  0.35623230265E+03  0.27471388593E+03 0.  0.
         25    2    3    3    0    0  0.45708491943E+02 -0.32894290045E+02  0.11705990936E+03  0.17633957145E+03  0.11925318246E+03 0.  0.
         25    2    3    3    0    0 -0.45708491943E+02  0.32894290045E+02  0.10973015727E+03  0.17989273119E+03  0.13095566718E+03 0.  0.
          5    1    4    4  502    0  0.16792388722E+02 -0.27231741775E+02  0.13679547649E+03  0.14056544549E+03  0.47000000000E+01 0. -1.
         -5    1    4    4    0  502  0.28916103222E+02 -0.56625482706E+01 -0.19735567127E+02  0.35774125961E+02  0.47000000000E+01 0. -1.
          5    1    5    5  503    0 -0.45516269217E+02  0.35515303906E+01 -0.17589415101E+02  0.49151008689E+02  0.47000000000E+01 0.  1.
         -5    1    5    5    0  503 -0.19222272612E+00  0.29342759655E+02  0.12731957237E+03  0.13074172250E+03  0.47000000000E+01 0.  1.
<mgrwt>
<rscale>  0 0.27471389E+03</rscale>
<asrwt>0</asrwt>
<pdfrwt beam="1">  1        4 0.99570953E-02 0.27471389E+03</pdfrwt>
<pdfrwt beam="2">  1       -4 0.44847874E-01 0.27471389E+03</pdfrwt>
<totfact> 0.69330697E+02</totfact>
</mgrwt>
</event>
<event>
 9    1  0.2094635E-002  0.2732483E+03  0.7818608E-02  0.1099435E+00
          1   -1    0    0  501    0  0.00000000000E+00  0.00000000000E+00  0.64415102610E+02  0.64415102610E+02  0.00000000000E+00 0. -1.
         -1   -1    0    0    0  501 -0.00000000000E+00 -0.00000000000E+00 -0.28977923117E+03  0.28977923117E+03  0.00000000000E+00 0. -1.
         36    2    1    2    0    0  0.53290705182E-14 -0.35527136788E-14 -0.22536412856E+03  0.35419433378E+03  0.27324830400E+03 0.  0.
         25    2    3    3    0    0 -0.14518610607E+02  0.27213892513E+02 -0.15106754797E+03  0.20375781952E+03  0.13320832919E+03 0.  0.
         25    2    3    3    0    0  0.14518610607E+02 -0.27213892513E+02 -0.74296580590E+02  0.15043651426E+03  0.12712111129E+03 0.  0.
          5    1    4    4  502    0 -0.14019005327E+02  0.46816265572E+02 -0.16948248157E+03  0.17645026719E+03  0.47000000000E+01 0.  1.
         -5    1    4    4    0  502 -0.49960528010E+00 -0.19602373059E+02  0.18414933596E+02  0.27307552332E+02  0.47000000000E+01 0.  1.
          5    1    5    5  503    0  0.44977717230E+02 -0.47926633226E+02 -0.88794513670E+02  0.11057356319E+03  0.47000000000E+01 0.  1.
         -5    1    5    5    0  503 -0.30459106623E+02  0.20712740713E+02  0.14497933081E+02  0.39862951067E+02  0.47000000000E+01 0.  1.
<mgrwt>
<rscale>  0 0.27324830E+03</rscale>
<asrwt>0</asrwt>
<pdfrwt beam="1">  1        1 0.99100156E-02 0.27324830E+03</pdfrwt>
<pdfrwt beam="2">  1       -1 0.44581421E-01 0.27324830E+03</pdfrwt>
<totfact> 0.32817291E+03</totfact>
</mgrwt>
</event>
<event>
 9    1  0.2094635E-002  0.2741233E+03  0.7818608E-02  0.1098943E+00
         -2   -1    0    0    0  501 -0.00000000000E+00  0.00000000000E+00  0.10768572793E+02  0.10768572793E+02  0.00000000000E+00 0.  1.
          2   -1    0    0  501    0  0.00000000000E+00 -0.00000000000E+00 -0.17445106866E+04  0.17445106866E+04  0.00000000000E+00 0.  1.
         36    2    1    2    0    0  0.00000000000E+00 -0.35527136788E-14 -0.17337421138E+04  0.17552792594E+04  0.27412325925E+03 0.  0.
         25    2    3    3    0    0  0.21080269991E+02  0.10672536756E+02 -0.57148970031E+03  0.58579767836E+03  0.12649174515E+03 0.  0.
         25    2    3    3    0    0 -0.21080269991E+02 -0.10672536756E+02 -0.11622524135E+04  0.11694815810E+04  0.12766446203E+03 0.  0.
          5    1    4    4  502    0 -0.26532899114E+02  0.52972220496E+02 -0.36011970283E+03  0.36499087831E+03  0.47000000000E+01 0. -1.
         -5    1    4    4    0  502  0.47613169105E+02 -0.42299683739E+02 -0.21136999748E+03  0.22080680005E+03  0.47000000000E+01 0. -1.
          5    1    5    5  503    0 -0.24439768682E+02 -0.27468263333E+02 -0.11417665891E+04  0.11423680850E+04  0.47000000000E+01 0.  1.
         -5    1    5    5    0  503  0.33594986908E+01  0.16795726577E+02 -0.20485824423E+02  0.27113495994E+02  0.47000000000E+01 0.  1.
<mgrwt>
<rscale>  0 0.27412326E+03</rscale>
<asrwt>0</asrwt>
<pdfrwt beam="1">  1        2 0.26838644E+00 0.27412326E+03</pdfrwt>
<pdfrwt beam="2">  1       -2 0.16567024E-02 0.27412326E+03</pdfrwt>
<totfact> 0.10321994E+04</totfact>
</mgrwt>
</event>
<event>
 8    1  0.2094635E-002  0.2962710E+03  0.7818608E-02  0.1087120E+00
          2   -1    0    0  501    0  0.00000000000E+00  0.00000000000E+00  0.20810081865E+03  0.20810081865E+03  0.00000000000E+00 0. -1.
         -2   -1    0    0    0  501 -0.00000000000E+00 -0.00000000000E+00 -0.10544951089E+03  0.10544951089E+03  0.00000000000E+00 0. -1.
         25    2    1    2    0    0  0.53365783089E+02 -0.20720022057E+02  0.10191240791E+01  0.13689106903E+03  0.12434186764E+03 0.  0.
         25    2    1    2    0    0 -0.53365783089E+02  0.20720022057E+02  0.10163218368E+03  0.17665926050E+03  0.13267316022E+03 0.  0.
          5    1    3    3  502    0 -0.24773477643E+02  0.18703306828E+02 -0.30478758111E+02  0.43755954758E+02  0.47000000000E+01 0.  1.
         -5    1    3    3    0  502  0.78139260732E+02 -0.39423328885E+02  0.31497882190E+02  0.93135114272E+02  0.47000000000E+01 0.  1.
          5    1    4    4  503    0  0.94266869847E+01  0.65191841247E+02  0.59067981244E+02  0.88599971788E+02  0.47000000000E+01 0. -1.
         -5    1    4    4    0  503 -0.62792470074E+02 -0.44471819190E+02  0.42564202437E+02  0.88059288716E+02  0.47000000000E+01 0. -1.
<mgrwt>
<rscale>  0 0.29627102E+03</rscale>
<asrwt>0</asrwt>
<pdfrwt beam="1">  1        2 0.32015511E-01 0.29627102E+03</pdfrwt>
<pdfrwt beam="2">  1       -2 0.16223002E-01 0.29627102E+03</pdfrwt>
<totfact> 0.48833759E+03</totfact>
</mgrwt>
</event>
<event>
 9    1  0.2094635E-002  0.2721251E+03  0.7818608E-02  0.1100069E+00
         -2   -1    0    0    0  501 -0.00000000000E+00  0.00000000000E+00  0.34907067529E+02  0.34907067529E+02  0.00000000000E+00 0.  1.
          2   -1    0    0  501    0  0.00000000000E+00 -0.00000000000E+00 -0.53035151567E+03  0.53035151567E+03  0.00000000000E+00 0.  1.
         36    2    1    2    0    0  0.00000000000E+00 -0.14210854715E-13 -0.49544444814E+03  0.56525858320E+03  0.27212509015E+03 0.  0.
         25    2    3    3    0    0 -0.74234340776E+02 -0.35891128414E+02 -0.27121464614E+03  0.30777919318E+03  0.11988217978E+03 0.  0.
         25    2    3    3    0    0  0.74234340776E+02  0.35891128414E+02 -0.22422980200E+03  0.25747939001E+03  0.96008966910E+02 0.  0.
          5    1    4    4  502    0 -0.55944668434E+02 -0.79051599436E+02 -0.20183944314E+03  0.22392010206E+03  0.47000000000E+01 0.  1.
         -5    1    4    4    0  502 -0.18289672342E+02  0.43160471021E+02 -0.69375203000E+02  0.83859091126E+02  0.47000000000E+01 0.  1.
          5    1    5    5  503    0 -0.94068982130E+01 -0.21941715316E+02 -0.35350256557E+02  0.42914557479E+02  0.47000000000E+01 0.  1.
         -5    1    5    5    0  503  0.83641238989E+02  0.57832843730E+02 -0.18887954544E+03  0.21456483253E+03  0.47000000000E+01 0.  1.
<mgrwt>
<rscale>  0 0.27212509E+03</rscale>
<asrwt>0</asrwt>
<pdfrwt beam="1">  1        2 0.81592541E-01 0.27212509E+03</pdfrwt>
<pdfrwt beam="2">  1       -2 0.53703181E-02 0.27212509E+03</pdfrwt>
<totfact> 0.10156012E+04</totfact>
</mgrwt>
</event>
<event>
 9    1  0.2094635E-002  0.2755358E+03  0.7818608E-02  0.1098152E+00
         -1   -1    0    0    0  501 -0.00000000000E+00  0.00000000000E+00  0.70100290828E+01  0.70100290828E+01  0.00000000000E+00 0. -1.
          1   -1    0    0  501    0  0.00000000000E+00 -0.00000000000E+00 -0.27075493771E+04  0.27075493771E+04  0.00000000000E+00 0. -1.
         36    2    1    2    0    0  0.00000000000E+00  0.71054273576E-14 -0.27005393480E+04  0.27145594062E+04  0.27553584069E+03 0.  0.
         25    2    3    3    0    0  0.36898826927E+02  0.21531217650E+02 -0.93799315382E+03  0.94704301328E+03  0.12342688378E+03 0.  0.
         25    2    3    3    0    0 -0.36898826927E+02 -0.21531217650E+02 -0.17625461942E+04  0.17675163929E+04  0.12537940706E+03 0.  0.
          5    1    4    4  502    0  0.38729103274E+02 -0.15110302206E+02 -0.85681432386E+03  0.85783514748E+03  0.47000000000E+01 0. -1.
         -5    1    4    4    0  502 -0.18302763465E+01  0.36641519855E+02 -0.81178829955E+02  0.89207865806E+02  0.47000000000E+01 0. -1.
          5    1    5    5  503    0 -0.10312762517E+02 -0.72191066657E+02 -0.11350546176E+04  0.11374044919E+04  0.47000000000E+01 0.  1.
         -5    1    5    5    0  503 -0.26586064410E+02  0.50659849007E+02 -0.62749157655E+03  0.63011190099E+03  0.47000000000E+01 0.  1.
<mgrwt>
<rscale>  0 0.27553584E+03</rscale>
<asrwt>0</asrwt>
<pdfrwt beam="1">  1        1 0.41654651E+00 0.27553584E+03</pdfrwt>
<pdfrwt beam="2">  1       -1 0.10784648E-02 0.27553584E+03</pdfrwt>
<totfact> 0.19397737E+03</totfact>
</mgrwt>
</event>
<event>
 9    1  0.2094635E-002  0.2756681E+03  0.7818608E-02  0.1098079E+00
          2   -1    0    0  501    0  0.00000000000E+00  0.00000000000E+00  0.30552759895E+04  0.30552759895E+04  0.00000000000E+00 0. -1.
         -2   -1    0    0    0  501 -0.00000000000E+00 -0.00000000000E+00 -0.62181710743E+01  0.62181710743E+01  0.00000000000E+00 0. -1.
         36    2    1    2    0    0  0.00000000000E+00 -0.35527136788E-14  0.30490578184E+04  0.30614941606E+04  0.27566812497E+03 0.  0.
         25    2    3    3    0    0  0.43718651489E+02  0.22060590722E+02  0.83772341285E+03  0.84610793411E+03  0.10825954726E+03 0.  0.
         25    2    3    3    0    0 -0.43718651489E+02 -0.22060590722E+02  0.22113344056E+04  0.22153862264E+04  0.12465267337E+03 0.  0.
          5    1    4    4  502    0 -0.69963639323E+01  0.77060696948E+01  0.67293124306E+03  0.67302814243E+03  0.47000000000E+01 0.  1.
         -5    1    4    4    0  502  0.50715015421E+02  0.14354521027E+02  0.16479216980E+03  0.17307979168E+03  0.47000000000E+01 0.  1.
          5    1    5    5  503    0 -0.41273457981E+02  0.13597627519E+01  0.21341121882E+04  0.21345168702E+04  0.47000000000E+01 0.  1.
         -5    1    5    5    0  503 -0.24451935084E+01 -0.23420353474E+02  0.77222217328E+02  0.80869356230E+02  0.47000000000E+01 0.  1.
<mgrwt>
<rscale>  0 0.27566812E+03</rscale>
<asrwt>0</asrwt>
<pdfrwt beam="1">  1        2 0.47004126E+00 0.27566812E+03</pdfrwt>
<pdfrwt beam="2">  1       -2 0.95664414E-03 0.27566812E+03</pdfrwt>
<totfact> 0.43915962E+03</totfact>
</mgrwt>
</event>
<event>
 9    1  0.2094635E-002  0.2739722E+03  0.7818608E-02  0.1099028E+00
          2   -1    0    0  501    0  0.00000000000E+00  0.00000000000E+00  0.96537123113E+03  0.96537123113E+03  0.00000000000E+00 0.  1.
         -2   -1    0    0    0  501 -0.00000000000E+00 -0.00000000000E+00 -0.19438311735E+02  0.19438311735E+02  0.00000000000E+00 0.  1.
         36    2    1    2    0    0 -0.35527136788E-14  0.00000000000E+00  0.94593291940E+03  0.98480954287E+03  0.27397216597E+03 0.  0.
         25    2    3    3    0    0 -0.67301334696E+01  0.51579121308E+02  0.33652454330E+03  0.36225360382E+03  0.12358480807E+03 0.  0.
         25    2    3    3    0    0  0.67301334696E+01 -0.51579121308E+02  0.60940837609E+03  0.62255593905E+03  0.11615346717E+03 0.  0.
          5    1    4    4  502    0  0.29162814959E+02  0.22378866715E+02  0.30216607440E+03  0.30443013972E+03  0.47000000000E+01 0. -1.
         -5    1    4    4    0  502 -0.35892948428E+02  0.29200254593E+02  0.34358468900E+02  0.57823464098E+02  0.47000000000E+01 0. -1.
          5    1    5    5  503    0  0.50513697231E+02 -0.62157755133E+02  0.43665594677E+03  0.44396590633E+03  0.47000000000E+01 0. -1.
         -5    1    5    5    0  503 -0.43783563761E+02  0.10578633824E+02  0.17275242932E+03  0.17859003272E+03  0.47000000000E+01 0. -1.
<mgrwt>
<rscale>  0 0.27397217E+03</rscale>
<asrwt>0</asrwt>
<pdfrwt beam="1">  1        2 0.14851861E+00 0.27397217E+03</pdfrwt>
<pdfrwt beam="2">  1       -2 0.29905102E-02 0.27397217E+03</pdfrwt>
<totfact> 0.11709542E+04</totfact>
</mgrwt>
</event>
<event>
 9    1  0.2094635E-002  0.2756701E+03  0.7818608E-02  0.1098078E+00
         -2   -1    0    0    0  501 -0.00000000000E+00  0.00000000000E+00  0.12696793038E+02  0.12696793038E+02  0.00000000000E+00 0.  1.
          2   -1    0    0  501    0  0.00000000000E+00 -0.00000000000E+00 -0.14963225496E+04  0.14963225496E+04  0.00000000000E+00 0.  1.
         36    2    1    2    0    0  0.00000000000E+00  0.00000000000E+00 -0.14836257565E+04  0.15090193426E+04  0.27567007621E+03 0.  0.
         25    2    3    3    0    0 -0.14740151046E+02 -0.57034977998E+02 -0.85075774860E+03  0.86003057524E+03  0.11132646931E+03 0.  0.
         25    2    3    3    0    0  0.14740151046E+02  0.57034977998E+02 -0.63286800791E+03  0.64898876735E+03  0.13112682389E+03 0.  0.
          5    1    4    4  502    0 -0.32934216922E+02 -0.28864948380E+02 -0.10987259125E+03  0.11837197387E+03  0.47000000000E+01 0.  1.
         -5    1    4    4    0  502  0.18194065876E+02 -0.28170029618E+02 -0.74088515735E+03  0.74165860137E+03  0.47000000000E+01 0.  1.
          5    1    5    5  503    0  0.11662232452E+02 -0.42131562588E+02 -0.21885699262E+03  0.22322981309E+03  0.47000000000E+01 0. -1.
         -5    1    5    5    0  503  0.30779185936E+01  0.99166540586E+02 -0.41401101529E+03  0.42575895426E+03  0.47000000000E+01 0. -1.
<mgrwt>
<rscale>  0 0.27567008E+03</rscale>
<asrwt>0</asrwt>
<pdfrwt beam="1">  1        2 0.23020349E+00 0.27567008E+03</pdfrwt>
<pdfrwt beam="2">  1       -2 0.19533526E-02 0.27567008E+03</pdfrwt>
<totfact> 0.10971118E+04</totfact>
</mgrwt>
</event>
<event>
 9    1  0.2094635E-002  0.2752925E+03  0.7818608E-02  0.1098288E+00
          1   -1    0    0  501    0  0.00000000000E+00  0.00000000000E+00  0.21503222974E+03  0.21503222974E+03  0.00000000000E+00 0.  1.
         -1   -1    0    0    0  501 -0.00000000000E+00 -0.00000000000E+00 -0.88110007468E+02  0.88110007468E+02  0.00000000000E+00 0.  1.
         36    2    1    2    0    0  0.00000000000E+00 -0.14210854715E-13  0.12692222228E+03  0.30314223721E+03  0.27529250893E+03 0.  0.
         25    2    3    3    0    0  0.40176986376E+02  0.41640420725E+02  0.54800568595E+02  0.14660676231E+03  0.12305415704E+03 0.  0.
         25    2    3    3    0    0 -0.40176986376E+02 -0.41640420725E+02  0.72121653682E+02  0.15653547490E+03  0.12630798510E+03 0.  0.
          5    1    4    4  502    0  0.16739792457E+02  0.53201076847E+02  0.87879206149E+02  0.10418934736E+03  0.47000000000E+01 0.  1.
         -5    1    4    4    0  502  0.23437193920E+02 -0.11560656122E+02 -0.33078637555E+02  0.42417414953E+02  0.47000000000E+01 0.  1.
          5    1    5    5  503    0 -0.75874443793E+02 -0.13711967552E+02  0.78955731135E+02  0.11045834850E+03  0.47000000000E+01 0.  1.
         -5    1    5    5    0  503  0.35697457416E+02 -0.27928453173E+02 -0.68340774527E+01  0.46077126400E+02  0.47000000000E+01 0.  1.
<mgrwt>
<rscale>  0 0.27529251E+03</rscale>
<asrwt>0</asrwt>
<pdfrwt beam="1">  1        1 0.33081881E-01 0.27529251E+03</pdfrwt>
<pdfrwt beam="2">  1       -1 0.13555386E-01 0.27529251E+03</pdfrwt>
<totfact> 0.50175309E+03</totfact>
</mgrwt>
</event>
<event>
 9    1  0.2094635E-002  0.2735877E+03  0.7818608E-02  0.1099244E+00
         -2   -1    0    0    0  501 -0.00000000000E+00  0.00000000000E+00  0.62659818941E+03  0.62659818941E+03  0.00000000000E+00 0. -1.
          2   -1    0    0  501    0  0.00000000000E+00 -0.00000000000E+00 -0.29863726073E+02  0.29863726073E+02  0.00000000000E+00 0. -1.
         36    2    1    2    0    0  0.00000000000E+00  0.71054273576E-14  0.59673446334E+03  0.65646191548E+03  0.27358769480E+03 0.  0.
         25    2    3    3    0    0  0.87489881828E+01 -0.52997241454E+02  0.27210505361E+03  0.30414978464E+03  0.12482258972E+03 0.  0.
         25    2    3    3    0    0 -0.87489881828E+01  0.52997241454E+02  0.32462940973E+03  0.35231213084E+03  0.12591398445E+03 0.  0.
          5    1    4    4  502    0 -0.81722249385E+01 -0.92296531658E+02  0.18134606955E+03  0.20370056936E+03  0.47000000000E+01 0.  1.
         -5    1    4    4    0  502  0.16921213121E+02  0.39299290204E+02  0.90758984059E+02  0.10044921529E+03  0.47000000000E+01 0.  1.
          5    1    5    5  503    0 -0.55139349441E+02 -0.10324531618E+02  0.10688853606E+03  0.12080642761E+03  0.47000000000E+01 0. -1.
         -5    1    5    5    0  503  0.46390361259E+02  0.63321773072E+02  0.21774087367E+03  0.23150570323E+03  0.47000000000E+01 0. -1.
<mgrwt>
<rscale>  0 0.27358769E+03</rscale>
<asrwt>0</asrwt>
<pdfrwt beam="1">  1        2 0.45944198E-02 0.27358769E+03</pdfrwt>
<pdfrwt beam="2">  1       -2 0.96399712E-01 0.27358769E+03</pdfrwt>
<totfact> 0.16414136E+03</totfact>
</mgrwt>
</event>
<event>
 9    1  0.2094635E-002  0.2747521E+03  0.7818608E-02  0.1098590E+00
         -2   -1    0    0    0  501 -0.00000000000E+00  0.00000000000E+00  0.31035426047E+02  0.31035426047E+02  0.00000000000E+00 0. -1.
          2   -1    0    0  501    0  0.00000000000E+00 -0.00000000000E+00 -0.60808505336E+03  0.60808505336E+03  0.00000000000E+00 0. -1.
         36    2    1    2    0    0 -0.71054273576E-14  0.00000000000E+00 -0.57704962732E+03  0.63912047941E+03  0.27475209702E+03 0.  0.
         25    2    3    3    0    0 -0.18306818717E+02  0.45183824449E+02 -0.34929401821E+03  0.37360149283E+03  0.12326819006E+03 0.  0.
         25    2    3    3    0    0  0.18306818717E+02 -0.45183824449E+02 -0.22775560910E+03  0.26551898658E+03  0.12747939894E+03 0.  0.
          5    1    4    4  502    0 -0.53269221357E+02  0.38374574524E+02 -0.32152467057E+03  0.32819265942E+03  0.47000000000E+01 0. -1.
         -5    1    4    4    0  502  0.34962402641E+02  0.68092499253E+01 -0.27769347646E+02  0.45408833410E+02  0.47000000000E+01 0. -1.
          5    1    5    5  503    0  0.36305137750E+01 -0.80770213578E+02 -0.84241560841E+02  0.11685777084E+03  0.47000000000E+01 0. -1.
         -5    1    5    5    0  503  0.14676304942E+02  0.35586389129E+02 -0.14351404826E+03  0.14866121575E+03  0.47000000000E+01 0. -1.
<mgrwt>
<rscale>  0 0.27475210E+03</rscale>
<asrwt>0</asrwt>
<pdfrwt beam="1">  1        2 0.93551547E-01 0.27475210E+03</pdfrwt>
<pdfrwt beam="2">  1       -2 0.47746809E-02 0.27475210E+03</pdfrwt>
<totfact> 0.10384587E+04</totfact>
</mgrwt>
</event>
<event>
 9    1  0.2094635E-002  0.2765202E+03  0.7818608E-02  0.1097605E+00
         -1   -1    0    0    0  501 -0.00000000000E+00  0.00000000000E+00  0.14689306570E+03  0.14689306570E+03  0.00000000000E+00 0.  1.
          1   -1    0    0  501    0  0.00000000000E+00 -0.00000000000E+00 -0.13013447525E+03  0.13013447525E+03  0.00000000000E+00 0.  1.
         36    2    1    2    0    0 -0.88817841970E-15 -0.71054273576E-14  0.16758590455E+02  0.27702754095E+03  0.27652017664E+03 0.  0.
         25    2    3    3    0    0  0.17939968303E+01 -0.40265439581E+02 -0.28290529854E+02  0.13785888751E+03  0.12876410500E+03 0.  0.
         25    2    3    3    0    0 -0.17939968303E+01  0.40265439581E+02  0.45049120309E+02  0.13916865343E+03  0.12535536211E+03 0.  0.
          5    1    4    4  502    0  0.12429067671E+01  0.43095641087E+02 -0.32595763775E+02  0.54252676560E+02  0.47000000000E+01 0. -1.
         -5    1    4    4    0  502  0.55109006324E+00 -0.83361080668E+02  0.43052339204E+01  0.83606210951E+02  0.47000000000E+01 0. -1.
          5    1    5    5  503    0  0.48500703037E+02  0.47200193488E+01 -0.16800685852E+02  0.51758572458E+02  0.47000000000E+01 0. -1.
         -5    1    5    5    0  503 -0.50294699867E+02  0.35545420233E+02  0.61849806162E+02  0.87410080977E+02  0.47000000000E+01 0. -1.
<mgrwt>
<rscale>  0 0.27652018E+03</rscale>
<asrwt>0</asrwt>
<pdfrwt beam="1">  1        1 0.20020689E-01 0.27652018E+03</pdfrwt>
<pdfrwt beam="2">  1       -1 0.22598933E-01 0.27652018E+03</pdfrwt>
<totfact> 0.41784959E+03</totfact>
</mgrwt>
</event>
<event>
 9    1  0.2094635E-002  0.2749761E+03  0.7818608E-02  0.1098465E+00
          2   -1    0    0  501    0  0.00000000000E+00  0.00000000000E+00  0.10945098711E+04  0.10945098711E+04  0.00000000000E+00 0.  1.
         -2   -1    0    0    0  501 -0.00000000000E+00 -0.00000000000E+00 -0.17270713188E+02  0.17270713188E+02  0.00000000000E+00 0.  1.
         36    2    1    2    0    0 -0.14210854715E-13  0.14210854715E-13  0.10772391579E+04  0.11117805842E+04  0.27497611580E+03 0.  0.
         25    2    3    3    0    0  0.41451048037E+02 -0.47158869203E+02  0.53183121214E+03  0.54907929666E+03  0.12124969065E+03 0.  0.
         25    2    3    3    0    0 -0.41451048037E+02  0.47158869203E+02  0.54540794572E+03  0.56270128758E+03  0.12337245828E+03 0.  0.
          5    1    4    4  502    0 -0.38744038992E+01 -0.73184913203E+02  0.40848745304E+03  0.41503630180E+03  0.47000000000E+01 0. -1.
         -5    1    4    4    0  502  0.45325451936E+02  0.26026044000E+02  0.12334375910E+03  0.13404299485E+03  0.47000000000E+01 0. -1.
          5    1    5    5  503    0 -0.49968872027E+02  0.55144756696E+02  0.15411126273E+03  0.17120223031E+03  0.47000000000E+01 0.  1.
         -5    1    5    5    0  503  0.85178239905E+01 -0.79858874926E+01  0.39129668299E+03  0.39149905728E+03  0.47000000000E+01 0.  1.
<mgrwt>
<rscale>  0 0.27497612E+03</rscale>
<asrwt>0</asrwt>
<pdfrwt beam="1">  1        2 0.16838608E+00 0.27497612E+03</pdfrwt>
<pdfrwt beam="2">  1       -2 0.26570337E-02 0.27497612E+03</pdfrwt>
<totfact> 0.11661460E+04</totfact>
</mgrwt>
</event>
<event>
 9    1  0.2094635E-002  0.2746952E+03  0.7818608E-02  0.1098622E+00
          2   -1    0    0  501    0  0.00000000000E+00  0.00000000000E+00  0.11330243228E+04  0.11330243228E+04  0.00000000000E+00 0.  1.
         -2   -1    0    0    0  501 -0.00000000000E+00 -0.00000000000E+00 -0.16649563496E+02  0.16649563496E+02  0.00000000000E+00 0.  1.
         36    2    1    2    0    0  0.00000000000E+00  0.71054273576E-14  0.11163747593E+04  0.11496738863E+04  0.27469517946E+03 0.  0.
         25    2    3    3    0    0  0.45301201388E+02  0.24393109331E+02  0.56193371081E+03  0.57670037022E+03  0.11902352304E+03 0.  0.
         25    2    3    3    0    0 -0.45301201388E+02 -0.24393109331E+02  0.55444104850E+03  0.57297351608E+03  0.13507979582E+03 0.  0.
          5    1    4    4  502    0  0.57265107234E+02 -0.31661113062E+02  0.38796648201E+03  0.39347401407E+03  0.47000000000E+01 0.  1.
         -5    1    4    4    0  502 -0.11963905845E+02  0.56054222393E+02  0.17396722880E+03  0.18322635615E+03  0.47000000000E+01 0.  1.
          5    1    5    5  503    0 -0.39014134435E+02  0.51525463136E+02  0.19386168953E+03  0.20440504080E+03  0.47000000000E+01 0.  1.
         -5    1    5    5    0  503 -0.62870669532E+01 -0.75918572466E+02  0.36057935897E+03  0.36856847528E+03  0.47000000000E+01 0.  1.
<mgrwt>
<rscale>  0 0.27469518E+03</rscale>
<asrwt>0</asrwt>
<pdfrwt beam="1">  1        2 0.17431137E+00 0.27469518E+03</pdfrwt>
<pdfrwt beam="2">  1       -2 0.25614722E-02 0.27469518E+03</pdfrwt>
<totfact> 0.11689600E+04</totfact>
</mgrwt>
</event>
<event>
 9    1  0.2094635E-002  0.2753952E+03  0.7818608E-02  0.1098231E+00
         -2   -1    0    0    0  501 -0.00000000000E+00  0.00000000000E+00  0.32248202390E+02  0.32248202390E+02  0.00000000000E+00 0. -1.
          2   -1    0    0  501    0  0.00000000000E+00 -0.00000000000E+00 -0.58795936820E+03  0.58795936820E+03  0.00000000000E+00 0. -1.
         36    2    1    2    0    0  0.00000000000E+00 -0.71054273576E-14 -0.55571116580E+03  0.62020757059E+03  0.27539522656E+03 0.  0.
         25    2    3    3    0    0  0.23892963025E+02  0.45076214929E+02 -0.27380498455E+03  0.30784903854E+03  0.13114542361E+03 0.  0.
         25    2    3    3    0    0 -0.23892963025E+02 -0.45076214929E+02 -0.28190618125E+03  0.31235853204E+03  0.12447497209E+03 0.  0.
          5    1    4    4  502    0  0.54499904102E+02  0.68855212616E+01 -0.24443932170E+03  0.25057997116E+03  0.47000000000E+01 0. -1.
         -5    1    4    4    0  502 -0.30606941077E+02  0.38190693668E+02 -0.29365662847E+02  0.57269067387E+02  0.47000000000E+01 0. -1.
          5    1    5    5  503    0  0.43103501892E+02  0.93807901187E+01 -0.13258724173E+03  0.13981193714E+03  0.47000000000E+01 0. -1.
         -5    1    5    5    0  503 -0.66996464917E+02 -0.54457005048E+02 -0.14931893953E+03  0.17254659490E+03  0.47000000000E+01 0. -1.
<mgrwt>
<rscale>  0 0.27539523E+03</rscale>
<asrwt>0</asrwt>
<pdfrwt beam="1">  1        2 0.90455284E-01 0.27539523E+03</pdfrwt>
<pdfrwt beam="2">  1       -2 0.49612621E-02 0.27539523E+03</pdfrwt>
<totfact> 0.10188862E+04</totfact>
</mgrwt>
</event>
<event>
 9    1  0.2094635E-002  0.2748565E+03  0.7818608E-02  0.1098532E+00
         -2   -1    0    0    0  501 -0.00000000000E+00  0.00000000000E+00  0.31131751606E+02  0.31131751606E+02  0.00000000000E+00 0.  1.
          2   -1    0    0  501    0  0.00000000000E+00 -0.00000000000E+00 -0.60666439170E+03  0.60666439170E+03  0.00000000000E+00 0.  1.
         36    2    1    2    0    0 -0.71054273576E-14  0.00000000000E+00 -0.57553264009E+03  0.63779614330E+03  0.27485650911E+03 0.  0.
         25    2    3    3    0    0  0.41461538143E+02 -0.11486173505E+02 -0.32173092506E+03  0.34975764816E+03  0.13026370553E+03 0.  0.
         25    2    3    3    0    0 -0.41461538143E+02  0.11486173505E+02 -0.25380171503E+03  0.28803849515E+03  0.12922798771E+03 0.  0.
          5    1    4    4  502    0 -0.38312636137E+02  0.18025712153E+02 -0.53884967905E+02  0.68691077677E+02  0.47000000000E+01 0.  1.
         -5    1    4    4    0  502  0.79774174279E+02 -0.29511885658E+02 -0.26784595715E+03  0.28106657048E+03  0.47000000000E+01 0.  1.
          5    1    5    5  503    0  0.40285355484E+02 -0.23566050673E+02 -0.79824163957E+02  0.92586477210E+02  0.47000000000E+01 0. -1.
         -5    1    5    5    0  503 -0.81746893626E+02  0.35052224178E+02 -0.17397755107E+03  0.19545201794E+03  0.47000000000E+01 0. -1.
<mgrwt>
<rscale>  0 0.27485651E+03</rscale>
<asrwt>0</asrwt>
<pdfrwt beam="1">  1        2 0.93332980E-01 0.27485651E+03</pdfrwt>
<pdfrwt beam="2">  1       -2 0.47895004E-02 0.27485651E+03</pdfrwt>
<totfact> 0.10364256E+04</totfact>
</mgrwt>
</event>
<event>
 9    1  0.2094635E-002  0.2744888E+03  0.7818608E-02  0.1098738E+00
         -1   -1    0    0    0  501 -0.00000000000E+00  0.00000000000E+00  0.11078856312E+03  0.11078856312E+03  0.00000000000E+00 0.  1.
          1   -1    0    0  501    0  0.00000000000E+00 -0.00000000000E+00 -0.17001774265E+03  0.17001774265E+03  0.00000000000E+00 0.  1.
         36    2    1    2    0    0  0.00000000000E+00 -0.35527136788E-14 -0.59229179522E+02  0.28080630577E+03  0.27448877145E+03 0.  0.
         25    2    3    3    0    0 -0.21317896354E+02 -0.10697962960E+01 -0.80788250045E+02  0.15127842056E+03  0.12610639164E+03 0.  0.
         25    2    3    3    0    0  0.21317896354E+02  0.10697962960E+01  0.21559070523E+02  0.12952788521E+03  0.12592490761E+03 0.  0.
          5    1    4    4  502    0  0.37417515570E+02  0.36983282109E+02 -0.14511952557E+02  0.54777006070E+02  0.47000000000E+01 0.  1.
         -5    1    4    4    0  502 -0.58735411925E+02 -0.38053078405E+02 -0.66276297488E+02  0.96501414491E+02  0.47000000000E+01 0.  1.
          5    1    5    5  503    0  0.44992914914E+02  0.10914556661E+02  0.64355234492E+02  0.79417731937E+02  0.47000000000E+01 0.  1.
         -5    1    5    5    0  503 -0.23675018559E+02 -0.98447603651E+01 -0.42796163969E+02  0.50110153271E+02  0.47000000000E+01 0.  1.
<mgrwt>
<rscale>  0 0.27448877E+03</rscale>
<asrwt>0</asrwt>
<pdfrwt beam="1">  1        1 0.26156576E-01 0.27448877E+03</pdfrwt>
<pdfrwt beam="2">  1       -1 0.17044394E-01 0.27448877E+03</pdfrwt>
<totfact> 0.46913385E+03</totfact>
</mgrwt>
</event>
<event>
 9    1  0.2094635E-002  0.2747356E+03  0.7818608E-02  0.1098599E+00
         -2   -1    0    0    0  501 -0.00000000000E+00  0.00000000000E+00  0.16288487453E+02  0.16288487453E+02  0.00000000000E+00 0. -1.
          2   -1    0    0  501    0  0.00000000000E+00 -0.00000000000E+00 -0.11584814278E+04  0.11584814278E+04  0.00000000000E+00 0. -1.
         36    2    1    2    0    0  0.00000000000E+00 -0.71054273576E-14 -0.11421929403E+04  0.11747699152E+04  0.27473558343E+03 0.  0.
         25    2    3    3    0    0 -0.13811708621E+02  0.44398451940E+02 -0.47790059352E+03  0.49692542641E+03  0.12799967300E+03 0.  0.
         25    2    3    3    0    0  0.13811708621E+02 -0.44398451940E+02 -0.66429234680E+03  0.67784448882E+03  0.12659716893E+03 0.  0.
          5    1    4    4  502    0 -0.27353575268E+02 -0.31848971015E+02 -0.29840522529E+03  0.30138072851E+03  0.47000000000E+01 0. -1.
         -5    1    4    4    0  502  0.13541866647E+02  0.76247422955E+02 -0.17949536823E+03  0.19554469790E+03  0.47000000000E+01 0. -1.
          5    1    5    5  503    0  0.57157367294E+02  0.15514652098E+02 -0.24868269233E+03  0.25568113058E+03  0.47000000000E+01 0.  1.
         -5    1    5    5    0  503 -0.43345658673E+02 -0.59913104037E+02 -0.41560965446E+03  0.42216335824E+03  0.47000000000E+01 0.  1.
<mgrwt>
<rscale>  0 0.27473558E+03</rscale>
<asrwt>0</asrwt>
<pdfrwt beam="1">  1        2 0.17822792E+00 0.27473558E+03</pdfrwt>
<pdfrwt beam="2">  1       -2 0.25059211E-02 0.27473558E+03</pdfrwt>
<totfact> 0.11673077E+04</totfact>
</mgrwt>
</event>
<event>
 9    1  0.2094635E-002  0.2746761E+03  0.7818608E-02  0.1098633E+00
         -4   -1    0    0    0  501 -0.00000000000E+00  0.00000000000E+00  0.47952697254E+03  0.47952697254E+03  0.00000000000E+00 0. -1.
          4   -1    0    0  501    0  0.00000000000E+00 -0.00000000000E+00 -0.39334050874E+02  0.39334050874E+02  0.00000000000E+00 0. -1.
         36    2    1    2    0    0  0.00000000000E+00  0.00000000000E+00  0.44019292166E+03  0.51886102341E+03  0.27467608802E+03 0.  0.
         25    2    3    3    0    0 -0.57123075317E+02  0.52006029011E+00  0.25817406422E+03  0.29161655850E+03  0.12297582511E+03 0.  0.
         25    2    3    3    0    0  0.57123075317E+02 -0.52006029011E+00  0.18201885745E+03  0.22724446491E+03  0.12347415183E+03 0.  0.
          5    1    4    4  502    0 -0.55056750004E+02  0.13606827695E+02  0.32558057250E+02  0.65563012231E+02  0.47000000000E+01 0. -1.
         -5    1    4    4    0  502 -0.20663253135E+01 -0.13086767405E+02  0.22561600697E+03  0.22605354627E+03  0.47000000000E+01 0. -1.
          5    1    5    5  503    0 -0.37118450436E+02  0.14509513579E+02  0.46384289146E+02  0.61334310354E+02  0.47000000000E+01 0.  1.
         -5    1    5    5    0  503  0.94241525753E+02 -0.15029573869E+02  0.13563456830E+03  0.16591015456E+03  0.47000000000E+01 0.  1.
<mgrwt>
<rscale>  0 0.27467609E+03</rscale>
<asrwt>0</asrwt>
<pdfrwt beam="1">  1        4 0.60513928E-02 0.27467609E+03</pdfrwt>
<pdfrwt beam="2">  1       -4 0.73773376E-01 0.27467609E+03</pdfrwt>
<totfact> 0.55732067E+02</totfact>
</mgrwt>
</event>
<event>
 9    1  0.2094635E-002  0.2748268E+03  0.7818608E-02  0.1098548E+00
         -2   -1    0    0    0  501 -0.00000000000E+00  0.00000000000E+00  0.23973593450E+03  0.23973593450E+03  0.00000000000E+00 0.  1.
          2   -1    0    0  501    0  0.00000000000E+00 -0.00000000000E+00 -0.78763524652E+02  0.78763524652E+02  0.00000000000E+00 0.  1.
         36    2    1    2    0    0  0.00000000000E+00  0.35527136788E-14  0.16097240985E+03  0.31849945915E+03  0.27482683411E+03 0.  0.
         25    2    3    3    0    0  0.25575487230E+01 -0.22008143395E+02  0.14112503036E+02  0.12556483605E+03  0.12278626096E+03 0.  0.
         25    2    3    3    0    0 -0.25575487230E+01  0.22008143395E+02  0.14685990681E+03  0.19293462310E+03  0.12314640527E+03 0.  0.
          5    1    4    4  502    0  0.28016621508E+02 -0.22094104556E+01 -0.47770925249E+02  0.55623411208E+02  0.47000000000E+01 0. -1.
         -5    1    4    4    0  502 -0.25459072785E+02 -0.19798732939E+02  0.61883428285E+02  0.69941424845E+02  0.47000000000E+01 0. -1.
          5    1    5    5  503    0 -0.28740681862E+02  0.64151270908E+02  0.58866492016E+02  0.91808312452E+02  0.47000000000E+01 0. -1.
         -5    1    5    5    0  503  0.26183133139E+02 -0.42143127513E+02  0.87993414795E+02  0.10112631065E+03  0.47000000000E+01 0. -1.
<mgrwt>
<rscale>  0 0.27482683E+03</rscale>
<asrwt>0</asrwt>
<pdfrwt beam="1">  1        2 0.12117465E-01 0.27482683E+03</pdfrwt>
<pdfrwt beam="2">  1       -2 0.36882451E-01 0.27482683E+03</pdfrwt>
<totfact> 0.34959118E+03</totfact>
</mgrwt>
</event>
<event>
 9    1  0.2094635E-002  0.2730764E+03  0.7818608E-02  0.1099532E+00
         -2   -1    0    0    0  501 -0.00000000000E+00  0.00000000000E+00  0.22859863561E+03  0.22859863561E+03  0.00000000000E+00 0.  1.
          2   -1    0    0  501    0  0.00000000000E+00 -0.00000000000E+00 -0.81552034769E+02  0.81552034769E+02  0.00000000000E+00 0.  1.
         36    2    1    2    0    0  0.35527136788E-14 -0.14210854715E-13  0.14704660084E+03  0.31015067038E+03  0.27307642798E+03 0.  0.
         25    2    3    3    0    0  0.42248837988E+01 -0.71768987363E+02  0.76618289014E+02  0.14155858770E+03  0.94867456742E+02 0.  0.
         25    2    3    3    0    0 -0.42248837988E+01  0.71768987363E+02  0.70428311823E+02  0.16859208268E+03  0.13525718482E+03 0.  0.
          5    1    4    4  502    0  0.29620234426E+02 -0.58890670577E+01 -0.76642606773E+01  0.31509844334E+02  0.47000000000E+01 0.  1.
         -5    1    4    4    0  502 -0.25395350627E+02 -0.65879920305E+02  0.84282549692E+02  0.11004874336E+03  0.47000000000E+01 0.  1.
          5    1    5    5  503    0 -0.60488879321E+02  0.65040182526E+02  0.67498899480E+02  0.11165715962E+03  0.47000000000E+01 0. -1.
         -5    1    5    5    0  503  0.56263995522E+02  0.67288048371E+01  0.29294123432E+01  0.56934923055E+02  0.47000000000E+01 0. -1.
<mgrwt>
<rscale>  0 0.27307643E+03</rscale>
<asrwt>0</asrwt>
<pdfrwt beam="1">  1        2 0.12546467E-01 0.27307643E+03</pdfrwt>
<pdfrwt beam="2">  1       -2 0.35169021E-01 0.27307643E+03</pdfrwt>
<totfact> 0.36630714E+03</totfact>
</mgrwt>
</event>
<event>
 9    1  0.2094635E-002  0.2752929E+03  0.7818608E-02  0.1098288E+00
         -2   -1    0    0    0  501 -0.00000000000E+00  0.00000000000E+00  0.14995594056E+02  0.14995594056E+02  0.00000000000E+00 0.  1.
          2   -1    0    0  501    0  0.00000000000E+00 -0.00000000000E+00 -0.12634743457E+04  0.12634743457E+04  0.00000000000E+00 0.  1.
         36    2    1    2    0    0 -0.71054273576E-14  0.00000000000E+00 -0.12484787517E+04  0.12784699398E+04  0.27529292318E+03 0.  0.
         25    2    3    3    0    0  0.34049796739E+02 -0.41218392758E+02 -0.56723767466E+03  0.58338737503E+03  0.12539499682E+03 0.  0.
         25    2    3    3    0    0 -0.34049796739E+02  0.41218392758E+02 -0.68124107700E+03  0.69508256475E+03  0.12724787724E+03 0.  0.
          5    1    4    4  502    0  0.49525326465E+01  0.19474592766E+02 -0.42966223306E+03  0.43015754307E+03  0.47000000000E+01 0. -1.
         -5    1    4    4    0  502  0.29097264093E+02 -0.60692985524E+02 -0.13757544160E+03  0.15322983196E+03  0.47000000000E+01 0. -1.
          5    1    5    5  503    0  0.15469496965E+02  0.40538653484E+02 -0.58608325277E+03  0.58770601234E+03  0.47000000000E+01 0. -1.
         -5    1    5    5    0  503 -0.49519293704E+02  0.67973927371E+00 -0.95157824229E+02  0.10737655241E+03  0.47000000000E+01 0. -1.
<mgrwt>
<rscale>  0 0.27529292E+03</rscale>
<asrwt>0</asrwt>
<pdfrwt beam="1">  1        2 0.19438076E+00 0.27529292E+03</pdfrwt>
<pdfrwt beam="2">  1       -2 0.23070134E-02 0.27529292E+03</pdfrwt>
<totfact> 0.11502930E+04</totfact>
</mgrwt>
</event>
<event>
 9    1  0.2094635E-002  0.2718083E+03  0.7818608E-02  0.1100249E+00
          2   -1    0    0  501    0  0.00000000000E+00  0.00000000000E+00  0.14617628811E+03  0.14617628811E+03  0.00000000000E+00 0.  1.
         -2   -1    0    0    0  501 -0.00000000000E+00 -0.00000000000E+00 -0.12635389734E+03  0.12635389734E+03  0.00000000000E+00 0.  1.
         36    2    1    2    0    0 -0.71054273576E-14  0.00000000000E+00  0.19822390770E+02  0.27253018546E+03  0.27180834205E+03 0.  0.
         25    2    3    3    0    0 -0.73667981927E+01  0.47517132885E+02  0.41052875975E+02  0.13586245182E+03  0.12025439516E+03 0.  0.
         25    2    3    3    0    0  0.73667981927E+01 -0.47517132885E+02 -0.21230485205E+02  0.13666773364E+03  0.12615541322E+03 0.  0.
          5    1    4    4  502    0 -0.62168640377E+02  0.18958745539E+02  0.80859591213E+01  0.65664652695E+02  0.47000000000E+01 0. -1.
         -5    1    4    4    0  502  0.54801842184E+02  0.28558387346E+02  0.32966916854E+02  0.70197799121E+02  0.47000000000E+01 0. -1.
          5    1    5    5  503    0 -0.58626368696E+02 -0.31078939197E+02 -0.58149105243E+01  0.66774656514E+02  0.47000000000E+01 0. -1.
         -5    1    5    5    0  503  0.65993166889E+02 -0.16438193688E+02 -0.15415574681E+02  0.69893077128E+02  0.47000000000E+01 0. -1.
<mgrwt>
<rscale>  0 0.27180834E+03</rscale>
<asrwt>0</asrwt>
<pdfrwt beam="1">  1        2 0.22488660E-01 0.27180834E+03</pdfrwt>
<pdfrwt beam="2">  1       -2 0.19439061E-01 0.27180834E+03</pdfrwt>
<totfact> 0.53149735E+03</totfact>
</mgrwt>
</event>
<event>
 9    1  0.2094635E-002  0.2749558E+03  0.7818608E-02  0.1098476E+00
          2   -1    0    0  501    0  0.00000000000E+00  0.00000000000E+00  0.10188583351E+03  0.10188583351E+03  0.00000000000E+00 0. -1.
         -2   -1    0    0    0  501 -0.00000000000E+00 -0.00000000000E+00 -0.18550347671E+03  0.18550347671E+03  0.00000000000E+00 0. -1.
         36    2    1    2    0    0  0.00000000000E+00  0.71054273576E-14 -0.83617643200E+02  0.28738931021E+03  0.27495582440E+03 0.  0.
         25    2    3    3    0    0  0.36199353344E+02  0.45888508694E+02 -0.79173778538E+01  0.13708845804E+03  0.12375141228E+03 0.  0.
         25    2    3    3    0    0 -0.36199353344E+02 -0.45888508694E+02 -0.75700265346E+02  0.15030085217E+03  0.11594683083E+03 0.  0.
          5    1    4    4  502    0  0.66301283234E+02  0.68436417415E+02  0.85065232593E+01  0.95780239742E+02  0.47000000000E+01 0.  1.
         -5    1    4    4    0  502 -0.30101929890E+02 -0.22547908722E+02 -0.16423901113E+02  0.41308218294E+02  0.47000000000E+01 0.  1.
          5    1    5    5  503    0 -0.55840574858E+02 -0.99096955226E+01 -0.90128968350E+02  0.10659124167E+03  0.47000000000E+01 0. -1.
         -5    1    5    5    0  503  0.19641221514E+02 -0.35978813171E+02  0.14428703004E+02  0.43709610501E+02  0.47000000000E+01 0. -1.
<mgrwt>
<rscale>  0 0.27495582E+03</rscale>
<asrwt>0</asrwt>
<pdfrwt beam="1">  1        2 0.15674744E-01 0.27495582E+03</pdfrwt>
<pdfrwt beam="2">  1       -2 0.28538996E-01 0.27495582E+03</pdfrwt>
<totfact> 0.41181248E+03</totfact>
</mgrwt>
</event>
<event>
 9    1  0.2094635E-002  0.2743561E+03  0.7818608E-02  0.1098812E+00
         -2   -1    0    0    0  501 -0.00000000000E+00  0.00000000000E+00  0.10712078251E+02  0.10712078251E+02  0.00000000000E+00 0. -1.
          2   -1    0    0  501    0  0.00000000000E+00 -0.00000000000E+00 -0.17566919543E+04  0.17566919543E+04  0.00000000000E+00 0. -1.
         36    2    1    2    0    0  0.00000000000E+00 -0.35527136788E-14 -0.17459798761E+04  0.17674040326E+04  0.27435613117E+03 0.  0.
         25    2    3    3    0    0  0.37063079846E+02 -0.15937446233E+02 -0.11455292192E+04  0.11528923557E+04  0.12367666531E+03 0.  0.
         25    2    3    3    0    0 -0.37063079846E+02  0.15937446233E+02 -0.60045065684E+03  0.61451167691E+03  0.12432190348E+03 0.  0.
          5    1    4    4  502    0 -0.68025012783E+00 -0.15120128854E+02 -0.10492457508E+04  0.10493654352E+04  0.47000000000E+01 0. -1.
         -5    1    4    4    0  502  0.37743329974E+02 -0.81731737885E+00 -0.96283468461E+02  0.10352692048E+03  0.47000000000E+01 0. -1.
          5    1    5    5  503    0 -0.17158291955E+02  0.53521671850E+02 -0.52295802004E+03  0.52599064351E+03  0.47000000000E+01 0.  1.
         -5    1    5    5    0  503 -0.19904787892E+02 -0.37584225616E+02 -0.77492636802E+02  0.88521033403E+02  0.47000000000E+01 0.  1.
<mgrwt>
<rscale>  0 0.27435613E+03</rscale>
<asrwt>0</asrwt>
<pdfrwt beam="1">  1        2 0.27026039E+00 0.27435613E+03</pdfrwt>
<pdfrwt beam="2">  1       -2 0.16480115E-02 0.27435613E+03</pdfrwt>
<totfact> 0.10249783E+04</totfact>
</mgrwt>
</event>
<event>
 9    1  0.2094635E-002  0.2746637E+03  0.7818608E-02  0.1098640E+00
         -2   -1    0    0    0  501 -0.00000000000E+00  0.00000000000E+00  0.32810267298E+03  0.32810267298E+03  0.00000000000E+00 0.  1.
          2   -1    0    0  501    0  0.00000000000E+00 -0.00000000000E+00 -0.57482103856E+02  0.57482103856E+02  0.00000000000E+00 0.  1.
         36    2    1    2    0    0  0.35527136788E-14  0.71054273576E-14  0.27062056912E+03  0.38558477684E+03  0.27466366286E+03 0.  0.
         25    2    3    3    0    0 -0.16730256973E+02 -0.48720340315E+01  0.58829070568E+02  0.13907269033E+03  0.12480671232E+03 0.  0.
         25    2    3    3    0    0  0.16730256973E+02  0.48720340315E+01  0.21179149855E+03  0.24651208650E+03  0.12493571034E+03 0.  0.
          5    1    4    4  502    0 -0.31065302785E+02  0.53921867202E+02  0.44663028235E+02  0.76743057606E+02  0.47000000000E+01 0. -1.
         -5    1    4    4    0  502  0.14335045811E+02 -0.58793901233E+02  0.14166042333E+02  0.62329632728E+02  0.47000000000E+01 0. -1.
          5    1    5    5  503    0  0.39189416144E+02 -0.33044140949E+02  0.19052245661E+03  0.19735405256E+03  0.47000000000E+01 0.  1.
         -5    1    5    5    0  503 -0.22459159171E+02  0.37916174980E+02  0.21269041944E+02  0.49158033942E+02  0.47000000000E+01 0.  1.
<mgrwt>
<rscale>  0 0.27466366E+03</rscale>
<asrwt>0</asrwt>
<pdfrwt beam="1">  1        2 0.88434007E-02 0.27466366E+03</pdfrwt>
<pdfrwt beam="2">  1       -2 0.50477333E-01 0.27466366E+03</pdfrwt>
<totfact> 0.28096897E+03</totfact>
</mgrwt>
</event>
<event>
 9    1  0.2094635E-002  0.2749972E+03  0.7818608E-02  0.1098453E+00
         -1   -1    0    0    0  501 -0.00000000000E+00  0.00000000000E+00  0.38544031427E+03  0.38544031427E+03  0.00000000000E+00 0. -1.
          1   -1    0    0  501    0  0.00000000000E+00 -0.00000000000E+00 -0.49050046127E+02  0.49050046127E+02  0.00000000000E+00 0. -1.
         36    2    1    2    0    0  0.00000000000E+00  0.71054273576E-14  0.33639026815E+03  0.43449036040E+03  0.27499720140E+03 0.  0.
         25    2    3    3    0    0 -0.32216961841E+02 -0.19634809211E+02  0.98168156037E+02  0.16323950143E+03  0.12484666437E+03 0.  0.
         25    2    3    3    0    0  0.32216961841E+02  0.19634809211E+02  0.23822211211E+03  0.27125085897E+03  0.12411202775E+03 0.  0.
          5    1    4    4  502    0  0.40578897954E+02  0.74968509096E+01  0.49875847061E+01  0.41830798868E+02  0.47000000000E+01 0.  1.
         -5    1    4    4    0  502 -0.72795859795E+02 -0.27131660121E+02  0.93180571331E+02  0.12140870256E+03  0.47000000000E+01 0.  1.
          5    1    5    5  503    0  0.58844436456E+02 -0.30030473752E+02  0.17117061497E+03  0.18353737081E+03  0.47000000000E+01 0.  1.
         -5    1    5    5    0  503 -0.26627474616E+02  0.49665282963E+02  0.67051497143E+02  0.87713488161E+02  0.47000000000E+01 0.  1.
<mgrwt>
<rscale>  0 0.27499720E+03</rscale>
<asrwt>0</asrwt>
<pdfrwt beam="1">  1        1 0.75461612E-02 0.27499720E+03</pdfrwt>
<pdfrwt beam="2">  1       -1 0.59298508E-01 0.27499720E+03</pdfrwt>
<totfact> 0.27919812E+03</totfact>
</mgrwt>
</event>
<event>
 8    1  0.2094635E-002  0.2917603E+03  0.7818608E-02  0.1089434E+00
         -2   -1    0    0    0  501 -0.00000000000E+00  0.00000000000E+00  0.14665567062E+02  0.14665567062E+02  0.00000000000E+00 0. -1.
          2   -1    0    0  501    0  0.00000000000E+00 -0.00000000000E+00 -0.14510877240E+04  0.14510877240E+04  0.00000000000E+00 0. -1.
         25    2    1    2    0    0 -0.25886512197E+02 -0.19094861804E+02 -0.10662564212E+04  0.10737752548E+04  0.12270214672E+03 0.  0.
         25    2    1    2    0    0  0.25886512197E+02  0.19094861804E+02 -0.37016573582E+03  0.39197803635E+03  0.12485745368E+03 0.  0.
          5    1    3    3  502    0 -0.52729891436E+02  0.12314292665E+02 -0.22425596794E+03  0.23074859135E+03  0.47000000000E+01 0. -1.
         -5    1    3    3    0  502  0.26843379239E+02 -0.31409154469E+02 -0.84200045321E+03  0.84302666340E+03  0.47000000000E+01 0. -1.
          5    1    4    4  503    0  0.15270037733E+02 -0.29395368004E+02 -0.21509300341E+02  0.39774385144E+02  0.47000000000E+01 0. -1.
         -5    1    4    4    0  503  0.10616474464E+02  0.48490229809E+02 -0.34865643548E+03  0.35220365120E+03  0.47000000000E+01 0. -1.
<mgrwt>
<rscale>  0 0.29176034E+03</rscale>
<asrwt>0</asrwt>
<pdfrwt beam="1">  1        2 0.22324420E+00 0.29176034E+03</pdfrwt>
<pdfrwt beam="2">  1       -2 0.22562417E-02 0.29176034E+03</pdfrwt>
<totfact> 0.93916046E+03</totfact>
</mgrwt>
</event>
<event>
 9    1  0.2094635E-002  0.2751365E+03  0.7818608E-02  0.1098375E+00
         -3   -1    0    0    0  501 -0.00000000000E+00  0.00000000000E+00  0.86425514229E+02  0.86425514229E+02  0.00000000000E+00 0.  1.
          3   -1    0    0  501    0  0.00000000000E+00 -0.00000000000E+00 -0.21897503145E+03  0.21897503145E+03  0.00000000000E+00 0.  1.
         36    2    1    2    0    0  0.71054273576E-14  0.00000000000E+00 -0.13254951722E+03  0.30540054568E+03  0.27513654571E+03 0.  0.
         25    2    3    3    0    0 -0.17482664857E+02  0.51018333588E+02 -0.35262358995E+02  0.13837185005E+03  0.12245334210E+03 0.  0.
         25    2    3    3    0    0  0.17482664857E+02 -0.51018333588E+02 -0.97287158223E+02  0.16702869562E+03  0.12460048184E+03 0.  0.
          5    1    4    4  502    0  0.16434167701E+02 -0.29922227818E+02 -0.36876674957E+02  0.50471781636E+02  0.47000000000E+01 0. -1.
         -5    1    4    4    0  502 -0.33916832558E+02  0.80940561406E+02  0.16143159620E+01  0.87900068416E+02  0.47000000000E+01 0. -1.
          5    1    5    5  503    0  0.69279272617E+02 -0.30668521548E+02 -0.75551029116E+02  0.10709913085E+03  0.47000000000E+01 0. -1.
         -5    1    5    5    0  503 -0.51796607760E+02 -0.20349812041E+02 -0.21736129108E+02  0.59929564775E+02  0.47000000000E+01 0. -1.
<mgrwt>
<rscale>  0 0.27513655E+03</rscale>
<asrwt>0</asrwt>
<pdfrwt beam="1">  1        3 0.33688466E-01 0.27513655E+03</pdfrwt>
<pdfrwt beam="2">  1       -3 0.13296233E-01 0.27513655E+03</pdfrwt>
<totfact> 0.10024054E+03</totfact>
</mgrwt>
</event>
<event>
 9    1  0.2094635E-002  0.2744190E+03  0.7818608E-02  0.1098777E+00
          2   -1    0    0  501    0  0.00000000000E+00  0.00000000000E+00  0.63283929498E+03  0.63283929498E+03  0.00000000000E+00 0. -1.
         -2   -1    0    0    0  501 -0.00000000000E+00 -0.00000000000E+00 -0.29749184491E+02  0.29749184491E+02  0.00000000000E+00 0. -1.
         36    2    1    2    0    0 -0.14210854715E-13  0.00000000000E+00  0.60309011049E+03  0.66258847947E+03  0.27441904409E+03 0.  0.
         25    2    3    3    0    0  0.32970685909E+02  0.44644492927E+02  0.33088944861E+03  0.35817733856E+03  0.12539131460E+03 0.  0.
         25    2    3    3    0    0 -0.32970685909E+02 -0.44644492927E+02  0.27220066188E+03  0.30441114091E+03  0.12446985782E+03 0.  0.
          5    1    4    4  502    0 -0.43633911101E+02  0.25255089778E+02  0.18937431724E+03  0.19602668132E+03  0.47000000000E+01 0. -1.
         -5    1    4    4    0  502  0.76604597010E+02  0.19389403149E+02  0.14151513137E+03  0.16215065724E+03  0.47000000000E+01 0. -1.
          5    1    5    5  503    0 -0.57216039555E+02 -0.72161123092E+02  0.23270681083E+03  0.25031071226E+03  0.47000000000E+01 0.  1.
         -5    1    5    5    0  503  0.24245353646E+02  0.27516630165E+02  0.39493851047E+02  0.54100428645E+02  0.47000000000E+01 0.  1.
<mgrwt>
<rscale>  0 0.27441904E+03</rscale>
<asrwt>0</asrwt>
<pdfrwt beam="1">  1        2 0.97359881E-01 0.27441904E+03</pdfrwt>
<pdfrwt beam="2">  1       -2 0.45767981E-02 0.27441904E+03</pdfrwt>
<totfact> 0.10566075E+04</totfact>
</mgrwt>
</event>
<event>
 9    1  0.2094635E-002  0.2754934E+03  0.7818608E-02  0.1098176E+00
         -1   -1    0    0    0  501 -0.00000000000E+00  0.00000000000E+00  0.19216155227E+03  0.19216155227E+03  0.00000000000E+00 0.  1.
          1   -1    0    0  501    0  0.00000000000E+00 -0.00000000000E+00 -0.98740617220E+02  0.98740617220E+02  0.00000000000E+00 0.  1.
         36    2    1    2    0    0  0.00000000000E+00  0.35527136788E-14  0.93420935053E+02  0.29090216949E+03  0.27549337762E+03 0.  0.
         25    2    3    3    0    0  0.21489857060E+02  0.29279498063E+02  0.98999603009E+02  0.16217800204E+03  0.12321396019E+03 0.  0.
         25    2    3    3    0    0 -0.21489857060E+02 -0.29279498063E+02 -0.55786679560E+01  0.12872416745E+03  0.12336809469E+03 0.  0.
          5    1    4    4  502    0  0.43913842612E+01  0.52525795134E+02 -0.59316283968E+01  0.53249578642E+02  0.47000000000E+01 0. -1.
         -5    1    4    4    0  502  0.17098472798E+02 -0.23246297071E+02  0.10493123141E+03  0.10892842340E+03  0.47000000000E+01 0. -1.
          5    1    5    5  503    0  0.63450748752E+01  0.46735282289E+02  0.60621301068E+00  0.47401519807E+02  0.47000000000E+01 0. -1.
         -5    1    5    5    0  503 -0.27834931935E+02 -0.76014780352E+02 -0.61848809666E+01  0.81322647647E+02  0.47000000000E+01 0. -1.
<mgrwt>
<rscale>  0 0.27549338E+03</rscale>
<asrwt>0</asrwt>
<pdfrwt beam="1">  1        1 0.15190864E-01 0.27549338E+03</pdfrwt>
<pdfrwt beam="2">  1       -1 0.29563316E-01 0.27549338E+03</pdfrwt>
<totfact> 0.38188908E+03</totfact>
</mgrwt>
</event>
<event>
 9    1  0.2094635E-002  0.2851115E+03  0.7818608E-02  0.1092929E+00
          2   -1    0    0  501    0  0.00000000000E+00  0.00000000000E+00  0.38452727296E+04  0.38452727296E+04  0.00000000000E+00 0. -1.
         -2   -1    0    0    0  501 -0.00000000000E+00 -0.00000000000E+00 -0.52849683994E+01  0.52849683994E+01  0.00000000000E+00 0. -1.
         36    2    1    2    0    0  0.17763568394E-14  0.00000000000E+00  0.38399877612E+04  0.38505576980E+04  0.28511152108E+03 0.  0.
         25    2    3    3    0    0  0.10166490803E+02  0.71220539691E+02  0.28482495124E+04  0.28518957677E+04  0.12493382944E+03 0.  0.
         25    2    3    3    0    0 -0.10166490803E+02 -0.71220539691E+02  0.99173824872E+03  0.99866193029E+03  0.92764078297E+02 0.  0.
          5    1    4    4  502    0  0.38515862277E+02 -0.13985886043E+02  0.15436515768E+04  0.15442024988E+04  0.47000000000E+01 0. -1.
         -5    1    4    4    0  502 -0.28349371474E+02  0.85206425734E+02  0.13045979356E+04  0.13076932689E+04  0.47000000000E+01 0. -1.
          5    1    5    5  503    0  0.94454386063E+01 -0.88615368597E+02  0.82462229538E+03  0.82943711028E+03  0.47000000000E+01 0. -1.
         -5    1    5    5    0  503 -0.19611929409E+02  0.17394828907E+02  0.16711595334E+03  0.16922482001E+03  0.47000000000E+01 0. -1.
<mgrwt>
<rscale>  0 0.28511152E+03</rscale>
<asrwt>0</asrwt>
<pdfrwt beam="1">  1        2 0.59157818E+00 0.28511152E+03</pdfrwt>
<pdfrwt beam="2">  1       -2 0.81307514E-03 0.28511152E+03</pdfrwt>
<totfact> 0.16775361E+03</totfact>
</mgrwt>
</event>
<event>
 9    1  0.2094635E-002  0.2748535E+03  0.7818608E-02  0.1098534E+00
         -2   -1    0    0    0  501 -0.00000000000E+00  0.00000000000E+00  0.93362703210E+01  0.93362703210E+01  0.00000000000E+00 0. -1.
          2   -1    0    0  501    0  0.00000000000E+00 -0.00000000000E+00 -0.20228747067E+04  0.20228747067E+04  0.00000000000E+00 0. -1.
         36    2    1    2    0    0 -0.71054273576E-14  0.00000000000E+00 -0.20135384364E+04  0.20322109770E+04  0.27485345250E+03 0.  0.
         25    2    3    3    0    0  0.28336599450E+02  0.35201039193E+02 -0.10532718140E+04  0.10626863721E+04  0.13371138756E+03 0.  0.
         25    2    3    3    0    0 -0.28336599450E+02 -0.35201039193E+02 -0.96026662239E+03  0.96952460497E+03  0.12579307431E+03 0.  0.
          5    1    4    4  502    0 -0.26927700567E+02  0.19423594542E+02 -0.86801628948E+03  0.86866377033E+03  0.47000000000E+01 0.  1.
         -5    1    4    4    0  502  0.55264300017E+02  0.15777444651E+02 -0.18525552454E+03  0.19402260175E+03  0.47000000000E+01 0.  1.
          5    1    5    5  503    0  0.27739749782E+02  0.33490885893E+02 -0.37871471671E+03  0.38123229115E+03  0.47000000000E+01 0. -1.
         -5    1    5    5    0  503 -0.56076349232E+02 -0.68691925086E+02 -0.58155190567E+03  0.58829231383E+03  0.47000000000E+01 0. -1.
<mgrwt>
<rscale>  0 0.27485345E+03</rscale>
<asrwt>0</asrwt>
<pdfrwt beam="1">  1        2 0.31121177E+00 0.27485345E+03</pdfrwt>
<pdfrwt beam="2">  1       -2 0.14363480E-02 0.27485345E+03</pdfrwt>
<totfact> 0.90840556E+03</totfact>
</mgrwt>
</event>
<event>
 9    1  0.2094635E-002  0.2754220E+03  0.7818608E-02  0.1098216E+00
         -2   -1    0    0    0  501 -0.00000000000E+00  0.00000000000E+00  0.79185659249E+02  0.79185659249E+02  0.00000000000E+00 0. -1.
          2   -1    0    0  501    0  0.00000000000E+00 -0.00000000000E+00 -0.23949184784E+03  0.23949184784E+03  0.00000000000E+00 0. -1.
         36    2    1    2    0    0 -0.35527136788E-14  0.71054273576E-14 -0.16030618859E+03  0.31867750709E+03  0.27542200243E+03 0.  0.
         25    2    3    3    0    0 -0.30928238658E+02 -0.90065141477E+00 -0.10468291623E+03  0.16336182763E+03  0.12153685309E+03 0.  0.
         25    2    3    3    0    0  0.30928238658E+02  0.90065141477E+00 -0.55623272358E+02  0.15531567945E+03  0.14167443219E+03 0.  0.
          5    1    4    4  502    0 -0.11162032481E+01  0.42657631038E+02  0.33204120023E+01  0.43058501267E+02  0.47000000000E+01 0.  1.
         -5    1    4    4    0  502 -0.29812035410E+02 -0.43558282453E+02 -0.10800332823E+03  0.12030332637E+03  0.47000000000E+01 0.  1.
          5    1    5    5  503    0  0.66592556799E+02 -0.35906555307E+02  0.47887847158E+01  0.75953089431E+02  0.47000000000E+01 0. -1.
         -5    1    5    5    0  503 -0.35664318142E+02  0.36807206721E+02 -0.60412057073E+02  0.79362590022E+02  0.47000000000E+01 0. -1.
<mgrwt>
<rscale>  0 0.27542200E+03</rscale>
<asrwt>0</asrwt>
<pdfrwt beam="1">  1        2 0.36844900E-01 0.27542200E+03</pdfrwt>
<pdfrwt beam="2">  1       -2 0.12182409E-01 0.27542200E+03</pdfrwt>
<totfact> 0.66927205E+03</totfact>
</mgrwt>
</event>
<event>
 9    1  0.2094635E-002  0.2749167E+03  0.7818608E-02  0.1098498E+00
         -2   -1    0    0    0  501 -0.00000000000E+00  0.00000000000E+00  0.16525550521E+02  0.16525550521E+02  0.00000000000E+00 0. -1.
          2   -1    0    0  501    0  0.00000000000E+00 -0.00000000000E+00 -0.11433686487E+04  0.11433686487E+04  0.00000000000E+00 0. -1.
         36    2    1    2    0    0  0.14210854715E-13  0.00000000000E+00 -0.11268430982E+04  0.11598941992E+04  0.27491668824E+03 0.  0.
         25    2    3    3    0    0 -0.58481593524E+02 -0.24418551709E+02 -0.54484882626E+03  0.56159139794E+03  0.12045037285E+03 0.  0.
         25    2    3    3    0    0  0.58481593524E+02  0.24418551709E+02 -0.58199427189E+03  0.59830280125E+03  0.12342020507E+03 0.  0.
          5    1    4    4  502    0 -0.86752589299E+02 -0.21381729884E+02 -0.25360626229E+03  0.26892641446E+03  0.47000000000E+01 0. -1.
         -5    1    4    4    0  502  0.28270995776E+02 -0.30368218246E+01 -0.29124256397E+03  0.29266498348E+03  0.47000000000E+01 0. -1.
          5    1    5    5  503    0  0.95645272962E+02  0.10009182910E+02 -0.45663482797E+03  0.46667510979E+03  0.47000000000E+01 0.  1.
         -5    1    5    5    0  503 -0.37163679438E+02  0.14409368798E+02 -0.12535944392E+03  0.13162769146E+03  0.47000000000E+01 0.  1.
<mgrwt>
<rscale>  0 0.27491669E+03</rscale>
<asrwt>0</asrwt>
<pdfrwt beam="1">  1        2 0.17590291E+00 0.27491669E+03</pdfrwt>
<pdfrwt beam="2">  1       -2 0.25423918E-02 0.27491669E+03</pdfrwt>
<totfact> 0.11657998E+04</totfact>
</mgrwt>
</event>
<event>
 8    1  0.2094635E-002  0.3061723E+03  0.7818608E-02  0.1082195E+00
         -2   -1    0    0    0  501 -0.00000000000E+00  0.00000000000E+00  0.67221066120E+02  0.67221066120E+02  0.00000000000E+00 0.  1.
          2   -1    0    0  501    0  0.00000000000E+00 -0.00000000000E+00 -0.34863121839E+03  0.34863121839E+03  0.00000000000E+00 0.  1.
         25    2    1    2    0    0 -0.30899391253E+02  0.16026285788E+02 -0.26075287846E+03  0.28944642771E+03  0.12072927016E+03 0.  0.
         25    2    1    2    0    0  0.30899391253E+02 -0.16026285788E+02 -0.20657273807E+02  0.12640585680E+03  0.11975017100E+03 0.  0.
          5    1    3    3  502    0 -0.68653386783E+02  0.40998098912E+02 -0.16963428033E+03  0.18759533761E+03  0.47000000000E+01 0.  1.
         -5    1    3    3    0  502  0.37753995530E+02 -0.24971813124E+02 -0.91118598137E+02  0.10185109011E+03  0.47000000000E+01 0.  1.
          5    1    4    4  503    0  0.31068454052E+02  0.12360004789E+02  0.44101138215E+02  0.55542946874E+02  0.47000000000E+01 0. -1.
         -5    1    4    4    0  503 -0.16906279961E+00 -0.28386290577E+02 -0.64758412022E+02  0.70862909922E+02  0.47000000000E+01 0. -1.
<mgrwt>
<rscale>  0 0.30617225E+03</rscale>
<asrwt>0</asrwt>
<pdfrwt beam="1">  1        2 0.53635573E-01 0.30617225E+03</pdfrwt>
<pdfrwt beam="2">  1       -2 0.10341702E-01 0.30617225E+03</pdfrwt>
<totfact> 0.58268009E+03</totfact>
</mgrwt>
</event>
<event>
 9    1  0.2094635E-002  0.2752528E+03  0.7818608E-02  0.1098310E+00
          2   -1    0    0  501    0  0.00000000000E+00  0.00000000000E+00  0.14418543351E+04  0.14418543351E+04  0.00000000000E+00 0. -1.
         -2   -1    0    0    0  501 -0.00000000000E+00 -0.00000000000E+00 -0.13136570640E+02  0.13136570640E+02  0.00000000000E+00 0. -1.
         36    2    1    2    0    0  0.71054273576E-14 -0.71054273576E-14  0.14287177644E+04  0.14549909057E+04  0.27525276620E+03 0.  0.
         25    2    3    3    0    0  0.26788392191E+02 -0.40001365964E+02  0.62024486271E+03  0.63481128474E+03  0.12634852700E+03 0.  0.
         25    2    3    3    0    0 -0.26788392191E+02  0.40001365964E+02  0.80847290172E+03  0.82017962097E+03  0.12941580510E+03 0.  0.
          5    1    4    4  502    0  0.66164719441E+02 -0.27268197355E+01  0.19267147141E+03  0.20378810451E+03  0.47000000000E+01 0. -1.
         -5    1    4    4    0  502 -0.39376327250E+02 -0.37274546228E+02  0.42757339130E+03  0.43102318022E+03  0.47000000000E+01 0. -1.
          5    1    5    5  503    0  0.14731526860E+02  0.38652705199E+02  0.73067620852E+03  0.73186123083E+03  0.47000000000E+01 0.  1.
         -5    1    5    5    0  503 -0.41519919051E+02  0.13486607651E+01  0.77796693202E+02  0.88318390141E+02  0.47000000000E+01 0.  1.
<mgrwt>
<rscale>  0 0.27525277E+03</rscale>
<asrwt>0</asrwt>
<pdfrwt beam="1">  1        2 0.22182362E+00 0.27525277E+03</pdfrwt>
<pdfrwt beam="2">  1       -2 0.20210120E-02 0.27525277E+03</pdfrwt>
<totfact> 0.11162433E+04</totfact>
</mgrwt>
</event>
<event>
 9    1  0.2094635E-002  0.2750729E+03  0.7818608E-02  0.1098411E+00
          2   -1    0    0  501    0  0.00000000000E+00  0.00000000000E+00  0.66865305010E+02  0.66865305010E+02  0.00000000000E+00 0.  1.
         -2   -1    0    0    0  501 -0.00000000000E+00 -0.00000000000E+00 -0.28290117013E+03  0.28290117013E+03  0.00000000000E+00 0.  1.
         36    2    1    2    0    0  0.35527136788E-14 -0.71054273576E-14 -0.21603586512E+03  0.34976647514E+03  0.27507288509E+03 0.  0.
         25    2    3    3    0    0 -0.24173235184E+01 -0.54911914365E+02 -0.10066758353E+03  0.17052569994E+03  0.12618989727E+03 0.  0.
         25    2    3    3    0    0  0.24173235184E+01  0.54911914365E+02 -0.11536828159E+03  0.17924077521E+03  0.12568314647E+03 0.  0.
          5    1    4    4  502    0  0.21817101605E+02  0.36182664758E+02 -0.39696998531E+02  0.58164532524E+02  0.47000000000E+01 0.  1.
         -5    1    4    4    0  502 -0.24234425123E+02 -0.91094579123E+02 -0.60970585004E+02  0.11236116741E+03  0.47000000000E+01 0.  1.
          5    1    5    5  503    0 -0.44918239037E+02  0.21301985290E+02  0.76827709987E-01  0.49935144718E+02  0.47000000000E+01 0.  1.
         -5    1    5    5    0  503  0.47335562556E+02  0.33609929075E+02 -0.11544510930E+03  0.12930563049E+03  0.47000000000E+01 0.  1.
<mgrwt>
<rscale>  0 0.27507289E+03</rscale>
<asrwt>0</asrwt>
<pdfrwt beam="1">  1        2 0.10286970E-01 0.27507289E+03</pdfrwt>
<pdfrwt beam="2">  1       -2 0.43523258E-01 0.27507289E+03</pdfrwt>
<totfact> 0.31151056E+03</totfact>
</mgrwt>
</event>
<event>
 9    1  0.2094635E-002  0.2760508E+03  0.7818608E-02  0.1097866E+00
         -1   -1    0    0    0  501 -0.00000000000E+00  0.00000000000E+00  0.11065616625E+02  0.11065616625E+02  0.00000000000E+00 0. -1.
          1   -1    0    0  501    0  0.00000000000E+00 -0.00000000000E+00 -0.17216404339E+04  0.17216404339E+04  0.00000000000E+00 0. -1.
         36    2    1    2    0    0  0.00000000000E+00  0.00000000000E+00 -0.17105748173E+04  0.17327060506E+04  0.27605081422E+03 0.  0.
         25    2    3    3    0    0  0.32449901138E+02 -0.44589466956E+02 -0.74947471132E+03  0.76209102589E+03  0.12660636704E+03 0.  0.
         25    2    3    3    0    0 -0.32449901138E+02  0.44589466956E+02 -0.96110010598E+03  0.97061502466E+03  0.12385029572E+03 0.  0.
          5    1    4    4  502    0 -0.13161395770E+02 -0.10405847589E+02 -0.93773016248E+01  0.19787061137E+02  0.47000000000E+01 0. -1.
         -5    1    4    4    0  502  0.45611296908E+02 -0.34183619367E+02 -0.74009740970E+03  0.74230396475E+03  0.47000000000E+01 0. -1.
          5    1    5    5  503    0 -0.42222723201E+01  0.24476985246E+02 -0.89889692307E+03  0.89925231092E+03  0.47000000000E+01 0. -1.
         -5    1    5    5    0  503 -0.28227628818E+02  0.20112481710E+02 -0.62203182904E+02  0.71362713742E+02  0.47000000000E+01 0. -1.
<mgrwt>
<rscale>  0 0.27605081E+03</rscale>
<asrwt>0</asrwt>
<pdfrwt beam="1">  1        1 0.26486756E+00 0.27605081E+03</pdfrwt>
<pdfrwt beam="2">  1       -1 0.17024038E-02 0.27605081E+03</pdfrwt>
<totfact> 0.44411825E+03</totfact>
</mgrwt>
</event>
<event>
 9    1  0.2094635E-002  0.2745133E+03  0.7818608E-02  0.1098724E+00
         -2   -1    0    0    0  501 -0.00000000000E+00  0.00000000000E+00  0.13922994247E+02  0.13922994247E+02  0.00000000000E+00 0.  1.
          2   -1    0    0  501    0  0.00000000000E+00 -0.00000000000E+00 -0.13531132174E+04  0.13531132174E+04  0.00000000000E+00 0.  1.
         36    2    1    2    0    0  0.00000000000E+00  0.35527136788E-14 -0.13391902232E+04  0.13670362117E+04  0.27451329688E+03 0.  0.
         25    2    3    3    0    0 -0.20071989651E+02 -0.58319833392E+01 -0.30027430513E+03  0.32118346011E+03  0.11205918048E+03 0.  0.
         25    2    3    3    0    0  0.20071989651E+02  0.58319833392E+01 -0.10389159181E+04  0.10458527516E+04  0.11842633310E+03 0.  0.
          5    1    4    4  502    0 -0.53342241313E+02 -0.19453519759E+02 -0.81584746980E+02  0.99508768856E+02  0.47000000000E+01 0.  1.
         -5    1    4    4    0  502  0.33270251662E+02  0.13621536419E+02 -0.21868955815E+03  0.22167469125E+03  0.47000000000E+01 0.  1.
          5    1    5    5  503    0  0.29104771545E+02 -0.50772950068E+02 -0.65871986004E+03  0.66133117588E+03  0.47000000000E+01 0.  1.
         -5    1    5    5    0  503 -0.90327818939E+01  0.56604933407E+02 -0.38019605804E+03  0.38452157570E+03  0.47000000000E+01 0.  1.
<mgrwt>
<rscale>  0 0.27451330E+03</rscale>
<asrwt>0</asrwt>
<pdfrwt beam="1">  1        2 0.20817138E+00 0.27451330E+03</pdfrwt>
<pdfrwt beam="2">  1       -2 0.21419979E-02 0.27451330E+03</pdfrwt>
<totfact> 0.11448879E+04</totfact>
</mgrwt>
</event>
<event>
 9    1  0.2094635E-002  0.2746013E+03  0.7818608E-02  0.1098675E+00
         -2   -1    0    0    0  501 -0.00000000000E+00  0.00000000000E+00  0.21881481319E+02  0.21881481319E+02  0.00000000000E+00 0. -1.
          2   -1    0    0  501    0  0.00000000000E+00 -0.00000000000E+00 -0.86152601480E+03  0.86152601480E+03  0.00000000000E+00 0. -1.
         36    2    1    2    0    0  0.71054273576E-14 -0.17763568394E-14 -0.83964453349E+03  0.88340749612E+03  0.27460127748E+03 0.  0.
         25    2    3    3    0    0  0.28730476647E+02 -0.11969932955E+02 -0.43577283050E+03  0.45443890137E+03  0.12509210882E+03 0.  0.
         25    2    3    3    0    0 -0.28730476647E+02  0.11969932955E+02 -0.40387170298E+03  0.42896859476E+03  0.14118421736E+03 0.  0.
          5    1    4    4  502    0 -0.13709668106E+02 -0.47524281500E+02 -0.34082703590E+03  0.34442948586E+03  0.47000000000E+01 0.  1.
         -5    1    4    4    0  502  0.42440144753E+02  0.35554348545E+02 -0.94945794602E+02  0.11000941551E+03  0.47000000000E+01 0.  1.
          5    1    5    5  503    0  0.45665849756E+02  0.63308394525E+00 -0.53152962158E+02  0.70236016512E+02  0.47000000000E+01 0. -1.
         -5    1    5    5    0  503 -0.74396326403E+02  0.11336849010E+02 -0.35071874083E+03  0.35873257825E+03  0.47000000000E+01 0. -1.
<mgrwt>
<rscale>  0 0.27460128E+03</rscale>
<asrwt>0</asrwt>
<pdfrwt beam="1">  1        2 0.13254246E+00 0.27460128E+03</pdfrwt>
<pdfrwt beam="2">  1       -2 0.33663818E-02 0.27460128E+03</pdfrwt>
<totfact> 0.11442095E+04</totfact>
</mgrwt>
</event>
<event>
 9    1  0.2094635E-002  0.2747317E+03  0.7818608E-02  0.1098602E+00
         -2   -1    0    0    0  501 -0.00000000000E+00  0.00000000000E+00  0.15873507321E+03  0.15873507321E+03  0.00000000000E+00 0.  1.
          2   -1    0    0  501    0  0.00000000000E+00 -0.00000000000E+00 -0.11887343490E+03  0.11887343490E+03  0.00000000000E+00 0.  1.
         36    2    1    2    0    0 -0.35527136788E-14 -0.17763568394E-14  0.39861638313E+02  0.27760850810E+03  0.27473174837E+03 0.  0.
         25    2    3    3    0    0  0.17743287920E+02  0.91805778930E+01  0.72299057375E+02  0.14696099529E+03  0.12637750260E+03 0.  0.
         25    2    3    3    0    0 -0.17743287920E+02 -0.91805778930E+01 -0.32437419062E+02  0.13064751281E+03  0.12496991307E+03 0.  0.
          5    1    4    4  502    0 -0.26669347028E+02  0.36081108280E+02 -0.13036702179E+02  0.46958982627E+02  0.47000000000E+01 0.  1.
         -5    1    4    4    0  502  0.44412634948E+02 -0.26900530387E+02  0.85335759555E+02  0.10000201266E+03  0.47000000000E+01 0.  1.
          5    1    5    5  503    0  0.34438617293E+01 -0.21816269489E+02 -0.76591889994E+02  0.79851220472E+02  0.47000000000E+01 0. -1.
         -5    1    5    5    0  503 -0.21187149649E+02  0.12635691596E+02  0.44154470932E+02  0.50796292341E+02  0.47000000000E+01 0. -1.
<mgrwt>
<rscale>  0 0.27473175E+03</rscale>
<asrwt>0</asrwt>
<pdfrwt beam="1">  1        2 0.18288221E-01 0.27473175E+03</pdfrwt>
<pdfrwt beam="2">  1       -2 0.24420781E-01 0.27473175E+03</pdfrwt>
<totfact> 0.45379465E+03</totfact>
</mgrwt>
</event>
<event>
 9    1  0.2094635E-002  0.2765719E+03  0.7818608E-02  0.1097576E+00
          1   -1    0    0  501    0  0.00000000000E+00  0.00000000000E+00  0.68975411782E+03  0.68975411782E+03  0.00000000000E+00 0.  1.
         -1   -1    0    0    0  501 -0.00000000000E+00 -0.00000000000E+00 -0.27724383150E+02  0.27724383150E+02  0.00000000000E+00 0.  1.
         36    2    1    2    0    0 -0.88817841970E-15  0.00000000000E+00  0.66202973467E+03  0.71747850097E+03  0.27657192513E+03 0.  0.
         25    2    3    3    0    0  0.87053656231E+00  0.69859837508E+01  0.47883427797E+03  0.49526166623E+03  0.12630237715E+03 0.  0.
         25    2    3    3    0    0 -0.87053656231E+00 -0.69859837508E+01  0.18319545670E+03  0.22221683475E+03  0.12557939514E+03 0.  0.
          5    1    4    4  502    0 -0.19695369324E+02 -0.16185207133E+02  0.45538752777E+03  0.45612471863E+03  0.47000000000E+01 0. -1.
         -5    1    4    4    0  502  0.20565905886E+02  0.23171190884E+02  0.23446750198E+02  0.39136947591E+02  0.47000000000E+01 0. -1.
          5    1    5    5  503    0 -0.58494600029E+01 -0.27805525286E+02  0.19514199996E+03  0.19725580744E+03  0.47000000000E+01 0.  1.
         -5    1    5    5    0  503  0.49789234406E+01  0.20819541535E+02 -0.11946543259E+02  0.24961027307E+02  0.47000000000E+01 0.  1.
<mgrwt>
<rscale>  0 0.27657193E+03</rscale>
<asrwt>0</asrwt>
<pdfrwt beam="1">  1        1 0.10611601E+00 0.27657193E+03</pdfrwt>
<pdfrwt beam="2">  1       -1 0.42652902E-02 0.27657193E+03</pdfrwt>
<totfact> 0.64190499E+03</totfact>
</mgrwt>
</event>
<event>
 9    1  0.2094635E-002  0.2753691E+03  0.7818608E-02  0.1098245E+00
         -2   -1    0    0    0  501 -0.00000000000E+00  0.00000000000E+00  0.22704997531E+02  0.22704997531E+02  0.00000000000E+00 0. -1.
          2   -1    0    0  501    0  0.00000000000E+00 -0.00000000000E+00 -0.83492767901E+03  0.83492767901E+03  0.00000000000E+00 0. -1.
         36    2    1    2    0    0 -0.71054273576E-14  0.00000000000E+00 -0.81222268148E+03  0.85763267654E+03  0.27536906791E+03 0.  0.
         25    2    3    3    0    0  0.21227452113E+02 -0.31390694730E+02 -0.26350862549E+03  0.29362163402E+03  0.12385833772E+03 0.  0.
         25    2    3    3    0    0 -0.21227452113E+02  0.31390694730E+02 -0.54871405599E+03  0.56401104252E+03  0.12484134091E+03 0.  0.
          5    1    4    4  502    0  0.19714156888E+02 -0.38944302763E+02 -0.17205456466E+02  0.47153201712E+02  0.47000000000E+01 0. -1.
         -5    1    4    4    0  502  0.15132952254E+01  0.75536080332E+01 -0.24630316902E+03  0.24646843231E+03  0.47000000000E+01 0. -1.
          5    1    5    5  503    0  0.14729196946E+02 -0.15829684661E+01 -0.26671804977E+01  0.15768921449E+02  0.47000000000E+01 0. -1.
         -5    1    5    5    0  503 -0.35956649060E+02  0.32973663196E+02 -0.54604687549E+03  0.54824212107E+03  0.47000000000E+01 0. -1.
<mgrwt>
<rscale>  0 0.27536907E+03</rscale>
<asrwt>0</asrwt>
<pdfrwt beam="1">  1        2 0.12845039E+00 0.27536907E+03</pdfrwt>
<pdfrwt beam="2">  1       -2 0.34930773E-02 0.27536907E+03</pdfrwt>
<totfact> 0.11280129E+04</totfact>
</mgrwt>
</event>
<event>
 9    1  0.2094635E-002  0.2737291E+03  0.7818608E-02  0.1099164E+00
          2   -1    0    0  501    0  0.00000000000E+00  0.00000000000E+00  0.64924548853E+03  0.64924548853E+03  0.00000000000E+00 0. -1.
         -2   -1    0    0    0  501 -0.00000000000E+00 -0.00000000000E+00 -0.28851796583E+02  0.28851796583E+02  0.00000000000E+00 0. -1.
         36    2    1    2    0    0 -0.35527136788E-14  0.00000000000E+00  0.62039369195E+03  0.67809728512E+03  0.27372905412E+03 0.  0.
         25    2    3    3    0    0  0.10752771540E+02  0.40443861377E+02  0.19358844024E+03  0.23401286757E+03  0.12463631082E+03 0.  0.
         25    2    3    3    0    0 -0.10752771540E+02 -0.40443861377E+02  0.42680525171E+03  0.44408441755E+03  0.11531226736E+03 0.  0.
          5    1    4    4  502    0 -0.17441897154E+02  0.47554343644E+02  0.15033294253E+02  0.53044559682E+02  0.47000000000E+01 0. -1.
         -5    1    4    4    0  502  0.28194668694E+02 -0.71104822663E+01  0.17855514599E+03  0.18096830789E+03  0.47000000000E+01 0. -1.
          5    1    5    5  503    0  0.39153673051E+02 -0.60573707863E+01  0.58584113502E+02  0.70879406100E+02  0.47000000000E+01 0. -1.
         -5    1    5    5    0  503 -0.49906444591E+02 -0.34386490591E+02  0.36822113821E+03  0.37320501145E+03  0.47000000000E+01 0. -1.
<mgrwt>
<rscale>  0 0.27372905E+03</rscale>
<asrwt>0</asrwt>
<pdfrwt beam="1">  1        2 0.99883910E-01 0.27372905E+03</pdfrwt>
<pdfrwt beam="2">  1       -2 0.44387384E-02 0.27372905E+03</pdfrwt>
<totfact> 0.10736206E+04</totfact>
</mgrwt>
</event>
<event>
 9    1  0.2094635E-002  0.2748150E+03  0.7818608E-02  0.1098555E+00
          1   -1    0    0  501    0  0.00000000000E+00  0.00000000000E+00  0.13059520665E+04  0.13059520665E+04  0.00000000000E+00 0. -1.
         -1   -1    0    0    0  501 -0.00000000000E+00 -0.00000000000E+00 -0.14457514602E+02  0.14457514602E+02  0.00000000000E+00 0. -1.
         36    2    1    2    0    0 -0.71054273576E-14  0.00000000000E+00  0.12914945519E+04  0.13204095811E+04  0.27481500011E+03 0.  0.
         25    2    3    3    0    0 -0.10039398302E+02  0.37791692322E+02  0.84244631092E+03  0.85269010933E+03  0.12583971651E+03 0.  0.
         25    2    3    3    0    0  0.10039398302E+02 -0.37791692322E+02  0.44904824098E+03  0.46771947177E+03  0.12485263320E+03 0.  0.
          5    1    4    4  502    0 -0.47914709111E+02 -0.14957191558E+02  0.17621266238E+03  0.18328264869E+03  0.47000000000E+01 0.  1.
         -5    1    4    4    0  502  0.37875310809E+02  0.52748883880E+02  0.66623364854E+03  0.66940746064E+03  0.47000000000E+01 0.  1.
          5    1    5    5  503    0  0.49319184842E+02 -0.26680487007E+01  0.36535418625E+03  0.36870756961E+03  0.47000000000E+01 0. -1.
         -5    1    5    5    0  503 -0.39279786539E+02 -0.35123643622E+02  0.83694054730E+02  0.99011902158E+02  0.47000000000E+01 0. -1.
<mgrwt>
<rscale>  0 0.27481500E+03</rscale>
<asrwt>0</asrwt>
<pdfrwt beam="1">  1        1 0.20091561E+00 0.27481500E+03</pdfrwt>
<pdfrwt beam="2">  1       -1 0.22242340E-02 0.27481500E+03</pdfrwt>
<totfact> 0.56712558E+03</totfact>
</mgrwt>
</event>
<event>
 9    1  0.2094635E-002  0.2722430E+03  0.7818608E-02  0.1100003E+00
          2   -1    0    0  501    0  0.00000000000E+00  0.00000000000E+00  0.96717022013E+02  0.96717022013E+02  0.00000000000E+00 0.  1.
         -2   -1    0    0    0  501 -0.00000000000E+00 -0.00000000000E+00 -0.19158018300E+03  0.19158018300E+03  0.00000000000E+00 0.  1.
         36    2    1    2    0    0 -0.14210854715E-13  0.00000000000E+00 -0.94863160989E+02  0.28829720502E+03  0.27224301480E+03 0.  0.
         25    2    3    3    0    0  0.31301140491E+02  0.32660079035E+02 -0.81126832142E+02  0.15461936670E+03  0.12360883264E+03 0.  0.
         25    2    3    3    0    0 -0.31301140491E+02 -0.32660079035E+02 -0.13736328847E+02  0.13367783832E+03  0.12503853633E+03 0.  0.
          5    1    4    4  502    0  0.78374403545E+02  0.99910082364E+01 -0.50110417643E+02  0.93677699230E+02  0.47000000000E+01 0.  1.
         -5    1    4    4    0  502 -0.47073263054E+02  0.22669070799E+02 -0.31016414499E+02  0.60941667469E+02  0.47000000000E+01 0.  1.
          5    1    5    5  503    0 -0.36746455128E+02  0.41928071184E+02 -0.17576105110E+02  0.58645328787E+02  0.47000000000E+01 0.  1.
         -5    1    5    5    0  503  0.54453146368E+01 -0.74588150219E+02  0.38397762634E+01  0.75032509530E+02  0.47000000000E+01 0.  1.
<mgrwt>
<rscale>  0 0.27224301E+03</rscale>
<asrwt>0</asrwt>
<pdfrwt beam="1">  1        2 0.14879542E-01 0.27224301E+03</pdfrwt>
<pdfrwt beam="2">  1       -2 0.29473874E-01 0.27224301E+03</pdfrwt>
<totfact> 0.41306508E+03</totfact>
</mgrwt>
</event>
<event>
 9    1  0.2094635E-002  0.2751539E+03  0.7818608E-02  0.1098366E+00
         -1   -1    0    0    0  501 -0.00000000000E+00  0.00000000000E+00  0.24137944421E+03  0.24137944421E+03  0.00000000000E+00 0.  1.
          1   -1    0    0  501    0  0.00000000000E+00 -0.00000000000E+00 -0.78413551585E+02  0.78413551585E+02  0.00000000000E+00 0.  1.
         36    2    1    2    0    0 -0.71054273576E-14  0.17763568394E-14  0.16296589262E+03  0.31979299579E+03  0.27515391693E+03 0.  0.
         25    2    3    3    0    0  0.15508331302E+02  0.12026530495E+02  0.14109002580E+03  0.19009887338E+03  0.12588105698E+03 0.  0.
         25    2    3    3    0    0 -0.15508331302E+02 -0.12026530495E+02  0.21875866826E+02  0.12969412241E+03  0.12632048948E+03 0.  0.
          5    1    4    4  502    0  0.70516479539E+02  0.29143154807E+01  0.88657039817E+02  0.11341617094E+03  0.47000000000E+01 0. -1.
         -5    1    4    4    0  502 -0.55008148237E+02  0.91122150142E+01  0.52432985978E+02  0.76682702440E+02  0.47000000000E+01 0. -1.
          5    1    5    5  503    0  0.80369151279E+01  0.48620319825E+02 -0.18653244788E+02  0.52901427634E+02  0.47000000000E+01 0. -1.
         -5    1    5    5    0  503 -0.23545246430E+02 -0.60646850320E+02  0.40529111614E+02  0.76792694778E+02  0.47000000000E+01 0. -1.
<mgrwt>
<rscale>  0 0.27515392E+03</rscale>
<asrwt>0</asrwt>
<pdfrwt beam="1">  1        1 0.12063623E-01 0.27515392E+03</pdfrwt>
<pdfrwt beam="2">  1       -1 0.37135299E-01 0.27515392E+03</pdfrwt>
<totfact> 0.34938500E+03</totfact>
</mgrwt>
</event>
<event>
 9    1  0.2094635E-002  0.2744440E+03  0.7818608E-02  0.1098763E+00
          1   -1    0    0  501    0  0.00000000000E+00  0.00000000000E+00  0.35705749266E+03  0.35705749266E+03  0.00000000000E+00 0.  1.
         -1   -1    0    0    0  501 -0.00000000000E+00 -0.00000000000E+00 -0.52736244199E+02  0.52736244199E+02  0.00000000000E+00 0.  1.
         36    2    1    2    0    0  0.35527136788E-14 -0.71054273576E-14  0.30432124846E+03  0.40979373685E+03  0.27444395512E+03 0.  0.
         25    2    3    3    0    0 -0.86878076429E+01  0.33504122674E+02  0.21163764338E+03  0.24854121102E+03  0.12563533438E+03 0.  0.
         25    2    3    3    0    0  0.86878076429E+01 -0.33504122674E+02  0.92683605080E+02  0.16125252583E+03  0.12733468576E+03 0.  0.
          5    1    4    4  502    0  0.47782032052E+02 -0.14849162575E+02  0.51669912272E+02  0.72079747852E+02  0.47000000000E+01 0.  1.
         -5    1    4    4    0  502 -0.56469839695E+02  0.48353285249E+02  0.15996773110E+03  0.17646146317E+03  0.47000000000E+01 0.  1.
          5    1    5    5  503    0 -0.19264264167E+02 -0.16538954784E+02  0.11726640730E+03  0.12007559777E+03  0.47000000000E+01 0.  1.
         -5    1    5    5    0  503  0.27952071810E+02 -0.16965167890E+02 -0.24582802216E+02  0.41176928064E+02  0.47000000000E+01 0.  1.
<mgrwt>
<rscale>  0 0.27444396E+03</rscale>
<asrwt>0</asrwt>
<pdfrwt beam="1">  1        1 0.54931921E-01 0.27444396E+03</pdfrwt>
<pdfrwt beam="2">  1       -1 0.81132685E-02 0.27444396E+03</pdfrwt>
<totfact> 0.58734494E+03</totfact>
</mgrwt>
</event>
<event>
 9    1  0.2094635E-002  0.2776422E+03  0.7818608E-02  0.1096984E+00
          2   -1    0    0  501    0  0.00000000000E+00  0.00000000000E+00  0.15267726406E+03  0.15267726406E+03  0.00000000000E+00 0. -1.
         -2   -1    0    0    0  501 -0.00000000000E+00 -0.00000000000E+00 -0.12622246960E+03  0.12622246960E+03  0.00000000000E+00 0. -1.
         36    2    1    2    0    0  0.00000000000E+00  0.00000000000E+00  0.26454794462E+02  0.27889973366E+03  0.27764222533E+03 0.  0.
         25    2    3    3    0    0  0.15958538661E+02 -0.54828321339E+02  0.22855598753E+02  0.14066252867E+03  0.12650197153E+03 0.  0.
         25    2    3    3    0    0 -0.15958538661E+02  0.54828321339E+02  0.35991957092E+01  0.13823720499E+03  0.12584017981E+03 0.  0.
          5    1    4    4  502    0 -0.40294596591E+02 -0.65795637862E+01  0.47133961056E+02  0.62535153785E+02  0.47000000000E+01 0. -1.
         -5    1    4    4    0  502  0.56253135251E+02 -0.48248757553E+02 -0.24278362304E+02  0.78127374890E+02  0.47000000000E+01 0. -1.
          5    1    5    5  503    0 -0.17503875636E+02  0.63819414096E+02  0.54780852330E+02  0.86036823860E+02  0.47000000000E+01 0.  1.
         -5    1    5    5    0  503  0.15453369752E+01 -0.89910927573E+01 -0.51181656621E+02  0.52200381127E+02  0.47000000000E+01 0.  1.
<mgrwt>
<rscale>  0 0.27764223E+03</rscale>
<asrwt>0</asrwt>
<pdfrwt beam="1">  1        2 0.23488810E-01 0.27764223E+03</pdfrwt>
<pdfrwt beam="2">  1       -2 0.19418841E-01 0.27764223E+03</pdfrwt>
<totfact> 0.50733125E+03</totfact>
</mgrwt>
</event>
<event>
 9    1  0.2094635E-002  0.2749920E+03  0.7818608E-02  0.1098456E+00
         -1   -1    0    0    0  501 -0.00000000000E+00  0.00000000000E+00  0.26833687734E+04  0.26833687734E+04  0.00000000000E+00 0.  1.
          1   -1    0    0  501    0  0.00000000000E+00 -0.00000000000E+00 -0.70453031389E+01  0.70453031389E+01  0.00000000000E+00 0.  1.
         36    2    1    2    0    0  0.17763568394E-14 -0.35527136788E-14  0.26763234703E+04  0.26904140766E+04  0.27499197401E+03 0.  0.
         25    2    3    3    0    0  0.77458408716E+01 -0.25060855916E+02  0.16385586603E+04  0.16436357374E+04  0.12639584417E+03 0.  0.
         25    2    3    3    0    0 -0.77458408716E+01  0.25060855916E+02  0.10377648100E+04  0.10467783392E+04  0.13454012774E+03 0.  0.
          5    1    4    4  502    0 -0.94389520456E+01  0.48989774977E+02  0.49040600926E+03  0.49295966954E+03  0.47000000000E+01 0. -1.
         -5    1    4    4    0  502  0.17184792917E+02 -0.74050630892E+02  0.11481526510E+04  0.11506760678E+04  0.47000000000E+01 0. -1.
          5    1    5    5  503    0  0.58828551933E+02  0.30582221742E+02  0.39729539715E+03  0.40281732015E+03  0.47000000000E+01 0.  1.
         -5    1    5    5    0  503 -0.66574392804E+02 -0.55213658266E+01  0.64046941285E+03  0.64396101905E+03  0.47000000000E+01 0.  1.
<mgrwt>
<rscale>  0 0.27499197E+03</rscale>
<asrwt>0</asrwt>
<pdfrwt beam="1">  1        1 0.10838949E-02 0.27499197E+03</pdfrwt>
<pdfrwt beam="2">  1       -1 0.41282515E+00 0.27499197E+03</pdfrwt>
<totfact> 0.10406007E+02</totfact>
</mgrwt>
</event>
<event>
 9    1  0.2094635E-002  0.2677706E+03  0.7818608E-02  0.1102562E+00
         -2   -1    0    0    0  501 -0.00000000000E+00  0.00000000000E+00  0.79700638892E+01  0.79700638892E+01  0.00000000000E+00 0.  1.
          2   -1    0    0  501    0  0.00000000000E+00 -0.00000000000E+00 -0.22490753554E+04  0.22490753554E+04  0.00000000000E+00 0.  1.
         36    2    1    2    0    0 -0.14210854715E-13 -0.71054273576E-14 -0.22411052915E+04  0.22570454193E+04  0.26777060536E+03 0.  0.
         25    2    3    3    0    0 -0.26921634323E+02 -0.60168985087E+01 -0.83234081556E+03  0.84254696949E+03  0.12780135005E+03 0.  0.
         25    2    3    3    0    0  0.26921634323E+02  0.60168985087E+01 -0.14087644759E+04  0.14144984498E+04  0.12420764205E+03 0.  0.
          5    1    4    4  502    0 -0.71836117512E+02  0.10857356768E+01 -0.67109506499E+03  0.67494613330E+03  0.47000000000E+01 0.  1.
         -5    1    4    4    0  502  0.44914483189E+02 -0.71026341856E+01 -0.16124575057E+03  0.16760083619E+03  0.47000000000E+01 0.  1.
          5    1    5    5  503    0 -0.18306222393E+02 -0.50913432968E+02 -0.62407851252E+03  0.62643704810E+03  0.47000000000E+01 0.  1.
         -5    1    5    5    0  503  0.45227856716E+02  0.56930331477E+02 -0.78468596339E+03  0.78806140167E+03  0.47000000000E+01 0.  1.
<mgrwt>
<rscale>  0 0.26777061E+03</rscale>
<asrwt>0</asrwt>
<pdfrwt beam="1">  1        2 0.34601159E+00 0.26777061E+03</pdfrwt>
<pdfrwt beam="2">  1       -2 0.12261637E-02 0.26777061E+03</pdfrwt>
<totfact> 0.86828651E+03</totfact>
</mgrwt>
</event>
<event>
 9    1  0.2094635E-002  0.2751274E+03  0.7818608E-02  0.1098380E+00
         -1   -1    0    0    0  501 -0.00000000000E+00  0.00000000000E+00  0.33981797676E+03  0.33981797676E+03  0.00000000000E+00 0. -1.
          1   -1    0    0  501    0  0.00000000000E+00 -0.00000000000E+00 -0.55687970447E+02  0.55687970447E+02  0.00000000000E+00 0. -1.
         36    2    1    2    0    0  0.71054273576E-14  0.00000000000E+00  0.28413000631E+03  0.39550594720E+03  0.27512741373E+03 0.  0.
         25    2    3    3    0    0 -0.19510673802E+02  0.21551134592E+02  0.18841903689E+03  0.23048593920E+03  0.12952573841E+03 0.  0.
         25    2    3    3    0    0  0.19510673802E+02 -0.21551134592E+02  0.95710969421E+02  0.16502000800E+03  0.13124745933E+03 0.  0.
          5    1    4    4  502    0  0.36329853509E+02  0.22537579451E+01  0.41686143246E+01  0.36937853568E+02  0.47000000000E+01 0.  1.
         -5    1    4    4    0  502 -0.55840527311E+02  0.19297376647E+02  0.18425042256E+03  0.19354808563E+03  0.47000000000E+01 0.  1.
          5    1    5    5  503    0  0.66370959511E+02 -0.25057466978E+02  0.16799990975E+02  0.73056899842E+02  0.47000000000E+01 0.  1.
         -5    1    5    5    0  503 -0.46860285710E+02  0.35063323859E+01  0.78910978446E+02  0.91963108162E+02  0.47000000000E+01 0.  1.
<mgrwt>
<rscale>  0 0.27512741E+03</rscale>
<asrwt>0</asrwt>
<pdfrwt beam="1">  1        1 0.85673803E-02 0.27512741E+03</pdfrwt>
<pdfrwt beam="2">  1       -1 0.52279688E-01 0.27512741E+03</pdfrwt>
<totfact> 0.29817699E+03</totfact>
</mgrwt>
</event>
<event>
 9    1  0.2094635E-002  0.2746402E+03  0.7818608E-02  0.1098653E+00
          2   -1    0    0  501    0  0.00000000000E+00  0.00000000000E+00  0.46016860623E+02  0.46016860623E+02  0.00000000000E+00 0.  1.
         -2   -1    0    0    0  501 -0.00000000000E+00 -0.00000000000E+00 -0.40978043507E+03  0.40978043507E+03  0.00000000000E+00 0.  1.
         36    2    1    2    0    0 -0.14210854715E-13  0.00000000000E+00 -0.36376357444E+03  0.45579729569E+03  0.27464019492E+03 0.  0.
         25    2    3    3    0    0  0.57054104501E+02  0.31397993804E+02 -0.17227645357E+03  0.22110487837E+03  0.12234045091E+03 0.  0.
         25    2    3    3    0    0 -0.57054104501E+02 -0.31397993804E+02 -0.19148712087E+03  0.23469241732E+03  0.11904708494E+03 0.  0.
          5    1    4    4  502    0  0.61451146780E+02  0.65132064121E+02 -0.16216420031E+03  0.18530447129E+03  0.47000000000E+01 0. -1.
         -5    1    4    4    0  502 -0.43970422787E+01 -0.33734070318E+02 -0.10112253259E+02  0.35800407078E+02  0.47000000000E+01 0. -1.
          5    1    5    5  503    0 -0.87246244205E+02 -0.15503728587E+02 -0.85408674709E+02  0.12316251233E+03  0.47000000000E+01 0.  1.
         -5    1    5    5    0  503  0.30192139704E+02 -0.15894265216E+02 -0.10607844616E+03  0.11152990499E+03  0.47000000000E+01 0.  1.
<mgrwt>
<rscale>  0 0.27464019E+03</rscale>
<asrwt>0</asrwt>
<pdfrwt beam="1">  1        2 0.70795170E-02 0.27464019E+03</pdfrwt>
<pdfrwt beam="2">  1       -2 0.63043144E-01 0.27464019E+03</pdfrwt>
<totfact> 0.23667180E+03</totfact>
</mgrwt>
</event>
<event>
 9    1  0.2094635E-002  0.2757308E+03  0.7818608E-02  0.1098044E+00
         -1   -1    0    0    0  501 -0.00000000000E+00  0.00000000000E+00  0.31891592099E+02  0.31891592099E+02  0.00000000000E+00 0. -1.
          1   -1    0    0  501    0  0.00000000000E+00 -0.00000000000E+00 -0.59598357819E+03  0.59598357819E+03  0.00000000000E+00 0. -1.
         36    2    1    2    0    0  0.71054273576E-14 -0.35527136788E-14 -0.56409198609E+03  0.62787517029E+03  0.27573077575E+03 0.  0.
         25    2    3    3    0    0  0.49350721567E+02 -0.23307673261E+02 -0.34295628607E+03  0.36954144804E+03  0.12634526629E+03 0.  0.
         25    2    3    3    0    0 -0.49350721567E+02  0.23307673261E+02 -0.22113570002E+03  0.25833372225E+03  0.12188754192E+03 0.  0.
          5    1    4    4  502    0 -0.33932513722E+02 -0.39459522340E+02 -0.11700795124E+03  0.12814608868E+03  0.47000000000E+01 0.  1.
         -5    1    4    4    0  502  0.83283235290E+02  0.16151849078E+02 -0.22594833483E+03  0.24139535936E+03  0.47000000000E+01 0.  1.
          5    1    5    5  503    0 -0.25492195925E+02  0.20749818043E+02  0.25630347935E+01  0.33302644778E+02  0.47000000000E+01 0.  1.
         -5    1    5    5    0  503 -0.23858525643E+02  0.25578552186E+01 -0.22369873482E+03  0.22503107747E+03  0.47000000000E+01 0.  1.
<mgrwt>
<rscale>  0 0.27573078E+03</rscale>
<asrwt>0</asrwt>
<pdfrwt beam="1">  1        1 0.91689777E-01 0.27573078E+03</pdfrwt>
<pdfrwt beam="2">  1       -1 0.49063990E-02 0.27573078E+03</pdfrwt>
<totfact> 0.64055978E+03</totfact>
</mgrwt>
</event>
<event>
 9    1  0.2094635E-002  0.2738768E+03  0.7818608E-02  0.1099081E+00
         -3   -1    0    0    0  501 -0.00000000000E+00  0.00000000000E+00  0.87033879495E+03  0.87033879495E+03  0.00000000000E+00 0. -1.
          3   -1    0    0  501    0  0.00000000000E+00 -0.00000000000E+00 -0.21545773307E+02  0.21545773307E+02  0.00000000000E+00 0. -1.
         36    2    1    2    0    0  0.00000000000E+00  0.00000000000E+00  0.84879302164E+03  0.89188456826E+03  0.27387677796E+03 0.  0.
         25    2    3    3    0    0  0.27122838513E+02  0.19788498674E+02  0.39163389793E+03  0.41198150377E+03  0.12338726188E+03 0.  0.
         25    2    3    3    0    0 -0.27122838513E+02 -0.19788498674E+02  0.45715912371E+03  0.47990306449E+03  0.14207481783E+03 0.  0.
          5    1    4    4  502    0  0.61162303298E+00  0.20848986967E+02  0.20634252024E+01  0.21480271503E+02  0.47000000000E+01 0. -1.
         -5    1    4    4    0  502  0.26511215480E+02 -0.10604882929E+01  0.38957047273E+03  0.39050123227E+03  0.47000000000E+01 0. -1.
          5    1    5    5  503    0  0.54584879376E+02 -0.28392787109E+02  0.15772272047E+03  0.16936412244E+03  0.47000000000E+01 0. -1.
         -5    1    5    5    0  503 -0.81707717889E+02  0.86042884350E+01  0.29943640324E+03  0.31053894205E+03  0.47000000000E+01 0. -1.
<mgrwt>
<rscale>  0 0.27387678E+03</rscale>
<asrwt>0</asrwt>
<pdfrwt beam="1">  1        3 0.33147350E-02 0.27387678E+03</pdfrwt>
<pdfrwt beam="2">  1       -3 0.13389825E+00 0.27387678E+03</pdfrwt>
<totfact> 0.50135305E+02</totfact>
</mgrwt>
</event>
<event>
 9    1  0.2094635E-002  0.2753303E+03  0.7818608E-02  0.1098267E+00
          1   -1    0    0  501    0  0.00000000000E+00  0.00000000000E+00  0.11891324490E+04  0.11891324490E+04  0.00000000000E+00 0.  1.
         -1   -1    0    0    0  501 -0.00000000000E+00 -0.00000000000E+00 -0.15937411487E+02  0.15937411487E+02  0.00000000000E+00 0.  1.
         36    2    1    2    0    0  0.00000000000E+00 -0.71054273576E-14  0.11731950375E+04  0.12050698605E+04  0.27533029730E+03 0.  0.
         25    2    3    3    0    0 -0.45028937595E+02 -0.23657121255E+02  0.53189706308E+03  0.54983565429E+03  0.12968229029E+03 0.  0.
         25    2    3    3    0    0  0.45028937595E+02  0.23657121255E+02  0.64129797446E+03  0.65523420622E+03  0.12442470955E+03 0.  0.
          5    1    4    4  502    0 -0.83572389239E+02 -0.44258676454E+02  0.38723646077E+03  0.39864437941E+03  0.47000000000E+01 0. -1.
         -5    1    4    4    0  502  0.38543451644E+02  0.20601555198E+02  0.14466060231E+03  0.15119127488E+03  0.47000000000E+01 0. -1.
          5    1    5    5  503    0  0.54156346618E+02 -0.38553230450E+02  0.24284791184E+03  0.25182624911E+03  0.47000000000E+01 0.  1.
         -5    1    5    5    0  503 -0.91274090224E+01  0.62210351706E+02  0.39845006262E+03  0.40340795711E+03  0.47000000000E+01 0.  1.
<mgrwt>
<rscale>  0 0.27533030E+03</rscale>
<asrwt>0</asrwt>
<pdfrwt beam="1">  1        1 0.18294339E+00 0.27533030E+03</pdfrwt>
<pdfrwt beam="2">  1       -1 0.24519104E-02 0.27533030E+03</pdfrwt>
<totfact> 0.59213738E+03</totfact>
</mgrwt>
</event>
<event>
 9    1  0.2094635E-002  0.2752787E+03  0.7818608E-02  0.1098296E+00
         -2   -1    0    0    0  501 -0.00000000000E+00  0.00000000000E+00  0.39283748608E+02  0.39283748608E+02  0.00000000000E+00 0.  1.
          2   -1    0    0  501    0  0.00000000000E+00 -0.00000000000E+00 -0.48225001590E+03  0.48225001590E+03  0.00000000000E+00 0.  1.
         36    2    1    2    0    0  0.00000000000E+00  0.00000000000E+00 -0.44296626729E+03  0.52153376450E+03  0.27527868345E+03 0.  0.
         25    2    3    3    0    0 -0.46316680219E+02 -0.32990662591E+01 -0.29278628719E+03  0.31958827422E+03  0.11940157597E+03 0.  0.
         25    2    3    3    0    0  0.46316680219E+02  0.32990662591E+01 -0.15017998010E+03  0.20194549029E+03  0.12677474481E+03 0.  0.
          5    1    4    4  502    0  0.25872646777E+02 -0.33706511163E+02 -0.15741278848E+03  0.16311467967E+03  0.47000000000E+01 0. -1.
         -5    1    4    4    0  502 -0.72189326996E+02  0.30407444904E+02 -0.13537349871E+03  0.15647359455E+03  0.47000000000E+01 0. -1.
          5    1    5    5  503    0 -0.34242728615E+02 -0.24345279316E+02 -0.83799211676E+02  0.93859762228E+02  0.47000000000E+01 0.  1.
         -5    1    5    5    0  503  0.80559408834E+02  0.27644345575E+02 -0.66380768421E+02  0.10808572806E+03  0.47000000000E+01 0.  1.
<mgrwt>
<rscale>  0 0.27527868E+03</rscale>
<asrwt>0</asrwt>
<pdfrwt beam="1">  1        2 0.74192315E-01 0.27527868E+03</pdfrwt>
<pdfrwt beam="2">  1       -2 0.60436533E-02 0.27527868E+03</pdfrwt>
<totfact> 0.94348596E+03</totfact>
</mgrwt>
</event>
<event>
 9    1  0.2094635E-002  0.2748014E+03  0.7818608E-02  0.1098563E+00
         -2   -1    0    0    0  501 -0.00000000000E+00  0.00000000000E+00  0.22672973467E+03  0.22672973467E+03  0.00000000000E+00 0. -1.
          2   -1    0    0  501    0  0.00000000000E+00 -0.00000000000E+00 -0.83266346205E+02  0.83266346205E+02  0.00000000000E+00 0. -1.
         36    2    1    2    0    0  0.00000000000E+00  0.00000000000E+00  0.14346338846E+03  0.30999608087E+03  0.27480143072E+03 0.  0.
         25    2    3    3    0    0  0.88019417474E+00  0.38925125156E+02  0.13573430232E+02  0.12927735755E+03  0.12252533231E+03 0.  0.
         25    2    3    3    0    0 -0.88019417474E+00 -0.38925125156E+02  0.12988995823E+03  0.18071872332E+03  0.11946512294E+03 0.  0.
          5    1    4    4  502    0 -0.94789287092E+01  0.36669330886E+02  0.65643289954E+02  0.75931689255E+02  0.47000000000E+01 0. -1.
         -5    1    4    4    0  502  0.10359122884E+02  0.22557942701E+01 -0.52069859722E+02  0.53345668299E+02  0.47000000000E+01 0. -1.
          5    1    5    5  503    0 -0.53042434017E+02 -0.47414176608E+02  0.61486445666E+02  0.94150289169E+02  0.47000000000E+01 0. -1.
         -5    1    5    5    0  503  0.52162239842E+02  0.84890514524E+01  0.68403512563E+02  0.86568434148E+02  0.47000000000E+01 0. -1.
<mgrwt>
<rscale>  0 0.27480143E+03</rscale>
<asrwt>0</asrwt>
<pdfrwt beam="1">  1        2 0.12810207E-01 0.27480143E+03</pdfrwt>
<pdfrwt beam="2">  1       -2 0.34881498E-01 0.27480143E+03</pdfrwt>
<totfact> 0.36278671E+03</totfact>
</mgrwt>
</event>
<event>
 9    1  0.2094635E-002  0.2742503E+03  0.7818608E-02  0.1098871E+00
          2   -1    0    0  501    0  0.00000000000E+00  0.00000000000E+00  0.13508051956E+04  0.13508051956E+04  0.00000000000E+00 0.  1.
         -2   -1    0    0    0  501 -0.00000000000E+00 -0.00000000000E+00 -0.13920075946E+02  0.13920075946E+02  0.00000000000E+00 0.  1.
         36    2    1    2    0    0  0.14210854715E-13  0.35527136788E-14  0.13368851197E+04  0.13647252716E+04  0.27425033026E+03 0.  0.
         25    2    3    3    0    0  0.57606078034E+02  0.21077828668E+01  0.68571010725E+03  0.69906014288E+03  0.12314150077E+03 0.  0.
         25    2    3    3    0    0 -0.57606078034E+02 -0.21077828668E+01  0.65117501244E+03  0.66566512870E+03  0.12553192327E+03 0.  0.
          5    1    4    4  502    0  0.66285919394E+02 -0.42206763884E+02  0.28124408577E+03  0.29205403577E+03  0.47000000000E+01 0. -1.
         -5    1    4    4    0  502 -0.86798413604E+01  0.44314546750E+02  0.40446602148E+03  0.40700610712E+03  0.47000000000E+01 0. -1.
          5    1    5    5  503    0  0.49496449381E+01  0.11177315220E+02  0.51480389757E+03  0.51497045965E+03  0.47000000000E+01 0.  1.
         -5    1    5    5    0  503 -0.62555722972E+02 -0.13285098087E+02  0.13637111488E+03  0.15069466905E+03  0.47000000000E+01 0.  1.
<mgrwt>
<rscale>  0 0.27425033E+03</rscale>
<asrwt>0</asrwt>
<pdfrwt beam="1">  1        2 0.20781608E+00 0.27425033E+03</pdfrwt>
<pdfrwt beam="2">  1       -2 0.21415512E-02 0.27425033E+03</pdfrwt>
<totfact> 0.11485539E+04</totfact>
</mgrwt>
</event>
<event>
 9    1  0.2094635E-002  0.2750386E+03  0.7818608E-02  0.1098430E+00
          1   -1    0    0  501    0  0.00000000000E+00  0.00000000000E+00  0.24081443090E+03  0.24081443090E+03  0.00000000000E+00 0.  1.
         -1   -1    0    0    0  501 -0.00000000000E+00 -0.00000000000E+00 -0.78531670124E+02  0.78531670124E+02  0.00000000000E+00 0.  1.
         36    2    1    2    0    0  0.00000000000E+00  0.00000000000E+00  0.16228276077E+03  0.31934610102E+03  0.27503861146E+03 0.  0.
         25    2    3    3    0    0  0.13408648028E+02 -0.40565020587E+02  0.12584563364E+03  0.17994292148E+03  0.12131372036E+03 0.  0.
         25    2    3    3    0    0 -0.13408648028E+02  0.40565020587E+02  0.36437127138E+02  0.13940317954E+03  0.12759415933E+03 0.  0.
          5    1    4    4  502    0  0.38738743444E+02 -0.17699895336E+02  0.13715137382E+03  0.14368912930E+03  0.47000000000E+01 0.  1.
         -5    1    4    4    0  502 -0.25330095416E+02 -0.22865125250E+02 -0.11305740181E+02  0.36253792181E+02  0.47000000000E+01 0.  1.
          5    1    5    5  503    0 -0.62842332083E+02  0.12444754653E+02 -0.11031374171E+02  0.65175239440E+02  0.47000000000E+01 0.  1.
         -5    1    5    5    0  503  0.49433684055E+02  0.28120265933E+02  0.47468501309E+02  0.74227940102E+02  0.47000000000E+01 0.  1.
<mgrwt>
<rscale>  0 0.27503861E+03</rscale>
<asrwt>0</asrwt>
<pdfrwt beam="1">  1        1 0.37048374E-01 0.27503861E+03</pdfrwt>
<pdfrwt beam="2">  1       -1 0.12081796E-01 0.27503861E+03</pdfrwt>
<totfact> 0.52129240E+03</totfact>
</mgrwt>
</event>
<event>
 9    1  0.2094635E-002  0.2746579E+03  0.7818608E-02  0.1098643E+00
          2   -1    0    0  501    0  0.00000000000E+00  0.00000000000E+00  0.14123995978E+03  0.14123995978E+03  0.00000000000E+00 0.  1.
         -2   -1    0    0    0  501 -0.00000000000E+00 -0.00000000000E+00 -0.13352628046E+03  0.13352628046E+03  0.00000000000E+00 0.  1.
         36    2    1    2    0    0  0.00000000000E+00  0.00000000000E+00  0.77136793179E+01  0.27476624024E+03  0.27465794350E+03 0.  0.
         25    2    3    3    0    0 -0.39922193477E+02 -0.55275721909E+00 -0.46474076376E+02  0.13268856646E+03  0.11769591676E+03 0.  0.
         25    2    3    3    0    0  0.39922193477E+02  0.55275721909E+00  0.54187755694E+02  0.14207767378E+03  0.12512260166E+03 0.  0.
          5    1    4    4  502    0 -0.34603562982E+02 -0.57289988566E+02 -0.25924845277E+02  0.71928693604E+02  0.47000000000E+01 0. -1.
         -5    1    4    4    0  502 -0.53186304955E+01  0.56737231347E+02 -0.20549231099E+02  0.60759872861E+02  0.47000000000E+01 0. -1.
          5    1    5    5  503    0  0.19059811401E+02  0.50746389349E+02 -0.12586798558E+02  0.55847917961E+02  0.47000000000E+01 0.  1.
         -5    1    5    5    0  503  0.20862382076E+02 -0.50193632130E+02  0.66774554252E+02  0.86229755814E+02  0.47000000000E+01 0.  1.
<mgrwt>
<rscale>  0 0.27465794E+03</rscale>
<asrwt>0</asrwt>
<pdfrwt beam="1">  1        2 0.21729225E-01 0.27465794E+03</pdfrwt>
<pdfrwt beam="2">  1       -2 0.20542505E-01 0.27465794E+03</pdfrwt>
<totfact> 0.50297001E+03</totfact>
</mgrwt>
</event>
<event>
 9    1  0.2094635E-002  0.2729292E+03  0.7818608E-02  0.1099615E+00
          2   -1    0    0  501    0  0.00000000000E+00  0.00000000000E+00  0.76650995344E+02  0.76650995344E+02  0.00000000000E+00 0.  1.
         -2   -1    0    0    0  501 -0.00000000000E+00 -0.00000000000E+00 -0.24295302087E+03  0.24295302087E+03  0.00000000000E+00 0.  1.
         36    2    1    2    0    0  0.71054273576E-14 -0.14210854715E-13 -0.16630202552E+03  0.31960401621E+03  0.27292922798E+03 0.  0.
         25    2    3    3    0    0 -0.47243466879E+02 -0.47655151600E+02 -0.57550633899E+02  0.15395506913E+03  0.12604415581E+03 0.  0.
         25    2    3    3    0    0  0.47243466879E+02  0.47655151600E+02 -0.10875139163E+03  0.16564894708E+03  0.10540279812E+03 0.  0.
          5    1    4    4  502    0 -0.23024402659E+02 -0.70650065237E+02  0.13163438985E+02  0.75610323116E+02  0.47000000000E+01 0.  1.
         -5    1    4    4    0  502 -0.24219064220E+02  0.22994913637E+02 -0.70714072884E+02  0.78344746019E+02  0.47000000000E+01 0.  1.
          5    1    5    5  503    0  0.42921117488E+02  0.80375780351E+02 -0.85170881722E+02  0.12481449229E+03  0.47000000000E+01 0.  1.
         -5    1    5    5    0  503  0.43223493915E+01 -0.32720628751E+02 -0.23580509903E+02  0.40834454783E+02  0.47000000000E+01 0.  1.
<mgrwt>
<rscale>  0 0.27292923E+03</rscale>
<asrwt>0</asrwt>
<pdfrwt beam="1">  1        2 0.11792461E-01 0.27292923E+03</pdfrwt>
<pdfrwt beam="2">  1       -2 0.37377387E-01 0.27292923E+03</pdfrwt>
<totfact> 0.35232118E+03</totfact>
</mgrwt>
</event>
<event>
 9    1  0.2094635E-002  0.2752436E+03  0.7818608E-02  0.1098316E+00
          2   -1    0    0  501    0  0.00000000000E+00  0.00000000000E+00  0.44636291845E+03  0.44636291845E+03  0.00000000000E+00 0.  1.
         -2   -1    0    0    0  501 -0.00000000000E+00 -0.00000000000E+00 -0.42431306790E+02  0.42431306790E+02  0.00000000000E+00 0.  1.
         36    2    1    2    0    0  0.00000000000E+00  0.00000000000E+00  0.40393161166E+03  0.48879422524E+03  0.27524361524E+03 0.  0.
         25    2    3    3    0    0  0.58100755003E+00 -0.53664286811E+02  0.21280980384E+03  0.25405677721E+03  0.12797124751E+03 0.  0.
         25    2    3    3    0    0 -0.58100755003E+00  0.53664286811E+02  0.19112180782E+03  0.23473744802E+03  0.12527541991E+03 0.  0.
          5    1    4    4  502    0  0.43025421564E+02 -0.72600342421E+02  0.94102034437E+02  0.12648825837E+03  0.47000000000E+01 0. -1.
         -5    1    4    4    0  502 -0.42444414014E+02  0.18936055609E+02  0.11870776940E+03  0.12756851884E+03  0.47000000000E+01 0. -1.
          5    1    5    5  503    0 -0.41447825370E+02  0.42986501570E+02  0.27907867437E+02  0.66081015504E+02  0.47000000000E+01 0. -1.
         -5    1    5    5    0  503  0.40866817820E+02  0.10677785242E+02  0.16321394038E+03  0.16865643252E+03  0.47000000000E+01 0. -1.
<mgrwt>
<rscale>  0 0.27524362E+03</rscale>
<asrwt>0</asrwt>
<pdfrwt beam="1">  1        2 0.68671215E-01 0.27524362E+03</pdfrwt>
<pdfrwt beam="2">  1       -2 0.65278937E-02 0.27524362E+03</pdfrwt>
<totfact> 0.91279992E+03</totfact>
</mgrwt>
</event>
<event>
 9    1  0.2094635E-002  0.2747952E+03  0.7818608E-02  0.1098566E+00
          3   -1    0    0  501    0  0.00000000000E+00  0.00000000000E+00  0.10683320104E+03  0.10683320104E+03  0.00000000000E+00 0.  1.
         -3   -1    0    0    0  501 -0.00000000000E+00 -0.00000000000E+00 -0.17670630432E+03  0.17670630432E+03  0.00000000000E+00 0.  1.
         36    2    1    2    0    0  0.00000000000E+00  0.35527136788E-14 -0.69873103282E+02  0.28353950536E+03  0.27479519744E+03 0.  0.
         25    2    3    3    0    0  0.58595177428E+02  0.20907721755E+02 -0.34160518080E+02  0.14232904088E+03  0.12336971766E+03 0.  0.
         25    2    3    3    0    0 -0.58595177428E+02 -0.20907721755E+02 -0.35712585201E+02  0.14121046448E+03  0.12163255687E+03 0.  0.
          5    1    4    4  502    0  0.24418484651E+01  0.49764844183E+02 -0.56237563502E+02  0.75281178850E+02  0.47000000000E+01 0. -1.
         -5    1    4    4    0  502  0.56153328963E+02 -0.28857122428E+02  0.22077045421E+02  0.67047862032E+02  0.47000000000E+01 0. -1.
          5    1    5    5  503    0 -0.61878850274E+02 -0.28562240692E+02 -0.74606283707E+02  0.10115819924E+03  0.47000000000E+01 0. -1.
         -5    1    5    5    0  503  0.32836728454E+01  0.76545189369E+01  0.38893698506E+02  0.40052265241E+02  0.47000000000E+01 0. -1.
<mgrwt>
<rscale>  0 0.27479520E+03</rscale>
<asrwt>0</asrwt>
<pdfrwt beam="1">  1        3 0.16435877E-01 0.27479520E+03</pdfrwt>
<pdfrwt beam="2">  1       -3 0.27185585E-01 0.27479520E+03</pdfrwt>
<totfact> 0.10382685E+03</totfact>
</mgrwt>
</event>
<event>
 9    1  0.2094635E-002  0.2750852E+03  0.7818608E-02  0.1098404E+00
         -2   -1    0    0    0  501 -0.00000000000E+00  0.00000000000E+00  0.11179553672E+02  0.11179553672E+02  0.00000000000E+00 0.  1.
          2   -1    0    0  501    0  0.00000000000E+00 -0.00000000000E+00 -0.16921927781E+04  0.16921927781E+04  0.00000000000E+00 0.  1.
         36    2    1    2    0    0  0.00000000000E+00  0.88817841970E-15 -0.16810132244E+04  0.17033723317E+04  0.27508515035E+03 0.  0.
         25    2    3    3    0    0  0.42001922030E+02 -0.35900896152E+01 -0.92846660439E+03  0.93765835404E+03  0.12399960982E+03 0.  0.
         25    2    3    3    0    0 -0.42001922030E+02  0.35900896152E+01 -0.75254662000E+03  0.76571397769E+03  0.13496084679E+03 0.  0.
          5    1    4    4  502    0  0.44165714584E+02 -0.25356679892E+01 -0.10326877551E+03  0.11244363011E+03  0.47000000000E+01 0.  1.
         -5    1    4    4    0  502 -0.21637925539E+01 -0.10544216260E+01 -0.82519782888E+03  0.82521472393E+03  0.47000000000E+01 0.  1.
          5    1    5    5  503    0 -0.89293848975E+02  0.16721915518E+02 -0.44035374488E+03  0.44965155904E+03  0.47000000000E+01 0. -1.
         -5    1    5    5    0  503  0.47291926944E+02 -0.13131825903E+02 -0.31219287512E+03  0.31606241865E+03  0.47000000000E+01 0. -1.
<mgrwt>
<rscale>  0 0.27508515E+03</rscale>
<asrwt>0</asrwt>
<pdfrwt beam="1">  1        2 0.26033732E+00 0.27508515E+03</pdfrwt>
<pdfrwt beam="2">  1       -2 0.17199315E-02 0.27508515E+03</pdfrwt>
<totfact> 0.10410562E+04</totfact>
</mgrwt>
</event>
<event>
 9    1  0.2094635E-002  0.2809222E+03  0.7818608E-02  0.1095186E+00
          4   -1    0    0  501    0  0.00000000000E+00  0.00000000000E+00  0.13470738442E+04  0.13470738442E+04  0.00000000000E+00 0.  1.
         -4   -1    0    0    0  501 -0.00000000000E+00 -0.00000000000E+00 -0.14646059464E+02  0.14646059464E+02  0.00000000000E+00 0.  1.
         36    2    1    2    0    0  0.00000000000E+00  0.00000000000E+00  0.13324277848E+04  0.13617199037E+04  0.28092222145E+03 0.  0.
         25    2    3    3    0    0  0.75632726605E+02  0.39106577400E+02  0.56130271871E+03  0.58152860914E+03  0.12595692710E+03 0.  0.
         25    2    3    3    0    0 -0.75632726605E+02 -0.39106577400E+02  0.77112506606E+03  0.78019129456E+03  0.82552739955E+02 0.  0.
          5    1    4    4  502    0  0.11089724567E+03  0.32690091585E+02  0.41547764716E+03  0.43128946947E+03  0.47000000000E+01 0. -1.
         -5    1    4    4    0  502 -0.35264519070E+02  0.64164858146E+01  0.14582507155E+03  0.15023913967E+03  0.47000000000E+01 0. -1.
          5    1    5    5  503    0 -0.44592184628E+02 -0.23441147909E+02  0.68938604759E+03  0.69124030768E+03  0.47000000000E+01 0.  1.
         -5    1    5    5    0  503 -0.31040541977E+02 -0.15665429490E+02  0.81739018468E+02  0.88950986883E+02  0.47000000000E+01 0.  1.
<mgrwt>
<rscale>  0 0.28092222E+03</rscale>
<asrwt>0</asrwt>
<pdfrwt beam="1">  1        4 0.20724203E+00 0.28092222E+03</pdfrwt>
<pdfrwt beam="2">  1       -4 0.22532410E-02 0.28092222E+03</pdfrwt>
<totfact> 0.20510152E+02</totfact>
</mgrwt>
</event>
<event>
 9    1  0.2094635E-002  0.2726690E+03  0.7818608E-02  0.1099762E+00
          2   -1    0    0  501    0  0.00000000000E+00  0.00000000000E+00  0.10899892509E+04  0.10899892509E+04  0.00000000000E+00 0. -1.
         -2   -1    0    0    0  501 -0.00000000000E+00 -0.00000000000E+00 -0.17052547093E+02  0.17052547093E+02  0.00000000000E+00 0. -1.
         36    2    1    2    0    0  0.00000000000E+00  0.00000000000E+00  0.10729367038E+04  0.11070417980E+04  0.27266897904E+03 0.  0.
         25    2    3    3    0    0 -0.31771436904E+02  0.42731851746E+02  0.56305293864E+03  0.57921458983E+03  0.12500197600E+03 0.  0.
         25    2    3    3    0    0  0.31771436904E+02 -0.42731851746E+02  0.50988376521E+03  0.52782720820E+03  0.12563706595E+03 0.  0.
          5    1    4    4  502    0 -0.75782369897E+02  0.35400321038E+02  0.26853942782E+03  0.28130350977E+03  0.47000000000E+01 0. -1.
         -5    1    4    4    0  502  0.44010932993E+02  0.73315307080E+01  0.29451351081E+03  0.29791108005E+03  0.47000000000E+01 0. -1.
          5    1    5    5  503    0  0.60728652900E+02  0.21314721715E+02  0.28271488980E+03  0.28998635410E+03  0.47000000000E+01 0. -1.
         -5    1    5    5    0  503 -0.28957215996E+02 -0.64046573461E+02  0.22716887540E+03  0.23784085411E+03  0.47000000000E+01 0. -1.
<mgrwt>
<rscale>  0 0.27266898E+03</rscale>
<asrwt>0</asrwt>
<pdfrwt beam="1">  1        2 0.16769060E+00 0.27266898E+03</pdfrwt>
<pdfrwt beam="2">  1       -2 0.26234696E-02 0.27266898E+03</pdfrwt>
<totfact> 0.11953295E+04</totfact>
</mgrwt>
</event>
<event>
 9    1  0.2094635E-002  0.2749239E+03  0.7818608E-02  0.1098494E+00
         -1   -1    0    0    0  501 -0.00000000000E+00  0.00000000000E+00  0.38214548878E+02  0.38214548878E+02  0.00000000000E+00 0. -1.
          1   -1    0    0  501    0  0.00000000000E+00 -0.00000000000E+00 -0.49446593055E+03  0.49446593055E+03  0.00000000000E+00 0. -1.
         36    2    1    2    0    0  0.14210854715E-13  0.71054273576E-14 -0.45625138167E+03  0.53268047943E+03  0.27492393473E+03 0.  0.
         25    2    3    3    0    0  0.30977295192E+02 -0.37634243161E+02 -0.19561142131E+03  0.23978580950E+03  0.12983634783E+03 0.  0.
         25    2    3    3    0    0 -0.30977295192E+02  0.37634243161E+02 -0.26063996036E+03  0.29289466993E+03  0.12441129232E+03 0.  0.
          5    1    4    4  502    0 -0.26330566228E+02  0.77798749447E+01  0.30701526057E+01  0.28023936360E+02  0.47000000000E+01 0. -1.
         -5    1    4    4    0  502  0.57307861420E+02 -0.45414118106E+02 -0.19868157392E+03  0.21176187314E+03  0.47000000000E+01 0. -1.
          5    1    5    5  503    0  0.13723795320E+02 -0.35309437003E+02 -0.13874070242E+03  0.14389639123E+03  0.47000000000E+01 0.  1.
         -5    1    5    5    0  503 -0.44701090511E+02  0.72943680164E+02 -0.12189925794E+03  0.14899827870E+03  0.47000000000E+01 0.  1.
<mgrwt>
<rscale>  0 0.27492393E+03</rscale>
<asrwt>0</asrwt>
<pdfrwt beam="1">  1        1 0.76071678E-01 0.27492393E+03</pdfrwt>
<pdfrwt beam="2">  1       -1 0.58791616E-02 0.27492393E+03</pdfrwt>
<totfact> 0.62855737E+03</totfact>
</mgrwt>
</event>
<event>
 9    1  0.2094635E-002  0.2752092E+03  0.7818608E-02  0.1098335E+00
         -1   -1    0    0    0  501 -0.00000000000E+00  0.00000000000E+00  0.44681383599E+02  0.44681383599E+02  0.00000000000E+00 0.  1.
          1   -1    0    0  501    0  0.00000000000E+00 -0.00000000000E+00 -0.42377871398E+03  0.42377871398E+03  0.00000000000E+00 0.  1.
         36    2    1    2    0    0  0.00000000000E+00 -0.71054273576E-14 -0.37909733038E+03  0.46846009758E+03  0.27520915160E+03 0.  0.
         25    2    3    3    0    0 -0.42211497856E+02 -0.46694327372E+02 -0.22132988552E+03  0.25987507182E+03  0.12077236424E+03 0.  0.
         25    2    3    3    0    0  0.42211497856E+02  0.46694327372E+02 -0.15776744486E+03  0.20858502576E+03  0.12105773646E+03 0.  0.
          5    1    4    4  502    0 -0.19789130830E+02 -0.81396250935E+02 -0.94337623949E+02  0.12624831348E+03  0.47000000000E+01 0.  1.
         -5    1    4    4    0  502 -0.22422367025E+02  0.34701923562E+02 -0.12699226158E+03  0.13362675833E+03  0.47000000000E+01 0.  1.
          5    1    5    5  503    0  0.44953961190E+02 -0.33350945597E+02 -0.67561112224E+02  0.87862040062E+02  0.47000000000E+01 0.  1.
         -5    1    5    5    0  503 -0.27424633347E+01  0.80045272970E+02 -0.90206332632E+02  0.12072298570E+03  0.47000000000E+01 0.  1.
<mgrwt>
<rscale>  0 0.27520915E+03</rscale>
<asrwt>0</asrwt>
<pdfrwt beam="1">  1        1 0.65196723E-01 0.27520915E+03</pdfrwt>
<pdfrwt beam="2">  1       -1 0.68740593E-02 0.27520915E+03</pdfrwt>
<totfact> 0.60718326E+03</totfact>
</mgrwt>
</event>
<event>
 9    1  0.2094635E-002  0.2748024E+03  0.7818608E-02  0.1098562E+00
         -4   -1    0    0    0  501 -0.00000000000E+00  0.00000000000E+00  0.13423945052E+04  0.13423945052E+04  0.00000000000E+00 0. -1.
          4   -1    0    0  501    0  0.00000000000E+00 -0.00000000000E+00 -0.14063740341E+02  0.14063740341E+02  0.00000000000E+00 0. -1.
         36    2    1    2    0    0  0.00000000000E+00  0.35527136788E-14  0.13283307648E+04  0.13564582455E+04  0.27480238541E+03 0.  0.
         25    2    3    3    0    0  0.34558893626E+02 -0.29806957881E+02  0.84929925743E+03  0.85937991944E+03  0.12305220601E+03 0.  0.
         25    2    3    3    0    0 -0.34558893626E+02  0.29806957881E+02  0.47903150742E+03  0.49707832609E+03  0.12463107678E+03 0.  0.
          5    1    4    4  502    0  0.68271437309E+02 -0.74542078804E+01  0.26950919809E+03  0.27816155777E+03  0.47000000000E+01 0. -1.
         -5    1    4    4    0  502 -0.33712543683E+02 -0.22352750001E+02  0.57979005933E+03  0.58121836167E+03  0.47000000000E+01 0. -1.
          5    1    5    5  503    0 -0.38756474338E+02 -0.86697979679E+01  0.40854226843E+02  0.57169813283E+02  0.47000000000E+01 0. -1.
         -5    1    5    5    0  503  0.41975807126E+01  0.38476755849E+02  0.43817728058E+03  0.43990851281E+03  0.47000000000E+01 0. -1.
<mgrwt>
<rscale>  0 0.27480239E+03</rscale>
<asrwt>0</asrwt>
<pdfrwt beam="1">  1        4 0.21636534E-02 0.27480239E+03</pdfrwt>
<pdfrwt beam="2">  1       -4 0.20652213E+00 0.27480239E+03</pdfrwt>
<totfact> 0.22030547E+02</totfact>
</mgrwt>
</event>
<event>
 9    1  0.2094635E-002  0.2750014E+03  0.7818608E-02  0.1098451E+00
         -2   -1    0    0    0  501 -0.00000000000E+00  0.00000000000E+00  0.15269144583E+03  0.15269144583E+03  0.00000000000E+00 0. -1.
          2   -1    0    0  501    0  0.00000000000E+00 -0.00000000000E+00 -0.12382121127E+03  0.12382121127E+03  0.00000000000E+00 0. -1.
         36    2    1    2    0    0  0.71054273576E-14  0.71054273576E-14  0.28870234564E+02  0.27651265710E+03  0.27500138016E+03 0.  0.
         25    2    3    3    0    0  0.23035290263E+02  0.52103288040E+02  0.30239112925E+01  0.13764156428E+03  0.12526244032E+03 0.  0.
         25    2    3    3    0    0 -0.23035290263E+02 -0.52103288040E+02  0.25846323271E+02  0.13887109282E+03  0.12398294549E+03 0.  0.
          5    1    4    4  502    0  0.19289983081E+02  0.42401924919E+02  0.61932035816E+02  0.77638223475E+02  0.47000000000E+01 0. -1.
         -5    1    4    4    0  502  0.37453071825E+01  0.97013631206E+01 -0.58908124523E+02  0.60003340800E+02  0.47000000000E+01 0. -1.
          5    1    5    5  503    0  0.18098616149E+02 -0.82404975200E+02  0.95417302857E+01  0.85036900584E+02  0.47000000000E+01 0. -1.
         -5    1    5    5    0  503 -0.41133906412E+02  0.30301687160E+02  0.16304592986E+02  0.53834192238E+02  0.47000000000E+01 0. -1.
<mgrwt>
<rscale>  0 0.27500138E+03</rscale>
<asrwt>0</asrwt>
<pdfrwt beam="1">  1        2 0.19049417E-01 0.27500138E+03</pdfrwt>
<pdfrwt beam="2">  1       -2 0.23490992E-01 0.27500138E+03</pdfrwt>
<totfact> 0.46342813E+03</totfact>
</mgrwt>
</event>
<event>
 9    1  0.2094635E-002  0.2758775E+03  0.7818608E-02  0.1097962E+00
          3   -1    0    0  501    0  0.00000000000E+00  0.00000000000E+00  0.60659030145E+02  0.60659030145E+02  0.00000000000E+00 0.  1.
         -3   -1    0    0    0  501 -0.00000000000E+00 -0.00000000000E+00 -0.31367299260E+03  0.31367299260E+03  0.00000000000E+00 0.  1.
         36    2    1    2    0    0  0.00000000000E+00  0.00000000000E+00 -0.25301396246E+03  0.37433202275E+03  0.27587750553E+03 0.  0.
         25    2    3    3    0    0 -0.16421877894E+02 -0.55775296212E+02 -0.12248751035E+03  0.18267225041E+03  0.12241486485E+03 0.  0.
         25    2    3    3    0    0  0.16421877894E+02  0.55775296212E+02 -0.13052645211E+03  0.19165977234E+03  0.12773312762E+03 0.  0.
          5    1    4    4  502    0  0.45535369204E+02 -0.13314859390E+01 -0.17378816117E+02  0.48983221137E+02  0.47000000000E+01 0.  1.
         -5    1    4    4    0  502 -0.61957247097E+02 -0.54443810273E+02 -0.10510869423E+03  0.13368902927E+03  0.47000000000E+01 0.  1.
          5    1    5    5  503    0  0.59220053068E+02 -0.46933349958E+01 -0.87486573539E+02  0.10585382671E+03  0.47000000000E+01 0.  1.
         -5    1    5    5    0  503 -0.42798175175E+02  0.60468631207E+02 -0.43039878572E+02  0.85805945632E+02  0.47000000000E+01 0.  1.
<mgrwt>
<rscale>  0 0.27587751E+03</rscale>
<asrwt>0</asrwt>
<pdfrwt beam="1">  1        3 0.93321585E-02 0.27587751E+03</pdfrwt>
<pdfrwt beam="2">  1       -3 0.48257383E-01 0.27587751E+03</pdfrwt>
<totfact> 0.90285592E+02</totfact>
</mgrwt>
</event>
<event>
 9    1  0.2094635E-002  0.2742906E+03  0.7818608E-02  0.1098849E+00
          2   -1    0    0  501    0  0.00000000000E+00  0.00000000000E+00  0.13728359679E+04  0.13728359679E+04  0.00000000000E+00 0.  1.
         -2   -1    0    0    0  501 -0.00000000000E+00 -0.00000000000E+00 -0.13700717553E+02  0.13700717553E+02  0.00000000000E+00 0.  1.
         36    2    1    2    0    0  0.00000000000E+00  0.00000000000E+00  0.13591352503E+04  0.13865366855E+04  0.27429063304E+03 0.  0.
         25    2    3    3    0    0  0.52253881836E+02 -0.36133232739E+01  0.82468915719E+03  0.83468932418E+03  0.11768830716E+03 0.  0.
         25    2    3    3    0    0 -0.52253881836E+02  0.36133232739E+01  0.53444609316E+03  0.55184736127E+03  0.12711946893E+03 0.  0.
          5    1    4    4  502    0 -0.19342466368E+02  0.34252106083E+02  0.42545145932E+03  0.42729190492E+03  0.47000000000E+01 0.  1.
         -5    1    4    4    0  502  0.71596348204E+02 -0.37865429357E+02  0.39923769787E+03  0.40739741926E+03  0.47000000000E+01 0.  1.
          5    1    5    5  503    0 -0.65538484712E+02 -0.33370605807E+02  0.17036125500E+03  0.18561771875E+03  0.47000000000E+01 0.  1.
         -5    1    5    5    0  503  0.13284602876E+02  0.36983929081E+02  0.36408483816E+03  0.36622964252E+03  0.47000000000E+01 0.  1.
<mgrwt>
<rscale>  0 0.27429063E+03</rscale>
<asrwt>0</asrwt>
<pdfrwt beam="1">  1        2 0.21120543E+00 0.27429063E+03</pdfrwt>
<pdfrwt beam="2">  1       -2 0.21078038E-02 0.27429063E+03</pdfrwt>
<totfact> 0.11435944E+04</totfact>
</mgrwt>
</event>
<event>
 9    1  0.2094635E-002  0.2736567E+03  0.7818608E-02  0.1099205E+00
         -2   -1    0    0    0  501 -0.00000000000E+00  0.00000000000E+00  0.44372655121E+03  0.44372655121E+03  0.00000000000E+00 0.  1.
          2   -1    0    0  501    0  0.00000000000E+00 -0.00000000000E+00 -0.42192655325E+02  0.42192655325E+02  0.00000000000E+00 0.  1.
         36    2    1    2    0    0 -0.14210854715E-13  0.00000000000E+00  0.40153389588E+03  0.48591920653E+03  0.27365672974E+03 0.  0.
         25    2    3    3    0    0 -0.55662617650E+02  0.27088114552E+02  0.19609511036E+03  0.23760636449E+03  0.11904368604E+03 0.  0.
         25    2    3    3    0    0  0.55662617650E+02 -0.27088114552E+02  0.20543878552E+03  0.24831284204E+03  0.12498831934E+03 0.  0.
          5    1    4    4  502    0 -0.61708582946E+02 -0.17970082446E+02  0.42110643642E+02  0.76982266661E+02  0.47000000000E+01 0.  1.
         -5    1    4    4    0  502  0.60459652959E+01  0.45058196997E+02  0.15398446672E+03  0.16062409783E+03  0.47000000000E+01 0.  1.
          5    1    5    5  503    0 -0.34617771075E+02 -0.27840682325E+02  0.40871095717E+02  0.60547750838E+02  0.47000000000E+01 0.  1.
         -5    1    5    5    0  503  0.90280388725E+02  0.75256777337E+00  0.16456768980E+03  0.18776509120E+03  0.47000000000E+01 0.  1.
<mgrwt>
<rscale>  0 0.27365673E+03</rscale>
<asrwt>0</asrwt>
<pdfrwt beam="1">  1        2 0.64911780E-02 0.27365673E+03</pdfrwt>
<pdfrwt beam="2">  1       -2 0.68265620E-01 0.27365673E+03</pdfrwt>
<totfact> 0.22375007E+03</totfact>
</mgrwt>
</event>
<event>
 9    1  0.2094635E-002  0.2734890E+03  0.7818608E-02  0.1099299E+00
          2   -1    0    0  501    0  0.00000000000E+00  0.00000000000E+00  0.35936277364E+03  0.35936277364E+03  0.00000000000E+00 0. -1.
         -2   -1    0    0    0  501 -0.00000000000E+00 -0.00000000000E+00 -0.52033933807E+02  0.52033933807E+02  0.00000000000E+00 0. -1.
         36    2    1    2    0    0  0.35527136788E-14 -0.14210854715E-13  0.30732883984E+03  0.41139670745E+03  0.27348900363E+03 0.  0.
         25    2    3    3    0    0  0.26709889785E+02 -0.41032899218E+02  0.17242668538E+03  0.22003276649E+03  0.12761794336E+03 0.  0.
         25    2    3    3    0    0 -0.26709889785E+02  0.41032899218E+02  0.13490215446E+03  0.19136394096E+03  0.12658771501E+03 0.  0.
          5    1    4    4  502    0  0.65341517706E+02 -0.22346489850E+02  0.16119175782E+03  0.17542449183E+03  0.47000000000E+01 0. -1.
         -5    1    4    4    0  502 -0.38631627921E+02 -0.18686409368E+02  0.11234927561E+02  0.44608274661E+02  0.47000000000E+01 0. -1.
          5    1    5    5  503    0  0.82787337180E+01 -0.19420695017E+02 -0.14727917635E+02  0.26166818393E+02  0.47000000000E+01 0.  1.
         -5    1    5    5    0  503 -0.34988623503E+02  0.60453594235E+02  0.14963007209E+03  0.16519712257E+03  0.47000000000E+01 0.  1.
<mgrwt>
<rscale>  0 0.27348900E+03</rscale>
<asrwt>0</asrwt>
<pdfrwt beam="1">  1        2 0.55286579E-01 0.27348900E+03</pdfrwt>
<pdfrwt beam="2">  1       -2 0.80052208E-02 0.27348900E+03</pdfrwt>
<totfact> 0.84183643E+03</totfact>
</mgrwt>
</event>
<event>
 9    1  0.2094635E-002  0.2749426E+03  0.7818608E-02  0.1098484E+00
         -2   -1    0    0    0  501 -0.00000000000E+00  0.00000000000E+00  0.17754273241E+02  0.17754273241E+02  0.00000000000E+00 0. -1.
          2   -1    0    0  501    0  0.00000000000E+00 -0.00000000000E+00 -0.10644403392E+04  0.10644403392E+04  0.00000000000E+00 0. -1.
         36    2    1    2    0    0 -0.71054273576E-14  0.00000000000E+00 -0.10466860659E+04  0.10821946124E+04  0.27494264587E+03 0.  0.
         25    2    3    3    0    0  0.51175104609E+02 -0.30488653165E+02 -0.67071315654E+03  0.68496602010E+03  0.12559403260E+03 0.  0.
         25    2    3    3    0    0 -0.51175104609E+02  0.30488653165E+02 -0.37597290937E+03  0.39722859230E+03  0.11351861810E+03 0.  0.
          5    1    4    4  502    0 -0.16362027229E+02 -0.12721802810E+02 -0.16203740752E+02  0.26724734164E+02  0.47000000000E+01 0. -1.
         -5    1    4    4    0  502  0.67537131838E+02 -0.17766850355E+02 -0.65450941579E+03  0.65824128593E+03  0.47000000000E+01 0. -1.
          5    1    5    5  503    0 -0.73737616714E+02  0.87531875664E+01 -0.13468614337E+03  0.15387105520E+03  0.47000000000E+01 0.  1.
         -5    1    5    5    0  503  0.22562512105E+02  0.21735465599E+02 -0.24128676600E+03  0.24335753710E+03  0.47000000000E+01 0.  1.
<mgrwt>
<rscale>  0 0.27494265E+03</rscale>
<asrwt>0</asrwt>
<pdfrwt beam="1">  1        2 0.16376003E+00 0.27494265E+03</pdfrwt>
<pdfrwt beam="2">  1       -2 0.27314270E-02 0.27494265E+03</pdfrwt>
<totfact> 0.11661834E+04</totfact>
</mgrwt>
</event>
<event>
 9    1  0.2094635E-002  0.2743333E+03  0.7818608E-02  0.1098825E+00
         -2   -1    0    0    0  501 -0.00000000000E+00  0.00000000000E+00  0.73466751086E+02  0.73466751086E+02  0.00000000000E+00 0. -1.
          2   -1    0    0  501    0  0.00000000000E+00 -0.00000000000E+00 -0.25609802351E+03  0.25609802351E+03  0.00000000000E+00 0. -1.
         36    2    1    2    0    0  0.71054273576E-14  0.00000000000E+00 -0.18263127242E+03  0.32956477459E+03  0.27433329908E+03 0.  0.
         25    2    3    3    0    0 -0.18445905231E+02 -0.30249960996E+02 -0.37037945815E+02  0.13554791804E+03  0.12548353316E+03 0.  0.
         25    2    3    3    0    0  0.18445905231E+02  0.30249960996E+02 -0.14559332661E+03  0.19401685655E+03  0.12324695661E+03 0.  0.
          5    1    4    4  502    0 -0.32450182321E+02 -0.18526133571E+02 -0.80114023040E+02  0.88524452246E+02  0.47000000000E+01 0.  1.
         -5    1    4    4    0  502  0.14004277091E+02 -0.11723827425E+02  0.43076077225E+02  0.47023465796E+02  0.47000000000E+01 0.  1.
          5    1    5    5  503    0  0.61230242458E+02  0.49435756649E+02 -0.72839227158E+02  0.10733442896E+03  0.47000000000E+01 0.  1.
         -5    1    5    5    0  503 -0.42784337227E+02 -0.19185795653E+02 -0.72754099449E+02  0.86682427593E+02  0.47000000000E+01 0.  1.
<mgrwt>
<rscale>  0 0.27433330E+03</rscale>
<asrwt>0</asrwt>
<pdfrwt beam="1">  1        2 0.39399696E-01 0.27433330E+03</pdfrwt>
<pdfrwt beam="2">  1       -2 0.11302577E-01 0.27433330E+03</pdfrwt>
<totfact> 0.70228887E+03</totfact>
</mgrwt>
</event>
<event>
 9    1  0.2094635E-002  0.2728067E+03  0.7818608E-02  0.1099684E+00
         -2   -1    0    0    0  501 -0.00000000000E+00  0.00000000000E+00  0.26940502009E+03  0.26940502009E+03  0.00000000000E+00 0.  1.
          2   -1    0    0  501    0  0.00000000000E+00 -0.00000000000E+00 -0.69062834005E+02  0.69062834005E+02  0.00000000000E+00 0.  1.
         36    2    1    2    0    0  0.35527136788E-14  0.35527136788E-14  0.20034218608E+03  0.33846785409E+03  0.27280670213E+03 0.  0.
         25    2    3    3    0    0 -0.29874837931E+02 -0.23617254442E+02  0.47266284384E+02  0.13678294784E+03  0.12257729207E+03 0.  0.
         25    2    3    3    0    0  0.29874837931E+02  0.23617254442E+02  0.15307590170E+03  0.20168490625E+03  0.12567533203E+03 0.  0.
          5    1    4    4  502    0 -0.65547381392E+02 -0.50886630763E+02  0.28097704217E+02  0.87735280133E+02  0.47000000000E+01 0. -1.
         -5    1    4    4    0  502  0.35672543461E+02  0.27269376321E+02  0.19168580167E+02  0.49047667707E+02  0.47000000000E+01 0. -1.
          5    1    5    5  503    0 -0.25272670395E+02  0.51353656542E+01 -0.10327763578E+02  0.28175034159E+02  0.47000000000E+01 0.  1.
         -5    1    5    5    0  503  0.55147508326E+02  0.18481888788E+02  0.16340366528E+03  0.17350987209E+03  0.47000000000E+01 0.  1.
<mgrwt>
<rscale>  0 0.27280670E+03</rscale>
<asrwt>0</asrwt>
<pdfrwt beam="1">  1        2 0.10625052E-01 0.27280670E+03</pdfrwt>
<pdfrwt beam="2">  1       -2 0.41446926E-01 0.27280670E+03</pdfrwt>
<totfact> 0.32885974E+03</totfact>
</mgrwt>
</event>
<event>
 9    1  0.2094635E-002  0.2772313E+03  0.7818608E-02  0.1097211E+00
          1   -1    0    0  501    0  0.00000000000E+00  0.00000000000E+00  0.20153411396E+03  0.20153411396E+03  0.00000000000E+00 0.  1.
         -1   -1    0    0    0  501 -0.00000000000E+00 -0.00000000000E+00 -0.95340204206E+02  0.95340204206E+02  0.00000000000E+00 0.  1.
         36    2    1    2    0    0  0.71054273576E-14  0.35527136788E-14  0.10619390975E+03  0.29687431816E+03  0.27723133718E+03 0.  0.
         25    2    3    3    0    0 -0.29010574752E+02 -0.29456036776E+02  0.75313442302E+02  0.16585910843E+03  0.14187268133E+03 0.  0.
         25    2    3    3    0    0  0.29010574752E+02  0.29456036776E+02  0.30880467447E+02  0.13101520973E+03  0.12042470827E+03 0.  0.
          5    1    4    4  502    0  0.39256591810E+02 -0.11751673251E+02 -0.21085685999E+02  0.46323622255E+02  0.47000000000E+01 0.  1.
         -5    1    4    4    0  502 -0.68267166562E+02 -0.17704363524E+02  0.96399128301E+02  0.11953548618E+03  0.47000000000E+01 0.  1.
          5    1    5    5  503    0 -0.21962459285E+02  0.44266782694E+02  0.53627415425E+02  0.73074532862E+02  0.47000000000E+01 0. -1.
         -5    1    5    5    0  503  0.50973034037E+02 -0.14810745918E+02 -0.22746947977E+02  0.57940676868E+02  0.47000000000E+01 0. -1.
<mgrwt>
<rscale>  0 0.27723134E+03</rscale>
<asrwt>0</asrwt>
<pdfrwt beam="1">  1        1 0.31005248E-01 0.27723134E+03</pdfrwt>
<pdfrwt beam="2">  1       -1 0.14667724E-01 0.27723134E+03</pdfrwt>
<totfact> 0.48076978E+03</totfact>
</mgrwt>
</event>
<event>
 9    1  0.2094635E-002  0.2744205E+03  0.7818608E-02  0.1098776E+00
          2   -1    0    0  501    0  0.00000000000E+00  0.00000000000E+00  0.16305890519E+04  0.16305890519E+04  0.00000000000E+00 0. -1.
         -2   -1    0    0    0  501 -0.00000000000E+00 -0.00000000000E+00 -0.11545919581E+02  0.11545919581E+02  0.00000000000E+00 0. -1.
         36    2    1    2    0    0 -0.71054273576E-14 -0.71054273576E-14  0.16190431323E+04  0.16421349715E+04  0.27442048075E+03 0.  0.
         25    2    3    3    0    0  0.38916658715E+02  0.43524710185E+02  0.88932866736E+03  0.89987272163E+03  0.12432429298E+03 0.  0.
         25    2    3    3    0    0 -0.38916658715E+02 -0.43524710185E+02  0.72971446499E+03  0.74226224988E+03  0.12272383819E+03 0.  0.
          5    1    4    4  502    0 -0.46104641670E+01 -0.87128609792E+00  0.70968494088E+03  0.70971601421E+03  0.47000000000E+01 0. -1.
         -5    1    4    4    0  502  0.43527122882E+02  0.44395996283E+02  0.17964372648E+03  0.19015670742E+03  0.47000000000E+01 0. -1.
          5    1    5    5  503    0  0.53575854132E+01 -0.92984215487E+01  0.60912444849E+03  0.60923710336E+03  0.47000000000E+01 0.  1.
         -5    1    5    5    0  503 -0.44274244128E+02 -0.34226288636E+02  0.12059001650E+03  0.13302514652E+03  0.47000000000E+01 0.  1.
<mgrwt>
<rscale>  0 0.27442048E+03</rscale>
<asrwt>0</asrwt>
<pdfrwt beam="1">  1        2 0.25085967E+00 0.27442048E+03</pdfrwt>
<pdfrwt beam="2">  1       -2 0.17762966E-02 0.27442048E+03</pdfrwt>
<totfact> 0.10700943E+04</totfact>
</mgrwt>
</event>
<event>
 9    1  0.2094635E-002  0.2732483E+03  0.7818608E-02  0.1099435E+00
          1   -1    0    0  501    0  0.00000000000E+00  0.00000000000E+00  0.36893294251E+04  0.36893294251E+04  0.00000000000E+00 0. -1.
         -1   -1    0    0    0  501 -0.00000000000E+00 -0.00000000000E+00 -0.50595007814E+01  0.50595007814E+01  0.00000000000E+00 0. -1.
         36    2    1    2    0    0  0.35527136788E-14  0.00000000000E+00  0.36842699243E+04  0.36943889259E+04  0.27324834938E+03 0.  0.
         25    2    3    3    0    0  0.11966314845E+02  0.43833537735E+02  0.22347871016E+04  0.22386728528E+04  0.12376663854E+03 0.  0.
         25    2    3    3    0    0 -0.11966314845E+02 -0.43833537735E+02  0.14494828227E+04  0.14557160731E+04  0.12666593959E+03 0.  0.
          5    1    4    4  502    0  0.20590234583E+02 -0.40845940795E+02  0.68321066072E+03  0.68475634029E+03  0.47000000000E+01 0. -1.
         -5    1    4    4    0  502 -0.86239197380E+01  0.84679478530E+02  0.15515764408E+04  0.15539165125E+04  0.47000000000E+01 0. -1.
          5    1    5    5  503    0  0.40827982990E+02 -0.28312184115E+02  0.24837551362E+03  0.25333967263E+03  0.47000000000E+01 0.  1.
         -5    1    5    5    0  503 -0.52794297834E+02 -0.15521353620E+02  0.12011073091E+04  0.12023764004E+04  0.47000000000E+01 0.  1.
<mgrwt>
<rscale>  0 0.27324835E+03</rscale>
<asrwt>0</asrwt>
<pdfrwt beam="1">  1        1 0.56758699E+00 0.27324835E+03</pdfrwt>
<pdfrwt beam="2">  1       -1 0.77838768E-03 0.27324835E+03</pdfrwt>
<totfact> 0.60616939E+02</totfact>
</mgrwt>
</event>
<event>
 9    1  0.2094635E-002  0.2755046E+03  0.7818608E-02  0.1098170E+00
         -1   -1    0    0    0  501 -0.00000000000E+00  0.00000000000E+00  0.10431883869E+02  0.10431883869E+02  0.00000000000E+00 0.  1.
          1   -1    0    0  501    0  0.00000000000E+00 -0.00000000000E+00 -0.18190092169E+04  0.18190092169E+04  0.00000000000E+00 0.  1.
         36    2    1    2    0    0  0.71054273576E-14 -0.35527136788E-14 -0.18085773330E+04  0.18294411008E+04  0.27550457642E+03 0.  0.
         25    2    3    3    0    0  0.48702758682E+02  0.27433184611E+02 -0.82565969734E+03  0.83671971173E+03  0.12353704651E+03 0.  0.
         25    2    3    3    0    0 -0.48702758682E+02 -0.27433184611E+02 -0.98291763570E+03  0.99272138905E+03  0.12745249854E+03 0.  0.
          5    1    4    4  502    0  0.84212145853E+02  0.25066182196E+02 -0.40072121818E+03  0.41026769761E+03  0.47000000000E+01 0.  1.
         -5    1    4    4    0  502 -0.35509387171E+02  0.23670024151E+01 -0.42493847916E+03  0.42645201412E+03  0.47000000000E+01 0.  1.
          5    1    5    5  503    0 -0.79288690327E+02  0.74119907540E+01 -0.39591513810E+03  0.40387191113E+03  0.47000000000E+01 0.  1.
         -5    1    5    5    0  503  0.30585931645E+02 -0.34845175365E+02 -0.58700249760E+03  0.58884947792E+03  0.47000000000E+01 0.  1.
<mgrwt>
<rscale>  0 0.27550458E+03</rscale>
<asrwt>0</asrwt>
<pdfrwt beam="1">  1        1 0.27984723E+00 0.27550458E+03</pdfrwt>
<pdfrwt beam="2">  1       -1 0.16049072E-02 0.27550458E+03</pdfrwt>
<totfact> 0.41828375E+03</totfact>
</mgrwt>
</event>
<event>
 9    1  0.2094635E-002  0.2742662E+03  0.7818608E-02  0.1098862E+00
         -1   -1    0    0    0  501 -0.00000000000E+00  0.00000000000E+00  0.19863029574E+03  0.19863029574E+03  0.00000000000E+00 0.  1.
          1   -1    0    0  501    0  0.00000000000E+00 -0.00000000000E+00 -0.94675802558E+02  0.94675802558E+02  0.00000000000E+00 0.  1.
         36    2    1    2    0    0  0.00000000000E+00  0.71054273576E-14  0.10395449318E+03  0.29330609830E+03  0.27426616752E+03 0.  0.
         25    2    3    3    0    0 -0.39498278039E+02  0.36365324100E+02  0.52992256751E+02  0.14692576678E+03  0.12608112827E+03 0.  0.
         25    2    3    3    0    0  0.39498278039E+02 -0.36365324100E+02  0.50962236434E+02  0.14638033152E+03  0.12628341596E+03 0.  0.
          5    1    4    4  502    0  0.10803232565E+02  0.65978922932E+02 -0.13498080335E+01  0.67036110320E+02  0.47000000000E+01 0.  1.
         -5    1    4    4    0  502 -0.50301510605E+02 -0.29613598832E+02  0.54342064784E+02  0.79889656464E+02  0.47000000000E+01 0.  1.
          5    1    5    5  503    0 -0.94054871859E+01  0.22481085083E+02  0.63979174641E+02  0.68624246178E+02  0.47000000000E+01 0. -1.
         -5    1    5    5    0  503  0.48903765225E+02 -0.58846409183E+02 -0.13016938208E+02  0.77756085339E+02  0.47000000000E+01 0. -1.
<mgrwt>
<rscale>  0 0.27426617E+03</rscale>
<asrwt>0</asrwt>
<pdfrwt beam="1">  1        1 0.14565508E-01 0.27426617E+03</pdfrwt>
<pdfrwt beam="2">  1       -1 0.30558507E-01 0.27426617E+03</pdfrwt>
<totfact> 0.38140037E+03</totfact>
</mgrwt>
</event>
<event>
 9    1  0.2094635E-002  0.2735382E+03  0.7818608E-02  0.1099272E+00
          2   -1    0    0  501    0  0.00000000000E+00  0.00000000000E+00  0.16713927558E+03  0.16713927558E+03  0.00000000000E+00 0.  1.
         -2   -1    0    0    0  501 -0.00000000000E+00 -0.00000000000E+00 -0.11191736259E+03  0.11191736259E+03  0.00000000000E+00 0.  1.
         36    2    1    2    0    0  0.35527136788E-14  0.00000000000E+00  0.55221912985E+02  0.27905663817E+03  0.27353820142E+03 0.  0.
         25    2    3    3    0    0  0.82641913896E+01  0.34179027967E+02  0.61243065786E+02  0.14412591665E+03  0.12563862436E+03 0.  0.
         25    2    3    3    0    0 -0.82641913896E+01 -0.34179027967E+02 -0.60211528017E+01  0.13493072153E+03  0.13012894574E+03 0.  0.
          5    1    4    4  502    0 -0.28695002251E+02 -0.37988513536E+02  0.33086749540E+02  0.58166599608E+02  0.47000000000E+01 0. -1.
         -5    1    4    4    0  502  0.36959193640E+02  0.72167541504E+02  0.28156316247E+02  0.85959317039E+02  0.47000000000E+01 0. -1.
          5    1    5    5  503    0 -0.57768286542E+02 -0.15088216310E+02 -0.39752455726E+02  0.71883078243E+02  0.47000000000E+01 0. -1.
         -5    1    5    5    0  503  0.49504095153E+02 -0.19090811657E+02  0.33731302924E+02  0.63047643283E+02  0.47000000000E+01 0. -1.
<mgrwt>
<rscale>  0 0.27353820E+03</rscale>
<asrwt>0</asrwt>
<pdfrwt beam="1">  1        2 0.25713735E-01 0.27353820E+03</pdfrwt>
<pdfrwt beam="2">  1       -2 0.17218056E-01 0.27353820E+03</pdfrwt>
<totfact> 0.56154485E+03</totfact>
</mgrwt>
</event>
<event>
 9    1  0.2094635E-002  0.2776710E+03  0.7818608E-02  0.1096968E+00
         -2   -1    0    0    0  501 -0.00000000000E+00  0.00000000000E+00  0.82693603367E+02  0.82693603367E+02  0.00000000000E+00 0.  1.
          2   -1    0    0  501    0  0.00000000000E+00 -0.00000000000E+00 -0.23309300262E+03  0.23309300262E+03  0.00000000000E+00 0.  1.
         36    2    1    2    0    0  0.35527136788E-14 -0.71054273576E-14 -0.15039939926E+03  0.31578660599E+03  0.27767103058E+03 0.  0.
         25    2    3    3    0    0  0.20504429327E+02  0.17010435750E+02 -0.12796579883E+02  0.12705043876E+03  0.12356486146E+03 0.  0.
         25    2    3    3    0    0 -0.20504429327E+02 -0.17010435750E+02 -0.13760281937E+03  0.18873616723E+03  0.12640023091E+03 0.  0.
          5    1    4    4  502    0 -0.45144800308E+02  0.34247265966E+02  0.39050499220E+01  0.56993575391E+02  0.47000000000E+01 0.  1.
         -5    1    4    4    0  502  0.65649229634E+02 -0.17236830216E+02 -0.16701629805E+02  0.70056863373E+02  0.47000000000E+01 0.  1.
          5    1    5    5  503    0 -0.32879457874E+02 -0.52372586127E+02 -0.13765236981E+03  0.15097751966E+03  0.47000000000E+01 0. -1.
         -5    1    5    5    0  503  0.12375028547E+02  0.35362150376E+02  0.49550438960E-01  0.37758647566E+02  0.47000000000E+01 0. -1.
<mgrwt>
<rscale>  0 0.27767103E+03</rscale>
<asrwt>0</asrwt>
<pdfrwt beam="1">  1        2 0.35860462E-01 0.27767103E+03</pdfrwt>
<pdfrwt beam="2">  1       -2 0.12722093E-01 0.27767103E+03</pdfrwt>
<totfact> 0.64264847E+03</totfact>
</mgrwt>
</event>
<event>
 9    1  0.2094635E-002  0.2767534E+03  0.7818608E-02  0.1097475E+00
          3   -1    0    0  501    0  0.00000000000E+00  0.00000000000E+00  0.21904779463E+03  0.21904779463E+03  0.00000000000E+00 0. -1.
         -3   -1    0    0    0  501 -0.00000000000E+00 -0.00000000000E+00 -0.87415235223E+02  0.87415235223E+02  0.00000000000E+00 0. -1.
         36    2    1    2    0    0  0.00000000000E+00  0.71054273576E-14  0.13163255940E+03  0.30646302985E+03  0.27675342450E+03 0.  0.
         25    2    3    3    0    0 -0.43273424148E+02 -0.36452988971E+02  0.84294534034E+02  0.16074528778E+03  0.12462772337E+03 0.  0.
         25    2    3    3    0    0  0.43273424148E+02  0.36452988971E+02  0.47338025370E+02  0.14571774207E+03  0.12566368635E+03 0.  0.
          5    1    4    4  502    0 -0.61914805694E+02 -0.55477919011E+01  0.10256167402E+03  0.12002169861E+03  0.47000000000E+01 0.  1.
         -5    1    4    4    0  502  0.18641381547E+02 -0.30905197070E+02 -0.18267139983E+02  0.40723589172E+02  0.47000000000E+01 0.  1.
          5    1    5    5  503    0  0.35005129210E+02  0.72357901091E+02  0.66035829312E+02  0.10413378738E+03  0.47000000000E+01 0. -1.
         -5    1    5    5    0  503  0.82682949376E+01 -0.35904912120E+02 -0.18697803942E+02  0.41583954692E+02  0.47000000000E+01 0. -1.
<mgrwt>
<rscale>  0 0.27675342E+03</rscale>
<asrwt>0</asrwt>
<pdfrwt beam="1">  1        3 0.33699661E-01 0.27675342E+03</pdfrwt>
<pdfrwt beam="2">  1       -3 0.13448498E-01 0.27675342E+03</pdfrwt>
<totfact> 0.98307465E+02</totfact>
</mgrwt>
</event>
<event>
 9    1  0.2094635E-002  0.2743500E+03  0.7818608E-02  0.1098815E+00
          2   -1    0    0  501    0  0.00000000000E+00  0.00000000000E+00  0.80549411500E+03  0.80549411500E+03  0.00000000000E+00 0.  1.
         -2   -1    0    0    0  501 -0.00000000000E+00 -0.00000000000E+00 -0.23360798982E+02  0.23360798982E+02  0.00000000000E+00 0.  1.
         36    2    1    2    0    0  0.71054273576E-14  0.00000000000E+00  0.78213331602E+03  0.82885491399E+03  0.27435003993E+03 0.  0.
         25    2    3    3    0    0  0.43728231781E+02 -0.49120167071E+02  0.36886952631E+03  0.39479672098E+03  0.12439764623E+03 0.  0.
         25    2    3    3    0    0 -0.43728231781E+02  0.49120167071E+02  0.41326378971E+03  0.43405819301E+03  0.11530223745E+03 0.  0.
          5    1    4    4  502    0  0.66862784703E+02 -0.78196857663E+02  0.25944952966E+03  0.27914427984E+03  0.47000000000E+01 0. -1.
         -5    1    4    4    0  502 -0.23134552922E+02  0.29076690592E+02  0.10941999665E+03  0.11565244114E+03  0.47000000000E+01 0. -1.
          5    1    5    5  503    0  0.29893082188E+01  0.62525553181E+02  0.10803365674E+03  0.12494695576E+03  0.47000000000E+01 0.  1.
         -5    1    5    5    0  503 -0.46717540000E+02 -0.13405386110E+02  0.30523013297E+03  0.30911123725E+03  0.47000000000E+01 0.  1.
<mgrwt>
<rscale>  0 0.27435004E+03</rscale>
<asrwt>0</asrwt>
<pdfrwt beam="1">  1        2 0.12392215E+00 0.27435004E+03</pdfrwt>
<pdfrwt beam="2">  1       -2 0.35939697E-02 0.27435004E+03</pdfrwt>
<totfact> 0.11318390E+04</totfact>
</mgrwt>
</event>
<event>
 9    1  0.2094635E-002  0.2748714E+03  0.7818608E-02  0.1098523E+00
          3   -1    0    0  501    0  0.00000000000E+00  0.00000000000E+00  0.32014429298E+03  0.32014429298E+03  0.00000000000E+00 0. -1.
         -3   -1    0    0    0  501 -0.00000000000E+00 -0.00000000000E+00 -0.59000202956E+02  0.59000202956E+02  0.00000000000E+00 0. -1.
         36    2    1    2    0    0  0.00000000000E+00  0.17763568394E-14  0.26114409002E+03  0.37914449593E+03  0.27487144821E+03 0.  0.
         25    2    3    3    0    0  0.28318109083E+02  0.15754644160E+02  0.93008443019E+02  0.16382040837E+03  0.13090619394E+03 0.  0.
         25    2    3    3    0    0 -0.28318109083E+02 -0.15754644160E+02  0.16813564700E+03  0.21532408756E+03  0.13055551607E+03 0.  0.
          5    1    4    4  502    0  0.69324161463E+02  0.23540688991E+01  0.97981536406E+02  0.12014096920E+03  0.47000000000E+01 0. -1.
         -5    1    4    4    0  502 -0.41006052380E+02  0.13400575261E+02 -0.49730933860E+01  0.43679439178E+02  0.47000000000E+01 0. -1.
          5    1    5    5  503    0 -0.58970781993E+01 -0.23966233905E+02  0.18436766797E+03  0.18607171438E+03  0.47000000000E+01 0. -1.
         -5    1    5    5    0  503 -0.22421030884E+02  0.82115897451E+01 -0.16232020968E+02  0.29252373181E+02  0.47000000000E+01 0. -1.
<mgrwt>
<rscale>  0 0.27487145E+03</rscale>
<asrwt>0</asrwt>
<pdfrwt beam="1">  1        3 0.49252967E-01 0.27487145E+03</pdfrwt>
<pdfrwt beam="2">  1       -3 0.90769545E-02 0.27487145E+03</pdfrwt>
<totfact> 0.90750626E+02</totfact>
</mgrwt>
</event>
<event>
 9    1  0.2094635E-002  0.2761730E+03  0.7818608E-02  0.1097798E+00
          1   -1    0    0  501    0  0.00000000000E+00  0.00000000000E+00  0.17643093718E+03  0.17643093718E+03  0.00000000000E+00 0. -1.
         -1   -1    0    0    0  501 -0.00000000000E+00 -0.00000000000E+00 -0.10807564526E+03  0.10807564526E+03  0.00000000000E+00 0. -1.
         36    2    1    2    0    0 -0.35527136788E-14  0.00000000000E+00  0.68355291918E+02  0.28450658244E+03  0.27617304270E+03 0.  0.
         25    2    3    3    0    0 -0.22491005557E+02  0.44760464498E+02  0.75162532691E+01  0.13774451405E+03  0.12809259376E+03 0.  0.
         25    2    3    3    0    0  0.22491005557E+02 -0.44760464498E+02  0.60839038649E+02  0.14676206838E+03  0.12380780096E+03 0.  0.
          5    1    4    4  502    0 -0.44152840737E+02 -0.37696721796E+01 -0.44681446610E+02  0.63104718085E+02  0.47000000000E+01 0.  1.
         -5    1    4    4    0  502  0.21661835180E+02  0.48530136678E+02  0.52197699879E+02  0.74639795967E+02  0.47000000000E+01 0.  1.
          5    1    5    5  503    0  0.22610518685E+02 -0.85859886174E+02  0.56084227508E+02  0.10512224400E+03  0.47000000000E+01 0.  1.
         -5    1    5    5    0  503 -0.11951312729E+00  0.41099421675E+02  0.47548111406E+01  0.41639824380E+02  0.47000000000E+01 0.  1.
<mgrwt>
<rscale>  0 0.27617304E+03</rscale>
<asrwt>0</asrwt>
<pdfrwt beam="1">  1        1 0.27143221E-01 0.27617304E+03</pdfrwt>
<pdfrwt beam="2">  1       -1 0.16627022E-01 0.27617304E+03</pdfrwt>
<totfact> 0.46581558E+03</totfact>
</mgrwt>
</event>
<event>
 9    1  0.2094635E-002  0.2745583E+03  0.7818608E-02  0.1098699E+00
          2   -1    0    0  501    0  0.00000000000E+00  0.00000000000E+00  0.23654230834E+03  0.23654230834E+03  0.00000000000E+00 0.  1.
         -2   -1    0    0    0  501 -0.00000000000E+00 -0.00000000000E+00 -0.79671025081E+02  0.79671025081E+02  0.00000000000E+00 0.  1.
         36    2    1    2    0    0 -0.35527136788E-14  0.00000000000E+00  0.15687128326E+03  0.31621333342E+03  0.27455832299E+03 0.  0.
         25    2    3    3    0    0 -0.23822441348E+02 -0.13284050073E+02  0.22075926664E+02  0.12997865689E+03  0.12515242710E+03 0.  0.
         25    2    3    3    0    0  0.23822441348E+02  0.13284050073E+02  0.13479535660E+03  0.18623467654E+03  0.12557703567E+03 0.  0.
          5    1    4    4  502    0  0.50094364661E+02 -0.11819465968E+02  0.21281107910E+02  0.55893834190E+02  0.47000000000E+01 0. -1.
         -5    1    4    4    0  502 -0.73916806009E+02 -0.14645841046E+01  0.79481875376E+00  0.74084822696E+02  0.47000000000E+01 0. -1.
          5    1    5    5  503    0  0.11675489484E+02  0.91072997189E+01  0.15828896500E+03  0.15904950928E+03  0.47000000000E+01 0. -1.
         -5    1    5    5    0  503  0.12146951864E+02  0.41767503538E+01 -0.23493608400E+02  0.27185167256E+02  0.47000000000E+01 0. -1.
<mgrwt>
<rscale>  0 0.27455832E+03</rscale>
<asrwt>0</asrwt>
<pdfrwt beam="1">  1        2 0.36391124E-01 0.27455832E+03</pdfrwt>
<pdfrwt beam="2">  1       -2 0.12257081E-01 0.27455832E+03</pdfrwt>
<totfact> 0.67156689E+03</totfact>
</mgrwt>
</event>
<event>
 9    1  0.2094635E-002  0.2749846E+03  0.7818608E-02  0.1098460E+00
          2   -1    0    0  501    0  0.00000000000E+00  0.00000000000E+00  0.55089755596E+03  0.55089755596E+03  0.00000000000E+00 0.  1.
         -2   -1    0    0    0  501 -0.00000000000E+00 -0.00000000000E+00 -0.34315144522E+02  0.34315144522E+02  0.00000000000E+00 0.  1.
         36    2    1    2    0    0  0.14210854715E-13  0.71054273576E-14  0.51658241144E+03  0.58521270048E+03  0.27498457593E+03 0.  0.
         25    2    3    3    0    0 -0.49954223039E+02  0.20140946470E+02  0.29442361061E+03  0.32456348484E+03  0.12551936535E+03 0.  0.
         25    2    3    3    0    0  0.49954223039E+02 -0.20140946470E+02  0.22215880083E+03  0.26064921565E+03  0.12522938437E+03 0.  0.
          5    1    4    4  502    0 -0.42368563542E+02 -0.47773254064E+02  0.18180059074E+03  0.19274574904E+03  0.47000000000E+01 0. -1.
         -5    1    4    4    0  502 -0.75856594968E+01  0.67914200534E+02  0.11262301987E+03  0.13181773579E+03  0.47000000000E+01 0. -1.
          5    1    5    5  503    0 -0.26667576681E+02 -0.44567148535E+02  0.59387478246E+02  0.79033872150E+02  0.47000000000E+01 0.  1.
         -5    1    5    5    0  503  0.76621799719E+02  0.24426202065E+02  0.16277132258E+03  0.18161534350E+03  0.47000000000E+01 0.  1.
<mgrwt>
<rscale>  0 0.27498458E+03</rscale>
<asrwt>0</asrwt>
<pdfrwt beam="1">  1        2 0.84753464E-01 0.27498458E+03</pdfrwt>
<pdfrwt beam="2">  1       -2 0.52792534E-02 0.27498458E+03</pdfrwt>
<totfact> 0.99882968E+03</totfact>
</mgrwt>
</event>
<event>
 9    1  0.2094635E-002  0.2762606E+03  0.7818608E-02  0.1097749E+00
          2   -1    0    0  501    0  0.00000000000E+00  0.00000000000E+00  0.12963211760E+04  0.12963211760E+04  0.00000000000E+00 0.  1.
         -2   -1    0    0    0  501 -0.00000000000E+00 -0.00000000000E+00 -0.14718563007E+02  0.14718563007E+02  0.00000000000E+00 0.  1.
         36    2    1    2    0    0  0.71054273576E-14 -0.35527136788E-14  0.12816026130E+04  0.13110397390E+04  0.27626063712E+03 0.  0.
         25    2    3    3    0    0  0.40856148235E+02 -0.18354306661E+02  0.44569130007E+03  0.46573954108E+03  0.12754011034E+03 0.  0.
         25    2    3    3    0    0 -0.40856148235E+02  0.18354306661E+02  0.83591131291E+03  0.84530019791E+03  0.11738226493E+03 0.  0.
          5    1    4    4  502    0 -0.34767740693E+02 -0.32455740773E+02  0.26535083770E+03  0.26962071132E+03  0.47000000000E+01 0. -1.
         -5    1    4    4    0  502  0.75623888928E+02  0.14101434112E+02  0.18034046237E+03  0.19611882976E+03  0.47000000000E+01 0. -1.
          5    1    5    5  503    0 -0.24112108648E+02 -0.36208569900E+02  0.13199777761E+03  0.13906098523E+03  0.47000000000E+01 0.  1.
         -5    1    5    5    0  503 -0.16744039588E+02  0.54562876560E+02  0.70391353530E+03  0.70623921269E+03  0.47000000000E+01 0.  1.
<mgrwt>
<rscale>  0 0.27626064E+03</rscale>
<asrwt>0</asrwt>
<pdfrwt beam="1">  1        2 0.19943394E+00 0.27626064E+03</pdfrwt>
<pdfrwt beam="2">  1       -2 0.22643953E-02 0.27626064E+03</pdfrwt>
<totfact> 0.11337720E+04</totfact>
</mgrwt>
</event>
<event>
 9    1  0.2094635E-002  0.2770601E+03  0.7818608E-02  0.1097306E+00
         -2   -1    0    0    0  501 -0.00000000000E+00  0.00000000000E+00  0.25484486222E+02  0.25484486222E+02  0.00000000000E+00 0. -1.
          2   -1    0    0  501    0  0.00000000000E+00 -0.00000000000E+00 -0.75302945718E+03  0.75302945718E+03  0.00000000000E+00 0. -1.
         36    2    1    2    0    0 -0.14210854715E-13  0.35527136788E-14 -0.72754497096E+03  0.77851394340E+03  0.27706005722E+03 0.  0.
         25    2    3    3    0    0  0.38173944657E+02 -0.23836856872E+02 -0.47642249158E+03  0.49384990899E+03  0.12199957515E+03 0.  0.
         25    2    3    3    0    0 -0.38173944657E+02  0.23836856872E+02 -0.25112247938E+03  0.28466403441E+03  0.12627615388E+03 0.  0.
          5    1    4    4  502    0  0.16712764540E+02 -0.37190983769E+01 -0.13086555661E+01  0.17803111264E+02  0.47000000000E+01 0.  1.
         -5    1    4    4    0  502  0.21461180117E+02 -0.20117758495E+02 -0.47511383601E+03  0.47604679773E+03  0.47000000000E+01 0.  1.
          5    1    5    5  503    0 -0.75449657639E+02  0.19142080296E+02 -0.89689278219E+02  0.11885001768E+03  0.47000000000E+01 0.  1.
         -5    1    5    5    0  503  0.37275712982E+02  0.46947765754E+01 -0.16143320116E+03  0.16581401673E+03  0.47000000000E+01 0.  1.
<mgrwt>
<rscale>  0 0.27706006E+03</rscale>
<asrwt>0</asrwt>
<pdfrwt beam="1">  1        2 0.11585067E+00 0.27706006E+03</pdfrwt>
<pdfrwt beam="2">  1       -2 0.39206906E-02 0.27706006E+03</pdfrwt>
<totfact> 0.10816621E+04</totfact>
</mgrwt>
</event>
<event>
 9    1  0.2094635E-002  0.2748940E+03  0.7818608E-02  0.1098511E+00
          2   -1    0    0  501    0  0.00000000000E+00  0.00000000000E+00  0.17408415140E+04  0.17408415140E+04  0.00000000000E+00 0.  1.
         -2   -1    0    0    0  501 -0.00000000000E+00 -0.00000000000E+00 -0.10852034224E+02  0.10852034224E+02  0.00000000000E+00 0.  1.
         36    2    1    2    0    0  0.00000000000E+00  0.00000000000E+00  0.17299894798E+04  0.17516935482E+04  0.27489395547E+03 0.  0.
         25    2    3    3    0    0 -0.46755264847E+02  0.32822899911E+02  0.68622329491E+03  0.69917630578E+03  0.12116805908E+03 0.  0.
         25    2    3    3    0    0  0.46755264847E+02 -0.32822899911E+02  0.10437661849E+04  0.10525172424E+04  0.12280594211E+03 0.  0.
          5    1    4    4  502    0 -0.61550481309E+02  0.32431205082E+02  0.67805351070E+03  0.68162959016E+03  0.47000000000E+01 0. -1.
         -5    1    4    4    0  502  0.14795216462E+02  0.39169482895E+00  0.81697842101E+01  0.17546715620E+02  0.47000000000E+01 0. -1.
          5    1    5    5  503    0  0.62792741547E+02  0.15679368393E+02  0.83587043563E+03  0.83838549972E+03  0.47000000000E+01 0.  1.
         -5    1    5    5    0  503 -0.16037476699E+02 -0.48502268304E+02  0.20789574923E+03  0.21413174272E+03  0.47000000000E+01 0.  1.
<mgrwt>
<rscale>  0 0.27489396E+03</rscale>
<asrwt>0</asrwt>
<pdfrwt beam="1">  1        2 0.26782155E+00 0.27489396E+03</pdfrwt>
<pdfrwt beam="2">  1       -2 0.16695451E-02 0.27489396E+03</pdfrwt>
<totfact> 0.10251755E+04</totfact>
</mgrwt>
</event>
<event>
 9    1  0.2094635E-002  0.2749570E+03  0.7818608E-02  0.1098476E+00
          2   -1    0    0  501    0  0.00000000000E+00  0.00000000000E+00  0.95066950503E+02  0.95066950503E+02  0.00000000000E+00 0. -1.
         -2   -1    0    0    0  501 -0.00000000000E+00 -0.00000000000E+00 -0.19881087273E+03  0.19881087273E+03  0.00000000000E+00 0. -1.
         36    2    1    2    0    0  0.00000000000E+00  0.00000000000E+00 -0.10374392223E+03  0.29387782323E+03  0.27495703953E+03 0.  0.
         25    2    3    3    0    0 -0.57555489137E+02  0.12763856985E+01 -0.36025761247E+02  0.14226685267E+03  0.12501095314E+03 0.  0.
         25    2    3    3    0    0  0.57555489137E+02 -0.12763856985E+01 -0.67718160981E+02  0.15161097057E+03  0.12282456423E+03 0.  0.
          5    1    4    4  502    0 -0.24984135325E+02  0.19478232071E+02  0.43663327671E+02  0.54149651208E+02  0.47000000000E+01 0. -1.
         -5    1    4    4    0  502 -0.32571353811E+02 -0.18201846373E+02 -0.79689088918E+02  0.88117201460E+02  0.47000000000E+01 0. -1.
          5    1    5    5  503    0  0.49001436834E+02 -0.55909041338E+02 -0.16951592796E+02  0.76396388746E+02  0.47000000000E+01 0.  1.
         -5    1    5    5    0  503  0.85540523030E+01  0.54632655640E+02 -0.50766568186E+02  0.75214581821E+02  0.47000000000E+01 0.  1.
<mgrwt>
<rscale>  0 0.27495704E+03</rscale>
<asrwt>0</asrwt>
<pdfrwt beam="1">  1        2 0.14625685E-01 0.27495704E+03</pdfrwt>
<pdfrwt beam="2">  1       -2 0.30586288E-01 0.27495704E+03</pdfrwt>
<totfact> 0.39428693E+03</totfact>
</mgrwt>
</event>
<event>
 9    1  0.2094635E-002  0.2699587E+03  0.7818608E-02  0.1101303E+00
         -2   -1    0    0    0  501 -0.00000000000E+00  0.00000000000E+00  0.94911808402E+02  0.94911808402E+02  0.00000000000E+00 0. -1.
          2   -1    0    0  501    0  0.00000000000E+00 -0.00000000000E+00 -0.19196162790E+03  0.19196162790E+03  0.00000000000E+00 0. -1.
         36    2    1    2    0    0 -0.88817841970E-15  0.00000000000E+00 -0.97049819497E+02  0.28687343630E+03  0.26995870238E+03 0.  0.
         25    2    3    3    0    0  0.51060536477E+01 -0.41112943676E+02 -0.31890048621E+02  0.13854158078E+03  0.12829827934E+03 0.  0.
         25    2    3    3    0    0 -0.51060536477E+01  0.41112943676E+02 -0.65159770876E+02  0.14833185553E+03  0.12664990210E+03 0.  0.
          5    1    4    4  502    0 -0.67929388324E+01 -0.42446739353E+02  0.43927417508E+02  0.61640714699E+02  0.47000000000E+01 0.  1.
         -5    1    4    4    0  502  0.11898992480E+02  0.13337956767E+01 -0.75817466130E+02  0.76900866076E+02  0.47000000000E+01 0.  1.
          5    1    5    5  503    0 -0.19011508370E+02 -0.15649225850E+02  0.28424151013E+02  0.37899315047E+02  0.47000000000E+01 0. -1.
         -5    1    5    5    0  503  0.13905454723E+02  0.56762169526E+02 -0.93583921889E+02  0.11043254048E+03  0.47000000000E+01 0. -1.
<mgrwt>
<rscale>  0 0.26995870E+03</rscale>
<asrwt>0</asrwt>
<pdfrwt beam="1">  1        2 0.29532558E-01 0.26995870E+03</pdfrwt>
<pdfrwt beam="2">  1       -2 0.14601817E-01 0.26995870E+03</pdfrwt>
<totfact> 0.63332550E+03</totfact>
</mgrwt>
</event>
<event>
 9    1  0.2094635E-002  0.2750730E+03  0.7818608E-02  0.1098411E+00
         -2   -1    0    0    0  501 -0.00000000000E+00  0.00000000000E+00  0.51482374294E+02  0.51482374294E+02  0.00000000000E+00 0. -1.
          2   -1    0    0  501    0  0.00000000000E+00 -0.00000000000E+00 -0.36743237432E+03  0.36743237432E+03  0.00000000000E+00 0. -1.
         36    2    1    2    0    0 -0.35527136788E-14  0.14210854715E-13 -0.31595000003E+03  0.41891474862E+03  0.27507301593E+03 0.  0.
         25    2    3    3    0    0  0.24704598424E+02 -0.52861329841E+02 -0.16304005391E+03  0.21288814321E+03  0.12383321430E+03 0.  0.
         25    2    3    3    0    0 -0.24704598424E+02  0.52861329841E+02 -0.15290994612E+03  0.20602660540E+03  0.12514341028E+03 0.  0.
          5    1    4    4  502    0 -0.16834790501E+02 -0.14356395015E+02 -0.15362160959E+03  0.15527783223E+03  0.47000000000E+01 0. -1.
         -5    1    4    4    0  502  0.41539388925E+02 -0.38504934826E+02 -0.94184443240E+01  0.57610310984E+02  0.47000000000E+01 0. -1.
          5    1    5    5  503    0  0.16471985532E+02 -0.35195823823E+02 -0.30380386775E+02  0.49549270656E+02  0.47000000000E+01 0.  1.
         -5    1    5    5    0  503 -0.41176583956E+02  0.88057153664E+02 -0.12252955934E+03  0.15647733475E+03  0.47000000000E+01 0.  1.
<mgrwt>
<rscale>  0 0.27507302E+03</rscale>
<asrwt>0</asrwt>
<pdfrwt beam="1">  1        2 0.56528059E-01 0.27507302E+03</pdfrwt>
<pdfrwt beam="2">  1       -2 0.79203651E-02 0.27507302E+03</pdfrwt>
<totfact> 0.83584076E+03</totfact>
</mgrwt>
</event>
<event>
 9    1  0.2094635E-002  0.2763861E+03  0.7818608E-02  0.1097679E+00
         -2   -1    0    0    0  501 -0.00000000000E+00  0.00000000000E+00  0.70369398409E+02  0.70369398409E+02  0.00000000000E+00 0.  1.
          2   -1    0    0  501    0  0.00000000000E+00 -0.00000000000E+00 -0.27138670442E+03  0.27138670442E+03  0.00000000000E+00 0.  1.
         36    2    1    2    0    0  0.14210854715E-13  0.71054273576E-14 -0.20101730601E+03  0.34175610282E+03  0.27638610042E+03 0.  0.
         25    2    3    3    0    0 -0.18408434968E+02  0.17242749085E+02 -0.13015794874E+03  0.19212105826E+03  0.13904397339E+03 0.  0.
         25    2    3    3    0    0  0.18408434968E+02 -0.17242749085E+02 -0.70859357272E+02  0.14963504456E+03  0.12935770241E+03 0.  0.
          5    1    4    4  502    0  0.49269201033E+02  0.40570659538E+02 -0.88335029771E+02  0.10908070439E+03  0.47000000000E+01 0.  1.
         -5    1    4    4    0  502 -0.67677636001E+02 -0.23327910453E+02 -0.41822918964E+02  0.83040353874E+02  0.47000000000E+01 0.  1.
          5    1    5    5  503    0 -0.40058734441E+02  0.29112518064E+02 -0.49847102633E+01  0.49991781819E+02  0.47000000000E+01 0.  1.
         -5    1    5    5    0  503  0.58467169409E+02 -0.46355267149E+02 -0.65874647009E+02  0.99643262741E+02  0.47000000000E+01 0.  1.
<mgrwt>
<rscale>  0 0.27638610E+03</rscale>
<asrwt>0</asrwt>
<pdfrwt beam="1">  1        2 0.41751800E-01 0.27638610E+03</pdfrwt>
<pdfrwt beam="2">  1       -2 0.10826062E-01 0.27638610E+03</pdfrwt>
<totfact> 0.70712812E+03</totfact>
</mgrwt>
</event>
<event>
 9    1  0.2094635E-002  0.2747022E+03  0.7818608E-02  0.1098618E+00
          2   -1    0    0  501    0  0.00000000000E+00  0.00000000000E+00  0.28290011038E+04  0.28290011038E+04  0.00000000000E+00 0. -1.
         -2   -1    0    0    0  501 -0.00000000000E+00 -0.00000000000E+00 -0.66685446219E+01  0.66685446219E+01  0.00000000000E+00 0. -1.
         36    2    1    2    0    0  0.00000000000E+00  0.00000000000E+00  0.28223325592E+04  0.28356696485E+04  0.27470216669E+03 0.  0.
         25    2    3    3    0    0 -0.24532853920E+02 -0.33427891774E+02  0.11764683133E+04  0.11836809311E+04  0.12370759648E+03 0.  0.
         25    2    3    3    0    0  0.24532853920E+02  0.33427891774E+02  0.16458642459E+04  0.16519887174E+04  0.13593499052E+03 0.  0.
          5    1    4    4  502    0 -0.54871994940E+02  0.17792379495E+02  0.83712826192E+03  0.83912652294E+03  0.47000000000E+01 0.  1.
         -5    1    4    4    0  502  0.30339141020E+02 -0.51220271269E+02  0.33934005141E+03  0.34455440812E+03  0.47000000000E+01 0.  1.
          5    1    5    5  503    0 -0.53805128483E+02  0.15009324165E+02  0.90934968665E+03  0.91107585539E+03  0.47000000000E+01 0. -1.
         -5    1    5    5    0  503  0.78337982403E+02  0.18418567609E+02  0.73651455924E+03  0.74091286201E+03  0.47000000000E+01 0. -1.
<mgrwt>
<rscale>  0 0.27470217E+03</rscale>
<asrwt>0</asrwt>
<pdfrwt beam="1">  1        2 0.43522998E+00 0.27470217E+03</pdfrwt>
<pdfrwt beam="2">  1       -2 0.10259322E-02 0.27470217E+03</pdfrwt>
<totfact> 0.53863917E+03</totfact>
</mgrwt>
</event>
<event>
 9    1  0.2094635E-002  0.2749108E+03  0.7818608E-02  0.1098501E+00
          1   -1    0    0  501    0  0.00000000000E+00  0.00000000000E+00  0.44813731812E+03  0.44813731812E+03  0.00000000000E+00 0.  1.
         -1   -1    0    0    0  501 -0.00000000000E+00 -0.00000000000E+00 -0.42161164763E+02  0.42161164763E+02  0.00000000000E+00 0.  1.
         36    2    1    2    0    0 -0.71054273576E-14  0.00000000000E+00  0.40597615335E+03  0.49029848288E+03  0.27491083140E+03 0.  0.
         25    2    3    3    0    0 -0.40812422922E+02 -0.35150309311E+02  0.21417906115E+03  0.25483617407E+03  0.12715190628E+03 0.  0.
         25    2    3    3    0    0  0.40812422922E+02  0.35150309311E+02  0.19179709220E+03  0.23546230880E+03  0.12551962469E+03 0.  0.
          5    1    4    4  502    0  0.25733540223E+01 -0.35027589510E+02 -0.82830267472E+00  0.35444749443E+02  0.47000000000E+01 0. -1.
         -5    1    4    4    0  502 -0.43385776944E+02 -0.12271980077E+00  0.21500736383E+03  0.21939142463E+03  0.47000000000E+01 0. -1.
          5    1    5    5  503    0 -0.34428069027E+02  0.44606508978E+02  0.11088613385E+03  0.12447030675E+03  0.47000000000E+01 0.  1.
         -5    1    5    5    0  503  0.75240491949E+02 -0.94561996675E+01  0.80910958345E+02  0.11099200206E+03  0.47000000000E+01 0.  1.
<mgrwt>
<rscale>  0 0.27491083E+03</rscale>
<asrwt>0</asrwt>
<pdfrwt beam="1">  1        1 0.68944199E-01 0.27491083E+03</pdfrwt>
<pdfrwt beam="2">  1       -1 0.64863334E-02 0.27491083E+03</pdfrwt>
<totfact> 0.61661998E+03</totfact>
</mgrwt>
</event>
<event>
 9    1  0.2094635E-002  0.2743796E+03  0.7818608E-02  0.1098799E+00
          1   -1    0    0  501    0  0.00000000000E+00  0.00000000000E+00  0.61346288894E+02  0.61346288894E+02  0.00000000000E+00 0. -1.
         -1   -1    0    0    0  501 -0.00000000000E+00 -0.00000000000E+00 -0.30679994023E+03  0.30679994023E+03  0.00000000000E+00 0. -1.
         36    2    1    2    0    0  0.71054273576E-14  0.00000000000E+00 -0.24545365134E+03  0.36814622913E+03  0.27437957479E+03 0.  0.
         25    2    3    3    0    0 -0.11906979146E+02 -0.14243023614E+01 -0.19299188676E+03  0.22971912847E+03  0.12402098547E+03 0.  0.
         25    2    3    3    0    0  0.11906979146E+02  0.14243023614E+01 -0.52461764574E+02  0.13842710066E+03  0.12753831058E+03 0.  0.
          5    1    4    4  502    0 -0.37718654696E+02  0.50805434542E+02 -0.76523767545E+02  0.99407575618E+02  0.47000000000E+01 0.  1.
         -5    1    4    4    0  502  0.25811675550E+02 -0.52229736903E+02 -0.11646811922E+03  0.13031155285E+03  0.47000000000E+01 0.  1.
          5    1    5    5  503    0 -0.67548014069E+01  0.61842401860E+02 -0.39094098435E+02  0.73624374648E+02  0.47000000000E+01 0.  1.
         -5    1    5    5    0  503  0.18661780553E+02 -0.60418099498E+02 -0.13367666138E+02  0.64802726010E+02  0.47000000000E+01 0.  1.
<mgrwt>
<rscale>  0 0.27437957E+03</rscale>
<asrwt>0</asrwt>
<pdfrwt beam="1">  1        1 0.94378903E-02 0.27437957E+03</pdfrwt>
<pdfrwt beam="2">  1       -1 0.47199992E-01 0.27437957E+03</pdfrwt>
<totfact> 0.31594663E+03</totfact>
</mgrwt>
</event>
<event>
 9    1  0.2094635E-002  0.2751749E+03  0.7818608E-02  0.1098354E+00
         -2   -1    0    0    0  501 -0.00000000000E+00  0.00000000000E+00  0.56520880488E+02  0.56520880488E+02  0.00000000000E+00 0.  1.
          2   -1    0    0  501    0  0.00000000000E+00 -0.00000000000E+00 -0.33492592153E+03  0.33492592153E+03  0.00000000000E+00 0.  1.
         36    2    1    2    0    0  0.35527136788E-14  0.71054273576E-14 -0.27840504104E+03  0.39144680202E+03  0.27517491152E+03 0.  0.
         25    2    3    3    0    0  0.68413140066E+00  0.59536492530E+02 -0.13380629348E+03  0.19201234819E+03  0.12417550365E+03 0.  0.
         25    2    3    3    0    0 -0.68413140066E+00 -0.59536492530E+02 -0.14459874756E+03  0.19943445382E+03  0.12377496353E+03 0.  0.
          5    1    4    4  502    0 -0.60096979994E+02  0.18563995498E+02 -0.74441821766E+02  0.97570199145E+02  0.47000000000E+01 0. -1.
         -5    1    4    4    0  502  0.60781111395E+02  0.40972497032E+02 -0.59364471710E+02  0.94442149048E+02  0.47000000000E+01 0. -1.
          5    1    5    5  503    0  0.10449085240E+02  0.17305166362E+02  0.12432535666E+02  0.24193183095E+02  0.47000000000E+01 0. -1.
         -5    1    5    5    0  503 -0.11133216640E+02 -0.76841658892E+02 -0.15703128323E+03  0.17524127073E+03  0.47000000000E+01 0. -1.
<mgrwt>
<rscale>  0 0.27517491E+03</rscale>
<asrwt>0</asrwt>
<pdfrwt beam="1">  1        2 0.51527064E-01 0.27517491E+03</pdfrwt>
<pdfrwt beam="2">  1       -2 0.86955201E-02 0.27517491E+03</pdfrwt>
<totfact> 0.79807901E+03</totfact>
</mgrwt>
</event>
<event>
 9    1  0.2094635E-002  0.2746226E+03  0.7818608E-02  0.1098663E+00
         -2   -1    0    0    0  501 -0.00000000000E+00  0.00000000000E+00  0.23590322761E+02  0.23590322761E+02  0.00000000000E+00 0. -1.
          2   -1    0    0  501    0  0.00000000000E+00 -0.00000000000E+00 -0.79924260727E+03  0.79924260727E+03  0.00000000000E+00 0. -1.
         36    2    1    2    0    0 -0.14210854715E-13  0.35527136788E-14 -0.77565228451E+03  0.82283293004E+03  0.27462258516E+03 0.  0.
         25    2    3    3    0    0  0.55225094240E+02  0.13500982303E+02 -0.46636631697E+03  0.48628740996E+03  0.12548233310E+03 0.  0.
         25    2    3    3    0    0 -0.55225094240E+02 -0.13500982303E+02 -0.30928596754E+03  0.33654552008E+03  0.11988740472E+03 0.  0.
          5    1    4    4  502    0  0.85770648186E+02  0.16278846988E+02 -0.42851533666E+03  0.43734321613E+03  0.47000000000E+01 0.  1.
         -5    1    4    4    0  502 -0.30545553946E+02 -0.27778646849E+01 -0.37850980316E+02  0.48944193823E+02  0.47000000000E+01 0.  1.
          5    1    5    5  503    0  0.75498478778E+01 -0.54540305775E+02 -0.16255314782E+03  0.17168943189E+03  0.47000000000E+01 0. -1.
         -5    1    5    5    0  503 -0.62774942118E+02  0.41039323472E+02 -0.14673281972E+03  0.16485608819E+03  0.47000000000E+01 0. -1.
<mgrwt>
<rscale>  0 0.27462259E+03</rscale>
<asrwt>0</asrwt>
<pdfrwt beam="1">  1        2 0.12296040E+00 0.27462259E+03</pdfrwt>
<pdfrwt beam="2">  1       -2 0.36292806E-02 0.27462259E+03</pdfrwt>
<totfact> 0.11265509E+04</totfact>
</mgrwt>
</event>
<event>
 9    1  0.2094635E-002  0.2747204E+03  0.7818608E-02  0.1098608E+00
          2   -1    0    0  501    0  0.00000000000E+00  0.00000000000E+00  0.12772219458E+03  0.12772219458E+03  0.00000000000E+00 0.  1.
         -2   -1    0    0    0  501 -0.00000000000E+00 -0.00000000000E+00 -0.14772554618E+03  0.14772554618E+03  0.00000000000E+00 0.  1.
         36    2    1    2    0    0  0.00000000000E+00  0.00000000000E+00 -0.20003351597E+02  0.27544774076E+03  0.27472044667E+03 0.  0.
         25    2    3    3    0    0 -0.67258991935E+00 -0.90712713509E+01 -0.58432350277E+02  0.13692758494E+03  0.12349932638E+03 0.  0.
         25    2    3    3    0    0  0.67258991935E+00  0.90712713509E+01  0.38428998680E+02  0.13852015583E+03  0.13277162833E+03 0.  0.
          5    1    4    4  502    0 -0.36095059371E+02  0.35111362528E+02  0.61024271007E+01  0.50941051285E+02  0.47000000000E+01 0.  1.
         -5    1    4    4    0  502  0.35422469451E+02 -0.44182633878E+02 -0.64534777378E+02  0.85986533653E+02  0.47000000000E+01 0.  1.
          5    1    5    5  503    0  0.44619838772E+02 -0.44630682269E+02  0.22527642144E+02  0.67174492721E+02  0.47000000000E+01 0.  1.
         -5    1    5    5    0  503 -0.43947248852E+02  0.53701953620E+02  0.15901356536E+02  0.71345663105E+02  0.47000000000E+01 0.  1.
<mgrwt>
<rscale>  0 0.27472045E+03</rscale>
<asrwt>0</asrwt>
<pdfrwt beam="1">  1        2 0.19649568E-01 0.27472045E+03</pdfrwt>
<pdfrwt beam="2">  1       -2 0.22727007E-01 0.27472045E+03</pdfrwt>
<totfact> 0.47373055E+03</totfact>
</mgrwt>
</event>
<event>
 9    1  0.2094635E-002  0.2746200E+03  0.7818608E-02  0.1098664E+00
          2   -1    0    0  501    0  0.00000000000E+00  0.00000000000E+00  0.21533933479E+04  0.21533933479E+04  0.00000000000E+00 0.  1.
         -2   -1    0    0    0  501 -0.00000000000E+00 -0.00000000000E+00 -0.87555004786E+01  0.87555004786E+01  0.00000000000E+00 0.  1.
         36    2    1    2    0    0  0.00000000000E+00  0.00000000000E+00  0.21446378474E+04  0.21621488483E+04  0.27462000282E+03 0.  0.
         25    2    3    3    0    0 -0.13205822031E+01  0.39409426128E+01  0.15218530930E+04  0.15267939931E+04  0.12266126378E+03 0.  0.
         25    2    3    3    0    0  0.13205822031E+01 -0.39409426128E+01  0.62278475439E+03  0.63535485528E+03  0.12568876982E+03 0.  0.
          5    1    4    4  502    0  0.52930403436E+02 -0.27423169559E+02  0.77182424614E+03  0.77413720668E+03  0.47000000000E+01 0. -1.
         -5    1    4    4    0  502 -0.54250985639E+02  0.31364112172E+02  0.75002884685E+03  0.75265678638E+03  0.47000000000E+01 0. -1.
          5    1    5    5  503    0 -0.56216531219E+02  0.50723745359E+01  0.43549499542E+03  0.43916284953E+03  0.47000000000E+01 0.  1.
         -5    1    5    5    0  503  0.57537113423E+02 -0.90133171487E+01  0.18728975897E+03  0.19619200575E+03  0.47000000000E+01 0.  1.
<mgrwt>
<rscale>  0 0.27462000E+03</rscale>
<asrwt>0</asrwt>
<pdfrwt beam="1">  1        2 0.33129086E+00 0.27462000E+03</pdfrwt>
<pdfrwt beam="2">  1       -2 0.13470018E-02 0.27462000E+03</pdfrwt>
<totfact> 0.85129281E+03</totfact>
</mgrwt>
</event>
<event>
 9    1  0.2094635E-002  0.2741909E+03  0.7818608E-02  0.1098905E+00
          1   -1    0    0  501    0  0.00000000000E+00  0.00000000000E+00  0.19968581022E+04  0.19968581022E+04  0.00000000000E+00 0. -1.
         -1   -1    0    0    0  501 -0.00000000000E+00 -0.00000000000E+00 -0.94123641667E+01  0.94123641667E+01  0.00000000000E+00 0. -1.
         36    2    1    2    0    0  0.35527136788E-14  0.00000000000E+00  0.19874457380E+04  0.20062704663E+04  0.27419085066E+03 0.  0.
         25    2    3    3    0    0  0.30205316530E+02  0.39255523451E+02  0.88830804841E+03  0.89913263647E+03  0.12998058252E+03 0.  0.
         25    2    3    3    0    0 -0.30205316530E+02 -0.39255523451E+02  0.10991376896E+04  0.11071378299E+04  0.12327674705E+03 0.  0.
          5    1    4    4  502    0  0.29201651919E+02  0.19868054078E+02  0.87360272838E+03  0.87432905309E+03  0.47000000000E+01 0. -1.
         -5    1    4    4    0  502  0.10036646115E+01  0.19387469373E+02  0.14705320031E+02  0.24803583381E+02  0.47000000000E+01 0. -1.
          5    1    5    5  503    0 -0.26176375779E+00 -0.20117385371E+02  0.10205681903E+04  0.10207773012E+04  0.47000000000E+01 0.  1.
         -5    1    5    5    0  503 -0.29943552773E+02 -0.19138138079E+02  0.78569499301E+02  0.86360528612E+02  0.47000000000E+01 0.  1.
<mgrwt>
<rscale>  0 0.27419085E+03</rscale>
<asrwt>0</asrwt>
<pdfrwt beam="1">  1        1 0.30720860E+00 0.27419085E+03</pdfrwt>
<pdfrwt beam="2">  1       -1 0.14480576E-02 0.27419085E+03</pdfrwt>
<totfact> 0.37242344E+03</totfact>
</mgrwt>
</event>
<event>
 9    1  0.2094635E-002  0.2746140E+03  0.7818608E-02  0.1098668E+00
          2   -1    0    0  501    0  0.00000000000E+00  0.00000000000E+00  0.72518936265E+03  0.72518936265E+03  0.00000000000E+00 0.  1.
         -2   -1    0    0    0  501 -0.00000000000E+00 -0.00000000000E+00 -0.25997647827E+02  0.25997647827E+02  0.00000000000E+00 0.  1.
         36    2    1    2    0    0 -0.35527136788E-14  0.71054273576E-14  0.69919171482E+03  0.75118701048E+03  0.27461403939E+03 0.  0.
         25    2    3    3    0    0 -0.10231264256E+02 -0.52795481455E+02  0.47248851811E+03  0.48648571512E+03  0.10262022039E+03 0.  0.
         25    2    3    3    0    0  0.10231264256E+02  0.52795481455E+02  0.22670319671E+03  0.26470129536E+03  0.12562004114E+03 0.  0.
          5    1    4    4  502    0  0.25754972840E+02  0.20597729789E+02  0.11407779468E+03  0.11884198895E+03  0.47000000000E+01 0. -1.
         -5    1    4    4    0  502 -0.35986237096E+02 -0.73393211245E+02  0.35841072344E+03  0.36764372617E+03  0.47000000000E+01 0. -1.
          5    1    5    5  503    0 -0.62016840797E+01  0.70036432075E+02  0.50160020505E+02  0.86496707222E+02  0.47000000000E+01 0. -1.
         -5    1    5    5    0  503  0.16432948336E+02 -0.17240950620E+02  0.17654317620E+03  0.17820458814E+03  0.47000000000E+01 0. -1.
<mgrwt>
<rscale>  0 0.27461404E+03</rscale>
<asrwt>0</asrwt>
<pdfrwt beam="1">  1        2 0.11156758E+00 0.27461404E+03</pdfrwt>
<pdfrwt beam="2">  1       -2 0.39996387E-02 0.27461404E+03</pdfrwt>
<totfact> 0.10993979E+04</totfact>
</mgrwt>
</event>
<event>
 9    1  0.2094635E-002  0.2750247E+03  0.7818608E-02  0.1098438E+00
         -1   -1    0    0    0  501 -0.00000000000E+00  0.00000000000E+00  0.10866953603E+02  0.10866953603E+02  0.00000000000E+00 0.  1.
          1   -1    0    0  501    0  0.00000000000E+00 -0.00000000000E+00 -0.17401051274E+04  0.17401051274E+04  0.00000000000E+00 0.  1.
         36    2    1    2    0    0  0.00000000000E+00  0.53290705182E-14 -0.17292381738E+04  0.17509720810E+04  0.27502466569E+03 0.  0.
         25    2    3    3    0    0  0.17942740431E+02  0.33579781973E+01 -0.12074724071E+04  0.12140128428E+04  0.12451646715E+03 0.  0.
         25    2    3    3    0    0 -0.17942740431E+02 -0.33579781973E+01 -0.52176576670E+03  0.53695923822E+03  0.12550892501E+03 0.  0.
          5    1    4    4  502    0  0.25437710389E+02 -0.15344120732E+02 -0.68023302932E+02  0.74375929525E+02  0.47000000000E+01 0.  1.
         -5    1    4    4    0  502 -0.74949699582E+01  0.18702098930E+02 -0.11394491042E+04  0.11396369133E+04  0.47000000000E+01 0.  1.
          5    1    5    5  503    0 -0.60647381028E+02  0.28718589722E+02 -0.20688050686E+03  0.21754194156E+03  0.47000000000E+01 0. -1.
         -5    1    5    5    0  503  0.42704640597E+02 -0.32076567920E+02 -0.31488525984E+03  0.31941729666E+03  0.47000000000E+01 0. -1.
<mgrwt>
<rscale>  0 0.27502467E+03</rscale>
<asrwt>0</asrwt>
<pdfrwt beam="1">  1        1 0.26770830E+00 0.27502467E+03</pdfrwt>
<pdfrwt beam="2">  1       -1 0.16718402E-02 0.27502467E+03</pdfrwt>
<totfact> 0.44354206E+03</totfact>
</mgrwt>
</event>
<event>
 9    1  0.2094635E-002  0.2738842E+03  0.7818608E-02  0.1099077E+00
          1   -1    0    0  501    0  0.00000000000E+00  0.00000000000E+00  0.16111223390E+03  0.16111223390E+03  0.00000000000E+00 0.  1.
         -1   -1    0    0    0  501 -0.00000000000E+00 -0.00000000000E+00 -0.11639801691E+03  0.11639801691E+03  0.00000000000E+00 0.  1.
         36    2    1    2    0    0 -0.35527136788E-14  0.00000000000E+00  0.44714216993E+02  0.27751025080E+03  0.27388424215E+03 0.  0.
         25    2    3    3    0    0 -0.12293103253E+02  0.57431724649E+02  0.35129085950E+02  0.13786614978E+03  0.11968082215E+03 0.  0.
         25    2    3    3    0    0  0.12293103253E+02 -0.57431724649E+02  0.95851310429E+01  0.13964410103E+03  0.12632923981E+03 0.  0.
          5    1    4    4  502    0 -0.14328251684E+02 -0.19680079598E+02  0.53028938957E+02  0.58538557346E+02  0.47000000000E+01 0. -1.
         -5    1    4    4    0  502  0.20351484310E+01  0.77111804246E+02 -0.17899853007E+02  0.79327592431E+02  0.47000000000E+01 0. -1.
          5    1    5    5  503    0 -0.18213771339E+02 -0.21076363355E+02 -0.53535786610E+02  0.60532016377E+02  0.47000000000E+01 0. -1.
         -5    1    5    5    0  503  0.30506874592E+02 -0.36355361294E+02  0.63120917653E+02  0.79112084649E+02  0.47000000000E+01 0. -1.
<mgrwt>
<rscale>  0 0.27388424E+03</rscale>
<asrwt>0</asrwt>
<pdfrwt beam="1">  1        1 0.24786498E-01 0.27388424E+03</pdfrwt>
<pdfrwt beam="2">  1       -1 0.17907387E-01 0.27388424E+03</pdfrwt>
<totfact> 0.46401425E+03</totfact>
</mgrwt>
</event>
<event>
 9    1  0.2094635E-002  0.2734678E+03  0.7818608E-02  0.1099311E+00
         -1   -1    0    0    0  501 -0.00000000000E+00  0.00000000000E+00  0.11004609349E+04  0.11004609349E+04  0.00000000000E+00 0.  1.
          1   -1    0    0  501    0  0.00000000000E+00 -0.00000000000E+00 -0.16989395462E+02  0.16989395462E+02  0.00000000000E+00 0.  1.
         36    2    1    2    0    0  0.00000000000E+00  0.00000000000E+00  0.10834715394E+04  0.11174503303E+04  0.27346784829E+03 0.  0.
         25    2    3    3    0    0  0.15645668178E+02 -0.82578329960E+01  0.73609216805E+03  0.74661800345E+03  0.12366804141E+03 0.  0.
         25    2    3    3    0    0 -0.15645668178E+02  0.82578329960E+01  0.34737937136E+03  0.37083232689E+03  0.12857374646E+03 0.  0.
          5    1    4    4  502    0 -0.19874359226E+02  0.26073820757E+02  0.58606990501E+02  0.67317929403E+02  0.47000000000E+01 0. -1.
         -5    1    4    4    0  502  0.35520027404E+02 -0.34331653753E+02  0.67748517755E+03  0.67930007404E+03  0.47000000000E+01 0. -1.
          5    1    5    5  503    0 -0.64575448909E+02  0.33378161034E+02  0.16700593951E+03  0.18220088931E+03  0.47000000000E+01 0. -1.
         -5    1    5    5    0  503  0.48929780731E+02 -0.25120328038E+02  0.18037343186E+03  0.18863143758E+03  0.47000000000E+01 0. -1.
<mgrwt>
<rscale>  0 0.27346785E+03</rscale>
<asrwt>0</asrwt>
<pdfrwt beam="1">  1        1 0.26137540E-02 0.27346785E+03</pdfrwt>
<pdfrwt beam="2">  1       -1 0.16930163E+00 0.27346785E+03</pdfrwt>
<totfact> 0.11270355E+03</totfact>
</mgrwt>
</event>
<event>
 9    1  0.2094635E-002  0.2753874E+03  0.7818608E-02  0.1098235E+00
          1   -1    0    0  501    0  0.00000000000E+00  0.00000000000E+00  0.59608903047E+03  0.59608903047E+03  0.00000000000E+00 0.  1.
         -1   -1    0    0    0  501 -0.00000000000E+00 -0.00000000000E+00 -0.31806583533E+02  0.31806583533E+02  0.00000000000E+00 0.  1.
         36    2    1    2    0    0  0.00000000000E+00 -0.10658141036E-13  0.56428244694E+03  0.62789561401E+03  0.27538740379E+03 0.  0.
         25    2    3    3    0    0 -0.11069353635E+02  0.26207668214E+02  0.34860638556E+03  0.37739137016E+03  0.14173377070E+03 0.  0.
         25    2    3    3    0    0  0.11069353635E+02 -0.26207668214E+02  0.21567606139E+03  0.25050424385E+03  0.12420483190E+03 0.  0.
          5    1    4    4  502    0  0.26649310082E+02  0.56178787474E+02  0.30788357108E+03  0.31413472465E+03  0.47000000000E+01 0. -1.
         -5    1    4    4    0  502 -0.37718663718E+02 -0.29971119260E+02  0.40722814479E+02  0.63256645512E+02  0.47000000000E+01 0. -1.
          5    1    5    5  503    0  0.28593042592E+02  0.38467240341E+02  0.14593098765E+03  0.15367248882E+03  0.47000000000E+01 0. -1.
         -5    1    5    5    0  503 -0.17523688956E+02 -0.64674908555E+02  0.69745073734E+02  0.96831755026E+02  0.47000000000E+01 0. -1.
<mgrwt>
<rscale>  0 0.27538740E+03</rscale>
<asrwt>0</asrwt>
<pdfrwt beam="1">  1        1 0.91705997E-01 0.27538740E+03</pdfrwt>
<pdfrwt beam="2">  1       -1 0.48933210E-02 0.27538740E+03</pdfrwt>
<totfact> 0.64294377E+03</totfact>
</mgrwt>
</event>
<event>
 9    1  0.2094635E-002  0.2741692E+03  0.7818608E-02  0.1098917E+00
          2   -1    0    0  501    0  0.00000000000E+00  0.00000000000E+00  0.86821231939E+03  0.86821231939E+03  0.00000000000E+00 0.  1.
         -2   -1    0    0    0  501 -0.00000000000E+00 -0.00000000000E+00 -0.21644694909E+02  0.21644694909E+02  0.00000000000E+00 0.  1.
         36    2    1    2    0    0  0.71054273576E-14  0.35527136788E-14  0.84656762448E+03  0.88985701429E+03  0.27416922343E+03 0.  0.
         25    2    3    3    0    0 -0.63724015728E+02 -0.70845441318E+01  0.57175675473E+03  0.58665574003E+03  0.11466573062E+03 0.  0.
         25    2    3    3    0    0  0.63724015728E+02  0.70845441318E+01  0.27481086974E+03  0.30320127427E+03  0.11090111650E+03 0.  0.
          5    1    4    4  502    0 -0.52778143055E+02 -0.58214715803E+02  0.35688261299E+03  0.36546104440E+03  0.47000000000E+01 0.  1.
         -5    1    4    4    0  502 -0.10945872674E+02  0.51130171671E+02  0.21487414175E+03  0.22119469563E+03  0.47000000000E+01 0.  1.
          5    1    5    5  503    0  0.51761595416E+00  0.22091174841E+02  0.19514242936E+01  0.22675669536E+02  0.47000000000E+01 0.  1.
         -5    1    5    5    0  503  0.63206399774E+02 -0.15006630709E+02  0.27285944545E+03  0.28052560473E+03  0.47000000000E+01 0.  1.
<mgrwt>
<rscale>  0 0.27416922E+03</rscale>
<asrwt>0</asrwt>
<pdfrwt beam="1">  1        2 0.13357110E+00 0.27416922E+03</pdfrwt>
<pdfrwt beam="2">  1       -2 0.33299537E-02 0.27416922E+03</pdfrwt>
<totfact> 0.11511362E+04</totfact>
</mgrwt>
</event>
<event>
 9    1  0.2094635E-002  0.2760685E+03  0.7818608E-02  0.1097856E+00
          2   -1    0    0  501    0  0.00000000000E+00  0.00000000000E+00  0.96108234016E+03  0.96108234016E+03  0.00000000000E+00 0.  1.
         -2   -1    0    0    0  501 -0.00000000000E+00 -0.00000000000E+00 -0.19824992530E+02  0.19824992530E+02  0.00000000000E+00 0.  1.
         36    2    1    2    0    0  0.71054273576E-14  0.00000000000E+00  0.94125734763E+03  0.98090733269E+03  0.27606847132E+03 0.  0.
         25    2    3    3    0    0  0.31711018791E+02 -0.45906977074E+02  0.61188223010E+03  0.62441224042E+03  0.11125530649E+03 0.  0.
         25    2    3    3    0    0 -0.31711018791E+02  0.45906977074E+02  0.32937511753E+03  0.35649509227E+03  0.12444976298E+03 0.  0.
          5    1    4    4  502    0 -0.24396421837E+02 -0.39538969517E+02  0.11222931348E+03  0.12155667120E+03  0.47000000000E+01 0.  1.
         -5    1    4    4    0  502  0.56107440628E+02 -0.63680075563E+01  0.49965291661E+03  0.50285556922E+03  0.47000000000E+01 0.  1.
          5    1    5    5  503    0  0.27096059117E+02  0.18919461208E+02  0.25756975151E+03  0.25972371729E+03  0.47000000000E+01 0. -1.
         -5    1    5    5    0  503 -0.58807077908E+02  0.26987515866E+02  0.71805366024E+02  0.96771374975E+02  0.47000000000E+01 0. -1.
<mgrwt>
<rscale>  0 0.27606847E+03</rscale>
<asrwt>0</asrwt>
<pdfrwt beam="1">  1        2 0.14785879E+00 0.27606847E+03</pdfrwt>
<pdfrwt beam="2">  1       -2 0.30499996E-02 0.27606847E+03</pdfrwt>
<totfact> 0.11444237E+04</totfact>
</mgrwt>
</event>
<event>
 9    1  0.2094635E-002  0.2747545E+03  0.7818608E-02  0.1098589E+00
          2   -1    0    0  501    0  0.00000000000E+00  0.00000000000E+00  0.73854180193E+03  0.73854180193E+03  0.00000000000E+00 0. -1.
         -2   -1    0    0    0  501 -0.00000000000E+00 -0.00000000000E+00 -0.25553739896E+02  0.25553739896E+02  0.00000000000E+00 0. -1.
         36    2    1    2    0    0  0.00000000000E+00  0.00000000000E+00  0.71298806203E+03  0.76409554182E+03  0.27475447300E+03 0.  0.
         25    2    3    3    0    0 -0.31960205678E+02  0.24173556035E+02  0.46250008539E+03  0.48297100867E+03  0.13322481252E+03 0.  0.
         25    2    3    3    0    0  0.31960205678E+02 -0.24173556035E+02  0.25048797664E+03  0.28112453315E+03  0.12116501616E+03 0.  0.
          5    1    4    4  502    0  0.39304452989E+02 -0.11618712908E+02  0.61262929188E+02  0.73858452509E+02  0.47000000000E+01 0. -1.
         -5    1    4    4    0  502 -0.71264658668E+02  0.35792268943E+02  0.40123715620E+03  0.40911255616E+03  0.47000000000E+01 0. -1.
          5    1    5    5  503    0  0.86787934215E+01 -0.38108676363E+02  0.12146199234E+02  0.41197242932E+02  0.47000000000E+01 0.  1.
         -5    1    5    5    0  503  0.23281412257E+02  0.13935120328E+02  0.23834177741E+03  0.23992729022E+03  0.47000000000E+01 0.  1.
<mgrwt>
<rscale>  0 0.27475447E+03</rscale>
<asrwt>0</asrwt>
<pdfrwt beam="1">  1        2 0.11362180E+00 0.27475447E+03</pdfrwt>
<pdfrwt beam="2">  1       -2 0.39313452E-02 0.27475447E+03</pdfrwt>
<totfact> 0.11031919E+04</totfact>
</mgrwt>
</event>
<event>
 9    1  0.2094635E-002  0.2750516E+03  0.7818608E-02  0.1098423E+00
          3   -1    0    0  501    0  0.00000000000E+00  0.00000000000E+00  0.24018869246E+03  0.24018869246E+03  0.00000000000E+00 0.  1.
         -3   -1    0    0    0  501 -0.00000000000E+00 -0.00000000000E+00 -0.78743683325E+02  0.78743683325E+02  0.00000000000E+00 0.  1.
         36    2    1    2    0    0 -0.71054273576E-14  0.00000000000E+00  0.16144500913E+03  0.31893237578E+03  0.27505157580E+03 0.  0.
         25    2    3    3    0    0  0.27600334031E+02 -0.33527472137E+02  0.13321625999E+03  0.18552660181E+03  0.12160459789E+03 0.  0.
         25    2    3    3    0    0 -0.27600334031E+02  0.33527472137E+02  0.28228749143E+02  0.13340577397E+03  0.12294050766E+03 0.  0.
          5    1    4    4  502    0  0.72056798671E+02 -0.41700669507E+02  0.80145411508E+02  0.11565684181E+03  0.47000000000E+01 0.  1.
         -5    1    4    4    0  502 -0.44456464641E+02  0.81731973706E+01  0.53070848480E+02  0.69869759997E+02  0.47000000000E+01 0.  1.
          5    1    5    5  503    0 -0.24401807082E+02  0.61931098199E+02 -0.26247234089E+02  0.71707157316E+02  0.47000000000E+01 0. -1.
         -5    1    5    5    0  503 -0.31985269483E+01 -0.28403626063E+02  0.54475983232E+02  0.61698616656E+02  0.47000000000E+01 0. -1.
<mgrwt>
<rscale>  0 0.27505158E+03</rscale>
<asrwt>0</asrwt>
<pdfrwt beam="1">  1        3 0.36952106E-01 0.27505158E+03</pdfrwt>
<pdfrwt beam="2">  1       -3 0.12114413E-01 0.27505158E+03</pdfrwt>
<totfact> 0.98427142E+02</totfact>
</mgrwt>
</event>
<event>
 9    1  0.2094635E-002  0.2749125E+03  0.7818608E-02  0.1098501E+00
          2   -1    0    0  501    0  0.00000000000E+00  0.00000000000E+00  0.98135080003E+03  0.98135080003E+03  0.00000000000E+00 0. -1.
         -2   -1    0    0    0  501 -0.00000000000E+00 -0.00000000000E+00 -0.19253279602E+02  0.19253279602E+02  0.00000000000E+00 0. -1.
         36    2    1    2    0    0  0.71054273576E-14  0.00000000000E+00  0.96209752042E+03  0.10006040796E+04  0.27491250492E+03 0.  0.
         25    2    3    3    0    0  0.53863121048E+02  0.18270935433E+02  0.47142519259E+03  0.49301518334E+03  0.13261672560E+03 0.  0.
         25    2    3    3    0    0 -0.53863121048E+02 -0.18270935433E+02  0.49067232783E+03  0.50758889628E+03  0.11684216465E+03 0.  0.
          5    1    4    4  502    0  0.12506432122E+02 -0.53034775238E+02  0.26704101845E+03  0.27258410402E+03  0.47000000000E+01 0. -1.
         -5    1    4    4    0  502  0.41356688926E+02  0.71305710671E+02  0.20438417414E+03  0.22043107933E+03  0.47000000000E+01 0. -1.
          5    1    5    5  503    0 -0.45951633497E+02  0.41366994904E+02  0.33380535302E+03  0.33951566178E+03  0.47000000000E+01 0.  1.
         -5    1    5    5    0  503 -0.79114875507E+01 -0.59637930337E+02  0.15686697481E+03  0.16807323450E+03  0.47000000000E+01 0.  1.
<mgrwt>
<rscale>  0 0.27491250E+03</rscale>
<asrwt>0</asrwt>
<pdfrwt beam="1">  1        2 0.15097701E+00 0.27491250E+03</pdfrwt>
<pdfrwt beam="2">  1       -2 0.29620438E-02 0.27491250E+03</pdfrwt>
<totfact> 0.11610545E+04</totfact>
</mgrwt>
</event>
<event>
 9    1  0.2094635E-002  0.2748520E+03  0.7818608E-02  0.1098534E+00
         -2   -1    0    0    0  501 -0.00000000000E+00  0.00000000000E+00  0.12202188051E+03  0.12202188051E+03  0.00000000000E+00 0. -1.
          2   -1    0    0  501    0  0.00000000000E+00 -0.00000000000E+00 -0.15477473717E+03  0.15477473717E+03  0.00000000000E+00 0. -1.
         36    2    1    2    0    0  0.00000000000E+00  0.71054273576E-14 -0.32752856660E+02  0.27679661768E+03  0.27485199279E+03 0.  0.
         25    2    3    3    0    0 -0.34055159123E+02 -0.18447857378E+01 -0.16058206141E+00  0.14260885224E+03  0.13847058118E+03 0.  0.
         25    2    3    3    0    0  0.34055159123E+02  0.18447857378E+01 -0.32592274599E+02  0.13418776545E+03  0.12562222309E+03 0.  0.
          5    1    4    4  502    0 -0.17099671079E+02  0.64804782934E+02 -0.21341129514E+02  0.70495336378E+02  0.47000000000E+01 0. -1.
         -5    1    4    4    0  502 -0.16955488044E+02 -0.66649568672E+02  0.21180547453E+02  0.72113515857E+02  0.47000000000E+01 0. -1.
          5    1    5    5  503    0  0.67645060270E+02 -0.65144684918E+01  0.20050025746E+02  0.71009759971E+02  0.47000000000E+01 0. -1.
         -5    1    5    5    0  503 -0.33589901147E+02  0.83592542296E+01 -0.52642300345E+02  0.63178005477E+02  0.47000000000E+01 0. -1.
<mgrwt>
<rscale>  0 0.27485199E+03</rscale>
<asrwt>0</asrwt>
<pdfrwt beam="1">  1        2 0.23811498E-01 0.27485199E+03</pdfrwt>
<pdfrwt beam="2">  1       -2 0.18772597E-01 0.27485199E+03</pdfrwt>
<totfact> 0.52902213E+03</totfact>
</mgrwt>
</event>
<event>
 9    1  0.2094635E-002  0.2751194E+03  0.7818608E-02  0.1098385E+00
         -2   -1    0    0    0  501 -0.00000000000E+00  0.00000000000E+00  0.10932217685E+02  0.10932217685E+02  0.00000000000E+00 0.  1.
          2   -1    0    0  501    0  0.00000000000E+00 -0.00000000000E+00 -0.17309083551E+04  0.17309083551E+04  0.00000000000E+00 0.  1.
         36    2    1    2    0    0 -0.35527136788E-14  0.35527136788E-14 -0.17199761375E+04  0.17418405728E+04  0.27511936995E+03 0.  0.
         25    2    3    3    0    0  0.14121421045E+02  0.40260522444E+01 -0.11891850299E+04  0.11958079769E+04  0.12482010470E+03 0.  0.
         25    2    3    3    0    0 -0.14121421045E+02 -0.40260522444E+01 -0.53079110756E+03  0.54603259597E+03  0.12726654068E+03 0.  0.
          5    1    4    4  502    0 -0.19144809939E+02 -0.40191347507E+02 -0.91291387364E+03  0.91401077611E+03  0.47000000000E+01 0. -1.
         -5    1    4    4    0  502  0.33266230984E+02  0.44217399751E+02 -0.27627115626E+03  0.28179720075E+03  0.47000000000E+01 0. -1.
          5    1    5    5  503    0 -0.39411350203E+02 -0.75705721845E+01 -0.51292449949E+03  0.51451355693E+03  0.47000000000E+01 0.  1.
         -5    1    5    5    0  503  0.25289929158E+02  0.35445199401E+01 -0.17866608066E+02  0.31519039043E+02  0.47000000000E+01 0.  1.
<mgrwt>
<rscale>  0 0.27511937E+03</rscale>
<asrwt>0</asrwt>
<pdfrwt beam="1">  1        2 0.26629345E+00 0.27511937E+03</pdfrwt>
<pdfrwt beam="2">  1       -2 0.16818806E-02 0.27511937E+03</pdfrwt>
<totfact> 0.10264574E+04</totfact>
</mgrwt>
</event>
<event>
 9    1  0.2094635E-002  0.2750906E+03  0.7818608E-02  0.1098401E+00
          1   -1    0    0  501    0  0.00000000000E+00  0.00000000000E+00  0.11331410773E+03  0.11331410773E+03  0.00000000000E+00 0. -1.
         -1   -1    0    0    0  501 -0.00000000000E+00 -0.00000000000E+00 -0.16695811930E+03  0.16695811930E+03  0.00000000000E+00 0. -1.
         36    2    1    2    0    0 -0.71054273576E-14  0.00000000000E+00 -0.53644011575E+02  0.28027222703E+03  0.27509060556E+03 0.  0.
         25    2    3    3    0    0 -0.19834530524E+02 -0.52617147887E+02 -0.39151620175E+02  0.14358836561E+03  0.12618556385E+03 0.  0.
         25    2    3    3    0    0  0.19834530524E+02  0.52617147887E+02 -0.14492391400E+02  0.13668386142E+03  0.12373550707E+03 0.  0.
          5    1    4    4  502    0  0.17473908824E+02 -0.85689010193E+02 -0.30693778379E+02  0.92801627080E+02  0.47000000000E+01 0.  1.
         -5    1    4    4    0  502 -0.37308439349E+02  0.33071862307E+02 -0.84578417957E+01  0.50786738534E+02  0.47000000000E+01 0.  1.
          5    1    5    5  503    0  0.28963310851E+02 -0.35298035320E+02 -0.14612835281E+02  0.48171045534E+02  0.47000000000E+01 0.  1.
         -5    1    5    5    0  503 -0.91287803267E+01  0.87915183206E+02  0.12044388144E+00  0.88512815881E+02  0.47000000000E+01 0.  1.
<mgrwt>
<rscale>  0 0.27509061E+03</rscale>
<asrwt>0</asrwt>
<pdfrwt beam="1">  1        1 0.17432940E-01 0.27509061E+03</pdfrwt>
<pdfrwt beam="2">  1       -1 0.25685864E-01 0.27509061E+03</pdfrwt>
<totfact> 0.40422401E+03</totfact>
</mgrwt>
</event>
<event>
 9    1  0.2094635E-002  0.2741445E+03  0.7818608E-02  0.1098931E+00
         -1   -1    0    0    0  501 -0.00000000000E+00  0.00000000000E+00  0.14850789715E+02  0.14850789715E+02  0.00000000000E+00 0.  1.
          1   -1    0    0  501    0  0.00000000000E+00 -0.00000000000E+00 -0.12651718154E+04  0.12651718154E+04  0.00000000000E+00 0.  1.
         36    2    1    2    0    0  0.35527136788E-14 -0.71054273576E-14 -0.12503210257E+04  0.12800226051E+04  0.27414449171E+03 0.  0.
         25    2    3    3    0    0 -0.21622603167E+02  0.37923488774E+02 -0.81767139224E+03  0.82839032749E+03  0.12545238550E+03 0.  0.
         25    2    3    3    0    0  0.21622603167E+02 -0.37923488774E+02 -0.43264963345E+03  0.45163227763E+03  0.12198475684E+03 0.  0.
          5    1    4    4  502    0  0.31315040271E+02  0.13649664033E+02 -0.66121080448E+02  0.74572329687E+02  0.47000000000E+01 0. -1.
         -5    1    4    4    0  502 -0.52937643439E+02  0.24273824741E+02 -0.75155031179E+03  0.75381799780E+03  0.47000000000E+01 0. -1.
          5    1    5    5  503    0 -0.13375058671E+02  0.35914134165E+02 -0.70824098883E+02  0.80665111479E+02  0.47000000000E+01 0.  1.
         -5    1    5    5    0  503  0.34997661838E+02 -0.73837622940E+02 -0.36182553457E+03  0.37096716615E+03  0.47000000000E+01 0.  1.
<mgrwt>
<rscale>  0 0.27414449E+03</rscale>
<asrwt>0</asrwt>
<pdfrwt beam="1">  1        1 0.19464182E+00 0.27414449E+03</pdfrwt>
<pdfrwt beam="2">  1       -1 0.22847369E-02 0.27414449E+03</pdfrwt>
<totfact> 0.58149315E+03</totfact>
</mgrwt>
</event>
<event>
 9    1  0.2094635E-002  0.2746068E+03  0.7818608E-02  0.1098672E+00
          2   -1    0    0  501    0  0.00000000000E+00  0.00000000000E+00  0.15590522584E+04  0.15590522584E+04  0.00000000000E+00 0. -1.
         -2   -1    0    0    0  501 -0.00000000000E+00 -0.00000000000E+00 -0.12092103822E+02  0.12092103822E+02  0.00000000000E+00 0. -1.
         36    2    1    2    0    0  0.71054273576E-14  0.17763568394E-14  0.15469601546E+04  0.15711443622E+04  0.27460678631E+03 0.  0.
         25    2    3    3    0    0  0.34049360955E+02 -0.71673991860E+01  0.51121194115E+03  0.52751955898E+03  0.12541333960E+03 0.  0.
         25    2    3    3    0    0 -0.34049360955E+02  0.71673991860E+01  0.10357482134E+04  0.10436248032E+04  0.12315696371E+03 0.  0.
          5    1    4    4  502    0 -0.28143167144E+02 -0.38508694079E+02  0.32760027329E+03  0.33108758122E+03  0.47000000000E+01 0.  1.
         -5    1    4    4    0  502  0.62192528099E+02  0.31341294893E+02  0.18361166785E+03  0.19643197776E+03  0.47000000000E+01 0.  1.
          5    1    5    5  503    0 -0.48172275856E+02  0.36795673834E+00  0.10192115861E+04  0.10203602554E+04  0.47000000000E+01 0.  1.
         -5    1    5    5    0  503  0.14122914901E+02  0.67994424477E+01  0.16536627350E+02  0.23264547858E+02  0.47000000000E+01 0.  1.
<mgrwt>
<rscale>  0 0.27460679E+03</rscale>
<asrwt>0</asrwt>
<pdfrwt beam="1">  1        2 0.23985403E+00 0.27460679E+03</pdfrwt>
<pdfrwt beam="2">  1       -2 0.18603249E-02 0.27460679E+03</pdfrwt>
<totfact> 0.10911562E+04</totfact>
</mgrwt>
</event>
<event>
 9    1  0.2094635E-002  0.2748370E+03  0.7818608E-02  0.1098543E+00
         -1   -1    0    0    0  501 -0.00000000000E+00  0.00000000000E+00  0.63141037295E+01  0.63141037295E+01  0.00000000000E+00 0.  1.
          1   -1    0    0  501    0  0.00000000000E+00 -0.00000000000E+00 -0.29907392446E+04  0.29907392446E+04  0.00000000000E+00 0.  1.
         36    2    1    2    0    0  0.71054273576E-14  0.00000000000E+00 -0.29844251409E+04  0.29970533483E+04  0.27483695398E+03 0.  0.
         25    2    3    3    0    0  0.32022933202E+02  0.47888224010E+02 -0.17388858656E+04  0.17440922305E+04  0.12171649260E+03 0.  0.
         25    2    3    3    0    0 -0.32022933202E+02 -0.47888224010E+02 -0.12455392753E+04  0.12529611179E+04  0.12338851795E+03 0.  0.
          5    1    4    4  502    0  0.97072378615E+01 -0.41224106450E+02 -0.57612501602E+03  0.57769869439E+03  0.47000000000E+01 0. -1.
         -5    1    4    4    0  502  0.22315695341E+02  0.89112330460E+02 -0.11627608496E+04  0.11663935361E+04  0.47000000000E+01 0. -1.
          5    1    5    5  503    0  0.25146637934E+02  0.96548281876E+01 -0.79048006745E+02  0.83643568055E+02  0.47000000000E+01 0. -1.
         -5    1    5    5    0  503 -0.57169571136E+02 -0.57543052197E+02 -0.11664912685E+04  0.11693175498E+04  0.47000000000E+01 0. -1.
<mgrwt>
<rscale>  0 0.27483695E+03</rscale>
<asrwt>0</asrwt>
<pdfrwt beam="1">  1        1 0.46011259E+00 0.27483695E+03</pdfrwt>
<pdfrwt beam="2">  1       -1 0.97140298E-03 0.27483695E+03</pdfrwt>
<totfact> 0.14412162E+03</totfact>
</mgrwt>
</event>
<event>
 9    1  0.2094635E-002  0.2754139E+03  0.7818608E-02  0.1098220E+00
         -2   -1    0    0    0  501 -0.00000000000E+00  0.00000000000E+00  0.15978897591E+03  0.15978897591E+03  0.00000000000E+00 0.  1.
          2   -1    0    0  501    0  0.00000000000E+00 -0.00000000000E+00 -0.11867653878E+03  0.11867653878E+03  0.00000000000E+00 0.  1.
         36    2    1    2    0    0  0.00000000000E+00  0.71054273576E-14  0.41112437131E+02  0.27846551468E+03  0.27541388923E+03 0.  0.
         25    2    3    3    0    0  0.17229606352E+02  0.45413557914E+02  0.13073898248E+01  0.13761206447E+03  0.12874828326E+03 0.  0.
         25    2    3    3    0    0 -0.17229606352E+02 -0.45413557914E+02  0.39805047306E+02  0.14085345022E+03  0.12607934831E+03 0.  0.
          5    1    4    4  502    0  0.58308020189E+02 -0.78208005835E+01 -0.26503047803E+02  0.64695376055E+02  0.47000000000E+01 0. -1.
         -5    1    4    4    0  502 -0.41078413836E+02  0.53234358497E+02  0.27810437628E+02  0.72916688412E+02  0.47000000000E+01 0. -1.
          5    1    5    5  503    0  0.50773099596E+02 -0.39036590951E+02  0.32584607557E+02  0.72011177780E+02  0.47000000000E+01 0. -1.
         -5    1    5    5    0  503 -0.68002705948E+02 -0.63769669630E+01  0.72204397494E+01  0.68842272436E+02  0.47000000000E+01 0. -1.
<mgrwt>
<rscale>  0 0.27541389E+03</rscale>
<asrwt>0</asrwt>
<pdfrwt beam="1">  1        2 0.18257929E-01 0.27541389E+03</pdfrwt>
<pdfrwt beam="2">  1       -2 0.24582919E-01 0.27541389E+03</pdfrwt>
<totfact> 0.44944187E+03</totfact>
</mgrwt>
</event>
<event>
 9    1  0.2094635E-002  0.2749717E+03  0.7818608E-02  0.1098467E+00
         -3   -1    0    0    0  501 -0.00000000000E+00  0.00000000000E+00  0.41643719013E+02  0.41643719013E+02  0.00000000000E+00 0.  1.
          3   -1    0    0  501    0  0.00000000000E+00 -0.00000000000E+00 -0.45390644887E+03  0.45390644887E+03  0.00000000000E+00 0.  1.
         36    2    1    2    0    0 -0.71054273576E-14 -0.17763568394E-14 -0.41226272986E+03  0.49555016788E+03  0.27497165392E+03 0.  0.
         25    2    3    3    0    0  0.54458984494E+02 -0.37076531656E+01 -0.16333568033E+03  0.21272402093E+03  0.12487368389E+03 0.  0.
         25    2    3    3    0    0 -0.54458984494E+02  0.37076531656E+01 -0.24892704953E+03  0.28282614695E+03  0.12266387296E+03 0.  0.
          5    1    4    4  502    0  0.18842804563E+02 -0.53092420458E+02 -0.25603935250E+02  0.62060517998E+02  0.47000000000E+01 0.  1.
         -5    1    4    4    0  502  0.35616179931E+02  0.49384767292E+02 -0.13773174508E+03  0.15066350294E+03  0.47000000000E+01 0.  1.
          5    1    5    5  503    0  0.22708085311E+02  0.10283748339E+02 -0.37228543650E+01  0.25639076875E+02  0.47000000000E+01 0.  1.
         -5    1    5    5    0  503 -0.77167069804E+02 -0.65760951736E+01 -0.24520419516E+03  0.25718707008E+03  0.47000000000E+01 0.  1.
<mgrwt>
<rscale>  0 0.27497165E+03</rscale>
<asrwt>0</asrwt>
<pdfrwt beam="1">  1        3 0.69831761E-01 0.27497165E+03</pdfrwt>
<pdfrwt beam="2">  1       -3 0.64067260E-02 0.27497165E+03</pdfrwt>
<totfact> 0.77895257E+02</totfact>
</mgrwt>
</event>
<event>
 9    1  0.2094635E-002  0.2747715E+03  0.7818608E-02  0.1098579E+00
          2   -1    0    0  501    0  0.00000000000E+00  0.00000000000E+00  0.67957885808E+03  0.67957885808E+03  0.00000000000E+00 0.  1.
         -2   -1    0    0    0  501 -0.00000000000E+00 -0.00000000000E+00 -0.27774316522E+02  0.27774316522E+02  0.00000000000E+00 0.  1.
         36    2    1    2    0    0  0.00000000000E+00  0.71054273576E-14  0.65180454156E+03  0.70735317460E+03  0.27477145635E+03 0.  0.
         25    2    3    3    0    0  0.41460022019E+02 -0.39311396169E+02  0.37461137733E+03  0.39898554168E+03  0.12486576450E+03 0.  0.
         25    2    3    3    0    0 -0.41460022019E+02  0.39311396169E+02  0.27719316423E+03  0.30836763293E+03  0.12243458436E+03 0.  0.
          5    1    4    4  502    0  0.30674858315E+02  0.30322684268E+02  0.47480849686E+02  0.64318995645E+02  0.47000000000E+01 0. -1.
         -5    1    4    4    0  502  0.10785163704E+02 -0.69634080437E+02  0.32713052765E+03  0.33466654603E+03  0.47000000000E+01 0. -1.
          5    1    5    5  503    0 -0.44512708333E+02 -0.35639712402E+02  0.89979124733E+02  0.10662974815E+03  0.47000000000E+01 0. -1.
         -5    1    5    5    0  503  0.30526863146E+01  0.74951108571E+02  0.18721403950E+03  0.20173788478E+03  0.47000000000E+01 0. -1.
<mgrwt>
<rscale>  0 0.27477146E+03</rscale>
<asrwt>0</asrwt>
<pdfrwt beam="1">  1        2 0.10455058E+00 0.27477146E+03</pdfrwt>
<pdfrwt beam="2">  1       -2 0.42729723E-02 0.27477146E+03</pdfrwt>
<totfact> 0.10769355E+04</totfact>
</mgrwt>
</event>
<event>
 9    1  0.2094635E-002  0.2747856E+03  0.7818608E-02  0.1098572E+00
         -2   -1    0    0    0  501 -0.00000000000E+00  0.00000000000E+00  0.32112220632E+02  0.32112220632E+02  0.00000000000E+00 0.  1.
          2   -1    0    0  501    0  0.00000000000E+00 -0.00000000000E+00 -0.58783784830E+03  0.58783784830E+03  0.00000000000E+00 0.  1.
         36    2    1    2    0    0  0.35527136788E-14 -0.35527136788E-14 -0.55572562767E+03  0.61995006893E+03  0.27478557954E+03 0.  0.
         25    2    3    3    0    0 -0.30924119716E+02  0.15095667382E+02 -0.20999094059E+03  0.24827516734E+03  0.12790693192E+03 0.  0.
         25    2    3    3    0    0  0.30924119716E+02 -0.15095667382E+02 -0.34573468707E+03  0.37167490159E+03  0.13200597817E+03 0.  0.
          5    1    4    4  502    0 -0.73255724711E+01 -0.52141398123E+02 -0.13372294395E+03  0.14379257682E+03  0.47000000000E+01 0. -1.
         -5    1    4    4    0  502 -0.23598547245E+02  0.67237065505E+02 -0.76267996643E+02  0.10448259052E+03  0.47000000000E+01 0. -1.
          5    1    5    5  503    0  0.37656359926E+02 -0.42118189262E+02 -0.33753980094E+03  0.34226765919E+03  0.47000000000E+01 0.  1.
         -5    1    5    5    0  503 -0.67322402101E+01  0.27022521880E+02 -0.81948861393E+01  0.29407242405E+02  0.47000000000E+01 0.  1.
<mgrwt>
<rscale>  0 0.27478558E+03</rscale>
<asrwt>0</asrwt>
<pdfrwt beam="1">  1        2 0.90436584E-01 0.27478558E+03</pdfrwt>
<pdfrwt beam="2">  1       -2 0.49403421E-02 0.27478558E+03</pdfrwt>
<totfact> 0.10256058E+04</totfact>
</mgrwt>
</event>
<event>
 9    1  0.2094635E-002  0.2747958E+03  0.7818608E-02  0.1098566E+00
         -2   -1    0    0    0  501 -0.00000000000E+00  0.00000000000E+00  0.32150547088E+03  0.32150547088E+03  0.00000000000E+00 0. -1.
          2   -1    0    0  501    0  0.00000000000E+00 -0.00000000000E+00 -0.58718080761E+02  0.58718080761E+02  0.00000000000E+00 0. -1.
         36    2    1    2    0    0  0.00000000000E+00 -0.14210854715E-13  0.26278739012E+03  0.38022355164E+03  0.27479580932E+03 0.  0.
         25    2    3    3    0    0 -0.27221778809E+02 -0.22474317150E+02  0.18837489860E+03  0.22904622095E+03  0.12542307897E+03 0.  0.
         25    2    3    3    0    0  0.27221778809E+02  0.22474317150E+02  0.74412491522E+02  0.15117733069E+03  0.12677241911E+03 0.  0.
          5    1    4    4  502    0 -0.74430452280E+02 -0.32846098036E+02  0.12469838868E+03  0.14896488352E+03  0.47000000000E+01 0.  1.
         -5    1    4    4    0  502  0.47208673472E+02  0.10371780886E+02  0.63676509919E+02  0.80081337434E+02  0.47000000000E+01 0.  1.
          5    1    5    5  503    0  0.65628078279E+01  0.72799801318E+02  0.24600561383E+02  0.77266804896E+02  0.47000000000E+01 0.  1.
         -5    1    5    5    0  503  0.20658970981E+02 -0.50325484168E+02  0.49811930139E+02  0.73910525792E+02  0.47000000000E+01 0.  1.
<mgrwt>
<rscale>  0 0.27479581E+03</rscale>
<asrwt>0</asrwt>
<pdfrwt beam="1">  1        2 0.90335511E-02 0.27479581E+03</pdfrwt>
<pdfrwt beam="2">  1       -2 0.49462379E-01 0.27479581E+03</pdfrwt>
<totfact> 0.28486958E+03</totfact>
</mgrwt>
</event>
<event>
 9    1  0.2094635E-002  0.2754757E+03  0.7818608E-02  0.1098186E+00
         -2   -1    0    0    0  501 -0.00000000000E+00  0.00000000000E+00  0.58096132041E+02  0.58096132041E+02  0.00000000000E+00 0. -1.
          2   -1    0    0  501    0  0.00000000000E+00 -0.00000000000E+00 -0.32655717788E+03  0.32655717788E+03  0.00000000000E+00 0. -1.
         36    2    1    2    0    0 -0.14210854715E-13 -0.17763568394E-14 -0.26846104584E+03  0.38465330992E+03  0.27547565355E+03 0.  0.
         25    2    3    3    0    0  0.56413556992E+02  0.42097315744E+00 -0.10405939699E+03  0.17178528262E+03  0.12449561675E+03 0.  0.
         25    2    3    3    0    0 -0.56413556992E+02 -0.42097315744E+00 -0.16440164884E+03  0.21286802730E+03  0.12289112366E+03 0.  0.
          5    1    4    4  502    0 -0.19542164870E+02  0.10211967732E+02 -0.91251674775E+02  0.93995418197E+02  0.47000000000E+01 0.  1.
         -5    1    4    4    0  502  0.75955721862E+02 -0.97909945746E+01 -0.12807722219E+02  0.77789864422E+02  0.47000000000E+01 0.  1.
          5    1    5    5  503    0 -0.25902394325E+02  0.40801609368E+02 -0.93001221062E+01  0.49439737357E+02  0.47000000000E+01 0.  1.
         -5    1    5    5    0  503 -0.30511162667E+02 -0.41222582525E+02 -0.15510152674E+03  0.16342828994E+03  0.47000000000E+01 0.  1.
<mgrwt>
<rscale>  0 0.27547565E+03</rscale>
<asrwt>0</asrwt>
<pdfrwt beam="1">  1        2 0.50239565E-01 0.27547565E+03</pdfrwt>
<pdfrwt beam="2">  1       -2 0.89378665E-02 0.27547565E+03</pdfrwt>
<totfact> 0.78544955E+03</totfact>
</mgrwt>
</event>
<event>
 9    1  0.2094635E-002  0.2754790E+03  0.7818608E-02  0.1098184E+00
         -2   -1    0    0    0  501 -0.00000000000E+00  0.00000000000E+00  0.15514458133E+02  0.15514458133E+02  0.00000000000E+00 0.  1.
          2   -1    0    0  501    0  0.00000000000E+00 -0.00000000000E+00 -0.12228700547E+04  0.12228700547E+04  0.00000000000E+00 0.  1.
         36    2    1    2    0    0  0.35527136788E-14  0.00000000000E+00 -0.12073555965E+04  0.12383845128E+04  0.27547897390E+03 0.  0.
         25    2    3    3    0    0  0.10539954520E+02 -0.21925169635E+02 -0.91954050233E+03  0.92928491178E+03  0.13199965206E+03 0.  0.
         25    2    3    3    0    0 -0.10539954520E+02  0.21925169635E+02 -0.28781509420E+03  0.30909960101E+03  0.11006012534E+03 0.  0.
          5    1    4    4  502    0  0.45938533836E+02 -0.28015029431E+01 -0.82668398399E+03  0.82797747354E+03  0.47000000000E+01 0.  1.
         -5    1    4    4    0  502 -0.35398579315E+02 -0.19123666692E+02 -0.92856518340E+02  0.10130743824E+03  0.47000000000E+01 0.  1.
          5    1    5    5  503    0  0.70563966651E+01 -0.14032709094E+02 -0.25907972214E+03  0.25959796240E+03  0.47000000000E+01 0. -1.
         -5    1    5    5    0  503 -0.17596351186E+02  0.35957878729E+02 -0.28735372064E+02  0.49501638613E+02  0.47000000000E+01 0. -1.
<mgrwt>
<rscale>  0 0.27547897E+03</rscale>
<asrwt>0</asrwt>
<pdfrwt beam="1">  1        2 0.18813396E+00 0.27547897E+03</pdfrwt>
<pdfrwt beam="2">  1       -2 0.23868384E-02 0.27547897E+03</pdfrwt>
<totfact> 0.11529056E+04</totfact>
</mgrwt>
</event>
<event>
 9    1  0.2094635E-002  0.2755551E+03  0.7818608E-02  0.1098142E+00
         -1   -1    0    0    0  501 -0.00000000000E+00  0.00000000000E+00  0.17815133748E+03  0.17815133748E+03  0.00000000000E+00 0.  1.
          1   -1    0    0  501    0  0.00000000000E+00 -0.00000000000E+00 -0.10655353906E+03  0.10655353906E+03  0.00000000000E+00 0.  1.
         36    2    1    2    0    0  0.71054273576E-14  0.71054273576E-14  0.71597798420E+02  0.28470487654E+03  0.27555511606E+03 0.  0.
         25    2    3    3    0    0  0.39952389114E+02  0.20795814157E+02  0.51157296073E+02  0.14722683664E+03  0.13049909273E+03 0.  0.
         25    2    3    3    0    0 -0.39952389114E+02 -0.20795814157E+02  0.20440502347E+02  0.13747803990E+03  0.12827212494E+03 0.  0.
          5    1    4    4  502    0 -0.22242759902E+02 -0.14873900380E+02  0.68173951683E+02  0.73387675864E+02  0.47000000000E+01 0. -1.
         -5    1    4    4    0  502  0.62195149016E+02  0.35669714537E+02 -0.17016655611E+02  0.73839160779E+02  0.47000000000E+01 0. -1.
          5    1    5    5  503    0 -0.50990265385E+02 -0.38271777346E+02  0.63111134908E+02  0.89832296279E+02  0.47000000000E+01 0.  1.
         -5    1    5    5    0  503  0.11037876271E+02  0.17475963189E+02 -0.42670632562E+02  0.47645743621E+02  0.47000000000E+01 0.  1.
<mgrwt>
<rscale>  0 0.27555512E+03</rscale>
<asrwt>0</asrwt>
<pdfrwt beam="1">  1        1 0.16392852E-01 0.27555512E+03</pdfrwt>
<pdfrwt beam="2">  1       -1 0.27407898E-01 0.27555512E+03</pdfrwt>
<totfact> 0.39286177E+03</totfact>
</mgrwt>
</event>
<event>
 9    1  0.2094635E-002  0.2754858E+03  0.7818608E-02  0.1098180E+00
         -2   -1    0    0    0  501 -0.00000000000E+00  0.00000000000E+00  0.36536895943E+02  0.36536895943E+02  0.00000000000E+00 0.  1.
          2   -1    0    0  501    0  0.00000000000E+00 -0.00000000000E+00 -0.51928605655E+03  0.51928605655E+03  0.00000000000E+00 0.  1.
         36    2    1    2    0    0  0.71054273576E-14  0.17763568394E-14 -0.48274916061E+03  0.55582295249E+03  0.27548575726E+03 0.  0.
         25    2    3    3    0    0 -0.59972348883E+02 -0.14459500225E+02 -0.22785971712E+03  0.26656216993E+03  0.12381268101E+03 0.  0.
         25    2    3    3    0    0  0.59972348883E+02  0.14459500225E+02 -0.25488944349E+03  0.28926078256E+03  0.12205495543E+03 0.  0.
          5    1    4    4  502    0 -0.94386976616E+02 -0.27083885040E+02 -0.18834650556E+03  0.21245925336E+03  0.47000000000E+01 0. -1.
         -5    1    4    4    0  502  0.34414627733E+02  0.12624384815E+02 -0.39513211560E+02  0.54102916573E+02  0.47000000000E+01 0. -1.
          5    1    5    5  503    0  0.65607695220E+02  0.57081011294E+01 -0.46965590897E+02  0.81023507817E+02  0.47000000000E+01 0.  1.
         -5    1    5    5    0  503 -0.56353463373E+01  0.87513990958E+01 -0.20792385259E+03  0.20823727474E+03  0.47000000000E+01 0.  1.
<mgrwt>
<rscale>  0 0.27548576E+03</rscale>
<asrwt>0</asrwt>
<pdfrwt beam="1">  1        2 0.79890160E-01 0.27548576E+03</pdfrwt>
<pdfrwt beam="2">  1       -2 0.56210611E-02 0.27548576E+03</pdfrwt>
<totfact> 0.97052388E+03</totfact>
</mgrwt>
</event>
<event>
 9    1  0.2094635E-002  0.2755056E+03  0.7818608E-02  0.1098169E+00
          1   -1    0    0  501    0  0.00000000000E+00  0.00000000000E+00  0.39760708524E+03  0.39760708524E+03  0.00000000000E+00 0.  1.
         -1   -1    0    0    0  501 -0.00000000000E+00 -0.00000000000E+00 -0.47725101960E+02  0.47725101960E+02  0.00000000000E+00 0.  1.
         36    2    1    2    0    0  0.71054273576E-14 -0.71054273576E-14  0.34988198328E+03  0.44533218720E+03  0.27550563466E+03 0.  0.
         25    2    3    3    0    0  0.48035003190E+02 -0.12282452310E+02  0.19155095258E+03  0.23797758762E+03  0.13222459911E+03 0.  0.
         25    2    3    3    0    0 -0.48035003190E+02  0.12282452310E+02  0.15833103070E+03  0.20735459958E+03  0.12437441263E+03 0.  0.
          5    1    4    4  502    0  0.29782196712E+01  0.55699995299E+02  0.10481889773E+03  0.11882950219E+03  0.47000000000E+01 0.  1.
         -5    1    4    4    0  502  0.45056783519E+02 -0.67982447609E+02  0.86732054848E+02  0.11914808543E+03  0.47000000000E+01 0.  1.
          5    1    5    5  503    0  0.11276732733E+02  0.40405837339E+02  0.76102721371E+01  0.42892920560E+02  0.47000000000E+01 0. -1.
         -5    1    5    5    0  503 -0.59311735923E+02 -0.28123385029E+02  0.15072075856E+03  0.16446167902E+03  0.47000000000E+01 0. -1.
<mgrwt>
<rscale>  0 0.27550563E+03</rscale>
<asrwt>0</asrwt>
<pdfrwt beam="1">  1        1 0.61170319E-01 0.27550563E+03</pdfrwt>
<pdfrwt beam="2">  1       -1 0.73423236E-02 0.27550563E+03</pdfrwt>
<totfact> 0.59632612E+03</totfact>
</mgrwt>
</event>
<event>
 9    1  0.2094635E-002  0.2689163E+03  0.7818608E-02  0.1101901E+00
          2   -1    0    0  501    0  0.00000000000E+00  0.00000000000E+00  0.35605623481E+04  0.35605623481E+04  0.00000000000E+00 0. -1.
         -2   -1    0    0    0  501 -0.00000000000E+00 -0.00000000000E+00 -0.50775662425E+01  0.50775662425E+01  0.00000000000E+00 0. -1.
         36    2    1    2    0    0  0.00000000000E+00  0.35527136788E-14  0.35554847819E+04  0.35656399144E+04  0.26891627830E+03 0.  0.
         25    2    3    3    0    0  0.26242409047E+02 -0.34009912343E+01  0.24218919945E+04  0.24249079809E+04  0.11797309893E+03 0.  0.
         25    2    3    3    0    0 -0.26242409047E+02  0.34009912343E+01  0.11335927874E+04  0.11407319335E+04  0.12464551992E+03 0.  0.
          5    1    4    4  502    0  0.39814259262E+02 -0.40298036336E+02  0.62495183187E+03  0.62753166385E+03  0.47000000000E+01 0.  1.
         -5    1    4    4    0  502 -0.13571850216E+02  0.36897045102E+02  0.17969401626E+04  0.17973763170E+04  0.47000000000E+01 0.  1.
          5    1    5    5  503    0  0.39055694760E+02  0.32165312360E+02  0.32077256586E+03  0.32477235661E+03  0.47000000000E+01 0. -1.
         -5    1    5    5    0  503 -0.65298103807E+02 -0.28764321125E+02  0.81282022155E+03  0.81595957687E+03  0.47000000000E+01 0. -1.
<mgrwt>
<rscale>  0 0.26891628E+03</rscale>
<asrwt>0</asrwt>
<pdfrwt beam="1">  1        2 0.54777683E+00 0.26891628E+03</pdfrwt>
<pdfrwt beam="2">  1       -2 0.78116688E-03 0.26891628E+03</pdfrwt>
<totfact> 0.28213554E+03</totfact>
</mgrwt>
</event>
<event>
 9    1  0.2094635E-002  0.2758004E+03  0.7818608E-02  0.1098005E+00
         -2   -1    0    0    0  501 -0.00000000000E+00  0.00000000000E+00  0.11746149129E+02  0.11746149129E+02  0.00000000000E+00 0.  1.
          2   -1    0    0  501    0  0.00000000000E+00 -0.00000000000E+00 -0.16189527095E+04  0.16189527095E+04  0.00000000000E+00 0.  1.
         36    2    1    2    0    0  0.00000000000E+00 -0.14210854715E-13 -0.16072065603E+04  0.16306988586E+04  0.27580036227E+03 0.  0.
         25    2    3    3    0    0 -0.38836872582E+01  0.58575343480E+02 -0.81147685158E+03  0.82323088866E+03  0.12557173851E+03 0.  0.
         25    2    3    3    0    0  0.38836872582E+01 -0.58575343480E+02 -0.79572970875E+03  0.80746796992E+03  0.12398628623E+03 0.  0.
          5    1    4    4  502    0  0.11557873412E+02 -0.35779460486E+02 -0.14301559463E+03  0.14795034484E+03  0.47000000000E+01 0. -1.
         -5    1    4    4    0  502 -0.15441560671E+02  0.94354803967E+02 -0.66846125695E+03  0.67528054382E+03  0.47000000000E+01 0. -1.
          5    1    5    5  503    0  0.55917730917E+02 -0.22171609217E+02 -0.56164922653E+03  0.56488079853E+03  0.47000000000E+01 0.  1.
         -5    1    5    5    0  503 -0.52034043658E+02 -0.36403734263E+02 -0.23408048222E+03  0.24258717139E+03  0.47000000000E+01 0.  1.
<mgrwt>
<rscale>  0 0.27580036E+03</rscale>
<asrwt>0</asrwt>
<pdfrwt beam="1">  1        2 0.24906961E+00 0.27580036E+03</pdfrwt>
<pdfrwt beam="2">  1       -2 0.18071001E-02 0.27580036E+03</pdfrwt>
<totfact> 0.10584178E+04</totfact>
</mgrwt>
</event>
<event>
 9    1  0.2094635E-002  0.2744883E+03  0.7818608E-02  0.1098738E+00
         -2   -1    0    0    0  501 -0.00000000000E+00  0.00000000000E+00  0.69043119137E+02  0.69043119137E+02  0.00000000000E+00 0. -1.
          2   -1    0    0  501    0  0.00000000000E+00 -0.00000000000E+00 -0.27281445650E+03  0.27281445650E+03  0.00000000000E+00 0. -1.
         36    2    1    2    0    0  0.00000000000E+00  0.00000000000E+00 -0.20377133736E+03  0.34185757563E+03  0.27448833142E+03 0.  0.
         25    2    3    3    0    0  0.25372564607E+02  0.36368852555E+02 -0.51753236263E+02  0.14237637491E+03  0.12500469671E+03 0.  0.
         25    2    3    3    0    0 -0.25372564607E+02 -0.36368852555E+02 -0.15201810109E+03  0.19948120072E+03  0.12131276070E+03 0.  0.
          5    1    4    4  502    0  0.64054592278E+02  0.54131416983E+02 -0.13735013581E+02  0.85111348800E+02  0.47000000000E+01 0.  1.
         -5    1    4    4    0  502 -0.38682027671E+02 -0.17762564427E+02 -0.38018222683E+02  0.57265026113E+02  0.47000000000E+01 0.  1.
          5    1    5    5  503    0 -0.14075699800E+02 -0.77293453961E+02 -0.12858795793E+03  0.15076258248E+03  0.47000000000E+01 0. -1.
         -5    1    5    5    0  503 -0.11296864807E+02  0.40924601406E+02 -0.23430143162E+02  0.48718618241E+02  0.47000000000E+01 0. -1.
<mgrwt>
<rscale>  0 0.27448833E+03</rscale>
<asrwt>0</asrwt>
<pdfrwt beam="1">  1        2 0.41971455E-01 0.27448833E+03</pdfrwt>
<pdfrwt beam="2">  1       -2 0.10622018E-01 0.27448833E+03</pdfrwt>
<totfact> 0.72467494E+03</totfact>
</mgrwt>
</event>
<event>
 9    1  0.2094635E-002  0.2745280E+03  0.7818608E-02  0.1098716E+00
         -2   -1    0    0    0  501 -0.00000000000E+00  0.00000000000E+00  0.27937161042E+02  0.27937161042E+02  0.00000000000E+00 0.  1.
          2   -1    0    0  501    0  0.00000000000E+00 -0.00000000000E+00 -0.67442071032E+03  0.67442071032E+03  0.00000000000E+00 0.  1.
         36    2    1    2    0    0 -0.17763568394E-14  0.71054273576E-14 -0.64648354928E+03  0.70235787137E+03  0.27452795846E+03 0.  0.
         25    2    3    3    0    0  0.69814283260E+01  0.47089365185E+02 -0.25165846147E+03  0.28705589115E+03  0.12962621172E+03 0.  0.
         25    2    3    3    0    0 -0.69814283260E+01 -0.47089365185E+02 -0.39482508782E+03  0.41530198021E+03  0.11967763427E+03 0.  0.
          5    1    4    4  502    0  0.16731092758E+02  0.80469036905E+02 -0.23341293437E+03  0.24750531973E+03  0.47000000000E+01 0. -1.
         -5    1    4    4    0  502 -0.97496644319E+01 -0.33379671720E+02 -0.18245527097E+02  0.39550571421E+02  0.47000000000E+01 0. -1.
          5    1    5    5  503    0 -0.33109219144E+02  0.31195738167E+02 -0.15667410663E+03  0.16321231620E+03  0.47000000000E+01 0.  1.
         -5    1    5    5    0  503  0.26127790818E+02 -0.78285103352E+02 -0.23815098119E+03  0.25208966401E+03  0.47000000000E+01 0.  1.
<mgrwt>
<rscale>  0 0.27452796E+03</rscale>
<asrwt>0</asrwt>
<pdfrwt beam="1">  1        2 0.10375703E+00 0.27452796E+03</pdfrwt>
<pdfrwt beam="2">  1       -2 0.42980249E-02 0.27452796E+03</pdfrwt>
<totfact> 0.10772548E+04</totfact>
</mgrwt>
</event>
<event>
 9    1  0.2094635E-002  0.2751305E+03  0.7818608E-02  0.1098379E+00
         -2   -1    0    0    0  501 -0.00000000000E+00  0.00000000000E+00  0.36048821508E+02  0.36048821508E+02  0.00000000000E+00 0. -1.
          2   -1    0    0  501    0  0.00000000000E+00 -0.00000000000E+00 -0.52496006652E+03  0.52496006652E+03  0.00000000000E+00 0. -1.
         36    2    1    2    0    0 -0.71054273576E-14  0.00000000000E+00 -0.48891124501E+03  0.56100888803E+03  0.27513045442E+03 0.  0.
         25    2    3    3    0    0 -0.25703598361E+02 -0.12167531056E+00 -0.36226188885E+03  0.38345039376E+03  0.12304405140E+03 0.  0.
         25    2    3    3    0    0  0.25703598361E+02  0.12167531056E+00 -0.12664935616E+03  0.17755849427E+03  0.12176317053E+03 0.  0.
          5    1    4    4  502    0 -0.65688250144E+02  0.27914917846E+02 -0.26543723861E+03  0.27490581384E+03  0.47000000000E+01 0. -1.
         -5    1    4    4    0  502  0.39984651783E+02 -0.28036593156E+02 -0.96824650240E+02  0.10854457991E+03  0.47000000000E+01 0. -1.
          5    1    5    5  503    0 -0.48280696566E+02  0.10193388823E+02 -0.47701547500E+02  0.68792866422E+02  0.47000000000E+01 0.  1.
         -5    1    5    5    0  503  0.73984294927E+02 -0.10071713512E+02 -0.78947808662E+02  0.10876562785E+03  0.47000000000E+01 0.  1.
<mgrwt>
<rscale>  0 0.27513045E+03</rscale>
<asrwt>0</asrwt>
<pdfrwt beam="1">  1        2 0.80763085E-01 0.27513045E+03</pdfrwt>
<pdfrwt beam="2">  1       -2 0.55459727E-02 0.27513045E+03</pdfrwt>
<totfact> 0.97856258E+03</totfact>
</mgrwt>
</event>
<event>
 9    1  0.2094635E-002  0.2748228E+03  0.7818608E-02  0.1098551E+00
          2   -1    0    0  501    0  0.00000000000E+00  0.00000000000E+00  0.82666043582E+02  0.82666043582E+02  0.00000000000E+00 0. -1.
         -2   -1    0    0    0  501 -0.00000000000E+00 -0.00000000000E+00 -0.22841169130E+03  0.22841169130E+03  0.00000000000E+00 0. -1.
         36    2    1    2    0    0  0.71054273576E-14  0.00000000000E+00 -0.14574564772E+03  0.31107773489E+03  0.27482278529E+03 0.  0.
         25    2    3    3    0    0  0.49937752309E+02  0.14783629917E+02 -0.67870890527E+02  0.15718897521E+03  0.13186956179E+03 0.  0.
         25    2    3    3    0    0 -0.49937752309E+02 -0.14783629917E+02 -0.77874757195E+02  0.15388875968E+03  0.12208578020E+03 0.  0.
          5    1    4    4  502    0 -0.67273662511E+01  0.78471803969E+01  0.36449362645E+02  0.38176979112E+02  0.47000000000E+01 0.  1.
         -5    1    4    4    0  502  0.56665118560E+02  0.69364495204E+01 -0.10432025317E+03  0.11901199610E+03  0.47000000000E+01 0.  1.
          5    1    5    5  503    0  0.24685354430E+02  0.34299368677E+02 -0.17516423089E+02  0.45986177193E+02  0.47000000000E+01 0. -1.
         -5    1    5    5    0  503 -0.74623106739E+02 -0.49082998595E+02 -0.60358334106E+02  0.10790258248E+03  0.47000000000E+01 0. -1.
<mgrwt>
<rscale>  0 0.27482279E+03</rscale>
<asrwt>0</asrwt>
<pdfrwt beam="1">  1        2 0.12717853E-01 0.27482279E+03</pdfrwt>
<pdfrwt beam="2">  1       -2 0.35140259E-01 0.27482279E+03</pdfrwt>
<totfact> 0.36096596E+03</totfact>
</mgrwt>
</event>
<event>
 9    1  0.2094635E-002  0.2792828E+03  0.7818608E-02  0.1096081E+00
         -3   -1    0    0    0  501 -0.00000000000E+00  0.00000000000E+00  0.47019247658E+02  0.47019247658E+02  0.00000000000E+00 0.  1.
          3   -1    0    0  501    0  0.00000000000E+00 -0.00000000000E+00 -0.41471787710E+03  0.41471787710E+03  0.00000000000E+00 0.  1.
         36    2    1    2    0    0  0.00000000000E+00 -0.71054273576E-14 -0.36769862944E+03  0.46173712476E+03  0.27928281416E+03 0.  0.
         25    2    3    3    0    0  0.49424234574E+02  0.42625786494E+02 -0.20034166478E+03  0.24418460630E+03  0.12340837357E+03 0.  0.
         25    2    3    3    0    0 -0.49424234574E+02 -0.42625786494E+02 -0.16735696466E+03  0.21755251846E+03  0.12272339643E+03 0.  0.
          5    1    4    4  502    0  0.27555112554E+02  0.20035037231E+02  0.64264056235E+01  0.34986792279E+02  0.47000000000E+01 0. -1.
         -5    1    4    4    0  502  0.21869122020E+02  0.22590749264E+02 -0.20676807041E+03  0.20919781402E+03  0.47000000000E+01 0. -1.
          5    1    5    5  503    0 -0.43154333513E+01  0.33914200236E+02 -0.10051251842E+03  0.10627159688E+03  0.47000000000E+01 0. -1.
         -5    1    5    5    0  503 -0.45108801223E+02 -0.76539986730E+02 -0.66844446235E+02  0.11128092159E+03  0.47000000000E+01 0. -1.
<mgrwt>
<rscale>  0 0.27928281E+03</rscale>
<asrwt>0</asrwt>
<pdfrwt beam="1">  1        3 0.63802748E-01 0.27928281E+03</pdfrwt>
<pdfrwt beam="2">  1       -3 0.72337307E-02 0.27928281E+03</pdfrwt>
<totfact> 0.77553578E+02</totfact>
</mgrwt>
</event>
<event>
 9    1  0.2094635E-002  0.2764699E+03  0.7818608E-02  0.1097633E+00
         -1   -1    0    0    0  501 -0.00000000000E+00  0.00000000000E+00  0.42516771636E+02  0.42516771636E+02  0.00000000000E+00 0. -1.
          1   -1    0    0  501    0  0.00000000000E+00 -0.00000000000E+00 -0.44944370584E+03  0.44944370584E+03  0.00000000000E+00 0. -1.
         36    2    1    2    0    0  0.00000000000E+00  0.71054273576E-14 -0.40692693420E+03  0.49196047748E+03  0.27646985662E+03 0.  0.
         25    2    3    3    0    0  0.17343836830E+02 -0.49019561442E+02 -0.11982621895E+03  0.17462113101E+03  0.11588999340E+03 0.  0.
         25    2    3    3    0    0 -0.17343836830E+02  0.49019561442E+02 -0.28710071526E+03  0.31733934646E+03  0.12479468751E+03 0.  0.
          5    1    4    4  502    0  0.16903686171E+02  0.61647884601E+01  0.18124117845E+02  0.25967534934E+02  0.47000000000E+01 0. -1.
         -5    1    4    4    0  502  0.44015065922E+00 -0.55184349902E+02 -0.13795033679E+03  0.14865359608E+03  0.47000000000E+01 0. -1.
          5    1    5    5  503    0 -0.65964130336E+02  0.43421668605E+00 -0.13276122334E+03  0.14832089353E+03  0.47000000000E+01 0. -1.
         -5    1    5    5    0  503  0.48620293506E+02  0.48585344756E+02 -0.15433949192E+03  0.16901845293E+03  0.47000000000E+01 0. -1.
<mgrwt>
<rscale>  0 0.27646986E+03</rscale>
<asrwt>0</asrwt>
<pdfrwt beam="1">  1        1 0.69145191E-01 0.27646986E+03</pdfrwt>
<pdfrwt beam="2">  1       -1 0.65410413E-02 0.27646986E+03</pdfrwt>
<totfact> 0.60663193E+03</totfact>
</mgrwt>
</event>
<event>
 9    1  0.2094635E-002  0.2753166E+03  0.7818608E-02  0.1098275E+00
          1   -1    0    0  501    0  0.00000000000E+00  0.00000000000E+00  0.44183036478E+02  0.44183036478E+02  0.00000000000E+00 0. -1.
         -1   -1    0    0    0  501 -0.00000000000E+00 -0.00000000000E+00 -0.42889319800E+03  0.42889319800E+03  0.00000000000E+00 0. -1.
         36    2    1    2    0    0  0.00000000000E+00  0.00000000000E+00 -0.38471016152E+03  0.47307623448E+03  0.27531657278E+03 0.  0.
         25    2    3    3    0    0 -0.22108015257E+02  0.34145539572E+02 -0.11952777276E+03  0.17679988763E+03  0.12376037166E+03 0.  0.
         25    2    3    3    0    0  0.22108015257E+02 -0.34145539572E+02 -0.26518238876E+03  0.29627634685E+03  0.12571114581E+03 0.  0.
          5    1    4    4  502    0 -0.16080214283E+02  0.25510055902E+02 -0.14534995921E+03  0.14851948319E+03  0.47000000000E+01 0. -1.
         -5    1    4    4    0  502 -0.60278009735E+01  0.86354836700E+01  0.25822186446E+02  0.28280404446E+02  0.47000000000E+01 0. -1.
          5    1    5    5  503    0  0.53251298225E+02 -0.17210755693E+02 -0.41695385365E+02  0.69946451196E+02  0.47000000000E+01 0. -1.
         -5    1    5    5    0  503 -0.31143282968E+02 -0.16934783880E+02 -0.22348700340E+03  0.22632989565E+03  0.47000000000E+01 0. -1.
<mgrwt>
<rscale>  0 0.27531657E+03</rscale>
<asrwt>0</asrwt>
<pdfrwt beam="1">  1        1 0.67973901E-02 0.27531657E+03</pdfrwt>
<pdfrwt beam="2">  1       -1 0.65983570E-01 0.27531657E+03</pdfrwt>
<totfact> 0.26168584E+03</totfact>
</mgrwt>
</event>
<event>
 9    1  0.2094635E-002  0.2745736E+03  0.7818608E-02  0.1098690E+00
          1   -1    0    0  501    0  0.00000000000E+00  0.00000000000E+00  0.14403293629E+04  0.14403293629E+04  0.00000000000E+00 0. -1.
         -1   -1    0    0    0  501 -0.00000000000E+00 -0.00000000000E+00 -0.13085662495E+02  0.13085662495E+02  0.00000000000E+00 0. -1.
         36    2    1    2    0    0  0.14210854715E-13 -0.35527136788E-14  0.14272437004E+04  0.14534150254E+04  0.27457358886E+03 0.  0.
         25    2    3    3    0    0  0.67447081490E+02 -0.28225415099E+02  0.87191672607E+03  0.88289227087E+03  0.11795847535E+03 0.  0.
         25    2    3    3    0    0 -0.67447081490E+02  0.28225415099E+02  0.55532697431E+03  0.57052275450E+03  0.10845451648E+03 0.  0.
          5    1    4    4  502    0 -0.26250125630E+02 -0.14705066008E+00  0.40183186746E+03  0.40271581845E+03  0.47000000000E+01 0. -1.
         -5    1    4    4    0  502  0.93697207120E+02 -0.28078364439E+02  0.47008485861E+03  0.48017645243E+03  0.47000000000E+01 0. -1.
          5    1    5    5  503    0  0.27170952268E+02  0.15299783929E+02  0.87085927259E+02  0.92619613268E+02  0.47000000000E+01 0. -1.
         -5    1    5    5    0  503 -0.94618033758E+02  0.12925631170E+02  0.46824104705E+03  0.47790314123E+03  0.47000000000E+01 0. -1.
<mgrwt>
<rscale>  0 0.27457359E+03</rscale>
<asrwt>0</asrwt>
<pdfrwt beam="1">  1        1 0.22158901E+00 0.27457359E+03</pdfrwt>
<pdfrwt beam="2">  1       -1 0.20131800E-02 0.27457359E+03</pdfrwt>
<totfact> 0.53256936E+03</totfact>
</mgrwt>
</event>
<event>
 9    1  0.2094635E-002  0.2743196E+03  0.7818608E-02  0.1098833E+00
          2   -1    0    0  501    0  0.00000000000E+00  0.00000000000E+00  0.71783123043E+03  0.71783123043E+03  0.00000000000E+00 0. -1.
         -2   -1    0    0    0  501 -0.00000000000E+00 -0.00000000000E+00 -0.26207841424E+02  0.26207841424E+02  0.00000000000E+00 0. -1.
         36    2    1    2    0    0  0.00000000000E+00  0.00000000000E+00  0.69162338901E+03  0.74403907186E+03  0.27431957317E+03 0.  0.
         25    2    3    3    0    0  0.35711500460E+02  0.24894873810E+02  0.27445196252E+03  0.30476874536E+03  0.12516006714E+03 0.  0.
         25    2    3    3    0    0 -0.35711500460E+02 -0.24894873810E+02  0.41717142648E+03  0.43927032650E+03  0.13050423234E+03 0.  0.
          5    1    4    4  502    0  0.62127912143E+02  0.45228359392E+01  0.26120148001E+03  0.26856775062E+03  0.47000000000E+01 0. -1.
         -5    1    4    4    0  502 -0.26416411682E+02  0.20372037871E+02  0.13250482509E+02  0.36200994736E+02  0.47000000000E+01 0. -1.
          5    1    5    5  503    0 -0.63720120065E+02 -0.56767229088E+02  0.34490292839E+03  0.35533490120E+03  0.47000000000E+01 0. -1.
         -5    1    5    5    0  503  0.28008619605E+02  0.31872355278E+02  0.72268498098E+02  0.83935425301E+02  0.47000000000E+01 0. -1.
<mgrwt>
<rscale>  0 0.27431957E+03</rscale>
<asrwt>0</asrwt>
<pdfrwt beam="1">  1        2 0.11043556E+00 0.27431957E+03</pdfrwt>
<pdfrwt beam="2">  1       -2 0.40319761E-02 0.27431957E+03</pdfrwt>
<totfact> 0.10997778E+04</totfact>
</mgrwt>
</event>
<event>
 9    1  0.2094635E-002  0.2742211E+03  0.7818608E-02  0.1098888E+00
          2   -1    0    0  501    0  0.00000000000E+00  0.00000000000E+00  0.21991286831E+02  0.21991286831E+02  0.00000000000E+00 0. -1.
         -2   -1    0    0    0  501 -0.00000000000E+00 -0.00000000000E+00 -0.85485245093E+03  0.85485245093E+03  0.00000000000E+00 0. -1.
         36    2    1    2    0    0 -0.71054273576E-14  0.71054273576E-14 -0.83286116410E+03  0.87684373776E+03  0.27422111842E+03 0.  0.
         25    2    3    3    0    0  0.54231926947E+02  0.58345771282E+02 -0.34724376337E+03  0.36845682847E+03  0.94004639899E+02 0.  0.
         25    2    3    3    0    0 -0.54231926947E+02 -0.58345771282E+02 -0.48561740073E+03  0.50838690929E+03  0.12762311200E+03 0.  0.
          5    1    4    4  502    0  0.27774392494E+02  0.43241740666E+02 -0.32817899177E+03  0.33221198903E+03  0.47000000000E+01 0.  1.
         -5    1    4    4    0  502  0.26457534453E+02  0.15104030616E+02 -0.19064771596E+02  0.36244839443E+02  0.47000000000E+01 0.  1.
          5    1    5    5  503    0 -0.81028298853E+02 -0.26145409988E+02 -0.43120725383E+03  0.43955767930E+03  0.47000000000E+01 0. -1.
         -5    1    5    5    0  503  0.26796371907E+02 -0.32200361294E+02 -0.54410146904E+02  0.68829229989E+02  0.47000000000E+01 0. -1.
<mgrwt>
<rscale>  0 0.27422112E+03</rscale>
<asrwt>0</asrwt>
<pdfrwt beam="1">  1        2 0.33832750E-02 0.27422112E+03</pdfrwt>
<pdfrwt beam="2">  1       -2 0.13151576E+00 0.27422112E+03</pdfrwt>
<totfact> 0.11778514E+03</totfact>
</mgrwt>
</event>
<event>
 9    1  0.2094635E-002  0.2768784E+03  0.7818608E-02  0.1097406E+00
         -1   -1    0    0    0  501 -0.00000000000E+00  0.00000000000E+00  0.23794533468E+02  0.23794533468E+02  0.00000000000E+00 0. -1.
          1   -1    0    0  501    0  0.00000000000E+00 -0.00000000000E+00 -0.80545434954E+03  0.80545434954E+03  0.00000000000E+00 0. -1.
         36    2    1    2    0    0  0.00000000000E+00 -0.35527136788E-14 -0.78165981607E+03  0.82924888301E+03  0.27687838830E+03 0.  0.
         25    2    3    3    0    0  0.42867576234E+02 -0.26889267155E+02 -0.23972555644E+03  0.27039249582E+03  0.11438136913E+03 0.  0.
         25    2    3    3    0    0 -0.42867576234E+02  0.26889267155E+02 -0.54193425964E+03  0.55885638719E+03  0.12675589911E+03 0.  0.
          5    1    4    4  502    0 -0.22158757555E+01  0.89265819906E+00 -0.20884265069E+03  0.20890919006E+03  0.47000000000E+01 0.  1.
         -5    1    4    4    0  502  0.45083451990E+02 -0.27781925354E+02 -0.30882905748E+02  0.61483305760E+02  0.47000000000E+01 0.  1.
          5    1    5    5  503    0 -0.20175923841E+02  0.55605153501E+02 -0.10694003349E+03  0.12229988455E+03  0.47000000000E+01 0. -1.
         -5    1    5    5    0  503 -0.22691652393E+02 -0.28715886346E+02 -0.43499422614E+03  0.43655650264E+03  0.47000000000E+01 0. -1.
<mgrwt>
<rscale>  0 0.27687839E+03</rscale>
<asrwt>0</asrwt>
<pdfrwt beam="1">  1        1 0.12391607E+00 0.27687839E+03</pdfrwt>
<pdfrwt beam="2">  1       -1 0.36606971E-02 0.27687839E+03</pdfrwt>
<totfact> 0.63890234E+03</totfact>
</mgrwt>
</event>
<event>
 9    1  0.2094635E-002  0.2726123E+03  0.7818608E-02  0.1099794E+00
         -2   -1    0    0    0  501 -0.00000000000E+00  0.00000000000E+00  0.33706736888E+02  0.33706736888E+02  0.00000000000E+00 0.  1.
          2   -1    0    0  501    0  0.00000000000E+00 -0.00000000000E+00 -0.55120624727E+03  0.55120624727E+03  0.00000000000E+00 0.  1.
         36    2    1    2    0    0  0.00000000000E+00 -0.35527136788E-14 -0.51749951038E+03  0.58491298416E+03  0.27261228107E+03 0.  0.
         25    2    3    3    0    0  0.25904519675E+02  0.11810938270E+02 -0.15981009467E+03  0.20677332874E+03  0.12808356927E+03 0.  0.
         25    2    3    3    0    0 -0.25904519675E+02 -0.11810938270E+02 -0.35768941571E+03  0.37813965542E+03  0.11932031884E+03 0.  0.
          5    1    4    4  502    0  0.65371691421E+01  0.26937179364E+02  0.13835434110E+02  0.31334572752E+02  0.47000000000E+01 0. -1.
         -5    1    4    4    0  502  0.19367350533E+02 -0.15126241094E+02 -0.17364552878E+03  0.17543875599E+03  0.47000000000E+01 0. -1.
          5    1    5    5  503    0  0.90835035650E+01 -0.57679197750E+02 -0.23920701602E+03  0.24627522491E+03  0.47000000000E+01 0. -1.
         -5    1    5    5    0  503 -0.34988023240E+02  0.45868259480E+02 -0.11848239969E+03  0.13186443051E+03  0.47000000000E+01 0. -1.
<mgrwt>
<rscale>  0 0.27261228E+03</rscale>
<asrwt>0</asrwt>
<pdfrwt beam="1">  1        2 0.84800955E-01 0.27261228E+03</pdfrwt>
<pdfrwt beam="2">  1       -2 0.51856522E-02 0.27261228E+03</pdfrwt>
<totfact> 0.10254177E+04</totfact>
</mgrwt>
</event>
<event>
 9    1  0.2094635E-002  0.2740076E+03  0.7818608E-02  0.1099008E+00
          2   -1    0    0  501    0  0.00000000000E+00  0.00000000000E+00  0.12321692796E+03  0.12321692796E+03  0.00000000000E+00 0. -1.
         -2   -1    0    0    0  501 -0.00000000000E+00 -0.00000000000E+00 -0.15233328563E+03  0.15233328563E+03  0.00000000000E+00 0. -1.
         36    2    1    2    0    0  0.00000000000E+00  0.00000000000E+00 -0.29116357676E+02  0.27555021359E+03  0.27400758735E+03 0.  0.
         25    2    3    3    0    0 -0.18985173218E+02  0.52367196175E+00  0.34377203543E+02  0.13369319669E+03  0.12779423963E+03 0.  0.
         25    2    3    3    0    0  0.18985173218E+02 -0.52367196175E+00 -0.63493561219E+02  0.14185701690E+03  0.12542435925E+03 0.  0.
          5    1    4    4  502    0 -0.29720546389E+02 -0.26870792498E+02 -0.38001382275E+02  0.55421524897E+02  0.47000000000E+01 0. -1.
         -5    1    4    4    0  502  0.10735373171E+02  0.27394464460E+02  0.72378585817E+02  0.78271671792E+02  0.47000000000E+01 0. -1.
          5    1    5    5  503    0  0.66909256022E+02 -0.22036021878E+02 -0.52502490314E+02  0.87983159132E+02  0.47000000000E+01 0.  1.
         -5    1    5    5    0  503 -0.47924082804E+02  0.21512349917E+02 -0.10991070905E+02  0.53873857772E+02  0.47000000000E+01 0.  1.
<mgrwt>
<rscale>  0 0.27400759E+03</rscale>
<asrwt>0</asrwt>
<pdfrwt beam="1">  1        2 0.18956451E-01 0.27400759E+03</pdfrwt>
<pdfrwt beam="2">  1       -2 0.23435890E-01 0.27400759E+03</pdfrwt>
<totfact> 0.46790637E+03</totfact>
</mgrwt>
</event>
<event>
 9    1  0.2094635E-002  0.2748261E+03  0.7818608E-02  0.1098549E+00
         -4   -1    0    0    0  501 -0.00000000000E+00  0.00000000000E+00  0.10846745340E+03  0.10846745340E+03  0.00000000000E+00 0.  1.
          4   -1    0    0  501    0  0.00000000000E+00 -0.00000000000E+00 -0.17408310007E+03  0.17408310007E+03  0.00000000000E+00 0.  1.
         36    2    1    2    0    0  0.00000000000E+00  0.35527136788E-14 -0.65615646669E+02  0.28255055347E+03  0.27482613081E+03 0.  0.
         25    2    3    3    0    0  0.14344597287E+02  0.61795979516E+01 -0.68091669858E+01  0.14374342893E+03  0.14273000281E+03 0.  0.
         25    2    3    3    0    0 -0.14344597287E+02 -0.61795979516E+01 -0.58806479683E+02  0.13880712454E+03  0.12476081463E+03 0.  0.
          5    1    4    4  502    0 -0.43116411457E+02  0.43937493228E+02 -0.33016125237E+02  0.70012018780E+02  0.47000000000E+01 0. -1.
         -5    1    4    4    0  502  0.57461008743E+02 -0.37757895276E+02  0.26206958251E+02  0.73731410147E+02  0.47000000000E+01 0. -1.
          5    1    5    5  503    0  0.43911731501E+02 -0.34298430949E+02 -0.81430909007E+01  0.56506835502E+02  0.47000000000E+01 0.  1.
         -5    1    5    5    0  503 -0.58256328787E+02  0.28118832998E+02 -0.50663388782E+02  0.82300289039E+02  0.47000000000E+01 0.  1.
<mgrwt>
<rscale>  0 0.27482613E+03</rscale>
<asrwt>0</asrwt>
<pdfrwt beam="1">  1        4 0.26782015E-01 0.27482613E+03</pdfrwt>
<pdfrwt beam="2">  1       -4 0.16687301E-01 0.27482613E+03</pdfrwt>
<totfact> 0.77131387E+02</totfact>
</mgrwt>
</event>
<event>
 9    1  0.2094635E-002  0.2747765E+03  0.7818608E-02  0.1098577E+00
         -2   -1    0    0    0  501 -0.00000000000E+00  0.00000000000E+00  0.19734366713E+02  0.19734366713E+02  0.00000000000E+00 0.  1.
          2   -1    0    0  501    0  0.00000000000E+00 -0.00000000000E+00 -0.95647989616E+03  0.95647989616E+03  0.00000000000E+00 0.  1.
         36    2    1    2    0    0 -0.35527136788E-14  0.35527136788E-14 -0.93674552945E+03  0.97621426287E+03  0.27477645477E+03 0.  0.
         25    2    3    3    0    0 -0.18510813550E+02  0.27204865371E+02 -0.61859991959E+03  0.63238854707E+03  0.12714817747E+03 0.  0.
         25    2    3    3    0    0  0.18510813550E+02 -0.27204865371E+02 -0.31814560986E+03  0.34382571580E+03  0.12616155855E+03 0.  0.
          5    1    4    4  502    0 -0.70646897651E+02  0.20904608618E+02 -0.27368685906E+03  0.28346882303E+03  0.47000000000E+01 0.  1.
         -5    1    4    4    0  502  0.52136084101E+02  0.63002567531E+01 -0.34491306053E+03  0.34891972404E+03  0.47000000000E+01 0.  1.
          5    1    5    5  503    0  0.26883272727E+01  0.21807740716E+02 -0.10011940090E+01  0.22492155257E+02  0.47000000000E+01 0.  1.
         -5    1    5    5    0  503  0.15822486277E+02 -0.49012606087E+02 -0.31714441585E+03  0.32133356054E+03  0.47000000000E+01 0.  1.
<mgrwt>
<rscale>  0 0.27477645E+03</rscale>
<asrwt>0</asrwt>
<pdfrwt beam="1">  1        2 0.14715079E+00 0.27477645E+03</pdfrwt>
<pdfrwt beam="2">  1       -2 0.30360557E-02 0.27477645E+03</pdfrwt>
<totfact> 0.11597437E+04</totfact>
</mgrwt>
</event>
<event>
 9    1  0.2094635E-002  0.2755407E+03  0.7818608E-02  0.1098150E+00
         -2   -1    0    0    0  501 -0.00000000000E+00  0.00000000000E+00  0.80367686595E+02  0.80367686595E+02  0.00000000000E+00 0. -1.
          2   -1    0    0  501    0  0.00000000000E+00 -0.00000000000E+00 -0.23617295470E+03  0.23617295470E+03  0.00000000000E+00 0. -1.
         36    2    1    2    0    0 -0.14210854715E-13  0.17763568394E-14 -0.15580526811E+03  0.31654064130E+03  0.27554073387E+03 0.  0.
         25    2    3    3    0    0  0.51679631244E+02  0.50156239246E+01 -0.39003361017E+02  0.13899385656E+03  0.12289055790E+03 0.  0.
         25    2    3    3    0    0 -0.51679631244E+02 -0.50156239246E+01 -0.11680190709E+03  0.17754678474E+03  0.12322432594E+03 0.  0.
          5    1    4    4  502    0  0.23196554099E+02  0.10762025110E+02 -0.82485335073E+02  0.86485963073E+02  0.47000000000E+01 0.  1.
         -5    1    4    4    0  502  0.28483077145E+02 -0.57464011852E+01  0.43481974057E+02  0.52507893484E+02  0.47000000000E+01 0.  1.
          5    1    5    5  503    0 -0.84841514504E+02 -0.31179398935E+02 -0.87751096162E+02  0.12606578592E+03  0.47000000000E+01 0.  1.
         -5    1    5    5    0  503  0.33161883260E+02  0.26163775011E+02 -0.29050810929E+02  0.51480998823E+02  0.47000000000E+01 0.  1.
<mgrwt>
<rscale>  0 0.27554073E+03</rscale>
<asrwt>0</asrwt>
<pdfrwt beam="1">  1        2 0.36334301E-01 0.27554073E+03</pdfrwt>
<pdfrwt beam="2">  1       -2 0.12364259E-01 0.27554073E+03</pdfrwt>
<totfact> 0.66338017E+03</totfact>
</mgrwt>
</event>
<event>
 9    1  0.2094635E-002  0.2733777E+03  0.7818608E-02  0.1099362E+00
          2   -1    0    0  501    0  0.00000000000E+00  0.00000000000E+00  0.18876380630E+03  0.18876380630E+03  0.00000000000E+00 0. -1.
         -2   -1    0    0    0  501 -0.00000000000E+00 -0.00000000000E+00 -0.98979985916E+02  0.98979985916E+02  0.00000000000E+00 0. -1.
         36    2    1    2    0    0  0.00000000000E+00  0.71054273576E-14  0.89783820388E+02  0.28774379222E+03  0.27337767933E+03 0.  0.
         25    2    3    3    0    0  0.11103878688E+01  0.36476089086E+02 -0.11497862929E+01  0.12947522537E+03  0.12422066632E+03 0.  0.
         25    2    3    3    0    0 -0.11103878688E+01 -0.36476089086E+02  0.90933606681E+02  0.15826856685E+03  0.12429111148E+03 0.  0.
          5    1    4    4  502    0  0.24286341914E+02 -0.39268914119E+02  0.14444782703E+02  0.48606746105E+02  0.47000000000E+01 0.  1.
         -5    1    4    4    0  502 -0.23175954045E+02  0.75745003205E+02 -0.15594568996E+02  0.80868479265E+02  0.47000000000E+01 0.  1.
          5    1    5    5  503    0 -0.41758651414E+02 -0.48534853358E+01  0.97363707740E+02  0.10615612499E+03  0.47000000000E+01 0. -1.
         -5    1    5    5    0  503  0.40648263545E+02 -0.31622603751E+02 -0.64301010586E+01  0.52112441862E+02  0.47000000000E+01 0. -1.
<mgrwt>
<rscale>  0 0.27337768E+03</rscale>
<asrwt>0</asrwt>
<pdfrwt beam="1">  1        2 0.29040585E-01 0.27337768E+03</pdfrwt>
<pdfrwt beam="2">  1       -2 0.15227690E-01 0.27337768E+03</pdfrwt>
<totfact> 0.60223236E+03</totfact>
</mgrwt>
</event>
<event>
 9    1  0.2094635E-002  0.2763289E+03  0.7818608E-02  0.1097711E+00
          1   -1    0    0  501    0  0.00000000000E+00  0.00000000000E+00  0.13011994150E+03  0.13011994150E+03  0.00000000000E+00 0.  1.
         -1   -1    0    0    0  501 -0.00000000000E+00 -0.00000000000E+00 -0.14670634261E+03  0.14670634261E+03  0.00000000000E+00 0.  1.
         36    2    1    2    0    0  0.00000000000E+00  0.35527136788E-14 -0.16586401113E+02  0.27682628411E+03  0.27632893962E+03 0.  0.
         25    2    3    3    0    0  0.35846085576E+02 -0.25786315797E+02 -0.27761684916E+02  0.13859101793E+03  0.12840125844E+03 0.  0.
         25    2    3    3    0    0 -0.35846085576E+02  0.25786315797E+02  0.11175283802E+02  0.13823526617E+03  0.13051523249E+03 0.  0.
          5    1    4    4  502    0  0.61123561895E+02 -0.51176620755E+01  0.32735024432E+02  0.69684661931E+02  0.47000000000E+01 0.  1.
         -5    1    4    4    0  502 -0.25277476320E+02 -0.20668653722E+02 -0.60496709347E+02  0.68906356003E+02  0.47000000000E+01 0.  1.
          5    1    5    5  503    0 -0.10980115518E+02  0.65043004978E+02 -0.33035484016E+02  0.73922855989E+02  0.47000000000E+01 0.  1.
         -5    1    5    5    0  503 -0.24865970058E+02 -0.39256689181E+02  0.44210767819E+02  0.64312410183E+02  0.47000000000E+01 0.  1.
<mgrwt>
<rscale>  0 0.27632894E+03</rscale>
<asrwt>0</asrwt>
<pdfrwt beam="1">  1        1 0.20018453E-01 0.27632894E+03</pdfrwt>
<pdfrwt beam="2">  1       -1 0.22570207E-01 0.27632894E+03</pdfrwt>
<totfact> 0.41877661E+03</totfact>
</mgrwt>
</event>
<event>
 9    1  0.2094635E-002  0.2744818E+03  0.7818608E-02  0.1098742E+00
         -3   -1    0    0    0  501 -0.00000000000E+00  0.00000000000E+00  0.97303886093E+02  0.97303886093E+02  0.00000000000E+00 0.  1.
          3   -1    0    0  501    0  0.00000000000E+00 -0.00000000000E+00 -0.19356952481E+03  0.19356952481E+03  0.00000000000E+00 0.  1.
         36    2    1    2    0    0 -0.71054273576E-14  0.35527136788E-14 -0.96265638712E+02  0.29087341090E+03  0.27448181720E+03 0.  0.
         25    2    3    3    0    0 -0.28508457675E+02 -0.25345508005E+02  0.45779854665E+01  0.12564596782E+03  0.11962785773E+03 0.  0.
         25    2    3    3    0    0  0.28508457675E+02  0.25345508005E+02 -0.10084362418E+03  0.16522744308E+03  0.12520201465E+03 0.  0.
          5    1    4    4  502    0 -0.74153393105E+02 -0.25093213434E+02  0.11418537867E+02  0.79251927903E+02  0.47000000000E+01 0.  1.
         -5    1    4    4    0  502  0.45644935430E+02 -0.25229457091E+00 -0.68405524004E+01  0.46394039920E+02  0.47000000000E+01 0.  1.
          5    1    5    5  503    0 -0.12718884092E+02 -0.24966972318E+02 -0.95677888165E+02  0.99807154067E+02  0.47000000000E+01 0. -1.
         -5    1    5    5    0  503  0.41227341767E+02  0.50312480323E+02 -0.51657360137E+01  0.65420289008E+02  0.47000000000E+01 0. -1.
<mgrwt>
<rscale>  0 0.27448182E+03</rscale>
<asrwt>0</asrwt>
<pdfrwt beam="1">  1        3 0.29779927E-01 0.27448182E+03</pdfrwt>
<pdfrwt beam="2">  1       -3 0.14969829E-01 0.27448182E+03</pdfrwt>
<totfact> 0.10309985E+03</totfact>
</mgrwt>
</event>
<event>
 9    1  0.2094635E-002  0.2756930E+03  0.7818608E-02  0.1098065E+00
         -1   -1    0    0    0  501 -0.00000000000E+00  0.00000000000E+00  0.15631449024E+04  0.15631449024E+04  0.00000000000E+00 0.  1.
          1   -1    0    0  501    0  0.00000000000E+00 -0.00000000000E+00 -0.12156045531E+02  0.12156045531E+02  0.00000000000E+00 0.  1.
         36    2    1    2    0    0  0.35527136788E-14  0.71054273576E-14  0.15509888568E+04  0.15753009479E+04  0.27569302207E+03 0.  0.
         25    2    3    3    0    0  0.19680750626E+02  0.48536685738E+02  0.75703062543E+03  0.76964684236E+03  0.12852140795E+03 0.  0.
         25    2    3    3    0    0 -0.19680750626E+02 -0.48536685738E+02  0.79395823141E+03  0.80565410554E+03  0.12635554104E+03 0.  0.
          5    1    4    4  502    0 -0.33887929335E+02 -0.18854699805E+02  0.10669839311E+03  0.11362450683E+03  0.47000000000E+01 0.  1.
         -5    1    4    4    0  502  0.53568679960E+02  0.67391385544E+02  0.65033223232E+03  0.65602233553E+03  0.47000000000E+01 0.  1.
          5    1    5    5  503    0 -0.30716439756E+02  0.20837429016E+02  0.80943383787E+02  0.89171853733E+02  0.47000000000E+01 0. -1.
         -5    1    5    5    0  503  0.11035689130E+02 -0.69374114754E+02  0.71301484762E+03  0.71648225181E+03  0.47000000000E+01 0. -1.
<mgrwt>
<rscale>  0 0.27569302E+03</rscale>
<asrwt>0</asrwt>
<pdfrwt beam="1">  1        1 0.18701621E-02 0.27569302E+03</pdfrwt>
<pdfrwt beam="2">  1       -1 0.24048367E+00 0.27569302E+03</pdfrwt>
<totfact> 0.60638822E+02</totfact>
</mgrwt>
</event>
<event>
 9    1  0.2094635E-002  0.2756614E+03  0.7818608E-02  0.1098082E+00
          1   -1    0    0  501    0  0.00000000000E+00  0.00000000000E+00  0.10536613127E+04  0.10536613127E+04  0.00000000000E+00 0. -1.
         -1   -1    0    0    0  501 -0.00000000000E+00 -0.00000000000E+00 -0.18029800851E+02  0.18029800851E+02  0.00000000000E+00 0. -1.
         36    2    1    2    0    0 -0.17763568394E-14  0.17763568394E-14  0.10356315119E+04  0.10716911136E+04  0.27566141285E+03 0.  0.
         25    2    3    3    0    0  0.14311448598E+02  0.15123030529E+02  0.73620017624E+03  0.74678891337E+03  0.12356964849E+03 0.  0.
         25    2    3    3    0    0 -0.14311448598E+02 -0.15123030529E+02  0.29943133565E+03  0.32490220022E+03  0.12437359577E+03 0.  0.
          5    1    4    4  502    0  0.46319074918E+02 -0.95645581967E+01  0.11745804894E+03  0.12670998673E+03  0.47000000000E+01 0. -1.
         -5    1    4    4    0  502 -0.32007626320E+02  0.24687588725E+02  0.61874212729E+03  0.62007892665E+03  0.47000000000E+01 0. -1.
          5    1    5    5  503    0  0.15485301715E+02  0.15966893266E+02  0.38749439553E+00  0.22737115069E+02  0.47000000000E+01 0. -1.
         -5    1    5    5    0  503 -0.29796750312E+02 -0.31089923795E+02  0.29904384125E+03  0.30216508515E+03  0.47000000000E+01 0. -1.
<mgrwt>
<rscale>  0 0.27566141E+03</rscale>
<asrwt>0</asrwt>
<pdfrwt beam="1">  1        1 0.16210169E+00 0.27566141E+03</pdfrwt>
<pdfrwt beam="2">  1       -1 0.27738163E-02 0.27566141E+03</pdfrwt>
<totfact> 0.61757543E+03</totfact>
</mgrwt>
</event>
<event>
 9    1  0.2094635E-002  0.2756923E+03  0.7818608E-02  0.1098065E+00
          1   -1    0    0  501    0  0.00000000000E+00  0.00000000000E+00  0.32109313265E+02  0.32109313265E+02  0.00000000000E+00 0. -1.
         -1   -1    0    0    0  501 -0.00000000000E+00 -0.00000000000E+00 -0.59177735901E+03  0.59177735901E+03  0.00000000000E+00 0. -1.
         36    2    1    2    0    0  0.53290705182E-14  0.00000000000E+00 -0.55966804574E+03  0.62388667227E+03  0.27569232563E+03 0.  0.
         25    2    3    3    0    0  0.90570617482E+01 -0.51852414234E+02 -0.24566509704E+03  0.27972367296E+03  0.12297678676E+03 0.  0.
         25    2    3    3    0    0 -0.90570617482E+01  0.51852414234E+02 -0.31400294871E+03  0.34416299931E+03  0.13068900133E+03 0.  0.
          5    1    4    4  502    0 -0.13900882983E+01  0.29421854164E+02 -0.12155470135E+02  0.32209056213E+02  0.47000000000E+01 0. -1.
         -5    1    4    4    0  502  0.10447150047E+02 -0.81274268399E+02 -0.23350962690E+03  0.24751461675E+03  0.47000000000E+01 0. -1.
          5    1    5    5  503    0  0.58156609303E+02  0.15126619109E+02 -0.17898945617E+03  0.18886588159E+03  0.47000000000E+01 0. -1.
         -5    1    5    5    0  503 -0.67213671052E+02  0.36725795125E+02 -0.13501349254E+03  0.15529711772E+03  0.47000000000E+01 0. -1.
<mgrwt>
<rscale>  0 0.27569233E+03</rscale>
<asrwt>0</asrwt>
<pdfrwt beam="1">  1        1 0.49398946E-02 0.27569233E+03</pdfrwt>
<pdfrwt beam="2">  1       -1 0.91042666E-01 0.27569233E+03</pdfrwt>
<totfact> 0.20951889E+03</totfact>
</mgrwt>
</event>
<event>
 9    1  0.2094635E-002  0.2753182E+03  0.7818608E-02  0.1098274E+00
          2   -1    0    0  501    0  0.00000000000E+00  0.00000000000E+00  0.99559231209E+03  0.99559231209E+03  0.00000000000E+00 0. -1.
         -2   -1    0    0    0  501 -0.00000000000E+00 -0.00000000000E+00 -0.19033926316E+02  0.19033926316E+02  0.00000000000E+00 0. -1.
         36    2    1    2    0    0 -0.35527136788E-14 -0.71054273576E-14  0.97655838577E+03  0.10146262384E+04  0.27531822104E+03 0.  0.
         25    2    3    3    0    0  0.18066125893E+02  0.50570195499E+02  0.46139627242E+03  0.48145757907E+03  0.12661418034E+03 0.  0.
         25    2    3    3    0    0 -0.18066125893E+02 -0.50570195499E+02  0.51516211336E+03  0.53316865934E+03  0.12646377618E+03 0.  0.
          5    1    4    4  502    0 -0.31205737793E+01 -0.39165346926E+02  0.20884648135E+03  0.21256200308E+03  0.47000000000E+01 0.  1.
         -5    1    4    4    0  502  0.21186699672E+02  0.89735542426E+02  0.25254979107E+03  0.26889557599E+03  0.47000000000E+01 0.  1.
          5    1    5    5  503    0  0.14629458028E+02 -0.73096158430E+02  0.16983286166E+03  0.18553263950E+03  0.47000000000E+01 0. -1.
         -5    1    5    5    0  503 -0.32695583921E+02  0.22525962931E+02  0.34532925170E+03  0.34763601984E+03  0.47000000000E+01 0. -1.
<mgrwt>
<rscale>  0 0.27531822E+03</rscale>
<asrwt>0</asrwt>
<pdfrwt beam="1">  1        2 0.15316801E+00 0.27531822E+03</pdfrwt>
<pdfrwt beam="2">  1       -2 0.29282971E-02 0.27531822E+03</pdfrwt>
<totfact> 0.11574514E+04</totfact>
</mgrwt>
</event>
<event>
 9    1  0.2094635E-002  0.2745657E+03  0.7818608E-02  0.1098695E+00
         -1   -1    0    0    0  501 -0.00000000000E+00  0.00000000000E+00  0.21344544880E+03  0.21344544880E+03  0.00000000000E+00 0. -1.
          1   -1    0    0  501    0  0.00000000000E+00 -0.00000000000E+00 -0.88296972292E+02  0.88296972292E+02  0.00000000000E+00 0. -1.
         36    2    1    2    0    0  0.00000000000E+00  0.35527136788E-14  0.12514847651E+03  0.30174242110E+03  0.27456574352E+03 0.  0.
         25    2    3    3    0    0  0.57249518152E+02 -0.17857444384E+02  0.53163848021E+02  0.14659005489E+03  0.12274303975E+03 0.  0.
         25    2    3    3    0    0 -0.57249518152E+02  0.17857444384E+02  0.71984628492E+02  0.15515236621E+03  0.12366921344E+03 0.  0.
          5    1    4    4  502    0 -0.35317051032E+02  0.14267998750E+02  0.12040447295E+02  0.40223528600E+02  0.47000000000E+01 0.  1.
         -5    1    4    4    0  502  0.92566569185E+02 -0.32125443134E+02  0.41123400726E+02  0.10636652629E+03  0.47000000000E+01 0.  1.
          5    1    5    5  503    0 -0.24079711508E+02  0.20015513128E+01  0.10357037581E+03  0.10645539657E+03  0.47000000000E+01 0.  1.
         -5    1    5    5    0  503 -0.33169806644E+02  0.15855893072E+02 -0.31585747320E+02  0.48696969635E+02  0.47000000000E+01 0.  1.
<mgrwt>
<rscale>  0 0.27456574E+03</rscale>
<asrwt>0</asrwt>
<pdfrwt beam="1">  1        1 0.13584150E-01 0.27456574E+03</pdfrwt>
<pdfrwt beam="2">  1       -1 0.32837761E-01 0.27456574E+03</pdfrwt>
<totfact> 0.36963077E+03</totfact>
</mgrwt>
</event>
<event>
 9    1  0.2094635E-002  0.2742623E+03  0.7818608E-02  0.1098865E+00
          3   -1    0    0  501    0  0.00000000000E+00  0.00000000000E+00  0.12625622641E+04  0.12625622641E+04  0.00000000000E+00 0. -1.
         -3   -1    0    0    0  501 -0.00000000000E+00 -0.00000000000E+00 -0.14894279276E+02  0.14894279276E+02  0.00000000000E+00 0. -1.
         36    2    1    2    0    0 -0.35527136788E-14 -0.71054273576E-14  0.12476679848E+04  0.12774565434E+04  0.27426231943E+03 0.  0.
         25    2    3    3    0    0  0.19886489380E+02  0.56421305555E+02  0.72647029365E+03  0.74003276767E+03  0.12771285564E+03 0.  0.
         25    2    3    3    0    0 -0.19886489380E+02 -0.56421305555E+02  0.52119769120E+03  0.53742377573E+03  0.11661237166E+03 0.  0.
          5    1    4    4  502    0 -0.18193374049E+02 -0.29758407272E+02  0.90473279375E+02  0.97077628440E+02  0.47000000000E+01 0. -1.
         -5    1    4    4    0  502  0.38079863429E+02  0.86179712827E+02  0.63599701427E+03  0.64295513923E+03  0.47000000000E+01 0. -1.
          5    1    5    5  503    0 -0.60069367084E+02 -0.54963333883E+02  0.24360092822E+03  0.25689063658E+03  0.47000000000E+01 0.  1.
         -5    1    5    5    0  503  0.40182877704E+02 -0.14579716723E+01  0.27759676298E+03  0.28053313914E+03  0.47000000000E+01 0.  1.
<mgrwt>
<rscale>  0 0.27426232E+03</rscale>
<asrwt>0</asrwt>
<pdfrwt beam="1">  1        3 0.19424026E+00 0.27426232E+03</pdfrwt>
<pdfrwt beam="2">  1       -3 0.22914286E-02 0.27426232E+03</pdfrwt>
<totfact> 0.34069989E+02</totfact>
</mgrwt>
</event>
<event>
 9    1  0.2094635E-002  0.2737130E+03  0.7818608E-02  0.1099173E+00
         -1   -1    0    0    0  501 -0.00000000000E+00  0.00000000000E+00  0.57122608128E+02  0.57122608128E+02  0.00000000000E+00 0. -1.
          1   -1    0    0  501    0  0.00000000000E+00 -0.00000000000E+00 -0.32788607072E+03  0.32788607072E+03  0.00000000000E+00 0. -1.
         36    2    1    2    0    0  0.00000000000E+00  0.71054273576E-14 -0.27076346259E+03  0.38500867885E+03  0.27371304338E+03 0.  0.
         25    2    3    3    0    0  0.33514174455E+02 -0.48108630192E+02 -0.13856036953E+03  0.19397068516E+03  0.12242553047E+03 0.  0.
         25    2    3    3    0    0 -0.33514174455E+02  0.48108630192E+02 -0.13220309307E+03  0.19103799369E+03  0.12482073957E+03 0.  0.
          5    1    4    4  502    0  0.13805910044E+02  0.17414687366E+02  0.14014155778E+02  0.26690092738E+02  0.47000000000E+01 0. -1.
         -5    1    4    4    0  502  0.19708264412E+02 -0.65523317558E+02 -0.15257452531E+03  0.16728059243E+03  0.47000000000E+01 0. -1.
          5    1    5    5  503    0 -0.10274054512E+02  0.77974741155E+02 -0.34226686405E+02  0.85902110082E+02  0.47000000000E+01 0. -1.
         -5    1    5    5    0  503 -0.23240119944E+02 -0.29866110963E+02 -0.97976406661E+02  0.10513588360E+03  0.47000000000E+01 0. -1.
<mgrwt>
<rscale>  0 0.27371304E+03</rscale>
<asrwt>0</asrwt>
<pdfrwt beam="1">  1        1 0.50444011E-01 0.27371304E+03</pdfrwt>
<pdfrwt beam="2">  1       -1 0.87880935E-02 0.27371304E+03</pdfrwt>
<totfact> 0.57887465E+03</totfact>
</mgrwt>
</event>
<event>
 9    1  0.2094635E-002  0.2754432E+03  0.7818608E-02  0.1098204E+00
         -1   -1    0    0    0  501 -0.00000000000E+00  0.00000000000E+00  0.24407886186E+02  0.24407886186E+02  0.00000000000E+00 0. -1.
          1   -1    0    0  501    0  0.00000000000E+00 -0.00000000000E+00 -0.77709449368E+03  0.77709449368E+03  0.00000000000E+00 0. -1.
         36    2    1    2    0    0 -0.71054273576E-14  0.00000000000E+00 -0.75268660750E+03  0.80150237987E+03  0.27544316261E+03 0.  0.
         25    2    3    3    0    0  0.25301662156E+02  0.33256120771E+01 -0.31142105155E+03  0.34211384072E+03  0.13931107230E+03 0.  0.
         25    2    3    3    0    0 -0.25301662156E+02 -0.33256120771E+01 -0.44126555595E+03  0.45938853914E+03  0.12518508387E+03 0.  0.
          5    1    4    4  502    0  0.59465414981E+02 -0.47000035444E+02 -0.21495108689E+03  0.22797192517E+03  0.47000000000E+01 0.  1.
         -5    1    4    4    0  502 -0.34163752825E+02  0.50325647521E+02 -0.96469964653E+02  0.11414191555E+03  0.47000000000E+01 0.  1.
          5    1    5    5  503    0 -0.25631769324E+02  0.42957706596E+02 -0.37541334551E+03  0.37876063965E+03  0.47000000000E+01 0. -1.
         -5    1    5    5    0  503  0.33010716753E+00 -0.46283318673E+02 -0.65852210435E+02  0.80627899497E+02  0.47000000000E+01 0. -1.
<mgrwt>
<rscale>  0 0.27544316E+03</rscale>
<asrwt>0</asrwt>
<pdfrwt beam="1">  1        1 0.11955300E+00 0.27544316E+03</pdfrwt>
<pdfrwt beam="2">  1       -1 0.37550593E-02 0.27544316E+03</pdfrwt>
<totfact> 0.64988824E+03</totfact>
</mgrwt>
</event>
<event>
 9    1  0.2094635E-002  0.2753153E+03  0.7818608E-02  0.1098276E+00
          2   -1    0    0  501    0  0.00000000000E+00  0.00000000000E+00  0.62669526084E+03  0.62669526084E+03  0.00000000000E+00 0.  1.
         -2   -1    0    0    0  501 -0.00000000000E+00 -0.00000000000E+00 -0.30237379230E+02  0.30237379230E+02  0.00000000000E+00 0.  1.
         36    2    1    2    0    0  0.71054273576E-14 -0.35527136788E-14  0.59645788161E+03  0.65693264007E+03  0.27531525395E+03 0.  0.
         25    2    3    3    0    0 -0.47544754759E+02  0.17521487407E+02  0.26604220274E+03  0.29860002192E+03  0.12576173195E+03 0.  0.
         25    2    3    3    0    0  0.47544754759E+02 -0.17521487407E+02  0.33041567887E+03  0.35833261816E+03  0.12907454499E+03 0.  0.
          5    1    4    4  502    0 -0.90500350637E+02  0.17678589301E+02  0.18470009895E+03  0.20649228202E+03  0.47000000000E+01 0.  1.
         -5    1    4    4    0  502  0.42955595878E+02 -0.15710189420E+00  0.81342103794E+02  0.92107739891E+02  0.47000000000E+01 0.  1.
          5    1    5    5  503    0 -0.12659452043E+02 -0.43795620477E+02  0.25106523894E+03  0.25521395398E+03  0.47000000000E+01 0.  1.
         -5    1    5    5    0  503  0.60204206802E+02  0.26274133070E+02  0.79350439927E+02  0.10311866418E+03  0.47000000000E+01 0.  1.
<mgrwt>
<rscale>  0 0.27531525E+03</rscale>
<asrwt>0</asrwt>
<pdfrwt beam="1">  1        2 0.96414646E-01 0.27531525E+03</pdfrwt>
<pdfrwt beam="2">  1       -2 0.46519050E-02 0.27531525E+03</pdfrwt>
<totfact> 0.10429146E+04</totfact>
</mgrwt>
</event>
<event>
 8    1  0.2094635E-002  0.2902218E+03  0.7818608E-02  0.1090233E+00
          2   -1    0    0  501    0  0.00000000000E+00  0.00000000000E+00  0.41590141444E+03  0.41590141444E+03  0.00000000000E+00 0.  1.
         -2   -1    0    0    0  501 -0.00000000000E+00 -0.00000000000E+00 -0.50630206377E+02  0.50630206377E+02  0.00000000000E+00 0.  1.
         25    2    1    2    0    0  0.33324028165E+02 -0.50658545985E+02  0.17086360809E+03  0.22653067874E+03  0.13581235845E+03 0.  0.
         25    2    1    2    0    0 -0.33324028165E+02  0.50658545985E+02  0.19440759998E+03  0.24000094208E+03  0.12700140997E+03 0.  0.
          5    1    3    3  502    0  0.39845274330E+02 -0.73958093307E+02  0.39635669786E+02  0.93008181206E+02  0.47000000000E+01 0. -1.
         -5    1    3    3    0  502 -0.65212461651E+01  0.23299547322E+02  0.13122793830E+03  0.13352249753E+03  0.47000000000E+01 0. -1.
          5    1    4    4  503    0 -0.99069773289E+01  0.34840097185E+02  0.20591461067E+03  0.20912890154E+03  0.47000000000E+01 0.  1.
         -5    1    4    4    0  503 -0.23417050836E+02  0.15818448800E+02 -0.11507010688E+02  0.30872040542E+02  0.47000000000E+01 0.  1.
<mgrwt>
<rscale>  0 0.29022181E+03</rscale>
<asrwt>0</asrwt>
<pdfrwt beam="1">  1        2 0.63984831E-01 0.29022181E+03</pdfrwt>
<pdfrwt beam="2">  1       -2 0.77892628E-02 0.29022181E+03</pdfrwt>
<totfact> 0.75128366E+03</totfact>
</mgrwt>
</event>
<event>
 9    1  0.2094635E-002  0.2742688E+03  0.7818608E-02  0.1098861E+00
          2   -1    0    0  501    0  0.00000000000E+00  0.00000000000E+00  0.10719171743E+04  0.10719171743E+04  0.00000000000E+00 0.  1.
         -2   -1    0    0    0  501 -0.00000000000E+00 -0.00000000000E+00 -0.17544114306E+02  0.17544114306E+02  0.00000000000E+00 0.  1.
         36    2    1    2    0    0  0.00000000000E+00  0.00000000000E+00  0.10543730600E+04  0.10894612886E+04  0.27426875456E+03 0.  0.
         25    2    3    3    0    0  0.12854350384E+02 -0.60972768747E+02  0.49999434434E+03  0.51709391738E+03  0.11622763083E+03 0.  0.
         25    2    3    3    0    0 -0.12854350384E+02  0.60972768747E+02  0.55437871565E+03  0.57236737123E+03  0.12800677490E+03 0.  0.
          5    1    4    4  502    0  0.26454612323E+02  0.29023574514E+02  0.12122837580E+03  0.12751714979E+03  0.47000000000E+01 0. -1.
         -5    1    4    4    0  502 -0.13600261939E+02 -0.89996343261E+02  0.37876596854E+03  0.38957676760E+03  0.47000000000E+01 0. -1.
          5    1    5    5  503    0  0.15159364099E+02  0.62329098687E+02  0.53280356867E+03  0.53667164602E+03  0.47000000000E+01 0. -1.
         -5    1    5    5    0  503 -0.28013714483E+02 -0.13563299399E+01  0.21575146988E+02  0.35695725200E+02  0.47000000000E+01 0. -1.
<mgrwt>
<rscale>  0 0.27426875E+03</rscale>
<asrwt>0</asrwt>
<pdfrwt beam="1">  1        2 0.16491028E+00 0.27426875E+03</pdfrwt>
<pdfrwt beam="2">  1       -2 0.26990953E-02 0.27426875E+03</pdfrwt>
<totfact> 0.11747891E+04</totfact>
</mgrwt>
</event>
<event>
 9    1  0.2094635E-002  0.2751744E+03  0.7818608E-02  0.1098354E+00
         -1   -1    0    0    0  501 -0.00000000000E+00  0.00000000000E+00  0.22816766324E+03  0.22816766324E+03  0.00000000000E+00 0.  1.
          1   -1    0    0  501    0  0.00000000000E+00 -0.00000000000E+00 -0.82966335813E+02  0.82966335813E+02  0.00000000000E+00 0.  1.
         36    2    1    2    0    0  0.00000000000E+00 -0.35527136788E-14  0.14520132743E+03  0.31113399905E+03  0.27517438086E+03 0.  0.
         25    2    3    3    0    0 -0.33456883661E+02  0.27263650745E+02  0.10956300560E+03  0.17028166102E+03  0.12300049662E+03 0.  0.
         25    2    3    3    0    0  0.33456883661E+02 -0.27263650745E+02  0.35638321823E+02  0.14085233803E+03  0.12925409638E+03 0.  0.
          5    1    4    4  502    0 -0.13320162172E+02 -0.24498112361E+02  0.11097831916E+03  0.11452450198E+03  0.47000000000E+01 0. -1.
         -5    1    4    4    0  502 -0.20136721489E+02  0.51761763106E+02 -0.14153135592E+01  0.55757159043E+02  0.47000000000E+01 0. -1.
          5    1    5    5  503    0  0.14991354264E+02 -0.68180735790E+02 -0.16504303490E+02  0.71887658671E+02  0.47000000000E+01 0. -1.
         -5    1    5    5    0  503  0.18465529397E+02  0.40917085045E+02  0.52142625313E+02  0.68964679359E+02  0.47000000000E+01 0. -1.
<mgrwt>
<rscale>  0 0.27517438E+03</rscale>
<asrwt>0</asrwt>
<pdfrwt beam="1">  1        1 0.12764052E-01 0.27517438E+03</pdfrwt>
<pdfrwt beam="2">  1       -1 0.35102717E-01 0.27517438E+03</pdfrwt>
<totfact> 0.35764110E+03</totfact>
</mgrwt>
</event>
<event>
 9    1  0.2094635E-002  0.2751442E+03  0.7818608E-02  0.1098371E+00
          4   -1    0    0  501    0  0.00000000000E+00  0.00000000000E+00  0.47018064451E+02  0.47018064451E+02  0.00000000000E+00 0. -1.
         -4   -1    0    0    0  501 -0.00000000000E+00 -0.00000000000E+00 -0.40252796050E+03  0.40252796050E+03  0.00000000000E+00 0. -1.
         36    2    1    2    0    0  0.35527136788E-14 -0.71054273576E-14 -0.35550989604E+03  0.44954602495E+03  0.27514422102E+03 0.  0.
         25    2    3    3    0    0  0.12048518058E+02 -0.42411072125E+02 -0.10885965415E+03  0.17036853468E+03  0.12341453513E+03 0.  0.
         25    2    3    3    0    0 -0.12048518058E+02  0.42411072125E+02 -0.24665024190E+03  0.27917749027E+03  0.12312539713E+03 0.  0.
          5    1    4    4  502    0  0.60019801877E+02  0.56259815489E+01 -0.34688615476E+02  0.69709528253E+02  0.47000000000E+01 0. -1.
         -5    1    4    4    0  502 -0.47971283818E+02 -0.48037053674E+02 -0.74171038671E+02  0.10065900642E+03  0.47000000000E+01 0. -1.
          5    1    5    5  503    0 -0.15955916677E+01 -0.43626773035E+02 -0.87374531003E+02  0.97786706184E+02  0.47000000000E+01 0. -1.
         -5    1    5    5    0  503 -0.10452926391E+02  0.86037845160E+02 -0.15927571089E+03  0.18139078408E+03  0.47000000000E+01 0. -1.
<mgrwt>
<rscale>  0 0.27514422E+03</rscale>
<asrwt>0</asrwt>
<pdfrwt beam="1">  1        4 0.72335484E-02 0.27514422E+03</pdfrwt>
<pdfrwt beam="2">  1       -4 0.61927379E-01 0.27514422E+03</pdfrwt>
<totfact> 0.60685457E+02</totfact>
</mgrwt>
</event>
<event>
 9    1  0.2094635E-002  0.2754752E+03  0.7818608E-02  0.1098186E+00
          2   -1    0    0  501    0  0.00000000000E+00  0.00000000000E+00  0.13952580863E+04  0.13952580863E+04  0.00000000000E+00 0.  1.
         -2   -1    0    0    0  501 -0.00000000000E+00 -0.00000000000E+00 -0.13597227966E+02  0.13597227966E+02  0.00000000000E+00 0.  1.
         36    2    1    2    0    0 -0.71054273576E-14  0.00000000000E+00  0.13816608584E+04  0.14088553143E+04  0.27547516964E+03 0.  0.
         25    2    3    3    0    0 -0.32038576575E+02  0.42512249580E+02  0.86543219832E+03  0.87471761132E+03  0.11543070611E+03 0.  0.
         25    2    3    3    0    0  0.32038576575E+02 -0.42512249580E+02  0.51622866004E+03  0.53413770297E+03  0.12640132331E+03 0.  0.
          5    1    4    4  502    0 -0.41687907425E+02  0.70187762087E+02  0.39633938889E+03  0.40468655125E+03  0.47000000000E+01 0.  1.
         -5    1    4    4    0  502  0.96493308504E+01 -0.27675512507E+02  0.46909280943E+03  0.47003106007E+03  0.47000000000E+01 0.  1.
          5    1    5    5  503    0 -0.28649719169E+02 -0.65834165475E+02  0.27503443946E+03  0.28429030346E+03  0.47000000000E+01 0. -1.
         -5    1    5    5    0  503  0.60688295743E+02  0.23321915895E+02  0.24119422058E+03  0.24984739951E+03  0.47000000000E+01 0. -1.
<mgrwt>
<rscale>  0 0.27547517E+03</rscale>
<asrwt>0</asrwt>
<pdfrwt beam="1">  1        2 0.21465498E+00 0.27547517E+03</pdfrwt>
<pdfrwt beam="2">  1       -2 0.20918823E-02 0.27547517E+03</pdfrwt>
<totfact> 0.11244941E+04</totfact>
</mgrwt>
</event>
<event>
 9    1  0.2094635E-002  0.2752139E+03  0.7818608E-02  0.1098332E+00
          1   -1    0    0  501    0  0.00000000000E+00  0.00000000000E+00  0.73366059289E+03  0.73366059289E+03  0.00000000000E+00 0.  1.
         -1   -1    0    0    0  501 -0.00000000000E+00 -0.00000000000E+00 -0.25809863087E+02  0.25809863087E+02  0.00000000000E+00 0.  1.
         36    2    1    2    0    0  0.71054273576E-14  0.00000000000E+00  0.70785072980E+03  0.75947045598E+03  0.27521394917E+03 0.  0.
         25    2    3    3    0    0 -0.15800145995E+02 -0.32113660854E+02  0.41258216242E+03  0.43561090792E+03  0.13509955781E+03 0.  0.
         25    2    3    3    0    0  0.15800145995E+02  0.32113660854E+02  0.29526856738E+03  0.32385954806E+03  0.12814268672E+03 0.  0.
          5    1    4    4  502    0 -0.31570975790E+02 -0.57392934880E+02  0.39556239311E+03  0.40097677280E+03  0.47000000000E+01 0.  1.
         -5    1    4    4    0  502  0.15770829795E+02  0.25279274026E+02  0.17019769317E+02  0.34634135117E+02  0.47000000000E+01 0.  1.
          5    1    5    5  503    0 -0.49282528003E+02  0.85172353264E+01  0.19867368718E+03  0.20492592525E+03  0.47000000000E+01 0.  1.
         -5    1    5    5    0  503  0.65082673997E+02  0.23596425527E+02  0.96594880201E+02  0.11893362280E+03  0.47000000000E+01 0.  1.
<mgrwt>
<rscale>  0 0.27521395E+03</rscale>
<asrwt>0</asrwt>
<pdfrwt beam="1">  1        1 0.11287084E+00 0.27521395E+03</pdfrwt>
<pdfrwt beam="2">  1       -1 0.39707487E-02 0.27521395E+03</pdfrwt>
<totfact> 0.65210730E+03</totfact>
</mgrwt>
</event>
<event>
 9    1  0.2094635E-002  0.2750272E+03  0.7818608E-02  0.1098436E+00
         -2   -1    0    0    0  501 -0.00000000000E+00  0.00000000000E+00  0.47200193870E+02  0.47200193870E+02  0.00000000000E+00 0.  1.
          2   -1    0    0  501    0  0.00000000000E+00 -0.00000000000E+00 -0.40063370098E+03  0.40063370098E+03  0.00000000000E+00 0.  1.
         36    2    1    2    0    0  0.00000000000E+00  0.71054273576E-14 -0.35343350710E+03  0.44783389485E+03  0.27502718671E+03 0.  0.
         25    2    3    3    0    0 -0.34737936525E+02 -0.42028772300E+02 -0.10031516569E+03  0.15897847161E+03  0.11062495213E+03 0.  0.
         25    2    3    3    0    0  0.34737936525E+02  0.42028772300E+02 -0.25311834142E+03  0.28885542324E+03  0.12804459706E+03 0.  0.
          5    1    4    4  502    0 -0.49661881633E+02  0.21491174893E+02 -0.64756846318E+02  0.84520484089E+02  0.47000000000E+01 0.  1.
         -5    1    4    4    0  502  0.14923945108E+02 -0.63519947193E+02 -0.35558319370E+02  0.74457987519E+02  0.47000000000E+01 0.  1.
          5    1    5    5  503    0  0.69396049670E+01 -0.21224701774E+02  0.34735681580E+01  0.23082498960E+02  0.47000000000E+01 0.  1.
         -5    1    5    5    0  503  0.27798331558E+02  0.63253474074E+02 -0.25659190957E+03  0.26577292428E+03  0.47000000000E+01 0.  1.
<mgrwt>
<rscale>  0 0.27502719E+03</rscale>
<asrwt>0</asrwt>
<pdfrwt beam="1">  1        2 0.61635955E-01 0.27502719E+03</pdfrwt>
<pdfrwt beam="2">  1       -2 0.72615682E-02 0.27502719E+03</pdfrwt>
<totfact> 0.87119223E+03</totfact>
</mgrwt>
</event>
<event>
 9    1  0.2094635E-002  0.2750133E+03  0.7818608E-02  0.1098444E+00
         -2   -1    0    0    0  501 -0.00000000000E+00  0.00000000000E+00  0.38626352130E+03  0.38626352130E+03  0.00000000000E+00 0. -1.
          2   -1    0    0  501    0  0.00000000000E+00 -0.00000000000E+00 -0.48951242801E+02  0.48951242801E+02  0.00000000000E+00 0. -1.
         36    2    1    2    0    0  0.00000000000E+00 -0.71054273576E-14  0.33731227850E+03  0.43521476410E+03  0.27501330452E+03 0.  0.
         25    2    3    3    0    0  0.47056288915E+02 -0.29121381008E+02  0.25779513284E+03  0.29024663252E+03  0.12133601286E+03 0.  0.
         25    2    3    3    0    0 -0.47056288915E+02  0.29121381008E+02  0.79517145658E+02  0.14496813158E+03  0.10784448786E+03 0.  0.
          5    1    4    4  502    0  0.48567915797E+02 -0.13672546116E+02  0.24318385520E+02  0.56207248967E+02  0.47000000000E+01 0.  1.
         -5    1    4    4    0  502 -0.15116268814E+01 -0.15448834892E+02  0.23347674732E+03  0.23403938356E+03  0.47000000000E+01 0.  1.
          5    1    5    5  503    0 -0.13299212967E+02  0.66930161200E+02  0.58090753487E+02  0.89739295654E+02  0.47000000000E+01 0. -1.
         -5    1    5    5    0  503 -0.33757075948E+02 -0.37808780192E+02  0.21426392171E+02  0.55228835925E+02  0.47000000000E+01 0. -1.
<mgrwt>
<rscale>  0 0.27501330E+03</rscale>
<asrwt>0</asrwt>
<pdfrwt beam="1">  1        2 0.75309607E-02 0.27501330E+03</pdfrwt>
<pdfrwt beam="2">  1       -2 0.59425155E-01 0.27501330E+03</pdfrwt>
<totfact> 0.24724340E+03</totfact>
</mgrwt>
</event>
<event>
 9    1  0.2094635E-002  0.2752804E+03  0.7818608E-02  0.1098295E+00
         -2   -1    0    0    0  501 -0.00000000000E+00  0.00000000000E+00  0.10163995488E+03  0.10163995488E+03  0.00000000000E+00 0.  1.
          2   -1    0    0  501    0  0.00000000000E+00 -0.00000000000E+00 -0.18639146767E+03  0.18639146767E+03  0.00000000000E+00 0.  1.
         36    2    1    2    0    0 -0.71054273576E-14  0.17763568394E-14 -0.84751512785E+02  0.28803142255E+03  0.27528036882E+03 0.  0.
         25    2    3    3    0    0  0.23158445162E+02  0.86208289777E+01  0.12542636150E+02  0.12727071162E+03  0.12421708433E+03 0.  0.
         25    2    3    3    0    0 -0.23158445162E+02 -0.86208289777E+01 -0.97294148935E+02  0.16076071093E+03  0.12556760126E+03 0.  0.
          5    1    4    4  502    0  0.74540259787E+02  0.50614296127E+01  0.95347974564E+01  0.75464367495E+02  0.47000000000E+01 0.  1.
         -5    1    4    4    0  502 -0.51381814626E+02  0.35593993650E+01  0.30078386936E+01  0.51806344126E+02  0.47000000000E+01 0.  1.
          5    1    5    5  503    0  0.18571418942E+02 -0.53034413591E+02 -0.15181763594E+02  0.58396254779E+02  0.47000000000E+01 0.  1.
         -5    1    5    5    0  503 -0.41729864103E+02  0.44413584613E+02 -0.82112385341E+02  0.10236445615E+03  0.47000000000E+01 0.  1.
<mgrwt>
<rscale>  0 0.27528037E+03</rscale>
<asrwt>0</asrwt>
<pdfrwt beam="1">  1        2 0.28675610E-01 0.27528037E+03</pdfrwt>
<pdfrwt beam="2">  1       -2 0.15636916E-01 0.27528037E+03</pdfrwt>
<totfact> 0.58456919E+03</totfact>
</mgrwt>
</event>
<event>
 9    1  0.2094635E-002  0.2747685E+03  0.7818608E-02  0.1098581E+00
         -2   -1    0    0    0  501 -0.00000000000E+00  0.00000000000E+00  0.11657516845E+02  0.11657516845E+02  0.00000000000E+00 0.  1.
          2   -1    0    0  501    0  0.00000000000E+00 -0.00000000000E+00 -0.16190788443E+04  0.16190788443E+04  0.00000000000E+00 0.  1.
         36    2    1    2    0    0  0.71054273576E-14 -0.35527136788E-14 -0.16074213275E+04  0.16307363612E+04  0.27476854916E+03 0.  0.
         25    2    3    3    0    0  0.43236570135E+02 -0.15658311591E+02 -0.98997210247E+03  0.99890711121E+03  0.12512421601E+03 0.  0.
         25    2    3    3    0    0 -0.43236570135E+02  0.15658311591E+02 -0.61744922503E+03  0.63182924999E+03  0.12589706877E+03 0.  0.
          5    1    4    4  502    0 -0.34034931452E+02 -0.37013350085E+02 -0.48021052545E+03  0.48285878204E+03  0.47000000000E+01 0. -1.
         -5    1    4    4    0  502  0.77271501587E+02  0.21355038494E+02 -0.50976157702E+03  0.51604832916E+03  0.47000000000E+01 0. -1.
          5    1    5    5  503    0 -0.45109840737E+02 -0.13758320062E+02 -0.58797082388E+03  0.58987792706E+03  0.47000000000E+01 0. -1.
         -5    1    5    5    0  503  0.18732706018E+01  0.29416631653E+02 -0.29478401157E+02  0.41951322927E+02  0.47000000000E+01 0. -1.
<mgrwt>
<rscale>  0 0.27476855E+03</rscale>
<asrwt>0</asrwt>
<pdfrwt beam="1">  1        2 0.24908892E+00 0.27476855E+03</pdfrwt>
<pdfrwt beam="2">  1       -2 0.17934651E-02 0.27476855E+03</pdfrwt>
<totfact> 0.10700138E+04</totfact>
</mgrwt>
</event>
<event>
 9    1  0.2094635E-002  0.2769270E+03  0.7818608E-02  0.1097379E+00
          2   -1    0    0  501    0  0.00000000000E+00  0.00000000000E+00  0.10246479983E+04  0.10246479983E+04  0.00000000000E+00 0.  1.
         -2   -1    0    0    0  501 -0.00000000000E+00 -0.00000000000E+00 -0.18710951753E+02  0.18710951753E+02  0.00000000000E+00 0.  1.
         36    2    1    2    0    0  0.71054273576E-14  0.53290705182E-14  0.10059370465E+04  0.10433589500E+04  0.27692698864E+03 0.  0.
         25    2    3    3    0    0 -0.11159167954E+02 -0.34114501676E+01  0.71434187236E+03  0.72575211765E+03  0.12765445802E+03 0.  0.
         25    2    3    3    0    0  0.11159167954E+02  0.34114501676E+01  0.29159517415E+03  0.31760683237E+03  0.12534029421E+03 0.  0.
          5    1    4    4  502    0 -0.68115290046E+02 -0.14700943985E+02  0.37585119529E+03  0.38228526193E+03  0.47000000000E+01 0. -1.
         -5    1    4    4    0  502  0.56956122092E+02  0.11289493817E+02  0.33849067707E+03  0.34346685572E+03  0.47000000000E+01 0. -1.
          5    1    5    5  503    0 -0.34914083290E+02  0.43117435242E+02  0.80542550348E+02  0.97914752976E+02  0.47000000000E+01 0. -1.
         -5    1    5    5    0  503  0.46073251244E+02 -0.39705985075E+02  0.21105262381E+03  0.21969207939E+03  0.47000000000E+01 0. -1.
<mgrwt>
<rscale>  0 0.27692699E+03</rscale>
<asrwt>0</asrwt>
<pdfrwt beam="1">  1        2 0.15763811E+00 0.27692699E+03</pdfrwt>
<pdfrwt beam="2">  1       -2 0.28786087E-02 0.27692699E+03</pdfrwt>
<totfact> 0.11400216E+04</totfact>
</mgrwt>
</event>
<event>
 9    1  0.2094635E-002  0.2745797E+03  0.7818608E-02  0.1098687E+00
          4   -1    0    0  501    0  0.00000000000E+00  0.00000000000E+00  0.13926265852E+03  0.13926265852E+03  0.00000000000E+00 0.  1.
         -4   -1    0    0    0  501 -0.00000000000E+00 -0.00000000000E+00 -0.13534498010E+03  0.13534498010E+03  0.00000000000E+00 0.  1.
         36    2    1    2    0    0 -0.88817841970E-15 -0.35527136788E-14  0.39176784204E+01  0.27460763863E+03  0.27457969151E+03 0.  0.
         25    2    3    3    0    0  0.47797082138E+01 -0.23278194235E+02  0.51808868446E+02  0.13924321878E+03  0.12704249363E+03 0.  0.
         25    2    3    3    0    0 -0.47797082138E+01  0.23278194235E+02 -0.47891190026E+02  0.13536441985E+03  0.12435931868E+03 0.  0.
          5    1    4    4  502    0 -0.75293467851E+01  0.17962617323E+02 -0.36079753173E+02  0.41269665290E+02  0.47000000000E+01 0.  1.
         -5    1    4    4    0  502  0.12309054999E+02 -0.41240811558E+02  0.87888621620E+02  0.97973553488E+02  0.47000000000E+01 0.  1.
          5    1    5    5  503    0 -0.30911185681E+02  0.61023136169E+02 -0.55975648647E+02  0.88513771751E+02  0.47000000000E+01 0. -1.
         -5    1    5    5    0  503  0.26131477467E+02 -0.37744941934E+02  0.80844586211E+01  0.46850648100E+02  0.47000000000E+01 0. -1.
<mgrwt>
<rscale>  0 0.27457969E+03</rscale>
<asrwt>0</asrwt>
<pdfrwt beam="1">  1        4 0.21425024E-01 0.27457969E+03</pdfrwt>
<pdfrwt beam="2">  1       -4 0.20822305E-01 0.27457969E+03</pdfrwt>
<totfact> 0.78279440E+02</totfact>
</mgrwt>
</event>
<event>
 9    1  0.2094635E-002  0.2752778E+03  0.7818608E-02  0.1098296E+00
          1   -1    0    0  501    0  0.00000000000E+00  0.00000000000E+00  0.34578217291E+03  0.34578217291E+03  0.00000000000E+00 0. -1.
         -1   -1    0    0    0  501 -0.00000000000E+00 -0.00000000000E+00 -0.54787294351E+02  0.54787294351E+02  0.00000000000E+00 0. -1.
         36    2    1    2    0    0 -0.71054273576E-14  0.14210854715E-13  0.29099487856E+03  0.40056946726E+03  0.27527782104E+03 0.  0.
         25    2    3    3    0    0  0.33433544837E+02 -0.30991782658E+02  0.20354158550E+03  0.24110562557E+03  0.12093160522E+03 0.  0.
         25    2    3    3    0    0 -0.33433544837E+02  0.30991782658E+02  0.87453293058E+02  0.15946384169E+03  0.12530900139E+03 0.  0.
          5    1    4    4  502    0  0.32726636854E+02 -0.28684655637E+02  0.68038973820E+01  0.44297011732E+02  0.47000000000E+01 0. -1.
         -5    1    4    4    0  502  0.70690798253E+00 -0.23071270210E+01  0.19673768812E+03  0.19680861384E+03  0.47000000000E+01 0. -1.
          5    1    5    5  503    0 -0.78792970667E+01  0.72095739145E+02  0.83465848477E+02  0.11067301743E+03  0.47000000000E+01 0.  1.
         -5    1    5    5    0  503 -0.25554247770E+02 -0.41103956487E+02  0.39874445810E+01  0.48790824263E+02  0.47000000000E+01 0.  1.
<mgrwt>
<rscale>  0 0.27527782E+03</rscale>
<asrwt>0</asrwt>
<pdfrwt beam="1">  1        1 0.53197256E-01 0.27527782E+03</pdfrwt>
<pdfrwt beam="2">  1       -1 0.84288147E-02 0.27527782E+03</pdfrwt>
<totfact> 0.57711546E+03</totfact>
</mgrwt>
</event>
<event>
 9    1  0.2094635E-002  0.2742246E+03  0.7818608E-02  0.1098886E+00
         -3   -1    0    0    0  501 -0.00000000000E+00  0.00000000000E+00  0.19778784566E+04  0.19778784566E+04  0.00000000000E+00 0. -1.
          3   -1    0    0  501    0  0.00000000000E+00 -0.00000000000E+00 -0.95050209694E+01  0.95050209694E+01  0.00000000000E+00 0. -1.
         36    2    1    2    0    0  0.00000000000E+00  0.00000000000E+00  0.19683734356E+04  0.19873834776E+04  0.27422455182E+03 0.  0.
         25    2    3    3    0    0  0.66234472616E+02 -0.67552017711E+01  0.69874254619E+03  0.71001182668E+03  0.10697200593E+03 0.  0.
         25    2    3    3    0    0 -0.66234472616E+02  0.67552017711E+01  0.12696308894E+04  0.12773716509E+04  0.12362483960E+03 0.  0.
          5    1    4    4  502    0  0.95346914651E+02 -0.10651805490E+02  0.51603992903E+03  0.52490360395E+03  0.47000000000E+01 0.  1.
         -5    1    4    4    0  502 -0.29112442035E+02  0.38966037187E+01  0.18270261716E+03  0.18510822272E+03  0.47000000000E+01 0.  1.
          5    1    5    5  503    0 -0.77708725162E+02 -0.39901296110E+02  0.64956086125E+03  0.65542517641E+03  0.47000000000E+01 0.  1.
         -5    1    5    5    0  503  0.11474252546E+02  0.46656497882E+02  0.62007002820E+03  0.62194647449E+03  0.47000000000E+01 0.  1.
<mgrwt>
<rscale>  0 0.27422455E+03</rscale>
<asrwt>0</asrwt>
<pdfrwt beam="1">  1        3 0.14623125E-02 0.27422455E+03</pdfrwt>
<pdfrwt beam="2">  1       -3 0.30428867E+00 0.27422455E+03</pdfrwt>
<totfact> 0.16179251E+02</totfact>
</mgrwt>
</event>
<event>
 9    1  0.2094635E-002  0.2749116E+03  0.7818608E-02  0.1098501E+00
         -2   -1    0    0    0  501 -0.00000000000E+00  0.00000000000E+00  0.37572969641E+02  0.37572969641E+02  0.00000000000E+00 0. -1.
          2   -1    0    0  501    0  0.00000000000E+00 -0.00000000000E+00 -0.50286416607E+03  0.50286416607E+03  0.00000000000E+00 0. -1.
         36    2    1    2    0    0  0.35527136788E-14 -0.71054273576E-14 -0.46529119643E+03  0.54043713571E+03  0.27491162249E+03 0.  0.
         25    2    3    3    0    0 -0.10132215002E+02  0.49534242548E+02 -0.28101775003E+03  0.31315523684E+03  0.12860374630E+03 0.  0.
         25    2    3    3    0    0  0.10132215002E+02 -0.49534242548E+02 -0.18427344640E+03  0.22728189888E+03  0.12306118617E+03 0.  0.
          5    1    4    4  502    0  0.23190374819E+02  0.80255733797E+02 -0.12346664879E+03  0.14914717448E+03  0.47000000000E+01 0. -1.
         -5    1    4    4    0  502 -0.33322589821E+02 -0.30721491249E+02 -0.15755110124E+03  0.16400806236E+03  0.47000000000E+01 0. -1.
          5    1    5    5  503    0  0.88421180294E+01 -0.24351422885E+01  0.17346278310E+02  0.20176628569E+02  0.47000000000E+01 0.  1.
         -5    1    5    5    0  503  0.12900969729E+01 -0.47099100260E+02 -0.20161972471E+03  0.20710527031E+03  0.47000000000E+01 0.  1.
<mgrwt>
<rscale>  0 0.27491162E+03</rscale>
<asrwt>0</asrwt>
<pdfrwt beam="1">  1        2 0.77363710E-01 0.27491162E+03</pdfrwt>
<pdfrwt beam="2">  1       -2 0.57804575E-02 0.27491162E+03</pdfrwt>
<totfact> 0.96397851E+03</totfact>
</mgrwt>
</event>
<event>
 9    1  0.2094635E-002  0.2748841E+03  0.7818608E-02  0.1098516E+00
          1   -1    0    0  501    0  0.00000000000E+00  0.00000000000E+00  0.14433558375E+03  0.14433558375E+03  0.00000000000E+00 0.  1.
         -1   -1    0    0    0  501 -0.00000000000E+00 -0.00000000000E+00 -0.13087777146E+03  0.13087777146E+03  0.00000000000E+00 0.  1.
         36    2    1    2    0    0  0.35527136788E-14  0.71054273576E-14  0.13457812294E+02  0.27521335521E+03  0.27488411772E+03 0.  0.
         25    2    3    3    0    0  0.31210369290E+02 -0.40519681995E+02  0.29485014869E+02  0.13710387146E+03  0.12374236820E+03 0.  0.
         25    2    3    3    0    0 -0.31210369290E+02  0.40519681995E+02 -0.16027202576E+02  0.13810948376E+03  0.12728482431E+03 0.  0.
          5    1    4    4  502    0 -0.38483435869E+02 -0.42939578768E+02  0.33931159299E+02  0.67068590506E+02  0.47000000000E+01 0.  1.
         -5    1    4    4    0  502  0.69693805158E+02  0.24198967739E+01 -0.44461444292E+01  0.70035280953E+02  0.47000000000E+01 0.  1.
          5    1    5    5  503    0  0.28222904790E+02  0.63021030957E+02 -0.25348397330E+02  0.73707624740E+02  0.47000000000E+01 0.  1.
         -5    1    5    5    0  503 -0.59433274079E+02 -0.22501348963E+02  0.93211947545E+01  0.64401859015E+02  0.47000000000E+01 0.  1.
<mgrwt>
<rscale>  0 0.27488412E+03</rscale>
<asrwt>0</asrwt>
<pdfrwt beam="1">  1        1 0.22205475E-01 0.27488412E+03</pdfrwt>
<pdfrwt beam="2">  1       -1 0.20135042E-01 0.27488412E+03</pdfrwt>
<totfact> 0.44175207E+03</totfact>
</mgrwt>
</event>
<event>
 9    1  0.2094635E-002  0.2743673E+03  0.7818608E-02  0.1098806E+00
         -2   -1    0    0    0  501 -0.00000000000E+00  0.00000000000E+00  0.70179808253E+01  0.70179808253E+01  0.00000000000E+00 0.  1.
          2   -1    0    0  501    0  0.00000000000E+00 -0.00000000000E+00 -0.26815906085E+04  0.26815906085E+04  0.00000000000E+00 0.  1.
         36    2    1    2    0    0  0.00000000000E+00  0.00000000000E+00 -0.26745726277E+04  0.26886085893E+04  0.27436728283E+03 0.  0.
         25    2    3    3    0    0  0.36104508531E+02 -0.43160361775E+02 -0.13804640451E+04  0.13874162079E+04  0.12679275185E+03 0.  0.
         25    2    3    3    0    0 -0.36104508531E+02  0.43160361775E+02 -0.12941085826E+04  0.13011923814E+04  0.12336222061E+03 0.  0.
          5    1    4    4  502    0  0.48537168001E+01  0.31843152714E+02 -0.12029274955E+03  0.12461934254E+03  0.47000000000E+01 0.  1.
         -5    1    4    4    0  502  0.31250791731E+02 -0.75003514489E+02 -0.12601712955E+04  0.12627968654E+04  0.47000000000E+01 0.  1.
          5    1    5    5  503    0  0.49867691172E+01  0.22339483543E+02 -0.11409028234E+04  0.11411420870E+04  0.47000000000E+01 0.  1.
         -5    1    5    5    0  503 -0.41091277648E+02  0.20820878232E+02 -0.15320575927E+03  0.16005029442E+03  0.47000000000E+01 0.  1.
<mgrwt>
<rscale>  0 0.27436728E+03</rscale>
<asrwt>0</asrwt>
<pdfrwt beam="1">  1        2 0.41255249E+00 0.27436728E+03</pdfrwt>
<pdfrwt beam="2">  1       -2 0.10796891E-02 0.27436728E+03</pdfrwt>
<totfact> 0.60646872E+03</totfact>
</mgrwt>
</event>
<event>
 9    1  0.2094635E-002  0.2714001E+03  0.7818608E-02  0.1100481E+00
         -2   -1    0    0    0  501 -0.00000000000E+00  0.00000000000E+00  0.15862959151E+02  0.15862959151E+02  0.00000000000E+00 0. -1.
          2   -1    0    0  501    0  0.00000000000E+00 -0.00000000000E+00 -0.11608494328E+04  0.11608494328E+04  0.00000000000E+00 0. -1.
         36    2    1    2    0    0 -0.35527136788E-14  0.00000000000E+00 -0.11449864737E+04  0.11767123920E+04  0.27140012626E+03 0.  0.
         25    2    3    3    0    0 -0.27685536735E+02 -0.51101149435E+02 -0.43418575647E+03  0.45468560353E+03  0.12183558807E+03 0.  0.
         25    2    3    3    0    0  0.27685536735E+02  0.51101149435E+02 -0.71080071721E+03  0.72202678845E+03  0.11272624908E+03 0.  0.
          5    1    4    4  502    0 -0.50751472607E+02 -0.72227517007E+01 -0.68822225169E+02  0.85944568130E+02  0.47000000000E+01 0. -1.
         -5    1    4    4    0  502  0.23065935872E+02 -0.43878397734E+02 -0.36536353130E+03  0.36874103540E+03  0.47000000000E+01 0. -1.
          5    1    5    5  503    0  0.57535559956E+02  0.13028629495E+02 -0.19098884406E+03  0.19994727906E+03  0.47000000000E+01 0.  1.
         -5    1    5    5    0  503 -0.29850023221E+02  0.38072519940E+02 -0.51981187315E+03  0.52207950939E+03  0.47000000000E+01 0.  1.
<mgrwt>
<rscale>  0 0.27140013E+03</rscale>
<asrwt>0</asrwt>
<pdfrwt beam="1">  1        2 0.17859225E+00 0.27140013E+03</pdfrwt>
<pdfrwt beam="2">  1       -2 0.24404548E-02 0.27140013E+03</pdfrwt>
<totfact> 0.12096924E+04</totfact>
</mgrwt>
</event>
<event>
 9    1  0.2094635E-002  0.2759553E+03  0.7818608E-02  0.1097919E+00
         -1   -1    0    0    0  501 -0.00000000000E+00  0.00000000000E+00  0.44915779376E+03  0.44915779376E+03  0.00000000000E+00 0. -1.
          1   -1    0    0  501    0  0.00000000000E+00 -0.00000000000E+00 -0.42385609345E+02  0.42385609345E+02  0.00000000000E+00 0. -1.
         36    2    1    2    0    0  0.00000000000E+00  0.17763568394E-14  0.40677218442E+03  0.49154340311E+03  0.27595526290E+03 0.  0.
         25    2    3    3    0    0  0.14065199990E+02 -0.16611770879E+01  0.10169730700E+03  0.16241306909E+03  0.12583748806E+03 0.  0.
         25    2    3    3    0    0 -0.14065199990E+02  0.16611770879E+01  0.30507487742E+03  0.32913033401E+03  0.12270088254E+03 0.  0.
          5    1    4    4  502    0  0.42138576490E+02 -0.30218350564E+02  0.10958824483E+03  0.12132799242E+03  0.47000000000E+01 0.  1.
         -5    1    4    4    0  502 -0.28073376500E+02  0.28557173476E+02 -0.78909378371E+01  0.41085076670E+02  0.47000000000E+01 0.  1.
          5    1    5    5  503    0 -0.61680289992E+01  0.80611910309E+01  0.31437460380E+03  0.31457353496E+03  0.47000000000E+01 0. -1.
         -5    1    5    5    0  503 -0.78971709905E+01 -0.64000139431E+01 -0.92997263772E+01  0.14556799058E+02  0.47000000000E+01 0. -1.
<mgrwt>
<rscale>  0 0.27595526E+03</rscale>
<asrwt>0</asrwt>
<pdfrwt beam="1">  1        1 0.65208633E-02 0.27595526E+03</pdfrwt>
<pdfrwt beam="2">  1       -1 0.69101196E-01 0.27595526E+03</pdfrwt>
<totfact> 0.25282975E+03</totfact>
</mgrwt>
</event>
<event>
 9    1  0.2094635E-002  0.2747508E+03  0.7818608E-02  0.1098591E+00
         -1   -1    0    0    0  501 -0.00000000000E+00  0.00000000000E+00  0.18671915898E+02  0.18671915898E+02  0.00000000000E+00 0. -1.
          1   -1    0    0  501    0  0.00000000000E+00 -0.00000000000E+00 -0.10107155366E+04  0.10107155366E+04  0.00000000000E+00 0. -1.
         36    2    1    2    0    0  0.71054273576E-14  0.71054273576E-14 -0.99204362074E+03  0.10293874525E+04  0.27475076340E+03 0.  0.
         25    2    3    3    0    0  0.44960521370E+02 -0.60938310077E+01 -0.42681672246E+03  0.44617551001E+03  0.12182564552E+03 0.  0.
         25    2    3    3    0    0 -0.44960521370E+02  0.60938310077E+01 -0.56522689828E+03  0.58321194253E+03  0.13636766517E+03 0.  0.
          5    1    4    4  502    0  0.29115188159E+02 -0.58496488321E+02 -0.14585956109E+03  0.15989570003E+03  0.47000000000E+01 0.  1.
         -5    1    4    4    0  502  0.15845333211E+02  0.52402657313E+02 -0.28095716137E+03  0.28627980998E+03  0.47000000000E+01 0.  1.
          5    1    5    5  503    0 -0.24602311207E+02 -0.62818861489E+02 -0.34318831613E+03  0.34978821221E+03  0.47000000000E+01 0. -1.
         -5    1    5    5    0  503 -0.20358210163E+02  0.68912692497E+02 -0.22203858216E+03  0.23342373032E+03  0.47000000000E+01 0. -1.
<mgrwt>
<rscale>  0 0.27475076E+03</rscale>
<asrwt>0</asrwt>
<pdfrwt beam="1">  1        1 0.15549472E+00 0.27475076E+03</pdfrwt>
<pdfrwt beam="2">  1       -1 0.28726020E-02 0.27475076E+03</pdfrwt>
<totfact> 0.63096485E+03</totfact>
</mgrwt>
</event>
<event>
 9    1  0.2094635E-002  0.2749637E+03  0.7818608E-02  0.1098472E+00
         -3   -1    0    0    0  501 -0.00000000000E+00  0.00000000000E+00  0.46740981781E+03  0.46740981781E+03  0.00000000000E+00 0.  1.
          3   -1    0    0  501    0  0.00000000000E+00 -0.00000000000E+00 -0.40438301953E+02  0.40438301953E+02  0.00000000000E+00 0.  1.
         36    2    1    2    0    0 -0.71054273576E-14  0.00000000000E+00  0.42697151586E+03  0.50784811976E+03  0.27496370196E+03 0.  0.
         25    2    3    3    0    0  0.33534778479E+02  0.30634620038E+01  0.30064119645E+03  0.32562202463E+03  0.12045998403E+03 0.  0.
         25    2    3    3    0    0 -0.33534778479E+02 -0.30634620038E+01  0.12633031941E+03  0.18222609513E+03  0.12693712609E+03 0.  0.
          5    1    4    4  502    0 -0.93118287634E+01 -0.29775851527E+02  0.24825544685E+03  0.25025220954E+03  0.47000000000E+01 0. -1.
         -5    1    4    4    0  502  0.42846607242E+02  0.32839313531E+02  0.52385749598E+02  0.75369815087E+02  0.47000000000E+01 0. -1.
          5    1    5    5  503    0  0.25930016778E+02 -0.19592893904E+02  0.11461846320E+03  0.11922973357E+03  0.47000000000E+01 0. -1.
         -5    1    5    5    0  503 -0.59464795257E+02  0.16529431901E+02  0.11711856205E+02  0.62996361559E+02  0.47000000000E+01 0. -1.
<mgrwt>
<rscale>  0 0.27496370E+03</rscale>
<asrwt>0</asrwt>
<pdfrwt beam="1">  1        3 0.62212775E-02 0.27496370E+03</pdfrwt>
<pdfrwt beam="2">  1       -3 0.71909199E-01 0.27496370E+03</pdfrwt>
<totfact> 0.76626119E+02</totfact>
</mgrwt>
</event>
<event>
 9    1  0.2094635E-002  0.2750933E+03  0.7818608E-02  0.1098399E+00
          1   -1    0    0  501    0  0.00000000000E+00  0.00000000000E+00  0.21243801042E+02  0.21243801042E+02  0.00000000000E+00 0. -1.
         -1   -1    0    0    0  501 -0.00000000000E+00 -0.00000000000E+00 -0.89056962790E+03  0.89056962790E+03  0.00000000000E+00 0. -1.
         36    2    1    2    0    0 -0.71054273576E-14 -0.35527136788E-14 -0.86932582685E+03  0.91181342894E+03  0.27509332226E+03 0.  0.
         25    2    3    3    0    0  0.23372307136E+02 -0.17049079917E+02 -0.28391550938E+03  0.31289802904E+03  0.12829740545E+03 0.  0.
         25    2    3    3    0    0 -0.23372307136E+02  0.17049079917E+02 -0.58541031748E+03  0.59891539990E+03  0.12311572020E+03 0.  0.
          5    1    4    4  502    0 -0.21689851819E+02 -0.41242105306E+02 -0.34294865777E+02  0.58048158806E+02  0.47000000000E+01 0.  1.
         -5    1    4    4    0  502  0.45062158955E+02  0.24193025389E+02 -0.24962064360E+03  0.25484987023E+03  0.47000000000E+01 0.  1.
          5    1    5    5  503    0  0.45042814436E+02 -0.12354540632E+02 -0.15049937839E+03  0.15765038123E+03  0.47000000000E+01 0. -1.
         -5    1    5    5    0  503 -0.68415121573E+02  0.29403620549E+02 -0.43491093909E+03  0.44126501867E+03  0.47000000000E+01 0. -1.
<mgrwt>
<rscale>  0 0.27509332E+03</rscale>
<asrwt>0</asrwt>
<pdfrwt beam="1">  1        1 0.32682767E-02 0.27509332E+03</pdfrwt>
<pdfrwt beam="2">  1       -1 0.13701073E+00 0.27509332E+03</pdfrwt>
<totfact> 0.14419673E+03</totfact>
</mgrwt>
</event>
<event>
 9    1  0.2094635E-002  0.2746764E+03  0.7818608E-02  0.1098633E+00
         -1   -1    0    0    0  501 -0.00000000000E+00  0.00000000000E+00  0.34967545134E+02  0.34967545134E+02  0.00000000000E+00 0. -1.
          1   -1    0    0  501    0  0.00000000000E+00 -0.00000000000E+00 -0.53940836916E+03  0.53940836916E+03  0.00000000000E+00 0. -1.
         36    2    1    2    0    0  0.00000000000E+00  0.00000000000E+00 -0.50444082402E+03  0.57437591429E+03  0.27467643870E+03 0.  0.
         25    2    3    3    0    0 -0.66327813089E+01 -0.65491829316E+02 -0.28689860971E+03  0.31971729417E+03  0.12480049054E+03 0.  0.
         25    2    3    3    0    0  0.66327813089E+01  0.65491829316E+02 -0.21754221431E+03  0.25465862013E+03  0.11486176171E+03 0.  0.
          5    1    4    4  502    0  0.50294438995E+01 -0.10049658209E+03 -0.23668192259E+03  0.25722612775E+03  0.47000000000E+01 0. -1.
         -5    1    4    4    0  502 -0.11662225208E+02  0.35004752777E+02 -0.50216687125E+02  0.62491166413E+02  0.47000000000E+01 0. -1.
          5    1    5    5  503    0 -0.46380645477E+02 -0.15887548615E+01 -0.71740039963E+02  0.85571091793E+02  0.47000000000E+01 0. -1.
         -5    1    5    5    0  503  0.53013426786E+02  0.67080584177E+02 -0.14580217435E+03  0.16908752833E+03  0.47000000000E+01 0. -1.
<mgrwt>
<rscale>  0 0.27467644E+03</rscale>
<asrwt>0</asrwt>
<pdfrwt beam="1">  1        1 0.82985890E-01 0.27467644E+03</pdfrwt>
<pdfrwt beam="2">  1       -1 0.53796232E-02 0.27467644E+03</pdfrwt>
<totfact> 0.63945096E+03</totfact>
</mgrwt>
</event>
<event>
 9    1  0.2094635E-002  0.2759726E+03  0.7818608E-02  0.1097909E+00
          1   -1    0    0  501    0  0.00000000000E+00  0.00000000000E+00  0.58825867242E+03  0.58825867242E+03  0.00000000000E+00 0.  1.
         -1   -1    0    0    0  501 -0.00000000000E+00 -0.00000000000E+00 -0.32367093973E+02  0.32367093973E+02  0.00000000000E+00 0.  1.
         36    2    1    2    0    0  0.00000000000E+00  0.17763568394E-14  0.55589157845E+03  0.62062576639E+03  0.27597263437E+03 0.  0.
         25    2    3    3    0    0  0.52767438539E+02 -0.54584371744E+01  0.33831655923E+03  0.36431829763E+03  0.12432027441E+03 0.  0.
         25    2    3    3    0    0 -0.52767438539E+02  0.54584371744E+01  0.21757501921E+03  0.25630746877E+03  0.12466127086E+03 0.  0.
          5    1    4    4  502    0 -0.25641651336E+02 -0.16670779470E+02  0.21406909441E+02  0.37626519148E+02  0.47000000000E+01 0.  1.
         -5    1    4    4    0  502  0.78409089875E+02  0.11212342296E+02  0.31690964979E+03  0.32669177848E+03  0.47000000000E+01 0.  1.
          5    1    5    5  503    0  0.26313462489E+01 -0.46492745913E+02  0.34792980332E+02  0.58319301144E+02  0.47000000000E+01 0.  1.
         -5    1    5    5    0  503 -0.55398784787E+02  0.51951183087E+02  0.18278203888E+03  0.19798816762E+03  0.47000000000E+01 0.  1.
<mgrwt>
<rscale>  0 0.27597263E+03</rscale>
<asrwt>0</asrwt>
<pdfrwt beam="1">  1        1 0.90501326E-01 0.27597263E+03</pdfrwt>
<pdfrwt beam="2">  1       -1 0.49795534E-02 0.27597263E+03</pdfrwt>
<totfact> 0.63794776E+03</totfact>
</mgrwt>
</event>
<event>
 9    1  0.2094635E-002  0.2692877E+03  0.7818608E-02  0.1101688E+00
          2   -1    0    0  501    0  0.00000000000E+00  0.00000000000E+00  0.59929683682E+03  0.59929683682E+03  0.00000000000E+00 0. -1.
         -2   -1    0    0    0  501 -0.00000000000E+00 -0.00000000000E+00 -0.30250395612E+02  0.30250395612E+02  0.00000000000E+00 0. -1.
         36    2    1    2    0    0  0.00000000000E+00  0.00000000000E+00  0.56904644121E+03  0.62954723243E+03  0.26928770045E+03 0.  0.
         25    2    3    3    0    0  0.25076718071E+02  0.69800417448E+01  0.39750435137E+03  0.41638543793E+03  0.12120049830E+03 0.  0.
         25    2    3    3    0    0 -0.25076718071E+02 -0.69800417448E+01  0.17154208983E+03  0.21316179450E+03  0.12382931510E+03 0.  0.
          5    1    4    4  502    0 -0.16714794311E+02 -0.20343430142E+02  0.15114770841E+02  0.30721096927E+02  0.47000000000E+01 0. -1.
         -5    1    4    4    0  502  0.41791512381E+02  0.27323471887E+02  0.38238958053E+03  0.38566434100E+03  0.47000000000E+01 0. -1.
          5    1    5    5  503    0 -0.46631488304E+02  0.20503210811E+02  0.15886349075E+02  0.53566252828E+02  0.47000000000E+01 0. -1.
         -5    1    5    5    0  503  0.21554770234E+02 -0.27483252556E+02  0.15565574076E+03  0.15959554167E+03  0.47000000000E+01 0. -1.
<mgrwt>
<rscale>  0 0.26928770E+03</rscale>
<asrwt>0</asrwt>
<pdfrwt beam="1">  1        2 0.92199505E-01 0.26928770E+03</pdfrwt>
<pdfrwt beam="2">  1       -2 0.46539075E-02 0.26928770E+03</pdfrwt>
<totfact> 0.10971394E+04</totfact>
</mgrwt>
</event>
<event>
 9    1  0.2094635E-002  0.2758078E+03  0.7818608E-02  0.1098001E+00
          2   -1    0    0  501    0  0.00000000000E+00  0.00000000000E+00  0.22643600544E+04  0.22643600544E+04  0.00000000000E+00 0.  1.
         -2   -1    0    0    0  501 -0.00000000000E+00 -0.00000000000E+00 -0.83986131985E+01  0.83986131985E+01  0.00000000000E+00 0.  1.
         36    2    1    2    0    0  0.35527136788E-14  0.00000000000E+00  0.22559614412E+04  0.22727586676E+04  0.27580778988E+03 0.  0.
         25    2    3    3    0    0 -0.79468722229E+01 -0.56204589741E+02  0.10631368219E+04  0.10717154187E+04  0.12284920812E+03 0.  0.
         25    2    3    3    0    0  0.79468722229E+01  0.56204589741E+02  0.11928246193E+04  0.12010432489E+04  0.12826614753E+03 0.  0.
          5    1    4    4  502    0  0.21258281671E+02  0.21419368038E+02  0.90029910668E+02  0.95069336179E+02  0.47000000000E+01 0.  1.
         -5    1    4    4    0  502 -0.29205153894E+02 -0.77623957779E+02  0.97310691121E+03  0.97664608251E+03  0.47000000000E+01 0.  1.
          5    1    5    5  503    0  0.45035783838E+02  0.26152117415E+02  0.10293336440E+04  0.10306609509E+04  0.47000000000E+01 0. -1.
         -5    1    5    5    0  503 -0.37088911615E+02  0.30052472325E+02  0.16349097532E+03  0.17038229799E+03  0.47000000000E+01 0. -1.
<mgrwt>
<rscale>  0 0.27580779E+03</rscale>
<asrwt>0</asrwt>
<pdfrwt beam="1">  1        2 0.34836260E+00 0.27580779E+03</pdfrwt>
<pdfrwt beam="2">  1       -2 0.12920961E-02 0.27580779E+03</pdfrwt>
<totfact> 0.78956054E+03</totfact>
</mgrwt>
</event>
<event>
 9    1  0.2094635E-002  0.2751116E+03  0.7818608E-02  0.1098389E+00
         -1   -1    0    0    0  501 -0.00000000000E+00  0.00000000000E+00  0.68407726268E+02  0.68407726268E+02  0.00000000000E+00 0.  1.
          1   -1    0    0  501    0  0.00000000000E+00 -0.00000000000E+00 -0.27660030449E+03  0.27660030449E+03  0.00000000000E+00 0.  1.
         36    2    1    2    0    0  0.71054273576E-14 -0.35527136788E-14 -0.20819257822E+03  0.34500803076E+03  0.27511159856E+03 0.  0.
         25    2    3    3    0    0  0.33037263571E+02 -0.13561369840E+02 -0.28897978045E+02  0.13241761508E+03  0.12419323698E+03 0.  0.
         25    2    3    3    0    0 -0.33037263571E+02  0.13561369840E+02 -0.17929460018E+03  0.21259041568E+03  0.10850234859E+03 0.  0.
          5    1    4    4  502    0  0.72529030951E+02 -0.63262005293E+01  0.13104057953E+02  0.74123461054E+02  0.47000000000E+01 0.  1.
         -5    1    4    4    0  502 -0.39491767380E+02 -0.72351693109E+01 -0.42002035998E+02  0.58294154027E+02  0.47000000000E+01 0.  1.
          5    1    5    5  503    0 -0.12718278241E+01  0.41102989492E+02 -0.16145895875E+03  0.16667980877E+03  0.47000000000E+01 0.  1.
         -5    1    5    5    0  503 -0.31765435747E+02 -0.27541619652E+02 -0.17835641424E+02  0.45910606904E+02  0.47000000000E+01 0.  1.
<mgrwt>
<rscale>  0 0.27511160E+03</rscale>
<asrwt>0</asrwt>
<pdfrwt beam="1">  1        1 0.42553892E-01 0.27511160E+03</pdfrwt>
<pdfrwt beam="2">  1       -1 0.10524266E-01 0.27511160E+03</pdfrwt>
<totfact> 0.54306412E+03</totfact>
</mgrwt>
</event>
<event>
 9    1  0.2094635E-002  0.2750323E+03  0.7818608E-02  0.1098434E+00
         -2   -1    0    0    0  501 -0.00000000000E+00  0.00000000000E+00  0.11331632855E+02  0.11331632855E+02  0.00000000000E+00 0.  1.
          2   -1    0    0  501    0  0.00000000000E+00 -0.00000000000E+00 -0.16688410111E+04  0.16688410111E+04  0.00000000000E+00 0.  1.
         36    2    1    2    0    0  0.00000000000E+00 -0.71054273576E-14 -0.16575093782E+04  0.16801726439E+04  0.27503231542E+03 0.  0.
         25    2    3    3    0    0  0.16135139271E+02  0.37434329378E+02 -0.60427087664E+03  0.61853325852E+03  0.12561221198E+03 0.  0.
         25    2    3    3    0    0 -0.16135139271E+02 -0.37434329378E+02 -0.10532385016E+04  0.10616393854E+04  0.12690615320E+03 0.  0.
          5    1    4    4  502    0 -0.83348113557E+01  0.80745095522E+02 -0.40610556278E+03  0.41416549548E+03  0.47000000000E+01 0. -1.
         -5    1    4    4    0  502  0.24469950626E+02 -0.43310766144E+02 -0.19816531386E+03  0.20436776303E+03  0.47000000000E+01 0. -1.
          5    1    5    5  503    0  0.18590239463E+02 -0.26811120723E+02 -0.66494192639E+02  0.74215907004E+02  0.47000000000E+01 0.  1.
         -5    1    5    5    0  503 -0.34725378733E+02 -0.10623208655E+02 -0.98674430895E+03  0.98742347842E+03  0.47000000000E+01 0.  1.
<mgrwt>
<rscale>  0 0.27503232E+03</rscale>
<asrwt>0</asrwt>
<pdfrwt beam="1">  1        2 0.25674494E+00 0.27503232E+03</pdfrwt>
<pdfrwt beam="2">  1       -2 0.17433270E-02 0.27503232E+03</pdfrwt>
<totfact> 0.10499680E+04</totfact>
</mgrwt>
</event>
<event>
 9    1  0.2094635E-002  0.2742101E+03  0.7818608E-02  0.1098894E+00
         -1   -1    0    0    0  501 -0.00000000000E+00  0.00000000000E+00  0.56840761539E+03  0.56840761539E+03  0.00000000000E+00 0.  1.
          1   -1    0    0  501    0  0.00000000000E+00 -0.00000000000E+00 -0.33070975844E+02  0.33070975844E+02  0.00000000000E+00 0.  1.
         36    2    1    2    0    0 -0.17763568394E-14  0.71054273576E-14  0.53533663955E+03  0.60147859123E+03  0.27421009841E+03 0.  0.
         25    2    3    3    0    0 -0.23498671630E+01 -0.32427265522E+02  0.16686764580E+03  0.21213307459E+03  0.12688018243E+03 0.  0.
         25    2    3    3    0    0  0.23498671630E+01  0.32427265522E+02  0.36846899375E+03  0.38934551665E+03  0.12150507214E+03 0.  0.
          5    1    4    4  502    0 -0.10148207297E+02 -0.28785453208E+02  0.18710951904E+03  0.18964084619E+03  0.47000000000E+01 0.  1.
         -5    1    4    4    0  502  0.77983401337E+01 -0.36418123134E+01 -0.20241873244E+02  0.22492228396E+02  0.47000000000E+01 0.  1.
          5    1    5    5  503    0 -0.50520745085E+02  0.33023031847E+02  0.11074566801E+03  0.12621235795E+03  0.47000000000E+01 0. -1.
         -5    1    5    5    0  503  0.52870612248E+02 -0.59576632578E+00  0.25772332573E+03  0.26313315869E+03  0.47000000000E+01 0. -1.
<mgrwt>
<rscale>  0 0.27421010E+03</rscale>
<asrwt>0</asrwt>
<pdfrwt beam="1">  1        1 0.50878428E-02 0.27421010E+03</pdfrwt>
<pdfrwt beam="2">  1       -1 0.87447318E-01 0.27421010E+03</pdfrwt>
<totfact> 0.21924056E+03</totfact>
</mgrwt>
</event>
<event>
 9    1  0.2094635E-002  0.2746852E+03  0.7818608E-02  0.1098628E+00
          2   -1    0    0  501    0  0.00000000000E+00  0.00000000000E+00  0.20654582035E+03  0.20654582035E+03  0.00000000000E+00 0. -1.
         -2   -1    0    0    0  501 -0.00000000000E+00 -0.00000000000E+00 -0.91325926203E+02  0.91325926203E+02  0.00000000000E+00 0. -1.
         36    2    1    2    0    0  0.35527136788E-14  0.71054273576E-14  0.11521989415E+03  0.29787174655E+03  0.27468518960E+03 0.  0.
         25    2    3    3    0    0 -0.30960006783E+02 -0.35525339711E+02  0.82861492924E+02  0.16339982947E+03  0.13271362205E+03 0.  0.
         25    2    3    3    0    0  0.30960006783E+02  0.35525339711E+02  0.32358401222E+02  0.13447191708E+03  0.12171712523E+03 0.  0.
          5    1    4    4  502    0 -0.75361574993E+02 -0.53378773782E+02  0.59299968359E+02  0.10985097507E+03  0.47000000000E+01 0. -1.
         -5    1    4    4    0  502  0.44401568210E+02  0.17853434071E+02  0.23561524566E+02  0.53548854399E+02  0.47000000000E+01 0. -1.
          5    1    5    5  503    0  0.90616813560E+01 -0.44307349385E+02  0.41113171674E-02  0.45468068965E+02  0.47000000000E+01 0. -1.
         -5    1    5    5    0  503  0.21898325427E+02  0.79832689096E+02  0.32354289905E+02  0.89003848119E+02  0.47000000000E+01 0. -1.
<mgrwt>
<rscale>  0 0.27468519E+03</rscale>
<asrwt>0</asrwt>
<pdfrwt beam="1">  1        2 0.31776280E-01 0.27468519E+03</pdfrwt>
<pdfrwt beam="2">  1       -2 0.14050143E-01 0.27468519E+03</pdfrwt>
<totfact> 0.62310712E+03</totfact>
</mgrwt>
</event>
<event>
 9    1  0.2094635E-002  0.2740440E+03  0.7818608E-02  0.1098987E+00
          1   -1    0    0  501    0  0.00000000000E+00  0.00000000000E+00  0.98370592448E+03  0.98370592448E+03  0.00000000000E+00 0.  1.
         -1   -1    0    0    0  501 -0.00000000000E+00 -0.00000000000E+00 -0.19086017101E+02  0.19086017101E+02  0.00000000000E+00 0.  1.
         36    2    1    2    0    0  0.00000000000E+00  0.00000000000E+00  0.96461990738E+03  0.10027919416E+04  0.27404399718E+03 0.  0.
         25    2    3    3    0    0 -0.27662113613E+02 -0.35890517248E+02  0.60164796874E+03  0.61588643157E+03  0.12362239503E+03 0.  0.
         25    2    3    3    0    0  0.27662113613E+02  0.35890517248E+02  0.36297193864E+03  0.38690551001E+03  0.12607110563E+03 0.  0.
          5    1    4    4  502    0 -0.65311237954E+02  0.11301885305E+02  0.39497234158E+03  0.40052282211E+03  0.47000000000E+01 0. -1.
         -5    1    4    4    0  502  0.37649124341E+02 -0.47192402552E+02  0.20667562715E+03  0.21536360946E+03  0.47000000000E+01 0. -1.
          5    1    5    5  503    0  0.68691207959E+02  0.28131372092E+02  0.31251046047E+03  0.32123937189E+03  0.47000000000E+01 0.  1.
         -5    1    5    5    0  503 -0.41029094346E+02  0.77591451551E+01  0.50461478172E+02  0.65666138121E+02  0.47000000000E+01 0.  1.
<mgrwt>
<rscale>  0 0.27404400E+03</rscale>
<asrwt>0</asrwt>
<pdfrwt beam="1">  1        1 0.15133933E+00 0.27404400E+03</pdfrwt>
<pdfrwt beam="2">  1       -1 0.29363111E-02 0.27404400E+03</pdfrwt>
<totfact> 0.63999939E+03</totfact>
</mgrwt>
</event>
<event>
 9    1  0.2094635E-002  0.2762599E+03  0.7818608E-02  0.1097749E+00
         -2   -1    0    0    0  501 -0.00000000000E+00  0.00000000000E+00  0.21023848897E+02  0.21023848897E+02  0.00000000000E+00 0. -1.
          2   -1    0    0  501    0  0.00000000000E+00 -0.00000000000E+00 -0.90753535237E+03  0.90753535237E+03  0.00000000000E+00 0. -1.
         36    2    1    2    0    0  0.71054273576E-14 -0.14210854715E-13 -0.88651150347E+03  0.92855920127E+03  0.27625992194E+03 0.  0.
         25    2    3    3    0    0  0.22395766077E+02 -0.53637332277E+02 -0.49963910530E+03  0.51808461917E+03  0.12407216983E+03 0.  0.
         25    2    3    3    0    0 -0.22395766077E+02  0.53637332277E+02 -0.38687239817E+03  0.41047458209E+03  0.12426019606E+03 0.  0.
          5    1    4    4  502    0  0.64984949161E+02 -0.30022642573E+02 -0.40745596350E+03  0.41372316212E+03  0.47000000000E+01 0.  1.
         -5    1    4    4    0  502 -0.42589183085E+02 -0.23614689704E+02 -0.92183141797E+02  0.10436145705E+03  0.47000000000E+01 0.  1.
          5    1    5    5  503    0  0.19158752615E+02 -0.57921381407E+01 -0.42265001879E+01  0.20989520477E+02  0.47000000000E+01 0. -1.
         -5    1    5    5    0  503 -0.41554518692E+02  0.59429470418E+02 -0.38264589799E+03  0.38948506162E+03  0.47000000000E+01 0. -1.
<mgrwt>
<rscale>  0 0.27625992E+03</rscale>
<asrwt>0</asrwt>
<pdfrwt beam="1">  1        2 0.13962082E+00 0.27625992E+03</pdfrwt>
<pdfrwt beam="2">  1       -2 0.32344383E-02 0.27625992E+03</pdfrwt>
<totfact> 0.11337387E+04</totfact>
</mgrwt>
</event>
<event>
 9    1  0.2094635E-002  0.2798063E+03  0.7818608E-02  0.1095795E+00
          1   -1    0    0  501    0  0.00000000000E+00  0.00000000000E+00  0.14539868904E+03  0.14539868904E+03  0.00000000000E+00 0.  1.
         -1   -1    0    0    0  501 -0.00000000000E+00 -0.00000000000E+00 -0.13461532878E+03  0.13461532878E+03  0.00000000000E+00 0.  1.
         36    2    1    2    0    0  0.35527136788E-14  0.00000000000E+00  0.10783360268E+02  0.28001401782E+03  0.27980630678E+03 0.  0.
         25    2    3    3    0    0  0.27424835883E+02  0.31921097588E+02  0.31303580758E+02  0.13370082430E+03  0.12298340602E+03 0.  0.
         25    2    3    3    0    0 -0.27424835883E+02 -0.31921097588E+02 -0.20520220491E+02  0.14631319351E+03  0.13861959837E+03 0.  0.
          5    1    4    4  502    0 -0.25662157433E+02  0.60827004786E+02  0.16447049925E+01  0.66206237545E+02  0.47000000000E+01 0.  1.
         -5    1    4    4    0  502  0.53086993316E+02 -0.28905907197E+02  0.29658875766E+02  0.67494586760E+02  0.47000000000E+01 0.  1.
          5    1    5    5  503    0 -0.22291667193E+02 -0.52763745191E+02  0.47670605462E+02  0.74669323406E+02  0.47000000000E+01 0. -1.
         -5    1    5    5    0  503 -0.51331686905E+01  0.20842647603E+02 -0.68190825952E+02  0.71643870107E+02  0.47000000000E+01 0. -1.
<mgrwt>
<rscale>  0 0.27980631E+03</rscale>
<asrwt>0</asrwt>
<pdfrwt beam="1">  1        1 0.22369029E-01 0.27980631E+03</pdfrwt>
<pdfrwt beam="2">  1       -1 0.20710051E-01 0.27980631E+03</pdfrwt>
<totfact> 0.41822103E+03</totfact>
</mgrwt>
</event>
<event>
 9    1  0.2094635E-002  0.2736401E+03  0.7818608E-02  0.1099214E+00
         -2   -1    0    0    0  501 -0.00000000000E+00  0.00000000000E+00  0.11501510848E+03  0.11501510848E+03  0.00000000000E+00 0. -1.
          2   -1    0    0  501    0  0.00000000000E+00 -0.00000000000E+00 -0.16275890096E+03  0.16275890096E+03  0.00000000000E+00 0. -1.
         36    2    1    2    0    0  0.00000000000E+00 -0.14210854715E-13 -0.47743792475E+02  0.27777400944E+03  0.27364014801E+03 0.  0.
         25    2    3    3    0    0  0.48358910230E+02 -0.21652718841E+02 -0.75039512617E+01  0.13924619605E+03  0.12855259390E+03 0.  0.
         25    2    3    3    0    0 -0.48358910230E+02  0.21652718841E+02 -0.40239841213E+02  0.13852781339E+03  0.12150426260E+03 0.  0.
          5    1    4    4  502    0  0.20443746318E+02 -0.75399350571E+02 -0.26729391804E+01  0.78308642141E+02  0.47000000000E+01 0.  1.
         -5    1    4    4    0  502  0.27915163913E+02  0.53746631730E+02 -0.48310120814E+01  0.60937553908E+02  0.47000000000E+01 0.  1.
          5    1    5    5  503    0 -0.79248907310E+02 -0.13458818435E+02 -0.43304327265E+02  0.91426931828E+02  0.47000000000E+01 0. -1.
         -5    1    5    5    0  503  0.30889997080E+02  0.35111537276E+02  0.30644860517E+01  0.47100881566E+02  0.47000000000E+01 0. -1.
<mgrwt>
<rscale>  0 0.27364015E+03</rscale>
<asrwt>0</asrwt>
<pdfrwt beam="1">  1        2 0.25039831E-01 0.27364015E+03</pdfrwt>
<pdfrwt beam="2">  1       -2 0.17694632E-01 0.27364015E+03</pdfrwt>
<totfact> 0.55249731E+03</totfact>
</mgrwt>
</event>
<event>
 9    1  0.2094635E-002  0.2746741E+03  0.7818608E-02  0.1098634E+00
          1   -1    0    0  501    0  0.00000000000E+00  0.00000000000E+00  0.39829993860E+03  0.39829993860E+03  0.00000000000E+00 0. -1.
         -1   -1    0    0    0  501 -0.00000000000E+00 -0.00000000000E+00 -0.47354933007E+02  0.47354933007E+02  0.00000000000E+00 0. -1.
         36    2    1    2    0    0  0.00000000000E+00  0.00000000000E+00  0.35094500560E+03  0.44565487161E+03  0.27467411170E+03 0.  0.
         25    2    3    3    0    0 -0.17652001213E+02  0.22863817777E+02  0.96595023328E+02  0.16073180450E+03  0.12517894046E+03 0.  0.
         25    2    3    3    0    0  0.17652001213E+02 -0.22863817777E+02  0.25434998227E+03  0.28492306711E+03  0.12511152378E+03 0.  0.
          5    1    4    4  502    0 -0.55047676376E+02  0.22142502371E+02  0.10627927661E+03  0.12181096717E+03  0.47000000000E+01 0. -1.
         -5    1    4    4    0  502  0.37395675163E+02  0.72131540663E+00 -0.96842532806E+01  0.38920837330E+02  0.47000000000E+01 0. -1.
          5    1    5    5  503    0  0.73942397445E+01  0.32380630531E+02  0.21139536603E+03  0.21404034852E+03  0.47000000000E+01 0. -1.
         -5    1    5    5    0  503  0.10257761468E+02 -0.55244448308E+02  0.42954616238E+02  0.70882718595E+02  0.47000000000E+01 0. -1.
<mgrwt>
<rscale>  0 0.27467411E+03</rscale>
<asrwt>0</asrwt>
<pdfrwt beam="1">  1        1 0.61276911E-01 0.27467411E+03</pdfrwt>
<pdfrwt beam="2">  1       -1 0.72853746E-02 0.27467411E+03</pdfrwt>
<totfact> 0.60202771E+03</totfact>
</mgrwt>
</event>
<event>
 9    1  0.2094635E-002  0.2747974E+03  0.7818608E-02  0.1098565E+00
          2   -1    0    0  501    0  0.00000000000E+00  0.00000000000E+00  0.90240382514E+03  0.90240382514E+03  0.00000000000E+00 0. -1.
         -2   -1    0    0    0  501 -0.00000000000E+00 -0.00000000000E+00 -0.20920128899E+02  0.20920128899E+02  0.00000000000E+00 0. -1.
         36    2    1    2    0    0  0.00000000000E+00  0.00000000000E+00  0.88148369624E+03  0.92332395404E+03  0.27479741149E+03 0.  0.
         25    2    3    3    0    0  0.18127060907E+02 -0.38770159230E+02  0.53831869093E+03  0.55481208592E+03  0.12727027185E+03 0.  0.
         25    2    3    3    0    0 -0.18127060907E+02  0.38770159230E+02  0.34316500532E+03  0.36851186812E+03  0.12730695381E+03 0.  0.
          5    1    4    4  502    0  0.54313220023E+02 -0.49560319726E+02  0.47692489704E+03  0.48258221950E+03  0.47000000000E+01 0.  1.
         -5    1    4    4    0  502 -0.36186159116E+02  0.10790160496E+02  0.61393793884E+02  0.72229866416E+02  0.47000000000E+01 0.  1.
          5    1    5    5  503    0 -0.52212468533E+01  0.80936044188E+02  0.27845763049E+03  0.29006662450E+03  0.47000000000E+01 0.  1.
         -5    1    5    5    0  503 -0.12905814054E+02 -0.42165884958E+02  0.64707374824E+02  0.78445243625E+02  0.47000000000E+01 0.  1.
<mgrwt>
<rscale>  0 0.27479741E+03</rscale>
<asrwt>0</asrwt>
<pdfrwt beam="1">  1        2 0.13883133E+00 0.27479741E+03</pdfrwt>
<pdfrwt beam="2">  1       -2 0.32184821E-02 0.27479741E+03</pdfrwt>
<totfact> 0.11506599E+04</totfact>
</mgrwt>
</event>
<event>
 9    1  0.2094635E-002  0.2753510E+03  0.7818608E-02  0.1098256E+00
          2   -1    0    0  501    0  0.00000000000E+00  0.00000000000E+00  0.91934667153E+03  0.91934667153E+03  0.00000000000E+00 0. -1.
         -2   -1    0    0    0  501 -0.00000000000E+00 -0.00000000000E+00 -0.20617412705E+02  0.20617412705E+02  0.00000000000E+00 0. -1.
         36    2    1    2    0    0  0.00000000000E+00  0.14210854715E-13  0.89872925882E+03  0.93996408423E+03  0.27535104682E+03 0.  0.
         25    2    3    3    0    0  0.42450906656E+02 -0.34770820990E+02  0.52252963509E+03  0.53974266456E+03  0.12358735749E+03 0.  0.
         25    2    3    3    0    0 -0.42450906656E+02  0.34770820990E+02  0.37619962373E+03  0.40022141967E+03  0.12505973932E+03 0.  0.
          5    1    4    4  502    0  0.25579660343E+02  0.45088246455E+02  0.24243552820E+03  0.24796036846E+03  0.47000000000E+01 0.  1.
         -5    1    4    4    0  502  0.16871246313E+02 -0.79859067446E+02  0.28009410689E+03  0.29178229610E+03  0.47000000000E+01 0.  1.
          5    1    5    5  503    0 -0.34938043276E+01 -0.44794292781E+02  0.91929244280E+02  0.10242954304E+03  0.47000000000E+01 0.  1.
         -5    1    5    5    0  503 -0.38957102329E+02  0.79565113771E+02  0.28427037945E+03  0.29779187663E+03  0.47000000000E+01 0.  1.
<mgrwt>
<rscale>  0 0.27535105E+03</rscale>
<asrwt>0</asrwt>
<pdfrwt beam="1">  1        2 0.14143792E+00 0.27535105E+03</pdfrwt>
<pdfrwt beam="2">  1       -2 0.31719103E-02 0.27535105E+03</pdfrwt>
<totfact> 0.11469429E+04</totfact>
</mgrwt>
</event>
<event>
 9    1  0.2094635E-002  0.2760320E+03  0.7818608E-02  0.1097876E+00
          3   -1    0    0  501    0  0.00000000000E+00  0.00000000000E+00  0.23505883028E+03  0.23505883028E+03  0.00000000000E+00 0.  1.
         -3   -1    0    0    0  501 -0.00000000000E+00 -0.00000000000E+00 -0.81036779139E+02  0.81036779139E+02  0.00000000000E+00 0.  1.
         36    2    1    2    0    0 -0.71054273576E-14  0.14210854715E-13  0.15402205114E+03  0.31609560942E+03  0.27603195840E+03 0.  0.
         25    2    3    3    0    0 -0.24692962878E+02  0.44322177002E+02  0.51841351944E+02  0.14612185409E+03  0.12684586190E+03 0.  0.
         25    2    3    3    0    0  0.24692962878E+02 -0.44322177002E+02  0.10218069920E+03  0.16997375533E+03  0.12599993818E+03 0.  0.
          5    1    4    4  502    0 -0.27740956262E+02  0.67129459934E+02 -0.15831860119E+02  0.74489347159E+02  0.47000000000E+01 0. -1.
         -5    1    4    4    0  502  0.30479933845E+01 -0.22807282932E+02  0.67673212063E+02  0.71632506932E+02  0.47000000000E+01 0. -1.
          5    1    5    5  503    0  0.34034629867E+02 -0.16235827082E+02  0.12605410137E+03  0.13165745168E+03  0.47000000000E+01 0.  1.
         -5    1    5    5    0  503 -0.93416669899E+01 -0.28086349920E+02 -0.23873402172E+02  0.38316303648E+02  0.47000000000E+01 0.  1.
<mgrwt>
<rscale>  0 0.27603196E+03</rscale>
<asrwt>0</asrwt>
<pdfrwt beam="1">  1        3 0.36162897E-01 0.27603196E+03</pdfrwt>
<pdfrwt beam="2">  1       -3 0.12467197E-01 0.27603196E+03</pdfrwt>
<totfact> 0.97752201E+02</totfact>
</mgrwt>
</event>
<event>
 9    1  0.2094635E-002  0.2743574E+03  0.7818608E-02  0.1098811E+00
          1   -1    0    0  501    0  0.00000000000E+00  0.00000000000E+00  0.11409066000E+04  0.11409066000E+04  0.00000000000E+00 0. -1.
         -1   -1    0    0    0  501 -0.00000000000E+00 -0.00000000000E+00 -0.16493897628E+02  0.16493897628E+02  0.00000000000E+00 0. -1.
         36    2    1    2    0    0  0.00000000000E+00  0.00000000000E+00  0.11244127024E+04  0.11574004976E+04  0.27435740678E+03 0.  0.
         25    2    3    3    0    0 -0.51766294358E+02  0.94014758321E+01  0.51663070701E+03  0.53426470899E+03  0.12555219978E+03 0.  0.
         25    2    3    3    0    0  0.51766294358E+02 -0.94014758321E+01  0.60778199536E+03  0.62313578863E+03  0.12700834703E+03 0.  0.
          5    1    4    4  502    0  0.24593252537E+02 -0.19336235743E+02  0.41637033287E+02  0.52291974757E+02  0.47000000000E+01 0. -1.
         -5    1    4    4    0  502 -0.76359546896E+02  0.28737711575E+02  0.47499367373E+03  0.48197273424E+03  0.47000000000E+01 0. -1.
          5    1    5    5  503    0  0.41886896909E+02 -0.60020726426E+02  0.47469997670E+03  0.48033234079E+03  0.47000000000E+01 0.  1.
         -5    1    5    5    0  503  0.98793974497E+01  0.50619250594E+02  0.13308201866E+03  0.14280344784E+03  0.47000000000E+01 0.  1.
<mgrwt>
<rscale>  0 0.27435741E+03</rscale>
<asrwt>0</asrwt>
<pdfrwt beam="1">  1        1 0.17552403E+00 0.27435741E+03</pdfrwt>
<pdfrwt beam="2">  1       -1 0.25375236E-02 0.27435741E+03</pdfrwt>
<totfact> 0.60893551E+03</totfact>
</mgrwt>
</event>
<event>
 9    1  0.2094635E-002  0.2745942E+03  0.7818608E-02  0.1098679E+00
          1   -1    0    0  501    0  0.00000000000E+00  0.00000000000E+00  0.65798223449E+03  0.65798223449E+03  0.00000000000E+00 0.  1.
         -1   -1    0    0    0  501 -0.00000000000E+00 -0.00000000000E+00 -0.28648935944E+02  0.28648935944E+02  0.00000000000E+00 0.  1.
         36    2    1    2    0    0  0.71054273576E-14 -0.71054273576E-14  0.62933329855E+03  0.68663117043E+03  0.27459417975E+03 0.  0.
         25    2    3    3    0    0  0.25216441056E+02 -0.56122468225E+02  0.33345138403E+03  0.36243926921E+03  0.12801092927E+03 0.  0.
         25    2    3    3    0    0 -0.25216441056E+02  0.56122468225E+02  0.29588191451E+03  0.32419190122E+03  0.11734002362E+03 0.  0.
          5    1    4    4  502    0 -0.35928849596E+01  0.19608668204E+02  0.13080510549E+01  0.20523393692E+02  0.47000000000E+01 0.  1.
         -5    1    4    4    0  502  0.28809326015E+02 -0.75731136429E+02  0.33214333298E+03  0.34191587552E+03  0.47000000000E+01 0.  1.
          5    1    5    5  503    0  0.28215071286E+02  0.36552701583E+01  0.13186327442E+02  0.31708366073E+02  0.47000000000E+01 0. -1.
         -5    1    5    5    0  503 -0.53431512342E+02  0.52467198067E+02  0.28269558707E+03  0.29248353515E+03  0.47000000000E+01 0. -1.
<mgrwt>
<rscale>  0 0.27459418E+03</rscale>
<asrwt>0</asrwt>
<pdfrwt beam="1">  1        1 0.10122802E+00 0.27459418E+03</pdfrwt>
<pdfrwt beam="2">  1       -1 0.44075291E-02 0.27459418E+03</pdfrwt>
<totfact> 0.65409866E+03</totfact>
</mgrwt>
</event>
<event>
 9    1  0.2094635E-002  0.2751369E+03  0.7818608E-02  0.1098375E+00
          2   -1    0    0  501    0  0.00000000000E+00  0.00000000000E+00  0.13630597500E+04  0.13630597500E+04  0.00000000000E+00 0. -1.
         -2   -1    0    0    0  501 -0.00000000000E+00 -0.00000000000E+00 -0.13884263481E+02  0.13884263481E+02  0.00000000000E+00 0. -1.
         36    2    1    2    0    0  0.00000000000E+00  0.14210854715E-13  0.13491754865E+04  0.13769440134E+04  0.27513691652E+03 0.  0.
         25    2    3    3    0    0  0.30099647326E+02  0.45627727797E+02  0.66224566170E+03  0.67634714798E+03  0.12604868043E+03 0.  0.
         25    2    3    3    0    0 -0.30099647326E+02 -0.45627727797E+02  0.68692982478E+03  0.70059686545E+03  0.12639424590E+03 0.  0.
          5    1    4    4  502    0  0.75018050935E+02  0.39627721641E+01  0.33098521990E+03  0.33943588102E+03  0.47000000000E+01 0.  1.
         -5    1    4    4    0  502 -0.44918403609E+02  0.41664955633E+02  0.33126044179E+03  0.33691126697E+03  0.47000000000E+01 0.  1.
          5    1    5    5  503    0  0.43138792145E+02 -0.47291615961E+02  0.30613529228E+03  0.31279123950E+03  0.47000000000E+01 0.  1.
         -5    1    5    5    0  503 -0.73238439471E+02  0.16638881641E+01  0.38079453250E+03  0.38780562596E+03  0.47000000000E+01 0.  1.
<mgrwt>
<rscale>  0 0.27513692E+03</rscale>
<asrwt>0</asrwt>
<pdfrwt beam="1">  1        2 0.20970139E+00 0.27513692E+03</pdfrwt>
<pdfrwt beam="2">  1       -2 0.21360416E-02 0.27513692E+03</pdfrwt>
<totfact> 0.11353434E+04</totfact>
</mgrwt>
</event>
<event>
 9    1  0.2094635E-002  0.2766908E+03  0.7818608E-02  0.1097510E+00
          3   -1    0    0  501    0  0.00000000000E+00  0.00000000000E+00  0.79493728970E+02  0.79493728970E+02  0.00000000000E+00 0. -1.
         -3   -1    0    0    0  501 -0.00000000000E+00 -0.00000000000E+00 -0.24076685737E+03  0.24076685737E+03  0.00000000000E+00 0. -1.
         36    2    1    2    0    0 -0.71054273576E-14  0.35527136788E-14 -0.16127312840E+03  0.32026058634E+03  0.27669084050E+03 0.  0.
         25    2    3    3    0    0 -0.30871559480E+02  0.94829699120E+01 -0.13717070498E+03  0.18918650249E+03  0.12622499956E+03 0.  0.
         25    2    3    3    0    0  0.30871559480E+02 -0.94829699120E+01 -0.24102423416E+02  0.13107408385E+03  0.12472573407E+03 0.  0.
          5    1    4    4  502    0 -0.38548154415E+02 -0.44224564442E+02 -0.11726521926E+03  0.13120592196E+03  0.47000000000E+01 0.  1.
         -5    1    4    4    0  502  0.76765949345E+01  0.53707534354E+02 -0.19905485719E+02  0.57980580524E+02  0.47000000000E+01 0.  1.
          5    1    5    5  503    0  0.39239546697E+02  0.28724206469E+02 -0.60277202219E+02  0.77590290434E+02  0.47000000000E+01 0.  1.
         -5    1    5    5    0  503 -0.83679872169E+01 -0.38207176381E+02  0.36174778803E+02  0.53483793419E+02  0.47000000000E+01 0.  1.
<mgrwt>
<rscale>  0 0.27669084E+03</rscale>
<asrwt>0</asrwt>
<pdfrwt beam="1">  1        3 0.12229805E-01 0.27669084E+03</pdfrwt>
<pdfrwt beam="2">  1       -3 0.37041055E-01 0.27669084E+03</pdfrwt>
<totfact> 0.96445771E+02</totfact>
</mgrwt>
</event>
<event>
 9    1  0.2094635E-002  0.2750531E+03  0.7818608E-02  0.1098422E+00
          2   -1    0    0  501    0  0.00000000000E+00  0.00000000000E+00  0.44210399002E+03  0.44210399002E+03  0.00000000000E+00 0.  1.
         -2   -1    0    0    0  501 -0.00000000000E+00 -0.00000000000E+00 -0.42780763609E+02  0.42780763609E+02  0.00000000000E+00 0.  1.
         36    2    1    2    0    0 -0.35527136788E-14  0.00000000000E+00  0.39932322642E+03  0.48488475363E+03  0.27505305879E+03 0.  0.
         25    2    3    3    0    0  0.17480848544E+02 -0.22371240299E+02  0.19337657772E+03  0.22892605423E+03  0.11919137988E+03 0.  0.
         25    2    3    3    0    0 -0.17480848544E+02  0.22371240299E+02  0.20594664870E+03  0.25595869940E+03  0.14931437048E+03 0.  0.
          5    1    4    4  502    0 -0.11065834846E+02 -0.36373160547E+02  0.59552608962E+01  0.38768732780E+02  0.47000000000E+01 0.  1.
         -5    1    4    4    0  502  0.28546683390E+02  0.14001920248E+02  0.18742131682E+03  0.19015732145E+03  0.47000000000E+01 0.  1.
          5    1    5    5  503    0 -0.39925639190E+02  0.28274788185E+02  0.49945333707E+00  0.49151396371E+02  0.47000000000E+01 0.  1.
         -5    1    5    5    0  503  0.22444790646E+02 -0.59035478857E+01  0.20544719536E+03  0.20680730303E+03  0.47000000000E+01 0.  1.
<mgrwt>
<rscale>  0 0.27505306E+03</rscale>
<asrwt>0</asrwt>
<pdfrwt beam="1">  1        2 0.68015995E-01 0.27505306E+03</pdfrwt>
<pdfrwt beam="2">  1       -2 0.65816563E-02 0.27505306E+03</pdfrwt>
<totfact> 0.91085024E+03</totfact>
</mgrwt>
</event>
<event>
 9    1  0.2094635E-002  0.2744007E+03  0.7818608E-02  0.1098787E+00
          2   -1    0    0  501    0  0.00000000000E+00  0.00000000000E+00  0.11469154278E+04  0.11469154278E+04  0.00000000000E+00 0. -1.
         -2   -1    0    0    0  501 -0.00000000000E+00 -0.00000000000E+00 -0.16412665655E+02  0.16412665655E+02  0.00000000000E+00 0. -1.
         36    2    1    2    0    0  0.00000000000E+00  0.00000000000E+00  0.11305027622E+04  0.11633280935E+04  0.27440072487E+03 0.  0.
         25    2    3    3    0    0  0.37237827505E+02 -0.19283912416E+02  0.52544188992E+03  0.54107696802E+03  0.12213345390E+03 0.  0.
         25    2    3    3    0    0 -0.37237827505E+02  0.19283912416E+02  0.60506087227E+03  0.62225112548E+03  0.13906573602E+03 0.  0.
          5    1    4    4  502    0  0.28835158935E+02 -0.67532269098E+02  0.22758973872E+03  0.23918873914E+03  0.47000000000E+01 0.  1.
         -5    1    4    4    0  502  0.84026685701E+01  0.48248356682E+02  0.29785215120E+03  0.30188822888E+03  0.47000000000E+01 0.  1.
          5    1    5    5  503    0  0.19304818702E+02  0.25087365821E+02  0.51271415265E+03  0.51371192733E+03  0.47000000000E+01 0. -1.
         -5    1    5    5    0  503 -0.56542646207E+02 -0.58034534056E+01  0.92346719617E+02  0.10853919815E+03  0.47000000000E+01 0. -1.
<mgrwt>
<rscale>  0 0.27440072E+03</rscale>
<asrwt>0</asrwt>
<pdfrwt beam="1">  1        2 0.17644846E+00 0.27440072E+03</pdfrwt>
<pdfrwt beam="2">  1       -2 0.25250264E-02 0.27440072E+03</pdfrwt>
<totfact> 0.11720798E+04</totfact>
</mgrwt>
</event>
<event>
 9    1  0.2094635E-002  0.2752823E+03  0.7818608E-02  0.1098294E+00
          2   -1    0    0  501    0  0.00000000000E+00  0.00000000000E+00  0.30832466696E+04  0.30832466696E+04  0.00000000000E+00 0.  1.
         -2   -1    0    0    0  501 -0.00000000000E+00 -0.00000000000E+00 -0.61445246389E+01  0.61445246389E+01  0.00000000000E+00 0.  1.
         36    2    1    2    0    0  0.71054273576E-14 -0.35527136788E-14  0.30771021449E+04  0.30893911942E+04  0.27528229241E+03 0.  0.
         25    2    3    3    0    0  0.48579216338E+02 -0.16494295621E+02  0.20801837648E+04  0.20840337480E+04  0.11575908323E+03 0.  0.
         25    2    3    3    0    0 -0.48579216338E+02  0.16494295621E+02  0.99691838010E+03  0.10053574462E+04  0.11943758198E+03 0.  0.
          5    1    4    4  502    0 -0.22646362632E+02 -0.23231478124E+02  0.13364653566E+04  0.13368673452E+04  0.47000000000E+01 0.  1.
         -5    1    4    4    0  502  0.71225578970E+02  0.67371825029E+01  0.74371840826E+03  0.74716640283E+03  0.47000000000E+01 0.  1.
          5    1    5    5  503    0  0.27056842383E+02  0.23392379715E+02  0.12434164658E+03  0.12946895852E+03  0.47000000000E+01 0. -1.
         -5    1    5    5    0  503 -0.75636058720E+02 -0.68980840944E+01  0.87257673352E+03  0.87588848767E+03  0.47000000000E+01 0. -1.
<mgrwt>
<rscale>  0 0.27528229E+03</rscale>
<asrwt>0</asrwt>
<pdfrwt beam="1">  1        2 0.47434441E+00 0.27528229E+03</pdfrwt>
<pdfrwt beam="2">  1       -2 0.94531394E-03 0.27528229E+03</pdfrwt>
<totfact> 0.42987328E+03</totfact>
</mgrwt>
</event>
<event>
 9    1  0.2094635E-002  0.2760000E+03  0.7818608E-02  0.1097894E+00
         -2   -1    0    0    0  501 -0.00000000000E+00  0.00000000000E+00  0.23867567873E+02  0.23867567873E+02  0.00000000000E+00 0. -1.
          2   -1    0    0  501    0  0.00000000000E+00 -0.00000000000E+00 -0.79790263392E+03  0.79790263392E+03  0.00000000000E+00 0. -1.
         36    2    1    2    0    0  0.00000000000E+00  0.71054273576E-14 -0.77403506604E+03  0.82177020179E+03  0.27599996573E+03 0.  0.
         25    2    3    3    0    0 -0.38111331085E+02 -0.15972917451E+02 -0.41594355217E+03  0.43938177773E+03  0.13542414983E+03 0.  0.
         25    2    3    3    0    0  0.38111331085E+02  0.15972917451E+02 -0.35809151387E+03  0.38238842406E+03  0.12760786379E+03 0.  0.
          5    1    4    4  502    0 -0.68133762266E+02  0.33946506173E+02 -0.29999500913E+03  0.30953783346E+03  0.47000000000E+01 0.  1.
         -5    1    4    4    0  502  0.30022431181E+02 -0.49919423623E+02 -0.11594854304E+03  0.12984394427E+03  0.47000000000E+01 0.  1.
          5    1    5    5  503    0  0.39830898568E+02 -0.37715942171E+02 -0.68809850765E+02  0.88124221057E+02  0.47000000000E+01 0.  1.
         -5    1    5    5    0  503 -0.17195674832E+01  0.53688859621E+02 -0.28928166311E+03  0.29426420300E+03  0.47000000000E+01 0.  1.
<mgrwt>
<rscale>  0 0.27599997E+03</rscale>
<asrwt>0</asrwt>
<pdfrwt beam="1">  1        2 0.12275421E+00 0.27599997E+03</pdfrwt>
<pdfrwt beam="2">  1       -2 0.36719348E-02 0.27599997E+03</pdfrwt>
<totfact> 0.11095544E+04</totfact>
</mgrwt>
</event>
<event>
 9    1  0.2094635E-002  0.2752189E+03  0.7818608E-02  0.1098329E+00
         -2   -1    0    0    0  501 -0.00000000000E+00  0.00000000000E+00  0.88984007345E+02  0.88984007345E+02  0.00000000000E+00 0.  1.
          2   -1    0    0  501    0  0.00000000000E+00 -0.00000000000E+00 -0.21280628253E+03  0.21280628253E+03  0.00000000000E+00 0.  1.
         36    2    1    2    0    0 -0.71054273576E-14  0.00000000000E+00 -0.12382227519E+03  0.30179028988E+03  0.27521886424E+03 0.  0.
         25    2    3    3    0    0  0.24341789229E+02  0.47399819130E+02 -0.69184525787E+02  0.15499466731E+03  0.12805304654E+03 0.  0.
         25    2    3    3    0    0 -0.24341789229E+02 -0.47399819130E+02 -0.54637749402E+02  0.14679562257E+03  0.12539699195E+03 0.  0.
          5    1    4    4  502    0  0.67333416280E+02  0.23162312580E+02 -0.18589048405E+01  0.71385062858E+02  0.47000000000E+01 0.  1.
         -5    1    4    4    0  502 -0.42991627051E+02  0.24237506550E+02 -0.67325620947E+02  0.83609604449E+02  0.47000000000E+01 0.  1.
          5    1    5    5  503    0  0.25820603296E+02 -0.73080717169E+02 -0.18959323902E+02  0.79931475273E+02  0.47000000000E+01 0.  1.
         -5    1    5    5    0  503 -0.50162392525E+02  0.25680898039E+02 -0.35678425500E+02  0.66864147299E+02  0.47000000000E+01 0.  1.
<mgrwt>
<rscale>  0 0.27521886E+03</rscale>
<asrwt>0</asrwt>
<pdfrwt beam="1">  1        2 0.32739428E-01 0.27521886E+03</pdfrwt>
<pdfrwt beam="2">  1       -2 0.13689847E-01 0.27521886E+03</pdfrwt>
<totfact> 0.62939699E+03</totfact>
</mgrwt>
</event>
<event>
 9    1  0.2094635E-002  0.2753101E+03  0.7818608E-02  0.1098278E+00
         -1   -1    0    0    0  501 -0.00000000000E+00  0.00000000000E+00  0.95232626076E+03  0.95232626076E+03  0.00000000000E+00 0. -1.
          1   -1    0    0  501    0  0.00000000000E+00 -0.00000000000E+00 -0.19897498708E+02  0.19897498708E+02  0.00000000000E+00 0. -1.
         36    2    1    2    0    0  0.00000000000E+00  0.00000000000E+00  0.93242876206E+03  0.97222375947E+03  0.27531008368E+03 0.  0.
         25    2    3    3    0    0 -0.54793279663E+02  0.60206350702E+01  0.54407564008E+03  0.56093808402E+03  0.12487866285E+03 0.  0.
         25    2    3    3    0    0  0.54793279663E+02 -0.60206350702E+01  0.38835312198E+03  0.41128567545E+03  0.12368996701E+03 0.  0.
          5    1    4    4  502    0  0.97856779948E+01 -0.34526098275E+02  0.54406012593E+02  0.65344587857E+02  0.47000000000E+01 0.  1.
         -5    1    4    4    0  502 -0.64578957658E+02  0.40546733345E+02  0.48966962749E+03  0.49559349616E+03  0.47000000000E+01 0.  1.
          5    1    5    5  503    0  0.89642152769E+02  0.10317493101E+02  0.20744793879E+03  0.22627174707E+03  0.47000000000E+01 0.  1.
         -5    1    5    5    0  503 -0.34848873106E+02 -0.16338128172E+02  0.18090518319E+03  0.18501392838E+03  0.47000000000E+01 0.  1.
<mgrwt>
<rscale>  0 0.27531008E+03</rscale>
<asrwt>0</asrwt>
<pdfrwt beam="1">  1        1 0.30611544E-02 0.27531008E+03</pdfrwt>
<pdfrwt beam="2">  1       -1 0.14651170E+00 0.27531008E+03</pdfrwt>
<totfact> 0.13315798E+03</totfact>
</mgrwt>
</event>
<event>
 9    1  0.2094635E-002  0.2773668E+03  0.7818608E-02  0.1097136E+00
         -2   -1    0    0    0  501 -0.00000000000E+00  0.00000000000E+00  0.69099977638E+01  0.69099977638E+01  0.00000000000E+00 0.  1.
          2   -1    0    0  501    0  0.00000000000E+00 -0.00000000000E+00 -0.27833717030E+04  0.27833717030E+04  0.00000000000E+00 0.  1.
         36    2    1    2    0    0  0.17763568394E-14  0.00000000000E+00 -0.27764617052E+04  0.27902817008E+04  0.27736684909E+03 0.  0.
         25    2    3    3    0    0 -0.96579163617E+01 -0.44498570159E+02 -0.10286887784E+04  0.10374620798E+04  0.12670266862E+03 0.  0.
         25    2    3    3    0    0  0.96579163617E+01  0.44498570159E+02 -0.17477729268E+04  0.17528196209E+04  0.12487202075E+03 0.  0.
          5    1    4    4  502    0 -0.21790510301E+02  0.25006510026E+02 -0.71994903681E+03  0.72072800521E+03  0.47000000000E+01 0.  1.
         -5    1    4    4    0  502  0.12132593939E+02 -0.69505080186E+02 -0.30873974158E+03  0.31673407464E+03  0.47000000000E+01 0.  1.
          5    1    5    5  503    0 -0.10060389544E+02  0.63953934467E+02 -0.16448597466E+04  0.16461400284E+04  0.47000000000E+01 0. -1.
         -5    1    5    5    0  503  0.19718305906E+02 -0.19455364307E+02 -0.10291318027E+03  0.10667959252E+03  0.47000000000E+01 0. -1.
<mgrwt>
<rscale>  0 0.27736685E+03</rscale>
<asrwt>0</asrwt>
<pdfrwt beam="1">  1        2 0.42821124E+00 0.27736685E+03</pdfrwt>
<pdfrwt beam="2">  1       -2 0.10630761E-02 0.27736685E+03</pdfrwt>
<totfact> 0.54314264E+03</totfact>
</mgrwt>
</event>
<event>
 8    1  0.2094635E-002  0.3159638E+03  0.7818608E-02  0.1077522E+00
         -1   -1    0    0    0  501 -0.00000000000E+00  0.00000000000E+00  0.98965746497E+03  0.98965746497E+03  0.00000000000E+00 0. -1.
          1   -1    0    0  501    0  0.00000000000E+00 -0.00000000000E+00 -0.25219113884E+02  0.25219113884E+02  0.00000000000E+00 0. -1.
         25    2    1    2    0    0 -0.90480851730E+02 -0.30327705014E+02  0.41032536690E+03  0.44026371358E+03  0.12790104204E+03 0.  0.
         25    2    1    2    0    0  0.90480851730E+02  0.30327705014E+02  0.55411298419E+03  0.57461286527E+03  0.11845755135E+03 0.  0.
          5    1    3    3  502    0 -0.10819496710E+03 -0.60356136127E+02  0.33227089599E+03  0.35464778639E+03  0.47000000000E+01 0. -1.
         -5    1    3    3    0  502  0.17714115374E+02  0.30028431113E+02  0.78054470914E+02  0.85615927188E+02  0.47000000000E+01 0. -1.
          5    1    4    4  503    0  0.86372358673E+02  0.59897207425E+02  0.51247148257E+03  0.52316055877E+03  0.47000000000E+01 0. -1.
         -5    1    4    4    0  503  0.41084930575E+01 -0.29569502411E+02  0.41641501619E+02  0.51452306509E+02  0.47000000000E+01 0. -1.
<mgrwt>
<rscale>  0 0.31596382E+03</rscale>
<asrwt>0</asrwt>
<pdfrwt beam="1">  1        1 0.38798644E-02 0.31596382E+03</pdfrwt>
<pdfrwt beam="2">  1       -1 0.15225496E+00 0.31596382E+03</pdfrwt>
<totfact> 0.86411215E+02</totfact>
</mgrwt>
</event>
<event>
 9    1  0.2094635E-002  0.2753986E+03  0.7818608E-02  0.1098229E+00
          1   -1    0    0  501    0  0.00000000000E+00  0.00000000000E+00  0.25835419511E+04  0.25835419511E+04  0.00000000000E+00 0. -1.
         -1   -1    0    0    0  501 -0.00000000000E+00 -0.00000000000E+00 -0.73391845860E+01  0.73391845860E+01  0.00000000000E+00 0. -1.
         36    2    1    2    0    0 -0.71054273576E-14  0.71054273576E-14  0.25762027665E+04  0.25908811357E+04  0.27539855675E+03 0.  0.
         25    2    3    3    0    0 -0.29026040035E+02  0.48222207912E+02  0.99613732424E+03  0.10058634742E+04  0.12768659902E+03 0.  0.
         25    2    3    3    0    0  0.29026040035E+02 -0.48222207912E+02  0.15800654422E+04  0.15850176615E+04  0.11183153913E+03 0.  0.
          5    1    4    4  502    0 -0.79624899097E+02  0.26383578956E+02  0.57292709064E+03  0.57905419347E+03  0.47000000000E+01 0.  1.
         -5    1    4    4    0  502  0.50598859061E+02  0.21838628956E+02  0.42321023360E+03  0.42680928068E+03  0.47000000000E+01 0.  1.
          5    1    5    5  503    0 -0.19312636947E+02 -0.58152122127E+02  0.49195555957E+03  0.49577919465E+03  0.47000000000E+01 0.  1.
         -5    1    5    5    0  503  0.48338676983E+02  0.99299142158E+01  0.10881098827E+04  0.10892384668E+04  0.47000000000E+01 0.  1.
<mgrwt>
<rscale>  0 0.27539856E+03</rscale>
<asrwt>0</asrwt>
<pdfrwt beam="1">  1        1 0.39746727E+00 0.27539856E+03</pdfrwt>
<pdfrwt beam="2">  1       -1 0.11291074E-02 0.27539856E+03</pdfrwt>
<totfact> 0.21998770E+03</totfact>
</mgrwt>
</event>
<event>
 9    1  0.2094635E-002  0.2785473E+03  0.7818608E-02  0.1096485E+00
          1   -1    0    0  501    0  0.00000000000E+00  0.00000000000E+00  0.74894822501E+02  0.74894822501E+02  0.00000000000E+00 0. -1.
         -1   -1    0    0    0  501 -0.00000000000E+00 -0.00000000000E+00 -0.25899179196E+03  0.25899179196E+03  0.00000000000E+00 0. -1.
         36    2    1    2    0    0  0.00000000000E+00  0.00000000000E+00 -0.18409696946E+03  0.33388661447E+03  0.27854726197E+03 0.  0.
         25    2    3    3    0    0  0.19237168215E+02 -0.47592908934E+02 -0.69697896848E+02  0.15229014516E+03  0.12529699863E+03 0.  0.
         25    2    3    3    0    0 -0.19237168215E+02  0.47592908934E+02 -0.11439907261E+03  0.18159646931E+03  0.13135819818E+03 0.  0.
          5    1    4    4  502    0 -0.10876469908E+02 -0.28638041711E+02  0.31937717015E+02  0.44503289752E+02  0.47000000000E+01 0.  1.
         -5    1    4    4    0  502  0.30113638123E+02 -0.18954867224E+02 -0.10163561386E+03  0.10778685540E+03  0.47000000000E+01 0.  1.
          5    1    5    5  503    0 -0.56414820530E+02  0.67590295859E+02 -0.10672741860E+03  0.13843378183E+03  0.47000000000E+01 0.  1.
         -5    1    5    5    0  503  0.37177652315E+02 -0.19997386925E+02 -0.76716540152E+01  0.43162687484E+02  0.47000000000E+01 0.  1.
<mgrwt>
<rscale>  0 0.27854726E+03</rscale>
<asrwt>0</asrwt>
<pdfrwt beam="1">  1        1 0.11522280E-01 0.27854726E+03</pdfrwt>
<pdfrwt beam="2">  1       -1 0.39844891E-01 0.27854726E+03</pdfrwt>
<totfact> 0.32814237E+03</totfact>
</mgrwt>
</event>
<event>
 9    1  0.2094635E-002  0.2746632E+03  0.7818608E-02  0.1098640E+00
          1   -1    0    0  501    0  0.00000000000E+00  0.00000000000E+00  0.11168321262E+03  0.11168321262E+03  0.00000000000E+00 0.  1.
         -1   -1    0    0    0  501 -0.00000000000E+00 -0.00000000000E+00 -0.16887016662E+03  0.16887016662E+03  0.00000000000E+00 0.  1.
         36    2    1    2    0    0  0.71054273576E-14  0.00000000000E+00 -0.57186953997E+02  0.28055337924E+03  0.27466315897E+03 0.  0.
         25    2    3    3    0    0 -0.30232170977E+01  0.34088034502E+02 -0.60039034996E+02  0.14984592208E+03  0.13295856762E+03 0.  0.
         25    2    3    3    0    0  0.30232170977E+01 -0.34088034502E+02  0.28520809987E+01  0.13070745716E+03  0.12611570502E+03 0.  0.
          5    1    4    4  502    0 -0.65882821361E+02  0.31485661502E+02 -0.23061296544E+02  0.76719009567E+02  0.47000000000E+01 0. -1.
         -5    1    4    4    0  502  0.62859604263E+02  0.26023730003E+01 -0.36977738452E+02  0.73126912517E+02  0.47000000000E+01 0. -1.
          5    1    5    5  503    0  0.45338834444E+02 -0.31044111854E+01  0.44343453952E+02  0.63668510160E+02  0.47000000000E+01 0.  1.
         -5    1    5    5    0  503 -0.42315617347E+02 -0.30983623317E+02 -0.41491372953E+02  0.67038946999E+02  0.47000000000E+01 0.  1.
<mgrwt>
<rscale>  0 0.27466316E+03</rscale>
<asrwt>0</asrwt>
<pdfrwt beam="1">  1        1 0.17182033E-01 0.27466316E+03</pdfrwt>
<pdfrwt beam="2">  1       -1 0.25980025E-01 0.27466316E+03</pdfrwt>
<totfact> 0.40414173E+03</totfact>
</mgrwt>
</event>
<event>
 9    1  0.2094635E-002  0.2756975E+03  0.7818608E-02  0.1098062E+00
          2   -1    0    0  501    0  0.00000000000E+00  0.00000000000E+00  0.63725960590E+03  0.63725960590E+03  0.00000000000E+00 0. -1.
         -2   -1    0    0    0  501 -0.00000000000E+00 -0.00000000000E+00 -0.29818745256E+02  0.29818745256E+02  0.00000000000E+00 0. -1.
         36    2    1    2    0    0  0.00000000000E+00  0.00000000000E+00  0.60744086064E+03  0.66707835115E+03  0.27569752883E+03 0.  0.
         25    2    3    3    0    0 -0.47017150029E+02 -0.13158064606E+02  0.21064822954E+03  0.24751569614E+03  0.12044748302E+03 0.  0.
         25    2    3    3    0    0  0.47017150029E+02  0.13158064606E+02  0.39679263110E+03  0.41956265501E+03  0.12729761320E+03 0.  0.
          5    1    4    4  502    0 -0.58162830782E+02 -0.18950268110E+02  0.22176540992E+03  0.23009566398E+03  0.47000000000E+01 0. -1.
         -5    1    4    4    0  502  0.11145680754E+02  0.57922035041E+01 -0.11117180378E+02  0.17420032160E+02  0.47000000000E+01 0. -1.
          5    1    5    5  503    0 -0.36562434387E+02  0.30401531866E+02  0.18746258377E+03  0.19345639059E+03  0.47000000000E+01 0. -1.
         -5    1    5    5    0  503  0.83579584416E+02 -0.17243467261E+02  0.20933004733E+03  0.22610626442E+03  0.47000000000E+01 0. -1.
<mgrwt>
<rscale>  0 0.27569753E+03</rscale>
<asrwt>0</asrwt>
<pdfrwt beam="1">  1        2 0.98039929E-01 0.27569753E+03</pdfrwt>
<pdfrwt beam="2">  1       -2 0.45874997E-02 0.27569753E+03</pdfrwt>
<totfact> 0.10444561E+04</totfact>
</mgrwt>
</event>
<event>
 9    1  0.2094635E-002  0.2751094E+03  0.7818608E-02  0.1098390E+00
          2   -1    0    0  501    0  0.00000000000E+00  0.00000000000E+00  0.25944409225E+02  0.25944409225E+02  0.00000000000E+00 0.  1.
         -2   -1    0    0    0  501 -0.00000000000E+00 -0.00000000000E+00 -0.72930139336E+03  0.72930139336E+03  0.00000000000E+00 0.  1.
         36    2    1    2    0    0  0.71054273576E-14 -0.14210854715E-13 -0.70335698414E+03  0.75524580259E+03  0.27510938768E+03 0.  0.
         25    2    3    3    0    0  0.38290197089E+02  0.37415924798E+02 -0.41959973185E+03  0.44082367272E+03  0.12407854301E+03 0.  0.
         25    2    3    3    0    0 -0.38290197089E+02 -0.37415924798E+02 -0.28375725228E+03  0.31442212987E+03  0.12440661922E+03 0.  0.
          5    1    4    4  502    0  0.83578075277E+02  0.21219083513E+02 -0.28592406439E+03  0.29868077402E+03  0.47000000000E+01 0. -1.
         -5    1    4    4    0  502 -0.45287878188E+02  0.16196841286E+02 -0.13367566746E+03  0.14214289870E+03  0.47000000000E+01 0. -1.
          5    1    5    5  503    0  0.13928757407E+02  0.37890284712E+02 -0.12017339801E+03  0.12685984214E+03  0.47000000000E+01 0.  1.
         -5    1    5    5    0  503 -0.52218954496E+02 -0.75306209510E+02 -0.16358385428E+03  0.18756228773E+03  0.47000000000E+01 0.  1.
<mgrwt>
<rscale>  0 0.27510939E+03</rscale>
<asrwt>0</asrwt>
<pdfrwt beam="1">  1        2 0.39914482E-02 0.27510939E+03</pdfrwt>
<pdfrwt beam="2">  1       -2 0.11220020E+00 0.27510939E+03</pdfrwt>
<totfact> 0.13876821E+03</totfact>
</mgrwt>
</event>
<event>
 9    1  0.2094635E-002  0.2759872E+03  0.7818608E-02  0.1097901E+00
          2   -1    0    0  501    0  0.00000000000E+00  0.00000000000E+00  0.14963939346E+04  0.14963939346E+04  0.00000000000E+00 0.  1.
         -2   -1    0    0    0  501 -0.00000000000E+00 -0.00000000000E+00 -0.12725411669E+02  0.12725411669E+02  0.00000000000E+00 0.  1.
         36    2    1    2    0    0  0.00000000000E+00  0.17763568394E-14  0.14836685229E+04  0.15091193462E+04  0.27598716518E+03 0.  0.
         25    2    3    3    0    0  0.32129279280E+02 -0.10999275852E+01  0.10266977762E+04  0.10344894586E+04  0.12258309829E+03 0.  0.
         25    2    3    3    0    0 -0.32129279280E+02  0.10999275852E+01  0.45697074673E+03  0.47462988762E+03  0.12416829877E+03 0.  0.
          5    1    4    4  502    0 -0.45224771952E+02  0.13099026225E+02  0.43617019312E+03  0.43872929222E+03  0.47000000000E+01 0. -1.
         -5    1    4    4    0  502  0.77354051232E+02 -0.14198953810E+02  0.59052758303E+03  0.59576016639E+03  0.47000000000E+01 0. -1.
          5    1    5    5  503    0  0.14092601087E+02 -0.39844668291E+02  0.33648098309E+03  0.33915739853E+03  0.47000000000E+01 0. -1.
         -5    1    5    5    0  503 -0.46221880367E+02  0.40944595877E+02  0.12048976364E+03  0.13547248908E+03  0.47000000000E+01 0. -1.
<mgrwt>
<rscale>  0 0.27598717E+03</rscale>
<asrwt>0</asrwt>
<pdfrwt beam="1">  1        2 0.23021431E+00 0.27598717E+03</pdfrwt>
<pdfrwt beam="2">  1       -2 0.19577568E-02 0.27598717E+03</pdfrwt>
<totfact> 0.10934155E+04</totfact>
</mgrwt>
</event>
<event>
 9    1  0.2094635E-002  0.2743743E+03  0.7818608E-02  0.1098802E+00
         -2   -1    0    0    0  501 -0.00000000000E+00  0.00000000000E+00  0.21127840441E+02  0.21127840441E+02  0.00000000000E+00 0. -1.
          2   -1    0    0  501    0  0.00000000000E+00 -0.00000000000E+00 -0.89078297047E+03  0.89078297047E+03  0.00000000000E+00 0. -1.
         36    2    1    2    0    0  0.14210854715E-13  0.17763568394E-14 -0.86965513003E+03  0.91191081091E+03  0.27437434623E+03 0.  0.
         25    2    3    3    0    0  0.45430549020E+02  0.86541930554E+01 -0.55869729924E+03  0.57482521084E+03  0.12705322115E+03 0.  0.
         25    2    3    3    0    0 -0.45430549020E+02 -0.86541930554E+01 -0.31095783079E+03  0.33708560007E+03  0.12162688601E+03 0.  0.
          5    1    4    4  502    0  0.88651634121E+02  0.16717945574E+02 -0.34761826996E+03  0.35916452156E+03  0.47000000000E+01 0. -1.
         -5    1    4    4    0  502 -0.43221085101E+02 -0.80637525189E+01 -0.21107902927E+03  0.21566068928E+03  0.47000000000E+01 0. -1.
          5    1    5    5  503    0  0.33061305478E+02 -0.21123958885E+02 -0.47109296200E+02  0.61486968923E+02  0.47000000000E+01 0. -1.
         -5    1    5    5    0  503 -0.78491854498E+02  0.12469765830E+02 -0.26384853459E+03  0.27559863114E+03  0.47000000000E+01 0. -1.
<mgrwt>
<rscale>  0 0.27437435E+03</rscale>
<asrwt>0</asrwt>
<pdfrwt beam="1">  1        2 0.13704356E+00 0.27437435E+03</pdfrwt>
<pdfrwt beam="2">  1       -2 0.32504364E-02 0.27437435E+03</pdfrwt>
<totfact> 0.11535717E+04</totfact>
</mgrwt>
</event>
<event>
 9    1  0.2094635E-002  0.2752575E+03  0.7818608E-02  0.1098308E+00
         -2   -1    0    0    0  501 -0.00000000000E+00  0.00000000000E+00  0.10936901374E+02  0.10936901374E+02  0.00000000000E+00 0.  1.
          2   -1    0    0  501    0  0.00000000000E+00 -0.00000000000E+00 -0.17319053804E+04  0.17319053804E+04  0.00000000000E+00 0.  1.
         36    2    1    2    0    0  0.71054273576E-14  0.00000000000E+00 -0.17209684790E+04  0.17428422818E+04  0.27525754002E+03 0.  0.
         25    2    3    3    0    0 -0.44260758908E+02 -0.98022422291E+01 -0.66070447805E+03  0.67425727720E+03  0.12663873742E+03 0.  0.
         25    2    3    3    0    0  0.44260758908E+02  0.98022422291E+01 -0.10602640010E+04  0.10685850046E+04  0.12513617180E+03 0.  0.
          5    1    4    4  502    0  0.42579232771E+02  0.54814595045E+01 -0.15510714966E+03  0.16100731455E+03  0.47000000000E+01 0.  1.
         -5    1    4    4    0  502 -0.86839991678E+02 -0.15283701734E+02 -0.50559732838E+03  0.51324996265E+03  0.47000000000E+01 0.  1.
          5    1    5    5  503    0 -0.44219788153E+01 -0.13704794411E+02 -0.13131805843E+02  0.20047683437E+02  0.47000000000E+01 0. -1.
         -5    1    5    5    0  503  0.48682737723E+02  0.23507036640E+02 -0.10471321951E+04  0.10485373211E+04  0.47000000000E+01 0. -1.
<mgrwt>
<rscale>  0 0.27525754E+03</rscale>
<asrwt>0</asrwt>
<pdfrwt beam="1">  1        2 0.26644696E+00 0.27525754E+03</pdfrwt>
<pdfrwt beam="2">  1       -2 0.16826004E-02 0.27525754E+03</pdfrwt>
<totfact> 0.10245830E+04</totfact>
</mgrwt>
</event>
<event>
 9    1  0.2094635E-002  0.2750137E+03  0.7818608E-02  0.1098444E+00
         -1   -1    0    0    0  501 -0.00000000000E+00  0.00000000000E+00  0.67428292675E+02  0.67428292675E+02  0.00000000000E+00 0. -1.
          1   -1    0    0  501    0  0.00000000000E+00 -0.00000000000E+00 -0.28041834088E+03  0.28041834088E+03  0.00000000000E+00 0. -1.
         36    2    1    2    0    0  0.00000000000E+00  0.00000000000E+00 -0.21299004821E+03  0.34784663356E+03  0.27501367210E+03 0.  0.
         25    2    3    3    0    0 -0.42091763546E+02  0.37605531900E+02 -0.13463590380E+03  0.19379678867E+03  0.12745381956E+03 0.  0.
         25    2    3    3    0    0  0.42091763546E+02 -0.37605531900E+02 -0.78354144411E+02  0.15404984488E+03  0.12002537304E+03 0.  0.
          5    1    4    4  502    0 -0.52707321624E+02  0.65147497518E+02 -0.37064869159E+02  0.91750491614E+02  0.47000000000E+01 0.  1.
         -5    1    4    4    0  502  0.10615558078E+02 -0.27541965619E+02 -0.97571034638E+02  0.10204629706E+03  0.47000000000E+01 0.  1.
          5    1    5    5  503    0 -0.34569828912E+02  0.12772597152E+02 -0.71600965278E+01  0.37836084514E+02  0.47000000000E+01 0.  1.
         -5    1    5    5    0  503  0.76661592459E+02 -0.50378129052E+02 -0.71194047883E+02  0.11621376037E+03  0.47000000000E+01 0.  1.
<mgrwt>
<rscale>  0 0.27501367E+03</rscale>
<asrwt>0</asrwt>
<pdfrwt beam="1">  1        1 0.43141283E-01 0.27501367E+03</pdfrwt>
<pdfrwt beam="2">  1       -1 0.10373583E-01 0.27501367E+03</pdfrwt>
<totfact> 0.54585333E+03</totfact>
</mgrwt>
</event>
<event>
 9    1  0.2094635E-002  0.2747827E+03  0.7818608E-02  0.1098573E+00
         -1   -1    0    0    0  501 -0.00000000000E+00  0.00000000000E+00  0.16324983168E+02  0.16324983168E+02  0.00000000000E+00 0. -1.
          1   -1    0    0  501    0  0.00000000000E+00 -0.00000000000E+00 -0.11562877505E+04  0.11562877505E+04  0.00000000000E+00 0. -1.
         36    2    1    2    0    0  0.35527136788E-14  0.00000000000E+00 -0.11399627673E+04  0.11726127336E+04  0.27478266367E+03 0.  0.
         25    2    3    3    0    0  0.28798782335E+02  0.44486860048E+02 -0.68060285351E+03  0.69365957860E+03  0.12302404722E+03 0.  0.
         25    2    3    3    0    0 -0.28798782335E+02 -0.44486860048E+02 -0.45935991380E+03  0.47895315504E+03  0.12480442197E+03 0.  0.
          5    1    4    4  502    0  0.73957910841E+01  0.64232884728E+02 -0.16596330980E+03  0.17817539506E+03  0.47000000000E+01 0.  1.
         -5    1    4    4    0  502  0.21402991250E+02 -0.19746024680E+02 -0.51463954371E+03  0.51548418354E+03  0.47000000000E+01 0.  1.
          5    1    5    5  503    0 -0.57403001225E+02 -0.71994962673E+02 -0.36531453911E+03  0.37676940121E+03  0.47000000000E+01 0.  1.
         -5    1    5    5    0  503  0.28604218891E+02  0.27508102625E+02 -0.94045374686E+02  0.10218375384E+03  0.47000000000E+01 0.  1.
<mgrwt>
<rscale>  0 0.27478266E+03</rscale>
<asrwt>0</asrwt>
<pdfrwt beam="1">  1        1 0.17789051E+00 0.27478266E+03</pdfrwt>
<pdfrwt beam="2">  1       -1 0.25115347E-02 0.27478266E+03</pdfrwt>
<totfact> 0.60288445E+03</totfact>
</mgrwt>
</event>
<event>
 9    1  0.2094635E-002  0.2749460E+03  0.7818608E-02  0.1098482E+00
          4   -1    0    0  501    0  0.00000000000E+00  0.00000000000E+00  0.48591695771E+03  0.48591695771E+03  0.00000000000E+00 0.  1.
         -4   -1    0    0    0  501 -0.00000000000E+00 -0.00000000000E+00 -0.38893108425E+02  0.38893108425E+02  0.00000000000E+00 0.  1.
         36    2    1    2    0    0  0.71054273576E-14 -0.71054273576E-14  0.44702384928E+03  0.52481006613E+03  0.27494596503E+03 0.  0.
         25    2    3    3    0    0  0.23619675248E+02  0.43251993558E+02  0.16246117357E+03  0.21086819494E+03  0.12507253382E+03 0.  0.
         25    2    3    3    0    0 -0.23619675248E+02 -0.43251993558E+02  0.28456267572E+03  0.31394187119E+03  0.12310547539E+03 0.  0.
          5    1    4    4  502    0 -0.46436659837E+02  0.11256335653E+02  0.27293704002E+02  0.55227753415E+02  0.47000000000E+01 0.  1.
         -5    1    4    4    0  502  0.70056335084E+02  0.31995657905E+02  0.13516746957E+03  0.15564044153E+03  0.47000000000E+01 0.  1.
          5    1    5    5  503    0 -0.18034598364E+02  0.30591373740E+02  0.19197575404E+03  0.19528916771E+03  0.47000000000E+01 0. -1.
         -5    1    5    5    0  503 -0.55850768832E+01 -0.73843367298E+02  0.92586921676E+02  0.11865270348E+03  0.47000000000E+01 0. -1.
<mgrwt>
<rscale>  0 0.27494597E+03</rscale>
<asrwt>0</asrwt>
<pdfrwt beam="1">  1        4 0.74756451E-01 0.27494597E+03</pdfrwt>
<pdfrwt beam="2">  1       -4 0.59835555E-02 0.27494597E+03</pdfrwt>
<totfact> 0.55146028E+02</totfact>
</mgrwt>
</event>
<event>
 9    1  0.2094635E-002  0.2741425E+03  0.7818608E-02  0.1098932E+00
          1   -1    0    0  501    0  0.00000000000E+00  0.00000000000E+00  0.49195315888E+02  0.49195315888E+02  0.00000000000E+00 0.  1.
         -1   -1    0    0    0  501 -0.00000000000E+00 -0.00000000000E+00 -0.38191708067E+03  0.38191708067E+03  0.00000000000E+00 0.  1.
         36    2    1    2    0    0  0.00000000000E+00  0.71054273576E-14 -0.33272176478E+03  0.43111239656E+03  0.27414252809E+03 0.  0.
         25    2    3    3    0    0 -0.22186206111E+02 -0.39149886562E+02 -0.21485296165E+03  0.25307895887E+03  0.12594531724E+03 0.  0.
         25    2    3    3    0    0  0.22186206111E+02  0.39149886562E+02 -0.11786880313E+03  0.17803343769E+03  0.12561014618E+03 0.  0.
          5    1    4    4  502    0 -0.65272306742E+02  0.18655289039E+01 -0.15639111576E+03  0.16954122011E+03  0.47000000000E+01 0. -1.
         -5    1    4    4    0  502  0.43086100631E+02 -0.41015415466E+02 -0.58461845884E+02  0.83537738763E+02  0.47000000000E+01 0. -1.
          5    1    5    5  503    0  0.40470567983E+02  0.77985521637E+02 -0.63025429779E+02  0.10823078701E+03  0.47000000000E+01 0.  1.
         -5    1    5    5    0  503 -0.18284361872E+02 -0.38835635076E+02 -0.54843373353E+02  0.69802650677E+02  0.47000000000E+01 0.  1.
<mgrwt>
<rscale>  0 0.27414253E+03</rscale>
<asrwt>0</asrwt>
<pdfrwt beam="1">  1        1 0.75685105E-02 0.27414253E+03</pdfrwt>
<pdfrwt beam="2">  1       -1 0.58756471E-01 0.27414253E+03</pdfrwt>
<totfact> 0.28299129E+03</totfact>
</mgrwt>
</event>
<event>
 9    1  0.2094635E-002  0.2759839E+03  0.7818608E-02  0.1097903E+00
          2   -1    0    0  501    0  0.00000000000E+00  0.00000000000E+00  0.53841220390E+03  0.53841220390E+03  0.00000000000E+00 0. -1.
         -2   -1    0    0    0  501 -0.00000000000E+00 -0.00000000000E+00 -0.35366537454E+02  0.35366537454E+02  0.00000000000E+00 0. -1.
         36    2    1    2    0    0  0.00000000000E+00 -0.14210854715E-13  0.50304566644E+03  0.57377874135E+03  0.27598387906E+03 0.  0.
         25    2    3    3    0    0 -0.97053438481E+01 -0.57601497791E+02  0.22473931110E+03  0.26624232477E+03  0.13025011054E+03 0.  0.
         25    2    3    3    0    0  0.97053438481E+01  0.57601497791E+02  0.27830635534E+03  0.30753641658E+03  0.11709865010E+03 0.  0.
          5    1    4    4  502    0 -0.11193386106E+02  0.39689467629E+02  0.41361116322E+02  0.58595031160E+02  0.47000000000E+01 0.  1.
         -5    1    4    4    0  502  0.14880422574E+01 -0.97290965421E+02  0.18337819478E+03  0.20764729361E+03  0.47000000000E+01 0.  1.
          5    1    5    5  503    0  0.74390296211E+01  0.24874380658E+02  0.27264156182E+03  0.27391528838E+03  0.47000000000E+01 0. -1.
         -5    1    5    5    0  503  0.22663142270E+01  0.32727117133E+02  0.56647935170E+01  0.33621128202E+02  0.47000000000E+01 0. -1.
<mgrwt>
<rscale>  0 0.27598388E+03</rscale>
<asrwt>0</asrwt>
<pdfrwt beam="1">  1        2 0.82832641E-01 0.27598388E+03</pdfrwt>
<pdfrwt beam="2">  1       -2 0.54410061E-02 0.27598388E+03</pdfrwt>
<totfact> 0.97921419E+03</totfact>
</mgrwt>
</event>
<event>
 9    1  0.2094635E-002  0.2747111E+03  0.7818608E-02  0.1098613E+00
         -1   -1    0    0    0  501 -0.00000000000E+00  0.00000000000E+00  0.90188645823E+01  0.90188645823E+01  0.00000000000E+00 0.  1.
          1   -1    0    0  501    0  0.00000000000E+00 -0.00000000000E+00 -0.20918989343E+04  0.20918989343E+04  0.00000000000E+00 0.  1.
         36    2    1    2    0    0  0.00000000000E+00  0.71054273576E-14 -0.20828800697E+04  0.21009177988E+04  0.27471114435E+03 0.  0.
         25    2    3    3    0    0  0.43374463064E+02  0.87986913220E+01 -0.13164545510E+04  0.13229429422E+04  0.12315308524E+03 0.  0.
         25    2    3    3    0    0 -0.43374463064E+02 -0.87986913220E+01 -0.76642551865E+03  0.77797485663E+03  0.12600809855E+03 0.  0.
          5    1    4    4  502    0 -0.10651492326E+02  0.53524643506E+02 -0.77689405110E+03  0.77882270022E+03  0.47000000000E+01 0. -1.
         -5    1    4    4    0  502  0.54025955390E+02 -0.44725952184E+02 -0.53956049993E+03  0.54412024199E+03  0.47000000000E+01 0. -1.
          5    1    5    5  503    0 -0.20992852726E+02  0.35919333189E+02 -0.64783443780E+03  0.64918598812E+03  0.47000000000E+01 0.  1.
         -5    1    5    5    0  503 -0.22381610338E+02 -0.44718024511E+02 -0.11859108084E+03  0.12878886852E+03  0.47000000000E+01 0.  1.
<mgrwt>
<rscale>  0 0.27471114E+03</rscale>
<asrwt>0</asrwt>
<pdfrwt beam="1">  1        1 0.32183073E+00 0.27471114E+03</pdfrwt>
<pdfrwt beam="2">  1       -1 0.13875171E-02 0.27471114E+03</pdfrwt>
<totfact> 0.34375087E+03</totfact>
</mgrwt>
</event>
<event>
 9    1  0.2094635E-002  0.2743819E+03  0.7818608E-02  0.1098798E+00
         -1   -1    0    0    0  501 -0.00000000000E+00  0.00000000000E+00  0.11241008845E+02  0.11241008845E+02  0.00000000000E+00 0.  1.
          1   -1    0    0  501    0  0.00000000000E+00 -0.00000000000E+00 -0.16743473278E+04  0.16743473278E+04  0.00000000000E+00 0.  1.
         36    2    1    2    0    0 -0.71054273576E-14 -0.71054273576E-14 -0.16631063190E+04  0.16855883367E+04  0.27438187347E+03 0.  0.
         25    2    3    3    0    0 -0.47075405571E+02 -0.29381846658E+00 -0.97246275366E+03  0.98176707068E+03  0.12635898731E+03 0.  0.
         25    2    3    3    0    0  0.47075405571E+02  0.29381846658E+00 -0.69064356534E+03  0.70382126601E+03  0.12712065137E+03 0.  0.
          5    1    4    4  502    0 -0.45119571653E+02  0.38043998494E+02 -0.87367604855E+03  0.87567976417E+03  0.47000000000E+01 0.  1.
         -5    1    4    4    0  502 -0.19558339186E+01 -0.38337816960E+02 -0.98786705109E+02  0.10608730651E+03  0.47000000000E+01 0.  1.
          5    1    5    5  503    0  0.34289613869E+02  0.62456529916E+02 -0.39561826605E+03  0.40201056974E+03  0.47000000000E+01 0.  1.
         -5    1    5    5    0  503  0.12785791703E+02 -0.62162711450E+02 -0.29502529929E+03  0.30181069628E+03  0.47000000000E+01 0.  1.
<mgrwt>
<rscale>  0 0.27438187E+03</rscale>
<asrwt>0</asrwt>
<pdfrwt beam="1">  1        1 0.25759173E+00 0.27438187E+03</pdfrwt>
<pdfrwt beam="2">  1       -1 0.17293871E-02 0.27438187E+03</pdfrwt>
<totfact> 0.46600912E+03</totfact>
</mgrwt>
</event>
<event>
 9    1  0.2094635E-002  0.2752677E+03  0.7818608E-02  0.1098302E+00
         -4   -1    0    0    0  501 -0.00000000000E+00  0.00000000000E+00  0.27138433597E+02  0.27138433597E+02  0.00000000000E+00 0.  1.
          4   -1    0    0  501    0  0.00000000000E+00 -0.00000000000E+00 -0.69801683013E+03  0.69801683013E+03  0.00000000000E+00 0.  1.
         36    2    1    2    0    0  0.71054273576E-14  0.00000000000E+00 -0.67087839654E+03  0.72515526373E+03  0.27526774888E+03 0.  0.
         25    2    3    3    0    0 -0.45691633026E+02 -0.36294847587E+02 -0.26483924471E+03  0.30345710133E+03  0.13616660941E+03 0.  0.
         25    2    3    3    0    0  0.45691633026E+02  0.36294847587E+02 -0.40603915182E+03  0.42169816240E+03  0.97757383700E+02 0.  0.
          5    1    4    4  502    0 -0.59415709325E+02 -0.86225177948E+01 -0.31362328743E+02  0.67898895366E+02  0.47000000000E+01 0. -1.
         -5    1    4    4    0  502  0.13724076298E+02 -0.27672329792E+02 -0.23347691597E+03  0.23555820596E+03  0.47000000000E+01 0. -1.
          5    1    5    5  503    0  0.16521145888E+02  0.41841884191E+02 -0.37765152506E+03  0.38035043830E+03  0.47000000000E+01 0.  1.
         -5    1    5    5    0  503  0.29170487138E+02 -0.55470366045E+01 -0.28387626761E+02  0.41347724098E+02  0.47000000000E+01 0.  1.
<mgrwt>
<rscale>  0 0.27526775E+03</rscale>
<asrwt>0</asrwt>
<pdfrwt beam="1">  1        4 0.10738720E+00 0.27526775E+03</pdfrwt>
<pdfrwt beam="2">  1       -4 0.41751439E-02 0.27526775E+03</pdfrwt>
<totfact> 0.43151931E+02</totfact>
</mgrwt>
</event>
<event>
 9    1  0.2094635E-002  0.2747556E+03  0.7818608E-02  0.1098588E+00
         -2   -1    0    0    0  501 -0.00000000000E+00  0.00000000000E+00  0.15741468541E+03  0.15741468541E+03  0.00000000000E+00 0. -1.
          2   -1    0    0  501    0  0.00000000000E+00 -0.00000000000E+00 -0.11989133833E+03  0.11989133833E+03  0.00000000000E+00 0. -1.
         36    2    1    2    0    0 -0.71054273576E-14  0.35527136788E-14  0.37523347080E+02  0.27730602375E+03  0.27475558089E+03 0.  0.
         25    2    3    3    0    0  0.54845354728E+02 -0.20874430274E+02 -0.22577683910E+01  0.13467221241E+03  0.12119303817E+03 0.  0.
         25    2    3    3    0    0 -0.54845354728E+02  0.20874430274E+02  0.39781115471E+02  0.14263381134E+03  0.12376636141E+03 0.  0.
          5    1    4    4  502    0 -0.97313034534E+01  0.97490610984E+00 -0.50095468607E+02  0.51257142758E+02  0.47000000000E+01 0.  1.
         -5    1    4    4    0  502  0.64576658182E+02 -0.21849336384E+02  0.47837700216E+02  0.83415069647E+02  0.47000000000E+01 0.  1.
          5    1    5    5  503    0  0.18228322684E+02  0.48150340957E+02 -0.60387327925E+01  0.52050776900E+02  0.47000000000E+01 0.  1.
         -5    1    5    5    0  503 -0.73073677412E+02 -0.27275910683E+02  0.45819848264E+02  0.90583034444E+02  0.47000000000E+01 0.  1.
<mgrwt>
<rscale>  0 0.27475558E+03</rscale>
<asrwt>0</asrwt>
<pdfrwt beam="1">  1        2 0.18444821E-01 0.27475558E+03</pdfrwt>
<pdfrwt beam="2">  1       -2 0.24217644E-01 0.27475558E+03</pdfrwt>
<totfact> 0.45598457E+03</totfact>
</mgrwt>
</event>
<event>
 9    1  0.2094635E-002  0.2747386E+03  0.7818608E-02  0.1098598E+00
         -1   -1    0    0    0  501 -0.00000000000E+00  0.00000000000E+00  0.57212621635E+03  0.57212621635E+03  0.00000000000E+00 0. -1.
          1   -1    0    0  501    0  0.00000000000E+00 -0.00000000000E+00 -0.32982803298E+02  0.32982803298E+02  0.00000000000E+00 0. -1.
         36    2    1    2    0    0 -0.35527136788E-14  0.00000000000E+00  0.53914341305E+03  0.60510901964E+03  0.27473861363E+03 0.  0.
         25    2    3    3    0    0 -0.22022981064E+02  0.45133767082E+02  0.26143292575E+03  0.29338983202E+03  0.12332214011E+03 0.  0.
         25    2    3    3    0    0  0.22022981064E+02 -0.45133767082E+02  0.27771048730E+03  0.31171918763E+03  0.13237699404E+03 0.  0.
          5    1    4    4  502    0 -0.23654369516E+02 -0.38980819062E+02  0.63943687617E+02  0.78676035983E+02  0.47000000000E+01 0. -1.
         -5    1    4    4    0  502  0.16313884523E+01  0.84114586144E+02  0.19748923813E+03  0.21471379603E+03  0.47000000000E+01 0. -1.
          5    1    5    5  503    0 -0.18247826909E+02 -0.65062464717E+02  0.24932987125E+03  0.25836714613E+03  0.47000000000E+01 0.  1.
         -5    1    5    5    0  503  0.40270807973E+02  0.19928697635E+02  0.28380616050E+02  0.53352041494E+02  0.47000000000E+01 0.  1.
<mgrwt>
<rscale>  0 0.27473861E+03</rscale>
<asrwt>0</asrwt>
<pdfrwt beam="1">  1        1 0.50742778E-02 0.27473861E+03</pdfrwt>
<pdfrwt beam="2">  1       -1 0.88019411E-01 0.27473861E+03</pdfrwt>
<totfact> 0.21702366E+03</totfact>
</mgrwt>
</event>
<event>
 9    1  0.2094635E-002  0.2748068E+03  0.7818608E-02  0.1098560E+00
         -4   -1    0    0    0  501 -0.00000000000E+00  0.00000000000E+00  0.54238868768E+03  0.54238868768E+03  0.00000000000E+00 0.  1.
          4   -1    0    0  501    0  0.00000000000E+00 -0.00000000000E+00 -0.34808418814E+02  0.34808418814E+02  0.00000000000E+00 0.  1.
         36    2    1    2    0    0 -0.17763568394E-14  0.71054273576E-14  0.50758026886E+03  0.57719710649E+03  0.27480678740E+03 0.  0.
         25    2    3    3    0    0 -0.12938628819E+02 -0.69077605166E+01  0.36737558931E+03  0.38769346605E+03  0.12298892115E+03 0.  0.
         25    2    3    3    0    0  0.12938628819E+02  0.69077605166E+01  0.14020467955E+03  0.18950364044E+03  0.12664577490E+03 0.  0.
          5    1    4    4  502    0 -0.28594538591E+02 -0.39664211540E+02  0.33572554036E+03  0.33930020006E+03  0.47000000000E+01 0. -1.
         -5    1    4    4    0  502  0.15655909772E+02  0.32756451023E+02  0.31650048957E+02  0.48393265992E+02  0.47000000000E+01 0. -1.
          5    1    5    5  503    0  0.12109874599E+02  0.65866306894E+02  0.61475057153E+02  0.91029072821E+02  0.47000000000E+01 0.  1.
         -5    1    5    5    0  503  0.82875421985E+00 -0.58958546377E+02  0.78729622397E+02  0.98474567617E+02  0.47000000000E+01 0.  1.
<mgrwt>
<rscale>  0 0.27480679E+03</rscale>
<asrwt>0</asrwt>
<pdfrwt beam="1">  1        4 0.53551418E-02 0.27480679E+03</pdfrwt>
<pdfrwt beam="2">  1       -4 0.83444407E-01 0.27480679E+03</pdfrwt>
<totfact> 0.51724055E+02</totfact>
</mgrwt>
</event>
<event>
 9    1  0.2094635E-002  0.2747605E+03  0.7818608E-02  0.1098586E+00
          2   -1    0    0  501    0  0.00000000000E+00  0.00000000000E+00  0.19363344876E+04  0.19363344876E+04  0.00000000000E+00 0.  1.
         -2   -1    0    0    0  501 -0.00000000000E+00 -0.00000000000E+00 -0.97469396921E+01  0.97469396921E+01  0.00000000000E+00 0.  1.
         36    2    1    2    0    0  0.35527136788E-14  0.14210854715E-13  0.19265875479E+04  0.19460814273E+04  0.27476051735E+03 0.  0.
         25    2    3    3    0    0 -0.12649308344E+02 -0.34218628977E+02  0.13048828707E+04  0.13113353933E+04  0.12470079379E+03 0.  0.
         25    2    3    3    0    0  0.12649308344E+02  0.34218628977E+02  0.62170467720E+03  0.63474603396E+03  0.12269842054E+03 0.  0.
          5    1    4    4  502    0 -0.56979900643E+01 -0.81506661892E+02  0.84144585646E+03  0.84541647865E+03  0.47000000000E+01 0.  1.
         -5    1    4    4    0  502 -0.69513182795E+01  0.47288032914E+02  0.46343701422E+03  0.46591891465E+03  0.47000000000E+01 0.  1.
          5    1    5    5  503    0  0.54522714902E+02  0.54822160612E+02  0.30995662271E+03  0.31948927008E+03  0.47000000000E+01 0. -1.
         -5    1    5    5    0  503 -0.41873406559E+02 -0.20603531635E+02  0.31174805448E+03  0.31525676387E+03  0.47000000000E+01 0. -1.
<mgrwt>
<rscale>  0 0.27476052E+03</rscale>
<asrwt>0</asrwt>
<pdfrwt beam="1">  1        2 0.29789731E+00 0.27476052E+03</pdfrwt>
<pdfrwt beam="2">  1       -2 0.14995307E-02 0.27476052E+03</pdfrwt>
<totfact> 0.94721100E+03</totfact>
</mgrwt>
</event>
<event>
 9    1  0.2094635E-002  0.2615183E+03  0.7818608E-02  0.1106234E+00
         -1   -1    0    0    0  501 -0.00000000000E+00  0.00000000000E+00  0.10878311463E+02  0.10878311463E+02  0.00000000000E+00 0. -1.
          1   -1    0    0  501    0  0.00000000000E+00 -0.00000000000E+00 -0.15717472838E+04  0.15717472838E+04  0.00000000000E+00 0. -1.
         36    2    1    2    0    0  0.00000000000E+00  0.00000000000E+00 -0.15608689723E+04  0.15826255952E+04  0.26151830907E+03 0.  0.
         25    2    3    3    0    0  0.31672549043E+02 -0.20969485894E+01 -0.44675684510E+03  0.46210326598E+03  0.11375500969E+03 0.  0.
         25    2    3    3    0    0 -0.31672549043E+02  0.20969485894E+01 -0.11141121272E+04  0.11205223292E+04  0.11539892031E+03 0.  0.
          5    1    4    4  502    0  0.48490561948E+02 -0.46351900834E+02 -0.20623090681E+03  0.21691728892E+03  0.47000000000E+01 0.  1.
         -5    1    4    4    0  502 -0.16818012904E+02  0.44254952245E+02 -0.24052593829E+03  0.24518597705E+03  0.47000000000E+01 0.  1.
          5    1    5    5  503    0 -0.78055935770E+01 -0.55354582337E+02 -0.60698132398E+03  0.60956826914E+03  0.47000000000E+01 0.  1.
         -5    1    5    5    0  503 -0.23866955466E+02  0.57451530926E+02 -0.50713080322E+03  0.51095406011E+03  0.47000000000E+01 0.  1.
<mgrwt>
<rscale>  0 0.26151831E+03</rscale>
<asrwt>0</asrwt>
<pdfrwt beam="1">  1        1 0.24180709E+00 0.26151831E+03</pdfrwt>
<pdfrwt beam="2">  1       -1 0.16735876E-02 0.26151831E+03</pdfrwt>
<totfact> 0.57043352E+03</totfact>
</mgrwt>
</event>
<event>
 9    1  0.2094635E-002  0.2746991E+03  0.7818608E-02  0.1098620E+00
         -2   -1    0    0    0  501 -0.00000000000E+00  0.00000000000E+00  0.18965664469E+02  0.18965664469E+02  0.00000000000E+00 0.  1.
          2   -1    0    0  501    0  0.00000000000E+00 -0.00000000000E+00 -0.99468672835E+03  0.99468672835E+03  0.00000000000E+00 0.  1.
         36    2    1    2    0    0  0.62172489379E-14 -0.35527136788E-14 -0.97572106388E+03  0.10136523928E+04  0.27469906983E+03 0.  0.
         25    2    3    3    0    0 -0.60241192924E+01 -0.14875416692E+01 -0.67796763438E+03  0.68965812390E+03  0.12629216839E+03 0.  0.
         25    2    3    3    0    0  0.60241192924E+01  0.14875416692E+01 -0.29775342950E+03  0.32399426892E+03  0.12758008748E+03 0.  0.
          5    1    4    4  502    0  0.32748413760E+02 -0.13534392548E+02 -0.60474601516E+03  0.60580151141E+03  0.47000000000E+01 0.  1.
         -5    1    4    4    0  502 -0.38772533052E+02  0.12046850879E+02 -0.73221619230E+02  0.83856612488E+02  0.47000000000E+01 0.  1.
          5    1    5    5  503    0 -0.21679846448E+01 -0.44844707759E+02 -0.35273613735E+02  0.57289316607E+02  0.47000000000E+01 0.  1.
         -5    1    5    5    0  503  0.81921039372E+01  0.46332249428E+02 -0.26247981576E+03  0.26670495231E+03  0.47000000000E+01 0.  1.
<mgrwt>
<rscale>  0 0.27469907E+03</rscale>
<asrwt>0</asrwt>
<pdfrwt beam="1">  1        2 0.15302871E+00 0.27469907E+03</pdfrwt>
<pdfrwt beam="2">  1       -2 0.29177948E-02 0.27469907E+03</pdfrwt>
<totfact> 0.11650598E+04</totfact>
</mgrwt>
</event>
<event>
 9    1  0.2094635E-002  0.2751525E+03  0.7818608E-02  0.1098366E+00
          1   -1    0    0  501    0  0.00000000000E+00  0.00000000000E+00  0.41069285866E+03  0.41069285866E+03  0.00000000000E+00 0.  1.
         -1   -1    0    0    0  501 -0.00000000000E+00 -0.00000000000E+00 -0.46086081730E+02  0.46086081730E+02  0.00000000000E+00 0.  1.
         36    2    1    2    0    0  0.00000000000E+00  0.14210854715E-13  0.36460677693E+03  0.45677894039E+03  0.27515250062E+03 0.  0.
         25    2    3    3    0    0  0.73312644540E+01  0.46689588490E+02  0.12619809530E+03  0.18316597498E+03  0.12405704341E+03 0.  0.
         25    2    3    3    0    0 -0.73312644540E+01 -0.46689588490E+02  0.23840868162E+03  0.27361296541E+03  0.12566499216E+03 0.  0.
          5    1    4    4  502    0  0.26115306771E+02  0.76172557456E+02  0.12386798357E+03  0.14781622073E+03  0.47000000000E+01 0. -1.
         -5    1    4    4    0  502 -0.18784042317E+02 -0.29482968966E+02  0.23301117350E+01  0.35349754250E+02  0.47000000000E+01 0. -1.
          5    1    5    5  503    0  0.10541270653E+02  0.38419093578E+02  0.12067296846E+03  0.12716603499E+03  0.47000000000E+01 0.  1.
         -5    1    5    5    0  503 -0.17872535106E+02 -0.85108682068E+02  0.11773571316E+03  0.14644693042E+03  0.47000000000E+01 0.  1.
<mgrwt>
<rscale>  0 0.27515250E+03</rscale>
<asrwt>0</asrwt>
<pdfrwt beam="1">  1        1 0.63183514E-01 0.27515250E+03</pdfrwt>
<pdfrwt beam="2">  1       -1 0.70901667E-02 0.27515250E+03</pdfrwt>
<totfact> 0.60322017E+03</totfact>
</mgrwt>
</event>
<event>
 9    1  0.2094635E-002  0.2758631E+03  0.7818608E-02  0.1097970E+00
          1   -1    0    0  501    0  0.00000000000E+00  0.00000000000E+00  0.64664216659E+03  0.64664216659E+03  0.00000000000E+00 0.  1.
         -1   -1    0    0    0  501 -0.00000000000E+00 -0.00000000000E+00 -0.29421387849E+02  0.29421387849E+02  0.00000000000E+00 0.  1.
         36    2    1    2    0    0  0.00000000000E+00  0.00000000000E+00  0.61722077874E+03  0.67606355444E+03  0.27586308186E+03 0.  0.
         25    2    3    3    0    0 -0.47018436117E+02  0.50086373787E+02  0.31586244156E+03  0.34447182129E+03  0.11904778661E+03 0.  0.
         25    2    3    3    0    0  0.47018436117E+02 -0.50086373787E+02  0.30135833718E+03  0.33159173315E+03  0.12007019586E+03 0.  0.
          5    1    4    4  502    0 -0.83781170635E+02  0.31432466488E+02  0.16219508631E+03  0.18530143152E+03  0.47000000000E+01 0.  1.
         -5    1    4    4    0  502  0.36762734518E+02  0.18653907298E+02  0.15366735525E+03  0.15917038976E+03  0.47000000000E+01 0.  1.
          5    1    5    5  503    0  0.87553240165E+02 -0.38134095783E+02  0.21665275008E+03  0.23681275988E+03  0.47000000000E+01 0. -1.
         -5    1    5    5    0  503 -0.40534804048E+02 -0.11952278004E+02  0.84705587096E+02  0.94778973269E+02  0.47000000000E+01 0. -1.
<mgrwt>
<rscale>  0 0.27586308E+03</rscale>
<asrwt>0</asrwt>
<pdfrwt beam="1">  1        1 0.99483400E-01 0.27586308E+03</pdfrwt>
<pdfrwt beam="2">  1       -1 0.45263678E-02 0.27586308E+03</pdfrwt>
<totfact> 0.64448416E+03</totfact>
</mgrwt>
</event>
<event>
 9    1  0.2094635E-002  0.2748066E+03  0.7818608E-02  0.1098560E+00
          2   -1    0    0  501    0  0.00000000000E+00  0.00000000000E+00  0.82549707192E+03  0.82549707192E+03  0.00000000000E+00 0. -1.
         -2   -1    0    0    0  501 -0.00000000000E+00 -0.00000000000E+00 -0.22870656540E+02  0.22870656540E+02  0.00000000000E+00 0. -1.
         36    2    1    2    0    0  0.71054273576E-14  0.53290705182E-14  0.80262641538E+03  0.84836772846E+03  0.27480655019E+03 0.  0.
         25    2    3    3    0    0 -0.25018069424E+02 -0.67087645664E+01  0.24180959200E+03  0.27310075610E+03  0.12426275742E+03 0.  0.
         25    2    3    3    0    0  0.25018069424E+02  0.67087645664E+01  0.56081682339E+03  0.57526697236E+03  0.12548174678E+03 0.  0.
          5    1    4    4  502    0 -0.93938243976E+01 -0.12870329550E+02  0.25223519709E+03  0.25278167253E+03  0.47000000000E+01 0. -1.
         -5    1    4    4    0  502 -0.15624245027E+02  0.61615649835E+01 -0.10425605088E+02  0.20319083571E+02  0.47000000000E+01 0. -1.
          5    1    5    5  503    0  0.24112580340E+02 -0.34399989709E+02  0.63818615158E+02  0.76548556246E+02  0.47000000000E+01 0. -1.
         -5    1    5    5    0  503  0.90548908455E+00  0.41108754276E+02  0.49699820823E+03  0.49871841611E+03  0.47000000000E+01 0. -1.
<mgrwt>
<rscale>  0 0.27480655E+03</rscale>
<asrwt>0</asrwt>
<pdfrwt beam="1">  1        2 0.12699953E+00 0.27480655E+03</pdfrwt>
<pdfrwt beam="2">  1       -2 0.35185632E-02 0.27480655E+03</pdfrwt>
<totfact> 0.11322269E+04</totfact>
</mgrwt>
</event>
<event>
 9    1  0.2094635E-002  0.2758565E+03  0.7818608E-02  0.1097974E+00
         -2   -1    0    0    0  501 -0.00000000000E+00  0.00000000000E+00  0.16820558109E+02  0.16820558109E+02  0.00000000000E+00 0. -1.
          2   -1    0    0  501    0  0.00000000000E+00 -0.00000000000E+00 -0.11310087202E+04  0.11310087202E+04  0.00000000000E+00 0. -1.
         36    2    1    2    0    0  0.00000000000E+00  0.00000000000E+00 -0.11141881621E+04  0.11478292783E+04  0.27585646920E+03 0.  0.
         25    2    3    3    0    0  0.86545611850E+01  0.20863013210E+02 -0.33771722149E+03  0.35981337526E+03  0.12207610975E+03 0.  0.
         25    2    3    3    0    0 -0.86545611850E+01 -0.20863013210E+02 -0.77647094056E+03  0.78801590302E+03  0.13248311257E+03 0.  0.
          5    1    4    4  502    0 -0.11737021237E+02  0.40722382782E+02 -0.32583408683E+03  0.32861225215E+03  0.47000000000E+01 0. -1.
         -5    1    4    4    0  502  0.20391582422E+02 -0.19859369572E+02 -0.11883134665E+02  0.31201123104E+02  0.47000000000E+01 0. -1.
          5    1    5    5  503    0 -0.33868456573E+01 -0.27844833003E+02 -0.77751244104E+03  0.77803244882E+03  0.47000000000E+01 0. -1.
         -5    1    5    5    0  503 -0.52677155278E+01  0.69818197923E+01  0.10415004717E+01  0.99834541981E+01  0.47000000000E+01 0. -1.
<mgrwt>
<rscale>  0 0.27585647E+03</rscale>
<asrwt>0</asrwt>
<pdfrwt beam="1">  1        2 0.17400134E+00 0.27585647E+03</pdfrwt>
<pdfrwt beam="2">  1       -2 0.25877782E-02 0.27585647E+03</pdfrwt>
<totfact> 0.11546498E+04</totfact>
</mgrwt>
</event>
<event>
 9    1  0.2094635E-002  0.2752865E+03  0.7818608E-02  0.1098292E+00
          1   -1    0    0  501    0  0.00000000000E+00  0.00000000000E+00  0.41549513280E+03  0.41549513280E+03  0.00000000000E+00 0.  1.
         -1   -1    0    0    0  501 -0.00000000000E+00 -0.00000000000E+00 -0.45597795962E+02  0.45597795962E+02  0.00000000000E+00 0.  1.
         36    2    1    2    0    0  0.00000000000E+00  0.71054273576E-14  0.36989733684E+03  0.46109292876E+03  0.27528648560E+03 0.  0.
         25    2    3    3    0    0 -0.45896280638E+02 -0.31681402106E+02  0.12664700977E+03  0.18097820653E+03  0.11663389875E+03 0.  0.
         25    2    3    3    0    0  0.45896280638E+02  0.31681402106E+02  0.24325032706E+03  0.28011472223E+03  0.12721382071E+03 0.  0.
          5    1    4    4  502    0 -0.38797952840E+02  0.40654497651E+02  0.52698126842E+02  0.77183235851E+02  0.47000000000E+01 0.  1.
         -5    1    4    4    0  502 -0.70983277980E+01 -0.72335899756E+02  0.73948882933E+02  0.10379497068E+03  0.47000000000E+01 0.  1.
          5    1    5    5  503    0  0.18423442617E+02 -0.48324527343E+02  0.11776809087E+03  0.12870934856E+03  0.47000000000E+01 0.  1.
         -5    1    5    5    0  503  0.27472838020E+02  0.80005929448E+02  0.12548223620E+03  0.15140537367E+03  0.47000000000E+01 0.  1.
<mgrwt>
<rscale>  0 0.27528649E+03</rscale>
<asrwt>0</asrwt>
<pdfrwt beam="1">  1        1 0.63922326E-01 0.27528649E+03</pdfrwt>
<pdfrwt beam="2">  1       -1 0.70150458E-02 0.27528649E+03</pdfrwt>
<totfact> 0.60395656E+03</totfact>
</mgrwt>
</event>
<event>
 9    1  0.2094635E-002  0.2751841E+03  0.7818608E-02  0.1098349E+00
          1   -1    0    0  501    0  0.00000000000E+00  0.00000000000E+00  0.54849102105E+03  0.54849102105E+03  0.00000000000E+00 0.  1.
         -1   -1    0    0    0  501 -0.00000000000E+00 -0.00000000000E+00 -0.34515741663E+02  0.34515741663E+02  0.00000000000E+00 0.  1.
         36    2    1    2    0    0  0.71054273576E-14  0.00000000000E+00  0.51397527938E+03  0.58300676271E+03  0.27518411573E+03 0.  0.
         25    2    3    3    0    0 -0.44943587915E+02  0.33223818463E+02  0.24761448925E+03  0.28416569250E+03  0.12772414532E+03 0.  0.
         25    2    3    3    0    0  0.44943587915E+02 -0.33223818463E+02  0.26636079013E+03  0.29884107021E+03  0.12342676580E+03 0.  0.
          5    1    4    4  502    0 -0.38826284328E+02  0.47929370958E+01  0.49412504614E+01  0.39710937496E+02  0.47000000000E+01 0. -1.
         -5    1    4    4    0  502 -0.61173035874E+01  0.28430881367E+02  0.24267323879E+03  0.24445475501E+03  0.47000000000E+01 0. -1.
          5    1    5    5  503    0  0.61674605406E+02 -0.50964397885E+02  0.26153871701E+03  0.27354289846E+03  0.47000000000E+01 0. -1.
         -5    1    5    5    0  503 -0.16731017491E+02  0.17740579422E+02  0.48220731186E+01  0.25298171746E+02  0.47000000000E+01 0. -1.
<mgrwt>
<rscale>  0 0.27518412E+03</rscale>
<asrwt>0</asrwt>
<pdfrwt beam="1">  1        1 0.84383227E-01 0.27518412E+03</pdfrwt>
<pdfrwt beam="2">  1       -1 0.53101145E-02 0.27518412E+03</pdfrwt>
<totfact> 0.63752078E+03</totfact>
</mgrwt>
</event>
<event>
 9    1  0.2094635E-002  0.2768180E+03  0.7818608E-02  0.1097440E+00
         -2   -1    0    0    0  501 -0.00000000000E+00  0.00000000000E+00  0.90710214687E+02  0.90710214687E+02  0.00000000000E+00 0.  1.
          2   -1    0    0  501    0  0.00000000000E+00 -0.00000000000E+00 -0.21118958400E+03  0.21118958400E+03  0.00000000000E+00 0.  1.
         36    2    1    2    0    0  0.71054273576E-14 -0.14210854715E-13 -0.12047936931E+03  0.30189979868E+03  0.27681800884E+03 0.  0.
         25    2    3    3    0    0 -0.12753567292E+02 -0.61198212401E+02 -0.10995036244E+03  0.16410650623E+03  0.10456571382E+03 0.  0.
         25    2    3    3    0    0  0.12753567292E+02  0.61198212401E+02 -0.10529006869E+02  0.13779329245E+03  0.12234482735E+03 0.  0.
          5    1    4    4  502    0 -0.57006876404E+02 -0.49901568348E+02 -0.67756086075E+02  0.10174933750E+03  0.47000000000E+01 0.  1.
         -5    1    4    4    0  502  0.44253309112E+02 -0.11296644052E+02 -0.42194276366E+02  0.62357168732E+02  0.47000000000E+01 0.  1.
          5    1    5    5  503    0  0.58750161750E+02  0.59661185478E+01  0.15451094195E+02  0.61220930963E+02  0.47000000000E+01 0. -1.
         -5    1    5    5    0  503 -0.45996594458E+02  0.55232093853E+02 -0.25980101064E+02  0.76572361492E+02  0.47000000000E+01 0. -1.
<mgrwt>
<rscale>  0 0.27681801E+03</rscale>
<asrwt>0</asrwt>
<pdfrwt beam="1">  1        2 0.32490705E-01 0.27681801E+03</pdfrwt>
<pdfrwt beam="2">  1       -2 0.13955418E-01 0.27681801E+03</pdfrwt>
<totfact> 0.61512141E+03</totfact>
</mgrwt>
</event>
<event>
 9    1  0.2094635E-002  0.2749405E+03  0.7818608E-02  0.1098485E+00
         -1   -1    0    0    0  501 -0.00000000000E+00  0.00000000000E+00  0.10038629453E+03  0.10038629453E+03  0.00000000000E+00 0.  1.
          1   -1    0    0  501    0  0.00000000000E+00 -0.00000000000E+00 -0.18825348715E+03  0.18825348715E+03  0.00000000000E+00 0.  1.
         36    2    1    2    0    0  0.00000000000E+00 -0.31086244690E-14 -0.87867192623E+02  0.28863978168E+03  0.27494050271E+03 0.  0.
         25    2    3    3    0    0  0.56153856929E+02  0.19786577388E+01 -0.30575139853E+02  0.14142942570E+03  0.12613592883E+03 0.  0.
         25    2    3    3    0    0 -0.56153856929E+02 -0.19786577388E+01 -0.57292052770E+02  0.14721035599E+03  0.12341531049E+03 0.  0.
          5    1    4    4  502    0  0.11236151573E+02 -0.27983425139E+01  0.48585270265E+02  0.50166725125E+02  0.47000000000E+01 0.  1.
         -5    1    4    4    0  502  0.44917705356E+02  0.47770002527E+01 -0.79160410118E+02  0.91262700573E+02  0.47000000000E+01 0.  1.
          5    1    5    5  503    0 -0.18129802998E+02  0.41674388780E+02  0.20540925034E+02  0.50094550983E+02  0.47000000000E+01 0. -1.
         -5    1    5    5    0  503 -0.38024053931E+02 -0.43653046519E+02 -0.77832977803E+02  0.97115805003E+02  0.47000000000E+01 0. -1.
<mgrwt>
<rscale>  0 0.27494050E+03</rscale>
<asrwt>0</asrwt>
<pdfrwt beam="1">  1        1 0.28962075E-01 0.27494050E+03</pdfrwt>
<pdfrwt beam="2">  1       -1 0.15444045E-01 0.27494050E+03</pdfrwt>
<totfact> 0.48265077E+03</totfact>
</mgrwt>
</event>
<event>
 9    1  0.2094635E-002  0.2763971E+03  0.7818608E-02  0.1097673E+00
         -2   -1    0    0    0  501 -0.00000000000E+00  0.00000000000E+00  0.52226413261E+01  0.52226413261E+01  0.00000000000E+00 0.  1.
          2   -1    0    0  501    0  0.00000000000E+00 -0.00000000000E+00 -0.36569312348E+04  0.36569312348E+04  0.00000000000E+00 0.  1.
         36    2    1    2    0    0 -0.71054273576E-14  0.35527136788E-14 -0.36517085935E+04  0.36621538761E+04  0.27639710703E+03 0.  0.
         25    2    3    3    0    0 -0.47909370759E+02  0.17118643820E+02 -0.13655864514E+04  0.13723336943E+04  0.12603593415E+03 0.  0.
         25    2    3    3    0    0  0.47909370759E+02 -0.17118643820E+02 -0.22861221421E+04  0.22898201818E+04  0.11972326633E+03 0.  0.
          5    1    4    4  502    0 -0.89181592501E+02  0.25688199285E+02 -0.99409448117E+03  0.99842834871E+03  0.47000000000E+01 0.  1.
         -5    1    4    4    0  502  0.41272221742E+02 -0.85695554651E+01 -0.37149197020E+03  0.37390534563E+03  0.47000000000E+01 0.  1.
          5    1    5    5  503    0  0.18842519693E+01  0.47657197532E+02 -0.10893428702E+04  0.10903965966E+04  0.47000000000E+01 0. -1.
         -5    1    5    5    0  503  0.46025118790E+02 -0.64775841351E+02 -0.11967792719E+04  0.11994235852E+04  0.47000000000E+01 0. -1.
<mgrwt>
<rscale>  0 0.27639711E+03</rscale>
<asrwt>0</asrwt>
<pdfrwt beam="1">  1        2 0.56260543E+00 0.27639711E+03</pdfrwt>
<pdfrwt beam="2">  1       -2 0.80348238E-03 0.27639711E+03</pdfrwt>
<totfact> 0.23256550E+03</totfact>
</mgrwt>
</event>
<event>
 9    1  0.2094635E-002  0.2754998E+03  0.7818608E-02  0.1098173E+00
         -1   -1    0    0    0  501 -0.00000000000E+00  0.00000000000E+00  0.67376458236E+02  0.67376458236E+02  0.00000000000E+00 0.  1.
          1   -1    0    0  501    0  0.00000000000E+00 -0.00000000000E+00 -0.28162701991E+03  0.28162701991E+03  0.00000000000E+00 0.  1.
         36    2    1    2    0    0  0.00000000000E+00  0.71054273576E-14 -0.21425056167E+03  0.34900347815E+03  0.27549977238E+03 0.  0.
         25    2    3    3    0    0  0.11236324063E+01  0.57322097272E+02 -0.11881991329E+03  0.18392080562E+03  0.12814681252E+03 0.  0.
         25    2    3    3    0    0 -0.11236324063E+01 -0.57322097272E+02 -0.95430648383E+02  0.16508267253E+03  0.12189419483E+03 0.  0.
          5    1    4    4  502    0 -0.54913720848E+02 -0.56322462479E+01 -0.55306037588E+02  0.78282097115E+02  0.47000000000E+01 0. -1.
         -5    1    4    4    0  502  0.56037353254E+02  0.62954343520E+02 -0.63513875704E+02  0.10563870851E+03  0.47000000000E+01 0. -1.
          5    1    5    5  503    0  0.51520552293E+02 -0.60329322449E+02 -0.71817847365E+02  0.10711623432E+03  0.47000000000E+01 0. -1.
         -5    1    5    5    0  503 -0.52644184699E+02  0.30072251771E+01 -0.23612801019E+02  0.57966438202E+02  0.47000000000E+01 0. -1.
<mgrwt>
<rscale>  0 0.27549977E+03</rscale>
<asrwt>0</asrwt>
<pdfrwt beam="1">  1        1 0.43327234E-01 0.27549977E+03</pdfrwt>
<pdfrwt beam="2">  1       -1 0.10365609E-01 0.27549977E+03</pdfrwt>
<totfact> 0.54359214E+03</totfact>
</mgrwt>
</event>
<event>
 9    1  0.2094635E-002  0.2747714E+03  0.7818608E-02  0.1098579E+00
          2   -1    0    0  501    0  0.00000000000E+00  0.00000000000E+00  0.81387363692E+02  0.81387363692E+02  0.00000000000E+00 0.  1.
         -2   -1    0    0    0  501 -0.00000000000E+00 -0.00000000000E+00 -0.23191348502E+03  0.23191348502E+03  0.00000000000E+00 0.  1.
         36    2    1    2    0    0  0.00000000000E+00 -0.71054273576E-14 -0.15052612133E+03  0.31330084871E+03  0.27477137515E+03 0.  0.
         25    2    3    3    0    0  0.17441683321E+02  0.61773936865E+02 -0.72052146302E+02  0.15844191709E+03  0.12566661335E+03 0.  0.
         25    2    3    3    0    0 -0.17441683321E+02 -0.61773936865E+02 -0.78473975026E+02  0.15485893162E+03  0.11705935398E+03 0.  0.
          5    1    4    4  502    0  0.67043742206E+02  0.85276544499E+01 -0.28448621801E+02  0.73477876546E+02  0.47000000000E+01 0.  1.
         -5    1    4    4    0  502 -0.49602058884E+02  0.53246282415E+02 -0.43603524501E+02  0.84964040544E+02  0.47000000000E+01 0.  1.
          5    1    5    5  503    0 -0.42550118734E+02  0.19669052419E+02 -0.37312436841E+02  0.60097355768E+02  0.47000000000E+01 0. -1.
         -5    1    5    5    0  503  0.25108435413E+02 -0.81442989284E+02 -0.41161538185E+02  0.94761575853E+02  0.47000000000E+01 0. -1.
<mgrwt>
<rscale>  0 0.27477138E+03</rscale>
<asrwt>0</asrwt>
<pdfrwt beam="1">  1        2 0.12521133E-01 0.27477138E+03</pdfrwt>
<pdfrwt beam="2">  1       -2 0.35678997E-01 0.27477138E+03</pdfrwt>
<totfact> 0.35753124E+03</totfact>
</mgrwt>
</event>
<event>
 9    1  0.2094635E-002  0.2754223E+03  0.7818608E-02  0.1098216E+00
         -2   -1    0    0    0  501 -0.00000000000E+00  0.00000000000E+00  0.78923333543E+02  0.78923333543E+02  0.00000000000E+00 0.  1.
          2   -1    0    0  501    0  0.00000000000E+00 -0.00000000000E+00 -0.24028844109E+03  0.24028844109E+03  0.00000000000E+00 0.  1.
         36    2    1    2    0    0  0.00000000000E+00  0.35527136788E-14 -0.16136510755E+03  0.31921177463E+03  0.27542232867E+03 0.  0.
         25    2    3    3    0    0  0.54335461884E+01  0.21552097883E+02 -0.56617556688E+02  0.15532622590E+03  0.14292191007E+03 0.  0.
         25    2    3    3    0    0 -0.54335461884E+01 -0.21552097883E+02 -0.10474755086E+03  0.16388554874E+03  0.12406614093E+03 0.  0.
          5    1    4    4  502    0  0.34206042212E+02  0.36843929127E+01 -0.96638280388E+02  0.10268726947E+03  0.47000000000E+01 0. -1.
         -5    1    4    4    0  502 -0.28772496024E+02  0.17867704970E+02  0.40020723700E+02  0.52638956428E+02  0.47000000000E+01 0. -1.
          5    1    5    5  503    0 -0.63479468678E+02 -0.54522683381E+00 -0.45975778269E+02  0.78522623514E+02  0.47000000000E+01 0.  1.
         -5    1    5    5    0  503  0.58045922490E+02 -0.21006871049E+02 -0.58771772590E+02  0.85362925222E+02  0.47000000000E+01 0.  1.
<mgrwt>
<rscale>  0 0.27542233E+03</rscale>
<asrwt>0</asrwt>
<pdfrwt beam="1">  1        2 0.36967452E-01 0.27542233E+03</pdfrwt>
<pdfrwt beam="2">  1       -2 0.12142052E-01 0.27542233E+03</pdfrwt>
<totfact> 0.67045712E+03</totfact>
</mgrwt>
</event>
<event>
 9    1  0.2094635E-002  0.2757279E+03  0.7818608E-02  0.1098045E+00
         -2   -1    0    0    0  501 -0.00000000000E+00  0.00000000000E+00  0.61811890965E+03  0.61811890965E+03  0.00000000000E+00 0.  1.
          2   -1    0    0  501    0  0.00000000000E+00 -0.00000000000E+00 -0.30748890973E+02  0.30748890973E+02  0.00000000000E+00 0.  1.
         36    2    1    2    0    0  0.00000000000E+00  0.00000000000E+00  0.58737001868E+03  0.64886780063E+03  0.27572791633E+03 0.  0.
         25    2    3    3    0    0 -0.94010821685E+01  0.40835444924E+02  0.20679841171E+03  0.24470520188E+03  0.12393199279E+03 0.  0.
         25    2    3    3    0    0  0.94010821685E+01 -0.40835444924E+02  0.38057160697E+03  0.40416259874E+03  0.12944784386E+03 0.  0.
          5    1    4    4  502    0  0.18344577751E+02 -0.30923967882E+02  0.13350322591E+03  0.13834022066E+03  0.47000000000E+01 0.  1.
         -5    1    4    4    0  502 -0.27745659920E+02  0.71759412806E+02  0.73295185791E+02  0.10636498122E+03  0.47000000000E+01 0.  1.
          5    1    5    5  503    0  0.15322532396E+02 -0.87355684863E+02  0.25650458251E+03  0.27144518144E+03  0.47000000000E+01 0.  1.
         -5    1    5    5    0  503 -0.59214502276E+01  0.46520239939E+02  0.12406702446E+03  0.13271741730E+03  0.47000000000E+01 0.  1.
<mgrwt>
<rscale>  0 0.27572792E+03</rscale>
<asrwt>0</asrwt>
<pdfrwt beam="1">  1        2 0.47305991E-02 0.27572792E+03</pdfrwt>
<pdfrwt beam="2">  1       -2 0.95095208E-01 0.27572792E+03</pdfrwt>
<totfact> 0.16294707E+03</totfact>
</mgrwt>
</event>
<event>
 9    1  0.2094635E-002  0.2744640E+03  0.7818608E-02  0.1098752E+00
         -1   -1    0    0    0  501 -0.00000000000E+00  0.00000000000E+00  0.34713781763E+02  0.34713781763E+02  0.00000000000E+00 0.  1.
          1   -1    0    0  501    0  0.00000000000E+00 -0.00000000000E+00 -0.54251156058E+03  0.54251156058E+03  0.00000000000E+00 0.  1.
         36    2    1    2    0    0  0.35527136788E-14  0.35527136788E-14 -0.50779777882E+03  0.57722534234E+03  0.27446404441E+03 0.  0.
         25    2    3    3    0    0 -0.27089402633E+01  0.31788036486E+02 -0.36407453039E+03  0.38552626147E+03  0.12272903890E+03 0.  0.
         25    2    3    3    0    0  0.27089402633E+01 -0.31788036486E+02 -0.14372324843E+03  0.19169908087E+03  0.12277763577E+03 0.  0.
          5    1    4    4  502    0 -0.52052056919E+02 -0.19141688970E+02 -0.16676518100E+03  0.17580823781E+03  0.47000000000E+01 0. -1.
         -5    1    4    4    0  502  0.49343116655E+02  0.50929725456E+02 -0.19730934938E+03  0.20971802367E+03  0.47000000000E+01 0. -1.
          5    1    5    5  503    0 -0.17685573585E+02 -0.74946429255E+02 -0.10356918321E+03  0.12914492821E+03  0.47000000000E+01 0. -1.
         -5    1    5    5    0  503  0.20394513848E+02  0.43158392769E+02 -0.40154065223E+02  0.62554152663E+02  0.47000000000E+01 0. -1.
<mgrwt>
<rscale>  0 0.27446404E+03</rscale>
<asrwt>0</asrwt>
<pdfrwt beam="1">  1        1 0.83463307E-01 0.27446404E+03</pdfrwt>
<pdfrwt beam="2">  1       -1 0.53405825E-02 0.27446404E+03</pdfrwt>
<totfact> 0.64147416E+03</totfact>
</mgrwt>
</event>
<event>
 9    1  0.2094635E-002  0.2750944E+03  0.7818608E-02  0.1098399E+00
         -2   -1    0    0    0  501 -0.00000000000E+00  0.00000000000E+00  0.52005204421E+02  0.52005204421E+02  0.00000000000E+00 0.  1.
          2   -1    0    0  501    0  0.00000000000E+00 -0.00000000000E+00 -0.36379497635E+03  0.36379497635E+03  0.00000000000E+00 0.  1.
         36    2    1    2    0    0  0.00000000000E+00  0.71054273576E-14 -0.31178977193E+03  0.41580018077E+03  0.27509439916E+03 0.  0.
         25    2    3    3    0    0  0.28151070112E+02  0.52300483603E+02 -0.16191480056E+03  0.21194045146E+03  0.12318493816E+03 0.  0.
         25    2    3    3    0    0 -0.28151070112E+02 -0.52300483603E+02 -0.14987497137E+03  0.20385972932E+03  0.12477363047E+03 0.  0.
          5    1    4    4  502    0  0.23121904246E+02  0.82048223333E+02 -0.15999329185E+03  0.18134628985E+03  0.47000000000E+01 0.  1.
         -5    1    4    4    0  502  0.50291658666E+01 -0.29747739731E+02 -0.19215087158E+01  0.30594161602E+02  0.47000000000E+01 0.  1.
          5    1    5    5  503    0 -0.17976785934E+02 -0.67689395160E+02 -0.16515231836E+03  0.17945026417E+03  0.47000000000E+01 0.  1.
         -5    1    5    5    0  503 -0.10174284179E+02  0.15388911558E+02  0.15277346996E+02  0.24409465146E+02  0.47000000000E+01 0.  1.
<mgrwt>
<rscale>  0 0.27509440E+03</rscale>
<asrwt>0</asrwt>
<pdfrwt beam="1">  1        2 0.55968459E-01 0.27509440E+03</pdfrwt>
<pdfrwt beam="2">  1       -2 0.80008005E-02 0.27509440E+03</pdfrwt>
<totfact> 0.83166008E+03</totfact>
</mgrwt>
</event>
<event>
 9    1  0.2094635E-002  0.2752236E+03  0.7818608E-02  0.1098327E+00
         -2   -1    0    0    0  501 -0.00000000000E+00  0.00000000000E+00  0.26640288323E+02  0.26640288323E+02  0.00000000000E+00 0. -1.
          2   -1    0    0  501    0  0.00000000000E+00 -0.00000000000E+00 -0.71084095419E+03  0.71084095419E+03  0.00000000000E+00 0. -1.
         36    2    1    2    0    0  0.00000000000E+00 -0.14210854715E-13 -0.68420066587E+03  0.73748124252E+03  0.27522360343E+03 0.  0.
         25    2    3    3    0    0 -0.39138454107E+00 -0.44364376498E+02 -0.26117397818E+03  0.29485245653E+03  0.12945181791E+03 0.  0.
         25    2    3    3    0    0  0.39138454107E+00  0.44364376498E+02 -0.42302668769E+03  0.44262878598E+03  0.12247576332E+03 0.  0.
          5    1    4    4  502    0 -0.36178858734E+02 -0.78859194483E+02 -0.16304332346E+03  0.18475090717E+03  0.47000000000E+01 0.  1.
         -5    1    4    4    0  502  0.35787474193E+02  0.34494817985E+02 -0.98130654718E+02  0.11010154936E+03  0.47000000000E+01 0.  1.
          5    1    5    5  503    0  0.34600225916E+02 -0.95015768525E+01 -0.38586508827E+02  0.52900512848E+02  0.47000000000E+01 0.  1.
         -5    1    5    5    0  503 -0.34208841375E+02  0.53865953350E+02 -0.38444017886E+03  0.38972827314E+03  0.47000000000E+01 0.  1.
<mgrwt>
<rscale>  0 0.27522360E+03</rscale>
<asrwt>0</asrwt>
<pdfrwt beam="1">  1        2 0.10936014E+00 0.27522360E+03</pdfrwt>
<pdfrwt beam="2">  1       -2 0.40985060E-02 0.27522360E+03</pdfrwt>
<totfact> 0.10860511E+04</totfact>
</mgrwt>
</event>
<event>
 9    1  0.2094635E-002  0.2754670E+03  0.7818608E-02  0.1098191E+00
          2   -1    0    0  501    0  0.00000000000E+00  0.00000000000E+00  0.93815428237E+03  0.93815428237E+03  0.00000000000E+00 0.  1.
         -2   -1    0    0    0  501 -0.00000000000E+00 -0.00000000000E+00 -0.20221107902E+02  0.20221107902E+02  0.00000000000E+00 0.  1.
         36    2    1    2    0    0  0.00000000000E+00  0.00000000000E+00  0.91793317447E+03  0.95837539027E+03  0.27546701416E+03 0.  0.
         25    2    3    3    0    0 -0.33533338221E+02 -0.15637825376E+01  0.66243274218E+03  0.67485916147E+03  0.12446212162E+03 0.  0.
         25    2    3    3    0    0  0.33533338221E+02  0.15637825376E+01  0.25550043229E+03  0.28351622880E+03  0.11821188987E+03 0.  0.
          5    1    4    4  502    0 -0.45485033801E+02 -0.31496718914E+02  0.12911706846E+03  0.14054977399E+03  0.47000000000E+01 0. -1.
         -5    1    4    4    0  502  0.11951695580E+02  0.29932936376E+02  0.53331567372E+03  0.53430938748E+03  0.47000000000E+01 0. -1.
          5    1    5    5  503    0 -0.41066732565E+02 -0.17773479082E+02  0.10885255238E+03  0.11778514865E+03  0.47000000000E+01 0. -1.
         -5    1    5    5    0  503  0.74600070785E+02  0.19337261620E+02  0.14664787991E+03  0.16573108015E+03  0.47000000000E+01 0. -1.
<mgrwt>
<rscale>  0 0.27546701E+03</rscale>
<asrwt>0</asrwt>
<pdfrwt beam="1">  1        2 0.14433139E+00 0.27546701E+03</pdfrwt>
<pdfrwt beam="2">  1       -2 0.31109404E-02 0.27546701E+03</pdfrwt>
<totfact> 0.11485823E+04</totfact>
</mgrwt>
</event>
<event>
 9    1  0.2094635E-002  0.2749029E+03  0.7818608E-02  0.1098506E+00
          1   -1    0    0  501    0  0.00000000000E+00  0.00000000000E+00  0.69179272736E+03  0.69179272736E+03  0.00000000000E+00 0. -1.
         -1   -1    0    0    0  501 -0.00000000000E+00 -0.00000000000E+00 -0.27310055312E+02  0.27310055312E+02  0.00000000000E+00 0. -1.
         36    2    1    2    0    0  0.00000000000E+00  0.53290705182E-14  0.66448267205E+03  0.71910278267E+03  0.27490287484E+03 0.  0.
         25    2    3    3    0    0 -0.97912140185E+01 -0.42271957565E+01  0.21211442442E+03  0.24945230172E+03  0.13084412378E+03 0.  0.
         25    2    3    3    0    0  0.97912140185E+01  0.42271957565E+01  0.45236824762E+03  0.46965048096E+03  0.12578078450E+03 0.  0.
          5    1    4    4  502    0  0.20910045879E+02  0.45189004311E+01 -0.10655732901E+02  0.24357444928E+02  0.47000000000E+01 0. -1.
         -5    1    4    4    0  502 -0.30701259897E+02 -0.87460961876E+01  0.22277015733E+03  0.22509485679E+03  0.47000000000E+01 0. -1.
          5    1    5    5  503    0 -0.21102771346E+02  0.42661766264E+02  0.74376897712E+02  0.88427180056E+02  0.47000000000E+01 0.  1.
         -5    1    5    5    0  503  0.30893985365E+02 -0.38434570508E+02  0.37799134991E+03  0.38122330090E+03  0.47000000000E+01 0.  1.
<mgrwt>
<rscale>  0 0.27490287E+03</rscale>
<asrwt>0</asrwt>
<pdfrwt beam="1">  1        1 0.10642964E+00 0.27490287E+03</pdfrwt>
<pdfrwt beam="2">  1       -1 0.42015475E-02 0.27490287E+03</pdfrwt>
<totfact> 0.65355235E+03</totfact>
</mgrwt>
</event>
<event>
 9    1  0.2094635E-002  0.2771251E+03  0.7818608E-02  0.1097270E+00
          3   -1    0    0  501    0  0.00000000000E+00  0.00000000000E+00  0.12443822802E+03  0.12443822802E+03  0.00000000000E+00 0. -1.
         -3   -1    0    0    0  501 -0.00000000000E+00 -0.00000000000E+00 -0.15429005444E+03  0.15429005444E+03  0.00000000000E+00 0. -1.
         36    2    1    2    0    0  0.35527136788E-14  0.00000000000E+00 -0.29851826423E+02  0.27872828246E+03  0.27712510515E+03 0.  0.
         25    2    3    3    0    0 -0.10979259164E+02  0.56245340558E+02  0.10925685417E+01  0.13876958683E+03  0.12637927859E+03 0.  0.
         25    2    3    3    0    0  0.10979259164E+02 -0.56245340558E+02 -0.30944394965E+02  0.13995869563E+03  0.12388219581E+03 0.  0.
          5    1    4    4  502    0 -0.28379654233E+02  0.67118161042E+02 -0.46609160722E+02  0.86629995839E+02  0.47000000000E+01 0.  1.
         -5    1    4    4    0  502  0.17400395069E+02 -0.10872820484E+02  0.47701729263E+02  0.52139590989E+02  0.47000000000E+01 0.  1.
          5    1    5    5  503    0 -0.23559530701E+02  0.44077314270E+01  0.35755200171E+02  0.43301315482E+02  0.47000000000E+01 0.  1.
         -5    1    5    5    0  503  0.34538789866E+02 -0.60653071985E+02 -0.66699595136E+02  0.96657380152E+02  0.47000000000E+01 0.  1.
<mgrwt>
<rscale>  0 0.27712511E+03</rscale>
<asrwt>0</asrwt>
<pdfrwt beam="1">  1        3 0.19144343E-01 0.27712511E+03</pdfrwt>
<pdfrwt beam="2">  1       -3 0.23736932E-01 0.27712511E+03</pdfrwt>
<totfact> 0.10188347E+03</totfact>
</mgrwt>
</event>
<event>
 9    1  0.2094635E-002  0.2730980E+03  0.7818608E-02  0.1099520E+00
         -2   -1    0    0    0  501 -0.00000000000E+00  0.00000000000E+00  0.48996116758E+01  0.48996116758E+01  0.00000000000E+00 0. -1.
          2   -1    0    0  501    0  0.00000000000E+00 -0.00000000000E+00 -0.38055325513E+04  0.38055325513E+04  0.00000000000E+00 0. -1.
         36    2    1    2    0    0  0.71054273576E-14  0.14210854715E-13 -0.38006329397E+04  0.38104321630E+04  0.27309801699E+03 0.  0.
         25    2    3    3    0    0 -0.15152425688E+02 -0.43503754887E+02 -0.15342587368E+04  0.15401904415E+04  0.12694310548E+03 0.  0.
         25    2    3    3    0    0  0.15152425688E+02  0.43503754887E+02 -0.22663742029E+04  0.22702417215E+04  0.12419047423E+03 0.  0.
          5    1    4    4  502    0  0.24983170851E+02 -0.70721472180E+02 -0.60410132356E+03  0.60875790309E+03  0.47000000000E+01 0. -1.
         -5    1    4    4    0  502 -0.40135596538E+02  0.27217717292E+02 -0.93015741324E+03  0.93143253843E+03  0.47000000000E+01 0. -1.
          5    1    5    5  503    0  0.49058330910E+01  0.84623858703E+02 -0.11906194115E+04  0.11936422989E+04  0.47000000000E+01 0.  1.
         -5    1    5    5    0  503  0.10246592597E+02 -0.41120103815E+02 -0.10757547914E+04  0.10765994226E+04  0.47000000000E+01 0.  1.
<mgrwt>
<rscale>  0 0.27309802E+03</rscale>
<asrwt>0</asrwt>
<pdfrwt beam="1">  1        2 0.58546451E+00 0.27309802E+03</pdfrwt>
<pdfrwt beam="2">  1       -2 0.75378903E-03 0.27309802E+03</pdfrwt>
<totfact> 0.20049230E+03</totfact>
</mgrwt>
</event>
<event>
 9    1  0.2094635E-002  0.2740560E+03  0.7818608E-02  0.1098980E+00
          1   -1    0    0  501    0  0.00000000000E+00  0.00000000000E+00  0.10229973863E+04  0.10229973863E+04  0.00000000000E+00 0. -1.
         -1   -1    0    0    0  501 -0.00000000000E+00 -0.00000000000E+00 -0.18354562546E+02  0.18354562546E+02  0.00000000000E+00 0. -1.
         36    2    1    2    0    0  0.71054273576E-14  0.71054273576E-14  0.10046428237E+04  0.10413519488E+04  0.27405597611E+03 0.  0.
         25    2    3    3    0    0  0.32862693744E+02 -0.48687186399E+02  0.52846300253E+03  0.54671442438E+03  0.12717357441E+03 0.  0.
         25    2    3    3    0    0 -0.32862693744E+02  0.48687186399E+02  0.47617982119E+03  0.49463752442E+03  0.12028574189E+03 0.  0.
          5    1    4    4  502    0 -0.13623494012E+02  0.36332472674E+02  0.21702326160E+03  0.22051492973E+03  0.47000000000E+01 0.  1.
         -5    1    4    4    0  502  0.46486187756E+02 -0.85019659073E+02  0.31143974093E+03  0.32619949465E+03  0.47000000000E+01 0.  1.
          5    1    5    5  503    0 -0.47411183668E+02 -0.28201064512E+02  0.20677142792E+03  0.21405521199E+03  0.47000000000E+01 0.  1.
         -5    1    5    5    0  503  0.14548489924E+02  0.76888250911E+02  0.26940839327E+03  0.28058231244E+03  0.47000000000E+01 0.  1.
<mgrwt>
<rscale>  0 0.27405598E+03</rscale>
<asrwt>0</asrwt>
<pdfrwt beam="1">  1        1 0.15738417E+00 0.27405598E+03</pdfrwt>
<pdfrwt beam="2">  1       -1 0.28237796E-02 0.27405598E+03</pdfrwt>
<totfact> 0.63360959E+03</totfact>
</mgrwt>
</event>
<event>
 9    1  0.2094635E-002  0.2755676E+03  0.7818608E-02  0.1098135E+00
          2   -1    0    0  501    0  0.00000000000E+00  0.00000000000E+00  0.20198362499E+04  0.20198362499E+04  0.00000000000E+00 0. -1.
         -2   -1    0    0    0  501 -0.00000000000E+00 -0.00000000000E+00 -0.93989649128E+01  0.93989649128E+01  0.00000000000E+00 0. -1.
         36    2    1    2    0    0  0.35527136788E-14  0.14210854715E-13  0.20104372850E+04  0.20292352149E+04  0.27556756009E+03 0.  0.
         25    2    3    3    0    0 -0.16960007250E+02  0.42606033150E+02  0.63876949157E+03  0.65091029318E+03  0.11642521422E+03 0.  0.
         25    2    3    3    0    0  0.16960007250E+02 -0.42606033150E+02  0.13716677935E+04  0.13783249217E+04  0.12729547587E+03 0.  0.
          5    1    4    4  502    0  0.29583948092E+02  0.84531254158E+01  0.49406173369E+03  0.49504116193E+03  0.47000000000E+01 0. -1.
         -5    1    4    4    0  502 -0.46543955342E+02  0.34152907735E+02  0.14470775788E+03  0.15586913125E+03  0.47000000000E+01 0. -1.
          5    1    5    5  503    0  0.62257454000E+02 -0.45636608415E+02  0.11112513020E+04  0.11139390633E+04  0.47000000000E+01 0.  1.
         -5    1    5    5    0  503 -0.45297446750E+02  0.30305752651E+01  0.26041649145E+03  0.26438585833E+03  0.47000000000E+01 0.  1.
<mgrwt>
<rscale>  0 0.27556756E+03</rscale>
<asrwt>0</asrwt>
<pdfrwt beam="1">  1        2 0.31074369E+00 0.27556756E+03</pdfrwt>
<pdfrwt beam="2">  1       -2 0.14459962E-02 0.27556756E+03</pdfrwt>
<totfact> 0.90290345E+03</totfact>
</mgrwt>
</event>
<event>
 9    1  0.2094635E-002  0.2764199E+03  0.7818608E-02  0.1097661E+00
          2   -1    0    0  501    0  0.00000000000E+00  0.00000000000E+00  0.16359648705E+04  0.16359648705E+04  0.00000000000E+00 0. -1.
         -2   -1    0    0    0  501 -0.00000000000E+00 -0.00000000000E+00 -0.11676283603E+02  0.11676283603E+02  0.00000000000E+00 0. -1.
         36    2    1    2    0    0  0.00000000000E+00 -0.71054273576E-14  0.16242885869E+04  0.16476411541E+04  0.27641989648E+03 0.  0.
         25    2    3    3    0    0 -0.34861251225E+02 -0.53817252695E+02  0.90031168612E+03  0.91133467022E+03  0.12592912874E+03 0.  0.
         25    2    3    3    0    0  0.34861251225E+02  0.53817252695E+02  0.72397690075E+03  0.73630648385E+03  0.11786891795E+03 0.  0.
          5    1    4    4  502    0  0.21123487494E+02  0.26976030361E+02  0.12135107376E+03  0.12618272878E+03  0.47000000000E+01 0. -1.
         -5    1    4    4    0  502 -0.55984738718E+02 -0.80793283056E+02  0.77896061236E+03  0.78515194145E+03  0.47000000000E+01 0. -1.
          5    1    5    5  503    0  0.16346830678E+02 -0.10258493677E+02  0.54316493175E+03  0.54352800171E+03  0.47000000000E+01 0. -1.
         -5    1    5    5    0  503  0.18514420547E+02  0.64075746372E+02  0.18081196900E+03  0.19277848214E+03  0.47000000000E+01 0. -1.
<mgrwt>
<rscale>  0 0.27641990E+03</rscale>
<asrwt>0</asrwt>
<pdfrwt beam="1">  1        2 0.25168672E+00 0.27641990E+03</pdfrwt>
<pdfrwt beam="2">  1       -2 0.17963526E-02 0.27641990E+03</pdfrwt>
<totfact> 0.10458751E+04</totfact>
</mgrwt>
</event>
<event>
 9    1  0.2094635E-002  0.2752938E+03  0.7818608E-02  0.1098287E+00
         -1   -1    0    0    0  501 -0.00000000000E+00  0.00000000000E+00  0.39402228933E+02  0.39402228933E+02  0.00000000000E+00 0.  1.
          1   -1    0    0  501    0  0.00000000000E+00 -0.00000000000E+00 -0.48085272931E+03  0.48085272931E+03  0.00000000000E+00 0.  1.
         36    2    1    2    0    0 -0.35527136788E-14  0.00000000000E+00 -0.44145050038E+03  0.52025495824E+03  0.27529380177E+03 0.  0.
         25    2    3    3    0    0 -0.22450209765E+02  0.42007743068E+02 -0.24662609095E+03  0.28063344835E+03  0.12514807708E+03 0.  0.
         25    2    3    3    0    0  0.22450209765E+02 -0.42007743068E+02 -0.19482440942E+03  0.23962150989E+03  0.13112305327E+03 0.  0.
          5    1    4    4  502    0  0.30912034582E+02 -0.11257985425E+00 -0.77308300152E+01  0.32209040484E+02  0.47000000000E+01 0. -1.
         -5    1    4    4    0  502 -0.53362244347E+02  0.42120322922E+02 -0.23889526094E+03  0.24842440787E+03  0.47000000000E+01 0. -1.
          5    1    5    5  503    0 -0.10858100405E+01 -0.58517447927E+02 -0.19464001404E+02  0.61857966714E+02  0.47000000000E+01 0.  1.
         -5    1    5    5    0  503  0.23536019806E+02  0.16509704860E+02 -0.17536040802E+03  0.17776354318E+03  0.47000000000E+01 0.  1.
<mgrwt>
<rscale>  0 0.27529380E+03</rscale>
<asrwt>0</asrwt>
<pdfrwt beam="1">  1        1 0.73977347E-01 0.27529380E+03</pdfrwt>
<pdfrwt beam="2">  1       -1 0.60618810E-02 0.27529380E+03</pdfrwt>
<totfact> 0.62280057E+03</totfact>
</mgrwt>
</event>
<event>
 9    1  0.2094635E-002  0.2752517E+03  0.7818608E-02  0.1098311E+00
         -2   -1    0    0    0  501 -0.00000000000E+00  0.00000000000E+00  0.12559821431E+04  0.12559821431E+04  0.00000000000E+00 0.  1.
          2   -1    0    0  501    0  0.00000000000E+00 -0.00000000000E+00 -0.15080531831E+02  0.15080531831E+02  0.00000000000E+00 0.  1.
         36    2    1    2    0    0  0.00000000000E+00  0.00000000000E+00  0.12409016112E+04  0.12710626749E+04  0.27525172978E+03 0.  0.
         25    2    3    3    0    0  0.79741754672E+02 -0.36989384965E+01  0.56560572920E+03  0.57916052122E+03  0.95627605069E+02 0.  0.
         25    2    3    3    0    0 -0.79741754672E+02  0.36989384965E+01  0.67529588203E+03  0.69190215367E+03  0.12779527529E+03 0.  0.
          5    1    4    4  502    0  0.43983510316E+02 -0.48950456737E+02  0.26995150164E+03  0.27789674275E+03  0.47000000000E+01 0.  1.
         -5    1    4    4    0  502  0.35758244356E+02  0.45251518240E+02  0.29565422756E+03  0.30126377846E+03  0.47000000000E+01 0.  1.
          5    1    5    5  503    0 -0.89774436410E+02  0.13213764454E+02  0.24416306341E+03  0.26052206152E+03  0.47000000000E+01 0. -1.
         -5    1    5    5    0  503  0.10032681738E+02 -0.95148259574E+01  0.43113281862E+03  0.43138009215E+03  0.47000000000E+01 0. -1.
<mgrwt>
<rscale>  0 0.27525173E+03</rscale>
<asrwt>0</asrwt>
<pdfrwt beam="1">  1        2 0.23200828E-02 0.27525173E+03</pdfrwt>
<pdfrwt beam="2">  1       -2 0.19322794E+00 0.27525173E+03</pdfrwt>
<totfact> 0.71067616E+02</totfact>
</mgrwt>
</event>
<event>
 9    1  0.2094635E-002  0.2734373E+03  0.7818608E-02  0.1099328E+00
         -3   -1    0    0    0  501 -0.00000000000E+00  0.00000000000E+00  0.18250431896E+03  0.18250431896E+03  0.00000000000E+00 0.  1.
          3   -1    0    0  501    0  0.00000000000E+00 -0.00000000000E+00 -0.10241945652E+03  0.10241945652E+03  0.00000000000E+00 0.  1.
         36    2    1    2    0    0 -0.71054273576E-14  0.00000000000E+00  0.80084862433E+02  0.28492377548E+03  0.27343732855E+03 0.  0.
         25    2    3    3    0    0  0.88713523771E+01 -0.50825021245E+02 -0.43417701514E+01  0.12578338713E+03  0.11463300499E+03 0.  0.
         25    2    3    3    0    0 -0.88713523771E+01  0.50825021245E+02  0.84426632585E+02  0.15914038835E+03  0.12464318368E+03 0.  0.
          5    1    4    4  502    0 -0.33946925113E+02 -0.28176099647E+02  0.40155715795E+02  0.59840269275E+02  0.47000000000E+01 0.  1.
         -5    1    4    4    0  502  0.42818277490E+02 -0.22648921597E+02 -0.44497485946E+02  0.65943117854E+02  0.47000000000E+01 0.  1.
          5    1    5    5  503    0  0.20825915451E+02  0.41515374649E+02  0.10941119192E+03  0.11895437783E+03  0.47000000000E+01 0.  1.
         -5    1    5    5    0  503 -0.29697267828E+02  0.93096465953E+01 -0.24984559339E+02  0.40186010521E+02  0.47000000000E+01 0.  1.
<mgrwt>
<rscale>  0 0.27343733E+03</rscale>
<asrwt>0</asrwt>
<pdfrwt beam="1">  1        3 0.15756839E-01 0.27343733E+03</pdfrwt>
<pdfrwt beam="2">  1       -3 0.28077587E-01 0.27343733E+03</pdfrwt>
<totfact> 0.10520214E+03</totfact>
</mgrwt>
</event>
<event>
 9    1  0.2094635E-002  0.2787106E+03  0.7818608E-02  0.1096395E+00
          1   -1    0    0  501    0  0.00000000000E+00  0.00000000000E+00  0.10136408217E+03  0.10136408217E+03  0.00000000000E+00 0. -1.
         -1   -1    0    0    0  501 -0.00000000000E+00 -0.00000000000E+00 -0.19158567664E+03  0.19158567664E+03  0.00000000000E+00 0. -1.
         36    2    1    2    0    0  0.00000000000E+00 -0.71054273576E-14 -0.90221594470E+02  0.29294975881E+03  0.27871064759E+03 0.  0.
         25    2    3    3    0    0  0.51799076180E+02  0.21387496821E+02 -0.70688707883E+02  0.15257227355E+03  0.12304810409E+03 0.  0.
         25    2    3    3    0    0 -0.51799076180E+02 -0.21387496821E+02 -0.19532886587E+02  0.14037748526E+03  0.12721531117E+03 0.  0.
          5    1    4    4  502    0  0.51247855416E+02 -0.39738862450E+02 -0.63429884564E+02  0.90834795807E+02  0.47000000000E+01 0. -1.
         -5    1    4    4    0  502  0.55122076375E+00  0.61126359271E+02 -0.72588233184E+01  0.61737477742E+02  0.47000000000E+01 0. -1.
          5    1    5    5  503    0  0.19822984163E+02 -0.55365294544E+02 -0.14809189954E+02  0.60824901547E+02  0.47000000000E+01 0.  1.
         -5    1    5    5    0  503 -0.71622060343E+02  0.33977797723E+02 -0.47236966334E+01  0.79552583715E+02  0.47000000000E+01 0.  1.
<mgrwt>
<rscale>  0 0.27871065E+03</rscale>
<asrwt>0</asrwt>
<pdfrwt beam="1">  1        1 0.15594474E-01 0.27871065E+03</pdfrwt>
<pdfrwt beam="2">  1       -1 0.29474719E-01 0.27871065E+03</pdfrwt>
<totfact> 0.37099984E+03</totfact>
</mgrwt>
</event>
<event>
 9    1  0.2094635E-002  0.2755044E+03  0.7818608E-02  0.1098170E+00
          2   -1    0    0  501    0  0.00000000000E+00  0.00000000000E+00  0.16091954616E+03  0.16091954616E+03  0.00000000000E+00 0. -1.
         -2   -1    0    0    0  501 -0.00000000000E+00 -0.00000000000E+00 -0.11792025049E+03  0.11792025049E+03  0.00000000000E+00 0. -1.
         36    2    1    2    0    0  0.14210854715E-13 -0.71054273576E-14  0.42999295676E+02  0.27883979665E+03  0.27550443330E+03 0.  0.
         25    2    3    3    0    0  0.41750923535E+02 -0.64883381179E+01 -0.12333265712E+02  0.13497819262E+03  0.12760001917E+03 0.  0.
         25    2    3    3    0    0 -0.41750923535E+02  0.64883381179E+01  0.55332561388E+02  0.14386160402E+03  0.12589372746E+03 0.  0.
          5    1    4    4  502    0  0.23651856504E+01  0.54712629210E+02 -0.25957111996E+02  0.60785915814E+02  0.47000000000E+01 0.  1.
         -5    1    4    4    0  502  0.39385737884E+02 -0.61200967328E+02  0.13623846284E+02  0.74192276809E+02  0.47000000000E+01 0.  1.
          5    1    5    5  503    0  0.16260616870E+02 -0.46581334009E+02  0.39838189836E+02  0.63587732374E+02  0.47000000000E+01 0. -1.
         -5    1    5    5    0  503 -0.58011540405E+02  0.53069672127E+02  0.15494371552E+02  0.80273871650E+02  0.47000000000E+01 0. -1.
<mgrwt>
<rscale>  0 0.27550443E+03</rscale>
<asrwt>0</asrwt>
<pdfrwt beam="1">  1        2 0.24756853E-01 0.27550443E+03</pdfrwt>
<pdfrwt beam="2">  1       -2 0.18141577E-01 0.27550443E+03</pdfrwt>
<totfact> 0.53664527E+03</totfact>
</mgrwt>
</event>
<event>
 9    1  0.2094635E-002  0.2748082E+03  0.7818608E-02  0.1098559E+00
          2   -1    0    0  501    0  0.00000000000E+00  0.00000000000E+00  0.83436822668E+03  0.83436822668E+03  0.00000000000E+00 0. -1.
         -2   -1    0    0    0  501 -0.00000000000E+00 -0.00000000000E+00 -0.22627766861E+02  0.22627766861E+02  0.00000000000E+00 0. -1.
         36    2    1    2    0    0  0.71054273576E-14 -0.71054273576E-14  0.81174045981E+03  0.85699599354E+03  0.27480822193E+03 0.  0.
         25    2    3    3    0    0  0.28482408753E+02  0.39788399325E+02  0.32694622480E+03  0.35344215453E+03  0.12503262919E+03 0.  0.
         25    2    3    3    0    0 -0.28482408753E+02 -0.39788399325E+02  0.48479423501E+03  0.50355383900E+03  0.12706948549E+03 0.  0.
          5    1    4    4  502    0  0.48047544087E+02 -0.32826509783E+02  0.12725492599E+03  0.14000732990E+03  0.47000000000E+01 0.  1.
         -5    1    4    4    0  502 -0.19565135334E+02  0.72614909108E+02  0.19969129881E+03  0.21343482463E+03  0.47000000000E+01 0.  1.
          5    1    5    5  503    0  0.12567000346E+02 -0.53814755918E+02  0.85697403087E+02  0.10207885358E+03  0.47000000000E+01 0.  1.
         -5    1    5    5    0  503 -0.41049409099E+02  0.14026356594E+02  0.39909683193E+03  0.40147498542E+03  0.47000000000E+01 0.  1.
<mgrwt>
<rscale>  0 0.27480822E+03</rscale>
<asrwt>0</asrwt>
<pdfrwt beam="1">  1        2 0.12836432E+00 0.27480822E+03</pdfrwt>
<pdfrwt beam="2">  1       -2 0.34811955E-02 0.27480822E+03</pdfrwt>
<totfact> 0.11346830E+04</totfact>
</mgrwt>
</event>
<event>
 9    1  0.2094635E-002  0.2750925E+03  0.7818608E-02  0.1098400E+00
         -2   -1    0    0    0  501 -0.00000000000E+00  0.00000000000E+00  0.59570164621E+02  0.59570164621E+02  0.00000000000E+00 0. -1.
          2   -1    0    0  501    0  0.00000000000E+00 -0.00000000000E+00 -0.31759130947E+03  0.31759130947E+03  0.00000000000E+00 0. -1.
         36    2    1    2    0    0 -0.71054273576E-14  0.35527136788E-14 -0.25802114485E+03  0.37716147409E+03  0.27509246872E+03 0.  0.
         25    2    3    3    0    0 -0.22144008094E+02  0.78285967435E+00 -0.17755524362E+03  0.21830192015E+03  0.12505556302E+03 0.  0.
         25    2    3    3    0    0  0.22144008094E+02 -0.78285967435E+00 -0.80465901229E+02  0.15885955393E+03  0.13516888197E+03 0.  0.
          5    1    4    4  502    0  0.11885023518E+02 -0.35855397545E+02 -0.16097162849E+03  0.16541105918E+03  0.47000000000E+01 0.  1.
         -5    1    4    4    0  502 -0.34029031612E+02  0.36638257220E+02 -0.16583615124E+02  0.52890860979E+02  0.47000000000E+01 0.  1.
          5    1    5    5  503    0 -0.23973768848E+02 -0.26160347890E+02 -0.97074087423E+02  0.10346291047E+03  0.47000000000E+01 0. -1.
         -5    1    5    5    0  503  0.46117776942E+02  0.25377488216E+02  0.16608186194E+02  0.55396643462E+02  0.47000000000E+01 0. -1.
<mgrwt>
<rscale>  0 0.27509247E+03</rscale>
<asrwt>0</asrwt>
<pdfrwt beam="1">  1        2 0.48860201E-01 0.27509247E+03</pdfrwt>
<pdfrwt beam="2">  1       -2 0.91646407E-02 0.27509247E+03</pdfrwt>
<totfact> 0.77794666E+03</totfact>
</mgrwt>
</event>
<event>
 9    1  0.2094635E-002  0.2742871E+03  0.7818608E-02  0.1098851E+00
         -1   -1    0    0    0  501 -0.00000000000E+00  0.00000000000E+00  0.83054484237E+02  0.83054484237E+02  0.00000000000E+00 0. -1.
          1   -1    0    0  501    0  0.00000000000E+00 -0.00000000000E+00 -0.22645805042E+03  0.22645805042E+03  0.00000000000E+00 0. -1.
         36    2    1    2    0    0  0.35527136788E-14 -0.71054273576E-14 -0.14340356618E+03  0.30951253466E+03  0.27428712386E+03 0.  0.
         25    2    3    3    0    0 -0.10299481001E+01 -0.41807370525E+02 -0.32942091356E+02  0.13648602815E+03  0.12567552456E+03 0.  0.
         25    2    3    3    0    0  0.10299481001E+01  0.41807370525E+02 -0.11046147483E+03  0.17302650651E+03  0.12644175541E+03 0.  0.
          5    1    4    4  502    0 -0.24176209743E+02 -0.65035238610E+02 -0.61434287732E+02  0.92791880506E+02  0.47000000000E+01 0.  1.
         -5    1    4    4    0  502  0.23146261643E+02  0.23227868085E+02  0.28492196375E+02  0.43694147642E+02  0.47000000000E+01 0.  1.
          5    1    5    5  503    0 -0.33493108931E+02  0.39014013611E+02  0.54873402383E+01  0.51923814447E+02  0.47000000000E+01 0.  1.
         -5    1    5    5    0  503  0.34523057031E+02  0.27933569140E+01 -0.11594881506E+03  0.12110269206E+03  0.47000000000E+01 0.  1.
<mgrwt>
<rscale>  0 0.27428712E+03</rscale>
<asrwt>0</asrwt>
<pdfrwt beam="1">  1        1 0.34839700E-01 0.27428712E+03</pdfrwt>
<pdfrwt beam="2">  1       -1 0.12777613E-01 0.27428712E+03</pdfrwt>
<totfact> 0.51582811E+03</totfact>
</mgrwt>
</event>
<event>
 9    1  0.2094635E-002  0.2720588E+03  0.7818608E-02  0.1100107E+00
         -2   -1    0    0    0  501 -0.00000000000E+00  0.00000000000E+00  0.13969905276E+02  0.13969905276E+02  0.00000000000E+00 0.  1.
          2   -1    0    0  501    0  0.00000000000E+00 -0.00000000000E+00 -0.13245609891E+04  0.13245609891E+04  0.00000000000E+00 0.  1.
         36    2    1    2    0    0  0.00000000000E+00 -0.71054273576E-14 -0.13105910838E+04  0.13385308944E+04  0.27205875505E+03 0.  0.
         25    2    3    3    0    0 -0.28792758873E+02  0.23357062573E+02 -0.50756585510E+03  0.52464802648E+03  0.12750638844E+03 0.  0.
         25    2    3    3    0    0  0.28792758873E+02 -0.23357062573E+02 -0.80302522873E+03  0.81388286790E+03  0.12720546116E+03 0.  0.
          5    1    4    4  502    0 -0.16236376402E+02  0.47039364471E+02 -0.68806750328E+02  0.85045756033E+02  0.47000000000E+01 0. -1.
         -5    1    4    4    0  502 -0.12556382471E+02 -0.23682301898E+02 -0.43875910477E+03  0.43960227044E+03  0.47000000000E+01 0. -1.
          5    1    5    5  503    0  0.63201806088E+02 -0.43352091602E+02 -0.68392011377E+03  0.68821703274E+03  0.47000000000E+01 0. -1.
         -5    1    5    5    0  503 -0.34409047215E+02  0.19995029029E+02 -0.11910511496E+03  0.12566583515E+03  0.47000000000E+01 0. -1.
<mgrwt>
<rscale>  0 0.27205876E+03</rscale>
<asrwt>0</asrwt>
<pdfrwt beam="1">  1        2 0.20377860E+00 0.27205876E+03</pdfrwt>
<pdfrwt beam="2">  1       -2 0.21492163E-02 0.27205876E+03</pdfrwt>
<totfact> 0.11808416E+04</totfact>
</mgrwt>
</event>
<event>
 9    1  0.2094635E-002  0.2748982E+03  0.7818608E-02  0.1098509E+00
         -2   -1    0    0    0  501 -0.00000000000E+00  0.00000000000E+00  0.41719936488E+02  0.41719936488E+02  0.00000000000E+00 0.  1.
          2   -1    0    0  501    0  0.00000000000E+00 -0.00000000000E+00 -0.45283513058E+03  0.45283513058E+03  0.00000000000E+00 0.  1.
         36    2    1    2    0    0  0.00000000000E+00  0.00000000000E+00 -0.41111519409E+03  0.49455506707E+03  0.27489818397E+03 0.  0.
         25    2    3    3    0    0 -0.11769299526E+02 -0.33947280567E+02 -0.17444479620E+03  0.22115502631E+03  0.13110158073E+03 0.  0.
         25    2    3    3    0    0  0.11769299526E+02  0.33947280567E+02 -0.23667039789E+03  0.27340004076E+03  0.13207486809E+03 0.  0.
          5    1    4    4  502    0 -0.12149772056E+01 -0.56344478786E+02 -0.18528311137E+03  0.19372170198E+03  0.47000000000E+01 0.  1.
         -5    1    4    4    0  502 -0.10554322321E+02  0.22397198218E+02  0.10838315172E+02  0.27433324324E+02  0.47000000000E+01 0.  1.
          5    1    5    5  503    0 -0.51887903423E+02  0.39677094293E+02 -0.75439396267E+02  0.99899043250E+02  0.47000000000E+01 0. -1.
         -5    1    5    5    0  503  0.63657202949E+02 -0.57298137250E+01 -0.16123100162E+03  0.17350099751E+03  0.47000000000E+01 0. -1.
<mgrwt>
<rscale>  0 0.27489818E+03</rscale>
<asrwt>0</asrwt>
<pdfrwt beam="1">  1        2 0.69666945E-01 0.27489818E+03</pdfrwt>
<pdfrwt beam="2">  1       -2 0.64184516E-02 0.27489818E+03</pdfrwt>
<totfact> 0.92212104E+03</totfact>
</mgrwt>
</event>
<event>
 9    1  0.2094635E-002  0.2735618E+03  0.7818608E-02  0.1099258E+00
          1   -1    0    0  501    0  0.00000000000E+00  0.00000000000E+00  0.45702804688E+02  0.45702804688E+02  0.00000000000E+00 0. -1.
         -1   -1    0    0    0  501 -0.00000000000E+00 -0.00000000000E+00 -0.40936260414E+03  0.40936260414E+03  0.00000000000E+00 0. -1.
         36    2    1    2    0    0  0.14210854715E-13  0.00000000000E+00 -0.36365979945E+03  0.45506540883E+03  0.27356183318E+03 0.  0.
         25    2    3    3    0    0  0.59632817637E+02 -0.82563235815E+01 -0.13065765055E+03  0.19056887219E+03  0.12498333321E+03 0.  0.
         25    2    3    3    0    0 -0.59632817637E+02  0.82563235815E+01 -0.23300214889E+03  0.26449653664E+03  0.10974596433E+03 0.  0.
          5    1    4    4  502    0 -0.97646575730E+01  0.26912991180E+02 -0.10434756782E+03  0.10830587491E+03  0.47000000000E+01 0. -1.
         -5    1    4    4    0  502  0.69397475210E+02 -0.35169314762E+02 -0.26310082738E+02  0.82262997271E+02  0.47000000000E+01 0. -1.
          5    1    5    5  503    0 -0.25278446508E+02  0.53808171651E+02 -0.16589632542E+03  0.17628953452E+03  0.47000000000E+01 0. -1.
         -5    1    5    5    0  503 -0.34354371129E+02 -0.45551848069E+02 -0.67105823474E+02  0.88207002116E+02  0.47000000000E+01 0. -1.
<mgrwt>
<rscale>  0 0.27356183E+03</rscale>
<asrwt>0</asrwt>
<pdfrwt beam="1">  1        1 0.70312003E-02 0.27356183E+03</pdfrwt>
<pdfrwt beam="2">  1       -1 0.62978866E-01 0.27356183E+03</pdfrwt>
<totfact> 0.27367240E+03</totfact>
</mgrwt>
</event>
<event>
 9    1  0.2094635E-002  0.2751674E+03  0.7818608E-02  0.1098358E+00
         -2   -1    0    0    0  501 -0.00000000000E+00  0.00000000000E+00  0.70111130337E+02  0.70111130337E+02  0.00000000000E+00 0.  1.
          2   -1    0    0  501    0  0.00000000000E+00 -0.00000000000E+00 -0.26998963911E+03  0.26998963911E+03  0.00000000000E+00 0.  1.
         36    2    1    2    0    0  0.71054273576E-14  0.00000000000E+00 -0.19987850877E+03  0.34010076945E+03  0.27516743105E+03 0.  0.
         25    2    3    3    0    0  0.25192375808E+02  0.35828765239E+02 -0.14918891540E+03  0.19939488153E+03  0.12483040528E+03 0.  0.
         25    2    3    3    0    0 -0.25192375808E+02 -0.35828765239E+02 -0.50689593368E+02  0.14070588792E+03  0.12373502253E+03 0.  0.
          5    1    4    4  502    0 -0.24534205038E+02 -0.12057209770E+01 -0.13274048955E+03  0.13507593622E+03  0.47000000000E+01 0.  1.
         -5    1    4    4    0  502  0.49726580846E+02  0.37034486216E+02 -0.16448425850E+02  0.64318945303E+02  0.47000000000E+01 0.  1.
          5    1    5    5  503    0  0.17830643071E+02 -0.58020492958E+02 -0.65927792981E+02  0.89737803198E+02  0.47000000000E+01 0.  1.
         -5    1    5    5    0  503 -0.43023018879E+02  0.22191727718E+02  0.15238199614E+02  0.50968084720E+02  0.47000000000E+01 0.  1.
<mgrwt>
<rscale>  0 0.27516743E+03</rscale>
<asrwt>0</asrwt>
<pdfrwt beam="1">  1        2 0.41536868E-01 0.27516743E+03</pdfrwt>
<pdfrwt beam="2">  1       -2 0.10786328E-01 0.27516743E+03</pdfrwt>
<totfact> 0.71514376E+03</totfact>
</mgrwt>
</event>
<event>
 9    1  0.2094635E-002  0.2750882E+03  0.7818608E-02  0.1098402E+00
         -2   -1    0    0    0  501 -0.00000000000E+00  0.00000000000E+00  0.22967863488E+02  0.22967863488E+02  0.00000000000E+00 0.  1.
          2   -1    0    0  501    0  0.00000000000E+00 -0.00000000000E+00 -0.82368900729E+03  0.82368900729E+03  0.00000000000E+00 0.  1.
         36    2    1    2    0    0  0.00000000000E+00 -0.14210854715E-13 -0.80072114380E+03  0.84665687078E+03  0.27508817987E+03 0.  0.
         25    2    3    3    0    0  0.24473267624E+02  0.49831357222E+02 -0.35581744578E+03  0.38095669603E+03  0.12425717098E+03 0.  0.
         25    2    3    3    0    0 -0.24473267624E+02 -0.49831357222E+02 -0.44490369802E+03  0.46570017475E+03  0.12591762090E+03 0.  0.
          5    1    4    4  502    0 -0.16747142529E+02 -0.70172793199E+01 -0.52775286801E+00  0.18763728708E+02  0.47000000000E+01 0.  1.
         -5    1    4    4    0  502  0.41220410153E+02  0.56848636542E+02 -0.35528969291E+03  0.36219296732E+03  0.47000000000E+01 0.  1.
          5    1    5    5  503    0 -0.43045739511E+02  0.20873640422E+02 -0.29459296036E+03  0.29848910675E+03  0.47000000000E+01 0.  1.
         -5    1    5    5    0  503  0.18572471888E+02 -0.70704997644E+02 -0.15031073767E+03  0.16721106800E+03  0.47000000000E+01 0.  1.
<mgrwt>
<rscale>  0 0.27508818E+03</rscale>
<asrwt>0</asrwt>
<pdfrwt beam="1">  1        2 0.12672139E+00 0.27508818E+03</pdfrwt>
<pdfrwt beam="2">  1       -2 0.35335175E-02 0.27508818E+03</pdfrwt>
<totfact> 0.11282853E+04</totfact>
</mgrwt>
</event>
<event>
 9    1  0.2094635E-002  0.2748716E+03  0.7818608E-02  0.1098523E+00
         -1   -1    0    0    0  501 -0.00000000000E+00  0.00000000000E+00  0.85434169073E+02  0.85434169073E+02  0.00000000000E+00 0.  1.
          1   -1    0    0  501    0  0.00000000000E+00 -0.00000000000E+00 -0.22108952675E+03  0.22108952675E+03  0.00000000000E+00 0.  1.
         36    2    1    2    0    0  0.17763568394E-14  0.71054273576E-14 -0.13565535768E+03  0.30652369583E+03  0.27487160646E+03 0.  0.
         25    2    3    3    0    0  0.12513524163E+02  0.41385379944E+02 -0.29841190439E+02  0.13716660945E+03  0.12670771145E+03 0.  0.
         25    2    3    3    0    0 -0.12513524163E+02 -0.41385379944E+02 -0.10581416724E+03  0.16935708638E+03  0.12496338166E+03 0.  0.
          5    1    4    4  502    0 -0.11479721562E+02  0.16822156534E+02 -0.76353272362E+02  0.79162372110E+02  0.47000000000E+01 0.  1.
         -5    1    4    4    0  502  0.23993245725E+02  0.24563223411E+02  0.46512081923E+02  0.58004237341E+02  0.47000000000E+01 0.  1.
          5    1    5    5  503    0  0.23228870625E+01  0.36702956255E+02 -0.18129778306E+00  0.37075944641E+02  0.47000000000E+01 0.  1.
         -5    1    5    5    0  503 -0.14836411226E+02 -0.78088336200E+02 -0.10563286946E+03  0.13228114174E+03  0.47000000000E+01 0.  1.
<mgrwt>
<rscale>  0 0.27487161E+03</rscale>
<asrwt>0</asrwt>
<pdfrwt beam="1">  1        1 0.34013773E-01 0.27487161E+03</pdfrwt>
<pdfrwt beam="2">  1       -1 0.13143719E-01 0.27487161E+03</pdfrwt>
<totfact> 0.50859179E+03</totfact>
</mgrwt>
</event>
<event>
 9    1  0.2094635E-002  0.2757588E+03  0.7818608E-02  0.1098028E+00
          2   -1    0    0  501    0  0.00000000000E+00  0.00000000000E+00  0.28503888953E+04  0.28503888953E+04  0.00000000000E+00 0. -1.
         -2   -1    0    0    0  501 -0.00000000000E+00 -0.00000000000E+00 -0.66695208475E+01  0.66695208475E+01  0.00000000000E+00 0. -1.
         36    2    1    2    0    0  0.71054273576E-14 -0.71054273576E-14  0.28437193745E+04  0.28570584162E+04  0.27575879432E+03 0.  0.
         25    2    3    3    0    0 -0.42624052544E+02  0.11120139291E+02  0.18258283091E+04  0.18306042965E+04  0.12458976082E+03 0.  0.
         25    2    3    3    0    0  0.42624052544E+02 -0.11120139291E+02  0.10178910654E+04  0.10264541197E+04  0.12476125831E+03 0.  0.
          5    1    4    4  502    0  0.12489781148E+02 -0.39528952516E+02  0.11251985276E+04  0.11259717355E+04  0.47000000000E+01 0.  1.
         -5    1    4    4    0  502 -0.55113833692E+02  0.50649091807E+02  0.70062978156E+03  0.70463256097E+03  0.47000000000E+01 0.  1.
          5    1    5    5  503    0 -0.48985257916E+01 -0.60094570093E+02  0.59513684331E+03  0.59820172616E+03  0.47000000000E+01 0.  1.
         -5    1    5    5    0  503  0.47522578336E+02  0.48974430802E+02  0.42275422205E+03  0.42825239355E+03  0.47000000000E+01 0.  1.
<mgrwt>
<rscale>  0 0.27575879E+03</rscale>
<asrwt>0</asrwt>
<pdfrwt beam="1">  1        2 0.43852040E+00 0.27575879E+03</pdfrwt>
<pdfrwt beam="2">  1       -2 0.10260824E-02 0.27575879E+03</pdfrwt>
<totfact> 0.52342982E+03</totfact>
</mgrwt>
</event>
<event>
 9    1  0.2094635E-002  0.2747059E+03  0.7818608E-02  0.1098616E+00
          2   -1    0    0  501    0  0.00000000000E+00  0.00000000000E+00  0.23650529262E+04  0.23650529262E+04  0.00000000000E+00 0. -1.
         -2   -1    0    0    0  501 -0.00000000000E+00 -0.00000000000E+00 -0.79769195883E+01  0.79769195883E+01  0.00000000000E+00 0. -1.
         36    2    1    2    0    0  0.71054273576E-14  0.00000000000E+00  0.23570760066E+04  0.23730298458E+04  0.27470593015E+03 0.  0.
         25    2    3    3    0    0 -0.62717120009E+02  0.81092245232E+01  0.12041869062E+04  0.12115009445E+04  0.11691551174E+03 0.  0.
         25    2    3    3    0    0  0.62717120009E+02 -0.81092245232E+01  0.11528891004E+04  0.11615289013E+04  0.12647890706E+03 0.  0.
          5    1    4    4  502    0 -0.24784650984E+02  0.46763446871E+02  0.95389762030E+03  0.95537629178E+03  0.47000000000E+01 0.  1.
         -5    1    4    4    0  502 -0.37932469025E+02 -0.38654222348E+02  0.25028928591E+03  0.25612465276E+03  0.47000000000E+01 0.  1.
          5    1    5    5  503    0 -0.37254616784E+01 -0.54753926397E+02  0.32273483537E+03  0.32740148974E+03  0.47000000000E+01 0.  1.
         -5    1    5    5    0  503  0.66442581687E+02  0.46644701874E+02  0.83015426506E+03  0.83412741153E+03  0.47000000000E+01 0.  1.
<mgrwt>
<rscale>  0 0.27470593E+03</rscale>
<asrwt>0</asrwt>
<pdfrwt beam="1">  1        2 0.36385374E+00 0.27470593E+03</pdfrwt>
<pdfrwt beam="2">  1       -2 0.12272203E-02 0.27470593E+03</pdfrwt>
<totfact> 0.75148021E+03</totfact>
</mgrwt>
</event>
<event>
 9    1  0.2094635E-002  0.2749775E+03  0.7818608E-02  0.1098464E+00
          1   -1    0    0  501    0  0.00000000000E+00  0.00000000000E+00  0.37632555092E+02  0.37632555092E+02  0.00000000000E+00 0.  1.
         -1   -1    0    0    0  501 -0.00000000000E+00 -0.00000000000E+00 -0.50230877647E+03  0.50230877647E+03  0.00000000000E+00 0.  1.
         36    2    1    2    0    0  0.00000000000E+00  0.00000000000E+00 -0.46467622138E+03  0.53994133156E+03  0.27497754602E+03 0.  0.
         25    2    3    3    0    0  0.53062782998E+02 -0.23376017125E+02 -0.25781240440E+03  0.29137927599E+03  0.12277031194E+03 0.  0.
         25    2    3    3    0    0 -0.53062782998E+02  0.23376017125E+02 -0.20686381698E+03  0.24856205557E+03  0.12501343760E+03 0.  0.
          5    1    4    4  502    0  0.20291435027E+02 -0.32447995995E+02 -0.25392153324E+03  0.25683233796E+03  0.47000000000E+01 0.  1.
         -5    1    4    4    0  502  0.32771347972E+02  0.90719788703E+01 -0.38908711614E+01  0.34546938025E+02  0.47000000000E+01 0.  1.
          5    1    5    5  503    0  0.18638858426E+02  0.50114147315E+02 -0.12688501525E+03  0.13777057705E+03  0.47000000000E+01 0.  1.
         -5    1    5    5    0  503 -0.71701641424E+02 -0.26738130190E+02 -0.79978801721E+02  0.11079147852E+03  0.47000000000E+01 0.  1.
<mgrwt>
<rscale>  0 0.27497755E+03</rscale>
<asrwt>0</asrwt>
<pdfrwt beam="1">  1        1 0.57896238E-02 0.27497755E+03</pdfrwt>
<pdfrwt beam="2">  1       -1 0.77278274E-01 0.27497755E+03</pdfrwt>
<totfact> 0.23748575E+03</totfact>
</mgrwt>
</event>
<event>
 9    1  0.2094635E-002  0.2754515E+03  0.7818608E-02  0.1098199E+00
         -2   -1    0    0    0  501 -0.00000000000E+00  0.00000000000E+00  0.11102912530E+02  0.11102912530E+02  0.00000000000E+00 0. -1.
          2   -1    0    0  501    0  0.00000000000E+00 -0.00000000000E+00 -0.17084147262E+04  0.17084147262E+04  0.00000000000E+00 0. -1.
         36    2    1    2    0    0  0.14210854715E-13  0.14210854715E-13 -0.16973118137E+04  0.17195176387E+04  0.27545147863E+03 0.  0.
         25    2    3    3    0    0  0.30712255981E+02  0.53253548861E+02 -0.91568350513E+03  0.92565390314E+03  0.12074636107E+03 0.  0.
         25    2    3    3    0    0 -0.30712255981E+02 -0.53253548861E+02 -0.78162830853E+03  0.79386373557E+03  0.12448949686E+03 0.  0.
          5    1    4    4  502    0  0.72702890227E+02  0.46893082894E+02 -0.46936720489E+03  0.47729690393E+03  0.47000000000E+01 0.  1.
         -5    1    4    4    0  502 -0.41990634246E+02  0.63604659669E+01 -0.44631630023E+03  0.44835699922E+03  0.47000000000E+01 0.  1.
          5    1    5    5  503    0 -0.32807367338E+02 -0.92836484524E+02 -0.52998438919E+03  0.53907372316E+03  0.47000000000E+01 0. -1.
         -5    1    5    5    0  503  0.20951113565E+01  0.39582935663E+02 -0.25164391934E+03  0.25479001242E+03  0.47000000000E+01 0. -1.
<mgrwt>
<rscale>  0 0.27545148E+03</rscale>
<asrwt>0</asrwt>
<pdfrwt beam="1">  1        2 0.26283322E+00 0.27545148E+03</pdfrwt>
<pdfrwt beam="2">  1       -2 0.17081392E-02 0.27545148E+03</pdfrwt>
<totfact> 0.10311475E+04</totfact>
</mgrwt>
</event>
<event>
 9    1  0.2094635E-002  0.2729060E+03  0.7818608E-02  0.1099628E+00
         -1   -1    0    0    0  501 -0.00000000000E+00  0.00000000000E+00  0.12345493156E+03  0.12345493156E+03  0.00000000000E+00 0. -1.
          1   -1    0    0  501    0  0.00000000000E+00 -0.00000000000E+00 -0.15081956642E+03  0.15081956642E+03  0.00000000000E+00 0. -1.
         36    2    1    2    0    0  0.00000000000E+00  0.00000000000E+00 -0.27364634861E+02  0.27427449798E+03  0.27290598565E+03 0.  0.
         25    2    3    3    0    0  0.31793884077E+02 -0.13164705478E+02 -0.46912075628E+02  0.14326105415E+03  0.13091534006E+03 0.  0.
         25    2    3    3    0    0 -0.31793884077E+02  0.13164705478E+02  0.19547440766E+02  0.13101344383E+03  0.12489299215E+03 0.  0.
          5    1    4    4  502    0  0.38359458492E+01 -0.42450815516E+02  0.32628970866E+02  0.53884375828E+02  0.47000000000E+01 0.  1.
         -5    1    4    4    0  502  0.27957938227E+02  0.29286110038E+02 -0.79541046494E+02  0.89376678325E+02  0.47000000000E+01 0.  1.
          5    1    5    5  503    0 -0.44704302268E+01 -0.54826560525E+02  0.16088525615E+02  0.57505366200E+02  0.47000000000E+01 0.  1.
         -5    1    5    5    0  503 -0.27323453850E+02  0.67991266003E+02  0.34589151511E+01  0.73508077631E+02  0.47000000000E+01 0.  1.
<mgrwt>
<rscale>  0 0.27290599E+03</rscale>
<asrwt>0</asrwt>
<pdfrwt beam="1">  1        1 0.23203010E-01 0.27290599E+03</pdfrwt>
<pdfrwt beam="2">  1       -1 0.18993066E-01 0.27290599E+03</pdfrwt>
<totfact> 0.45899284E+03</totfact>
</mgrwt>
</event>
<event>
 9    1  0.2094635E-002  0.2752700E+03  0.7818608E-02  0.1098301E+00
          3   -1    0    0  501    0  0.00000000000E+00  0.00000000000E+00  0.56199936243E+03  0.56199936243E+03  0.00000000000E+00 0. -1.
         -3   -1    0    0    0  501 -0.00000000000E+00 -0.00000000000E+00 -0.33707150957E+02  0.33707150957E+02  0.00000000000E+00 0. -1.
         36    2    1    2    0    0  0.00000000000E+00  0.00000000000E+00  0.52829221147E+03  0.59570651338E+03  0.27527002995E+03 0.  0.
         25    2    3    3    0    0  0.16137989651E+02  0.47741199477E+02  0.20763889620E+03  0.24795096844E+03  0.12580188670E+03 0.  0.
         25    2    3    3    0    0 -0.16137989651E+02 -0.47741199477E+02  0.32065331526E+03  0.34775554494E+03  0.12480269872E+03 0.  0.
          5    1    4    4  502    0  0.53967882958E+02 -0.61366911778E+01  0.39505087988E+02  0.67327062512E+02  0.47000000000E+01 0. -1.
         -5    1    4    4    0  502 -0.37829893306E+02  0.53877890655E+02  0.16813380822E+03  0.18062390593E+03  0.47000000000E+01 0. -1.
          5    1    5    5  503    0 -0.12856261224E+02  0.99230548044E+01  0.27076034581E+03  0.27128768003E+03  0.47000000000E+01 0.  1.
         -5    1    5    5    0  503 -0.32817284271E+01 -0.57664254282E+02  0.49892969449E+02  0.76467864910E+02  0.47000000000E+01 0.  1.
<mgrwt>
<rscale>  0 0.27527003E+03</rscale>
<asrwt>0</asrwt>
<pdfrwt beam="1">  1        3 0.86461434E-01 0.27527003E+03</pdfrwt>
<pdfrwt beam="2">  1       -3 0.51857159E-02 0.27527003E+03</pdfrwt>
<totfact> 0.68719161E+02</totfact>
</mgrwt>
</event>
<event>
 9    1  0.2094635E-002  0.2758632E+03  0.7818608E-02  0.1097970E+00
         -1   -1    0    0    0  501 -0.00000000000E+00  0.00000000000E+00  0.85079705148E+01  0.85079705148E+01  0.00000000000E+00 0.  1.
          1   -1    0    0  501    0  0.00000000000E+00 -0.00000000000E+00 -0.22361540024E+04  0.22361540024E+04  0.00000000000E+00 0.  1.
         36    2    1    2    0    0  0.00000000000E+00  0.35527136788E-14 -0.22276460318E+04  0.22446619729E+04  0.27586324379E+03 0.  0.
         25    2    3    3    0    0  0.16611384212E+02 -0.11112040062E+02 -0.14988943362E+04  0.15041806028E+04  0.12440112333E+03 0.  0.
         25    2    3    3    0    0 -0.16611384212E+02  0.11112040062E+02 -0.72875169569E+03  0.74048137003E+03  0.12974671432E+03 0.  0.
          5    1    4    4  502    0  0.37993390576E+02  0.46687805246E+02 -0.92479987744E+03  0.92676866164E+03  0.47000000000E+01 0. -1.
         -5    1    4    4    0  502 -0.21382006364E+02 -0.57799845308E+02 -0.57409445872E+03  0.57741194120E+03  0.47000000000E+01 0. -1.
          5    1    5    5  503    0  0.31433582373E+02 -0.17389526944E+02 -0.58596437120E+03  0.58708329908E+03  0.47000000000E+01 0. -1.
         -5    1    5    5    0  503 -0.48044966584E+02  0.28501567006E+02 -0.14278732449E+03  0.15339807095E+03  0.47000000000E+01 0. -1.
<mgrwt>
<rscale>  0 0.27586324E+03</rscale>
<asrwt>0</asrwt>
<pdfrwt beam="1">  1        1 0.34402435E+00 0.27586324E+03</pdfrwt>
<pdfrwt beam="2">  1       -1 0.13089161E-02 0.27586324E+03</pdfrwt>
<totfact> 0.30126262E+03</totfact>
</mgrwt>
</event>
<event>
 9    1  0.2094635E-002  0.2718314E+03  0.7818608E-02  0.1100236E+00
          1   -1    0    0  501    0  0.00000000000E+00  0.00000000000E+00  0.27170812870E+04  0.27170812870E+04  0.00000000000E+00 0.  1.
         -1   -1    0    0    0  501 -0.00000000000E+00 -0.00000000000E+00 -0.67988686778E+01  0.67988686778E+01  0.00000000000E+00 0.  1.
         36    2    1    2    0    0  0.35527136788E-14  0.17763568394E-14  0.27102824183E+04  0.27238801557E+04  0.27183140994E+03 0.  0.
         25    2    3    3    0    0 -0.31591383287E+02 -0.15570109981E+01  0.16325987591E+04  0.16380978475E+04  0.13032808523E+03 0.  0.
         25    2    3    3    0    0  0.31591383287E+02  0.15570109981E+01  0.10776836592E+04  0.10857823082E+04  0.12853292085E+03 0.  0.
          5    1    4    4  502    0 -0.62864329403E+02 -0.98046641933E+01  0.39916442969E+03  0.40423061150E+03  0.47000000000E+01 0.  1.
         -5    1    4    4    0  502  0.31272946116E+02  0.82476531952E+01  0.12334343294E+04  0.12338672360E+04  0.47000000000E+01 0.  1.
          5    1    5    5  503    0  0.21691825281E+00 -0.58812724081E+02  0.65273085668E+03  0.65539197801E+03  0.47000000000E+01 0. -1.
         -5    1    5    5    0  503  0.31374465034E+02  0.60369735079E+02  0.42495280251E+03  0.43039033020E+03  0.47000000000E+01 0. -1.
<mgrwt>
<rscale>  0 0.27183141E+03</rscale>
<asrwt>0</asrwt>
<pdfrwt beam="1">  1        1 0.41801164E+00 0.27183141E+03</pdfrwt>
<pdfrwt beam="2">  1       -1 0.10459820E-02 0.27183141E+03</pdfrwt>
<totfact> 0.19983389E+03</totfact>
</mgrwt>
</event>
<event>
 9    1  0.2094635E-002  0.2750304E+03  0.7818608E-02  0.1098435E+00
          1   -1    0    0  501    0  0.00000000000E+00  0.00000000000E+00  0.19391375233E+03  0.19391375233E+03  0.00000000000E+00 0.  1.
         -1   -1    0    0    0  501 -0.00000000000E+00 -0.00000000000E+00 -0.97519764987E+02  0.97519764987E+02  0.00000000000E+00 0.  1.
         36    2    1    2    0    0  0.14210854715E-13  0.71054273576E-14  0.96393987347E+02  0.29143351732E+03  0.27503035146E+03 0.  0.
         25    2    3    3    0    0  0.57541317296E+02  0.38391391852E+02  0.64970135392E+02  0.14475261949E+03  0.10930370621E+03 0.  0.
         25    2    3    3    0    0 -0.57541317296E+02 -0.38391391852E+02  0.31423851955E+02  0.14668089783E+03  0.12547081395E+03 0.  0.
          5    1    4    4  502    0  0.76304555329E+02  0.58803324981E+02  0.32452104639E+02  0.10176170836E+03  0.47000000000E+01 0.  1.
         -5    1    4    4    0  502 -0.18763238033E+02 -0.20411933129E+02  0.32518030753E+02  0.42990911128E+02  0.47000000000E+01 0.  1.
          5    1    5    5  503    0 -0.93505034952E+02 -0.37052873509E+02  0.32606259996E+01  0.10074139506E+03  0.47000000000E+01 0.  1.
         -5    1    5    5    0  503  0.35963717656E+02 -0.13385183426E+01  0.28163225956E+02  0.45939502775E+02  0.47000000000E+01 0.  1.
<mgrwt>
<rscale>  0 0.27503035E+03</rscale>
<asrwt>0</asrwt>
<pdfrwt beam="1">  1        1 0.29832885E-01 0.27503035E+03</pdfrwt>
<pdfrwt beam="2">  1       -1 0.15003041E-01 0.27503035E+03</pdfrwt>
<totfact> 0.48682999E+03</totfact>
</mgrwt>
</event>
<event>
 9    1  0.2094635E-002  0.2754993E+03  0.7818608E-02  0.1098173E+00
          2   -1    0    0  501    0  0.00000000000E+00  0.00000000000E+00  0.53559894498E+03  0.53559894498E+03  0.00000000000E+00 0.  1.
         -2   -1    0    0    0  501 -0.00000000000E+00 -0.00000000000E+00 -0.35427554636E+02  0.35427554636E+02  0.00000000000E+00 0.  1.
         36    2    1    2    0    0  0.00000000000E+00  0.00000000000E+00  0.50017139034E+03  0.57102649961E+03  0.27549926233E+03 0.  0.
         25    2    3    3    0    0 -0.21758215869E+02 -0.41954325486E+02  0.17075598614E+03  0.21598862747E+03  0.12353094758E+03 0.  0.
         25    2    3    3    0    0  0.21758215869E+02  0.41954325486E+02  0.32941540421E+03  0.35503787214E+03  0.12370851524E+03 0.  0.
          5    1    4    4  502    0 -0.71722669397E+02 -0.99930137846E+01  0.87943817199E+02  0.11401844857E+03  0.47000000000E+01 0.  1.
         -5    1    4    4    0  502  0.49964453527E+02 -0.31961311701E+02  0.82812168938E+02  0.10197017891E+03  0.47000000000E+01 0.  1.
          5    1    5    5  503    0  0.40633939948E+02  0.74869628378E+01  0.30649358551E+03  0.30930176147E+03  0.47000000000E+01 0.  1.
         -5    1    5    5    0  503 -0.18875724078E+02  0.34467362648E+02  0.22921818697E+02  0.45736110676E+02  0.47000000000E+01 0.  1.
<mgrwt>
<rscale>  0 0.27549926E+03</rscale>
<asrwt>0</asrwt>
<pdfrwt beam="1">  1        2 0.82399832E-01 0.27549926E+03</pdfrwt>
<pdfrwt beam="2">  1       -2 0.54503934E-02 0.27549926E+03</pdfrwt>
<totfact> 0.98239333E+03</totfact>
</mgrwt>
</event>
<event>
 9    1  0.2094635E-002  0.2743065E+03  0.7818608E-02  0.1098840E+00
         -2   -1    0    0    0  501 -0.00000000000E+00  0.00000000000E+00  0.98068606720E+02  0.98068606720E+02  0.00000000000E+00 0. -1.
          2   -1    0    0  501    0  0.00000000000E+00 -0.00000000000E+00 -0.19181489229E+03  0.19181489229E+03  0.00000000000E+00 0. -1.
         36    2    1    2    0    0  0.71054273576E-14  0.00000000000E+00 -0.93746285569E+02  0.28988349901E+03  0.27430653827E+03 0.  0.
         25    2    3    3    0    0  0.47552265448E+02 -0.22328078142E+02  0.33538653830E+00  0.13701632635E+03  0.12654485442E+03 0.  0.
         25    2    3    3    0    0 -0.47552265448E+02  0.22328078142E+02 -0.94081672108E+02  0.15286717266E+03  0.10843085551E+03 0.  0.
          5    1    4    4  502    0 -0.13639032029E+02  0.38471586271E+02 -0.23586801640E+02  0.47376295301E+02  0.47000000000E+01 0.  1.
         -5    1    4    4    0  502  0.61191297476E+02 -0.60799664413E+02  0.23922188179E+02  0.89640031051E+02  0.47000000000E+01 0.  1.
          5    1    5    5  503    0  0.60425664873E+01 -0.38479734631E+02 -0.28386669248E+02  0.48426186904E+02  0.47000000000E+01 0.  1.
         -5    1    5    5    0  503 -0.53594831935E+02  0.60807812773E+02 -0.65695002859E+02  0.10444098575E+03  0.47000000000E+01 0.  1.
<mgrwt>
<rscale>  0 0.27430654E+03</rscale>
<asrwt>0</asrwt>
<pdfrwt beam="1">  1        2 0.29509983E-01 0.27430654E+03</pdfrwt>
<pdfrwt beam="2">  1       -2 0.15087478E-01 0.27430654E+03</pdfrwt>
<totfact> 0.60090352E+03</totfact>
</mgrwt>
</event>
<event>
 9    1  0.2094635E-002  0.2747888E+03  0.7818608E-02  0.1098570E+00
          1   -1    0    0  501    0  0.00000000000E+00  0.00000000000E+00  0.70556788477E+03  0.70556788477E+03  0.00000000000E+00 0.  1.
         -1   -1    0    0    0  501 -0.00000000000E+00 -0.00000000000E+00 -0.26754643491E+02  0.26754643491E+02  0.00000000000E+00 0.  1.
         36    2    1    2    0    0 -0.71054273576E-14  0.00000000000E+00  0.67881324128E+03  0.73232252826E+03  0.27478877136E+03 0.  0.
         25    2    3    3    0    0 -0.59741078752E+02 -0.21971914383E+02  0.20054393820E+03  0.23419429654E+03  0.10284617576E+03 0.  0.
         25    2    3    3    0    0  0.59741078752E+02  0.21971914383E+02  0.47826930308E+03  0.49812823173E+03  0.12384848591E+03 0.  0.
          5    1    4    4  502    0 -0.84310722696E+02  0.39955767200E+00  0.11811322434E+03  0.14519394399E+03  0.47000000000E+01 0. -1.
         -5    1    4    4    0  502  0.24569643944E+02 -0.22371472055E+02  0.82430713863E+02  0.89000352546E+02  0.47000000000E+01 0. -1.
          5    1    5    5  503    0  0.49027471860E+02 -0.88861169478E+01  0.58177686167E+02  0.76742356226E+02  0.47000000000E+01 0. -1.
         -5    1    5    5    0  503  0.10713606893E+02  0.30858031331E+02  0.42009161691E+03  0.42138587550E+03  0.47000000000E+01 0. -1.
<mgrwt>
<rscale>  0 0.27478877E+03</rscale>
<asrwt>0</asrwt>
<pdfrwt beam="1">  1        1 0.10854889E+00 0.27478877E+03</pdfrwt>
<pdfrwt beam="2">  1       -1 0.41160995E-02 0.27478877E+03</pdfrwt>
<totfact> 0.65474443E+03</totfact>
</mgrwt>
</event>
<event>
 9    1  0.2094635E-002  0.2762887E+03  0.7818608E-02  0.1097733E+00
          1   -1    0    0  501    0  0.00000000000E+00  0.00000000000E+00  0.12448975191E+04  0.12448975191E+04  0.00000000000E+00 0. -1.
         -1   -1    0    0    0  501 -0.00000000000E+00 -0.00000000000E+00 -0.15329665360E+02  0.15329665360E+02  0.00000000000E+00 0. -1.
         36    2    1    2    0    0  0.00000000000E+00 -0.35527136788E-14  0.12295678537E+04  0.12602271844E+04  0.27628870679E+03 0.  0.
         25    2    3    3    0    0  0.50930825392E+02  0.52552673204E+01  0.74915240315E+03  0.76137075507E+03  0.12583535558E+03 0.  0.
         25    2    3    3    0    0 -0.50930825392E+02 -0.52552673204E+01  0.48041545055E+03  0.49885642935E+03  0.12424638896E+03 0.  0.
          5    1    4    4  502    0 -0.92854137395E+01  0.36960683427E+02  0.54025050109E+03  0.54161333528E+03  0.47000000000E+01 0. -1.
         -5    1    4    4    0  502  0.60216239131E+02 -0.31705416106E+02  0.20890190207E+03  0.21975741979E+03  0.47000000000E+01 0. -1.
          5    1    5    5  503    0 -0.84277082400E+02  0.11725372446E+02  0.41212703508E+03  0.42084545147E+03  0.47000000000E+01 0.  1.
         -5    1    5    5    0  503  0.33346257009E+02 -0.16980639767E+02  0.68288415467E+02  0.78010977883E+02  0.47000000000E+01 0.  1.
<mgrwt>
<rscale>  0 0.27628871E+03</rscale>
<asrwt>0</asrwt>
<pdfrwt beam="1">  1        1 0.19152262E+00 0.27628871E+03</pdfrwt>
<pdfrwt beam="2">  1       -1 0.23584110E-02 0.27628871E+03</pdfrwt>
<totfact> 0.57328963E+03</totfact>
</mgrwt>
</event>
<event>
 9    1  0.2094635E-002  0.2748980E+03  0.7818608E-02  0.1098509E+00
          1   -1    0    0  501    0  0.00000000000E+00  0.00000000000E+00  0.42765726448E+02  0.42765726448E+02  0.00000000000E+00 0. -1.
         -1   -1    0    0    0  501 -0.00000000000E+00 -0.00000000000E+00 -0.44176106254E+03  0.44176106254E+03  0.00000000000E+00 0. -1.
         36    2    1    2    0    0  0.35527136788E-14  0.35527136788E-14 -0.39899533609E+03  0.48452678899E+03  0.27489803751E+03 0.  0.
         25    2    3    3    0    0  0.28906741182E+02 -0.22064966419E+02 -0.11594731586E+03  0.17369400446E+03  0.12411029248E+03 0.  0.
         25    2    3    3    0    0 -0.28906741182E+02  0.22064966419E+02 -0.28304802023E+03  0.31083278453E+03  0.12320055095E+03 0.  0.
          5    1    4    4  502    0 -0.44925793050E+02 -0.69332933502E+01 -0.74911168388E+02  0.87750615879E+02  0.47000000000E+01 0.  1.
         -5    1    4    4    0  502  0.73832534232E+02 -0.15131673069E+02 -0.41036147473E+02  0.85943388579E+02  0.47000000000E+01 0.  1.
          5    1    5    5  503    0 -0.19389780925E+01  0.45035007700E+02 -0.26842119778E+03  0.27222039044E+03  0.47000000000E+01 0.  1.
         -5    1    5    5    0  503 -0.26967763089E+02 -0.22970041281E+02 -0.14626822456E+02  0.38612394094E+02  0.47000000000E+01 0.  1.
<mgrwt>
<rscale>  0 0.27489804E+03</rscale>
<asrwt>0</asrwt>
<pdfrwt beam="1">  1        1 0.65793423E-02 0.27489804E+03</pdfrwt>
<pdfrwt beam="2">  1       -1 0.67963242E-01 0.27489804E+03</pdfrwt>
<totfact> 0.25810919E+03</totfact>
</mgrwt>
</event>
<event>
 9    1  0.2094635E-002  0.2753306E+03  0.7818608E-02  0.1098267E+00
          2   -1    0    0  501    0  0.00000000000E+00  0.00000000000E+00  0.73740596757E+02  0.73740596757E+02  0.00000000000E+00 0.  1.
         -2   -1    0    0    0  501 -0.00000000000E+00 -0.00000000000E+00 -0.25700537605E+03  0.25700537605E+03  0.00000000000E+00 0.  1.
         36    2    1    2    0    0  0.00000000000E+00  0.00000000000E+00 -0.18326477930E+03  0.33074597281E+03  0.27533056350E+03 0.  0.
         25    2    3    3    0    0 -0.30502484877E+02 -0.51317761510E+02 -0.73968744529E+02  0.15586080905E+03  0.12352045337E+03 0.  0.
         25    2    3    3    0    0  0.30502484877E+02  0.51317761510E+02 -0.10929603477E+03  0.17488516376E+03  0.12278144427E+03 0.  0.
          5    1    4    4  502    0 -0.37053362423E+02 -0.10746216627E+02  0.26614018706E+02  0.47104445972E+02  0.47000000000E+01 0. -1.
         -5    1    4    4    0  502  0.65508775460E+01 -0.40571544883E+02 -0.10058276323E+03  0.10875636308E+03  0.47000000000E+01 0. -1.
          5    1    5    5  503    0  0.69523170487E+02  0.20033385137E+02 -0.24882088847E+02  0.76655176603E+02  0.47000000000E+01 0. -1.
         -5    1    5    5    0  503 -0.39020685610E+02  0.31284376373E+02 -0.84413945921E+02  0.98229987155E+02  0.47000000000E+01 0. -1.
<mgrwt>
<rscale>  0 0.27533056E+03</rscale>
<asrwt>0</asrwt>
<pdfrwt beam="1">  1        2 0.11344707E-01 0.27533056E+03</pdfrwt>
<pdfrwt beam="2">  1       -2 0.39539289E-01 0.27533056E+03</pdfrwt>
<totfact> 0.33213271E+03</totfact>
</mgrwt>
</event>
<event>
 9    1  0.2094635E-002  0.2746723E+03  0.7818608E-02  0.1098635E+00
          2   -1    0    0  501    0  0.00000000000E+00  0.00000000000E+00  0.21992722750E+03  0.21992722750E+03  0.00000000000E+00 0.  1.
         -2   -1    0    0    0  501 -0.00000000000E+00 -0.00000000000E+00 -0.85761204884E+02  0.85761204884E+02  0.00000000000E+00 0.  1.
         36    2    1    2    0    0  0.00000000000E+00  0.00000000000E+00  0.13416602262E+03  0.30568843239E+03  0.27467234311E+03 0.  0.
         25    2    3    3    0    0  0.39266898371E+02  0.14618591771E+02  0.17537659636E+02  0.13126206863E+03  0.12315262328E+03 0.  0.
         25    2    3    3    0    0 -0.39266898371E+02 -0.14618591771E+02  0.11662836298E+03  0.17442636376E+03  0.12274684839E+03 0.  0.
          5    1    4    4  502    0  0.34105651624E+02  0.42819231450E+02  0.59008729804E+02  0.80627552659E+02  0.47000000000E+01 0. -1.
         -5    1    4    4    0  502  0.51612467462E+01 -0.28200639679E+02 -0.41471070168E+02  0.50634515967E+02  0.47000000000E+01 0. -1.
          5    1    5    5  503    0 -0.16105679686E+02 -0.57655961919E+02  0.15510464192E+02  0.62018282485E+02  0.47000000000E+01 0.  1.
         -5    1    5    5    0  503 -0.23161218685E+02  0.43037370148E+02  0.10111789879E+03  0.11240808127E+03  0.47000000000E+01 0.  1.
<mgrwt>
<rscale>  0 0.27467234E+03</rscale>
<asrwt>0</asrwt>
<pdfrwt beam="1">  1        2 0.33834958E-01 0.27467234E+03</pdfrwt>
<pdfrwt beam="2">  1       -2 0.13194032E-01 0.27467234E+03</pdfrwt>
<totfact> 0.64489605E+03</totfact>
</mgrwt>
</event>
<event>
 9    1  0.2094635E-002  0.2750578E+03  0.7818608E-02  0.1098419E+00
          2   -1    0    0  501    0  0.00000000000E+00  0.00000000000E+00  0.17479154691E+03  0.17479154691E+03  0.00000000000E+00 0.  1.
         -2   -1    0    0    0  501 -0.00000000000E+00 -0.00000000000E+00 -0.10821006489E+03  0.10821006489E+03  0.00000000000E+00 0.  1.
         36    2    1    2    0    0  0.71054273576E-14 -0.17763568394E-14  0.66581482024E+02  0.28300161180E+03  0.27505784580E+03 0.  0.
         25    2    3    3    0    0 -0.61244813192E+02  0.56605598167E+01  0.81421853208E+01  0.13623088096E+03  0.12128309307E+03 0.  0.
         25    2    3    3    0    0  0.61244813192E+02 -0.56605598167E+01  0.58439296703E+02  0.14677073085E+03  0.11976446449E+03 0.  0.
          5    1    4    4  502    0 -0.76140414955E+02  0.51726216463E+01  0.50130320993E+02  0.91428977283E+02  0.47000000000E+01 0. -1.
         -5    1    4    4    0  502  0.14895601763E+02  0.48793817043E+00 -0.41988135672E+02  0.44801903673E+02  0.47000000000E+01 0. -1.
          5    1    5    5  503    0  0.28353140664E+02  0.31965697570E+02 -0.24756131569E+02  0.49605064832E+02  0.47000000000E+01 0.  1.
         -5    1    5    5    0  503  0.32891672528E+02 -0.37626257387E+02  0.83195428273E+02  0.97165666015E+02  0.47000000000E+01 0.  1.
<mgrwt>
<rscale>  0 0.27505785E+03</rscale>
<asrwt>0</asrwt>
<pdfrwt beam="1">  1        2 0.26891007E-01 0.27505785E+03</pdfrwt>
<pdfrwt beam="2">  1       -2 0.16647702E-01 0.27505785E+03</pdfrwt>
<totfact> 0.56539937E+03</totfact>
</mgrwt>
</event>
<event>
 9    1  0.2094635E-002  0.2738718E+03  0.7818608E-02  0.1099084E+00
         -2   -1    0    0    0  501 -0.00000000000E+00  0.00000000000E+00  0.15755606547E+02  0.15755606547E+02  0.00000000000E+00 0.  1.
          2   -1    0    0  501    0  0.00000000000E+00 -0.00000000000E+00 -0.11901440506E+04  0.11901440506E+04  0.00000000000E+00 0.  1.
         36    2    1    2    0    0  0.71054273576E-14 -0.35527136788E-14 -0.11743884441E+04  0.12058996572E+04  0.27387180502E+03 0.  0.
         25    2    3    3    0    0 -0.20997258706E+02 -0.30040991982E+01 -0.38602897214E+03  0.40774988423E+03  0.12958275839E+03 0.  0.
         25    2    3    3    0    0  0.20997258706E+02  0.30040991982E+01 -0.78835947193E+03  0.79814977294E+03  0.12281080397E+03 0.  0.
          5    1    4    4  502    0  0.52184009509E+02  0.52909131347E+01 -0.21724901746E+03  0.22354057841E+03  0.47000000000E+01 0. -1.
         -5    1    4    4    0  502 -0.73181268215E+02 -0.82950123329E+01 -0.16877995468E+03  0.18420930582E+03  0.47000000000E+01 0. -1.
          5    1    5    5  503    0 -0.13823740043E+02  0.43276041626E+02 -0.61607951273E+03  0.61777015757E+03  0.47000000000E+01 0. -1.
         -5    1    5    5    0  503  0.34820998749E+02 -0.40271942427E+02 -0.17227995920E+03  0.18037961537E+03  0.47000000000E+01 0. -1.
<mgrwt>
<rscale>  0 0.27387181E+03</rscale>
<asrwt>0</asrwt>
<pdfrwt beam="1">  1        2 0.18309916E+00 0.27387181E+03</pdfrwt>
<pdfrwt beam="2">  1       -2 0.24239384E-02 0.27387181E+03</pdfrwt>
<totfact> 0.11759359E+04</totfact>
</mgrwt>
</event>
<event>
 9    1  0.2094635E-002  0.2730932E+03  0.7818608E-02  0.1099522E+00
          2   -1    0    0  501    0  0.00000000000E+00  0.00000000000E+00  0.12824728068E+02  0.12824728068E+02  0.00000000000E+00 0.  1.
         -2   -1    0    0    0  501 -0.00000000000E+00 -0.00000000000E+00 -0.14538303678E+04  0.14538303678E+04  0.00000000000E+00 0.  1.
         36    2    1    2    0    0  0.14210854715E-13  0.71054273576E-14 -0.14410056397E+04  0.14666550959E+04  0.27309323774E+03 0.  0.
         25    2    3    3    0    0 -0.35005749923E+02 -0.45250148673E+02 -0.93489026008E+03  0.94492113627E+03  0.12483259551E+03 0.  0.
         25    2    3    3    0    0  0.35005749923E+02  0.45250148673E+02 -0.50611537967E+03  0.52173395961E+03  0.11305117687E+03 0.  0.
          5    1    4    4  502    0 -0.54121998077E+02 -0.58615022697E+02 -0.32913517994E+03  0.33869893451E+03  0.47000000000E+01 0. -1.
         -5    1    4    4    0  502  0.19116248154E+02  0.13364874023E+02 -0.60575508013E+03  0.60622220176E+03  0.47000000000E+01 0. -1.
          5    1    5    5  503    0  0.63425349798E+02  0.55697182404E+02 -0.25255555329E+03  0.26632939872E+03  0.47000000000E+01 0. -1.
         -5    1    5    5    0  503 -0.28419599875E+02 -0.10447033731E+02 -0.25355982638E+03  0.25540456090E+03  0.47000000000E+01 0. -1.
<mgrwt>
<rscale>  0 0.27309324E+03</rscale>
<asrwt>0</asrwt>
<pdfrwt beam="1">  1        2 0.19730344E-02 0.27309324E+03</pdfrwt>
<pdfrwt beam="2">  1       -2 0.22366628E+00 0.27309324E+03</pdfrwt>
<totfact> 0.57448079E+02</totfact>
</mgrwt>
</event>
<event>
 9    1  0.2094635E-002  0.2756110E+03  0.7818608E-02  0.1098111E+00
         -2   -1    0    0    0  501 -0.00000000000E+00  0.00000000000E+00  0.11026642375E+03  0.11026642375E+03  0.00000000000E+00 0.  1.
          2   -1    0    0  501    0  0.00000000000E+00 -0.00000000000E+00 -0.17222241853E+03  0.17222241853E+03  0.00000000000E+00 0.  1.
         36    2    1    2    0    0  0.35527136788E-14  0.00000000000E+00 -0.61955994775E+02  0.28248884228E+03  0.27561095900E+03 0.  0.
         25    2    3    3    0    0  0.20217013528E+02  0.42030450608E+01  0.24881486200E+02  0.12804049522E+03  0.12389062449E+03 0.  0.
         25    2    3    3    0    0 -0.20217013528E+02 -0.42030450608E+01 -0.86837480975E+02  0.15444834706E+03  0.12604424058E+03 0.  0.
          5    1    4    4  502    0  0.31595181055E+02  0.13761537994E+02  0.71161459972E+02  0.79206557678E+02  0.47000000000E+01 0.  1.
         -5    1    4    4    0  502 -0.11378167527E+02 -0.95584929337E+01 -0.46279973772E+02  0.48833937541E+02  0.47000000000E+01 0.  1.
          5    1    5    5  503    0  0.28766442786E+02  0.17415373907E+02  0.16664260159E+02  0.37823154886E+02  0.47000000000E+01 0.  1.
         -5    1    5    5    0  503 -0.48983456314E+02 -0.21618418968E+02 -0.10350174113E+03  0.11662519217E+03  0.47000000000E+01 0.  1.
<mgrwt>
<rscale>  0 0.27561096E+03</rscale>
<asrwt>0</asrwt>
<pdfrwt beam="1">  1        2 0.26495757E-01 0.27561096E+03</pdfrwt>
<pdfrwt beam="2">  1       -2 0.16964065E-01 0.27561096E+03</pdfrwt>
<totfact> 0.55698812E+03</totfact>
</mgrwt>
</event>
<event>
 9    1  0.2094635E-002  0.2743802E+03  0.7818608E-02  0.1098799E+00
         -1   -1    0    0    0  501 -0.00000000000E+00  0.00000000000E+00  0.51876391397E+02  0.51876391397E+02  0.00000000000E+00 0.  1.
          1   -1    0    0  501    0  0.00000000000E+00 -0.00000000000E+00 -0.36280707001E+03  0.36280707001E+03  0.00000000000E+00 0.  1.
         36    2    1    2    0    0  0.00000000000E+00  0.00000000000E+00 -0.31093067861E+03  0.41468346141E+03  0.27438018562E+03 0.  0.
         25    2    3    3    0    0  0.76549741504E+01 -0.35079820481E+02 -0.97354453765E+02  0.16482491337E+03  0.12806314835E+03 0.  0.
         25    2    3    3    0    0 -0.76549741504E+01  0.35079820481E+02 -0.21357622485E+03  0.24985854803E+03  0.12460055285E+03 0.  0.
          5    1    4    4  502    0 -0.15239363674E+02  0.41405637837E+02 -0.64668353306E+02  0.78426723565E+02  0.47000000000E+01 0.  1.
         -5    1    4    4    0  502  0.22894337824E+02 -0.76485458318E+02 -0.32686100459E+02  0.86398189806E+02  0.47000000000E+01 0.  1.
          5    1    5    5  503    0 -0.18430855441E+02  0.20740935663E+02  0.65978357794E+01  0.28905090926E+02  0.47000000000E+01 0.  1.
         -5    1    5    5    0  503  0.10775881291E+02  0.14338884818E+02 -0.22017406063E+03  0.22095345711E+03  0.47000000000E+01 0.  1.
<mgrwt>
<rscale>  0 0.27438019E+03</rscale>
<asrwt>0</asrwt>
<pdfrwt beam="1">  1        1 0.55816471E-01 0.27438019E+03</pdfrwt>
<pdfrwt beam="2">  1       -1 0.79809834E-02 0.27438019E+03</pdfrwt>
<totfact> 0.59017511E+03</totfact>
</mgrwt>
</event>
<event>
 9    1  0.2094635E-002  0.2754745E+03  0.7818608E-02  0.1098187E+00
          1   -1    0    0  501    0  0.00000000000E+00  0.00000000000E+00  0.21777011406E+04  0.21777011406E+04  0.00000000000E+00 0.  1.
         -1   -1    0    0    0  501 -0.00000000000E+00 -0.00000000000E+00 -0.87117321507E+01  0.87117321507E+01  0.00000000000E+00 0.  1.
         36    2    1    2    0    0 -0.17763568394E-14 -0.71054273576E-14  0.21689894085E+04  0.21864128728E+04  0.27547449277E+03 0.  0.
         25    2    3    3    0    0 -0.14405440809E+01  0.61923661245E+02  0.11807638293E+04  0.11883768675E+04  0.11916267695E+03 0.  0.
         25    2    3    3    0    0  0.14405440809E+01 -0.61923661245E+02  0.98822557915E+03  0.99803600528E+03  0.12509779196E+03 0.  0.
          5    1    4    4  502    0  0.12168689382E+02  0.37010752179E+02  0.11244781953E+04  0.11251627324E+04  0.47000000000E+01 0. -1.
         -5    1    4    4    0  502 -0.13609233463E+02  0.24912909065E+02  0.56285634053E+02  0.63214135083E+02  0.47000000000E+01 0. -1.
          5    1    5    5  503    0 -0.26102174384E+02 -0.93388373999E+02  0.65217760797E+03  0.65936365857E+03  0.47000000000E+01 0.  1.
         -5    1    5    5    0  503  0.27542718465E+02  0.31464712754E+02  0.33604797118E+03  0.33867234671E+03  0.47000000000E+01 0.  1.
<mgrwt>
<rscale>  0 0.27547449E+03</rscale>
<asrwt>0</asrwt>
<pdfrwt beam="1">  1        1 0.33503051E+00 0.27547449E+03</pdfrwt>
<pdfrwt beam="2">  1       -1 0.13402682E-02 0.27547449E+03</pdfrwt>
<totfact> 0.31784028E+03</totfact>
</mgrwt>
</event>
<event>
 9    1  0.2094635E-002  0.2745383E+03  0.7818608E-02  0.1098710E+00
          2   -1    0    0  501    0  0.00000000000E+00  0.00000000000E+00  0.53133554505E+03  0.53133554505E+03  0.00000000000E+00 0.  1.
         -2   -1    0    0    0  501 -0.00000000000E+00 -0.00000000000E+00 -0.35463124161E+02  0.35463124161E+02  0.00000000000E+00 0.  1.
         36    2    1    2    0    0  0.71054273576E-14  0.00000000000E+00  0.49587242088E+03  0.56679866921E+03  0.27453829172E+03 0.  0.
         25    2    3    3    0    0 -0.55569513450E+02 -0.23403343911E+02  0.23577506760E+03  0.27527839631E+03  0.12865700774E+03 0.  0.
         25    2    3    3    0    0  0.55569513450E+02  0.23403343911E+02  0.26009735328E+03  0.29152027290E+03  0.11703738289E+03 0.  0.
          5    1    4    4  502    0  0.21217464964E+02  0.85920224738E+01  0.16295536689E+03  0.16462243246E+03  0.47000000000E+01 0.  1.
         -5    1    4    4    0  502 -0.76786978414E+02 -0.31995366385E+02  0.72819700711E+02  0.11065596385E+03  0.47000000000E+01 0.  1.
          5    1    5    5  503    0  0.83599701029E+02  0.43458925630E+02  0.21312072706E+03  0.23306677698E+03  0.47000000000E+01 0.  1.
         -5    1    5    5    0  503 -0.28030187580E+02 -0.20055581719E+02  0.46976626222E+02  0.58453495918E+02  0.47000000000E+01 0.  1.
<mgrwt>
<rscale>  0 0.27453829E+03</rscale>
<asrwt>0</asrwt>
<pdfrwt beam="1">  1        2 0.81743924E-01 0.27453829E+03</pdfrwt>
<pdfrwt beam="2">  1       -2 0.54558657E-02 0.27453829E+03</pdfrwt>
<totfact> 0.98967255E+03</totfact>
</mgrwt>
</event>
<event>
 9    1  0.2094635E-002  0.2732345E+03  0.7818608E-02  0.1099443E+00
          1   -1    0    0  501    0  0.00000000000E+00  0.00000000000E+00  0.98637069924E+03  0.98637069924E+03  0.00000000000E+00 0. -1.
         -1   -1    0    0    0  501 -0.00000000000E+00 -0.00000000000E+00 -0.18922175828E+02  0.18922175828E+02  0.00000000000E+00 0. -1.
         36    2    1    2    0    0  0.35527136788E-14 -0.21316282073E-13  0.96744852341E+03  0.10052928751E+04  0.27323454981E+03 0.  0.
         25    2    3    3    0    0  0.14902436198E+02 -0.50557711672E+02  0.38396772458E+03  0.40700204102E+03  0.12426295931E+03 0.  0.
         25    2    3    3    0    0 -0.14902436198E+02  0.50557711672E+02  0.58348079883E+03  0.59829083405E+03  0.12134213898E+03 0.  0.
          5    1    4    4  502    0  0.11799640313E+02 -0.89851519980E+02  0.21370658602E+03  0.23217476620E+03  0.47000000000E+01 0. -1.
         -5    1    4    4    0  502  0.31027958841E+01  0.39293808308E+02  0.17026113857E+03  0.17482727481E+03  0.47000000000E+01 0. -1.
          5    1    5    5  503    0 -0.14071512190E+02  0.12685981744E+01  0.23739663160E+01  0.15077881573E+02  0.47000000000E+01 0.  1.
         -5    1    5    5    0  503 -0.83092400720E+00  0.49289113497E+02  0.58110683251E+03  0.58321295247E+03  0.47000000000E+01 0.  1.
<mgrwt>
<rscale>  0 0.27323455E+03</rscale>
<asrwt>0</asrwt>
<pdfrwt beam="1">  1        1 0.15174930E+00 0.27323455E+03</pdfrwt>
<pdfrwt beam="2">  1       -1 0.29111047E-02 0.27323455E+03</pdfrwt>
<totfact> 0.64515652E+03</totfact>
</mgrwt>
</event>
<event>
 9    1  0.2094635E-002  0.2752950E+03  0.7818608E-02  0.1098287E+00
         -2   -1    0    0    0  501 -0.00000000000E+00  0.00000000000E+00  0.91416381902E+02  0.91416381902E+02  0.00000000000E+00 0. -1.
          2   -1    0    0  501    0  0.00000000000E+00 -0.00000000000E+00 -0.20725861429E+03  0.20725861429E+03  0.00000000000E+00 0. -1.
         36    2    1    2    0    0  0.14210854715E-13  0.00000000000E+00 -0.11584223239E+03  0.29867499620E+03  0.27529498823E+03 0.  0.
         25    2    3    3    0    0  0.39216520870E+02 -0.46826521494E+02 -0.68354557071E+02  0.15618955224E+03  0.12646016026E+03 0.  0.
         25    2    3    3    0    0 -0.39216520870E+02  0.46826521494E+02 -0.47487675320E+02  0.14248544395E+03  0.11965100838E+03 0.  0.
          5    1    4    4  502    0  0.64927676943E+02  0.19204005825E+02 -0.44993919337E+02  0.81430583015E+02  0.47000000000E+01 0.  1.
         -5    1    4    4    0  502 -0.25711156073E+02 -0.66030527319E+02 -0.23360637735E+02  0.74758969227E+02  0.47000000000E+01 0.  1.
          5    1    5    5  503    0  0.37052698716E+02  0.44207503876E+02 -0.21196533809E+02  0.61632693650E+02  0.47000000000E+01 0. -1.
         -5    1    5    5    0  503 -0.76269219586E+02  0.26190176182E+01 -0.26291141512E+02  0.80852750303E+02  0.47000000000E+01 0. -1.
<mgrwt>
<rscale>  0 0.27529499E+03</rscale>
<asrwt>0</asrwt>
<pdfrwt beam="1">  1        2 0.31885941E-01 0.27529499E+03</pdfrwt>
<pdfrwt beam="2">  1       -2 0.14064059E-01 0.27529499E+03</pdfrwt>
<totfact> 0.61980914E+03</totfact>
</mgrwt>
</event>
<event>
 9    1  0.2094635E-002  0.2758918E+03  0.7818608E-02  0.1097954E+00
         -2   -1    0    0    0  501 -0.00000000000E+00  0.00000000000E+00  0.33953568981E+02  0.33953568981E+02  0.00000000000E+00 0.  1.
          2   -1    0    0  501    0  0.00000000000E+00 -0.00000000000E+00 -0.56044380680E+03  0.56044380680E+03  0.00000000000E+00 0.  1.
         36    2    1    2    0    0  0.00000000000E+00  0.00000000000E+00 -0.52649023782E+03  0.59439737578E+03  0.27589177193E+03 0.  0.
         25    2    3    3    0    0 -0.46982515045E+01 -0.45278388176E+02 -0.23383785659E+03  0.27183868262E+03  0.13093479367E+03 0.  0.
         25    2    3    3    0    0  0.46982515045E+01  0.45278388176E+02 -0.29265238123E+03  0.32255869316E+03  0.12777514738E+03 0.  0.
          5    1    4    4  502    0  0.47593226462E+00 -0.77262126824E+02 -0.22497856282E+03  0.23792247998E+03  0.47000000000E+01 0. -1.
         -5    1    4    4    0  502 -0.51741837691E+01  0.31983738648E+02 -0.88592937728E+01  0.33916202643E+02  0.47000000000E+01 0. -1.
          5    1    5    5  503    0 -0.56723126133E+02  0.67315747888E+01 -0.17626263835E+03  0.18534679607E+03  0.47000000000E+01 0. -1.
         -5    1    5    5    0  503  0.61421377637E+02  0.38546813387E+02 -0.11638974289E+03  0.13721189709E+03  0.47000000000E+01 0. -1.
<mgrwt>
<rscale>  0 0.27589177E+03</rscale>
<asrwt>0</asrwt>
<pdfrwt beam="1">  1        2 0.86222117E-01 0.27589177E+03</pdfrwt>
<pdfrwt beam="2">  1       -2 0.52236264E-02 0.27589177E+03</pdfrwt>
<totfact> 0.99549749E+03</totfact>
</mgrwt>
</event>
<event>
 9    1  0.2094635E-002  0.2738526E+03  0.7818608E-02  0.1099095E+00
          2   -1    0    0  501    0  0.00000000000E+00  0.00000000000E+00  0.12669948503E+04  0.12669948503E+04  0.00000000000E+00 0. -1.
         -2   -1    0    0    0  501 -0.00000000000E+00 -0.00000000000E+00 -0.14797857674E+02  0.14797857674E+02  0.00000000000E+00 0. -1.
         36    2    1    2    0    0  0.35527136788E-14  0.00000000000E+00  0.12521969926E+04  0.12817927079E+04  0.27385258420E+03 0.  0.
         25    2    3    3    0    0 -0.31527570761E+02 -0.47179792237E+02  0.50685497894E+03  0.52367122031E+03  0.11878407635E+03 0.  0.
         25    2    3    3    0    0  0.31527570761E+02  0.47179792237E+02  0.74534201365E+03  0.75812148762E+03  0.12646561656E+03 0.  0.
          5    1    4    4  502    0  0.97663344542E+01  0.14013961487E+02  0.34785712421E+03  0.34830796899E+03  0.47000000000E+01 0.  1.
         -5    1    4    4    0  502 -0.41293905215E+02 -0.61193753724E+02  0.15899785473E+03  0.17536325132E+03  0.47000000000E+01 0.  1.
          5    1    5    5  503    0 -0.17842198322E+01  0.84604030329E+02  0.54529774136E+03  0.55184485331E+03  0.47000000000E+01 0.  1.
         -5    1    5    5    0  503  0.33311790593E+02 -0.37424238093E+02  0.20004427228E+03  0.20627663431E+03  0.47000000000E+01 0.  1.
<mgrwt>
<rscale>  0 0.27385258E+03</rscale>
<asrwt>0</asrwt>
<pdfrwt beam="1">  1        2 0.19492220E+00 0.27385258E+03</pdfrwt>
<pdfrwt beam="2">  1       -2 0.22765945E-02 0.27385258E+03</pdfrwt>
<totfact> 0.11675995E+04</totfact>
</mgrwt>
</event>
<event>
 9    1  0.2094635E-002  0.2763403E+03  0.7818608E-02  0.1097705E+00
          1   -1    0    0  501    0  0.00000000000E+00  0.00000000000E+00  0.84020250838E+02  0.84020250838E+02  0.00000000000E+00 0. -1.
         -1   -1    0    0    0  501 -0.00000000000E+00 -0.00000000000E+00 -0.22721898347E+03  0.22721898347E+03  0.00000000000E+00 0. -1.
         36    2    1    2    0    0  0.71054273576E-14  0.71054273576E-14 -0.14319873263E+03  0.31123923431E+03  0.27634034079E+03 0.  0.
         25    2    3    3    0    0 -0.32165549644E+02  0.48227019178E+02 -0.92334503568E+02  0.16232553762E+03  0.12026409129E+03 0.  0.
         25    2    3    3    0    0  0.32165549644E+02 -0.48227019178E+02 -0.50864229065E+02  0.14891369669E+03  0.12738779886E+03 0.  0.
          5    1    4    4  502    0 -0.59393853138E+01  0.96368877901E+01  0.29409841042E+02  0.31861805572E+02  0.47000000000E+01 0. -1.
         -5    1    4    4    0  502 -0.26226164330E+02  0.38590131388E+02 -0.12174434461E+03  0.13046373205E+03  0.47000000000E+01 0. -1.
          5    1    5    5  503    0 -0.68722211938E+01 -0.63092060228E+02  0.19837799931E+02  0.66659311383E+02  0.47000000000E+01 0. -1.
         -5    1    5    5    0  503  0.39037770838E+02  0.14865041050E+02 -0.70702028996E+02  0.82254385303E+02  0.47000000000E+01 0. -1.
<mgrwt>
<rscale>  0 0.27634034E+03</rscale>
<asrwt>0</asrwt>
<pdfrwt beam="1">  1        1 0.12926193E-01 0.27634034E+03</pdfrwt>
<pdfrwt beam="2">  1       -1 0.34956767E-01 0.27634034E+03</pdfrwt>
<totfact> 0.35430834E+03</totfact>
</mgrwt>
</event>
<event>
 9    1  0.2094635E-002  0.2788185E+03  0.7818608E-02  0.1096336E+00
          2   -1    0    0  501    0  0.00000000000E+00  0.00000000000E+00  0.25846847686E+03  0.25846847686E+03  0.00000000000E+00 0.  1.
         -2   -1    0    0    0  501 -0.00000000000E+00 -0.00000000000E+00 -0.75192691699E+02  0.75192691699E+02  0.00000000000E+00 0.  1.
         36    2    1    2    0    0 -0.14210854715E-13  0.00000000000E+00  0.18327578516E+03  0.33366116856E+03  0.27881851082E+03 0.  0.
         25    2    3    3    0    0 -0.52671047396E+02 -0.13285676512E+02  0.12293511937E+03  0.18329050401E+03  0.12462590763E+03 0.  0.
         25    2    3    3    0    0  0.52671047396E+02  0.13285676512E+02  0.60340665793E+02  0.15037066455E+03  0.12656852837E+03 0.  0.
          5    1    4    4  502    0  0.20777810249E+02  0.18096538264E+02 -0.86761240849E+01  0.29267169748E+02  0.47000000000E+01 0. -1.
         -5    1    4    4    0  502 -0.73448857646E+02 -0.31382214776E+02  0.13161124345E+03  0.15402333426E+03  0.47000000000E+01 0. -1.
          5    1    5    5  503    0  0.24775930642E+02  0.66952574866E+02  0.11446806793E+02  0.72454215931E+02  0.47000000000E+01 0. -1.
         -5    1    5    5    0  503  0.27895116754E+02 -0.53666898353E+02  0.48893859000E+02  0.77916448620E+02  0.47000000000E+01 0. -1.
<mgrwt>
<rscale>  0 0.27881851E+03</rscale>
<asrwt>0</asrwt>
<pdfrwt beam="1">  1        2 0.39764381E-01 0.27881851E+03</pdfrwt>
<pdfrwt beam="2">  1       -2 0.11568107E-01 0.27881851E+03</pdfrwt>
<totfact> 0.67026801E+03</totfact>
</mgrwt>
</event>
<event>
 9    1  0.2094635E-002  0.2753241E+03  0.7818608E-02  0.1098271E+00
         -1   -1    0    0    0  501 -0.00000000000E+00  0.00000000000E+00  0.70930902501E+03  0.70930902501E+03  0.00000000000E+00 0. -1.
          1   -1    0    0  501    0  0.00000000000E+00 -0.00000000000E+00 -0.26717330456E+02  0.26717330456E+02  0.00000000000E+00 0. -1.
         36    2    1    2    0    0  0.00000000000E+00  0.00000000000E+00  0.68259169456E+03  0.73602635547E+03  0.27532412620E+03 0.  0.
         25    2    3    3    0    0  0.29121461360E+02  0.47125025646E+02  0.36641426477E+03  0.39131316654E+03  0.12568911378E+03 0.  0.
         25    2    3    3    0    0 -0.29121461360E+02 -0.47125025646E+02  0.31617742978E+03  0.34471318893E+03  0.12565901466E+03 0.  0.
          5    1    4    4  502    0 -0.12835775893E+02 -0.17566288389E+02  0.25366043189E+03  0.25463510429E+03  0.47000000000E+01 0.  1.
         -5    1    4    4    0  502  0.41957237253E+02  0.64691314035E+02  0.11275383288E+03  0.13667806225E+03  0.47000000000E+01 0.  1.
          5    1    5    5  503    0 -0.21574904697E+01  0.16592282032E+02 -0.33908006242E+01  0.17707233467E+02  0.47000000000E+01 0.  1.
         -5    1    5    5    0  503 -0.26963970890E+02 -0.63717307678E+02  0.31956823041E+03  0.32700595546E+03  0.47000000000E+01 0.  1.
<mgrwt>
<rscale>  0 0.27532413E+03</rscale>
<asrwt>0</asrwt>
<pdfrwt beam="1">  1        1 0.41103591E-02 0.27532413E+03</pdfrwt>
<pdfrwt beam="2">  1       -1 0.10912445E+00 0.27532413E+03</pdfrwt>
<totfact> 0.18074043E+03</totfact>
</mgrwt>
</event>
<event>
 9    1  0.2094635E-002  0.2752771E+03  0.7818608E-02  0.1098297E+00
          2   -1    0    0  501    0  0.00000000000E+00  0.00000000000E+00  0.90181751955E+03  0.90181751955E+03  0.00000000000E+00 0.  1.
         -2   -1    0    0    0  501 -0.00000000000E+00 -0.00000000000E+00 -0.21006882926E+02  0.21006882926E+02  0.00000000000E+00 0.  1.
         36    2    1    2    0    0  0.00000000000E+00  0.00000000000E+00  0.88081063662E+03  0.92282440247E+03  0.27527713348E+03 0.  0.
         25    2    3    3    0    0  0.41835373320E+02 -0.29688472030E+02  0.43060611945E+03  0.45181162621E+03  0.12680895723E+03 0.  0.
         25    2    3    3    0    0 -0.41835373320E+02  0.29688472030E+02  0.45020451717E+03  0.47101277627E+03  0.12859752834E+03 0.  0.
          5    1    4    4  502    0 -0.13653662833E+02 -0.15459795346E+02  0.36065898799E+03  0.36127887206E+03  0.47000000000E+01 0. -1.
         -5    1    4    4    0  502  0.55489036153E+02 -0.14228676685E+02  0.69947131466E+02  0.90532754149E+02  0.47000000000E+01 0. -1.
          5    1    5    5  503    0 -0.85990214761E+02  0.33412391425E+01  0.25918421490E+03  0.27313737966E+03  0.47000000000E+01 0. -1.
         -5    1    5    5    0  503  0.44154841441E+02  0.26347232888E+02  0.19102030227E+03  0.19787539661E+03  0.47000000000E+01 0. -1.
<mgrwt>
<rscale>  0 0.27527713E+03</rscale>
<asrwt>0</asrwt>
<pdfrwt beam="1">  1        2 0.13874113E+00 0.27527713E+03</pdfrwt>
<pdfrwt beam="2">  1       -2 0.32318288E-02 0.27527713E+03</pdfrwt>
<totfact> 0.11446401E+04</totfact>
</mgrwt>
</event>
<event>
 9    1  0.2094635E-002  0.2763591E+03  0.7818608E-02  0.1097694E+00
          2   -1    0    0  501    0  0.00000000000E+00  0.00000000000E+00  0.15710855065E+03  0.15710855065E+03  0.00000000000E+00 0. -1.
         -2   -1    0    0    0  501 -0.00000000000E+00 -0.00000000000E+00 -0.12153119252E+03  0.12153119252E+03  0.00000000000E+00 0. -1.
         36    2    1    2    0    0  0.00000000000E+00  0.00000000000E+00  0.35577358124E+02  0.27863974317E+03  0.27635911069E+03 0.  0.
         25    2    3    3    0    0 -0.22730764800E+02 -0.48402904934E+02  0.71781783833E+01  0.13671004900E+03  0.12561282728E+03 0.  0.
         25    2    3    3    0    0  0.22730764800E+02  0.48402904934E+02  0.28399179741E+02  0.14192969417E+03  0.12836664599E+03 0.  0.
          5    1    4    4  502    0 -0.15914458095E+02 -0.31593139853E+02 -0.58437018796E+02  0.68471684863E+02  0.47000000000E+01 0. -1.
         -5    1    4    4    0  502 -0.68163067054E+01 -0.16809765081E+02  0.65615197180E+02  0.68238364137E+02  0.47000000000E+01 0. -1.
          5    1    5    5  503    0  0.52168499364E+02 -0.25870060582E+02  0.18546524979E+02  0.61293359748E+02  0.47000000000E+01 0.  1.
         -5    1    5    5    0  503 -0.29437734564E+02  0.74272965516E+02  0.98526547612E+01  0.80636334420E+02  0.47000000000E+01 0.  1.
<mgrwt>
<rscale>  0 0.27635911E+03</rscale>
<asrwt>0</asrwt>
<pdfrwt beam="1">  1        2 0.24170546E-01 0.27635911E+03</pdfrwt>
<pdfrwt beam="2">  1       -2 0.18697107E-01 0.27635911E+03</pdfrwt>
<totfact> 0.52387816E+03</totfact>
</mgrwt>
</event>
<event>
 9    1  0.2094635E-002  0.2746152E+03  0.7818608E-02  0.1098667E+00
          2   -1    0    0  501    0  0.00000000000E+00  0.00000000000E+00  0.36245952087E+03  0.36245952087E+03  0.00000000000E+00 0. -1.
         -2   -1    0    0    0  501 -0.00000000000E+00 -0.00000000000E+00 -0.52015139483E+02  0.52015139483E+02  0.00000000000E+00 0. -1.
         36    2    1    2    0    0 -0.71054273576E-14  0.00000000000E+00  0.31044438139E+03  0.41447466035E+03  0.27461524018E+03 0.  0.
         25    2    3    3    0    0 -0.42299686995E+02 -0.46117246098E+02  0.13194139783E+03  0.19126870305E+03  0.12352781223E+03 0.  0.
         25    2    3    3    0    0  0.42299686995E+02  0.46117246098E+02  0.17850298356E+03  0.22320595731E+03  0.11849692119E+03 0.  0.
          5    1    4    4  502    0 -0.54816771697E+02 -0.82789094333E+02  0.92706391575E+02  0.13592452920E+03  0.47000000000E+01 0. -1.
         -5    1    4    4    0  502  0.12517084702E+02  0.36671848235E+02  0.39235006257E+02  0.55344173844E+02  0.47000000000E+01 0. -1.
          5    1    5    5  503    0  0.61793768411E+02  0.75010333188E+02  0.14509003894E+03  0.17469467450E+03  0.47000000000E+01 0.  1.
         -5    1    5    5    0  503 -0.19494081416E+02 -0.28893087090E+02  0.33412944620E+02  0.48511282811E+02  0.47000000000E+01 0.  1.
<mgrwt>
<rscale>  0 0.27461524E+03</rscale>
<asrwt>0</asrwt>
<pdfrwt beam="1">  1        2 0.55763002E-01 0.27461524E+03</pdfrwt>
<pdfrwt beam="2">  1       -2 0.80023294E-02 0.27461524E+03</pdfrwt>
<totfact> 0.83466876E+03</totfact>
</mgrwt>
</event>
<event>
 9    1  0.2094635E-002  0.2773342E+03  0.7818608E-02  0.1097154E+00
         -2   -1    0    0    0  501 -0.00000000000E+00  0.00000000000E+00  0.38182000820E+02  0.38182000820E+02  0.00000000000E+00 0.  1.
          2   -1    0    0  501    0  0.00000000000E+00 -0.00000000000E+00 -0.50360301982E+03  0.50360301982E+03  0.00000000000E+00 0.  1.
         36    2    1    2    0    0  0.00000000000E+00 -0.71054273576E-14 -0.46542101900E+03  0.54178502064E+03  0.27733424538E+03 0.  0.
         25    2    3    3    0    0  0.36722864670E+02  0.31098635827E+02 -0.31015601193E+03  0.33738587831E+03  0.12376100035E+03 0.  0.
         25    2    3    3    0    0 -0.36722864670E+02 -0.31098635827E+02 -0.15526500707E+03  0.20439914233E+03  0.12391970394E+03 0.  0.
          5    1    4    4  502    0  0.43855656262E+02  0.50308076357E+02 -0.71935970353E+02  0.98239986582E+02  0.47000000000E+01 0. -1.
         -5    1    4    4    0  502 -0.71327915927E+01 -0.19209440530E+02 -0.23822004157E+03  0.23914589173E+03  0.47000000000E+01 0. -1.
          5    1    5    5  503    0 -0.89674452460E+00 -0.74641195664E+02 -0.72686699127E+02  0.10429553428E+03  0.47000000000E+01 0. -1.
         -5    1    5    5    0  503 -0.35826120145E+02  0.43542559837E+02 -0.82578307942E+02  0.10010360805E+03  0.47000000000E+01 0. -1.
<mgrwt>
<rscale>  0 0.27733425E+03</rscale>
<asrwt>0</asrwt>
<pdfrwt beam="1">  1        2 0.77477389E-01 0.27733425E+03</pdfrwt>
<pdfrwt beam="2">  1       -2 0.58741539E-02 0.27733425E+03</pdfrwt>
<totfact> 0.93929512E+03</totfact>
</mgrwt>
</event>
<event>
 9    1  0.2094635E-002  0.2749434E+03  0.7818608E-02  0.1098483E+00
         -1   -1    0    0    0  501 -0.00000000000E+00  0.00000000000E+00  0.16307157012E+03  0.16307157012E+03  0.00000000000E+00 0.  1.
          1   -1    0    0  501    0  0.00000000000E+00 -0.00000000000E+00 -0.11589060442E+03  0.11589060442E+03  0.00000000000E+00 0.  1.
         36    2    1    2    0    0 -0.35527136788E-14  0.00000000000E+00  0.47180965706E+02  0.27896217454E+03  0.27494336016E+03 0.  0.
         25    2    3    3    0    0  0.29029963538E+02  0.27048665790E+02 -0.19168744505E+02  0.13231856111E+03  0.12476534672E+03 0.  0.
         25    2    3    3    0    0 -0.29029963538E+02 -0.27048665790E+02  0.66349710210E+02  0.14664361343E+03  0.12461017700E+03 0.  0.
          5    1    4    4  502    0 -0.25998788588E+02 -0.27162918081E+02  0.22858708224E+02  0.44253493291E+02  0.47000000000E+01 0. -1.
         -5    1    4    4    0  502  0.55028752126E+02  0.54211583872E+02 -0.42027452729E+02  0.88065067815E+02  0.47000000000E+01 0. -1.
          5    1    5    5  503    0 -0.73726748553E+02 -0.11086036131E+01  0.18749585512E+02  0.76226631902E+02  0.47000000000E+01 0.  1.
         -5    1    5    5    0  503  0.44696785015E+02 -0.25940062177E+02  0.47600124698E+02  0.70416981529E+02  0.47000000000E+01 0.  1.
<mgrwt>
<rscale>  0 0.27494336E+03</rscale>
<asrwt>0</asrwt>
<pdfrwt beam="1">  1        1 0.17829324E-01 0.27494336E+03</pdfrwt>
<pdfrwt beam="2">  1       -1 0.25087934E-01 0.27494336E+03</pdfrwt>
<totfact> 0.40829586E+03</totfact>
</mgrwt>
</event>
<event>
 9    1  0.2094635E-002  0.2767671E+03  0.7818608E-02  0.1097468E+00
         -2   -1    0    0    0  501 -0.00000000000E+00  0.00000000000E+00  0.36433172808E+02  0.36433172808E+02  0.00000000000E+00 0.  1.
          2   -1    0    0  501    0  0.00000000000E+00 -0.00000000000E+00 -0.52562023565E+03  0.52562023565E+03  0.00000000000E+00 0.  1.
         36    2    1    2    0    0  0.00000000000E+00  0.00000000000E+00 -0.48918706284E+03  0.56205340846E+03  0.27676714311E+03 0.  0.
         25    2    3    3    0    0 -0.47218599354E+02  0.22525259658E+02 -0.31294675536E+03  0.34148611383E+03  0.12625415161E+03 0.  0.
         25    2    3    3    0    0  0.47218599354E+02 -0.22525259658E+02 -0.17624030748E+03  0.22056729463E+03  0.12187002106E+03 0.  0.
          5    1    4    4  502    0  0.28449489476E+02  0.42060994054E+02 -0.18113614292E+03  0.18817782267E+03  0.47000000000E+01 0. -1.
         -5    1    4    4    0  502 -0.75668088830E+02 -0.19535734396E+02 -0.13181061244E+03  0.15330829116E+03  0.47000000000E+01 0. -1.
          5    1    5    5  503    0  0.31597227215E+02 -0.68212259639E+02 -0.66085248996E+02  0.10020303023E+03  0.47000000000E+01 0. -1.
         -5    1    5    5    0  503  0.15621372139E+02  0.45686999981E+02 -0.11015505848E+03  0.12036426440E+03  0.47000000000E+01 0. -1.
<mgrwt>
<rscale>  0 0.27676714E+03</rscale>
<asrwt>0</asrwt>
<pdfrwt beam="1">  1        2 0.80864645E-01 0.27676714E+03</pdfrwt>
<pdfrwt beam="2">  1       -2 0.56051039E-02 0.27676714E+03</pdfrwt>
<totfact> 0.96168357E+03</totfact>
</mgrwt>
</event>
<event>
 9    1  0.2094635E-002  0.2782273E+03  0.7818608E-02  0.1096661E+00
         -2   -1    0    0    0  501 -0.00000000000E+00  0.00000000000E+00  0.14335635213E+02  0.14335635213E+02  0.00000000000E+00 0. -1.
          2   -1    0    0  501    0  0.00000000000E+00 -0.00000000000E+00 -0.13499654410E+04  0.13499654410E+04  0.00000000000E+00 0. -1.
         36    2    1    2    0    0 -0.71054273576E-14 -0.71054273576E-14 -0.13356298057E+04  0.13643010762E+04  0.27822733231E+03 0.  0.
         25    2    3    3    0    0 -0.20423989587E+02 -0.49568499203E+02 -0.52596991750E+03  0.54296863341E+03  0.12367864524E+03 0.  0.
         25    2    3    3    0    0  0.20423989587E+02  0.49568499203E+02 -0.80965988824E+03  0.82133244276E+03  0.12713642843E+03 0.  0.
          5    1    4    4  502    0 -0.71080107639E+02 -0.32936665109E+02 -0.36470238482E+03  0.37305110253E+03  0.47000000000E+01 0. -1.
         -5    1    4    4    0  502  0.50656118052E+02 -0.16631834094E+02 -0.16126753268E+03  0.16991753087E+03  0.47000000000E+01 0. -1.
          5    1    5    5  503    0  0.43096662744E+02 -0.29861545991E+02 -0.39563302992E+03  0.39911980486E+03  0.47000000000E+01 0. -1.
         -5    1    5    5    0  503 -0.22672673156E+02  0.79430045194E+02 -0.41402685833E+03  0.42221263790E+03  0.47000000000E+01 0. -1.
<mgrwt>
<rscale>  0 0.27822733E+03</rscale>
<asrwt>0</asrwt>
<pdfrwt beam="1">  1        2 0.20768707E+00 0.27822733E+03</pdfrwt>
<pdfrwt beam="2">  1       -2 0.22054815E-02 0.27822733E+03</pdfrwt>
<totfact> 0.11013444E+04</totfact>
</mgrwt>
</event>
<event>
 9    1  0.2094635E-002  0.2743665E+03  0.7818608E-02  0.1098806E+00
          1   -1    0    0  501    0  0.00000000000E+00  0.00000000000E+00  0.12097688815E+04  0.12097688815E+04  0.00000000000E+00 0. -1.
         -1   -1    0    0    0  501 -0.00000000000E+00 -0.00000000000E+00 -0.15556066754E+02  0.15556066754E+02  0.00000000000E+00 0. -1.
         36    2    1    2    0    0 -0.35527136788E-14  0.35527136788E-14  0.11942128147E+04  0.12253249482E+04  0.27436651018E+03 0.  0.
         25    2    3    3    0    0  0.12756127883E+02  0.73775027895E+01  0.73736860580E+03  0.74800777595E+03  0.12484400552E+03 0.  0.
         25    2    3    3    0    0 -0.12756127883E+02 -0.73775027895E+01  0.45684420892E+03  0.47731717227E+03  0.13750601944E+03 0.  0.
          5    1    4    4  502    0 -0.11465948596E+02 -0.22235954051E+02  0.66929417490E+03  0.66977808876E+03  0.47000000000E+01 0.  1.
         -5    1    4    4    0  502  0.24222076479E+02  0.29613456840E+02  0.68074430896E+02  0.78229687183E+02  0.47000000000E+01 0.  1.
          5    1    5    5  503    0  0.23982940527E+02 -0.37831944253E+02  0.40179779319E+03  0.40431422688E+03  0.47000000000E+01 0. -1.
         -5    1    5    5    0  503 -0.36739068411E+02  0.30454441463E+02  0.55046415726E+02  0.73002945398E+02  0.47000000000E+01 0. -1.
<mgrwt>
<rscale>  0 0.27436651E+03</rscale>
<asrwt>0</asrwt>
<pdfrwt beam="1">  1        1 0.18611822E+00 0.27436651E+03</pdfrwt>
<pdfrwt beam="2">  1       -1 0.23932420E-02 0.27436651E+03</pdfrwt>
<totfact> 0.59346798E+03</totfact>
</mgrwt>
</event>
<event>
 9    1  0.2094635E-002  0.2753068E+03  0.7818608E-02  0.1098280E+00
          3   -1    0    0  501    0  0.00000000000E+00  0.00000000000E+00  0.63599491548E+02  0.63599491548E+02  0.00000000000E+00 0.  1.
         -3   -1    0    0    0  501 -0.00000000000E+00 -0.00000000000E+00 -0.29793416779E+03  0.29793416779E+03  0.00000000000E+00 0.  1.
         36    2    1    2    0    0 -0.35527136788E-14  0.00000000000E+00 -0.23433467624E+03  0.36153365934E+03  0.27530682219E+03 0.  0.
         25    2    3    3    0    0  0.27294881057E+02 -0.17086338761E+02 -0.37049456107E+02  0.12640619034E+03  0.11648566115E+03 0.  0.
         25    2    3    3    0    0 -0.27294881057E+02  0.17086338761E+02 -0.19728522014E+03  0.23512746900E+03  0.12380030328E+03 0.  0.
          5    1    4    4  502    0  0.12502424861E+02 -0.42992303715E+00 -0.78223502678E+02  0.79356800795E+02  0.47000000000E+01 0. -1.
         -5    1    4    4    0  502  0.14792456196E+02 -0.16656415723E+02  0.41174046572E+02  0.47049389541E+02  0.47000000000E+01 0. -1.
          5    1    5    5  503    0 -0.37817882717E+02  0.14514014758E+02 -0.34411724205E+01  0.40924082705E+02  0.47000000000E+01 0.  1.
         -5    1    5    5    0  503  0.10523001660E+02  0.25723240025E+01 -0.19384404772E+03  0.19420338630E+03  0.47000000000E+01 0.  1.
<mgrwt>
<rscale>  0 0.27530682E+03</rscale>
<asrwt>0</asrwt>
<pdfrwt beam="1">  1        3 0.97845372E-02 0.27530682E+03</pdfrwt>
<pdfrwt beam="2">  1       -3 0.45836026E-01 0.27530682E+03</pdfrwt>
<totfact> 0.92461266E+02</totfact>
</mgrwt>
</event>
<event>
 9    1  0.2094635E-002  0.2750841E+03  0.7818608E-02  0.1098405E+00
          1   -1    0    0  501    0  0.00000000000E+00  0.00000000000E+00  0.83939810183E+03  0.83939810183E+03  0.00000000000E+00 0.  1.
         -1   -1    0    0    0  501 -0.00000000000E+00 -0.00000000000E+00 -0.22537361274E+02  0.22537361274E+02  0.00000000000E+00 0.  1.
         36    2    1    2    0    0 -0.71054273576E-14  0.00000000000E+00  0.81686074055E+03  0.86193546310E+03  0.27508412003E+03 0.  0.
         25    2    3    3    0    0  0.38479840150E+02  0.13705467988E+02  0.31874220993E+03  0.34587778219E+03  0.12793086363E+03 0.  0.
         25    2    3    3    0    0 -0.38479840150E+02 -0.13705467988E+02  0.49811853062E+03  0.51605768091E+03  0.12854929610E+03 0.  0.
          5    1    4    4  502    0 -0.10105577048E+02  0.60452708997E+02  0.20016638616E+03  0.20939275265E+03  0.47000000000E+01 0. -1.
         -5    1    4    4    0  502  0.48585417198E+02 -0.46747241009E+02  0.11857582378E+03  0.13648502955E+03  0.47000000000E+01 0. -1.
          5    1    5    5  503    0 -0.60507194998E+00 -0.55124943866E+02  0.39231385748E+03  0.39619613618E+03  0.47000000000E+01 0.  1.
         -5    1    5    5    0  503 -0.37874768200E+02  0.41419475878E+02  0.10580467314E+03  0.11986154473E+03  0.47000000000E+01 0.  1.
<mgrwt>
<rscale>  0 0.27508412E+03</rscale>
<asrwt>0</asrwt>
<pdfrwt beam="1">  1        1 0.12913815E+00 0.27508412E+03</pdfrwt>
<pdfrwt beam="2">  1       -1 0.34672870E-02 0.27508412E+03</pdfrwt>
<totfact> 0.64917110E+03</totfact>
</mgrwt>
</event>
<event>
 9    1  0.2094635E-002  0.2751828E+03  0.7818608E-02  0.1098349E+00
          1   -1    0    0  501    0  0.00000000000E+00  0.00000000000E+00  0.25452499617E+02  0.25452499617E+02  0.00000000000E+00 0. -1.
         -1   -1    0    0    0  501 -0.00000000000E+00 -0.00000000000E+00 -0.74379330753E+03  0.74379330753E+03  0.00000000000E+00 0. -1.
         36    2    1    2    0    0  0.00000000000E+00 -0.35527136788E-14 -0.71834080791E+03  0.76924580714E+03  0.27518284012E+03 0.  0.
         25    2    3    3    0    0 -0.47145552174E+02  0.10116471053E+02 -0.29846494730E+03  0.32784992696E+03  0.12680380027E+03 0.  0.
         25    2    3    3    0    0  0.47145552174E+02 -0.10116471053E+02 -0.41987586061E+03  0.44139588019E+03  0.12731668644E+03 0.  0.
          5    1    4    4  502    0 -0.74607699007E+02  0.78200625175E+01 -0.88846348059E+02  0.11637536549E+03  0.47000000000E+01 0.  1.
         -5    1    4    4    0  502  0.27462146832E+02  0.22964085351E+01 -0.20961859924E+03  0.21147456147E+03  0.47000000000E+01 0.  1.
          5    1    5    5  503    0  0.51915608749E+02 -0.54322035846E+02 -0.14991685946E+03  0.16775955639E+03  0.47000000000E+01 0.  1.
         -5    1    5    5    0  503 -0.47700565750E+01  0.44205564794E+02 -0.26995900115E+03  0.27363632380E+03  0.47000000000E+01 0.  1.
<mgrwt>
<rscale>  0 0.27518284E+03</rscale>
<asrwt>0</asrwt>
<pdfrwt beam="1">  1        1 0.39157697E-02 0.27518284E+03</pdfrwt>
<pdfrwt beam="2">  1       -1 0.11442973E+00 0.27518284E+03</pdfrwt>
<totfact> 0.17325941E+03</totfact>
</mgrwt>
</event>
<event>
 9    1  0.2094635E-002  0.2755258E+03  0.7818608E-02  0.1098158E+00
         -2   -1    0    0    0  501 -0.00000000000E+00  0.00000000000E+00  0.25112304085E+03  0.25112304085E+03  0.00000000000E+00 0. -1.
          2   -1    0    0  501    0  0.00000000000E+00 -0.00000000000E+00 -0.75574970377E+02  0.75574970377E+02  0.00000000000E+00 0. -1.
         36    2    1    2    0    0  0.71054273576E-14  0.00000000000E+00  0.17554807048E+03  0.32669801123E+03  0.27552579824E+03 0.  0.
         25    2    3    3    0    0  0.28914606577E+02  0.55988053500E+02  0.11327514733E+02  0.11067160263E+03  0.90272777904E+02 0.  0.
         25    2    3    3    0    0 -0.28914606577E+02 -0.55988053500E+02  0.16422055574E+03  0.21602640860E+03  0.12541252599E+03 0.  0.
          5    1    4    4  502    0  0.18515938445E+02  0.46119633998E+00  0.42054419275E+02  0.46192173138E+02  0.47000000000E+01 0.  1.
         -5    1    4    4    0  502  0.10398668131E+02  0.55526857160E+02 -0.30726904542E+02  0.64479429493E+02  0.47000000000E+01 0.  1.
          5    1    5    5  503    0  0.38576181417E+02 -0.55294355451E+02  0.53186499290E+02  0.86002797769E+02  0.47000000000E+01 0.  1.
         -5    1    5    5    0  503 -0.67490787994E+02 -0.69369804953E+00  0.11103405645E+03  0.13002361083E+03  0.47000000000E+01 0.  1.
<mgrwt>
<rscale>  0 0.27552580E+03</rscale>
<asrwt>0</asrwt>
<pdfrwt beam="1">  1        2 0.11626919E-01 0.27552580E+03</pdfrwt>
<pdfrwt beam="2">  1       -2 0.38634314E-01 0.27552580E+03</pdfrwt>
<totfact> 0.33681233E+03</totfact>
</mgrwt>
</event>
<event>
 9    1  0.2094635E-002  0.2756418E+03  0.7818608E-02  0.1098093E+00
          2   -1    0    0  501    0  0.00000000000E+00  0.00000000000E+00  0.26998257936E+04  0.26998257936E+04  0.00000000000E+00 0.  1.
         -2   -1    0    0    0  501 -0.00000000000E+00 -0.00000000000E+00 -0.70354916362E+01  0.70354916362E+01  0.00000000000E+00 0.  1.
         36    2    1    2    0    0  0.35527136788E-14  0.71054273576E-14  0.26927903020E+04  0.27068612853E+04  0.27564180953E+03 0.  0.
         25    2    3    3    0    0  0.23126633766E+02 -0.36326872114E+02  0.16792601819E+04  0.16836120739E+04  0.11305031563E+03 0.  0.
         25    2    3    3    0    0 -0.23126633766E+02  0.36326872114E+02  0.10135301201E+04  0.10232492114E+04  0.13394462103E+03 0.  0.
          5    1    4    4  502    0 -0.16266357018E+02  0.29562129931E+02  0.88020077583E+03  0.88085981272E+03  0.47000000000E+01 0.  1.
         -5    1    4    4    0  502  0.39392990785E+02 -0.65889002045E+02  0.79905940609E+03  0.80275226115E+03  0.47000000000E+01 0.  1.
          5    1    5    5  503    0 -0.17289650580E+02  0.52973044237E+01  0.14348099893E+02  0.23557406942E+02  0.47000000000E+01 0. -1.
         -5    1    5    5    0  503 -0.58369831866E+01  0.31029567690E+02  0.99918202017E+03  0.99969180444E+03  0.47000000000E+01 0. -1.
<mgrwt>
<rscale>  0 0.27564181E+03</rscale>
<asrwt>0</asrwt>
<pdfrwt beam="1">  1        2 0.41535699E+00 0.27564181E+03</pdfrwt>
<pdfrwt beam="2">  1       -2 0.10823855E-02 0.27564181E+03</pdfrwt>
<totfact> 0.59014209E+03</totfact>
</mgrwt>
</event>
<event>
 9    1  0.2094635E-002  0.2741251E+03  0.7818608E-02  0.1098942E+00
          2   -1    0    0  501    0  0.00000000000E+00  0.00000000000E+00  0.73880876804E+03  0.73880876804E+03  0.00000000000E+00 0. -1.
         -2   -1    0    0    0  501 -0.00000000000E+00 -0.00000000000E+00 -0.25427609845E+02  0.25427609845E+02  0.00000000000E+00 0. -1.
         36    2    1    2    0    0  0.71054273576E-14 -0.88817841970E-15  0.71338115819E+03  0.76423637788E+03  0.27412508899E+03 0.  0.
         25    2    3    3    0    0 -0.46397655156E+02 -0.73050336658E+00  0.29329155340E+03  0.32256725459E+03  0.12600167619E+03 0.  0.
         25    2    3    3    0    0  0.46397655156E+02  0.73050336658E+00  0.42008960479E+03  0.44166912329E+03  0.12823050484E+03 0.  0.
          5    1    4    4  502    0  0.42410764013E+02 -0.55348647412E+01  0.12440583892E+03  0.13163666051E+03  0.47000000000E+01 0. -1.
         -5    1    4    4    0  502 -0.88808419169E+02  0.48043613746E+01  0.16888571448E+03  0.19093059408E+03  0.47000000000E+01 0. -1.
          5    1    5    5  503    0  0.55987557992E+02  0.13494299546E+02  0.68203360160E+02  0.89389546969E+02  0.47000000000E+01 0. -1.
         -5    1    5    5    0  503 -0.95899028355E+01 -0.12763796180E+02  0.35188624463E+03  0.35227957632E+03  0.47000000000E+01 0. -1.
<mgrwt>
<rscale>  0 0.27412509E+03</rscale>
<asrwt>0</asrwt>
<pdfrwt beam="1">  1        2 0.11366287E+00 0.27412509E+03</pdfrwt>
<pdfrwt beam="2">  1       -2 0.39119405E-02 0.27412509E+03</pdfrwt>
<totfact> 0.11108381E+04</totfact>
</mgrwt>
</event>
<event>
 9    1  0.2094635E-002  0.2749454E+03  0.7818608E-02  0.1098482E+00
          1   -1    0    0  501    0  0.00000000000E+00  0.00000000000E+00  0.26004448548E+02  0.26004448548E+02  0.00000000000E+00 0. -1.
         -1   -1    0    0    0  501 -0.00000000000E+00 -0.00000000000E+00 -0.72675027762E+03  0.72675027762E+03  0.00000000000E+00 0. -1.
         36    2    1    2    0    0  0.00000000000E+00  0.00000000000E+00 -0.70074582907E+03  0.75275472617E+03  0.27494537786E+03 0.  0.
         25    2    3    3    0    0  0.41498693289E+02 -0.46510757903E+02 -0.35015440595E+03  0.37498523478E+03  0.11882939938E+03 0.  0.
         25    2    3    3    0    0 -0.41498693289E+02  0.46510757903E+02 -0.35059142312E+03  0.37776949138E+03  0.12613504868E+03 0.  0.
          5    1    4    4  502    0  0.31416230001E+02 -0.36093894522E+02 -0.35557411562E+03  0.35881024293E+03  0.47000000000E+01 0.  1.
         -5    1    4    4    0  502  0.10082463288E+02 -0.10416863381E+02  0.54197096745E+01  0.16174991858E+02  0.47000000000E+01 0.  1.
          5    1    5    5  503    0 -0.43967142329E+02 -0.23071836821E+02 -0.55844478527E+02  0.74873994423E+02  0.47000000000E+01 0.  1.
         -5    1    5    5    0  503  0.24684490398E+01  0.69582594724E+02 -0.29474694460E+03  0.30289549696E+03  0.47000000000E+01 0.  1.
<mgrwt>
<rscale>  0 0.27494538E+03</rscale>
<asrwt>0</asrwt>
<pdfrwt beam="1">  1        1 0.40006852E-02 0.27494538E+03</pdfrwt>
<pdfrwt beam="2">  1       -1 0.11180771E+00 0.27494538E+03</pdfrwt>
<totfact> 0.17745645E+03</totfact>
</mgrwt>
</event>
<event>
 9    1  0.2094635E-002  0.2750236E+03  0.7818608E-02  0.1098438E+00
          2   -1    0    0  501    0  0.00000000000E+00  0.00000000000E+00  0.10457024400E+04  0.10457024400E+04  0.00000000000E+00 0. -1.
         -2   -1    0    0    0  501 -0.00000000000E+00 -0.00000000000E+00 -0.18083054280E+02  0.18083054280E+02  0.00000000000E+00 0. -1.
         36    2    1    2    0    0  0.71054273576E-14  0.71054273576E-14  0.10276193857E+04  0.10637854943E+04  0.27502359159E+03 0.  0.
         25    2    3    3    0    0 -0.58156572934E+02 -0.46319443696E+01  0.43549067707E+03  0.45688722423E+03  0.12526038467E+03 0.  0.
         25    2    3    3    0    0  0.58156572934E+02  0.46319443696E+01  0.59212870864E+03  0.60689827004E+03  0.11960543756E+03 0.  0.
          5    1    4    4  502    0 -0.69605483914E+02  0.37051274366E+02  0.16511637329E+03  0.18303886760E+03  0.47000000000E+01 0.  1.
         -5    1    4    4    0  502  0.11448910980E+02 -0.41683218736E+02  0.27037430378E+03  0.27384835663E+03  0.47000000000E+01 0.  1.
          5    1    5    5  503    0  0.39607306388E+02  0.39529414775E+02  0.11364252799E+03  0.12675972357E+03  0.47000000000E+01 0.  1.
         -5    1    5    5    0  503  0.18549266547E+02 -0.34897470406E+02  0.47848618065E+03  0.48013854647E+03  0.47000000000E+01 0.  1.
<mgrwt>
<rscale>  0 0.27502359E+03</rscale>
<asrwt>0</asrwt>
<pdfrwt beam="1">  1        2 0.16087725E+00 0.27502359E+03</pdfrwt>
<pdfrwt beam="2">  1       -2 0.27820092E-02 0.27502359E+03</pdfrwt>
<totfact> 0.11645181E+04</totfact>
</mgrwt>
</event>
<event>
 9    1  0.2094635E-002  0.2710999E+03  0.7818608E-02  0.1100652E+00
         -2   -1    0    0    0  501 -0.00000000000E+00  0.00000000000E+00  0.76312939956E+02  0.76312939956E+02  0.00000000000E+00 0.  1.
          2   -1    0    0  501    0  0.00000000000E+00 -0.00000000000E+00 -0.24076902247E+03  0.24076902247E+03  0.00000000000E+00 0.  1.
         36    2    1    2    0    0  0.14210854715E-13 -0.35527136788E-14 -0.16445608251E+03  0.31708196242E+03  0.27109992220E+03 0.  0.
         25    2    3    3    0    0  0.56427088202E+02  0.46267519058E+01 -0.95134632361E+02  0.16641106551E+03  0.12424420041E+03 0.  0.
         25    2    3    3    0    0 -0.56427088202E+02 -0.46267519058E+01 -0.69321450150E+02  0.15067089691E+03  0.12120574495E+03 0.  0.
          5    1    4    4  502    0 -0.14890576340E+02  0.48992477385E+02 -0.45980468623E+02  0.68980327622E+02  0.47000000000E+01 0.  1.
         -5    1    4    4    0  502  0.71317664543E+02 -0.44365725479E+02 -0.49154163738E+02  0.97430737891E+02  0.47000000000E+01 0.  1.
          5    1    5    5  503    0 -0.90474447981E+02 -0.61227624506E+01 -0.72396164990E+02  0.11613099785E+03  0.47000000000E+01 0.  1.
         -5    1    5    5    0  503  0.34047359778E+02  0.14960105448E+01  0.30747148393E+01  0.34539899055E+02  0.47000000000E+01 0.  1.
<mgrwt>
<rscale>  0 0.27109992E+03</rscale>
<asrwt>0</asrwt>
<pdfrwt beam="1">  1        2 0.37041388E-01 0.27109992E+03</pdfrwt>
<pdfrwt beam="2">  1       -2 0.11740452E-01 0.27109992E+03</pdfrwt>
<totfact> 0.70590214E+03</totfact>
</mgrwt>
</event>
<event>
 9    1  0.2094635E-002  0.2742406E+03  0.7818608E-02  0.1098877E+00
         -2   -1    0    0    0  501 -0.00000000000E+00  0.00000000000E+00  0.68511762739E+01  0.68511762739E+01  0.00000000000E+00 0.  1.
          2   -1    0    0  501    0  0.00000000000E+00 -0.00000000000E+00 -0.27443420606E+04  0.27443420606E+04  0.00000000000E+00 0.  1.
         36    2    1    2    0    0  0.35527136788E-14 -0.14210854715E-13 -0.27374908843E+04  0.27511932368E+04  0.27424056019E+03 0.  0.
         25    2    3    3    0    0 -0.60029656100E+01  0.56473615134E+02 -0.13649507954E+04  0.13712903164E+04  0.11883245834E+03 0.  0.
         25    2    3    3    0    0  0.60029656100E+01 -0.56473615134E+02 -0.13725400889E+04  0.13799029205E+04  0.13053914912E+03 0.  0.
          5    1    4    4  502    0 -0.51526134163E+02  0.66439045723E+02 -0.80945927278E+03  0.81382768053E+03  0.47000000000E+01 0. -1.
         -5    1    4    4    0  502  0.45523168553E+02 -0.99654305892E+01 -0.55549152261E+03  0.55746263586E+03  0.47000000000E+01 0. -1.
          5    1    5    5  503    0 -0.24709246170E+02 -0.64632873964E+02 -0.12812540370E+04  0.12831297490E+04  0.47000000000E+01 0. -1.
         -5    1    5    5    0  503  0.30712211780E+02  0.81592588308E+01 -0.91286051849E+02  0.96773171485E+02  0.47000000000E+01 0. -1.
<mgrwt>
<rscale>  0 0.27424056E+03</rscale>
<asrwt>0</asrwt>
<pdfrwt beam="1">  1        2 0.42220655E+00 0.27424056E+03</pdfrwt>
<pdfrwt beam="2">  1       -2 0.10540269E-02 0.27424056E+03</pdfrwt>
<totfact> 0.57887947E+03</totfact>
</mgrwt>
</event>
<event>
 9    1  0.2094635E-002  0.2768819E+03  0.7818608E-02  0.1097404E+00
         -3   -1    0    0    0  501 -0.00000000000E+00  0.00000000000E+00  0.57032506279E+03  0.57032506279E+03  0.00000000000E+00 0.  1.
          3   -1    0    0  501    0  0.00000000000E+00 -0.00000000000E+00 -0.33605213008E+02  0.33605213008E+02  0.00000000000E+00 0.  1.
         36    2    1    2    0    0  0.00000000000E+00  0.00000000000E+00  0.53671984978E+03  0.60393027580E+03  0.27688188976E+03 0.  0.
         25    2    3    3    0    0 -0.42289049273E+02 -0.76181657651E+01  0.37286478953E+03  0.39506995170E+03  0.12331145660E+03 0.  0.
         25    2    3    3    0    0  0.42289049273E+02  0.76181657651E+01  0.16385506026E+03  0.20886032410E+03  0.12217918838E+03 0.  0.
          5    1    4    4  502    0  0.14614797565E+02  0.21842213816E+02  0.13331885806E+02  0.29841310149E+02  0.47000000000E+01 0.  1.
         -5    1    4    4    0  502 -0.56903846838E+02 -0.29460379581E+02  0.35953290372E+03  0.36522864155E+03  0.47000000000E+01 0.  1.
          5    1    5    5  503    0  0.26468233027E+02 -0.17422512354E+02 -0.91179004566E+01  0.33306717116E+02  0.47000000000E+01 0.  1.
         -5    1    5    5    0  503  0.15820816246E+02  0.25040678119E+02  0.17297296071E+03  0.17555360699E+03  0.47000000000E+01 0.  1.
<mgrwt>
<rscale>  0 0.27688189E+03</rscale>
<asrwt>0</asrwt>
<pdfrwt beam="1">  1        3 0.51700332E-02 0.27688189E+03</pdfrwt>
<pdfrwt beam="2">  1       -3 0.87742310E-01 0.27688189E+03</pdfrwt>
<totfact> 0.66756653E+02</totfact>
</mgrwt>
</event>
<event>
 9    1  0.2094635E-002  0.2751002E+03  0.7818608E-02  0.1098396E+00
         -2   -1    0    0    0  501 -0.00000000000E+00  0.00000000000E+00  0.94354177198E+01  0.94354177198E+01  0.00000000000E+00 0. -1.
          2   -1    0    0  501    0  0.00000000000E+00 -0.00000000000E+00 -0.20052144758E+04  0.20052144758E+04  0.00000000000E+00 0. -1.
         36    2    1    2    0    0  0.35527136788E-14  0.00000000000E+00 -0.19957790581E+04  0.20146498936E+04  0.27510024498E+03 0.  0.
         25    2    3    3    0    0  0.15062645196E+02  0.43929381736E+02 -0.12412050069E+04  0.12484639768E+04  0.12615767224E+03 0.  0.
         25    2    3    3    0    0 -0.15062645196E+02 -0.43929381736E+02 -0.75457405124E+03  0.76618591681E+03  0.12450777671E+03 0.  0.
          5    1    4    4  502    0 -0.17812302980E+02 -0.19766289673E+02 -0.86733242819E+03  0.86775319955E+03  0.47000000000E+01 0.  1.
         -5    1    4    4    0  502  0.32874948176E+02  0.63695671409E+02 -0.37387257870E+03  0.38071077721E+03  0.47000000000E+01 0.  1.
          5    1    5    5  503    0 -0.21335774983E+02 -0.81982696928E+02 -0.36749160788E+03  0.37715852072E+03  0.47000000000E+01 0. -1.
         -5    1    5    5    0  503  0.62731297875E+01  0.38053315192E+02 -0.38708244335E+03  0.38902739609E+03  0.47000000000E+01 0. -1.
<mgrwt>
<rscale>  0 0.27510024E+03</rscale>
<asrwt>0</asrwt>
<pdfrwt beam="1">  1        2 0.30849467E+00 0.27510024E+03</pdfrwt>
<pdfrwt beam="2">  1       -2 0.14516021E-02 0.27510024E+03</pdfrwt>
<totfact> 0.91384636E+03</totfact>
</mgrwt>
</event>
<event>
 9    1  0.2094635E-002  0.2756435E+03  0.7818608E-02  0.1098092E+00
         -1   -1    0    0    0  501 -0.00000000000E+00  0.00000000000E+00  0.27961524413E+02  0.27961524413E+02  0.00000000000E+00 0. -1.
          1   -1    0    0  501    0  0.00000000000E+00 -0.00000000000E+00 -0.67932058481E+03  0.67932058481E+03  0.00000000000E+00 0. -1.
         36    2    1    2    0    0 -0.71054273576E-14 -0.10658141036E-13 -0.65135906040E+03  0.70728210922E+03  0.27564353152E+03 0.  0.
         25    2    3    3    0    0 -0.35030732606E+02  0.28842949623E+02 -0.41246414381E+03  0.43353877821E+03  0.12557919536E+03 0.  0.
         25    2    3    3    0    0  0.35030732606E+02 -0.28842949623E+02 -0.23889491658E+03  0.27374333102E+03  0.12572017394E+03 0.  0.
          5    1    4    4  502    0  0.39265617017E+02  0.21952232693E+02 -0.25797505550E+03  0.26191011523E+03  0.47000000000E+01 0. -1.
         -5    1    4    4    0  502 -0.74296349623E+02  0.68907169303E+01 -0.15448908831E+03  0.17162866297E+03  0.47000000000E+01 0. -1.
          5    1    5    5  503    0  0.63033367062E+02 -0.34175334132E+02 -0.23356090123E+03  0.24436436608E+03  0.47000000000E+01 0.  1.
         -5    1    5    5    0  503 -0.28002634456E+02  0.53323845089E+01 -0.53340153557E+01  0.29378964938E+02  0.47000000000E+01 0.  1.
<mgrwt>
<rscale>  0 0.27564353E+03</rscale>
<asrwt>0</asrwt>
<pdfrwt beam="1">  1        1 0.10451086E+00 0.27564353E+03</pdfrwt>
<pdfrwt beam="2">  1       -1 0.43017729E-02 0.27564353E+03</pdfrwt>
<totfact> 0.64789531E+03</totfact>
</mgrwt>
</event>
<event>
 9    1  0.2094635E-002  0.2749695E+03  0.7818608E-02  0.1098469E+00
         -1   -1    0    0    0  501 -0.00000000000E+00  0.00000000000E+00  0.19976952793E+03  0.19976952793E+03  0.00000000000E+00 0.  1.
          1   -1    0    0  501    0  0.00000000000E+00 -0.00000000000E+00 -0.94619304355E+02  0.94619304355E+02  0.00000000000E+00 0.  1.
         36    2    1    2    0    0 -0.35527136788E-14  0.00000000000E+00  0.10515022358E+03  0.29438883229E+03  0.27496948023E+03 0.  0.
         25    2    3    3    0    0  0.15039294540E+02 -0.34436261469E+02 -0.49371300387E+00  0.13054501725E+03  0.12501888374E+03 0.  0.
         25    2    3    3    0    0 -0.15039294540E+02  0.34436261469E+02  0.10564393658E+03  0.16384381504E+03  0.11946596965E+03 0.  0.
          5    1    4    4  502    0 -0.29649638267E+02  0.21224656040E+02 -0.35320285460E+02  0.50982346340E+02  0.47000000000E+01 0.  1.
         -5    1    4    4    0  502  0.44688932807E+02 -0.55660917508E+02  0.34826572457E+02  0.79562670910E+02  0.47000000000E+01 0.  1.
          5    1    5    5  503    0  0.41604206166E+02 -0.46789188433E+01  0.58696019473E+01  0.42536390059E+02  0.47000000000E+01 0. -1.
         -5    1    5    5    0  503 -0.56643500706E+02  0.39115180312E+02  0.99774334637E+02  0.12130742498E+03  0.47000000000E+01 0. -1.
<mgrwt>
<rscale>  0 0.27496948E+03</rscale>
<asrwt>0</asrwt>
<pdfrwt beam="1">  1        1 0.14556816E-01 0.27496948E+03</pdfrwt>
<pdfrwt beam="2">  1       -1 0.30733773E-01 0.27496948E+03</pdfrwt>
<totfact> 0.37802234E+03</totfact>
</mgrwt>
</event>
<event>
 9    1  0.2094635E-002  0.2770644E+03  0.7818608E-02  0.1097303E+00
         -2   -1    0    0    0  501 -0.00000000000E+00  0.00000000000E+00  0.94857423647E+03  0.94857423647E+03  0.00000000000E+00 0. -1.
          2   -1    0    0  501    0  0.00000000000E+00 -0.00000000000E+00 -0.20231597817E+02  0.20231597817E+02  0.00000000000E+00 0. -1.
         36    2    1    2    0    0  0.71054273576E-14  0.00000000000E+00  0.92834263865E+03  0.96880583428E+03  0.27706441454E+03 0.  0.
         25    2    3    3    0    0 -0.53660571968E+02  0.40229893237E+02  0.42765396085E+03  0.45011881094E+03  0.12337395362E+03 0.  0.
         25    2    3    3    0    0  0.53660571968E+02 -0.40229893237E+02  0.50068867779E+03  0.51868702334E+03  0.11768251705E+03 0.  0.
          5    1    4    4  502    0 -0.73229500785E+02  0.13438894061E+02  0.39934505969E+03  0.40625328351E+03  0.47000000000E+01 0.  1.
         -5    1    4    4    0  502  0.19568928817E+02  0.26790999177E+02  0.28308901162E+02  0.43865527433E+02  0.47000000000E+01 0.  1.
          5    1    5    5  503    0  0.49370905086E+02  0.21740319107E+02  0.10516338522E+03  0.11828590506E+03  0.47000000000E+01 0.  1.
         -5    1    5    5    0  503  0.42896668816E+01 -0.61970212345E+02  0.39552529257E+03  0.40040111829E+03  0.47000000000E+01 0.  1.
<mgrwt>
<rscale>  0 0.27706441E+03</rscale>
<asrwt>0</asrwt>
<pdfrwt beam="1">  1        2 0.31125543E-02 0.27706441E+03</pdfrwt>
<pdfrwt beam="2">  1       -2 0.14593446E+00 0.27706441E+03</pdfrwt>
<totfact> 0.10145790E+03</totfact>
</mgrwt>
</event>
<event>
 9    1  0.2094635E-002  0.2745373E+03  0.7818608E-02  0.1098710E+00
          1   -1    0    0  501    0  0.00000000000E+00  0.00000000000E+00  0.83652144396E+02  0.83652144396E+02  0.00000000000E+00 0. -1.
         -1   -1    0    0    0  501 -0.00000000000E+00 -0.00000000000E+00 -0.22525049998E+03  0.22525049998E+03  0.00000000000E+00 0. -1.
         36    2    1    2    0    0  0.00000000000E+00  0.00000000000E+00 -0.14159835559E+03  0.30890264438E+03  0.27453733699E+03 0.  0.
         25    2    3    3    0    0 -0.12494742052E+02  0.41052553600E+02 -0.29303633123E+02  0.13602119924E+03  0.12570454643E+03 0.  0.
         25    2    3    3    0    0  0.12494742052E+02 -0.41052553600E+02 -0.11229472247E+03  0.17288144514E+03  0.12424354568E+03 0.  0.
          5    1    4    4  502    0  0.44600415551E+02 -0.13870321586E+02 -0.31662593762E+02  0.56623252573E+02  0.47000000000E+01 0.  1.
         -5    1    4    4    0  502 -0.57095157603E+02  0.54922875186E+02  0.23589606385E+01  0.79397946672E+02  0.47000000000E+01 0.  1.
          5    1    5    5  503    0 -0.49136903660E+02 -0.12567851949E+00 -0.75285467365E+02  0.90024678243E+02  0.47000000000E+01 0. -1.
         -5    1    5    5    0  503  0.61631645712E+02 -0.40926875080E+02 -0.37009255101E+02  0.82856766894E+02  0.47000000000E+01 0. -1.
<mgrwt>
<rscale>  0 0.27453734E+03</rscale>
<asrwt>0</asrwt>
<pdfrwt beam="1">  1        1 0.12869561E-01 0.27453734E+03</pdfrwt>
<pdfrwt beam="2">  1       -1 0.34653923E-01 0.27453734E+03</pdfrwt>
<totfact> 0.36173302E+03</totfact>
</mgrwt>
</event>
<event>
 9    1  0.2094635E-002  0.2758104E+03  0.7818608E-02  0.1097999E+00
          1   -1    0    0  501    0  0.00000000000E+00  0.00000000000E+00  0.70292427985E+03  0.70292427985E+03  0.00000000000E+00 0. -1.
         -1   -1    0    0    0  501 -0.00000000000E+00 -0.00000000000E+00 -0.27055329084E+02  0.27055329084E+02  0.00000000000E+00 0. -1.
         36    2    1    2    0    0  0.00000000000E+00  0.71054273576E-14  0.67586895077E+03  0.72997960893E+03  0.27581042556E+03 0.  0.
         25    2    3    3    0    0 -0.14322363263E+02 -0.46194442490E+02  0.35481042697E+03  0.38186641972E+03  0.13263659684E+03 0.  0.
         25    2    3    3    0    0  0.14322363263E+02  0.46194442490E+02  0.32105852380E+03  0.34811318921E+03  0.12555938910E+03 0.  0.
          5    1    4    4  502    0  0.11208752450E+02  0.81330683873E+01 -0.61890147924E+01  0.15880076731E+02  0.47000000000E+01 0.  1.
         -5    1    4    4    0  502 -0.25531115713E+02 -0.54327510878E+02  0.36099944176E+03  0.36598634299E+03  0.47000000000E+01 0.  1.
          5    1    5    5  503    0 -0.17561482757E+02  0.23198920413E+02  0.30328791972E+03  0.30471666813E+03  0.47000000000E+01 0. -1.
         -5    1    5    5    0  503  0.31883846020E+02  0.22995522078E+02  0.17770604076E+02  0.43396521081E+02  0.47000000000E+01 0. -1.
<mgrwt>
<rscale>  0 0.27581043E+03</rscale>
<asrwt>0</asrwt>
<pdfrwt beam="1">  1        1 0.10814218E+00 0.27581043E+03</pdfrwt>
<pdfrwt beam="2">  1       -1 0.41623589E-02 0.27581043E+03</pdfrwt>
<totfact> 0.64755179E+03</totfact>
</mgrwt>
</event>
<event>
 9    1  0.2094635E-002  0.2756078E+03  0.7818608E-02  0.1098112E+00
          2   -1    0    0  501    0  0.00000000000E+00  0.00000000000E+00  0.16653224642E+04  0.16653224642E+04  0.00000000000E+00 0.  1.
         -2   -1    0    0    0  501 -0.00000000000E+00 -0.00000000000E+00 -0.11403147535E+02  0.11403147535E+02  0.00000000000E+00 0.  1.
         36    2    1    2    0    0  0.71054273576E-14  0.71054273576E-14  0.16539193167E+04  0.16767256117E+04  0.27560782103E+03 0.  0.
         25    2    3    3    0    0  0.61297960231E+01  0.57927701667E+02  0.86266505156E+03  0.87326779483E+03  0.12252533319E+03 0.  0.
         25    2    3    3    0    0 -0.61297960231E+01 -0.57927701667E+02  0.79125426510E+03  0.80345781691E+03  0.12675945128E+03 0.  0.
          5    1    4    4  502    0 -0.12331766488E+02  0.89410358472E+02  0.45134371033E+03  0.46030372530E+03  0.47000000000E+01 0. -1.
         -5    1    4    4    0  502  0.18461562511E+02 -0.31482656806E+02  0.41132134123E+03  0.41296406953E+03  0.47000000000E+01 0. -1.
          5    1    5    5  503    0 -0.38597404805E+02 -0.20362037800E+02  0.87046769820E+02  0.97486421501E+02  0.47000000000E+01 0.  1.
         -5    1    5    5    0  503  0.32467608782E+02 -0.37565663867E+02  0.70420749528E+03  0.70597139541E+03  0.47000000000E+01 0.  1.
<mgrwt>
<rscale>  0 0.27560782E+03</rscale>
<asrwt>0</asrwt>
<pdfrwt beam="1">  1        2 0.25620326E+00 0.27560782E+03</pdfrwt>
<pdfrwt beam="2">  1       -2 0.17543317E-02 0.27560782E+03</pdfrwt>
<totfact> 0.10448161E+04</totfact>
</mgrwt>
</event>
<event>
 9    1  0.2094635E-002  0.2748239E+03  0.7818608E-02  0.1098550E+00
          1   -1    0    0  501    0  0.00000000000E+00  0.00000000000E+00  0.11770159128E+04  0.11770159128E+04  0.00000000000E+00 0.  1.
         -1   -1    0    0    0  501 -0.00000000000E+00 -0.00000000000E+00 -0.16042300999E+02  0.16042300999E+02  0.00000000000E+00 0.  1.
         36    2    1    2    0    0  0.71054273576E-14 -0.71054273576E-14  0.11609736118E+04  0.11930582138E+04  0.27482389674E+03 0.  0.
         25    2    3    3    0    0  0.87452613714E+01  0.51896990216E+02  0.64216008257E+03  0.65616147783E+03  0.12413112480E+03 0.  0.
         25    2    3    3    0    0 -0.87452613714E+01 -0.51896990216E+02  0.51881352925E+03  0.53689673600E+03  0.12775308136E+03 0.  0.
          5    1    4    4  502    0 -0.57277200360E+02  0.28611588243E+02  0.27977933798E+03  0.28705028936E+03  0.47000000000E+01 0.  1.
         -5    1    4    4    0  502  0.66022461732E+02  0.23285401974E+02  0.36238074459E+03  0.36911118846E+03  0.47000000000E+01 0.  1.
          5    1    5    5  503    0  0.45806643493E+02  0.17118556298E+02  0.15666560982E+03  0.16418738337E+03  0.47000000000E+01 0. -1.
         -5    1    5    5    0  503 -0.54551904864E+02 -0.69015546515E+02  0.36214791943E+03  0.37270935262E+03  0.47000000000E+01 0. -1.
<mgrwt>
<rscale>  0 0.27482390E+03</rscale>
<asrwt>0</asrwt>
<pdfrwt beam="1">  1        1 0.18107930E+00 0.27482390E+03</pdfrwt>
<pdfrwt beam="2">  1       -1 0.24680472E-02 0.27482390E+03</pdfrwt>
<totfact> 0.59805671E+03</totfact>
</mgrwt>
</event>
<event>
 9    1  0.2094635E-002  0.2755238E+03  0.7818608E-02  0.1098159E+00
         -2   -1    0    0    0  501 -0.00000000000E+00  0.00000000000E+00  0.24672338850E+02  0.24672338850E+02  0.00000000000E+00 0.  1.
          2   -1    0    0  501    0  0.00000000000E+00 -0.00000000000E+00 -0.76921522866E+03  0.76921522866E+03  0.00000000000E+00 0.  1.
         36    2    1    2    0    0 -0.14210854715E-13  0.35527136788E-14 -0.74454288981E+03  0.79388756751E+03  0.27552378315E+03 0.  0.
         25    2    3    3    0    0 -0.56066575702E+02 -0.13095674924E+02 -0.33449048454E+03  0.36179316110E+03  0.12528148129E+03 0.  0.
         25    2    3    3    0    0  0.56066575702E+02  0.13095674924E+02 -0.41005240527E+03  0.43209440641E+03  0.12348134829E+03 0.  0.
          5    1    4    4  502    0 -0.70316991091E+02  0.19172334761E+02 -0.95802112663E+02  0.12046656153E+03  0.47000000000E+01 0.  1.
         -5    1    4    4    0  502  0.14250415388E+02 -0.32268009685E+02 -0.23868837188E+03  0.24132659957E+03  0.47000000000E+01 0.  1.
          5    1    5    5  503    0  0.47158888376E+02 -0.49825155152E+02 -0.16204742103E+03  0.17603398394E+03  0.47000000000E+01 0.  1.
         -5    1    5    5    0  503  0.89076873263E+01  0.62920830076E+02 -0.24800498424E+03  0.25606042247E+03  0.47000000000E+01 0.  1.
<mgrwt>
<rscale>  0 0.27552378E+03</rscale>
<asrwt>0</asrwt>
<pdfrwt beam="1">  1        2 0.11834079E+00 0.27552378E+03</pdfrwt>
<pdfrwt beam="2">  1       -2 0.37957449E-02 0.27552378E+03</pdfrwt>
<totfact> 0.11056022E+04</totfact>
</mgrwt>
</event>
<event>
 9    1  0.2094635E-002  0.2753644E+03  0.7818608E-02  0.1098248E+00
          2   -1    0    0  501    0  0.00000000000E+00  0.00000000000E+00  0.67424580107E+03  0.67424580107E+03  0.00000000000E+00 0. -1.
         -2   -1    0    0    0  501 -0.00000000000E+00 -0.00000000000E+00 -0.28114949534E+02  0.28114949534E+02  0.00000000000E+00 0. -1.
         36    2    1    2    0    0 -0.71054273576E-14 -0.35527136788E-14  0.64613085153E+03  0.70236075060E+03  0.27536438892E+03 0.  0.
         25    2    3    3    0    0  0.37835576573E+02 -0.88420931450E+01  0.22086437540E+03  0.25730978281E+03  0.12616472780E+03 0.  0.
         25    2    3    3    0    0 -0.37835576573E+02  0.88420931450E+01  0.42526647613E+03  0.44505096779E+03  0.12533584781E+03 0.  0.
          5    1    4    4  502    0  0.83855948498E+01  0.51570876400E+02  0.15273839366E+03  0.16149606927E+03  0.47000000000E+01 0.  1.
         -5    1    4    4    0  502  0.29449981723E+02 -0.60412969545E+02  0.68125981746E+02  0.95813713536E+02  0.47000000000E+01 0.  1.
          5    1    5    5  503    0 -0.82982796962E+02 -0.52953195854E+01  0.25379294491E+03  0.26710884277E+03  0.47000000000E+01 0.  1.
         -5    1    5    5    0  503  0.45147220389E+02  0.14137412730E+02  0.17147353122E+03  0.17794212502E+03  0.47000000000E+01 0.  1.
<mgrwt>
<rscale>  0 0.27536439E+03</rscale>
<asrwt>0</asrwt>
<pdfrwt beam="1">  1        2 0.10373011E+00 0.27536439E+03</pdfrwt>
<pdfrwt beam="2">  1       -2 0.43253773E-02 0.27536439E+03</pdfrwt>
<totfact> 0.10674417E+04</totfact>
</mgrwt>
</event>
<event>
 9    1  0.2094635E-002  0.2751604E+03  0.7818608E-02  0.1098362E+00
         -1   -1    0    0    0  501 -0.00000000000E+00  0.00000000000E+00  0.24180888792E+02  0.24180888792E+02  0.00000000000E+00 0.  1.
          1   -1    0    0  501    0  0.00000000000E+00 -0.00000000000E+00 -0.78277957549E+03  0.78277957549E+03  0.00000000000E+00 0.  1.
         36    2    1    2    0    0  0.35527136788E-14  0.35527136788E-14 -0.75859868670E+03  0.80696046429E+03  0.27516035953E+03 0.  0.
         25    2    3    3    0    0 -0.14741365155E+02 -0.20681411791E+02 -0.52387707644E+03  0.53951141036E+03  0.12641337764E+03 0.  0.
         25    2    3    3    0    0  0.14741365155E+02  0.20681411791E+02 -0.23472161026E+03  0.26744905393E+03  0.12565720625E+03 0.  0.
          5    1    4    4  502    0  0.23966310229E+01  0.52359130113E+02 -0.25184070395E+03  0.25728010516E+03  0.47000000000E+01 0. -1.
         -5    1    4    4    0  502 -0.17137996178E+02 -0.73040541904E+02 -0.27203637250E+03  0.28223130520E+03  0.47000000000E+01 0. -1.
          5    1    5    5  503    0 -0.50046868047E+02  0.28699840209E+02 -0.74274960756E+02  0.94165968506E+02  0.47000000000E+01 0.  1.
         -5    1    5    5    0  503  0.64788233202E+02 -0.80184284177E+01 -0.16044664950E+03  0.17328308542E+03  0.47000000000E+01 0.  1.
<mgrwt>
<rscale>  0 0.27516036E+03</rscale>
<asrwt>0</asrwt>
<pdfrwt beam="1">  1        1 0.12042762E+00 0.27516036E+03</pdfrwt>
<pdfrwt beam="2">  1       -1 0.37201368E-02 0.27516036E+03</pdfrwt>
<totfact> 0.65166960E+03</totfact>
</mgrwt>
</event>
<event>
 9    1  0.2094635E-002  0.2749687E+03  0.7818608E-02  0.1098469E+00
         -2   -1    0    0    0  501 -0.00000000000E+00  0.00000000000E+00  0.44934080288E+03  0.44934080288E+03  0.00000000000E+00 0. -1.
          2   -1    0    0  501    0  0.00000000000E+00 -0.00000000000E+00 -0.42065946315E+02  0.42065946315E+02  0.00000000000E+00 0. -1.
         36    2    1    2    0    0  0.00000000000E+00  0.35527136788E-14  0.40727485657E+03  0.49140674920E+03  0.27496869706E+03 0.  0.
         25    2    3    3    0    0 -0.60702460618E+02 -0.74662552584E+01  0.20014161412E+03  0.24296364217E+03  0.12342662606E+03 0.  0.
         25    2    3    3    0    0  0.60702460618E+02  0.74662552584E+01  0.20713324245E+03  0.24844310703E+03  0.12279765312E+03 0.  0.
          5    1    4    4  502    0 -0.33376013074E+01  0.52310752526E+02  0.99159950304E+02  0.11226014501E+03  0.47000000000E+01 0.  1.
         -5    1    4    4    0  502 -0.57364859310E+02 -0.59777007785E+02  0.10098166381E+03  0.13070349716E+03  0.47000000000E+01 0.  1.
          5    1    5    5  503    0  0.37251335225E+02 -0.10386576933E+02  0.21424806814E+03  0.21776103338E+03  0.47000000000E+01 0.  1.
         -5    1    5    5    0  503  0.23451125392E+02  0.17852832191E+02 -0.71148256853E+01  0.30682073658E+02  0.47000000000E+01 0.  1.
<mgrwt>
<rscale>  0 0.27496870E+03</rscale>
<asrwt>0</asrwt>
<pdfrwt beam="1">  1        2 0.64716844E-02 0.27496870E+03</pdfrwt>
<pdfrwt beam="2">  1       -2 0.69129351E-01 0.27496870E+03</pdfrwt>
<totfact> 0.21871090E+03</totfact>
</mgrwt>
</event>
<event>
 9    1  0.2094635E-002  0.2772571E+03  0.7818608E-02  0.1097197E+00
          1   -1    0    0  501    0  0.00000000000E+00  0.00000000000E+00  0.70099668367E+03  0.70099668367E+03  0.00000000000E+00 0. -1.
         -1   -1    0    0    0  501 -0.00000000000E+00 -0.00000000000E+00 -0.27415077184E+02  0.27415077184E+02  0.00000000000E+00 0. -1.
         36    2    1    2    0    0  0.00000000000E+00  0.00000000000E+00  0.67358160649E+03  0.72841176085E+03  0.27725712390E+03 0.  0.
         25    2    3    3    0    0  0.22800869829E+02  0.42023958323E+02  0.47290894760E+03  0.49207677650E+03  0.12732159484E+03 0.  0.
         25    2    3    3    0    0 -0.22800869829E+02 -0.42023958323E+02  0.20067265889E+03  0.23633498435E+03  0.11532049283E+03 0.  0.
          5    1    4    4  502    0  0.94782539992E+01 -0.44685131317E+02  0.20695342522E+03  0.21198681202E+03  0.47000000000E+01 0.  1.
         -5    1    4    4    0  502  0.13322615829E+02  0.86709089640E+02  0.26595552238E+03  0.28008996448E+03  0.47000000000E+01 0.  1.
          5    1    5    5  503    0 -0.37607791172E+02 -0.75097450377E+02  0.10926608740E+03  0.13789539828E+03  0.47000000000E+01 0. -1.
         -5    1    5    5    0  503  0.14806921343E+02  0.33073492054E+02  0.91406571485E+02  0.98439586077E+02  0.47000000000E+01 0. -1.
<mgrwt>
<rscale>  0 0.27725712E+03</rscale>
<asrwt>0</asrwt>
<pdfrwt beam="1">  1        1 0.10784563E+00 0.27725712E+03</pdfrwt>
<pdfrwt beam="2">  1       -1 0.42177047E-02 0.27725712E+03</pdfrwt>
<totfact> 0.63757865E+03</totfact>
</mgrwt>
</event>
<event>
 9    1  0.2094635E-002  0.2735746E+03  0.7818608E-02  0.1099251E+00
          1   -1    0    0  501    0  0.00000000000E+00  0.00000000000E+00  0.17005898325E+03  0.17005898325E+03  0.00000000000E+00 0.  1.
         -1   -1    0    0    0  501 -0.00000000000E+00 -0.00000000000E+00 -0.11002515615E+03  0.11002515615E+03  0.00000000000E+00 0.  1.
         36    2    1    2    0    0  0.17763568394E-14  0.00000000000E+00  0.60033827100E+02  0.28008413940E+03  0.27357460545E+03 0.  0.
         25    2    3    3    0    0 -0.70545703556E-01  0.51636098372E+02  0.30458002434E+02  0.14383418393E+03  0.13074513728E+03 0.  0.
         25    2    3    3    0    0  0.70545703556E-01 -0.51636098372E+02  0.29575824666E+02  0.13624995547E+03  0.12256846793E+03 0.  0.
          5    1    4    4  502    0  0.11906065142E+02 -0.24185694662E+02 -0.33890409866E+02  0.43558605284E+02  0.47000000000E+01 0.  1.
         -5    1    4    4    0  502 -0.11976610846E+02  0.75821793034E+02  0.64348412300E+02  0.10027557864E+03  0.47000000000E+01 0.  1.
          5    1    5    5  503    0 -0.23477038463E+02 -0.51646721685E+02 -0.35361357586E+02  0.67015451995E+02  0.47000000000E+01 0. -1.
         -5    1    5    5    0  503  0.23547584167E+02  0.10623313060E-01  0.64937182252E+02  0.69234503477E+02  0.47000000000E+01 0. -1.
<mgrwt>
<rscale>  0 0.27357461E+03</rscale>
<asrwt>0</asrwt>
<pdfrwt beam="1">  1        1 0.26162920E-01 0.27357461E+03</pdfrwt>
<pdfrwt beam="2">  1       -1 0.16926947E-01 0.27357461E+03</pdfrwt>
<totfact> 0.47416307E+03</totfact>
</mgrwt>
</event>
<event>
 9    1  0.2094635E-002  0.2747255E+03  0.7818608E-02  0.1098605E+00
         -1   -1    0    0    0  501 -0.00000000000E+00  0.00000000000E+00  0.28885827042E+03  0.28885827042E+03  0.00000000000E+00 0.  1.
          1   -1    0    0  501    0  0.00000000000E+00 -0.00000000000E+00 -0.65321030900E+02  0.65321030900E+02  0.00000000000E+00 0.  1.
         36    2    1    2    0    0 -0.35527136788E-14  0.00000000000E+00  0.22353723952E+03  0.35417930132E+03  0.27472546302E+03 0.  0.
         25    2    3    3    0    0  0.14234672854E+02  0.95105477953E+00  0.18481271023E+03  0.22324819581E+03  0.12442061186E+03 0.  0.
         25    2    3    3    0    0 -0.14234672854E+02 -0.95105477953E+00  0.38724529292E+02  0.13093110551E+03  0.12425713181E+03 0.  0.
          5    1    4    4  502    0  0.32779850627E+02  0.57049860133E+02  0.97536176826E+02  0.11774804006E+03  0.47000000000E+01 0.  1.
         -5    1    4    4    0  502 -0.18545177773E+02 -0.56098805354E+02  0.87276533402E+02  0.10550015575E+03  0.47000000000E+01 0.  1.
          5    1    5    5  503    0 -0.11683662609E+02  0.37796240264E+02  0.70205493826E+02  0.80721528191E+02  0.47000000000E+01 0. -1.
         -5    1    5    5    0  503 -0.25510102449E+01 -0.38747295043E+02 -0.31480964535E+02  0.50209577318E+02  0.47000000000E+01 0. -1.
<mgrwt>
<rscale>  0 0.27472546E+03</rscale>
<asrwt>0</asrwt>
<pdfrwt beam="1">  1        1 0.10049390E-01 0.27472546E+03</pdfrwt>
<pdfrwt beam="2">  1       -1 0.44439733E-01 0.27472546E+03</pdfrwt>
<totfact> 0.32397746E+03</totfact>
</mgrwt>
</event>
<event>
 9    1  0.2094635E-002  0.2712880E+03  0.7818608E-02  0.1100545E+00
          2   -1    0    0  501    0  0.00000000000E+00  0.00000000000E+00  0.13526267109E+04  0.13526267109E+04  0.00000000000E+00 0. -1.
         -2   -1    0    0    0  501 -0.00000000000E+00 -0.00000000000E+00 -0.13602643282E+02  0.13602643282E+02  0.00000000000E+00 0. -1.
         36    2    1    2    0    0  0.35527136788E-14  0.00000000000E+00  0.13390240677E+04  0.13662293542E+04  0.27128802880E+03 0.  0.
         25    2    3    3    0    0 -0.21476482959E+01 -0.32838058984E+02  0.44397660379E+03  0.46193603386E+03  0.12323442765E+03 0.  0.
         25    2    3    3    0    0  0.21476482959E+01  0.32838058984E+02  0.89504746387E+03  0.90429332036E+03  0.12471365664E+03 0.  0.
          5    1    4    4  502    0  0.31137794046E+02 -0.10924002600E+02  0.26625692891E+02  0.42660445061E+02  0.47000000000E+01 0.  1.
         -5    1    4    4    0  502 -0.33285442342E+02 -0.21914056384E+02  0.41735091089E+03  0.41927558880E+03  0.47000000000E+01 0.  1.
          5    1    5    5  503    0  0.15503250907E+02  0.54194371779E+02  0.85422392090E+03  0.85609460795E+03  0.47000000000E+01 0.  1.
         -5    1    5    5    0  503 -0.13355602611E+02 -0.21356312795E+02  0.40823542967E+02  0.48198712407E+02  0.47000000000E+01 0.  1.
<mgrwt>
<rscale>  0 0.27128803E+03</rscale>
<asrwt>0</asrwt>
<pdfrwt beam="1">  1        2 0.20809631E+00 0.27128803E+03</pdfrwt>
<pdfrwt beam="2">  1       -2 0.20927154E-02 0.27128803E+03</pdfrwt>
<totfact> 0.11852070E+04</totfact>
</mgrwt>
</event>
<event>
 9    1  0.2094635E-002  0.2748112E+03  0.7818608E-02  0.1098557E+00
          1   -1    0    0  501    0  0.00000000000E+00  0.00000000000E+00  0.48439934699E+03  0.48439934699E+03  0.00000000000E+00 0. -1.
         -1   -1    0    0    0  501 -0.00000000000E+00 -0.00000000000E+00 -0.38976723235E+02  0.38976723235E+02  0.00000000000E+00 0. -1.
         36    2    1    2    0    0  0.00000000000E+00  0.00000000000E+00  0.44542262375E+03  0.52337607022E+03  0.27481120270E+03 0.  0.
         25    2    3    3    0    0  0.50988603633E+01  0.43425183005E+02  0.30040050602E+03  0.32883484413E+03  0.12641260143E+03 0.  0.
         25    2    3    3    0    0 -0.50988603633E+01 -0.43425183005E+02  0.14502211773E+03  0.19454122609E+03  0.12207837287E+03 0.  0.
          5    1    4    4  502    0  0.16073705974E+02  0.81078868542E+02  0.25766859273E+03  0.27064245903E+03  0.47000000000E+01 0. -1.
         -5    1    4    4    0  502 -0.10974845611E+02 -0.37653685538E+02  0.42731913288E+02  0.58192385103E+02  0.47000000000E+01 0. -1.
          5    1    5    5  503    0 -0.11353083702E+02  0.41901584005E+02  0.42597594866E+02  0.61002297826E+02  0.47000000000E+01 0. -1.
         -5    1    5    5    0  503  0.62542233383E+01 -0.85326767010E+02  0.10242452286E+03  0.13353892826E+03  0.47000000000E+01 0. -1.
<mgrwt>
<rscale>  0 0.27481120E+03</rscale>
<asrwt>0</asrwt>
<pdfrwt beam="1">  1        1 0.74522972E-01 0.27481120E+03</pdfrwt>
<pdfrwt beam="2">  1       -1 0.59964193E-02 0.27481120E+03</pdfrwt>
<totfact> 0.62694242E+03</totfact>
</mgrwt>
</event>
<event>
 9    1  0.2094635E-002  0.2761770E+03  0.7818608E-02  0.1097795E+00
         -2   -1    0    0    0  501 -0.00000000000E+00  0.00000000000E+00  0.63797126809E+02  0.63797126809E+02  0.00000000000E+00 0.  1.
          2   -1    0    0  501    0  0.00000000000E+00 -0.00000000000E+00 -0.29889183549E+03  0.29889183549E+03  0.00000000000E+00 0.  1.
         36    2    1    2    0    0  0.35527136788E-14 -0.35527136788E-14 -0.23509470868E+03  0.36268896230E+03  0.27617704706E+03 0.  0.
         25    2    3    3    0    0 -0.29995215598E+02  0.16718555951E+02 -0.18210324273E+03  0.22209366176E+03  0.12241233805E+03 0.  0.
         25    2    3    3    0    0  0.29995215598E+02 -0.16718555951E+02 -0.52991465950E+02  0.14059530054E+03  0.12561735549E+03 0.  0.
          5    1    4    4  502    0 -0.32795101416E+02 -0.28446571781E+02 -0.10980650512E+02  0.45026556705E+02  0.47000000000E+01 0. -1.
         -5    1    4    4    0  502  0.27998858180E+01  0.45165127733E+02 -0.17112259222E+03  0.17706710505E+03  0.47000000000E+01 0. -1.
          5    1    5    5  503    0  0.32152635356E+02 -0.57557066175E+02  0.84548030010E+01  0.66634687069E+02  0.47000000000E+01 0. -1.
         -5    1    5    5    0  503 -0.21574197577E+01  0.40838510224E+02 -0.61446268951E+02  0.73960613473E+02  0.47000000000E+01 0. -1.
<mgrwt>
<rscale>  0 0.27617705E+03</rscale>
<asrwt>0</asrwt>
<pdfrwt beam="1">  1        2 0.45983359E-01 0.27617705E+03</pdfrwt>
<pdfrwt beam="2">  1       -2 0.98149427E-02 0.27617705E+03</pdfrwt>
<totfact> 0.74514705E+03</totfact>
</mgrwt>
</event>
<event>
 9    1  0.2094635E-002  0.2771722E+03  0.7818608E-02  0.1097244E+00
          2   -1    0    0  501    0  0.00000000000E+00  0.00000000000E+00  0.73635345724E+03  0.73635345724E+03  0.00000000000E+00 0.  1.
         -2   -1    0    0    0  501 -0.00000000000E+00 -0.00000000000E+00 -0.26082724470E+02  0.26082724470E+02  0.00000000000E+00 0.  1.
         36    2    1    2    0    0 -0.71054273576E-14  0.35527136788E-14  0.71027073277E+03  0.76243618171E+03  0.27717217997E+03 0.  0.
         25    2    3    3    0    0  0.48069016137E+02 -0.13655409754E+02  0.27401590656E+03  0.30472473754E+03  0.12359347919E+03 0.  0.
         25    2    3    3    0    0 -0.48069016137E+02  0.13655409754E+02  0.43625482622E+03  0.45771144417E+03  0.12916807731E+03 0.  0.
          5    1    4    4  502    0  0.62712894970E+02  0.41420847346E+02  0.17229401245E+03  0.18803167423E+03  0.47000000000E+01 0. -1.
         -5    1    4    4    0  502 -0.14643878833E+02 -0.55076257101E+02  0.10172189411E+03  0.11669306331E+03  0.47000000000E+01 0. -1.
          5    1    5    5  503    0  0.23157592391E+01  0.84148437659E+01 -0.66226852654E+01  0.11921505634E+02  0.47000000000E+01 0. -1.
         -5    1    5    5    0  503 -0.50384775376E+02  0.52405659886E+01  0.44287751148E+03  0.44578993853E+03  0.47000000000E+01 0. -1.
<mgrwt>
<rscale>  0 0.27717218E+03</rscale>
<asrwt>0</asrwt>
<pdfrwt beam="1">  1        2 0.11328513E+00 0.27717218E+03</pdfrwt>
<pdfrwt beam="2">  1       -2 0.40127274E-02 0.27717218E+03</pdfrwt>
<totfact> 0.10739811E+04</totfact>
</mgrwt>
</event>
<event>
 9    1  0.2094635E-002  0.2747490E+03  0.7818608E-02  0.1098592E+00
          2   -1    0    0  501    0  0.00000000000E+00  0.00000000000E+00  0.15886514590E+04  0.15886514590E+04  0.00000000000E+00 0. -1.
         -2   -1    0    0    0  501 -0.00000000000E+00 -0.00000000000E+00 -0.11879101021E+02  0.11879101021E+02  0.00000000000E+00 0. -1.
         36    2    1    2    0    0  0.00000000000E+00  0.00000000000E+00  0.15767723580E+04  0.16005305600E+04  0.27474898485E+03 0.  0.
         25    2    3    3    0    0  0.44154880647E+02  0.18245176745E+02  0.59865484350E+03  0.61308651485E+03  0.12330820365E+03 0.  0.
         25    2    3    3    0    0 -0.44154880647E+02 -0.18245176745E+02  0.97811751450E+03  0.98744404519E+03  0.12668595128E+03 0.  0.
          5    1    4    4  502    0  0.15061050358E+02  0.44409485823E+02  0.54215775645E+03  0.54420231583E+03  0.47000000000E+01 0.  1.
         -5    1    4    4    0  502  0.29093830289E+02 -0.26164309078E+02  0.56497087045E+02  0.68884199023E+02  0.47000000000E+01 0.  1.
          5    1    5    5  503    0  0.14568422050E+02 -0.11240069951E+02  0.78924165695E+03  0.78947011416E+03  0.47000000000E+01 0. -1.
         -5    1    5    5    0  503 -0.58723302697E+02 -0.70051067938E+01  0.18887585755E+03  0.19797393103E+03  0.47000000000E+01 0. -1.
<mgrwt>
<rscale>  0 0.27474898E+03</rscale>
<asrwt>0</asrwt>
<pdfrwt beam="1">  1        2 0.24440775E+00 0.27474898E+03</pdfrwt>
<pdfrwt beam="2">  1       -2 0.18275553E-02 0.27474898E+03</pdfrwt>
<totfact> 0.10802006E+04</totfact>
</mgrwt>
</event>
<event>
 9    1  0.2094635E-002  0.2750434E+03  0.7818608E-02  0.1098427E+00
         -1   -1    0    0    0  501 -0.00000000000E+00  0.00000000000E+00  0.20562543673E+03  0.20562543673E+03  0.00000000000E+00 0. -1.
          1   -1    0    0  501    0  0.00000000000E+00 -0.00000000000E+00 -0.91974123790E+02  0.91974123790E+02  0.00000000000E+00 0. -1.
         36    2    1    2    0    0  0.14210854715E-13  0.35527136788E-14  0.11365131294E+03  0.29759956052E+03  0.27504341019E+03 0.  0.
         25    2    3    3    0    0  0.47080082321E+02  0.24104715303E+02  0.87753850868E+02  0.16263966127E+03  0.12630657000E+03 0.  0.
         25    2    3    3    0    0 -0.47080082321E+02 -0.24104715303E+02  0.25897462068E+02  0.13495989924E+03  0.12143279792E+03 0.  0.
          5    1    4    4  502    0  0.57006247123E+02  0.51805198311E+02  0.10336816124E+03  0.12899828503E+03  0.47000000000E+01 0. -1.
         -5    1    4    4    0  502 -0.99261648021E+01 -0.27700483008E+02 -0.15614310375E+02  0.33641376236E+02  0.47000000000E+01 0. -1.
          5    1    5    5  503    0 -0.44632390343E+01 -0.50475011079E+02 -0.30529425886E+02  0.59344612991E+02  0.47000000000E+01 0. -1.
         -5    1    5    5    0  503 -0.42616843287E+02  0.26370295777E+02  0.56426887954E+02  0.75615286254E+02  0.47000000000E+01 0. -1.
<mgrwt>
<rscale>  0 0.27504341E+03</rscale>
<asrwt>0</asrwt>
<pdfrwt beam="1">  1        1 0.14149865E-01 0.27504341E+03</pdfrwt>
<pdfrwt beam="2">  1       -1 0.31634682E-01 0.27504341E+03</pdfrwt>
<totfact> 0.37348060E+03</totfact>
</mgrwt>
</event>
<event>
 9    1  0.2094635E-002  0.2751364E+03  0.7818608E-02  0.1098375E+00
          2   -1    0    0  501    0  0.00000000000E+00  0.00000000000E+00  0.17809499020E+03  0.17809499020E+03  0.00000000000E+00 0. -1.
         -2   -1    0    0    0  501 -0.00000000000E+00 -0.00000000000E+00 -0.10626357373E+03  0.10626357373E+03  0.00000000000E+00 0. -1.
         36    2    1    2    0    0  0.00000000000E+00  0.35527136788E-14  0.71831416470E+02  0.28435856394E+03  0.27513640343E+03 0.  0.
         25    2    3    3    0    0 -0.29920529442E+02  0.24185230699E+02  0.42348513352E+01  0.13383016109E+03  0.12811094639E+03 0.  0.
         25    2    3    3    0    0  0.29920529442E+02 -0.24185230699E+02  0.67596565135E+02  0.15052840284E+03  0.12887723220E+03 0.  0.
          5    1    4    4  502    0 -0.64608912291E+02  0.23921868696E+02  0.43195835164E+02  0.81452670459E+02  0.47000000000E+01 0.  1.
         -5    1    4    4    0  502  0.34688382848E+02  0.26336200264E+00 -0.38960983829E+02  0.52377490634E+02  0.47000000000E+01 0.  1.
          5    1    5    5  503    0 -0.42905271009E+02 -0.37109140553E+02  0.12759420043E+02  0.58333895745E+02  0.47000000000E+01 0. -1.
         -5    1    5    5    0  503  0.72825800451E+02  0.12923909854E+02  0.54837145092E+02  0.92194507098E+02  0.47000000000E+01 0. -1.
<mgrwt>
<rscale>  0 0.27513640E+03</rscale>
<asrwt>0</asrwt>
<pdfrwt beam="1">  1        2 0.27399229E-01 0.27513640E+03</pdfrwt>
<pdfrwt beam="2">  1       -2 0.16348242E-01 0.27513640E+03</pdfrwt>
<totfact> 0.57083867E+03</totfact>
</mgrwt>
</event>
<event>
 9    1  0.2094635E-002  0.2752152E+03  0.7818608E-02  0.1098331E+00
         -2   -1    0    0    0  501 -0.00000000000E+00  0.00000000000E+00  0.79394834502E+01  0.79394834502E+01  0.00000000000E+00 0.  1.
          2   -1    0    0  501    0  0.00000000000E+00 -0.00000000000E+00 -0.23850235020E+04  0.23850235020E+04  0.00000000000E+00 0.  1.
         36    2    1    2    0    0  0.35527136788E-14  0.00000000000E+00 -0.23770840186E+04  0.23929629855E+04  0.27521522213E+03 0.  0.
         25    2    3    3    0    0  0.23082994378E+02 -0.10842859458E+02 -0.76109734568E+03  0.77181155385E+03  0.12559264638E+03 0.  0.
         25    2    3    3    0    0 -0.23082994378E+02  0.10842859458E+02 -0.16159866729E+04  0.16211514316E+04  0.12676215941E+03 0.  0.
          5    1    4    4  502    0  0.35197989272E+02 -0.17136331960E+02 -0.68301816865E+02  0.78865585073E+02  0.47000000000E+01 0.  1.
         -5    1    4    4    0  502 -0.12114994894E+02  0.62934725024E+01 -0.69279552882E+03  0.69294596878E+03  0.47000000000E+01 0.  1.
          5    1    5    5  503    0 -0.48494528781E+02 -0.29918763262E+02 -0.38532114285E+03  0.38953988864E+03  0.47000000000E+01 0.  1.
         -5    1    5    5    0  503  0.25411534403E+02  0.40761622720E+02 -0.12306655300E+04  0.12316115430E+04  0.47000000000E+01 0.  1.
<mgrwt>
<rscale>  0 0.27521522E+03</rscale>
<asrwt>0</asrwt>
<pdfrwt beam="1">  1        2 0.36692674E+00 0.27521522E+03</pdfrwt>
<pdfrwt beam="2">  1       -2 0.12214588E-02 0.27521522E+03</pdfrwt>
<totfact> 0.73807758E+03</totfact>
</mgrwt>
</event>
<event>
 9    1  0.2094635E-002  0.2751000E+03  0.7818608E-02  0.1098396E+00
         -1   -1    0    0    0  501 -0.00000000000E+00  0.00000000000E+00  0.19490073877E+03  0.19490073877E+03  0.00000000000E+00 0. -1.
          1   -1    0    0  501    0  0.00000000000E+00 -0.00000000000E+00 -0.97075068430E+02  0.97075068430E+02  0.00000000000E+00 0. -1.
         36    2    1    2    0    0  0.71054273576E-14  0.71054273576E-14  0.97825670340E+02  0.29197580720E+03  0.27510000039E+03 0.  0.
         25    2    3    3    0    0 -0.12956418976E+02 -0.58828491081E+02  0.46952236007E+02  0.14606113293E+03  0.12450173465E+03 0.  0.
         25    2    3    3    0    0  0.12956418976E+02  0.58828491081E+02  0.50873434333E+02  0.14591467427E+03  0.12277754555E+03 0.  0.
          5    1    4    4  502    0 -0.66301968931E+02 -0.27190851205E+02  0.70440316520E+01  0.72159558309E+02  0.47000000000E+01 0.  1.
         -5    1    4    4    0  502  0.53345549955E+02 -0.31637639877E+02  0.39908204355E+02  0.73901574624E+02  0.47000000000E+01 0.  1.
          5    1    5    5  503    0 -0.42729086567E+02  0.67678214434E+02  0.30292356237E+02  0.85707831580E+02  0.47000000000E+01 0.  1.
         -5    1    5    5    0  503  0.55685505543E+02 -0.88497233529E+01  0.20581078097E+02  0.60206842689E+02  0.47000000000E+01 0.  1.
<mgrwt>
<rscale>  0 0.27510000E+03</rscale>
<asrwt>0</asrwt>
<pdfrwt beam="1">  1        1 0.14934626E-01 0.27510000E+03</pdfrwt>
<pdfrwt beam="2">  1       -1 0.29984729E-01 0.27510000E+03</pdfrwt>
<totfact> 0.38120984E+03</totfact>
</mgrwt>
</event>
<event>
 9    1  0.2094635E-002  0.2756152E+03  0.7818608E-02  0.1098108E+00
         -1   -1    0    0    0  501 -0.00000000000E+00  0.00000000000E+00  0.72982943223E+01  0.72982943223E+01  0.00000000000E+00 0. -1.
          1   -1    0    0  501    0  0.00000000000E+00 -0.00000000000E+00 -0.26021057534E+04  0.26021057534E+04  0.00000000000E+00 0. -1.
         36    2    1    2    0    0  0.35527136788E-14  0.00000000000E+00 -0.25948074591E+04  0.26094040477E+04  0.27561519295E+03 0.  0.
         25    2    3    3    0    0 -0.10866885636E+02  0.17076453839E+02 -0.77569905001E+03  0.78603311129E+03  0.12541667103E+03 0.  0.
         25    2    3    3    0    0  0.10866885636E+02 -0.17076453839E+02 -0.18191084091E+04  0.18233709365E+04  0.12294906840E+03 0.  0.
          5    1    4    4  502    0 -0.55612615439E+02 -0.18533653093E+02 -0.23290357826E+03  0.24021329285E+03  0.47000000000E+01 0.  1.
         -5    1    4    4    0  502  0.44745729803E+02  0.35610106931E+02 -0.54279547175E+03  0.54581981845E+03  0.47000000000E+01 0.  1.
          5    1    5    5  503    0  0.14494572902E+02 -0.62520552994E+02 -0.60805253388E+03  0.61144818762E+03  0.47000000000E+01 0.  1.
         -5    1    5    5    0  503 -0.36276872664E+01  0.45444099155E+02 -0.12110558752E+04  0.12119227488E+04  0.47000000000E+01 0.  1.
<mgrwt>
<rscale>  0 0.27561519E+03</rscale>
<asrwt>0</asrwt>
<pdfrwt beam="1">  1        1 0.40032364E+00 0.27561519E+03</pdfrwt>
<pdfrwt beam="2">  1       -1 0.11228154E-02 0.27561519E+03</pdfrwt>
<totfact> 0.21550872E+03</totfact>
</mgrwt>
</event>
<event>
 9    1  0.2094635E-002  0.2776136E+03  0.7818608E-02  0.1097000E+00
          1   -1    0    0  501    0  0.00000000000E+00  0.00000000000E+00  0.10339093044E+04  0.10339093044E+04  0.00000000000E+00 0.  1.
         -1   -1    0    0    0  501 -0.00000000000E+00 -0.00000000000E+00 -0.18635417395E+02  0.18635417395E+02  0.00000000000E+00 0.  1.
         36    2    1    2    0    0  0.00000000000E+00  0.35527136788E-14  0.10152738870E+04  0.10525447218E+04  0.27761362672E+03 0.  0.
         25    2    3    3    0    0 -0.49862697672E+01 -0.29520433897E+02  0.91245787751E+03  0.92054267171E+03  0.11799624276E+03 0.  0.
         25    2    3    3    0    0  0.49862697672E+01  0.29520433897E+02  0.10281600946E+03  0.13200205005E+03  0.77182190382E+02 0.  0.
          5    1    4    4  502    0 -0.15591028542E+00 -0.66501991283E+02  0.78029464728E+03  0.78313751393E+03  0.47000000000E+01 0. -1.
         -5    1    4    4    0  502 -0.48303594818E+01  0.36981557386E+02  0.13216323023E+03  0.13740515778E+03  0.47000000000E+01 0. -1.
          5    1    5    5  503    0  0.84605742202E+01  0.10567107825E+02  0.10998320636E+03  0.11091276196E+03  0.47000000000E+01 0. -1.
         -5    1    5    5    0  503 -0.34743044529E+01  0.18953326072E+02 -0.71671969028E+01  0.21089288088E+02  0.47000000000E+01 0. -1.
<mgrwt>
<rscale>  0 0.27761363E+03</rscale>
<asrwt>0</asrwt>
<pdfrwt beam="1">  1        1 0.15906293E+00 0.27761363E+03</pdfrwt>
<pdfrwt beam="2">  1       -1 0.28669881E-02 0.27761363E+03</pdfrwt>
<totfact> 0.60833195E+03</totfact>
</mgrwt>
</event>
<event>
 9    1  0.2094635E-002  0.2751486E+03  0.7818608E-02  0.1098369E+00
         -1   -1    0    0    0  501 -0.00000000000E+00  0.00000000000E+00  0.14158252395E+02  0.14158252395E+02  0.00000000000E+00 0. -1.
          1   -1    0    0  501    0  0.00000000000E+00 -0.00000000000E+00 -0.13367959016E+04  0.13367959016E+04  0.00000000000E+00 0. -1.
         36    2    1    2    0    0  0.00000000000E+00  0.71054273576E-14 -0.13226376492E+04  0.13509541540E+04  0.27514864183E+03 0.  0.
         25    2    3    3    0    0  0.60845536369E+02  0.27791351791E+02 -0.46904638113E+03  0.48886992468E+03  0.12047720561E+03 0.  0.
         25    2    3    3    0    0 -0.60845536369E+02 -0.27791351791E+02 -0.85359126804E+03  0.86208422929E+03  0.10048197339E+03 0.  0.
          5    1    4    4  502    0  0.54122763314E+02  0.72870347128E+02 -0.28163189692E+03  0.29593576391E+03  0.47000000000E+01 0. -1.
         -5    1    4    4    0  502  0.67227730548E+01 -0.45078995337E+02 -0.18741448421E+03  0.19293416077E+03  0.47000000000E+01 0. -1.
          5    1    5    5  503    0 -0.54637115887E+02  0.28185643876E+02 -0.35676897283E+03  0.36205777843E+03  0.47000000000E+01 0.  1.
         -5    1    5    5    0  503 -0.62084204816E+01 -0.55976995667E+02 -0.49682229522E+03  0.50002645085E+03  0.47000000000E+01 0.  1.
<mgrwt>
<rscale>  0 0.27514864E+03</rscale>
<asrwt>0</asrwt>
<pdfrwt beam="1">  1        1 0.20566088E+00 0.27514864E+03</pdfrwt>
<pdfrwt beam="2">  1       -1 0.21781929E-02 0.27514864E+03</pdfrwt>
<totfact> 0.55717785E+03</totfact>
</mgrwt>
</event>
<event>
 9    1  0.2094635E-002  0.2767128E+03  0.7818608E-02  0.1097498E+00
         -1   -1    0    0    0  501 -0.00000000000E+00  0.00000000000E+00  0.87430633417E+02  0.87430633417E+02  0.00000000000E+00 0.  1.
          1   -1    0    0  501    0  0.00000000000E+00 -0.00000000000E+00 -0.21894484622E+03  0.21894484622E+03  0.00000000000E+00 0.  1.
         36    2    1    2    0    0 -0.71054273576E-14  0.00000000000E+00 -0.13151421280E+03  0.30637547964E+03  0.27671275062E+03 0.  0.
         25    2    3    3    0    0 -0.26513962136E+02  0.98041623687E+01 -0.55611546041E+01  0.12675760511E+03  0.12344007544E+03 0.  0.
         25    2    3    3    0    0  0.26513962136E+02 -0.98041623687E+01 -0.12595305820E+03  0.17961787452E+03  0.12489714244E+03 0.  0.
          5    1    4    4  502    0 -0.45878308977E+02 -0.29700984442E+02  0.36355785035E+02  0.65808820206E+02  0.47000000000E+01 0. -1.
         -5    1    4    4    0  502  0.19364346841E+02  0.39505146810E+02 -0.41916939639E+02  0.60948784908E+02  0.47000000000E+01 0.  1.
          5    1    5    5  503    0  0.26056807896E+02 -0.52350122178E+02 -0.12351777176E+03  0.13674144386E+03  0.47000000000E+01 0.  1.
         -5    1    5    5    0  503  0.45715424060E+00  0.42545959809E+02 -0.24352864417E+01  0.42876430660E+02  0.47000000000E+01 0.  1.
<mgrwt>
<rscale>  0 0.27671275E+03</rscale>
<asrwt>0</asrwt>
<pdfrwt beam="1">  1        1 0.33683822E-01 0.27671275E+03</pdfrwt>
<pdfrwt beam="2">  1       -1 0.13450867E-01 0.27671275E+03</pdfrwt>
<totfact> 0.49659711E+03</totfact>
</mgrwt>
</event>
<event>
 9    1  0.2094635E-002  0.2738939E+03  0.7818608E-02  0.1099071E+00
         -1   -1    0    0    0  501 -0.00000000000E+00  0.00000000000E+00  0.12756680667E+02  0.12756680667E+02  0.00000000000E+00 0.  1.
          1   -1    0    0  501    0  0.00000000000E+00 -0.00000000000E+00 -0.14701682916E+04  0.14701682916E+04  0.00000000000E+00 0.  1.
         36    2    1    2    0    0  0.00000000000E+00  0.00000000000E+00 -0.14574116109E+04  0.14829249722E+04  0.27389390225E+03 0.  0.
         25    2    3    3    0    0  0.95633859611E+01 -0.15447749310E+02 -0.50367427625E+03  0.52041978581E+03  0.12968764627E+03 0.  0.
         25    2    3    3    0    0 -0.95633859611E+01  0.15447749310E+02 -0.95373733466E+03  0.96250518643E+03  0.12834032524E+03 0.  0.
          5    1    4    4  502    0  0.31636459210E+02 -0.63864255745E+02 -0.36266499956E+03  0.36963157416E+03  0.47000000000E+01 0.  1.
         -5    1    4    4    0  502 -0.22073073249E+02  0.48416506435E+02 -0.14100927669E+03  0.15078821165E+03  0.47000000000E+01 0.  1.
          5    1    5    5  503    0 -0.37380704142E+02  0.24053479127E+01 -0.89715195598E+03  0.89794589194E+03  0.47000000000E+01 0. -1.
         -5    1    5    5    0  503  0.27817318181E+02  0.13042401398E+02 -0.56585378678E+02  0.64559294491E+02  0.47000000000E+01 0. -1.
<mgrwt>
<rscale>  0 0.27389390E+03</rscale>
<asrwt>0</asrwt>
<pdfrwt beam="1">  1        1 0.22617974E+00 0.27389390E+03</pdfrwt>
<pdfrwt beam="2">  1       -1 0.19625662E-02 0.27389390E+03</pdfrwt>
<totfact> 0.52801233E+03</totfact>
</mgrwt>
</event>
<event>
 9    1  0.2094635E-002  0.2750935E+03  0.7818608E-02  0.1098399E+00
         -2   -1    0    0    0  501 -0.00000000000E+00  0.00000000000E+00  0.31157368031E+02  0.31157368031E+02  0.00000000000E+00 0.  1.
          2   -1    0    0  501    0  0.00000000000E+00 -0.00000000000E+00 -0.60721147633E+03  0.60721147633E+03  0.00000000000E+00 0.  1.
         36    2    1    2    0    0  0.71054273576E-14  0.00000000000E+00 -0.57605410830E+03  0.63836884436E+03  0.27509352185E+03 0.  0.
         25    2    3    3    0    0  0.38164433776E+02 -0.49329421704E+02 -0.35975217587E+03  0.38573502820E+03  0.12441851988E+03 0.  0.
         25    2    3    3    0    0 -0.38164433776E+02  0.49329421704E+02 -0.21630193243E+03  0.25263381616E+03  0.11466212645E+03 0.  0.
          5    1    4    4  502    0  0.39661776046E+02  0.10487607120E+02 -0.29328998103E+03  0.29618262838E+03  0.47000000000E+01 0. -1.
         -5    1    4    4    0  502 -0.14973422700E+01 -0.59817028825E+02 -0.66462194843E+02  0.89552399826E+02  0.47000000000E+01 0. -1.
          5    1    5    5  503    0 -0.39097748394E+02  0.10295430902E+02 -0.20863263167E+03  0.21256597758E+03  0.47000000000E+01 0.  1.
         -5    1    5    5    0  503  0.93331461726E+00  0.39033990802E+02 -0.76693007594E+01  0.40067838578E+02  0.47000000000E+01 0.  1.
<mgrwt>
<rscale>  0 0.27509352E+03</rscale>
<asrwt>0</asrwt>
<pdfrwt beam="1">  1        2 0.93417143E-01 0.27509352E+03</pdfrwt>
<pdfrwt beam="2">  1       -2 0.47934416E-02 0.27509352E+03</pdfrwt>
<totfact> 0.10340809E+04</totfact>
</mgrwt>
</event>
<event>
 9    1  0.2094635E-002  0.2751988E+03  0.7818608E-02  0.1098341E+00
          2   -1    0    0  501    0  0.00000000000E+00  0.00000000000E+00  0.62520009899E+03  0.62520009899E+03  0.00000000000E+00 0.  1.
         -2   -1    0    0    0  501 -0.00000000000E+00 -0.00000000000E+00 -0.30284049246E+02  0.30284049246E+02  0.00000000000E+00 0.  1.
         36    2    1    2    0    0  0.35527136788E-14  0.00000000000E+00  0.59491604975E+03  0.65548414824E+03  0.27519876879E+03 0.  0.
         25    2    3    3    0    0  0.27129586946E+02 -0.62111903887E+01  0.18417883768E+03  0.22503906942E+03  0.12627804696E+03 0.  0.
         25    2    3    3    0    0 -0.27129586946E+02  0.62111903887E+01  0.41073721207E+03  0.43044507882E+03  0.12571123707E+03 0.  0.
          5    1    4    4  502    0  0.14709973321E+02  0.18821496540E+02 -0.11777139386E+02  0.27044834242E+02  0.47000000000E+01 0.  1.
         -5    1    4    4    0  502  0.12419613626E+02 -0.25032686928E+02  0.19595597706E+03  0.19799423518E+03  0.47000000000E+01 0.  1.
          5    1    5    5  503    0 -0.44721543549E+02  0.38173199046E+02  0.90011538775E+02  0.10761680489E+03  0.47000000000E+01 0.  1.
         -5    1    5    5    0  503  0.17591956602E+02 -0.31962008657E+02  0.32072567329E+03  0.32282827392E+03  0.47000000000E+01 0.  1.
<mgrwt>
<rscale>  0 0.27519877E+03</rscale>
<asrwt>0</asrwt>
<pdfrwt beam="1">  1        2 0.96184621E-01 0.27519877E+03</pdfrwt>
<pdfrwt beam="2">  1       -2 0.46590850E-02 0.27519877E+03</pdfrwt>
<totfact> 0.10433876E+04</totfact>
</mgrwt>
</event>
<event>
 9    1  0.2094635E-002  0.2747509E+03  0.7818608E-02  0.1098591E+00
          1   -1    0    0  501    0  0.00000000000E+00  0.00000000000E+00  0.36457518604E+03  0.36457518604E+03  0.00000000000E+00 0. -1.
         -1   -1    0    0    0  501 -0.00000000000E+00 -0.00000000000E+00 -0.51764396074E+02  0.51764396074E+02  0.00000000000E+00 0. -1.
         36    2    1    2    0    0  0.14210854715E-13 -0.17763568394E-14  0.31281078996E+03  0.41633958211E+03  0.27475090048E+03 0.  0.
         25    2    3    3    0    0 -0.68522895974E+02  0.10758081016E+02  0.14963843069E+03  0.20510983738E+03  0.12193138182E+03 0.  0.
         25    2    3    3    0    0  0.68522895974E+02 -0.10758081016E+02  0.16317235927E+03  0.21122974473E+03  0.11481142211E+03 0.  0.
          5    1    4    4  502    0 -0.83584582417E+02 -0.97462057752E+01  0.15701602643E+03  0.17820632285E+03  0.47000000000E+01 0. -1.
         -5    1    4    4    0  502  0.15061686443E+02  0.20504286792E+02 -0.73775957460E+01  0.26903514535E+02  0.47000000000E+01 0. -1.
          5    1    5    5  503    0  0.59372439246E+02  0.31399927490E+02  0.34941927199E+02  0.75855588224E+02  0.47000000000E+01 0. -1.
         -5    1    5    5    0  503  0.91504567278E+01 -0.42158008507E+02  0.12823043208E+03  0.13537415651E+03  0.47000000000E+01 0. -1.
<mgrwt>
<rscale>  0 0.27475090E+03</rscale>
<asrwt>0</asrwt>
<pdfrwt beam="1">  1        1 0.56088488E-01 0.27475090E+03</pdfrwt>
<pdfrwt beam="2">  1       -1 0.79637535E-02 0.27475090E+03</pdfrwt>
<totfact> 0.58850161E+03</totfact>
</mgrwt>
</event>
<event>
 9    1  0.2094635E-002  0.2751413E+03  0.7818608E-02  0.1098373E+00
         -1   -1    0    0    0  501 -0.00000000000E+00  0.00000000000E+00  0.18252291671E+03  0.18252291671E+03  0.00000000000E+00 0. -1.
          1   -1    0    0  501    0  0.00000000000E+00 -0.00000000000E+00 -0.10368936546E+03  0.10368936546E+03  0.00000000000E+00 0. -1.
         36    2    1    2    0    0  0.35527136788E-14  0.00000000000E+00  0.78833551250E+02  0.28621228217E+03  0.27514131217E+03 0.  0.
         25    2    3    3    0    0  0.30562294305E+00 -0.61690574276E+02  0.27668746838E+02  0.14202471858E+03  0.12489852191E+03 0.  0.
         25    2    3    3    0    0 -0.30562294305E+00  0.61690574276E+02  0.51164804412E+02  0.14418756359E+03  0.11985990123E+03 0.  0.
          5    1    4    4  502    0 -0.35315831910E+02  0.14445948356E+02 -0.21982206142E+02  0.44285446755E+02  0.47000000000E+01 0. -1.
         -5    1    4    4    0  502  0.35621454853E+02 -0.76136522632E+02  0.49650952980E+02  0.97739271822E+02  0.47000000000E+01 0. -1.
          5    1    5    5  503    0 -0.28236640248E+02  0.68558276903E+02  0.75717724495E+02  0.10607925804E+03  0.47000000000E+01 0. -1.
         -5    1    5    5    0  503  0.27931017305E+02 -0.68677026267E+01 -0.24552920083E+02  0.38108305546E+02  0.47000000000E+01 0. -1.
<mgrwt>
<rscale>  0 0.27514131E+03</rscale>
<asrwt>0</asrwt>
<pdfrwt beam="1">  1        1 0.15952210E-01 0.27514131E+03</pdfrwt>
<pdfrwt beam="2">  1       -1 0.28080449E-01 0.27514131E+03</pdfrwt>
<totfact> 0.39078802E+03</totfact>
</mgrwt>
</event>
<event>
 9    1  0.2094635E-002  0.2764273E+03  0.7818608E-02  0.1097656E+00
          1   -1    0    0  501    0  0.00000000000E+00  0.00000000000E+00  0.17552215161E+02  0.17552215161E+02  0.00000000000E+00 0.  1.
         -1   -1    0    0    0  501 -0.00000000000E+00 -0.00000000000E+00 -0.10883537155E+04  0.10883537155E+04  0.00000000000E+00 0.  1.
         36    2    1    2    0    0  0.71054273576E-14 -0.71054273576E-14 -0.10708015003E+04  0.11059059306E+04  0.27642734008E+03 0.  0.
         25    2    3    3    0    0  0.42438067139E+02 -0.36362978210E+02 -0.45037627231E+03  0.47084827879E+03  0.12544345042E+03 0.  0.
         25    2    3    3    0    0 -0.42438067139E+02  0.36362978210E+02 -0.62042522801E+03  0.63505765186E+03  0.12348077542E+03 0.  0.
          5    1    4    4  502    0  0.49097112288E+02 -0.74253369320E+02 -0.38189160395E+03  0.39215733636E+03  0.47000000000E+01 0. -1.
         -5    1    4    4    0  502 -0.66590451488E+01  0.37890391110E+02 -0.68484668361E+02  0.78690942435E+02  0.47000000000E+01 0. -1.
          5    1    5    5  503    0 -0.19908133076E+02  0.32664016876E+02 -0.60687006947E+03  0.60809262697E+03  0.47000000000E+01 0.  1.
         -5    1    5    5    0  503 -0.22529934063E+02  0.36989613338E+01 -0.13555158546E+02  0.26965024884E+02  0.47000000000E+01 0.  1.
<mgrwt>
<rscale>  0 0.27642734E+03</rscale>
<asrwt>0</asrwt>
<pdfrwt beam="1">  1        1 0.27003407E-02 0.27642734E+03</pdfrwt>
<pdfrwt beam="2">  1       -1 0.16743904E+00 0.27642734E+03</pdfrwt>
<totfact> 0.11102525E+03</totfact>
</mgrwt>
</event>
<event>
 9    1  0.2094635E-002  0.2756907E+03  0.7818608E-02  0.1098066E+00
         -2   -1    0    0    0  501 -0.00000000000E+00  0.00000000000E+00  0.70682924205E+01  0.70682924205E+01  0.00000000000E+00 0. -1.
          2   -1    0    0  501    0  0.00000000000E+00 -0.00000000000E+00 -0.26882509510E+04  0.26882509510E+04  0.00000000000E+00 0. -1.
         36    2    1    2    0    0  0.00000000000E+00  0.00000000000E+00 -0.26811826586E+04  0.26953192435E+04  0.27569072398E+03 0.  0.
         25    2    3    3    0    0 -0.53788426049E+02  0.12327912636E+02 -0.11507562454E+04  0.11587383774E+04  0.12405449897E+03 0.  0.
         25    2    3    3    0    0  0.53788426049E+02 -0.12327912636E+02 -0.15304264132E+04  0.15365808661E+04  0.12581963071E+03 0.  0.
          5    1    4    4  502    0  0.20151485775E+02  0.10159738428E+02 -0.79541576545E+03  0.79574972987E+03  0.47000000000E+01 0.  1.
         -5    1    4    4    0  502 -0.73939911824E+02  0.21681742088E+01 -0.35534047992E+03  0.36298864750E+03  0.47000000000E+01 0.  1.
          5    1    5    5  503    0 -0.11684981534E+02 -0.46527401000E+02 -0.29262133964E+03  0.29656479267E+03  0.47000000000E+01 0. -1.
         -5    1    5    5    0  503  0.65473407584E+02  0.34199488364E+02 -0.12378050736E+04  0.12400160734E+04  0.47000000000E+01 0. -1.
<mgrwt>
<rscale>  0 0.27569072E+03</rscale>
<asrwt>0</asrwt>
<pdfrwt beam="1">  1        2 0.41357684E+00 0.27569072E+03</pdfrwt>
<pdfrwt beam="2">  1       -2 0.10874302E-02 0.27569072E+03</pdfrwt>
<totfact> 0.59501833E+03</totfact>
</mgrwt>
</event>
<event>
 9    1  0.2094635E-002  0.2743582E+03  0.7818608E-02  0.1098811E+00
          1   -1    0    0  501    0  0.00000000000E+00  0.00000000000E+00  0.33872156606E+02  0.33872156606E+02  0.00000000000E+00 0.  1.
         -1   -1    0    0    0  501 -0.00000000000E+00 -0.00000000000E+00 -0.55556264183E+03  0.55556264183E+03  0.00000000000E+00 0.  1.
         36    2    1    2    0    0  0.00000000000E+00 -0.71054273576E-14 -0.52169048523E+03  0.58943479844E+03  0.27435819513E+03 0.  0.
         25    2    3    3    0    0  0.42088076112E+02  0.28623499596E+02 -0.24955312280E+03  0.28421956153E+03  0.12614787820E+03 0.  0.
         25    2    3    3    0    0 -0.42088076112E+02 -0.28623499596E+02 -0.27213736242E+03  0.30521523691E+03  0.12847912646E+03 0.  0.
          5    1    4    4  502    0 -0.39872089722E+02  0.31988118391E+02 -0.70440319579E+02  0.87160494948E+02  0.47000000000E+01 0. -1.
         -5    1    4    4    0  502  0.81960165835E+02 -0.33646187951E+01 -0.17911280322E+03  0.19705906658E+03  0.47000000000E+01 0. -1.
          5    1    5    5  503    0 -0.65159776741E+02 -0.15927786835E+02 -0.27014821096E+03  0.27839115788E+03  0.47000000000E+01 0.  1.
         -5    1    5    5    0  503  0.23071700629E+02 -0.12695712761E+02 -0.19891514611E+01  0.26824079032E+02  0.47000000000E+01 0.  1.
<mgrwt>
<rscale>  0 0.27435820E+03</rscale>
<asrwt>0</asrwt>
<pdfrwt beam="1">  1        1 0.52111009E-02 0.27435820E+03</pdfrwt>
<pdfrwt beam="2">  1       -1 0.85471178E-01 0.27435820E+03</pdfrwt>
<totfact> 0.22263931E+03</totfact>
</mgrwt>
</event>
<event>
 9    1  0.2094635E-002  0.2745065E+03  0.7818608E-02  0.1098728E+00
          2   -1    0    0  501    0  0.00000000000E+00  0.00000000000E+00  0.18355205927E+03  0.18355205927E+03  0.00000000000E+00 0.  1.
         -2   -1    0    0    0  501 -0.00000000000E+00 -0.00000000000E+00 -0.10263274983E+03  0.10263274983E+03  0.00000000000E+00 0.  1.
         36    2    1    2    0    0  0.00000000000E+00  0.00000000000E+00  0.80919309437E+02  0.28618480910E+03  0.27450648503E+03 0.  0.
         25    2    3    3    0    0 -0.46058105245E+02  0.66949314505E+01  0.82306176221E+02  0.15813201952E+03  0.12674879798E+03 0.  0.
         25    2    3    3    0    0  0.46058105245E+02 -0.66949314505E+01 -0.13868667838E+01  0.12805278958E+03  0.11928714245E+03 0.  0.
          5    1    4    4  502    0 -0.17442742813E+01  0.62639197840E+02  0.46317885465E+02  0.78065024901E+02  0.47000000000E+01 0.  1.
         -5    1    4    4    0  502 -0.44313830963E+02 -0.55944266390E+02  0.35988290756E+02  0.80066994624E+02  0.47000000000E+01 0.  1.
          5    1    5    5  503    0 -0.11459296244E+02  0.39541865376E+02 -0.27385730655E+02  0.49668328252E+02  0.47000000000E+01 0. -1.
         -5    1    5    5    0  503  0.57517401489E+02 -0.46236796827E+02  0.25998863871E+02  0.78384461326E+02  0.47000000000E+01 0. -1.
<mgrwt>
<rscale>  0 0.27450649E+03</rscale>
<asrwt>0</asrwt>
<pdfrwt beam="1">  1        2 0.28238778E-01 0.27450649E+03</pdfrwt>
<pdfrwt beam="2">  1       -2 0.15789654E-01 0.27450649E+03</pdfrwt>
<totfact> 0.58496715E+03</totfact>
</mgrwt>
</event>
<event>
 9    1  0.2094635E-002  0.2749390E+03  0.7818608E-02  0.1098486E+00
          2   -1    0    0  501    0  0.00000000000E+00  0.00000000000E+00  0.19466451540E+04  0.19466451540E+04  0.00000000000E+00 0. -1.
         -2   -1    0    0    0  501 -0.00000000000E+00 -0.00000000000E+00 -0.97079128315E+01  0.97079128315E+01  0.00000000000E+00 0. -1.
         36    2    1    2    0    0 -0.35527136788E-14  0.00000000000E+00  0.19369372412E+04  0.19563530669E+04  0.27493898574E+03 0.  0.
         25    2    3    3    0    0  0.10048342204E+02  0.70247258504E+02  0.78679411915E+03  0.79754756093E+03  0.10955126430E+03 0.  0.
         25    2    3    3    0    0 -0.10048342204E+02 -0.70247258504E+02  0.11501431221E+04  0.11588055059E+04  0.12233295905E+03 0.  0.
          5    1    4    4  502    0  0.29882929827E+02  0.93701012361E+02  0.55298966057E+03  0.56168721181E+03  0.47000000000E+01 0. -1.
         -5    1    4    4    0  502 -0.19834587623E+02 -0.23453753857E+02  0.23380445858E+03  0.23586034912E+03  0.47000000000E+01 0. -1.
          5    1    5    5  503    0  0.46414664858E+02 -0.31233650124E+01  0.58628275751E+03  0.58814423255E+03  0.47000000000E+01 0.  1.
         -5    1    5    5    0  503 -0.56463007062E+02 -0.67123893491E+02  0.56386036454E+03  0.57066127339E+03  0.47000000000E+01 0.  1.
<mgrwt>
<rscale>  0 0.27493899E+03</rscale>
<asrwt>0</asrwt>
<pdfrwt beam="1">  1        2 0.29948356E+00 0.27493899E+03</pdfrwt>
<pdfrwt beam="2">  1       -2 0.14935266E-02 0.27493899E+03</pdfrwt>
<totfact> 0.94098428E+03</totfact>
</mgrwt>
</event>
<event>
 9    1  0.2094635E-002  0.2720173E+03  0.7818608E-02  0.1100131E+00
         -1   -1    0    0    0  501 -0.00000000000E+00  0.00000000000E+00  0.77843189963E+02  0.77843189963E+02  0.00000000000E+00 0. -1.
          1   -1    0    0  501    0  0.00000000000E+00 -0.00000000000E+00 -0.23763611197E+03  0.23763611197E+03  0.00000000000E+00 0. -1.
         36    2    1    2    0    0  0.00000000000E+00  0.00000000000E+00 -0.15979292201E+03  0.31547930194E+03  0.27201730097E+03 0.  0.
         25    2    3    3    0    0  0.33927937268E+02 -0.52138138105E+02 -0.98068214562E+02  0.16266913553E+03  0.11390514726E+03 0.  0.
         25    2    3    3    0    0 -0.33927937268E+02  0.52138138105E+02 -0.61724707450E+02  0.15281016641E+03  0.12518593003E+03 0.  0.
          5    1    4    4  502    0  0.31681075053E+02  0.31187856822E+01  0.15908621127E+02  0.35896957626E+02  0.47000000000E+01 0. -1.
         -5    1    4    4    0  502  0.22468622154E+01 -0.55256923787E+02 -0.11397683569E+03  0.12677217790E+03  0.47000000000E+01 0. -1.
          5    1    5    5  503    0 -0.40095116885E+02  0.88289139381E+02 -0.63144331945E+02  0.11580970248E+03  0.47000000000E+01 0.  1.
         -5    1    5    5    0  503  0.61671796169E+01 -0.36151001276E+02  0.14196244956E+01  0.37000463935E+02  0.47000000000E+01 0.  1.
<mgrwt>
<rscale>  0 0.27201730E+03</rscale>
<asrwt>0</asrwt>
<pdfrwt beam="1">  1        1 0.36559402E-01 0.27201730E+03</pdfrwt>
<pdfrwt beam="2">  1       -1 0.11975875E-01 0.27201730E+03</pdfrwt>
<totfact> 0.53720926E+03</totfact>
</mgrwt>
</event>
<event>
 9    1  0.2094635E-002  0.2760469E+03  0.7818608E-02  0.1097868E+00
          3   -1    0    0  501    0  0.00000000000E+00  0.00000000000E+00  0.12050053122E+03  0.12050053122E+03  0.00000000000E+00 0.  1.
         -3   -1    0    0    0  501 -0.00000000000E+00 -0.00000000000E+00 -0.15809455899E+03  0.15809455899E+03  0.00000000000E+00 0.  1.
         36    2    1    2    0    0  0.71054273576E-14  0.14210854715E-13 -0.37594027767E+02  0.27859509021E+03  0.27604694051E+03 0.  0.
         25    2    3    3    0    0  0.37978613538E+02  0.38274981597E+02  0.19507638525E+02  0.13360364570E+03  0.12067326498E+03 0.  0.
         25    2    3    3    0    0 -0.37978613538E+02 -0.38274981597E+02 -0.57101666292E+02  0.14499144451E+03  0.12187932305E+03 0.  0.
          5    1    4    4  502    0 -0.50395934893E+01 -0.40664618142E+02 -0.10725136458E+01  0.41258319848E+02  0.47000000000E+01 0.  1.
         -5    1    4    4    0  502  0.43018207028E+02  0.78939599739E+02  0.20580152170E+02  0.92345325849E+02  0.47000000000E+01 0.  1.
          5    1    5    5  503    0  0.35846476718E+02 -0.21211525507E+02  0.10639188787E+02  0.43245589896E+02  0.47000000000E+01 0.  1.
         -5    1    5    5    0  503 -0.73825090256E+02 -0.17063456091E+02 -0.67740855079E+02  0.10174585462E+03  0.47000000000E+01 0.  1.
<mgrwt>
<rscale>  0 0.27604694E+03</rscale>
<asrwt>0</asrwt>
<pdfrwt beam="1">  1        3 0.18538543E-01 0.27604694E+03</pdfrwt>
<pdfrwt beam="2">  1       -3 0.24322240E-01 0.27604694E+03</pdfrwt>
<totfact> 0.10313034E+03</totfact>
</mgrwt>
</event>
<event>
 9    1  0.2094635E-002  0.2735704E+03  0.7818608E-02  0.1099253E+00
         -1   -1    0    0    0  501 -0.00000000000E+00  0.00000000000E+00  0.51100626787E+02  0.51100626787E+02  0.00000000000E+00 0.  1.
          1   -1    0    0  501    0  0.00000000000E+00 -0.00000000000E+00 -0.36614413935E+03  0.36614413935E+03  0.00000000000E+00 0.  1.
         36    2    1    2    0    0 -0.35527136788E-14  0.00000000000E+00 -0.31504351256E+03  0.41724476614E+03  0.27357042980E+03 0.  0.
         25    2    3    3    0    0 -0.21217373206E+02 -0.45361370853E+01 -0.24618381421E+03  0.27627892381E+03  0.12350230726E+03 0.  0.
         25    2    3    3    0    0  0.21217373206E+02  0.45361370853E+01 -0.68859698357E+02  0.14096584233E+03  0.12107418049E+03 0.  0.
          5    1    4    4  502    0  0.39028728119E+02 -0.25932010884E+02 -0.45030666801E+02  0.65157975411E+02  0.47000000000E+01 0.  1.
         -5    1    4    4    0  502 -0.60246101325E+02  0.21395873799E+02 -0.20115314741E+03  0.21112094840E+03  0.47000000000E+01 0.  1.
          5    1    5    5  503    0  0.83668026215E+01 -0.41944732554E+02 -0.80370757437E+02  0.91164206936E+02  0.47000000000E+01 0. -1.
         -5    1    5    5    0  503  0.12850570585E+02  0.46480869640E+02  0.11511059080E+02  0.49801635395E+02  0.47000000000E+01 0. -1.
<mgrwt>
<rscale>  0 0.27357043E+03</rscale>
<asrwt>0</asrwt>
<pdfrwt beam="1">  1        1 0.56329869E-01 0.27357043E+03</pdfrwt>
<pdfrwt beam="2">  1       -1 0.78616347E-02 0.27357043E+03</pdfrwt>
<totfact> 0.59685668E+03</totfact>
</mgrwt>
</event>
<event>
 9    1  0.2094635E-002  0.2731696E+03  0.7818608E-02  0.1099479E+00
          2   -1    0    0  501    0  0.00000000000E+00  0.00000000000E+00  0.89018034391E+03  0.89018034391E+03  0.00000000000E+00 0. -1.
         -2   -1    0    0    0  501 -0.00000000000E+00 -0.00000000000E+00 -0.20956892345E+02  0.20956892345E+02  0.00000000000E+00 0. -1.
         36    2    1    2    0    0  0.00000000000E+00 -0.35527136788E-14  0.86922345157E+03  0.91113723626E+03  0.27316964425E+03 0.  0.
         25    2    3    3    0    0 -0.16219547735E+02 -0.30630803316E+02  0.27263623710E+03  0.30033816901E+03  0.12112463890E+03 0.  0.
         25    2    3    3    0    0  0.16219547735E+02  0.30630803316E+02  0.59658721447E+03  0.61079906724E+03  0.12632448786E+03 0.  0.
          5    1    4    4  502    0 -0.52834214048E+02 -0.57492962914E+02  0.19739511780E+03  0.21232950217E+03  0.47000000000E+01 0.  1.
         -5    1    4    4    0  502  0.36614666313E+02  0.26862159598E+02  0.75241119294E+02  0.88008666847E+02  0.47000000000E+01 0.  1.
          5    1    5    5  503    0  0.47578196401E+01  0.75252594537E+02  0.46945294294E+03  0.47549316028E+03  0.47000000000E+01 0. -1.
         -5    1    5    5    0  503  0.11461728095E+02 -0.44621791220E+02  0.12713427153E+03  0.13530590696E+03  0.47000000000E+01 0. -1.
<mgrwt>
<rscale>  0 0.27316964E+03</rscale>
<asrwt>0</asrwt>
<pdfrwt beam="1">  1        2 0.13695079E+00 0.27316964E+03</pdfrwt>
<pdfrwt beam="2">  1       -2 0.32241380E-02 0.27316964E+03</pdfrwt>
<totfact> 0.11685183E+04</totfact>
</mgrwt>
</event>
<event>
 9    1  0.2094635E-002  0.2758113E+03  0.7818608E-02  0.1097999E+00
          2   -1    0    0  501    0  0.00000000000E+00  0.00000000000E+00  0.15267111624E+03  0.15267111624E+03  0.00000000000E+00 0.  1.
         -2   -1    0    0    0  501 -0.00000000000E+00 -0.00000000000E+00 -0.12456816988E+03  0.12456816988E+03  0.00000000000E+00 0.  1.
         36    2    1    2    0    0  0.14210854715E-13 -0.62172489379E-14  0.28102946357E+02  0.27723928612E+03  0.27581125100E+03 0.  0.
         25    2    3    3    0    0 -0.55712206048E+02  0.64197947382E+01 -0.63669081142E+01  0.13596689088E+03  0.12369880448E+03 0.  0.
         25    2    3    3    0    0  0.55712206048E+02 -0.64197947382E+01  0.34469854471E+02  0.14127239524E+03  0.12499862048E+03 0.  0.
          5    1    4    4  502    0 -0.53198442521E+02 -0.45893318659E+02 -0.32143177245E+02  0.77405069780E+02  0.47000000000E+01 0. -1.
         -5    1    4    4    0  502 -0.25137635272E+01  0.52313113398E+02  0.25776269131E+02  0.58561821101E+02  0.47000000000E+01 0. -1.
          5    1    5    5  503    0  0.94257572116E+02 -0.15995457569E+00  0.38095119196E+02  0.10177349160E+03  0.47000000000E+01 0. -1.
         -5    1    5    5    0  503 -0.38545366068E+02 -0.62598401625E+01 -0.36252647252E+01  0.39498903637E+02  0.47000000000E+01 0. -1.
<mgrwt>
<rscale>  0 0.27581125E+03</rscale>
<asrwt>0</asrwt>
<pdfrwt beam="1">  1        2 0.23487864E-01 0.27581125E+03</pdfrwt>
<pdfrwt beam="2">  1       -2 0.19164334E-01 0.27581125E+03</pdfrwt>
<totfact> 0.51876186E+03</totfact>
</mgrwt>
</event>
<event>
 9    1  0.2094635E-002  0.2743761E+03  0.7818608E-02  0.1098801E+00
         -2   -1    0    0    0  501 -0.00000000000E+00  0.00000000000E+00  0.15214730782E+02  0.15214730782E+02  0.00000000000E+00 0. -1.
          2   -1    0    0  501    0  0.00000000000E+00 -0.00000000000E+00 -0.12369958266E+04  0.12369958266E+04  0.00000000000E+00 0. -1.
         36    2    1    2    0    0 -0.71054273576E-14 -0.71054273576E-14 -0.12217810958E+04  0.12522105574E+04  0.27437608118E+03 0.  0.
         25    2    3    3    0    0 -0.18715738624E+02  0.37380699386E+02 -0.75207730533E+03  0.76404371365E+03  0.12804267886E+03 0.  0.
         25    2    3    3    0    0  0.18715738624E+02 -0.37380699386E+02 -0.46970379049E+03  0.48816684374E+03  0.12624429083E+03 0.  0.
          5    1    4    4  502    0 -0.65893294920E+02  0.44337943890E+01 -0.24855430902E+03  0.25722153756E+03  0.47000000000E+01 0. -1.
         -5    1    4    4    0  502  0.47177556296E+02  0.32946904997E+02 -0.50352299631E+03  0.50682217609E+03  0.47000000000E+01 0. -1.
          5    1    5    5  503    0  0.23973439421E+02 -0.31108184552E+02 -0.33424404844E+02  0.51785381943E+02  0.47000000000E+01 0. -1.
         -5    1    5    5    0  503 -0.52577007973E+01 -0.62725148336E+01 -0.43627938564E+03  0.43638146179E+03  0.47000000000E+01 0. -1.
<mgrwt>
<rscale>  0 0.27437608E+03</rscale>
<asrwt>0</asrwt>
<pdfrwt beam="1">  1        2 0.19030706E+00 0.27437608E+03</pdfrwt>
<pdfrwt beam="2">  1       -2 0.23407277E-02 0.27437608E+03</pdfrwt>
<totfact> 0.11649449E+04</totfact>
</mgrwt>
</event>
<event>
 9    1  0.2094635E-002  0.2749143E+03  0.7818608E-02  0.1098500E+00
         -2   -1    0    0    0  501 -0.00000000000E+00  0.00000000000E+00  0.17929328427E+02  0.17929328427E+02  0.00000000000E+00 0. -1.
          2   -1    0    0  501    0  0.00000000000E+00 -0.00000000000E+00 -0.10538298605E+04  0.10538298605E+04  0.00000000000E+00 0. -1.
         36    2    1    2    0    0  0.00000000000E+00 -0.14210854715E-13 -0.10359005321E+04  0.10717591889E+04  0.27491425336E+03 0.  0.
         25    2    3    3    0    0  0.15194499067E+02 -0.61573926680E+02 -0.51457473471E+03  0.53216741120E+03  0.11996989078E+03 0.  0.
         25    2    3    3    0    0 -0.15194499067E+02  0.61573926680E+02 -0.52132579739E+03  0.53959177775E+03  0.12392125865E+03 0.  0.
          5    1    4    4  502    0 -0.45737584397E+02 -0.29199113848E+00 -0.23678701696E+03  0.24120985321E+03  0.47000000000E+01 0. -1.
         -5    1    4    4    0  502  0.60932083464E+02 -0.61281935542E+02 -0.27778771774E+03  0.29095755798E+03  0.47000000000E+01 0. -1.
          5    1    5    5  503    0  0.17961657422E+02  0.73150773813E+02 -0.47656761001E+03  0.48250640799E+03  0.47000000000E+01 0.  1.
         -5    1    5    5    0  503 -0.33156156489E+02 -0.11576847133E+02 -0.44758187383E+02  0.57085369759E+02  0.47000000000E+01 0.  1.
<mgrwt>
<rscale>  0 0.27491425E+03</rscale>
<asrwt>0</asrwt>
<pdfrwt beam="1">  1        2 0.16212767E+00 0.27491425E+03</pdfrwt>
<pdfrwt beam="2">  1       -2 0.27583583E-02 0.27491425E+03</pdfrwt>
<totfact> 0.11662052E+04</totfact>
</mgrwt>
</event>
<event>
 9    1  0.2094635E-002  0.2746746E+03  0.7818608E-02  0.1098634E+00
         -1   -1    0    0    0  501 -0.00000000000E+00  0.00000000000E+00  0.15092409590E+03  0.15092409590E+03  0.00000000000E+00 0. -1.
          1   -1    0    0  501    0  0.00000000000E+00 -0.00000000000E+00 -0.12497362715E+03  0.12497362715E+03  0.00000000000E+00 0. -1.
         36    2    1    2    0    0 -0.35527136788E-14  0.71054273576E-14  0.25950468753E+02  0.27589772305E+03  0.27467458338E+03 0.  0.
         25    2    3    3    0    0  0.28480456386E+02 -0.50501406686E+02  0.31240782263E+02  0.14229935902E+03  0.12614116151E+03 0.  0.
         25    2    3    3    0    0 -0.28480456386E+02  0.50501406686E+02 -0.52903135098E+01  0.13359836403E+03  0.12024561107E+03 0.  0.
          5    1    4    4  502    0 -0.71052187449E+01  0.40080170902E+02  0.14325926459E+02  0.43407676762E+02  0.47000000000E+01 0.  1.
         -5    1    4    4    0  502  0.35585675130E+02 -0.90581577588E+02  0.16914855804E+02  0.98891682258E+02  0.47000000000E+01 0.  1.
          5    1    5    5  503    0 -0.19835163107E+02  0.36537626111E+02 -0.61762053629E+02  0.74599417462E+02  0.47000000000E+01 0.  1.
         -5    1    5    5    0  503 -0.86452932788E+01  0.13963780575E+02  0.56471740119E+02  0.58998946566E+02  0.47000000000E+01 0.  1.
<mgrwt>
<rscale>  0 0.27467458E+03</rscale>
<asrwt>0</asrwt>
<pdfrwt beam="1">  1        1 0.19226712E-01 0.27467458E+03</pdfrwt>
<pdfrwt beam="2">  1       -1 0.23219092E-01 0.27467458E+03</pdfrwt>
<totfact> 0.42095080E+03</totfact>
</mgrwt>
</event>
<event>
 9    1  0.2094635E-002  0.2757217E+03  0.7818608E-02  0.1098049E+00
         -3   -1    0    0    0  501 -0.00000000000E+00  0.00000000000E+00  0.13711932332E+02  0.13711932332E+02  0.00000000000E+00 0.  1.
          3   -1    0    0  501    0  0.00000000000E+00 -0.00000000000E+00 -0.13860641377E+04  0.13860641377E+04  0.00000000000E+00 0.  1.
         36    2    1    2    0    0  0.71054273576E-14  0.00000000000E+00 -0.13723522053E+04  0.13997760700E+04  0.27572172684E+03 0.  0.
         25    2    3    3    0    0  0.42858372423E+02  0.43855749597E+02 -0.67474268588E+03  0.68880055326E+03  0.12413034746E+03 0.  0.
         25    2    3    3    0    0 -0.42858372423E+02 -0.43855749597E+02 -0.69760951946E+03  0.71097551674E+03  0.12274761468E+03 0.  0.
          5    1    4    4  502    0  0.65214466340E+02  0.16892297564E+01 -0.56832243374E+03  0.57207364806E+03  0.47000000000E+01 0. -1.
         -5    1    4    4    0  502 -0.22356093917E+02  0.42166519841E+02 -0.10642025214E+03  0.11672690519E+03  0.47000000000E+01 0. -1.
          5    1    5    5  503    0 -0.42505191455E+02 -0.69922998606E+02 -0.65944161432E+03  0.66451580096E+03  0.47000000000E+01 0. -1.
         -5    1    5    5    0  503 -0.35318096751E+00  0.26067249009E+02 -0.38167905141E+02  0.46459715782E+02  0.47000000000E+01 0. -1.
<mgrwt>
<rscale>  0 0.27572173E+03</rscale>
<asrwt>0</asrwt>
<pdfrwt beam="1">  1        3 0.21324074E+00 0.27572173E+03</pdfrwt>
<pdfrwt beam="2">  1       -3 0.21095271E-02 0.27572173E+03</pdfrwt>
<totfact> 0.29743913E+02</totfact>
</mgrwt>
</event>
<event>
 9    1  0.2094635E-002  0.2747082E+03  0.7818608E-02  0.1098615E+00
          1   -1    0    0  501    0  0.00000000000E+00  0.00000000000E+00  0.14426887824E+04  0.14426887824E+04  0.00000000000E+00 0.  1.
         -1   -1    0    0    0  501 -0.00000000000E+00 -0.00000000000E+00 -0.13077069953E+02  0.13077069953E+02  0.00000000000E+00 0.  1.
         36    2    1    2    0    0  0.00000000000E+00  0.35527136788E-14  0.14296117125E+04  0.14557658524E+04  0.27470815152E+03 0.  0.
         25    2    3    3    0    0  0.23291806616E+02 -0.25114991814E+01  0.53534064198E+03  0.55281739325E+03  0.13589941665E+03 0.  0.
         25    2    3    3    0    0 -0.23291806616E+02  0.25114991814E+01  0.89427107050E+03  0.90294845913E+03  0.12266359048E+03 0.  0.
          5    1    4    4  502    0  0.36037944093E+02  0.51527186736E+02  0.42018164195E+03  0.42488643967E+03  0.47000000000E+01 0.  1.
         -5    1    4    4    0  502 -0.12746137477E+02 -0.54038685918E+02  0.11515900003E+03  0.12793095358E+03  0.47000000000E+01 0.  1.
          5    1    5    5  503    0  0.27016385219E+02 -0.30923900999E+02  0.64863269037E+03  0.64994817466E+03  0.47000000000E+01 0. -1.
         -5    1    5    5    0  503 -0.50308191835E+02  0.33435400181E+02  0.24563838013E+03  0.25300028447E+03  0.47000000000E+01 0. -1.
<mgrwt>
<rscale>  0 0.27470815E+03</rscale>
<asrwt>0</asrwt>
<pdfrwt beam="1">  1        1 0.22195199E+00 0.27470815E+03</pdfrwt>
<pdfrwt beam="2">  1       -1 0.20118581E-02 0.27470815E+03</pdfrwt>
<totfact> 0.53115351E+03</totfact>
</mgrwt>
</event>
<event>
 9    1  0.2094635E-002  0.2745071E+03  0.7818608E-02  0.1098727E+00
          2   -1    0    0  501    0  0.00000000000E+00  0.00000000000E+00  0.46550456459E+03  0.46550456459E+03  0.00000000000E+00 0. -1.
         -2   -1    0    0    0  501 -0.00000000000E+00 -0.00000000000E+00 -0.40469079310E+02  0.40469079310E+02  0.00000000000E+00 0. -1.
         36    2    1    2    0    0 -0.71054273576E-14  0.00000000000E+00  0.42503548528E+03  0.50597364390E+03  0.27450713028E+03 0.  0.
         25    2    3    3    0    0 -0.47074736985E+02  0.32079762479E+02  0.19061740931E+03  0.23437682544E+03  0.12390463087E+03 0.  0.
         25    2    3    3    0    0  0.47074736985E+02 -0.32079762479E+02  0.23441807597E+03  0.27159681845E+03  0.12477121234E+03 0.  0.
          5    1    4    4  502    0 -0.52082245657E+01 -0.45957183621E+02  0.51327915144E+02  0.69251954504E+02  0.47000000000E+01 0. -1.
         -5    1    4    4    0  502 -0.41866512419E+02  0.78036946101E+02  0.13928949416E+03  0.16512487094E+03  0.47000000000E+01 0. -1.
          5    1    5    5  503    0  0.87054092026E+02 -0.38851595163E+02  0.14938481948E+03  0.17727316683E+03  0.47000000000E+01 0.  1.
         -5    1    5    5    0  503 -0.39979355041E+02  0.67718326841E+01  0.85033256484E+02  0.94323651624E+02  0.47000000000E+01 0.  1.
<mgrwt>
<rscale>  0 0.27450713E+03</rscale>
<asrwt>0</asrwt>
<pdfrwt beam="1">  1        2 0.71616083E-01 0.27450713E+03</pdfrwt>
<pdfrwt beam="2">  1       -2 0.62260125E-02 0.27450713E+03</pdfrwt>
<totfact> 0.93730151E+03</totfact>
</mgrwt>
</event>
<event>
 9    1  0.2094635E-002  0.2738657E+03  0.7818608E-02  0.1099087E+00
         -2   -1    0    0    0  501 -0.00000000000E+00  0.00000000000E+00  0.19882325056E+03  0.19882325056E+03  0.00000000000E+00 0. -1.
          2   -1    0    0  501    0  0.00000000000E+00 -0.00000000000E+00 -0.94307921999E+02  0.94307921999E+02  0.00000000000E+00 0. -1.
         36    2    1    2    0    0  0.00000000000E+00  0.00000000000E+00  0.10451532856E+03  0.29313117256E+03  0.27386571604E+03 0.  0.
         25    2    3    3    0    0 -0.62884606961E+02  0.27362137647E+02  0.75928200823E+02  0.16090552342E+03  0.12418669582E+03 0.  0.
         25    2    3    3    0    0  0.62884606961E+02 -0.27362137647E+02  0.28587127737E+02  0.13222564914E+03  0.10937658821E+03 0.  0.
          5    1    4    4  502    0 -0.99558357905E+02  0.92664369888E+01  0.60397177368E+02  0.11690869308E+03  0.47000000000E+01 0. -1.
         -5    1    4    4    0  502  0.36673750944E+02  0.18095700658E+02  0.15531023456E+02  0.43996830343E+02  0.47000000000E+01 0. -1.
          5    1    5    5  503    0  0.50212797667E+01 -0.24349959068E+02  0.60736261458E+02  0.65796027334E+02  0.47000000000E+01 0. -1.
         -5    1    5    5    0  503  0.57863327194E+02 -0.30121785795E+01 -0.32149133721E+02  0.66429621802E+02  0.47000000000E+01 0. -1.
<mgrwt>
<rscale>  0 0.27386572E+03</rscale>
<asrwt>0</asrwt>
<pdfrwt beam="1">  1        2 0.14508911E-01 0.27386572E+03</pdfrwt>
<pdfrwt beam="2">  1       -2 0.30588192E-01 0.27386572E+03</pdfrwt>
<totfact> 0.39796812E+03</totfact>
</mgrwt>
</event>
<event>
 9    1  0.2094635E-002  0.2726912E+03  0.7818608E-02  0.1099749E+00
         -2   -1    0    0    0  501 -0.00000000000E+00  0.00000000000E+00  0.81695944288E+03  0.81695944288E+03  0.00000000000E+00 0.  1.
          2   -1    0    0  501    0  0.00000000000E+00 -0.00000000000E+00 -0.22755257292E+02  0.22755257292E+02  0.00000000000E+00 0.  1.
         36    2    1    2    0    0 -0.35527136788E-14 -0.71054273576E-14  0.79420418558E+03  0.83971470017E+03  0.27269119766E+03 0.  0.
         25    2    3    3    0    0  0.27566384694E+02  0.45063386710E+02  0.43047120626E+03  0.45136975055E+03  0.12505429984E+03 0.  0.
         25    2    3    3    0    0 -0.27566384694E+02 -0.45063386710E+02  0.36373297932E+03  0.38834494961E+03  0.12537745115E+03 0.  0.
          5    1    4    4  502    0 -0.13282184364E+02  0.73577337022E+02  0.33826916762E+03  0.34646523737E+03  0.47000000000E+01 0.  1.
         -5    1    4    4    0  502  0.40848569058E+02 -0.28513950312E+02  0.92202038638E+02  0.10490451318E+03  0.47000000000E+01 0.  1.
          5    1    5    5  503    0 -0.38289807126E+02 -0.37338205066E+02  0.36935254652E+03  0.37323403450E+03  0.47000000000E+01 0.  1.
         -5    1    5    5    0  503  0.10723422433E+02 -0.77251816440E+01 -0.56195671980E+01  0.15110915114E+02  0.47000000000E+01 0.  1.
<mgrwt>
<rscale>  0 0.27269120E+03</rscale>
<asrwt>0</asrwt>
<pdfrwt beam="1">  1        2 0.35008094E-02 0.27269120E+03</pdfrwt>
<pdfrwt beam="2">  1       -2 0.12568605E+00 0.27269120E+03</pdfrwt>
<totfact> 0.12578043E+03</totfact>
</mgrwt>
</event>
<event>
 9    1  0.2094635E-002  0.2742065E+03  0.7818608E-02  0.1098896E+00
          1   -1    0    0  501    0  0.00000000000E+00  0.00000000000E+00  0.14962895860E+03  0.14962895860E+03  0.00000000000E+00 0. -1.
         -1   -1    0    0    0  501 -0.00000000000E+00 -0.00000000000E+00 -0.12562610798E+03  0.12562610798E+03  0.00000000000E+00 0. -1.
         36    2    1    2    0    0  0.00000000000E+00  0.35527136788E-14  0.24002850622E+02  0.27525506657E+03  0.27420651859E+03 0.  0.
         25    2    3    3    0    0 -0.42902051377E+02 -0.29078197944E+02  0.33789898061E+02  0.13881198632E+03  0.12426134849E+03 0.  0.
         25    2    3    3    0    0  0.42902051377E+02  0.29078197944E+02 -0.97870474383E+01  0.13644308025E+03  0.12583640269E+03 0.  0.
          5    1    4    4  502    0  0.16874211090E+02 -0.61575801730E+02  0.32945209354E+01  0.64103527413E+02  0.47000000000E+01 0. -1.
         -5    1    4    4    0  502 -0.59776262467E+02  0.32497603786E+02  0.30495377125E+02  0.74708458908E+02  0.47000000000E+01 0. -1.
          5    1    5    5  503    0 -0.12389338616E+02  0.25368804702E+02  0.48225236120E+02  0.56078831676E+02  0.47000000000E+01 0.  1.
         -5    1    5    5    0  503  0.55291389992E+02  0.37093932414E+01 -0.58012283558E+02  0.80364248576E+02  0.47000000000E+01 0.  1.
<mgrwt>
<rscale>  0 0.27420652E+03</rscale>
<asrwt>0</asrwt>
<pdfrwt beam="1">  1        1 0.23019840E-01 0.27420652E+03</pdfrwt>
<pdfrwt beam="2">  1       -1 0.19327094E-01 0.27420652E+03</pdfrwt>
<totfact> 0.45082675E+03</totfact>
</mgrwt>
</event>
<event>
 9    1  0.2094635E-002  0.2745324E+03  0.7818608E-02  0.1098713E+00
          2   -1    0    0  501    0  0.00000000000E+00  0.00000000000E+00  0.14963616183E+03  0.14963616183E+03  0.00000000000E+00 0.  1.
         -2   -1    0    0    0  501 -0.00000000000E+00 -0.00000000000E+00 -0.12591886331E+03  0.12591886331E+03  0.00000000000E+00 0.  1.
         36    2    1    2    0    0  0.00000000000E+00  0.00000000000E+00  0.23717298518E+02  0.27555502514E+03  0.27453244185E+03 0.  0.
         25    2    3    3    0    0 -0.38272605237E+02 -0.40776281792E+00  0.55202794496E+02  0.14219520518E+03  0.12532824611E+03 0.  0.
         25    2    3    3    0    0  0.38272605237E+02  0.40776281792E+00 -0.31485495978E+02  0.13335981996E+03  0.12380850755E+03 0.  0.
          5    1    4    4  502    0 -0.35561439176E+02  0.55602856101E+02  0.54809093085E+02  0.85921011677E+02  0.47000000000E+01 0.  1.
         -5    1    4    4    0  502 -0.27111660609E+01 -0.56010618919E+02  0.39370141119E+00  0.56274193498E+02  0.47000000000E+01 0.  1.
          5    1    5    5  503    0  0.36711094657E+02  0.37105669043E+02 -0.64943912850E+02  0.83452603089E+02  0.47000000000E+01 0.  1.
         -5    1    5    5    0  503  0.15615105796E+01 -0.36697906225E+02  0.33458416872E+02  0.49907216875E+02  0.47000000000E+01 0.  1.
<mgrwt>
<rscale>  0 0.27453244E+03</rscale>
<asrwt>0</asrwt>
<pdfrwt beam="1">  1        2 0.23020948E-01 0.27453244E+03</pdfrwt>
<pdfrwt beam="2">  1       -2 0.19372133E-01 0.27453244E+03</pdfrwt>
<totfact> 0.52088590E+03</totfact>
</mgrwt>
</event>
<event>
 9    1  0.2094635E-002  0.2798693E+03  0.7818608E-02  0.1095760E+00
         -4   -1    0    0    0  501 -0.00000000000E+00  0.00000000000E+00  0.74917662494E+02  0.74917662494E+02  0.00000000000E+00 0.  1.
          4   -1    0    0  501    0  0.00000000000E+00 -0.00000000000E+00 -0.26137640674E+03  0.26137640674E+03  0.00000000000E+00 0.  1.
         36    2    1    2    0    0  0.14210854715E-13  0.00000000000E+00 -0.18645874425E+03  0.33629406923E+03  0.27986932253E+03 0.  0.
         25    2    3    3    0    0 -0.61387765948E+02  0.81256869177E+00 -0.98915233714E+02  0.17114793656E+03  0.12545228038E+03 0.  0.
         25    2    3    3    0    0  0.61387765948E+02 -0.81256869177E+00 -0.87543510534E+02  0.16514613267E+03  0.12585809797E+03 0.  0.
          5    1    4    4  502    0  0.38010747919E+02 -0.74156686188E+01 -0.36313770351E+02  0.53297176431E+02  0.47000000000E+01 0. -1.
         -5    1    4    4    0  502 -0.99398513867E+02  0.82282373106E+01 -0.62601463363E+02  0.11785076013E+03  0.47000000000E+01 0. -1.
          5    1    5    5  503    0  0.70152764828E+02  0.76729269554E+01 -0.11484446293E+03  0.13487633182E+03  0.47000000000E+01 0.  1.
         -5    1    5    5    0  503 -0.87649988796E+01 -0.84854956472E+01  0.27300952395E+02  0.30269800849E+02  0.47000000000E+01 0.  1.
<mgrwt>
<rscale>  0 0.27986932E+03</rscale>
<asrwt>0</asrwt>
<pdfrwt beam="1">  1        4 0.40211755E-01 0.27986932E+03</pdfrwt>
<pdfrwt beam="2">  1       -4 0.11525794E-01 0.27986932E+03</pdfrwt>
<totfact> 0.67365934E+02</totfact>
</mgrwt>
</event>
<event>
 9    1  0.2094635E-002  0.2752178E+03  0.7818608E-02  0.1098330E+00
         -2   -1    0    0    0  501 -0.00000000000E+00  0.00000000000E+00  0.91877981466E+01  0.91877981466E+01  0.00000000000E+00 0.  1.
          2   -1    0    0  501    0  0.00000000000E+00 -0.00000000000E+00 -0.20610171444E+04  0.20610171444E+04  0.00000000000E+00 0.  1.
         36    2    1    2    0    0  0.00000000000E+00 -0.71054273576E-14 -0.20518293463E+04  0.20702049425E+04  0.27521780102E+03 0.  0.
         25    2    3    3    0    0  0.40717009685E+02  0.32054446845E+02 -0.10227505770E+04  0.10323531208E+04  0.13057128584E+03 0.  0.
         25    2    3    3    0    0 -0.40717009685E+02 -0.32054446845E+02 -0.10290787692E+04  0.10378518218E+04  0.12428969498E+03 0.  0.
          5    1    4    4  502    0 -0.92118866163E+01  0.57037386456E+02 -0.81871999977E+03  0.82076954764E+03  0.47000000000E+01 0. -1.
         -5    1    4    4    0  502  0.49928896302E+02 -0.24982939611E+02 -0.20403057728E+03  0.21158357314E+03  0.47000000000E+01 0. -1.
          5    1    5    5  503    0 -0.20505709858E+02  0.46225854828E+02 -0.50581024669E+03  0.50835362637E+03  0.47000000000E+01 0.  1.
         -5    1    5    5    0  503 -0.20211299828E+02 -0.78280301673E+02 -0.52326852252E+03  0.52949819540E+03  0.47000000000E+01 0.  1.
<mgrwt>
<rscale>  0 0.27521780E+03</rscale>
<asrwt>0</asrwt>
<pdfrwt beam="1">  1        2 0.31707993E+00 0.27521780E+03</pdfrwt>
<pdfrwt beam="2">  1       -2 0.14135058E-02 0.27521780E+03</pdfrwt>
<totfact> 0.88788714E+03</totfact>
</mgrwt>
</event>
<event>
 9    1  0.2094635E-002  0.2744825E+03  0.7818608E-02  0.1098741E+00
         -2   -1    0    0    0  501 -0.00000000000E+00  0.00000000000E+00  0.11010916769E+03  0.11010916769E+03  0.00000000000E+00 0.  1.
          2   -1    0    0  501    0  0.00000000000E+00 -0.00000000000E+00 -0.17105893850E+03  0.17105893850E+03  0.00000000000E+00 0.  1.
         36    2    1    2    0    0  0.00000000000E+00  0.71054273576E-14 -0.60949770814E+02  0.28116810620E+03  0.27448247554E+03 0.  0.
         25    2    3    3    0    0  0.86289385484E+01  0.46778301057E+02 -0.52739826750E+02  0.14573762432E+03  0.12726074724E+03 0.  0.
         25    2    3    3    0    0 -0.86289385484E+01 -0.46778301057E+02 -0.82099440638E+01  0.13543048187E+03  0.12653594038E+03 0.  0.
          5    1    4    4  502    0 -0.96291603391E+01  0.22764035689E+02 -0.92356107788E+02  0.95721798434E+02  0.47000000000E+01 0.  1.
         -5    1    4    4    0  502  0.18258098887E+02  0.24014265368E+02  0.39616281038E+02  0.50015825890E+02  0.47000000000E+01 0.  1.
          5    1    5    5  503    0  0.17396561819E+02  0.17130122294E+00  0.51759985957E+02  0.54807443414E+02  0.47000000000E+01 0. -1.
         -5    1    5    5    0  503 -0.26025500367E+02 -0.46949602280E+02 -0.59969930021E+02  0.80623038459E+02  0.47000000000E+01 0. -1.
<mgrwt>
<rscale>  0 0.27448248E+03</rscale>
<asrwt>0</asrwt>
<pdfrwt beam="1">  1        2 0.26316760E-01 0.27448248E+03</pdfrwt>
<pdfrwt beam="2">  1       -2 0.16939872E-01 0.27448248E+03</pdfrwt>
<totfact> 0.56246087E+03</totfact>
</mgrwt>
</event>
<event>
 9    1  0.2094635E-002  0.2746343E+03  0.7818608E-02  0.1098656E+00
          1   -1    0    0  501    0  0.00000000000E+00  0.00000000000E+00  0.53468549217E+03  0.53468549217E+03  0.00000000000E+00 0. -1.
         -1   -1    0    0    0  501 -0.00000000000E+00 -0.00000000000E+00 -0.35265579992E+02  0.35265579992E+02  0.00000000000E+00 0. -1.
         36    2    1    2    0    0  0.00000000000E+00  0.71054273576E-14  0.49941991217E+03  0.56995107216E+03  0.27463425857E+03 0.  0.
         25    2    3    3    0    0  0.43013658834E+02  0.25452926726E+02  0.28704743718E+03  0.31683847481E+03  0.12446831566E+03 0.  0.
         25    2    3    3    0    0 -0.43013658834E+02 -0.25452926726E+02  0.21237247499E+03  0.25311259734E+03  0.12831949375E+03 0.  0.
          5    1    4    4  502    0  0.78395418930E+02  0.20725277037E+02  0.11334425298E+03  0.13944313716E+03  0.47000000000E+01 0.  1.
         -5    1    4    4    0  502 -0.35381760096E+02  0.47276496885E+01  0.17370318421E+03  0.17739533766E+03  0.47000000000E+01 0.  1.
          5    1    5    5  503    0 -0.45220506841E+02 -0.65714281626E+02  0.74005454134E+02  0.10891353584E+03  0.47000000000E+01 0. -1.
         -5    1    5    5    0  503  0.22068480073E+01  0.40261354900E+02  0.13836702086E+03  0.14419906150E+03  0.47000000000E+01 0. -1.
<mgrwt>
<rscale>  0 0.27463426E+03</rscale>
<asrwt>0</asrwt>
<pdfrwt beam="1">  1        1 0.82259301E-01 0.27463426E+03</pdfrwt>
<pdfrwt beam="2">  1       -1 0.54254742E-02 0.27463426E+03</pdfrwt>
<totfact> 0.63888375E+03</totfact>
</mgrwt>
</event>
<event>
 9    1  0.2094635E-002  0.2736055E+03  0.7818608E-02  0.1099234E+00
         -2   -1    0    0    0  501 -0.00000000000E+00  0.00000000000E+00  0.21017661634E+02  0.21017661634E+02  0.00000000000E+00 0.  1.
          2   -1    0    0  501    0  0.00000000000E+00 -0.00000000000E+00 -0.89044132804E+03  0.89044132804E+03  0.00000000000E+00 0.  1.
         36    2    1    2    0    0 -0.71054273576E-14 -0.17763568394E-14 -0.86942366641E+03  0.91145898968E+03  0.27360551557E+03 0.  0.
         25    2    3    3    0    0  0.45700207892E+02  0.22466583213E+01 -0.31423897971E+03  0.34062838116E+03  0.12323960890E+03 0.  0.
         25    2    3    3    0    0 -0.45700207892E+02 -0.22466583213E+01 -0.55518468669E+03  0.57083060852E+03  0.12459530813E+03 0.  0.
          5    1    4    4  502    0  0.58034646973E+02  0.51358987601E+02 -0.15319651195E+03  0.17174698579E+03  0.47000000000E+01 0.  1.
         -5    1    4    4    0  502 -0.12334439081E+02 -0.49112329280E+02 -0.16104246777E+03  0.16888139536E+03  0.47000000000E+01 0.  1.
          5    1    5    5  503    0  0.90555504559E+01 -0.14294229340E+02 -0.56863371649E+01  0.18459480405E+02  0.47000000000E+01 0.  1.
         -5    1    5    5    0  503 -0.54755758348E+02  0.12047571019E+02 -0.54949834953E+03  0.55237112812E+03  0.47000000000E+01 0.  1.
<mgrwt>
<rscale>  0 0.27360552E+03</rscale>
<asrwt>0</asrwt>
<pdfrwt beam="1">  1        2 0.13699097E+00 0.27360552E+03</pdfrwt>
<pdfrwt beam="2">  1       -2 0.32334866E-02 0.27360552E+03</pdfrwt>
<totfact> 0.11630905E+04</totfact>
</mgrwt>
</event>
<event>
 9    1  0.2094635E-002  0.2749339E+03  0.7818608E-02  0.1098489E+00
         -2   -1    0    0    0  501 -0.00000000000E+00  0.00000000000E+00  0.25373858012E+03  0.25373858012E+03  0.00000000000E+00 0.  1.
          2   -1    0    0  501    0  0.00000000000E+00 -0.00000000000E+00 -0.74474954054E+02  0.74474954054E+02  0.00000000000E+00 0.  1.
         36    2    1    2    0    0  0.17763568394E-14  0.00000000000E+00  0.17926362607E+03  0.32821353418E+03  0.27493394913E+03 0.  0.
         25    2    3    3    0    0  0.11027779252E+02 -0.57368140441E+02  0.71735978040E+02  0.15557090579E+03  0.12507414093E+03 0.  0.
         25    2    3    3    0    0 -0.11027779252E+02  0.57368140441E+02  0.10752764803E+03  0.17264262839E+03  0.12178081373E+03 0.  0.
          5    1    4    4  502    0  0.18309354468E+02 -0.95400885838E+02  0.39515333301E+02  0.10497672621E+03  0.47000000000E+01 0. -1.
         -5    1    4    4    0  502 -0.72815752154E+01  0.38032745397E+02  0.32220644739E+02  0.50594179581E+02  0.47000000000E+01 0. -1.
          5    1    5    5  503    0  0.49577891645E+02  0.42140264490E+02  0.26997002837E+02  0.70602389432E+02  0.47000000000E+01 0.  1.
         -5    1    5    5    0  503 -0.60605670898E+02  0.15227875951E+02  0.80530645192E+02  0.10204023895E+03  0.47000000000E+01 0.  1.
<mgrwt>
<rscale>  0 0.27493395E+03</rscale>
<asrwt>0</asrwt>
<pdfrwt beam="1">  1        2 0.11457685E-01 0.27493395E+03</pdfrwt>
<pdfrwt beam="2">  1       -2 0.39036704E-01 0.27493395E+03</pdfrwt>
<totfact> 0.33620035E+03</totfact>
</mgrwt>
</event>
<event>
 9    1  0.2094635E-002  0.2745470E+03  0.7818608E-02  0.1098705E+00
          2   -1    0    0  501    0  0.00000000000E+00  0.00000000000E+00  0.97103435394E+02  0.97103435394E+02  0.00000000000E+00 0. -1.
         -2   -1    0    0    0  501 -0.00000000000E+00 -0.00000000000E+00 -0.19406126451E+03  0.19406126451E+03  0.00000000000E+00 0. -1.
         36    2    1    2    0    0  0.71054273576E-14  0.00000000000E+00 -0.96957829114E+02  0.29116469990E+03  0.27454701208E+03 0.  0.
         25    2    3    3    0    0 -0.49490716574E+02 -0.42590031358E+01 -0.71477481016E+02  0.15136662662E+03  0.12383600134E+03 0.  0.
         25    2    3    3    0    0  0.49490716574E+02  0.42590031358E+01 -0.25480348098E+02  0.13979807328E+03  0.12816701221E+03 0.  0.
          5    1    4    4  502    0 -0.22485233080E+00  0.16638269425E+02  0.31094333958E+02  0.35578507169E+02  0.47000000000E+01 0. -1.
         -5    1    4    4    0  502 -0.49265864243E+02 -0.20897272561E+02 -0.10257181497E+03  0.11578811946E+03  0.47000000000E+01 0. -1.
          5    1    5    5  503    0  0.37984386783E+02  0.60501005974E+02  0.97912174690E+01  0.72257479216E+02  0.47000000000E+01 0. -1.
         -5    1    5    5    0  503  0.11506329791E+02 -0.56242002839E+02 -0.35271565567E+02  0.67540594061E+02  0.47000000000E+01 0. -1.
<mgrwt>
<rscale>  0 0.27454701E+03</rscale>
<asrwt>0</asrwt>
<pdfrwt beam="1">  1        2 0.14938990E-01 0.27454701E+03</pdfrwt>
<pdfrwt beam="2">  1       -2 0.29855579E-01 0.27454701E+03</pdfrwt>
<totfact> 0.40174928E+03</totfact>
</mgrwt>
</event>
<event>
 9    1  0.2094635E-002  0.2773359E+03  0.7818608E-02  0.1097153E+00
         -2   -1    0    0    0  501 -0.00000000000E+00  0.00000000000E+00  0.25448613965E+02  0.25448613965E+02  0.00000000000E+00 0. -1.
          2   -1    0    0  501    0  0.00000000000E+00 -0.00000000000E+00 -0.75559300262E+03  0.75559300262E+03  0.00000000000E+00 0. -1.
         36    2    1    2    0    0  0.00000000000E+00  0.71054273576E-14 -0.73014438865E+03  0.78104161658E+03  0.27733585876E+03 0.  0.
         25    2    3    3    0    0  0.12587067982E+02  0.53717098139E+02 -0.38682446432E+03  0.41080432352E+03  0.12681902505E+03 0.  0.
         25    2    3    3    0    0 -0.12587067982E+02 -0.53717098139E+02 -0.34331992433E+03  0.37023729306E+03  0.12713426689E+03 0.  0.
          5    1    4    4  502    0 -0.30554046714E+02 -0.22471661108E+02 -0.51051837231E+02  0.63772293421E+02  0.47000000000E+01 0. -1.
         -5    1    4    4    0  502  0.43141114696E+02  0.76188759247E+02 -0.33577262709E+03  0.34703203010E+03  0.47000000000E+01 0. -1.
          5    1    5    5  503    0 -0.59836359961E+02 -0.53367051296E+02 -0.27873551262E+03  0.29007586617E+03  0.47000000000E+01 0.  1.
         -5    1    5    5    0  503  0.47249291980E+02 -0.35004684313E+00 -0.64584411711E+02  0.80161426892E+02  0.47000000000E+01 0.  1.
<mgrwt>
<rscale>  0 0.27733586E+03</rscale>
<asrwt>0</asrwt>
<pdfrwt beam="1">  1        2 0.11624507E+00 0.27733586E+03</pdfrwt>
<pdfrwt beam="2">  1       -2 0.39151716E-02 0.27733586E+03</pdfrwt>
<totfact> 0.10794155E+04</totfact>
</mgrwt>
</event>
<event>
 9    1  0.2094635E-002  0.2750534E+03  0.7818608E-02  0.1098422E+00
          2   -1    0    0  501    0  0.00000000000E+00  0.00000000000E+00  0.62832385489E+03  0.62832385489E+03  0.00000000000E+00 0.  1.
         -2   -1    0    0    0  501 -0.00000000000E+00 -0.00000000000E+00 -0.30101657698E+02  0.30101657698E+02  0.00000000000E+00 0.  1.
         36    2    1    2    0    0  0.00000000000E+00  0.35527136788E-14  0.59822219720E+03  0.65842551259E+03  0.27505337375E+03 0.  0.
         25    2    3    3    0    0  0.18085100009E+02  0.30913579789E+02  0.33435081575E+03  0.36405836257E+03  0.13951811034E+03 0.  0.
         25    2    3    3    0    0 -0.18085100009E+02 -0.30913579789E+02  0.26387138145E+03  0.29436715002E+03  0.12546391036E+03 0.  0.
          5    1    4    4  502    0 -0.18840002948E+02  0.17437914093E+02 -0.12525431614E+01  0.26128249527E+02  0.47000000000E+01 0.  1.
         -5    1    4    4    0  502  0.36925102957E+02  0.13475665696E+02  0.33560335891E+03  0.33793011305E+03  0.47000000000E+01 0.  1.
          5    1    5    5  503    0 -0.53651967389E+02  0.24811649898E+02  0.85235112372E+02  0.10383287512E+03  0.47000000000E+01 0.  1.
         -5    1    5    5    0  503  0.35566867380E+02 -0.55725229687E+02  0.17863626908E+03  0.19053427489E+03  0.47000000000E+01 0.  1.
<mgrwt>
<rscale>  0 0.27505337E+03</rscale>
<asrwt>0</asrwt>
<pdfrwt beam="1">  1        2 0.96665199E-01 0.27505337E+03</pdfrwt>
<pdfrwt beam="2">  1       -2 0.46310247E-02 0.27505337E+03</pdfrwt>
<totfact> 0.10468087E+04</totfact>
</mgrwt>
</event>
<event>
 9    1  0.2094635E-002  0.2855146E+03  0.7818608E-02  0.1092715E+00
          1   -1    0    0  501    0  0.00000000000E+00  0.00000000000E+00  0.12868329936E+04  0.12868329936E+04  0.00000000000E+00 0.  1.
         -1   -1    0    0    0  501 -0.00000000000E+00 -0.00000000000E+00 -0.15837057968E+02  0.15837057968E+02  0.00000000000E+00 0.  1.
         36    2    1    2    0    0  0.35527136788E-14  0.00000000000E+00  0.12709959357E+04  0.13026700516E+04  0.28551461410E+03 0.  0.
         25    2    3    3    0    0  0.20396061844E+02 -0.40399125765E+02  0.39077772622E+03  0.41200062366E+03  0.12243036341E+03 0.  0.
         25    2    3    3    0    0 -0.20396061844E+02  0.40399125765E+02  0.88021820945E+03  0.89066942795E+03  0.12829592718E+03 0.  0.
          5    1    4    4  502    0 -0.27361867782E+02 -0.28310495984E+00  0.16010264131E+02  0.32049501002E+02  0.47000000000E+01 0. -1.
         -5    1    4    4    0  502  0.47757929626E+02 -0.40116020805E+02  0.37476746209E+03  0.37995112266E+03  0.47000000000E+01 0. -1.
          5    1    5    5  503    0 -0.48062149158E+02  0.46883747884E+02  0.83041053792E+03  0.83313372725E+03  0.47000000000E+01 0.  1.
         -5    1    5    5    0  503  0.27666087314E+02 -0.64846221191E+01  0.49807671534E+02  0.57535700699E+02  0.47000000000E+01 0.  1.
<mgrwt>
<rscale>  0 0.28551461E+03</rscale>
<asrwt>0</asrwt>
<pdfrwt beam="1">  1        1 0.19797422E+00 0.28551461E+03</pdfrwt>
<pdfrwt beam="2">  1       -1 0.24364715E-02 0.28551461E+03</pdfrwt>
<totfact> 0.51154297E+03</totfact>
</mgrwt>
</event>
<event>
 9    1  0.2094635E-002  0.2752244E+03  0.7818608E-02  0.1098326E+00
         -4   -1    0    0    0  501 -0.00000000000E+00  0.00000000000E+00  0.63469862255E+02  0.63469862255E+02  0.00000000000E+00 0.  1.
          4   -1    0    0  501    0  0.00000000000E+00 -0.00000000000E+00 -0.29836399451E+03  0.29836399451E+03  0.00000000000E+00 0.  1.
         36    2    1    2    0    0  0.00000000000E+00  0.53290705182E-14 -0.23489413226E+03  0.36183385677E+03  0.27522442939E+03 0.  0.
         25    2    3    3    0    0 -0.13110484110E+02  0.54232132769E+01 -0.13834103561E+03  0.19654546981E+03  0.13889054516E+03 0.  0.
         25    2    3    3    0    0  0.13110484110E+02 -0.54232132769E+01 -0.96553096649E+02  0.16528838695E+03  0.13340335211E+03 0.  0.
          5    1    4    4  502    0  0.34075399209E+02 -0.26665838075E+02  0.34206645011E+01  0.43657653363E+02  0.47000000000E+01 0.  1.
         -5    1    4    4    0  502 -0.47185883318E+02  0.32089051352E+02 -0.14176170011E+03  0.15288781645E+03  0.47000000000E+01 0.  1.
          5    1    5    5  503    0  0.70177740312E+02  0.15921386506E+02 -0.42518033623E+02  0.83715464322E+02  0.47000000000E+01 0. -1.
         -5    1    5    5    0  503 -0.57067256202E+02 -0.21344599783E+02 -0.54035063027E+02  0.81572922632E+02  0.47000000000E+01 0. -1.
<mgrwt>
<rscale>  0 0.27522443E+03</rscale>
<asrwt>0</asrwt>
<pdfrwt beam="1">  1        4 0.45902153E-01 0.27522443E+03</pdfrwt>
<pdfrwt beam="2">  1       -4 0.97645942E-02 0.27522443E+03</pdfrwt>
<totfact> 0.68390231E+02</totfact>
</mgrwt>
</event>
<event>
 9    1  0.2094635E-002  0.2736647E+03  0.7818608E-02  0.1099200E+00
         -2   -1    0    0    0  501 -0.00000000000E+00  0.00000000000E+00  0.65334157886E+01  0.65334157886E+01  0.00000000000E+00 0. -1.
          2   -1    0    0  501    0  0.00000000000E+00 -0.00000000000E+00 -0.28657439304E+04  0.28657439304E+04  0.00000000000E+00 0. -1.
         36    2    1    2    0    0  0.00000000000E+00 -0.14210854715E-13 -0.28592105146E+04  0.28722773462E+04  0.27366473387E+03 0.  0.
         25    2    3    3    0    0  0.18669497268E+02  0.31689611612E+02 -0.99425697626E+03  0.10027628486E+04  0.12503445167E+03 0.  0.
         25    2    3    3    0    0 -0.18669497268E+02 -0.31689611612E+02 -0.18649535383E+04  0.18695144975E+04  0.12521970622E+03 0.  0.
          5    1    4    4  502    0 -0.12438400497E+02  0.75346565797E+02 -0.58954527103E+03  0.59448930636E+03  0.47000000000E+01 0.  1.
         -5    1    4    4    0  502  0.31107897766E+02 -0.43656954184E+02 -0.40471170523E+03  0.40827354225E+03  0.47000000000E+01 0.  1.
          5    1    5    5  503    0 -0.26354162570E+01  0.18137065264E+02 -0.15565717560E+04  0.15566867444E+04  0.47000000000E+01 0. -1.
         -5    1    5    5    0  503 -0.16034081011E+02 -0.49826676876E+02 -0.30838178232E+03  0.31282775316E+03  0.47000000000E+01 0. -1.
<mgrwt>
<rscale>  0 0.27366473E+03</rscale>
<asrwt>0</asrwt>
<pdfrwt beam="1">  1        2 0.44088488E+00 0.27366473E+03</pdfrwt>
<pdfrwt beam="2">  1       -2 0.10051381E-02 0.27366473E+03</pdfrwt>
<totfact> 0.52850274E+03</totfact>
</mgrwt>
</event>
<event>
 9    1  0.2094635E-002  0.2752447E+03  0.7818608E-02  0.1098315E+00
         -2   -1    0    0    0  501 -0.00000000000E+00  0.00000000000E+00  0.22811007158E+02  0.22811007158E+02  0.00000000000E+00 0. -1.
          2   -1    0    0  501    0  0.00000000000E+00 -0.00000000000E+00 -0.83029688183E+03  0.83029688183E+03  0.00000000000E+00 0. -1.
         36    2    1    2    0    0  0.00000000000E+00  0.00000000000E+00 -0.80748587467E+03  0.85310788899E+03  0.27524467744E+03 0.  0.
         25    2    3    3    0    0 -0.48184301353E+02 -0.25390993846E+02 -0.48200295740E+03  0.50075194950E+03  0.12433517008E+03 0.  0.
         25    2    3    3    0    0  0.48184301353E+02  0.25390993846E+02 -0.32548291728E+03  0.35235593949E+03  0.12348744548E+03 0.  0.
          5    1    4    4  502    0 -0.43893328401E+02  0.42060648826E+02 -0.15023606755E+03  0.16213786865E+03  0.47000000000E+01 0. -1.
         -5    1    4    4    0  502 -0.42909729525E+01 -0.67451642672E+02 -0.33176688985E+03  0.33861408085E+03  0.47000000000E+01 0. -1.
          5    1    5    5  503    0  0.46943552043E+02 -0.44527962030E+02 -0.15506256554E+03  0.16808606638E+03  0.47000000000E+01 0.  1.
         -5    1    5    5    0  503  0.12407493107E+01  0.69918955876E+02 -0.17042035174E+03  0.18426987311E+03  0.47000000000E+01 0.  1.
<mgrwt>
<rscale>  0 0.27524468E+03</rscale>
<asrwt>0</asrwt>
<pdfrwt beam="1">  1        2 0.12773800E+00 0.27524468E+03</pdfrwt>
<pdfrwt beam="2">  1       -2 0.35093852E-02 0.27524468E+03</pdfrwt>
<totfact> 0.11282494E+04</totfact>
</mgrwt>
</event>
<event>
 9    1  0.2094635E-002  0.2755289E+03  0.7818608E-02  0.1098156E+00
         -1   -1    0    0    0  501 -0.00000000000E+00  0.00000000000E+00  0.12184582826E+02  0.12184582826E+02  0.00000000000E+00 0.  1.
          1   -1    0    0  501    0  0.00000000000E+00 -0.00000000000E+00 -0.15576276767E+04  0.15576276767E+04  0.00000000000E+00 0.  1.
         36    2    1    2    0    0  0.00000000000E+00  0.71054273576E-14 -0.15454430939E+04  0.15698122596E+04  0.27552889822E+03 0.  0.
         25    2    3    3    0    0  0.80801401921E+02 -0.21971883749E+02 -0.75830618490E+03  0.77278591805E+03  0.12311853980E+03 0.  0.
         25    2    3    3    0    0 -0.80801401921E+02  0.21971883749E+02 -0.78713690900E+03  0.79702634150E+03  0.93031421131E+02 0.  0.
          5    1    4    4  502    0 -0.24017898135E+02 -0.27715802508E+02 -0.31662741761E+03  0.31877897785E+03  0.47000000000E+01 0. -1.
         -5    1    4    4    0  502  0.10481930006E+03  0.57439187592E+01 -0.44167876729E+03  0.45400694020E+03  0.47000000000E+01 0. -1.
          5    1    5    5  503    0 -0.10160873245E+02  0.40922157122E+02 -0.15662880448E+03  0.16227303744E+03  0.47000000000E+01 0.  1.
         -5    1    5    5    0  503 -0.70640528676E+02 -0.18950273373E+02 -0.63050810452E+03  0.63475330406E+03  0.47000000000E+01 0.  1.
<mgrwt>
<rscale>  0 0.27552890E+03</rscale>
<asrwt>0</asrwt>
<pdfrwt beam="1">  1        1 0.23963507E+00 0.27552890E+03</pdfrwt>
<pdfrwt beam="2">  1       -1 0.18745508E-02 0.27552890E+03</pdfrwt>
<totfact> 0.49417632E+03</totfact>
</mgrwt>
</event>
<event>
 9    1  0.2094635E-002  0.2731771E+03  0.7818608E-02  0.1099475E+00
          1   -1    0    0  501    0  0.00000000000E+00  0.00000000000E+00  0.14275069240E+03  0.14275069240E+03  0.00000000000E+00 0. -1.
         -1   -1    0    0    0  501 -0.00000000000E+00 -0.00000000000E+00 -0.13069241200E+03  0.13069241200E+03  0.00000000000E+00 0. -1.
         36    2    1    2    0    0  0.00000000000E+00  0.35527136788E-14  0.12058280402E+02  0.27344310440E+03  0.27317710229E+03 0.  0.
         25    2    3    3    0    0 -0.41215260753E+02 -0.31716267590E+02 -0.15253754648E+02  0.13494956933E+03  0.12358838895E+03 0.  0.
         25    2    3    3    0    0  0.41215260753E+02  0.31716267590E+02  0.27312035050E+02  0.13849353507E+03  0.12541886879E+03 0.  0.
          5    1    4    4  502    0 -0.57537486289E+01 -0.34500452942E+02 -0.64793572672E+02  0.73781325118E+02  0.47000000000E+01 0.  1.
         -5    1    4    4    0  502 -0.35461512124E+02  0.27841853518E+01  0.49539818024E+02  0.61168244212E+02  0.47000000000E+01 0.  1.
          5    1    5    5  503    0 -0.30079761080E+02  0.52829252781E+02  0.77508308259E+01  0.61464521104E+02  0.47000000000E+01 0. -1.
         -5    1    5    5    0  503  0.71295021833E+02 -0.21112985191E+02  0.19561204224E+02  0.77029013966E+02  0.47000000000E+01 0. -1.
<mgrwt>
<rscale>  0 0.27317710E+03</rscale>
<asrwt>0</asrwt>
<pdfrwt beam="1">  1        1 0.21961645E-01 0.27317710E+03</pdfrwt>
<pdfrwt beam="2">  1       -1 0.20106525E-01 0.27317710E+03</pdfrwt>
<totfact> 0.44899193E+03</totfact>
</mgrwt>
</event>
<event>
 9    1  0.2094635E-002  0.2745202E+03  0.7818608E-02  0.1098720E+00
         -1   -1    0    0    0  501 -0.00000000000E+00  0.00000000000E+00  0.37176473458E+03  0.37176473458E+03  0.00000000000E+00 0. -1.
          1   -1    0    0  501    0  0.00000000000E+00 -0.00000000000E+00 -0.50678124547E+02  0.50678124547E+02  0.00000000000E+00 0. -1.
         36    2    1    2    0    0  0.00000000000E+00  0.00000000000E+00  0.32108661003E+03  0.42244285912E+03  0.27452023256E+03 0.  0.
         25    2    3    3    0    0  0.54795616068E+01 -0.49911383579E+02  0.21560291854E+03  0.25472127117E+03  0.12600450666E+03 0.  0.
         25    2    3    3    0    0 -0.54795616068E+01  0.49911383579E+02  0.10548369149E+03  0.16772158795E+03  0.12034346716E+03 0.  0.
          5    1    4    4  502    0 -0.44098525527E+02 -0.43871516046E+02  0.45061211896E+02  0.76954484543E+02  0.47000000000E+01 0.  1.
         -5    1    4    4    0  502  0.49578087134E+02 -0.60398675338E+01  0.17054170664E+03  0.17776678663E+03  0.47000000000E+01 0.  1.
          5    1    5    5  503    0 -0.52248516583E+02  0.36106304524E+02  0.99820883557E+02  0.11840553832E+03  0.47000000000E+01 0.  1.
         -5    1    5    5    0  503  0.46768954976E+02  0.13805079055E+02  0.56628079343E+01  0.49316049628E+02  0.47000000000E+01 0.  1.
<mgrwt>
<rscale>  0 0.27452023E+03</rscale>
<asrwt>0</asrwt>
<pdfrwt beam="1">  1        1 0.77966348E-02 0.27452023E+03</pdfrwt>
<pdfrwt beam="2">  1       -1 0.57194573E-01 0.27452023E+03</pdfrwt>
<totfact> 0.28612810E+03</totfact>
</mgrwt>
</event>
<event>
 9    1  0.2094635E-002  0.2760191E+03  0.7818608E-02  0.1097883E+00
          3   -1    0    0  501    0  0.00000000000E+00  0.00000000000E+00  0.26932209663E+03  0.26932209663E+03  0.00000000000E+00 0.  1.
         -3   -1    0    0    0  501 -0.00000000000E+00 -0.00000000000E+00 -0.70720641446E+02  0.70720641446E+02  0.00000000000E+00 0.  1.
         36    2    1    2    0    0  0.00000000000E+00  0.00000000000E+00  0.19860145518E+03  0.34004273808E+03  0.27601906767E+03 0.  0.
         25    2    3    3    0    0  0.17530966590E+02  0.29391115053E+02  0.90668861361E+02  0.15612821897E+03  0.12240917411E+03 0.  0.
         25    2    3    3    0    0 -0.17530966590E+02 -0.29391115053E+02  0.10793259382E+03  0.18391451910E+03  0.14492733729E+03 0.  0.
          5    1    4    4  502    0 -0.12981310547E+02  0.54842703030E+02 -0.51086897735E+00  0.56556056141E+02  0.47000000000E+01 0. -1.
         -5    1    4    4    0  502  0.30512277136E+02 -0.25451587977E+02  0.91179730338E+02  0.99572162832E+02  0.47000000000E+01 0. -1.
          5    1    5    5  503    0  0.44087414592E+02 -0.37919265647E+02 -0.10388090308E+01  0.58350149587E+02  0.47000000000E+01 0.  1.
         -5    1    5    5    0  503 -0.61618381182E+02  0.85281505939E+01  0.10897140286E+03  0.12556436952E+03  0.47000000000E+01 0.  1.
<mgrwt>
<rscale>  0 0.27601907E+03</rscale>
<asrwt>0</asrwt>
<pdfrwt beam="1">  1        3 0.41434168E-01 0.27601907E+03</pdfrwt>
<pdfrwt beam="2">  1       -3 0.10880099E-01 0.27601907E+03</pdfrwt>
<totfact> 0.94537710E+02</totfact>
</mgrwt>
</event>
<event>
 9    1  0.2094635E-002  0.2724068E+03  0.7818608E-02  0.1099910E+00
         -2   -1    0    0    0  501 -0.00000000000E+00  0.00000000000E+00  0.16811474583E+02  0.16811474583E+02  0.00000000000E+00 0.  1.
          2   -1    0    0  501    0  0.00000000000E+00 -0.00000000000E+00 -0.11034939789E+04  0.11034939789E+04  0.00000000000E+00 0.  1.
         36    2    1    2    0    0 -0.71054273576E-14  0.00000000000E+00 -0.10866825043E+04  0.11203054535E+04  0.27240676187E+03 0.  0.
         25    2    3    3    0    0 -0.41245563747E+02 -0.32022203951E+02 -0.47844737871E+03  0.49675541465E+03  0.12299361654E+03 0.  0.
         25    2    3    3    0    0  0.41245563747E+02  0.32022203951E+02 -0.60823512561E+03  0.62355003885E+03  0.12703568333E+03 0.  0.
          5    1    4    4  502    0 -0.50102502582E+02 -0.18238349379E+02 -0.47661626610E+03  0.47961239899E+03  0.47000000000E+01 0. -1.
         -5    1    4    4    0  502  0.88569388345E+01 -0.13783854572E+02 -0.18311126110E+01  0.17143015656E+02  0.47000000000E+01 0. -1.
          5    1    5    5  503    0  0.79180802444E+02  0.20612789656E+02 -0.52371706817E+03  0.53009069419E+03  0.47000000000E+01 0. -1.
         -5    1    5    5    0  503 -0.37935238697E+02  0.11409414295E+02 -0.84518057447E+02  0.93459344660E+02  0.47000000000E+01 0. -1.
<mgrwt>
<rscale>  0 0.27240676E+03</rscale>
<asrwt>0</asrwt>
<pdfrwt beam="1">  1        2 0.16976835E+00 0.27240676E+03</pdfrwt>
<pdfrwt beam="2">  1       -2 0.25863801E-02 0.27240676E+03</pdfrwt>
<totfact> 0.11986574E+04</totfact>
</mgrwt>
</event>
<event>
 9    1  0.2094635E-002  0.2737387E+03  0.7818608E-02  0.1099159E+00
         -1   -1    0    0    0  501 -0.00000000000E+00  0.00000000000E+00  0.21033505751E+02  0.21033505751E+02  0.00000000000E+00 0.  1.
          1   -1    0    0  501    0  0.00000000000E+00 -0.00000000000E+00 -0.89063721445E+03  0.89063721445E+03  0.00000000000E+00 0.  1.
         36    2    1    2    0    0  0.35527136788E-14  0.00000000000E+00 -0.86960370870E+03  0.91167072020E+03  0.27373872924E+03 0.  0.
         25    2    3    3    0    0 -0.11964052213E+02 -0.20372493970E+02 -0.43918864886E+03  0.45795417928E+03  0.12758206759E+03 0.  0.
         25    2    3    3    0    0  0.11964052213E+02  0.20372493970E+02 -0.43041505984E+03  0.45371654093E+03  0.14157471073E+03 0.  0.
          5    1    4    4  502    0 -0.18667081026E+02 -0.70036399965E+02 -0.18338154649E+03  0.19724208179E+03  0.47000000000E+01 0. -1.
         -5    1    4    4    0  502  0.67030288133E+01  0.49663905995E+02 -0.25580710237E+03  0.26071209749E+03  0.47000000000E+01 0. -1.
          5    1    5    5  503    0  0.19851249571E+02  0.25725819992E+02 -0.11682484033E+02  0.34849108410E+02  0.47000000000E+01 0.  1.
         -5    1    5    5    0  503 -0.78871973580E+01 -0.53533260216E+01 -0.41873257581E+03  0.41886743252E+03  0.47000000000E+01 0.  1.
<mgrwt>
<rscale>  0 0.27373873E+03</rscale>
<asrwt>0</asrwt>
<pdfrwt beam="1">  1        1 0.13702109E+00 0.27373873E+03</pdfrwt>
<pdfrwt beam="2">  1       -1 0.32359244E-02 0.27373873E+03</pdfrwt>
<totfact> 0.65406148E+03</totfact>
</mgrwt>
</event>
<event>
 9    1  0.2094635E-002  0.2746006E+03  0.7818608E-02  0.1098675E+00
          2   -1    0    0  501    0  0.00000000000E+00  0.00000000000E+00  0.63884672462E+03  0.63884672462E+03  0.00000000000E+00 0. -1.
         -2   -1    0    0    0  501 -0.00000000000E+00 -0.00000000000E+00 -0.29508433901E+02  0.29508433901E+02  0.00000000000E+00 0. -1.
         36    2    1    2    0    0  0.00000000000E+00  0.00000000000E+00  0.60933829072E+03  0.66835515852E+03  0.27460055605E+03 0.  0.
         25    2    3    3    0    0 -0.37067159855E+02 -0.34158867368E+02  0.22521696400E+03  0.26109518335E+03  0.12209509138E+03 0.  0.
         25    2    3    3    0    0  0.37067159855E+02  0.34158867368E+02  0.38412132672E+03  0.40725997517E+03  0.12558141253E+03 0.  0.
          5    1    4    4  502    0  0.44656266868E+01  0.37155593454E+02  0.12822913870E+03  0.13366107122E+03  0.47000000000E+01 0. -1.
         -5    1    4    4    0  502 -0.41532786542E+02 -0.71314460821E+02  0.96987825295E+02  0.12743411213E+03  0.47000000000E+01 0. -1.
          5    1    5    5  503    0  0.68693577101E+02  0.59720691127E+02  0.22049269999E+03  0.23858853542E+03  0.47000000000E+01 0. -1.
         -5    1    5    5    0  503 -0.31626417246E+02 -0.25561823760E+02  0.16362862673E+03  0.16867143975E+03  0.47000000000E+01 0. -1.
<mgrwt>
<rscale>  0 0.27460056E+03</rscale>
<asrwt>0</asrwt>
<pdfrwt beam="1">  1        2 0.98284101E-01 0.27460056E+03</pdfrwt>
<pdfrwt beam="2">  1       -2 0.45397595E-02 0.27460056E+03</pdfrwt>
<totfact> 0.10578519E+04</totfact>
</mgrwt>
</event>
<event>
 9    1  0.2094635E-002  0.2731533E+03  0.7818608E-02  0.1099488E+00
         -2   -1    0    0    0  501 -0.00000000000E+00  0.00000000000E+00  0.29763935742E+02  0.29763935742E+02  0.00000000000E+00 0.  1.
          2   -1    0    0  501    0  0.00000000000E+00 -0.00000000000E+00 -0.62670390513E+03  0.62670390513E+03  0.00000000000E+00 0.  1.
         36    2    1    2    0    0  0.35527136788E-14  0.71054273576E-14 -0.59693996939E+03  0.65646784087E+03  0.27315325194E+03 0.  0.
         25    2    3    3    0    0  0.21209301205E+02 -0.44699683651E+02 -0.21802587360E+03  0.25424360850E+03  0.12106458907E+03 0.  0.
         25    2    3    3    0    0 -0.21209301205E+02  0.44699683651E+02 -0.37891409579E+03  0.40222423237E+03  0.12554100902E+03 0.  0.
          5    1    4    4  502    0  0.11244839272E+02 -0.18571205776E+02 -0.22413805250E+03  0.22523608209E+03  0.47000000000E+01 0. -1.
         -5    1    4    4    0  502  0.99644619332E+01 -0.26128477875E+02  0.61121789013E+01  0.29007526413E+02  0.47000000000E+01 0. -1.
          5    1    5    5  503    0  0.29583590664E+02 -0.12301257751E+02 -0.25176956551E+03  0.25384348307E+03  0.47000000000E+01 0. -1.
         -5    1    5    5    0  503 -0.50792891869E+02  0.57000941402E+02 -0.12714453028E+03  0.14838074931E+03  0.47000000000E+01 0. -1.
<mgrwt>
<rscale>  0 0.27315325E+03</rscale>
<asrwt>0</asrwt>
<pdfrwt beam="1">  1        2 0.96415992E-01 0.27315325E+03</pdfrwt>
<pdfrwt beam="2">  1       -2 0.45790667E-02 0.27315325E+03</pdfrwt>
<totfact> 0.10677954E+04</totfact>
</mgrwt>
</event>
<event>
 9    1  0.2094635E-002  0.2748192E+03  0.7818608E-02  0.1098553E+00
         -1   -1    0    0    0  501 -0.00000000000E+00  0.00000000000E+00  0.89510276453E+01  0.89510276453E+01  0.00000000000E+00 0.  1.
          1   -1    0    0  501    0  0.00000000000E+00 -0.00000000000E+00 -0.21094111504E+04  0.21094111504E+04  0.00000000000E+00 0.  1.
         36    2    1    2    0    0 -0.35527136788E-14  0.00000000000E+00 -0.21004601228E+04  0.21183621780E+04  0.27481919527E+03 0.  0.
         25    2    3    3    0    0 -0.26671648204E+01 -0.20030661805E+02 -0.69251033639E+03  0.70459844269E+03  0.12837467920E+03 0.  0.
         25    2    3    3    0    0  0.26671648204E+01  0.20030661805E+02 -0.14079497864E+04  0.14137637354E+04  0.12647907847E+03 0.  0.
          5    1    4    4  502    0 -0.20795173748E+02 -0.61394190745E+02 -0.57433478958E+03  0.57800019587E+03  0.47000000000E+01 0.  1.
         -5    1    4    4    0  502  0.18128008927E+02  0.41363528940E+02 -0.11817554681E+03  0.12659824682E+03  0.47000000000E+01 0.  1.
          5    1    5    5  503    0  0.35533649476E+02  0.63486638904E+02 -0.74259774062E+03  0.74616800249E+03  0.47000000000E+01 0.  1.
         -5    1    5    5    0  503 -0.32866484656E+02 -0.43455977099E+02 -0.66535204575E+03  0.66759573286E+03  0.47000000000E+01 0.  1.
<mgrwt>
<rscale>  0 0.27481920E+03</rscale>
<asrwt>0</asrwt>
<pdfrwt beam="1">  1        1 0.32452509E+00 0.27481920E+03</pdfrwt>
<pdfrwt beam="2">  1       -1 0.13770799E-02 0.27481920E+03</pdfrwt>
<totfact> 0.33854286E+03</totfact>
</mgrwt>
</event>
<event>
 9    1  0.2094635E-002  0.2750719E+03  0.7818608E-02  0.1098411E+00
         -2   -1    0    0    0  501 -0.00000000000E+00  0.00000000000E+00  0.27290123277E+02  0.27290123277E+02  0.00000000000E+00 0. -1.
          2   -1    0    0  501    0  0.00000000000E+00 -0.00000000000E+00 -0.69314982017E+03  0.69314982017E+03  0.00000000000E+00 0. -1.
         36    2    1    2    0    0  0.71054273576E-14 -0.35527136788E-14 -0.66585969689E+03  0.72043994345E+03  0.27507194726E+03 0.  0.
         25    2    3    3    0    0 -0.51484163479E+02  0.52880655318E+01 -0.27377877418E+03  0.30542129154E+03  0.12509502551E+03 0.  0.
         25    2    3    3    0    0  0.51484163479E+02 -0.52880655318E+01 -0.39208092271E+03  0.41501865191E+03  0.12583500606E+03 0.  0.
          5    1    4    4  502    0  0.21530766553E+02 -0.32906573804E+02 -0.16018853869E+03  0.16501174030E+03  0.47000000000E+01 0.  1.
         -5    1    4    4    0  502 -0.73014930032E+02  0.38194639336E+02 -0.11359023549E+03  0.14040955124E+03  0.47000000000E+01 0.  1.
          5    1    5    5  503    0 -0.10016498948E+02 -0.20673180761E+02 -0.31150060122E+03  0.31238185801E+03  0.47000000000E+01 0. -1.
         -5    1    5    5    0  503  0.61500662427E+02  0.15385115229E+02 -0.80580321495E+02  0.10263679390E+03  0.47000000000E+01 0. -1.
<mgrwt>
<rscale>  0 0.27507195E+03</rscale>
<asrwt>0</asrwt>
<pdfrwt beam="1">  1        2 0.10663844E+00 0.27507195E+03</pdfrwt>
<pdfrwt beam="2">  1       -2 0.41984804E-02 0.27507195E+03</pdfrwt>
<totfact> 0.10798629E+04</totfact>
</mgrwt>
</event>
<event>
 9    1  0.2094635E-002  0.2706499E+03  0.7818608E-02  0.1100908E+00
          2   -1    0    0  501    0  0.00000000000E+00  0.00000000000E+00  0.48503415235E+03  0.48503415235E+03  0.00000000000E+00 0.  1.
         -2   -1    0    0    0  501 -0.00000000000E+00 -0.00000000000E+00 -0.37755784899E+02  0.37755784899E+02  0.00000000000E+00 0.  1.
         36    2    1    2    0    0  0.00000000000E+00 -0.17763568394E-14  0.44727836745E+03  0.52278993725E+03  0.27064992241E+03 0.  0.
         25    2    3    3    0    0  0.47940732568E+02  0.55884636982E+01  0.16485943183E+03  0.21167180613E+03  0.12368013779E+03 0.  0.
         25    2    3    3    0    0 -0.47940732568E+02 -0.55884636982E+01  0.28241893562E+03  0.31111813111E+03  0.12126207794E+03 0.  0.
          5    1    4    4  502    0  0.34598548961E+02  0.58176169951E+02  0.49129257540E+02  0.83769327840E+02  0.47000000000E+01 0. -1.
         -5    1    4    4    0  502  0.13342183607E+02 -0.52587706253E+02  0.11573017429E+03  0.12790247829E+03  0.47000000000E+01 0. -1.
          5    1    5    5  503    0 -0.87380452997E+02  0.84894171630E+01  0.20274571972E+03  0.22098717301E+03  0.47000000000E+01 0. -1.
         -5    1    5    5    0  503  0.39439720429E+02 -0.14077880861E+02  0.79673215901E+02  0.90130958105E+02  0.47000000000E+01 0. -1.
<mgrwt>
<rscale>  0 0.27064992E+03</rscale>
<asrwt>0</asrwt>
<pdfrwt beam="1">  1        2 0.74620634E-01 0.27064992E+03</pdfrwt>
<pdfrwt beam="2">  1       -2 0.58085827E-02 0.27064992E+03</pdfrwt>
<totfact> 0.99557694E+03</totfact>
</mgrwt>
</event>
<event>
 9    1  0.2094635E-002  0.2754718E+03  0.7818608E-02  0.1098188E+00
          2   -1    0    0  501    0  0.00000000000E+00  0.00000000000E+00  0.89125386877E+02  0.89125386877E+02  0.00000000000E+00 0. -1.
         -2   -1    0    0    0  501 -0.00000000000E+00 -0.00000000000E+00 -0.21285948377E+03  0.21285948377E+03  0.00000000000E+00 0. -1.
         36    2    1    2    0    0 -0.88817841970E-15  0.14210854715E-13 -0.12373409689E+03  0.30198487065E+03  0.27547184133E+03 0.  0.
         25    2    3    3    0    0  0.22085766379E+01  0.65341045031E+02 -0.57052763516E+02  0.14688286655E+03  0.11851256763E+03 0.  0.
         25    2    3    3    0    0 -0.22085766379E+01 -0.65341045031E+02 -0.66681333379E+02  0.15510200410E+03  0.12383820685E+03 0.  0.
          5    1    4    4  502    0 -0.73870979242E+01 -0.20497230750E+02 -0.56112290688E+02  0.60377022537E+02  0.47000000000E+01 0. -1.
         -5    1    4    4    0  502  0.95956745621E+01  0.85838275782E+02 -0.94047282720E+00  0.86505844014E+02  0.47000000000E+01 0. -1.
          5    1    5    5  503    0 -0.10024456933E+02 -0.10085829211E+03 -0.59852877212E+02  0.11780212959E+03  0.47000000000E+01 0. -1.
         -5    1    5    5    0  503  0.78158802951E+01  0.35517247079E+02 -0.68284561667E+01  0.37299874511E+02  0.47000000000E+01 0. -1.
<mgrwt>
<rscale>  0 0.27547184E+03</rscale>
<asrwt>0</asrwt>
<pdfrwt beam="1">  1        2 0.13711598E-01 0.27547184E+03</pdfrwt>
<pdfrwt beam="2">  1       -2 0.32747613E-01 0.27547184E+03</pdfrwt>
<totfact> 0.37580039E+03</totfact>
</mgrwt>
</event>
<event>
 9    1  0.2094635E-002  0.2745610E+03  0.7818608E-02  0.1098697E+00
          1   -1    0    0  501    0  0.00000000000E+00  0.00000000000E+00  0.18897942722E+04  0.18897942722E+04  0.00000000000E+00 0. -1.
         -1   -1    0    0    0  501 -0.00000000000E+00 -0.00000000000E+00 -0.99724776642E+01  0.99724776642E+01  0.00000000000E+00 0. -1.
         36    2    1    2    0    0  0.17763568394E-14  0.14210854715E-13  0.18798217946E+04  0.18997667499E+04  0.27456096715E+03 0.  0.
         25    2    3    3    0    0 -0.71818542385E+01  0.57276223202E+02  0.90311903354E+03  0.91357083239E+03  0.12512206944E+03 0.  0.
         25    2    3    3    0    0  0.71818542385E+01 -0.57276223202E+02  0.97670276103E+03  0.98619591752E+03  0.12370108953E+03 0.  0.
          5    1    4    4  502    0 -0.92079467232E+01 -0.38766275494E+02  0.20853237884E+03  0.21235690105E+03  0.47000000000E+01 0. -1.
         -5    1    4    4    0  502  0.20260924847E+01  0.96042498696E+02  0.69458665471E+03  0.70121393134E+03  0.47000000000E+01 0. -1.
          5    1    5    5  503    0 -0.15528650955E+02  0.35542333796E+02  0.21656432639E+03  0.22006043251E+03  0.47000000000E+01 0.  1.
         -5    1    5    5    0  503  0.22710505193E+02 -0.92818556997E+02  0.76013843465E+03  0.76613548501E+03  0.47000000000E+01 0.  1.
<mgrwt>
<rscale>  0 0.27456097E+03</rscale>
<asrwt>0</asrwt>
<pdfrwt beam="1">  1        1 0.29073730E+00 0.27456097E+03</pdfrwt>
<pdfrwt beam="2">  1       -1 0.15342288E-02 0.27456097E+03</pdfrwt>
<totfact> 0.40178374E+03</totfact>
</mgrwt>
</event>
<event>
 9    1  0.2094635E-002  0.2745717E+03  0.7818608E-02  0.1098691E+00
         -2   -1    0    0    0  501 -0.00000000000E+00  0.00000000000E+00  0.11848816810E+02  0.11848816810E+02  0.00000000000E+00 0. -1.
          2   -1    0    0  501    0  0.00000000000E+00 -0.00000000000E+00 -0.15906566828E+04  0.15906566828E+04  0.00000000000E+00 0. -1.
         36    2    1    2    0    0  0.71054273576E-14  0.71054273576E-14 -0.15788078660E+04  0.16025054996E+04  0.27457166381E+03 0.  0.
         25    2    3    3    0    0  0.49377583284E+02  0.30435667234E+02 -0.77125305538E+03  0.78370791488E+03  0.12650037490E+03 0.  0.
         25    2    3    3    0    0 -0.49377583284E+02 -0.30435667234E+02 -0.80755481064E+03  0.81879758476E+03  0.12214842217E+03 0.  0.
          5    1    4    4  502    0  0.39187420464E+02  0.43540179861E+02 -0.76174536995E+03  0.76400883491E+03  0.47000000000E+01 0.  1.
         -5    1    4    4    0  502  0.10190162820E+02 -0.13104512627E+02 -0.95076854277E+01  0.19699079970E+02  0.47000000000E+01 0.  1.
          5    1    5    5  503    0 -0.34412997060E+02  0.34113571814E+02 -0.14571438830E+03  0.15363190784E+03  0.47000000000E+01 0. -1.
         -5    1    5    5    0  503 -0.14964586224E+02 -0.64549239047E+02 -0.66184042234E+03  0.66516567692E+03  0.47000000000E+01 0. -1.
<mgrwt>
<rscale>  0 0.27457166E+03</rscale>
<asrwt>0</asrwt>
<pdfrwt beam="1">  1        2 0.24471624E+00 0.27457166E+03</pdfrwt>
<pdfrwt beam="2">  1       -2 0.18228961E-02 0.27457166E+03</pdfrwt>
<totfact> 0.10815912E+04</totfact>
</mgrwt>
</event>
<event>
 9    1  0.2094635E-002  0.2747956E+03  0.7818608E-02  0.1098566E+00
          1   -1    0    0  501    0  0.00000000000E+00  0.00000000000E+00  0.68794620381E+03  0.68794620381E+03  0.00000000000E+00 0.  1.
         -1   -1    0    0    0  501 -0.00000000000E+00 -0.00000000000E+00 -0.27441331623E+02  0.27441331623E+02  0.00000000000E+00 0.  1.
         36    2    1    2    0    0  0.35527136788E-14  0.71054273576E-14  0.66050487219E+03  0.71538753544E+03  0.27479563255E+03 0.  0.
         25    2    3    3    0    0  0.24488564299E+02  0.51648508891E+02  0.32082531175E+03  0.34946394130E+03  0.12620977520E+03 0.  0.
         25    2    3    3    0    0 -0.24488564299E+02 -0.51648508891E+02  0.33967956044E+03  0.36592359414E+03  0.12349337923E+03 0.  0.
          5    1    4    4  502    0  0.73270615243E+02  0.18564939306E+02  0.21888543067E+03  0.23161641088E+03  0.47000000000E+01 0.  1.
         -5    1    4    4    0  502 -0.48782050943E+02  0.33083569584E+02  0.10193988108E+03  0.11784753042E+03  0.47000000000E+01 0.  1.
          5    1    5    5  503    0 -0.70757152315E+01 -0.39128839964E+02  0.34154971902E+03  0.34388869192E+03  0.47000000000E+01 0. -1.
         -5    1    5    5    0  503 -0.17412849068E+02 -0.12519668926E+02 -0.18701585865E+01  0.22034902220E+02  0.47000000000E+01 0. -1.
<mgrwt>
<rscale>  0 0.27479563E+03</rscale>
<asrwt>0</asrwt>
<pdfrwt beam="1">  1        1 0.10583786E+00 0.27479563E+03</pdfrwt>
<pdfrwt beam="2">  1       -1 0.42217438E-02 0.27479563E+03</pdfrwt>
<totfact> 0.65416916E+03</totfact>
</mgrwt>
</event>
<event>
 9    1  0.2094635E-002  0.2726726E+03  0.7818608E-02  0.1099760E+00
         -2   -1    0    0    0  501 -0.00000000000E+00  0.00000000000E+00  0.11828107523E+03  0.11828107523E+03  0.00000000000E+00 0. -1.
          2   -1    0    0  501    0  0.00000000000E+00 -0.00000000000E+00 -0.15714759106E+03  0.15714759106E+03  0.00000000000E+00 0. -1.
         36    2    1    2    0    0  0.00000000000E+00  0.00000000000E+00 -0.38866515830E+02  0.27542866630E+03  0.27267259519E+03 0.  0.
         25    2    3    3    0    0 -0.32959239537E+02  0.56322007556E+02 -0.14369858997E+02  0.13690645831E+03  0.11949228207E+03 0.  0.
         25    2    3    3    0    0  0.32959239537E+02 -0.56322007556E+02 -0.24496656833E+02  0.13852220798E+03  0.11970729261E+03 0.  0.
          5    1    4    4  502    0 -0.47521078745E+02 -0.18233920571E+02 -0.29913809074E+02  0.59225457008E+02  0.47000000000E+01 0. -1.
         -5    1    4    4    0  502  0.14561839208E+02  0.74555928127E+02  0.15543950077E+02  0.77681001307E+02  0.47000000000E+01 0. -1.
          5    1    5    5  503    0  0.85121866482E+01  0.12508657308E+02  0.38701876588E+02  0.41819242946E+02  0.47000000000E+01 0.  1.
         -5    1    5    5    0  503  0.24447052889E+02 -0.68830664864E+02 -0.63198533421E+02  0.96702965038E+02  0.47000000000E+01 0.  1.
<mgrwt>
<rscale>  0 0.27267260E+03</rscale>
<asrwt>0</asrwt>
<pdfrwt beam="1">  1        2 0.24176552E-01 0.27267260E+03</pdfrwt>
<pdfrwt beam="2">  1       -2 0.18197089E-01 0.27267260E+03</pdfrwt>
<totfact> 0.54805273E+03</totfact>
</mgrwt>
</event>
<event>
 9    1  0.2094635E-002  0.2769740E+03  0.7818608E-02  0.1097353E+00
          2   -1    0    0  501    0  0.00000000000E+00  0.00000000000E+00  0.15055550497E+04  0.15055550497E+04  0.00000000000E+00 0.  1.
         -2   -1    0    0    0  501 -0.00000000000E+00 -0.00000000000E+00 -0.12738589059E+02  0.12738589059E+02  0.00000000000E+00 0.  1.
         36    2    1    2    0    0 -0.35527136788E-14  0.71054273576E-14  0.14928164607E+04  0.15182936388E+04  0.27697398494E+03 0.  0.
         25    2    3    3    0    0  0.14258878890E+02  0.34028577514E+02  0.47177768846E+03  0.48874448156E+03  0.12221178836E+03 0.  0.
         25    2    3    3    0    0 -0.14258878890E+02 -0.34028577514E+02  0.10210387722E+04  0.10295491572E+04  0.12684649413E+03 0.  0.
          5    1    4    4  502    0 -0.21107045666E+02 -0.24229718627E+02  0.39659638890E+02  0.51259765882E+02  0.47000000000E+01 0.  1.
         -5    1    4    4    0  502  0.35365924555E+02  0.58258296141E+02  0.43211804957E+03  0.43748471568E+03  0.47000000000E+01 0.  1.
          5    1    5    5  503    0  0.33655787021E+02 -0.52946597346E+02  0.29317094109E+03  0.29984553502E+03  0.47000000000E+01 0. -1.
         -5    1    5    5    0  503 -0.47914665911E+02  0.18918019832E+02  0.72786783111E+03  0.72970362220E+03  0.47000000000E+01 0. -1.
<mgrwt>
<rscale>  0 0.27697398E+03</rscale>
<asrwt>0</asrwt>
<pdfrwt beam="1">  1        2 0.23162371E+00 0.27697398E+03</pdfrwt>
<pdfrwt beam="2">  1       -2 0.19597841E-02 0.27697398E+03</pdfrwt>
<totfact> 0.10795723E+04</totfact>
</mgrwt>
</event>
<event>
 9    1  0.2094635E-002  0.2748759E+03  0.7818608E-02  0.1098521E+00
          2   -1    0    0  501    0  0.00000000000E+00  0.00000000000E+00  0.21078778096E+04  0.21078778096E+04  0.00000000000E+00 0. -1.
         -2   -1    0    0    0  501 -0.00000000000E+00 -0.00000000000E+00 -0.89612389837E+01  0.89612389837E+01  0.00000000000E+00 0. -1.
         36    2    1    2    0    0  0.00000000000E+00  0.00000000000E+00  0.20989165706E+04  0.21168390486E+04  0.27487594875E+03 0.  0.
         25    2    3    3    0    0  0.50352921289E+02 -0.23440056375E+02  0.10438445797E+04  0.10528841576E+04  0.12597098844E+03 0.  0.
         25    2    3    3    0    0 -0.50352921289E+02  0.23440056375E+02  0.10550719909E+04  0.10639548909E+04  0.12545218615E+03 0.  0.
          5    1    4    4  502    0 -0.22753307008E+02 -0.50979438695E+02  0.32518839563E+03  0.32997908843E+03  0.47000000000E+01 0. -1.
         -5    1    4    4    0  502  0.73106228297E+02  0.27539382321E+02  0.71865618406E+03  0.72290506920E+03  0.47000000000E+01 0. -1.
          5    1    5    5  503    0 -0.87835491117E+02  0.86443824714E+01  0.53012097331E+03  0.53743849433E+03  0.47000000000E+01 0. -1.
         -5    1    5    5    0  503  0.37482569828E+02  0.14795673903E+02  0.52495101761E+03  0.52651639661E+03  0.47000000000E+01 0. -1.
<mgrwt>
<rscale>  0 0.27487595E+03</rscale>
<asrwt>0</asrwt>
<pdfrwt beam="1">  1        2 0.32428850E+00 0.27487595E+03</pdfrwt>
<pdfrwt beam="2">  1       -2 0.13786538E-02 0.27487595E+03</pdfrwt>
<totfact> 0.86986250E+03</totfact>
</mgrwt>
</event>
<event>
 9    1  0.2094635E-002  0.2742940E+03  0.7818608E-02  0.1098847E+00
          1   -1    0    0  501    0  0.00000000000E+00  0.00000000000E+00  0.15920382925E+03  0.15920382925E+03  0.00000000000E+00 0.  1.
         -1   -1    0    0    0  501 -0.00000000000E+00 -0.00000000000E+00 -0.11814599090E+03  0.11814599090E+03  0.00000000000E+00 0.  1.
         36    2    1    2    0    0  0.00000000000E+00  0.71054273576E-14  0.41057838347E+02  0.27734982015E+03  0.27429396029E+03 0.  0.
         25    2    3    3    0    0  0.28944847270E+02  0.43960053479E+02  0.48786763877E+02  0.14128729504E+03  0.12170316728E+03 0.  0.
         25    2    3    3    0    0 -0.28944847270E+02 -0.43960053479E+02 -0.77289255301E+01  0.13606252511E+03  0.12523172108E+03 0.  0.
          5    1    4    4  502    0  0.61619371675E+02  0.72855600515E+01  0.64381853677E+02  0.89538480185E+02  0.47000000000E+01 0.  1.
         -5    1    4    4    0  502 -0.32674524405E+02  0.36674493428E+02 -0.15595089800E+02  0.51748814857E+02  0.47000000000E+01 0.  1.
          5    1    5    5  503    0  0.31786889169E+02  0.13659419850E+02 -0.33455852524E+02  0.48356696970E+02  0.47000000000E+01 0.  1.
         -5    1    5    5    0  503 -0.60731736439E+02 -0.57619473330E+02  0.25726926994E+02  0.87705828143E+02  0.47000000000E+01 0.  1.
<mgrwt>
<rscale>  0 0.27429396E+03</rscale>
<asrwt>0</asrwt>
<pdfrwt beam="1">  1        1 0.24492897E-01 0.27429396E+03</pdfrwt>
<pdfrwt beam="2">  1       -1 0.18176306E-01 0.27429396E+03</pdfrwt>
<totfact> 0.45995929E+03</totfact>
</mgrwt>
</event>
<event>
 9    1  0.2094635E-002  0.2751004E+03  0.7818608E-02  0.1098395E+00
         -2   -1    0    0    0  501 -0.00000000000E+00  0.00000000000E+00  0.12258090019E+02  0.12258090019E+02  0.00000000000E+00 0. -1.
          2   -1    0    0  501    0  0.00000000000E+00 -0.00000000000E+00 -0.15434751355E+04  0.15434751355E+04  0.00000000000E+00 0. -1.
         36    2    1    2    0    0  0.71054273576E-14  0.00000000000E+00 -0.15312170455E+04  0.15557332256E+04  0.27510039733E+03 0.  0.
         25    2    3    3    0    0  0.39239452373E+02 -0.51699554154E+02 -0.63704323391E+03  0.65191798185E+03  0.12231269217E+03 0.  0.
         25    2    3    3    0    0 -0.39239452373E+02  0.51699554154E+02 -0.89417381160E+03  0.90381524370E+03  0.11455396488E+03 0.  0.
          5    1    4    4  502    0  0.80096558857E+02 -0.16499675869E+02 -0.32186962256E+03  0.33212925491E+03  0.47000000000E+01 0. -1.
         -5    1    4    4    0  502 -0.40857106485E+02 -0.35199878285E+02 -0.31517361136E+03  0.31978872694E+03  0.47000000000E+01 0. -1.
          5    1    5    5  503    0  0.27556226170E+02  0.15280009636E+02 -0.56639478648E+03  0.56729002146E+03  0.47000000000E+01 0.  1.
         -5    1    5    5    0  503 -0.66795678543E+02  0.36419544517E+02 -0.32777902512E+03  0.33652522224E+03  0.47000000000E+01 0.  1.
<mgrwt>
<rscale>  0 0.27510040E+03</rscale>
<asrwt>0</asrwt>
<pdfrwt beam="1">  1        2 0.23745757E+00 0.27510040E+03</pdfrwt>
<pdfrwt beam="2">  1       -2 0.18858612E-02 0.27510040E+03</pdfrwt>
<totfact> 0.10901738E+04</totfact>
</mgrwt>
</event>
<event>
 9    1  0.2094635E-002  0.2749328E+03  0.7818608E-02  0.1098489E+00
          3   -1    0    0  501    0  0.00000000000E+00  0.00000000000E+00  0.29499324323E+03  0.29499324323E+03  0.00000000000E+00 0.  1.
         -3   -1    0    0    0  501 -0.00000000000E+00 -0.00000000000E+00 -0.64059128096E+02  0.64059128096E+02  0.00000000000E+00 0.  1.
         36    2    1    2    0    0  0.00000000000E+00  0.17763568394E-14  0.23093411513E+03  0.35905237132E+03  0.27493279146E+03 0.  0.
         25    2    3    3    0    0 -0.59689306962E+02 -0.14491372072E+02  0.74103911302E+02  0.14860964074E+03  0.11322818740E+03 0.  0.
         25    2    3    3    0    0  0.59689306962E+02  0.14491372072E+02  0.15683020383E+03  0.21044273058E+03  0.12616503791E+03 0.  0.
          5    1    4    4  502    0 -0.16245290897E+02 -0.85957003919E+01  0.97061234442E+02  0.98897769302E+02  0.47000000000E+01 0. -1.
         -5    1    4    4    0  502 -0.43444016065E+02 -0.58956716806E+01 -0.22957323140E+02  0.49711871441E+02  0.47000000000E+01 0. -1.
          5    1    5    5  503    0 -0.27524949926E+02 -0.28270945623E+02  0.67854974543E+02  0.78633687470E+02  0.47000000000E+01 0. -1.
         -5    1    5    5    0  503  0.87214256888E+02  0.42762317696E+02  0.88975229287E+02  0.13180904311E+03  0.47000000000E+01 0. -1.
<mgrwt>
<rscale>  0 0.27493279E+03</rscale>
<asrwt>0</asrwt>
<pdfrwt beam="1">  1        3 0.45383575E-01 0.27493279E+03</pdfrwt>
<pdfrwt beam="2">  1       -3 0.98552507E-02 0.27493279E+03</pdfrwt>
<totfact> 0.93204302E+02</totfact>
</mgrwt>
</event>
<event>
 9    1  0.2094635E-002  0.2750808E+03  0.7818608E-02  0.1098406E+00
          2   -1    0    0  501    0  0.00000000000E+00  0.00000000000E+00  0.96312645942E+03  0.96312645942E+03  0.00000000000E+00 0.  1.
         -2   -1    0    0    0  501 -0.00000000000E+00 -0.00000000000E+00 -0.19641623190E+02  0.19641623190E+02  0.00000000000E+00 0.  1.
         36    2    1    2    0    0 -0.71054273576E-14  0.35527136788E-14  0.94348483623E+03  0.98276808261E+03  0.27508083903E+03 0.  0.
         25    2    3    3    0    0 -0.38663514858E+02 -0.14101071505E+02  0.62967083606E+03  0.64303183643E+03  0.12373711361E+03 0.  0.
         25    2    3    3    0    0  0.38663514858E+02  0.14101071505E+02  0.31381400017E+03  0.33973624618E+03  0.12348191230E+03 0.  0.
          5    1    4    4  502    0 -0.62333164218E+02  0.17898793090E+02  0.17656824593E+03  0.18816010636E+03  0.47000000000E+01 0.  1.
         -5    1    4    4    0  502  0.23669649360E+02 -0.31999864595E+02  0.45310259013E+03  0.45487173007E+03  0.47000000000E+01 0.  1.
          5    1    5    5  503    0  0.67381864883E+02  0.34224131311E+02  0.11428015061E+03  0.13708993290E+03  0.47000000000E+01 0.  1.
         -5    1    5    5    0  503 -0.28718350025E+02 -0.20123059805E+02  0.19953384956E+03  0.20264631327E+03  0.47000000000E+01 0.  1.
<mgrwt>
<rscale>  0 0.27508084E+03</rscale>
<asrwt>0</asrwt>
<pdfrwt beam="1">  1        2 0.14817327E+00 0.27508084E+03</pdfrwt>
<pdfrwt beam="2">  1       -2 0.30217889E-02 0.27508084E+03</pdfrwt>
<totfact> 0.11568317E+04</totfact>
</mgrwt>
</event>
<event>
 9    1  0.2094635E-002  0.2750875E+03  0.7818608E-02  0.1098403E+00
          2   -1    0    0  501    0  0.00000000000E+00  0.00000000000E+00  0.11720503626E+04  0.11720503626E+04  0.00000000000E+00 0. -1.
         -2   -1    0    0    0  501 -0.00000000000E+00 -0.00000000000E+00 -0.16141185133E+02  0.16141185133E+02  0.00000000000E+00 0. -1.
         36    2    1    2    0    0  0.00000000000E+00  0.00000000000E+00  0.11559091774E+04  0.11881915477E+04  0.27508749072E+03 0.  0.
         25    2    3    3    0    0 -0.28513657950E+02 -0.66899485213E+02  0.46993101200E+03  0.49078682621E+03  0.12144127358E+03 0.  0.
         25    2    3    3    0    0  0.28513657950E+02  0.66899485213E+02  0.68597816543E+03  0.69740472149E+03  0.10256087117E+03 0.  0.
          5    1    4    4  502    0  0.28119423900E+02 -0.77739988530E+02  0.30324361907E+03  0.31434533610E+03  0.47000000000E+01 0. -1.
         -5    1    4    4    0  502 -0.56633081850E+02  0.10840503317E+02  0.16668739293E+03  0.17644149011E+03  0.47000000000E+01 0. -1.
          5    1    5    5  503    0  0.99000431793E+01  0.92801649518E+02  0.50225855788E+03  0.51087758414E+03  0.47000000000E+01 0.  1.
         -5    1    5    5    0  503  0.18613614771E+02 -0.25902164305E+02  0.18371960755E+03  0.18652713735E+03  0.47000000000E+01 0.  1.
<mgrwt>
<rscale>  0 0.27508749E+03</rscale>
<asrwt>0</asrwt>
<pdfrwt beam="1">  1        2 0.18031537E+00 0.27508749E+03</pdfrwt>
<pdfrwt beam="2">  1       -2 0.24832602E-02 0.27508749E+03</pdfrwt>
<totfact> 0.11621089E+04</totfact>
</mgrwt>
</event>
<event>
 9    1  0.2094635E-002  0.2703565E+03  0.7818608E-02  0.1101076E+00
          1   -1    0    0  501    0  0.00000000000E+00  0.00000000000E+00  0.24860566765E+03  0.24860566765E+03  0.00000000000E+00 0. -1.
         -1   -1    0    0    0  501 -0.00000000000E+00 -0.00000000000E+00 -0.73502561295E+02  0.73502561295E+02  0.00000000000E+00 0. -1.
         36    2    1    2    0    0 -0.71054273576E-14  0.71054273576E-14  0.17510310636E+03  0.32210822895E+03  0.27035645600E+03 0.  0.
         25    2    3    3    0    0 -0.31705351721E+02 -0.35814070413E+02  0.84514345054E+02  0.16092812122E+03  0.12832501203E+03 0.  0.
         25    2    3    3    0    0  0.31705351721E+02  0.35814070413E+02  0.90588761303E+02  0.16118010772E+03  0.12443804275E+03 0.  0.
          5    1    4    4  502    0  0.14141459006E+02 -0.41242974299E+02 -0.18767552699E+02  0.47699840944E+02  0.47000000000E+01 0. -1.
         -5    1    4    4    0  502 -0.45846810727E+02  0.54289038855E+01  0.10328189775E+03  0.11322828028E+03  0.47000000000E+01 0. -1.
          5    1    5    5  503    0 -0.11184407728E+02 -0.38373076187E+02  0.55282094714E+02  0.68379704213E+02  0.47000000000E+01 0. -1.
         -5    1    5    5    0  503  0.42889759449E+02  0.74187146600E+02  0.35306666589E+02  0.92800403512E+02  0.47000000000E+01 0. -1.
<mgrwt>
<rscale>  0 0.27035646E+03</rscale>
<asrwt>0</asrwt>
<pdfrwt beam="1">  1        1 0.38247025E-01 0.27035646E+03</pdfrwt>
<pdfrwt beam="2">  1       -1 0.11308087E-01 0.27035646E+03</pdfrwt>
<totfact> 0.55499803E+03</totfact>
</mgrwt>
</event>
<event>
 9    1  0.2094635E-002  0.2756068E+03  0.7818608E-02  0.1098113E+00
          2   -1    0    0  501    0  0.00000000000E+00  0.00000000000E+00  0.87971039047E+03  0.87971039047E+03  0.00000000000E+00 0.  1.
         -2   -1    0    0    0  501 -0.00000000000E+00 -0.00000000000E+00 -0.21586398674E+02  0.21586398674E+02  0.00000000000E+00 0.  1.
         36    2    1    2    0    0  0.00000000000E+00 -0.14210854715E-13  0.85812399180E+03  0.90129678915E+03  0.27560681564E+03 0.  0.
         25    2    3    3    0    0  0.14958352540E+02 -0.56673466774E+02  0.40865884977E+03  0.42903247171E+03  0.11675261082E+03 0.  0.
         25    2    3    3    0    0 -0.14958352540E+02  0.56673466774E+02  0.44946514203E+03  0.47226431744E+03  0.13258596262E+03 0.  0.
          5    1    4    4  502    0  0.55647037040E+02 -0.10534593913E+02  0.10727490209E+03  0.12139837321E+03  0.47000000000E+01 0. -1.
         -5    1    4    4    0  502 -0.40688684500E+02 -0.46138872861E+02  0.30138394768E+03  0.30763409849E+03  0.47000000000E+01 0. -1.
          5    1    5    5  503    0 -0.45095999007E+02 -0.25964741744E+02  0.22829917095E+03  0.23420166181E+03  0.47000000000E+01 0. -1.
         -5    1    5    5    0  503  0.30137646467E+02  0.82638208518E+02  0.22116597108E+03  0.23806265563E+03  0.47000000000E+01 0. -1.
<mgrwt>
<rscale>  0 0.27560682E+03</rscale>
<asrwt>0</asrwt>
<pdfrwt beam="1">  1        2 0.13534003E+00 0.27560682E+03</pdfrwt>
<pdfrwt beam="2">  1       -2 0.33209851E-02 0.27560682E+03</pdfrwt>
<totfact> 0.11360705E+04</totfact>
</mgrwt>
</event>
<event>
 9    1  0.2094635E-002  0.2752113E+03  0.7818608E-02  0.1098334E+00
          2   -1    0    0  501    0  0.00000000000E+00  0.00000000000E+00  0.86959101259E+02  0.86959101259E+02  0.00000000000E+00 0.  1.
         -2   -1    0    0    0  501 -0.00000000000E+00 -0.00000000000E+00 -0.21774965236E+03  0.21774965236E+03  0.00000000000E+00 0.  1.
         36    2    1    2    0    0  0.35527136788E-14  0.00000000000E+00 -0.13079055110E+03  0.30470875361E+03  0.27521129387E+03 0.  0.
         25    2    3    3    0    0  0.17150180332E+02 -0.50680211312E+02 -0.55230970802E+02  0.14772855429E+03  0.12613743740E+03 0.  0.
         25    2    3    3    0    0 -0.17150180332E+02  0.50680211312E+02 -0.75559580295E+02  0.15698019932E+03  0.12677113355E+03 0.  0.
          5    1    4    4  502    0 -0.16176917277E+02  0.37049126627E+02 -0.29621027464E+02  0.50337120542E+02  0.47000000000E+01 0. -1.
         -5    1    4    4    0  502  0.33327097609E+02 -0.87729337940E+02 -0.25609943338E+02  0.97391433751E+02  0.47000000000E+01 0. -1.
          5    1    5    5  503    0  0.23951211436E+02 -0.31037446719E+02 -0.46250260714E+02  0.60812500723E+02  0.47000000000E+01 0. -1.
         -5    1    5    5    0  503 -0.41101391769E+02  0.81717658031E+02 -0.29309319581E+02  0.96167698598E+02  0.47000000000E+01 0. -1.
<mgrwt>
<rscale>  0 0.27521129E+03</rscale>
<asrwt>0</asrwt>
<pdfrwt beam="1">  1        2 0.13378323E-01 0.27521129E+03</pdfrwt>
<pdfrwt beam="2">  1       -2 0.33499947E-01 0.27521129E+03</pdfrwt>
<totfact> 0.37115213E+03</totfact>
</mgrwt>
</event>
<event>
 9    1  0.2094635E-002  0.2842807E+03  0.7818608E-02  0.1093374E+00
          2   -1    0    0  501    0  0.00000000000E+00  0.00000000000E+00  0.95973654762E+03  0.95973654762E+03  0.00000000000E+00 0. -1.
         -2   -1    0    0    0  501 -0.00000000000E+00 -0.00000000000E+00 -0.21051484326E+02  0.21051484326E+02  0.00000000000E+00 0. -1.
         36    2    1    2    0    0  0.00000000000E+00 -0.35527136788E-14  0.93868506329E+03  0.98078803194E+03  0.28428069853E+03 0.  0.
         25    2    3    3    0    0  0.73304620479E+02 -0.13252256026E+01  0.57940147117E+03  0.59476745702E+03  0.11254749898E+03 0.  0.
         25    2    3    3    0    0 -0.73304620479E+02  0.13252256026E+01  0.35928359212E+03  0.38602057492E+03  0.12063109504E+03 0.  0.
          5    1    4    4  502    0  0.16417386632E+02 -0.16351565515E+02  0.16622556584E+02  0.28901620473E+02  0.47000000000E+01 0.  1.
         -5    1    4    4    0  502  0.56887233847E+02  0.15026339912E+02  0.56277891458E+03  0.56586583654E+03  0.47000000000E+01 0.  1.
          5    1    5    5  503    0 -0.68855144129E+02 -0.52220322768E+02  0.20248723989E+03  0.22020709639E+03  0.47000000000E+01 0. -1.
         -5    1    5    5    0  503 -0.44494763496E+01  0.53545548370E+02  0.15679635223E+03  0.16581347853E+03  0.47000000000E+01 0. -1.
<mgrwt>
<rscale>  0 0.28428070E+03</rscale>
<asrwt>0</asrwt>
<pdfrwt beam="1">  1        2 0.14765174E+00 0.28428070E+03</pdfrwt>
<pdfrwt beam="2">  1       -2 0.32386906E-02 0.28428070E+03</pdfrwt>
<totfact> 0.10493828E+04</totfact>
</mgrwt>
</event>
<event>
 9    1  0.2094635E-002  0.2743852E+03  0.7818608E-02  0.1098796E+00
         -2   -1    0    0    0  501 -0.00000000000E+00  0.00000000000E+00  0.33602505537E+03  0.33602505537E+03  0.00000000000E+00 0.  1.
          2   -1    0    0  501    0  0.00000000000E+00 -0.00000000000E+00 -0.56013107575E+02  0.56013107575E+02  0.00000000000E+00 0.  1.
         36    2    1    2    0    0 -0.14210854715E-13 -0.71054273576E-14  0.28001194779E+03  0.39203816294E+03  0.27438518600E+03 0.  0.
         25    2    3    3    0    0  0.52707252353E+02  0.28481376049E+02  0.14164954545E+03  0.19681943980E+03  0.12281716055E+03 0.  0.
         25    2    3    3    0    0 -0.52707252353E+02 -0.28481376049E+02  0.13836240234E+03  0.19521872314E+03  0.12400383966E+03 0.  0.
          5    1    4    4  502    0 -0.65169870090E+01 -0.38601918413E+02  0.16141932054E+02  0.42605530102E+02  0.47000000000E+01 0.  1.
         -5    1    4    4    0  502  0.59224239362E+02  0.67083294462E+02  0.12550761340E+03  0.15421390970E+03  0.47000000000E+01 0.  1.
          5    1    5    5  503    0  0.10151619703E+02  0.14575266683E+02  0.11343842070E+03  0.11491674845E+03  0.47000000000E+01 0.  1.
         -5    1    5    5    0  503 -0.62858872056E+02 -0.43056642731E+02  0.24923981635E+02  0.80301974695E+02  0.47000000000E+01 0.  1.
<mgrwt>
<rscale>  0 0.27438519E+03</rscale>
<asrwt>0</asrwt>
<pdfrwt beam="1">  1        2 0.86174014E-02 0.27438519E+03</pdfrwt>
<pdfrwt beam="2">  1       -2 0.51696161E-01 0.27438519E+03</pdfrwt>
<totfact> 0.27672712E+03</totfact>
</mgrwt>
</event>
<event>
 9    1  0.2094635E-002  0.2685948E+03  0.7818608E-02  0.1102087E+00
         -1   -1    0    0    0  501 -0.00000000000E+00  0.00000000000E+00  0.20318360754E+03  0.20318360754E+03  0.00000000000E+00 0.  1.
          1   -1    0    0  501    0  0.00000000000E+00 -0.00000000000E+00 -0.88765990942E+02  0.88765990942E+02  0.00000000000E+00 0.  1.
         36    2    1    2    0    0  0.71054273576E-14  0.71054273576E-14  0.11441761660E+03  0.29194959848E+03  0.26859481951E+03 0.  0.
         25    2    3    3    0    0  0.25762450373E+02 -0.96067512035E+01  0.30976852334E+02  0.14056749625E+03  0.13432669914E+03 0.  0.
         25    2    3    3    0    0 -0.25762450373E+02  0.96067512035E+01  0.83440764265E+02  0.15138210224E+03  0.12328092398E+03 0.  0.
          5    1    4    4  502    0 -0.10005931644E+02  0.57609851568E+02  0.25866305208E+02  0.64110602953E+02  0.47000000000E+01 0. -1.
         -5    1    4    4    0  502  0.35768382018E+02 -0.67216602772E+02  0.51105471260E+01  0.76456893295E+02  0.47000000000E+01 0. -1.
          5    1    5    5  503    0  0.18891111656E+02  0.48122561816E+02  0.75602257788E+02  0.91708486183E+02  0.47000000000E+01 0.  1.
         -5    1    5    5    0  503 -0.44653562030E+02 -0.38515810612E+02  0.78385064769E+01  0.59673616053E+02  0.47000000000E+01 0.  1.
<mgrwt>
<rscale>  0 0.26859482E+03</rscale>
<asrwt>0</asrwt>
<pdfrwt beam="1">  1        1 0.13656306E-01 0.26859482E+03</pdfrwt>
<pdfrwt beam="2">  1       -1 0.31259016E-01 0.26859482E+03</pdfrwt>
<totfact> 0.39917218E+03</totfact>
</mgrwt>
</event>
<event>
 9    1  0.2094635E-002  0.2746565E+03  0.7818608E-02  0.1098644E+00
         -1   -1    0    0    0  501 -0.00000000000E+00  0.00000000000E+00  0.19900345875E+02  0.19900345875E+02  0.00000000000E+00 0.  1.
          1   -1    0    0  501    0  0.00000000000E+00 -0.00000000000E+00 -0.94767472262E+03  0.94767472262E+03  0.00000000000E+00 0.  1.
         36    2    1    2    0    0  0.00000000000E+00  0.00000000000E+00 -0.92777437674E+03  0.96757506849E+03  0.27465654740E+03 0.  0.
         25    2    3    3    0    0  0.35566681777E+02  0.97300209535E-01 -0.61100906286E+03  0.62455608405E+03  0.12439143422E+03 0.  0.
         25    2    3    3    0    0 -0.35566681777E+02 -0.97300209535E-01 -0.31676531388E+03  0.34301898444E+03  0.12671527646E+03 0.  0.
          5    1    4    4  502    0 -0.12853360486E+02  0.52949364852E+02 -0.20125904130E+03  0.20855727228E+03  0.47000000000E+01 0. -1.
         -5    1    4    4    0  502  0.48420042263E+02 -0.52852064642E+02 -0.40975002156E+03  0.41599881177E+03  0.47000000000E+01 0. -1.
          5    1    5    5  503    0  0.29537087789E+02 -0.43548365502E+02 -0.14027863391E+03  0.14989691400E+03  0.47000000000E+01 0.  1.
         -5    1    5    5    0  503 -0.65103769566E+02  0.43451065293E+02 -0.17648667997E+03  0.19312207044E+03  0.47000000000E+01 0.  1.
<mgrwt>
<rscale>  0 0.27465655E+03</rscale>
<asrwt>0</asrwt>
<pdfrwt beam="1">  1        1 0.14579610E+00 0.27465655E+03</pdfrwt>
<pdfrwt beam="2">  1       -1 0.30615919E-02 0.27465655E+03</pdfrwt>
<totfact> 0.64093564E+03</totfact>
</mgrwt>
</event>
<event>
 9    1  0.2094635E-002  0.2788213E+03  0.7818608E-02  0.1096334E+00
         -1   -1    0    0    0  501 -0.00000000000E+00  0.00000000000E+00  0.70929628272E+01  0.70929628272E+01  0.00000000000E+00 0. -1.
          1   -1    0    0  501    0  0.00000000000E+00 -0.00000000000E+00 -0.27400852661E+04  0.27400852661E+04  0.00000000000E+00 0. -1.
         36    2    1    2    0    0  0.71054273576E-14  0.00000000000E+00 -0.27329923032E+04  0.27471782289E+04  0.27882125411E+03 0.  0.
         25    2    3    3    0    0 -0.98154243980E+01 -0.58401433443E+02 -0.15169117279E+04  0.15230844894E+04  0.12352368797E+03 0.  0.
         25    2    3    3    0    0  0.98154243980E+01  0.58401433443E+02 -0.12160805753E+04  0.12240937395E+04  0.12667457312E+03 0.  0.
          5    1    4    4  502    0  0.44085349614E+02  0.12476631416E+02 -0.63832049164E+03  0.63997994065E+03  0.47000000000E+01 0.  1.
         -5    1    4    4    0  502 -0.53900774012E+02 -0.70878064860E+02 -0.87859123630E+03  0.88310454875E+03  0.47000000000E+01 0.  1.
          5    1    5    5  503    0 -0.49711805948E+02  0.51935909637E+02 -0.85716219281E+03  0.86018469943E+03  0.47000000000E+01 0.  1.
         -5    1    5    5    0  503  0.59527230346E+02  0.64655238063E+01 -0.35891838248E+03  0.36390904005E+03  0.47000000000E+01 0.  1.
<mgrwt>
<rscale>  0 0.27882125E+03</rscale>
<asrwt>0</asrwt>
<pdfrwt beam="1">  1        1 0.42155261E+00 0.27882125E+03</pdfrwt>
<pdfrwt beam="2">  1       -1 0.10912224E-02 0.27882125E+03</pdfrwt>
<totfact> 0.18119202E+03</totfact>
</mgrwt>
</event>
<event>
 9    1  0.2094635E-002  0.2751821E+03  0.7818608E-02  0.1098350E+00
          4   -1    0    0  501    0  0.00000000000E+00  0.00000000000E+00  0.69911556830E+02  0.69911556830E+02  0.00000000000E+00 0.  1.
         -4   -1    0    0    0  501 -0.00000000000E+00 -0.00000000000E+00 -0.27078917781E+03  0.27078917781E+03  0.00000000000E+00 0.  1.
         36    2    1    2    0    0  0.71054273576E-14  0.00000000000E+00 -0.20087762098E+03  0.34070073464E+03  0.27518207059E+03 0.  0.
         25    2    3    3    0    0 -0.18490130043E+02  0.33430158531E+02 -0.43262837080E+02  0.14002006376E+03  0.12757148888E+03 0.  0.
         25    2    3    3    0    0  0.18490130043E+02 -0.33430158531E+02 -0.15761478390E+03  0.20068067087E+03  0.11819835511E+03 0.  0.
          5    1    4    4  502    0 -0.60668310000E+02 -0.10523557191E+02  0.52893443776E+01  0.61979482558E+02  0.47000000000E+01 0. -1.
         -5    1    4    4    0  502  0.42178179958E+02  0.43953715723E+02 -0.48552181458E+02  0.78040581204E+02  0.47000000000E+01 0. -1.
          5    1    5    5  503    0  0.22527551496E+02 -0.37281048395E+02 -0.17575246174E+03  0.18113085036E+03  0.47000000000E+01 0.  1.
         -5    1    5    5    0  503 -0.40374214536E+01  0.38508898639E+01  0.18137677840E+02  0.19549820515E+02  0.47000000000E+01 0.  1.
<mgrwt>
<rscale>  0 0.27518207E+03</rscale>
<asrwt>0</asrwt>
<pdfrwt beam="1">  1        4 0.10755624E-01 0.27518207E+03</pdfrwt>
<pdfrwt beam="2">  1       -4 0.41659874E-01 0.27518207E+03</pdfrwt>
<totfact> 0.70517885E+02</totfact>
</mgrwt>
</event>
<event>
 9    1  0.2094635E-002  0.2752064E+03  0.7818608E-02  0.1098336E+00
          2   -1    0    0  501    0  0.00000000000E+00  0.00000000000E+00  0.98499520543E+02  0.98499520543E+02  0.00000000000E+00 0. -1.
         -2   -1    0    0    0  501 -0.00000000000E+00 -0.00000000000E+00 -0.19223081083E+03  0.19223081083E+03  0.00000000000E+00 0. -1.
         36    2    1    2    0    0  0.00000000000E+00  0.00000000000E+00 -0.93731290282E+02  0.29073033137E+03  0.27520641489E+03 0.  0.
         25    2    3    3    0    0 -0.22756522389E+02 -0.52058592621E+02 -0.62581037756E+02  0.15350714121E+03  0.12814093702E+03 0.  0.
         25    2    3    3    0    0  0.22756522389E+02  0.52058592621E+02 -0.31150252526E+02  0.13722319016E+03  0.12096242932E+03 0.  0.
          5    1    4    4  502    0 -0.68396107549E+02 -0.83462430139E+01 -0.73640072623E+01  0.69455063913E+02  0.47000000000E+01 0.  1.
         -5    1    4    4    0  502  0.45639585160E+02 -0.43712349607E+02 -0.55217030494E+02  0.84052077299E+02  0.47000000000E+01 0.  1.
          5    1    5    5  503    0 -0.98264643402E+00  0.72196671046E+02 -0.60397652451E+02  0.94251213922E+02  0.47000000000E+01 0. -1.
         -5    1    5    5    0  503  0.23739168823E+02 -0.20138078424E+02  0.29247399925E+02  0.42971976234E+02  0.47000000000E+01 0. -1.
<mgrwt>
<rscale>  0 0.27520641E+03</rscale>
<asrwt>0</asrwt>
<pdfrwt beam="1">  1        2 0.15153772E-01 0.27520641E+03</pdfrwt>
<pdfrwt beam="2">  1       -2 0.29573971E-01 0.27520641E+03</pdfrwt>
<totfact> 0.40188887E+03</totfact>
</mgrwt>
</event>
<event>
 9    1  0.2094635E-002  0.2754880E+03  0.7818608E-02  0.1098179E+00
         -1   -1    0    0    0  501 -0.00000000000E+00  0.00000000000E+00  0.25333432587E+02  0.25333432587E+02  0.00000000000E+00 0. -1.
          1   -1    0    0  501    0  0.00000000000E+00 -0.00000000000E+00 -0.74894717457E+03  0.74894717457E+03  0.00000000000E+00 0. -1.
         36    2    1    2    0    0  0.00000000000E+00  0.00000000000E+00 -0.72361374198E+03  0.77428060716E+03  0.27548795079E+03 0.  0.
         25    2    3    3    0    0 -0.11832871638E+02 -0.12033846504E+02 -0.29838582015E+03  0.32558283674E+03  0.12917141943E+03 0.  0.
         25    2    3    3    0    0  0.11832871638E+02  0.12033846504E+02 -0.42522792183E+03  0.44869777042E+03  0.14221840022E+03 0.  0.
          5    1    4    4  502    0 -0.54850634405E+02 -0.55977078747E+01 -0.54020146706E+02  0.77331705517E+02  0.47000000000E+01 0.  1.
         -5    1    4    4    0  502  0.43017762767E+02 -0.64361386289E+01 -0.24436567345E+03  0.24825113122E+03  0.47000000000E+01 0.  1.
          5    1    5    5  503    0 -0.32086370225E+02  0.33068013852E+02 -0.42513280825E+02  0.62868893269E+02  0.47000000000E+01 0. -1.
         -5    1    5    5    0  503  0.43919241863E+02 -0.21034167349E+02 -0.38271464101E+03  0.38582887715E+03  0.47000000000E+01 0. -1.
<mgrwt>
<rscale>  0 0.27548795E+03</rscale>
<asrwt>0</asrwt>
<pdfrwt beam="1">  1        1 0.11522263E+00 0.27548795E+03</pdfrwt>
<pdfrwt beam="2">  1       -1 0.38974516E-02 0.27548795E+03</pdfrwt>
<totfact> 0.65013703E+03</totfact>
</mgrwt>
</event>
<event>
 9    1  0.2094635E-002  0.2752477E+03  0.7818608E-02  0.1098313E+00
         -1   -1    0    0    0  501 -0.00000000000E+00  0.00000000000E+00  0.12205089400E+04  0.12205089400E+04  0.00000000000E+00 0.  1.
          1   -1    0    0  501    0  0.00000000000E+00 -0.00000000000E+00 -0.15518381649E+02  0.15518381649E+02  0.00000000000E+00 0.  1.
         36    2    1    2    0    0  0.00000000000E+00  0.00000000000E+00  0.12049905584E+04  0.12360273217E+04  0.27524769599E+03 0.  0.
         25    2    3    3    0    0  0.30432721727E+01 -0.38717409531E+02  0.85991037675E+03  0.86973277355E+03  0.12442243385E+03 0.  0.
         25    2    3    3    0    0 -0.30432721727E+01  0.38717409531E+02  0.34508018161E+03  0.36629454811E+03  0.11654640675E+03 0.  0.
          5    1    4    4  502    0 -0.14792333206E+02 -0.72967691970E+02  0.32686944016E+03  0.33527424313E+03  0.47000000000E+01 0. -1.
         -5    1    4    4    0  502  0.17835605379E+02  0.34250282439E+02  0.53304093659E+03  0.53445853043E+03  0.47000000000E+01 0. -1.
          5    1    5    5  503    0 -0.16295062645E+02 -0.17446929017E+02  0.27187270805E+03  0.27295930792E+03  0.47000000000E+01 0.  1.
         -5    1    5    5    0  503  0.13251790472E+02  0.56164338548E+02  0.73207473564E+02  0.93335240188E+02  0.47000000000E+01 0.  1.
<mgrwt>
<rscale>  0 0.27524770E+03</rscale>
<asrwt>0</asrwt>
<pdfrwt beam="1">  1        1 0.23874443E-02 0.27524770E+03</pdfrwt>
<pdfrwt beam="2">  1       -1 0.18777053E+00 0.27524770E+03</pdfrwt>
<totfact> 0.95105238E+02</totfact>
</mgrwt>
</event>
<event>
 9    1  0.2094635E-002  0.2746530E+03  0.7818608E-02  0.1098646E+00
         -2   -1    0    0    0  501 -0.00000000000E+00  0.00000000000E+00  0.60826085045E+02  0.60826085045E+02  0.00000000000E+00 0.  1.
          2   -1    0    0  501    0  0.00000000000E+00 -0.00000000000E+00 -0.31004073618E+03  0.31004073618E+03  0.00000000000E+00 0.  1.
         36    2    1    2    0    0 -0.71054273576E-14  0.00000000000E+00 -0.24921465113E+03  0.37086682122E+03  0.27465297512E+03 0.  0.
         25    2    3    3    0    0 -0.13386772234E+02 -0.57690545104E+02 -0.93749151932E+02  0.16350393401E+03  0.12015501773E+03 0.  0.
         25    2    3    3    0    0  0.13386772234E+02  0.57690545104E+02 -0.15546549920E+03  0.20736288721E+03  0.12378384743E+03 0.  0.
          5    1    4    4  502    0  0.33261607123E+02  0.12048292101E+02  0.24484444560E+01  0.35771227700E+02  0.47000000000E+01 0. -1.
         -5    1    4    4    0  502 -0.46648379357E+02 -0.69738837204E+02 -0.96197596388E+02  0.12773270631E+03  0.47000000000E+01 0. -1.
          5    1    5    5  503    0 -0.32414664443E+02  0.22307783315E+02  0.18509000970E+01  0.39671948510E+02  0.47000000000E+01 0.  1.
         -5    1    5    5    0  503  0.45801436678E+02  0.35382761788E+02 -0.15731639930E+03  0.16769093870E+03  0.47000000000E+01 0.  1.
<mgrwt>
<rscale>  0 0.27465298E+03</rscale>
<asrwt>0</asrwt>
<pdfrwt beam="1">  1        2 0.47698575E-01 0.27465298E+03</pdfrwt>
<pdfrwt beam="2">  1       -2 0.93578593E-02 0.27465298E+03</pdfrwt>
<totfact> 0.77241660E+03</totfact>
</mgrwt>
</event>
<event>
 9    1  0.2094635E-002  0.2751963E+03  0.7818608E-02  0.1098342E+00
         -1   -1    0    0    0  501 -0.00000000000E+00  0.00000000000E+00  0.30488487300E+02  0.30488487300E+02  0.00000000000E+00 0. -1.
          1   -1    0    0  501    0  0.00000000000E+00 -0.00000000000E+00 -0.62099680764E+03  0.62099680764E+03  0.00000000000E+00 0. -1.
         36    2    1    2    0    0  0.00000000000E+00  0.71054273576E-14 -0.59050832034E+03  0.65148529494E+03  0.27519631744E+03 0.  0.
         25    2    3    3    0    0 -0.50502817342E+02 -0.16926775123E+02 -0.28294789580E+03  0.31384464172E+03  0.12490755430E+03 0.  0.
         25    2    3    3    0    0  0.50502817342E+02  0.16926775123E+02 -0.30756042453E+03  0.33764065322E+03  0.12872740847E+03 0.  0.
          5    1    4    4  502    0 -0.15921437406E+02  0.52041080743E+02 -0.15520407492E+03  0.16453620004E+03  0.47000000000E+01 0. -1.
         -5    1    4    4    0  502 -0.34581379936E+02 -0.68967855865E+02 -0.12774382088E+03  0.14930844167E+03  0.47000000000E+01 0. -1.
          5    1    5    5  503    0  0.57089191744E+02  0.63718927701E+02 -0.14640214955E+03  0.16963182766E+03  0.47000000000E+01 0. -1.
         -5    1    5    5    0  503 -0.65863744022E+01 -0.46792152578E+02 -0.16115827498E+03  0.16800882556E+03  0.47000000000E+01 0. -1.
<mgrwt>
<rscale>  0 0.27519632E+03</rscale>
<asrwt>0</asrwt>
<pdfrwt beam="1">  1        1 0.95537966E-01 0.27519632E+03</pdfrwt>
<pdfrwt beam="2">  1       -1 0.46905367E-02 0.27519632E+03</pdfrwt>
<totfact> 0.64695203E+03</totfact>
</mgrwt>
</event>
<event>
 9    1  0.2094635E-002  0.2742017E+03  0.7818608E-02  0.1098899E+00
         -2   -1    0    0    0  501 -0.00000000000E+00  0.00000000000E+00  0.30766667722E+02  0.30766667722E+02  0.00000000000E+00 0.  1.
          2   -1    0    0  501    0  0.00000000000E+00 -0.00000000000E+00 -0.61094159649E+03  0.61094159649E+03  0.00000000000E+00 0.  1.
         36    2    1    2    0    0  0.00000000000E+00  0.26645352591E-14 -0.58017492876E+03  0.64170826421E+03  0.27420165643E+03 0.  0.
         25    2    3    3    0    0 -0.45595451423E+02  0.46389555708E-01 -0.34851252117E+03  0.37495150281E+03  0.13057068853E+03 0.  0.
         25    2    3    3    0    0  0.45595451423E+02 -0.46389555708E-01 -0.23166240759E+03  0.26675676140E+03  0.12414810236E+03 0.  0.
          5    1    4    4  502    0 -0.62122963054E+02 -0.51254859604E+01 -0.35127687389E+03  0.35679555108E+03  0.47000000000E+01 0.  1.
         -5    1    4    4    0  502  0.16527511631E+02  0.51718755161E+01  0.27643527159E+01  0.18155951724E+02  0.47000000000E+01 0.  1.
          5    1    5    5  503    0  0.26029417155E+02  0.51025927072E+02 -0.47421765352E+02  0.74512345420E+02  0.47000000000E+01 0. -1.
         -5    1    5    5    0  503  0.19566034268E+02 -0.51072316627E+02 -0.18424064224E+03  0.19224441598E+03  0.47000000000E+01 0. -1.
<mgrwt>
<rscale>  0 0.27420166E+03</rscale>
<asrwt>0</asrwt>
<pdfrwt beam="1">  1        2 0.93991005E-01 0.27420166E+03</pdfrwt>
<pdfrwt beam="2">  1       -2 0.47333340E-02 0.27420166E+03</pdfrwt>
<totfact> 0.10464269E+04</totfact>
</mgrwt>
</event>
<event>
 9    1  0.2094635E-002  0.2757332E+03  0.7818608E-02  0.1098042E+00
          2   -1    0    0  501    0  0.00000000000E+00  0.00000000000E+00  0.14544067871E+04  0.14544067871E+04  0.00000000000E+00 0.  1.
         -2   -1    0    0    0  501 -0.00000000000E+00 -0.00000000000E+00 -0.13068697053E+02  0.13068697053E+02  0.00000000000E+00 0.  1.
         36    2    1    2    0    0  0.00000000000E+00  0.00000000000E+00  0.14413380900E+04  0.14674754841E+04  0.27573321666E+03 0.  0.
         25    2    3    3    0    0  0.54265202814E+02  0.22846064644E+02  0.94220830853E+03  0.94952067630E+03  0.10181533845E+03 0.  0.
         25    2    3    3    0    0 -0.54265202814E+02 -0.22846064644E+02  0.49912978149E+03  0.51795480783E+03  0.12521976393E+03 0.  0.
          5    1    4    4  502    0  0.72194827668E+02  0.33876546534E+02  0.46404019743E+03  0.47086633812E+03  0.47000000000E+01 0. -1.
         -5    1    4    4    0  502 -0.17929624854E+02 -0.11030481890E+02  0.47816811111E+03  0.47865433818E+03  0.47000000000E+01 0. -1.
          5    1    5    5  503    0  0.15974830741E+02 -0.23721123729E+01  0.38196455367E+01  0.17248241254E+02  0.47000000000E+01 0. -1.
         -5    1    5    5    0  503 -0.70240033555E+02 -0.20473952271E+02  0.49531013595E+03  0.50070656657E+03  0.47000000000E+01 0. -1.
<mgrwt>
<rscale>  0 0.27573322E+03</rscale>
<asrwt>0</asrwt>
<pdfrwt beam="1">  1        2 0.22375476E+00 0.27573322E+03</pdfrwt>
<pdfrwt beam="2">  1       -2 0.20105699E-02 0.27573322E+03</pdfrwt>
<totfact> 0.11074402E+04</totfact>
</mgrwt>
</event>
<event>
 9    1  0.2094635E-002  0.2750287E+03  0.7818608E-02  0.1098436E+00
          2   -1    0    0  501    0  0.00000000000E+00  0.00000000000E+00  0.20071939665E+03  0.20071939665E+03  0.00000000000E+00 0. -1.
         -2   -1    0    0    0  501 -0.00000000000E+00 -0.00000000000E+00 -0.94212134114E+02  0.94212134114E+02  0.00000000000E+00 0. -1.
         36    2    1    2    0    0  0.00000000000E+00  0.00000000000E+00  0.10650726254E+03  0.29493153077E+03  0.27502874553E+03 0.  0.
         25    2    3    3    0    0  0.43412284553E+02  0.29235901415E+02  0.10387822453E+03  0.15728821063E+03  0.10587507397E+03 0.  0.
         25    2    3    3    0    0 -0.43412284553E+02 -0.29235901415E+02  0.26290380072E+01  0.13764332014E+03  0.12727689247E+03 0.  0.
          5    1    4    4  502    0 -0.12490563446E+02 -0.31333510331E+00  0.91770233645E+02  0.92736067079E+02  0.47000000000E+01 0.  1.
         -5    1    4    4    0  502  0.55902847999E+02  0.29549236518E+02  0.12107990887E+02  0.64552143547E+02  0.47000000000E+01 0.  1.
          5    1    5    5  503    0 -0.68254526655E+02  0.27878739946E+02  0.10753215199E+02  0.74656722316E+02  0.47000000000E+01 0. -1.
         -5    1    5    5    0  503  0.24842242103E+02 -0.57114641361E+02 -0.81241771917E+01  0.62986597824E+02  0.47000000000E+01 0. -1.
<mgrwt>
<rscale>  0 0.27502875E+03</rscale>
<asrwt>0</asrwt>
<pdfrwt beam="1">  1        2 0.30879907E-01 0.27502875E+03</pdfrwt>
<pdfrwt beam="2">  1       -2 0.14494175E-01 0.27502875E+03</pdfrwt>
<totfact> 0.61089883E+03</totfact>
</mgrwt>
</event>
<event>
 9    1  0.2094635E-002  0.2786344E+03  0.7818608E-02  0.1096437E+00
          2   -1    0    0  501    0  0.00000000000E+00  0.00000000000E+00  0.10661959219E+04  0.10661959219E+04  0.00000000000E+00 0.  1.
         -2   -1    0    0    0  501 -0.00000000000E+00 -0.00000000000E+00 -0.18204232139E+02  0.18204232139E+02  0.00000000000E+00 0.  1.
         36    2    1    2    0    0  0.00000000000E+00 -0.14210854715E-13  0.10479916898E+04  0.10844001540E+04  0.27863437023E+03 0.  0.
         25    2    3    3    0    0  0.24316165697E+02  0.40722959232E+02  0.47602442021E+03  0.49708458399E+03  0.13507109121E+03 0.  0.
         25    2    3    3    0    0 -0.24316165697E+02 -0.40722959232E+02  0.57196726954E+03  0.58731557004E+03  0.12467311684E+03 0.  0.
          5    1    4    4  502    0 -0.27523516788E+02 -0.30159096434E+02  0.26950402925E+03  0.27261993114E+03  0.47000000000E+01 0.  1.
         -5    1    4    4    0  502  0.51839682485E+02  0.70882055666E+02  0.20652039096E+03  0.22446465285E+03  0.47000000000E+01 0.  1.
          5    1    5    5  503    0 -0.24923089682E+02  0.24082834815E+02  0.48305283629E+02  0.59637519722E+02  0.47000000000E+01 0.  1.
         -5    1    5    5    0  503  0.60692398571E+00 -0.64805794047E+02  0.52366198591E+03  0.52767805032E+03  0.47000000000E+01 0.  1.
<mgrwt>
<rscale>  0 0.27863437E+03</rscale>
<asrwt>0</asrwt>
<pdfrwt beam="1">  1        2 0.16403009E+00 0.27863437E+03</pdfrwt>
<pdfrwt beam="2">  1       -2 0.28006519E-02 0.27863437E+03</pdfrwt>
<totfact> 0.11213943E+04</totfact>
</mgrwt>
</event>
<event>
 9    1  0.2094635E-002  0.2742766E+03  0.7818608E-02  0.1098857E+00
         -1   -1    0    0    0  501 -0.00000000000E+00  0.00000000000E+00  0.71261647986E+02  0.71261647986E+02  0.00000000000E+00 0.  1.
          1   -1    0    0  501    0  0.00000000000E+00 -0.00000000000E+00 -0.26391345210E+03  0.26391345210E+03  0.00000000000E+00 0.  1.
         36    2    1    2    0    0  0.71054273576E-14  0.00000000000E+00 -0.19265180412E+03  0.33517510009E+03  0.27427655768E+03 0.  0.
         25    2    3    3    0    0  0.43302687817E+02  0.33935261364E+02 -0.50993538222E+02  0.13884863316E+03  0.11684124808E+03 0.  0.
         25    2    3    3    0    0 -0.43302687817E+02 -0.33935261364E+02 -0.14165826589E+03  0.19632646693E+03  0.12429920589E+03 0.  0.
          5    1    4    4  502    0  0.59344621237E+02 -0.23260534634E+02 -0.46600772707E+02  0.79098410592E+02  0.47000000000E+01 0.  1.
         -5    1    4    4    0  502 -0.16041933420E+02  0.57195795998E+02 -0.43927655152E+01  0.59750222565E+02  0.47000000000E+01 0.  1.
          5    1    5    5  503    0 -0.86253646160E+02 -0.11759207742E+02 -0.95842207531E+02  0.12955998297E+03  0.47000000000E+01 0. -1.
         -5    1    5    5    0  503  0.42950958343E+02 -0.22176053622E+02 -0.45816058363E+02  0.66766483963E+02  0.47000000000E+01 0. -1.
<mgrwt>
<rscale>  0 0.27427656E+03</rscale>
<asrwt>0</asrwt>
<pdfrwt beam="1">  1        1 0.40602069E-01 0.27427656E+03</pdfrwt>
<pdfrwt beam="2">  1       -1 0.10963331E-01 0.27427656E+03</pdfrwt>
<totfact> 0.54056394E+03</totfact>
</mgrwt>
</event>
<event>
 9    1  0.2094635E-002  0.2786318E+03  0.7818608E-02  0.1096439E+00
          2   -1    0    0  501    0  0.00000000000E+00  0.00000000000E+00  0.17794725385E+03  0.17794725385E+03  0.00000000000E+00 0. -1.
         -2   -1    0    0    0  501 -0.00000000000E+00 -0.00000000000E+00 -0.10907122597E+03  0.10907122597E+03  0.00000000000E+00 0. -1.
         36    2    1    2    0    0 -0.71054273576E-14  0.00000000000E+00  0.68876027881E+02  0.28701847983E+03  0.27863183692E+03 0.  0.
         25    2    3    3    0    0 -0.74508463425E+01  0.37795843850E+02  0.68741008517E+02  0.15007261095E+03  0.12772008997E+03 0.  0.
         25    2    3    3    0    0  0.74508463425E+01 -0.37795843850E+02  0.13501936447E+00  0.13694586888E+03  0.13141579756E+03 0.  0.
          5    1    4    4  502    0  0.35299444959E+02  0.94563227247E+00 -0.22895556677E+02  0.42346682873E+02  0.47000000000E+01 0. -1.
         -5    1    4    4    0  502 -0.42750291302E+02  0.36850211578E+02  0.91636565193E+02  0.10772592808E+03  0.47000000000E+01 0. -1.
          5    1    5    5  503    0  0.61022534808E+02 -0.10794723533E+02 -0.30714639144E+02  0.69323552046E+02  0.47000000000E+01 0.  1.
         -5    1    5    5    0  503 -0.53571688465E+02 -0.27001120317E+02  0.30849658509E+02  0.67622316830E+02  0.47000000000E+01 0.  1.
<mgrwt>
<rscale>  0 0.27863184E+03</rscale>
<asrwt>0</asrwt>
<pdfrwt beam="1">  1        2 0.27376501E-01 0.27863184E+03</pdfrwt>
<pdfrwt beam="2">  1       -2 0.16780189E-01 0.27863184E+03</pdfrwt>
<totfact> 0.54724841E+03</totfact>
</mgrwt>
</event>
<event>
 9    1  0.2094635E-002  0.2736393E+03  0.7818608E-02  0.1099215E+00
         -2   -1    0    0    0  501 -0.00000000000E+00  0.00000000000E+00  0.54699960387E+02  0.54699960387E+02  0.00000000000E+00 0. -1.
          2   -1    0    0  501    0  0.00000000000E+00 -0.00000000000E+00 -0.34222355191E+03  0.34222355191E+03  0.00000000000E+00 0. -1.
         36    2    1    2    0    0 -0.35527136788E-14  0.71054273576E-14 -0.28752359153E+03  0.39692351230E+03  0.27363928616E+03 0.  0.
         25    2    3    3    0    0  0.13793541291E+02  0.52089749615E+02 -0.12559359765E+03  0.18659713107E+03  0.12704776172E+03 0.  0.
         25    2    3    3    0    0 -0.13793541291E+02 -0.52089749615E+02 -0.16192999388E+03  0.21032638122E+03  0.12293193209E+03 0.  0.
          5    1    4    4  502    0 -0.33160365062E+02  0.70951710114E+02 -0.42593223691E+02  0.89275011530E+02  0.47000000000E+01 0. -1.
         -5    1    4    4    0  502  0.46953906353E+02 -0.18861960500E+02 -0.83000373957E+02  0.97322119545E+02  0.47000000000E+01 0. -1.
          5    1    5    5  503    0 -0.31029367032E+01 -0.74714571978E+02 -0.38388012581E+02  0.84188033544E+02  0.47000000000E+01 0.  1.
         -5    1    5    5    0  503 -0.10690604588E+02  0.22624822364E+02 -0.12354198129E+03  0.12613834768E+03  0.47000000000E+01 0.  1.
<mgrwt>
<rscale>  0 0.27363929E+03</rscale>
<asrwt>0</asrwt>
<pdfrwt beam="1">  1        2 0.52649778E-01 0.27363929E+03</pdfrwt>
<pdfrwt beam="2">  1       -2 0.84153784E-02 0.27363929E+03</pdfrwt>
<totfact> 0.82070180E+03</totfact>
</mgrwt>
</event>
<event>
 9    1  0.2094635E-002  0.2748734E+03  0.7818608E-02  0.1098522E+00
          3   -1    0    0  501    0  0.00000000000E+00  0.00000000000E+00  0.40403002951E+02  0.40403002951E+02  0.00000000000E+00 0. -1.
         -3   -1    0    0    0  501 -0.00000000000E+00 -0.00000000000E+00 -0.46751095661E+03  0.46751095661E+03  0.00000000000E+00 0. -1.
         36    2    1    2    0    0  0.00000000000E+00  0.00000000000E+00 -0.42710795366E+03  0.50791395956E+03  0.27487340038E+03 0.  0.
         25    2    3    3    0    0 -0.14642350737E+02  0.14281911959E+01 -0.99579015232E+02  0.15826229554E+03  0.12212508240E+03 0.  0.
         25    2    3    3    0    0  0.14642350737E+02 -0.14281911959E+01 -0.32752893843E+03  0.34965166402E+03  0.12150984520E+03 0.  0.
          5    1    4    4  502    0  0.42977381107E+02  0.98447348201E+01 -0.88236375338E+02  0.98750807709E+02  0.47000000000E+01 0.  1.
         -5    1    4    4    0  502 -0.57619731844E+02 -0.84165436242E+01 -0.11342639895E+02  0.59511487833E+02  0.47000000000E+01 0.  1.
          5    1    5    5  503    0  0.73975657210E+01  0.47293546115E+02 -0.26781902028E+03  0.27210387926E+03  0.47000000000E+01 0. -1.
         -5    1    5    5    0  503  0.72447850155E+01 -0.48721737311E+02 -0.59709918148E+02  0.77547784764E+02  0.47000000000E+01 0. -1.
<mgrwt>
<rscale>  0 0.27487340E+03</rscale>
<asrwt>0</asrwt>
<pdfrwt beam="1">  1        3 0.62158469E-02 0.27487340E+03</pdfrwt>
<pdfrwt beam="2">  1       -3 0.71924759E-01 0.27487340E+03</pdfrwt>
<totfact> 0.76696110E+02</totfact>
</mgrwt>
</event>
<event>
 9    1  0.2094635E-002  0.2824312E+03  0.7818608E-02  0.1094368E+00
          2   -1    0    0  501    0  0.00000000000E+00  0.00000000000E+00  0.16822698827E+04  0.16822698827E+04  0.00000000000E+00 0. -1.
         -2   -1    0    0    0  501 -0.00000000000E+00 -0.00000000000E+00 -0.11854132246E+02  0.11854132246E+02  0.00000000000E+00 0. -1.
         36    2    1    2    0    0  0.71054273576E-14  0.00000000000E+00  0.16704157505E+04  0.16941240150E+04  0.28243122818E+03 0.  0.
         25    2    3    3    0    0  0.43295170711E+02  0.38497456768E+02  0.49769068089E+03  0.51349496039E+03  0.11235895387E+03 0.  0.
         25    2    3    3    0    0 -0.43295170711E+02 -0.38497456768E+02  0.11727250696E+04  0.11806290546E+04  0.12346801083E+03 0.  0.
          5    1    4    4  502    0  0.11947617971E+02 -0.36178519298E+02  0.90564569575E+02  0.98364943430E+02  0.47000000000E+01 0.  1.
         -5    1    4    4    0  502  0.31347552741E+02  0.74675976067E+02  0.40712611131E+03  0.41513001696E+03  0.47000000000E+01 0.  1.
          5    1    5    5  503    0 -0.51828367081E+02  0.60749366089E+01  0.10172363006E+04  0.10185847366E+04  0.47000000000E+01 0.  1.
         -5    1    5    5    0  503  0.85331963700E+01 -0.44572393377E+02  0.15548876904E+03  0.16204431798E+03  0.47000000000E+01 0.  1.
<mgrwt>
<rscale>  0 0.28243123E+03</rscale>
<asrwt>0</asrwt>
<pdfrwt beam="1">  1        2 0.25881056E+00 0.28243123E+03</pdfrwt>
<pdfrwt beam="2">  1       -2 0.18237140E-02 0.28243123E+03</pdfrwt>
<totfact> 0.96723798E+03</totfact>
</mgrwt>
</event>
<event>
 9    1  0.2094635E-002  0.2752230E+03  0.7818608E-02  0.1098327E+00
          1   -1    0    0  501    0  0.00000000000E+00  0.00000000000E+00  0.14411287667E+04  0.14411287667E+04  0.00000000000E+00 0.  1.
         -1   -1    0    0    0  501 -0.00000000000E+00 -0.00000000000E+00 -0.13140344315E+02  0.13140344315E+02  0.00000000000E+00 0.  1.
         36    2    1    2    0    0  0.00000000000E+00  0.00000000000E+00  0.14279884224E+04  0.14542691110E+04  0.27522302373E+03 0.  0.
         25    2    3    3    0    0 -0.20712007130E+02 -0.22703859347E+02  0.93720456702E+03  0.94617394156E+03  0.12628647894E+03 0.  0.
         25    2    3    3    0    0  0.20712007130E+02  0.22703859347E+02  0.49078385540E+03  0.50809516949E+03  0.12785717061E+03 0.  0.
          5    1    4    4  502    0  0.15591783087E+02 -0.18964344358E+02  0.33896297234E+02  0.42116493479E+02  0.47000000000E+01 0.  1.
         -5    1    4    4    0  502 -0.36303790218E+02 -0.37395149894E+01  0.90330826979E+03  0.90405744808E+03  0.47000000000E+01 0.  1.
          5    1    5    5  503    0 -0.45881182494E+02  0.18994931711E+02  0.10130518208E+03  0.11291908720E+03  0.47000000000E+01 0. -1.
         -5    1    5    5    0  503  0.66593189624E+02  0.37089276368E+01  0.38947867332E+03  0.39517608229E+03  0.47000000000E+01 0. -1.
<mgrwt>
<rscale>  0 0.27522302E+03</rscale>
<asrwt>0</asrwt>
<pdfrwt beam="1">  1        1 0.22171199E+00 0.27522302E+03</pdfrwt>
<pdfrwt beam="2">  1       -1 0.20215926E-02 0.27522302E+03</pdfrwt>
<totfact> 0.52869290E+03</totfact>
</mgrwt>
</event>
<event>
 9    1  0.2094635E-002  0.2743157E+03  0.7818608E-02  0.1098835E+00
          2   -1    0    0  501    0  0.00000000000E+00  0.00000000000E+00  0.23713916390E+03  0.23713916390E+03  0.00000000000E+00 0.  1.
         -2   -1    0    0    0  501 -0.00000000000E+00 -0.00000000000E+00 -0.79330115788E+02  0.79330115788E+02  0.00000000000E+00 0.  1.
         36    2    1    2    0    0 -0.14210854715E-13  0.17763568394E-14  0.15780904811E+03  0.31646927968E+03  0.27431571103E+03 0.  0.
         25    2    3    3    0    0  0.47636748636E+02  0.76424737979E+01  0.96797369125E+02  0.16877684696E+03  0.12956938749E+03 0.  0.
         25    2    3    3    0    0 -0.47636748636E+02 -0.76424737979E+01  0.61011678982E+02  0.14769243272E+03  0.12555063714E+03 0.  0.
          5    1    4    4  502    0 -0.87329904750E+01 -0.10963086537E+02  0.10729783724E+03  0.10831145030E+03  0.47000000000E+01 0.  1.
         -5    1    4    4    0  502  0.56369739111E+02  0.18605560335E+02 -0.10500468115E+02  0.60465396661E+02  0.47000000000E+01 0.  1.
          5    1    5    5  503    0 -0.75865237656E+02  0.30720483544E+02  0.19344452348E+02  0.84235267142E+02  0.47000000000E+01 0.  1.
         -5    1    5    5    0  503  0.28228489021E+02 -0.38362957342E+02  0.41667226634E+02  0.63457165582E+02  0.47000000000E+01 0.  1.
<mgrwt>
<rscale>  0 0.27431571E+03</rscale>
<asrwt>0</asrwt>
<pdfrwt beam="1">  1        2 0.36482948E-01 0.27431571E+03</pdfrwt>
<pdfrwt beam="2">  1       -2 0.12204633E-01 0.27431571E+03</pdfrwt>
<totfact> 0.67437500E+03</totfact>
</mgrwt>
</event>
<event>
 9    1  0.2094635E-002  0.2735443E+03  0.7818608E-02  0.1099268E+00
          2   -1    0    0  501    0  0.00000000000E+00  0.00000000000E+00  0.77657352948E+03  0.77657352948E+03  0.00000000000E+00 0.  1.
         -2   -1    0    0    0  501 -0.00000000000E+00 -0.00000000000E+00 -0.24088659627E+02  0.24088659627E+02  0.00000000000E+00 0.  1.
         36    2    1    2    0    0  0.00000000000E+00  0.00000000000E+00  0.75248486985E+03  0.80066218910E+03  0.27354425914E+03 0.  0.
         25    2    3    3    0    0 -0.36311216095E+02  0.23688881808E+02  0.47664261811E+03  0.49492397998E+03  0.12602338288E+03 0.  0.
         25    2    3    3    0    0  0.36311216095E+02 -0.23688881808E+02  0.27584225174E+03  0.30573820912E+03  0.12452805761E+03 0.  0.
          5    1    4    4  502    0  0.19718830054E+02 -0.41346358112E+02  0.13530138015E+03  0.14292273108E+03  0.47000000000E+01 0. -1.
         -5    1    4    4    0  502 -0.56030046149E+02  0.65035239920E+02  0.34134123795E+03  0.35200124890E+03  0.47000000000E+01 0. -1.
          5    1    5    5  503    0  0.80885325300E+02 -0.19680537867E+02  0.14361746460E+03  0.16606572662E+03  0.47000000000E+01 0.  1.
         -5    1    5    5    0  503 -0.44574109204E+02 -0.40083439406E+01  0.13222478714E+03  0.13967248250E+03  0.47000000000E+01 0.  1.
<mgrwt>
<rscale>  0 0.27354426E+03</rscale>
<asrwt>0</asrwt>
<pdfrwt beam="1">  1        2 0.11947283E+00 0.27354426E+03</pdfrwt>
<pdfrwt beam="2">  1       -2 0.37059482E-02 0.27354426E+03</pdfrwt>
<totfact> 0.11321206E+04</totfact>
</mgrwt>
</event>
<event>
 9    1  0.2094635E-002  0.2747619E+03  0.7818608E-02  0.1098585E+00
         -1   -1    0    0    0  501 -0.00000000000E+00  0.00000000000E+00  0.26845861378E+02  0.26845861378E+02  0.00000000000E+00 0. -1.
          1   -1    0    0  501    0  0.00000000000E+00 -0.00000000000E+00 -0.70303301712E+03  0.70303301712E+03  0.00000000000E+00 0. -1.
         36    2    1    2    0    0  0.00000000000E+00  0.71054273576E-14 -0.67618715574E+03  0.72987887849E+03  0.27476191091E+03 0.  0.
         25    2    3    3    0    0 -0.68207218848E+01  0.24061889816E+02 -0.19574058250E+03  0.23234601619E+03  0.12265724117E+03 0.  0.
         25    2    3    3    0    0  0.68207218848E+01 -0.24061889816E+02 -0.48044657324E+03  0.49753286231E+03  0.12682484989E+03 0.  0.
          5    1    4    4  502    0  0.21662631221E+02 -0.17892989449E+02 -0.17508793808E+03  0.17739026108E+03  0.47000000000E+01 0.  1.
         -5    1    4    4    0  502 -0.28483353106E+02  0.41954879265E+02 -0.20652644417E+02  0.54955755110E+02  0.47000000000E+01 0.  1.
          5    1    5    5  503    0  0.30632853736E+02  0.35294063859E+02 -0.33887862064E+03  0.34211818455E+03  0.47000000000E+01 0.  1.
         -5    1    5    5    0  503 -0.23812131851E+02 -0.59355953675E+02 -0.14156795260E+03  0.15541467776E+03  0.47000000000E+01 0.  1.
<mgrwt>
<rscale>  0 0.27476191E+03</rscale>
<asrwt>0</asrwt>
<pdfrwt beam="1">  1        1 0.10815891E+00 0.27476191E+03</pdfrwt>
<pdfrwt beam="2">  1       -1 0.41301330E-02 0.27476191E+03</pdfrwt>
<totfact> 0.65487258E+03</totfact>
</mgrwt>
</event>
<event>
 9    1  0.2094635E-002  0.2755854E+03  0.7818608E-02  0.1098125E+00
          2   -1    0    0  501    0  0.00000000000E+00  0.00000000000E+00  0.24106779970E+03  0.24106779970E+03  0.00000000000E+00 0. -1.
         -2   -1    0    0    0  501 -0.00000000000E+00 -0.00000000000E+00 -0.78761368602E+02  0.78761368602E+02  0.00000000000E+00 0. -1.
         36    2    1    2    0    0  0.00000000000E+00  0.00000000000E+00  0.16230643110E+03  0.31982916830E+03  0.27558541202E+03 0.  0.
         25    2    3    3    0    0 -0.45246165695E+02 -0.35622571918E+02  0.96191454462E+02  0.16295220227E+03  0.11825582933E+03 0.  0.
         25    2    3    3    0    0  0.45246165695E+02  0.35622571918E+02  0.66114976637E+02  0.15687696604E+03  0.13008846681E+03 0.  0.
          5    1    4    4  502    0 -0.48971038876E+02 -0.12850670511E+02 -0.11986835821E+02  0.52240564834E+02  0.47000000000E+01 0.  1.
         -5    1    4    4    0  502  0.37248731816E+01 -0.22771901408E+02  0.10817829028E+03  0.11071163743E+03  0.47000000000E+01 0.  1.
          5    1    5    5  503    0 -0.39627214534E+00  0.31807943104E+02  0.96497316525E+02  0.10171393401E+03  0.47000000000E+01 0. -1.
         -5    1    5    5    0  503  0.45642437840E+02  0.38146288140E+01 -0.30382339887E+02  0.55163032023E+02  0.47000000000E+01 0. -1.
<mgrwt>
<rscale>  0 0.27558541E+03</rscale>
<asrwt>0</asrwt>
<pdfrwt beam="1">  1        2 0.37087353E-01 0.27558541E+03</pdfrwt>
<pdfrwt beam="2">  1       -2 0.12117134E-01 0.27558541E+03</pdfrwt>
<totfact> 0.67034752E+03</totfact>
</mgrwt>
</event>
<event>
 9    1  0.2094635E-002  0.2795396E+03  0.7818608E-02  0.1095941E+00
          2   -1    0    0  501    0  0.00000000000E+00  0.00000000000E+00  0.18611671637E+04  0.18611671637E+04  0.00000000000E+00 0.  1.
         -2   -1    0    0    0  501 -0.00000000000E+00 -0.00000000000E+00 -0.10496425496E+02  0.10496425496E+02  0.00000000000E+00 0.  1.
         36    2    1    2    0    0  0.00000000000E+00 -0.71054273576E-14  0.18506707382E+04  0.18716635892E+04  0.27953963919E+03 0.  0.
         25    2    3    3    0    0 -0.10982075047E+02  0.11746214611E+02  0.56904001751E+03  0.58252711101E+03  0.12358282242E+03 0.  0.
         25    2    3    3    0    0  0.10982075047E+02 -0.11746214611E+02  0.12816307207E+04  0.12891364782E+04  0.13797454710E+03 0.  0.
          5    1    4    4  502    0 -0.11841220633E+02  0.10658482348E+02  0.35117773099E+01  0.16977642119E+02  0.47000000000E+01 0. -1.
         -5    1    4    4    0  502  0.85914558638E+00  0.10877322625E+01  0.56552824020E+03  0.56554946889E+03  0.47000000000E+01 0. -1.
          5    1    5    5  503    0  0.29388089398E+02  0.58749011655E+02  0.59216540589E+03  0.59581630064E+03  0.47000000000E+01 0. -1.
         -5    1    5    5    0  503 -0.18406014352E+02 -0.70495226266E+02  0.68946531479E+03  0.69332017754E+03  0.47000000000E+01 0. -1.
<mgrwt>
<rscale>  0 0.27953964E+03</rscale>
<asrwt>0</asrwt>
<pdfrwt beam="1">  1        2 0.28633315E+00 0.27953964E+03</pdfrwt>
<pdfrwt beam="2">  1       -2 0.16148362E-02 0.27953964E+03</pdfrwt>
<totfact> 0.93088483E+03</totfact>
</mgrwt>
</event>
<event>
 9    1  0.2094635E-002  0.2764317E+03  0.7818608E-02  0.1097654E+00
          2   -1    0    0  501    0  0.00000000000E+00  0.00000000000E+00  0.11621692255E+03  0.11621692255E+03  0.00000000000E+00 0. -1.
         -2   -1    0    0    0  501 -0.00000000000E+00 -0.00000000000E+00 -0.16437902413E+03  0.16437902413E+03  0.00000000000E+00 0. -1.
         36    2    1    2    0    0  0.00000000000E+00  0.35527136788E-14 -0.48162101583E+02  0.28059594667E+03  0.27643172260E+03 0.  0.
         25    2    3    3    0    0  0.73656321182E+01  0.21390159883E+02 -0.78373384449E+02  0.15199661799E+03  0.12825284798E+03 0.  0.
         25    2    3    3    0    0 -0.73656321182E+01 -0.21390159883E+02  0.30211282867E+02  0.12859932868E+03  0.12293605756E+03 0.  0.
          5    1    4    4  502    0  0.15900055698E+02  0.14938005253E+02 -0.11313928707E+03  0.11531931343E+03  0.47000000000E+01 0. -1.
         -5    1    4    4    0  502 -0.85344235798E+01  0.64521546299E+01  0.34765902617E+02  0.36677304563E+02  0.47000000000E+01 0. -1.
          5    1    5    5  503    0 -0.38040840390E+02  0.32544218402E+02  0.41698206488E+02  0.65322753411E+02  0.47000000000E+01 0.  1.
         -5    1    5    5    0  503  0.30675208272E+02 -0.53934378285E+02 -0.11486923621E+02  0.63276575269E+02  0.47000000000E+01 0.  1.
<mgrwt>
<rscale>  0 0.27643172E+03</rscale>
<asrwt>0</asrwt>
<pdfrwt beam="1">  1        2 0.17879527E-01 0.27643172E+03</pdfrwt>
<pdfrwt beam="2">  1       -2 0.25289080E-01 0.27643172E+03</pdfrwt>
<totfact> 0.43810649E+03</totfact>
</mgrwt>
</event>
<event>
 9    1  0.2094635E-002  0.2757683E+03  0.7818608E-02  0.1098023E+00
          2   -1    0    0  501    0  0.00000000000E+00  0.00000000000E+00  0.23587152313E+03  0.23587152313E+03  0.00000000000E+00 0. -1.
         -2   -1    0    0    0  501 -0.00000000000E+00 -0.00000000000E+00 -0.80603359663E+02  0.80603359663E+02  0.00000000000E+00 0. -1.
         36    2    1    2    0    0 -0.71054273576E-14  0.00000000000E+00  0.15526816347E+03  0.31647488280E+03  0.27576828834E+03 0.  0.
         25    2    3    3    0    0 -0.53557949259E+02  0.10616366738E+02  0.47188371134E+02  0.14472586107E+03  0.12544987573E+03 0.  0.
         25    2    3    3    0    0  0.53557949259E+02 -0.10616366738E+02  0.10807979233E+03  0.17174902172E+03  0.12180034393E+03 0.  0.
          5    1    4    4  502    0 -0.12262876440E+02 -0.14555643965E+02  0.82411957036E+02  0.84711661371E+02  0.47000000000E+01 0. -1.
         -5    1    4    4    0  502 -0.41295072818E+02  0.25172010703E+02 -0.35223585902E+02  0.60014199700E+02  0.47000000000E+01 0. -1.
          5    1    5    5  503    0  0.75431047685E+02 -0.45666975807E+02  0.53906237669E+02  0.10345669671E+03  0.47000000000E+01 0.  1.
         -5    1    5    5    0  503 -0.21873098426E+02  0.35050609069E+02  0.54173554666E+02  0.68292325016E+02  0.47000000000E+01 0.  1.
<mgrwt>
<rscale>  0 0.27576829E+03</rscale>
<asrwt>0</asrwt>
<pdfrwt beam="1">  1        2 0.36287926E-01 0.27576829E+03</pdfrwt>
<pdfrwt beam="2">  1       -2 0.12400517E-01 0.27576829E+03</pdfrwt>
<totfact> 0.66117639E+03</totfact>
</mgrwt>
</event>
<event>
 9    1  0.2094635E-002  0.2745312E+03  0.7818608E-02  0.1098714E+00
         -2   -1    0    0    0  501 -0.00000000000E+00  0.00000000000E+00  0.58603366800E+01  0.58603366800E+01  0.00000000000E+00 0. -1.
          2   -1    0    0  501    0  0.00000000000E+00 -0.00000000000E+00 -0.32151482779E+04  0.32151482779E+04  0.00000000000E+00 0. -1.
         36    2    1    2    0    0  0.00000000000E+00 -0.71054273576E-14 -0.32092879413E+04  0.32210086146E+04  0.27453124693E+03 0.  0.
         25    2    3    3    0    0 -0.42892758960E+02  0.39032272826E+02 -0.17732077067E+04  0.17784860725E+04  0.12403157623E+03 0.  0.
         25    2    3    3    0    0  0.42892758960E+02 -0.39032272826E+02 -0.14360802346E+04  0.14425225422E+04  0.12321338126E+03 0.  0.
          5    1    4    4  502    0  0.21411617225E+02  0.48824460995E+02 -0.12621430386E+04  0.12632772559E+04  0.47000000000E+01 0. -1.
         -5    1    4    4    0  502 -0.64304376185E+02 -0.97921881695E+01 -0.51106466809E+03  0.51520881662E+03  0.47000000000E+01 0. -1.
          5    1    5    5  503    0  0.38512824679E+02 -0.47115412833E+01 -0.13351735293E+04  0.13357454397E+04  0.47000000000E+01 0. -1.
         -5    1    5    5    0  503  0.43799342814E+01 -0.34320731542E+02 -0.10090670528E+03  0.10677710246E+03  0.47000000000E+01 0. -1.
<mgrwt>
<rscale>  0 0.27453125E+03</rscale>
<asrwt>0</asrwt>
<pdfrwt beam="1">  1        2 0.49463855E+00 0.27453125E+03</pdfrwt>
<pdfrwt beam="2">  1       -2 0.90158961E-03 0.27453125E+03</pdfrwt>
<totfact> 0.38250619E+03</totfact>
</mgrwt>
</event>
<event>
 9    1  0.2094635E-002  0.2747940E+03  0.7818608E-02  0.1098567E+00
         -4   -1    0    0    0  501 -0.00000000000E+00  0.00000000000E+00  0.76493103152E+02  0.76493103152E+02  0.00000000000E+00 0.  1.
          4   -1    0    0  501    0  0.00000000000E+00 -0.00000000000E+00 -0.24679265893E+03  0.24679265893E+03  0.00000000000E+00 0.  1.
         36    2    1    2    0    0  0.35527136788E-14  0.00000000000E+00 -0.17029955578E+03  0.32328576208E+03  0.27479400515E+03 0.  0.
         25    2    3    3    0    0 -0.17165561659E+02 -0.18209072819E+02 -0.71013310408E+02  0.16126070261E+03  0.14260398701E+03 0.  0.
         25    2    3    3    0    0  0.17165561659E+02  0.18209072819E+02 -0.99286245370E+02  0.16202505947E+03  0.12557123292E+03 0.  0.
          5    1    4    4  502    0 -0.48075135125E+02 -0.15168901289E+02  0.27670505996E+02  0.57698016306E+02  0.47000000000E+01 0. -1.
         -5    1    4    4    0  502  0.30909573466E+02 -0.30401715298E+01 -0.98683816404E+02  0.10356268631E+03  0.47000000000E+01 0. -1.
          5    1    5    5  503    0 -0.53266132346E+02  0.20517097548E+02 -0.48242945009E+02  0.74884603824E+02  0.47000000000E+01 0.  1.
         -5    1    5    5    0  503  0.70431694004E+02 -0.23080247289E+01 -0.51043300362E+02  0.87140455647E+02  0.47000000000E+01 0.  1.
<mgrwt>
<rscale>  0 0.27479401E+03</rscale>
<asrwt>0</asrwt>
<pdfrwt beam="1">  1        4 0.37968100E-01 0.27479401E+03</pdfrwt>
<pdfrwt beam="2">  1       -4 0.11768170E-01 0.27479401E+03</pdfrwt>
<totfact> 0.72635167E+02</totfact>
</mgrwt>
</event>
<event>
 9    1  0.2094635E-002  0.2749766E+03  0.7818608E-02  0.1098465E+00
          2   -1    0    0  501    0  0.00000000000E+00  0.00000000000E+00  0.18172418741E+04  0.18172418741E+04  0.00000000000E+00 0. -1.
         -2   -1    0    0    0  501 -0.00000000000E+00 -0.00000000000E+00 -0.10402045218E+02  0.10402045218E+02  0.00000000000E+00 0. -1.
         36    2    1    2    0    0  0.71054273576E-14 -0.71054273576E-14  0.18068398289E+04  0.18276439193E+04  0.27497659643E+03 0.  0.
         25    2    3    3    0    0  0.20660641480E+01  0.57895410017E+02  0.94159502740E+03  0.95162058849E+03  0.12499760674E+03 0.  0.
         25    2    3    3    0    0 -0.20660641480E+01 -0.57895410017E+02  0.86524480145E+03  0.87602333080E+03  0.12414573107E+03 0.  0.
          5    1    4    4  502    0  0.43959643077E+02  0.15875013783E+02  0.13704853061E+03  0.14487531199E+03  0.47000000000E+01 0. -1.
         -5    1    4    4    0  502 -0.41893578929E+02  0.42020396233E+02  0.80454649680E+03  0.80674527650E+03  0.47000000000E+01 0. -1.
          5    1    5    5  503    0 -0.36768537736E+02  0.26522776505E+02  0.28014657134E+03  0.28383018598E+03  0.47000000000E+01 0.  1.
         -5    1    5    5    0  503  0.34702473588E+02 -0.84418186522E+02  0.58509823011E+03  0.59219314482E+03  0.47000000000E+01 0.  1.
<mgrwt>
<rscale>  0 0.27497660E+03</rscale>
<asrwt>0</asrwt>
<pdfrwt beam="1">  1        2 0.27957542E+00 0.27497660E+03</pdfrwt>
<pdfrwt beam="2">  1       -2 0.16003161E-02 0.27497660E+03</pdfrwt>
<totfact> 0.99452343E+03</totfact>
</mgrwt>
</event>
<event>
 9    1  0.2094635E-002  0.2794241E+03  0.7818608E-02  0.1096004E+00
          1   -1    0    0  501    0  0.00000000000E+00  0.00000000000E+00  0.30140358386E+03  0.30140358386E+03  0.00000000000E+00 0. -1.
         -1   -1    0    0    0  501 -0.00000000000E+00 -0.00000000000E+00 -0.64761881121E+02  0.64761881121E+02  0.00000000000E+00 0. -1.
         36    2    1    2    0    0  0.00000000000E+00  0.00000000000E+00  0.23664170274E+03  0.36616546498E+03  0.27942414403E+03 0.  0.
         25    2    3    3    0    0  0.18505322476E+02  0.46931050987E+02  0.15921260683E+03  0.20818226011E+03  0.12428285782E+03 0.  0.
         25    2    3    3    0    0 -0.18505322476E+02 -0.46931050987E+02  0.77429095914E+02  0.15798320487E+03  0.12813452938E+03 0.  0.
          5    1    4    4  502    0  0.53907767295E+02  0.12297909330E+02  0.14675773395E+03  0.15689872027E+03  0.47000000000E+01 0. -1.
         -5    1    4    4    0  502 -0.35402444819E+02  0.34633141657E+02  0.12454872872E+02  0.51283539840E+02  0.47000000000E+01 0. -1.
          5    1    5    5  503    0  0.49580610180E+02 -0.33458535128E+02  0.94861517398E+01  0.60743621505E+02  0.47000000000E+01 0. -1.
         -5    1    5    5    0  503 -0.68085932656E+02 -0.13472515859E+02  0.67942944174E+02  0.97239583361E+02  0.47000000000E+01 0. -1.
<mgrwt>
<rscale>  0 0.27942414E+03</rscale>
<asrwt>0</asrwt>
<pdfrwt beam="1">  1        1 0.46369781E-01 0.27942414E+03</pdfrwt>
<pdfrwt beam="2">  1       -1 0.99633665E-02 0.27942414E+03</pdfrwt>
<totfact> 0.53090686E+03</totfact>
</mgrwt>
</event>
<event>
 9    1  0.2094635E-002  0.2743812E+03  0.7818608E-02  0.1098798E+00
          4   -1    0    0  501    0  0.00000000000E+00  0.00000000000E+00  0.14419838109E+03  0.14419838109E+03  0.00000000000E+00 0. -1.
         -4   -1    0    0    0  501 -0.00000000000E+00 -0.00000000000E+00 -0.13052336637E+03  0.13052336637E+03  0.00000000000E+00 0. -1.
         36    2    1    2    0    0  0.00000000000E+00  0.35527136788E-14  0.13675014727E+02  0.27472174746E+03  0.27438118102E+03 0.  0.
         25    2    3    3    0    0  0.16201767735E+02  0.29065350332E+02  0.58546375560E+02  0.14051116452E+03  0.12332241238E+03 0.  0.
         25    2    3    3    0    0 -0.16201767735E+02 -0.29065350332E+02 -0.44871360833E+02  0.13421058294E+03  0.12203175686E+03 0.  0.
          5    1    4    4  502    0 -0.21384723009E+01 -0.19877814964E+02  0.80903604126E+02  0.83469657674E+02  0.47000000000E+01 0.  1.
         -5    1    4    4    0  502  0.18340240036E+02  0.48943165296E+02 -0.22357228566E+02  0.57041506843E+02  0.47000000000E+01 0.  1.
          5    1    5    5  503    0 -0.27316530248E+02 -0.32686286381E+02 -0.83349621928E+02  0.93722119148E+02  0.47000000000E+01 0. -1.
         -5    1    5    5    0  503  0.11114762512E+02  0.36209360488E+01  0.38478261094E+02  0.40488463794E+02  0.47000000000E+01 0. -1.
<mgrwt>
<rscale>  0 0.27438118E+03</rscale>
<asrwt>0</asrwt>
<pdfrwt beam="1">  1        4 0.22184366E-01 0.27438118E+03</pdfrwt>
<pdfrwt beam="2">  1       -4 0.20080518E-01 0.27438118E+03</pdfrwt>
<totfact> 0.78441586E+02</totfact>
</mgrwt>
</event>
<event>
 9    1  0.2094635E-002  0.2763870E+03  0.7818608E-02  0.1097679E+00
         -2   -1    0    0    0  501 -0.00000000000E+00  0.00000000000E+00  0.11546479108E+02  0.11546479108E+02  0.00000000000E+00 0. -1.
          2   -1    0    0  501    0  0.00000000000E+00 -0.00000000000E+00 -0.16539627849E+04  0.16539627849E+04  0.00000000000E+00 0. -1.
         36    2    1    2    0    0  0.00000000000E+00 -0.26645352591E-14 -0.16424163058E+04  0.16655092640E+04  0.27638702388E+03 0.  0.
         25    2    3    3    0    0  0.54068208215E+02  0.46937962132E+01 -0.10303559783E+04  0.10403565152E+04  0.13327728204E+03 0.  0.
         25    2    3    3    0    0 -0.54068208215E+02 -0.46937962132E+01 -0.61206032749E+03  0.62515274878E+03  0.11512042368E+03 0.  0.
          5    1    4    4  502    0  0.51445673983E+02 -0.39796555716E+01 -0.10287135605E+04  0.10300175604E+04  0.47000000000E+01 0.  1.
         -5    1    4    4    0  502  0.26225342313E+01  0.86734517848E+01 -0.16424177641E+01  0.10338954868E+02  0.47000000000E+01 0.  1.
          5    1    5    5  503    0  0.21354953604E+02 -0.25937100667E+02 -0.34859596535E+03  0.35024277907E+03  0.47000000000E+01 0.  1.
         -5    1    5    5    0  503 -0.75423161819E+02  0.21243304454E+02 -0.26346436215E+03  0.27490996971E+03  0.47000000000E+01 0.  1.
<mgrwt>
<rscale>  0 0.27638702E+03</rscale>
<asrwt>0</asrwt>
<pdfrwt beam="1">  1        2 0.25445575E+00 0.27638702E+03</pdfrwt>
<pdfrwt beam="2">  1       -2 0.17763818E-02 0.27638702E+03</pdfrwt>
<totfact> 0.10401506E+04</totfact>
</mgrwt>
</event>
<event>
 9    1  0.2094635E-002  0.2770364E+03  0.7818608E-02  0.1097319E+00
          2   -1    0    0  501    0  0.00000000000E+00  0.00000000000E+00  0.14984736015E+04  0.14984736015E+04  0.00000000000E+00 0.  1.
         -2   -1    0    0    0  501 -0.00000000000E+00 -0.00000000000E+00 -0.12804558041E+02  0.12804558041E+02  0.00000000000E+00 0.  1.
         36    2    1    2    0    0  0.00000000000E+00  0.00000000000E+00  0.14856690435E+04  0.15112781596E+04  0.27703640341E+03 0.  0.
         25    2    3    3    0    0  0.44062052576E+02  0.34556706402E+02  0.80025981695E+03  0.81221675659E+03  0.12706161746E+03 0.  0.
         25    2    3    3    0    0 -0.44062052576E+02 -0.34556706402E+02  0.68540922653E+03  0.69906140297E+03  0.12556037142E+03 0.  0.
          5    1    4    4  502    0 -0.16509474825E+02 -0.54324341025E+01  0.57958611384E+03  0.57986569778E+03  0.47000000000E+01 0.  1.
         -5    1    4    4    0  502  0.60571527400E+02  0.39989140504E+02  0.22067370310E+03  0.23235105881E+03  0.47000000000E+01 0.  1.
          5    1    5    5  503    0 -0.42411047933E+02 -0.14666829938E+02  0.69820259461E+02  0.83131050266E+02  0.47000000000E+01 0. -1.
         -5    1    5    5    0  503 -0.16510046431E+01 -0.19889876464E+02  0.61558896707E+03  0.61593035270E+03  0.47000000000E+01 0. -1.
<mgrwt>
<rscale>  0 0.27703640E+03</rscale>
<asrwt>0</asrwt>
<pdfrwt beam="1">  1        2 0.23053426E+00 0.27703640E+03</pdfrwt>
<pdfrwt beam="2">  1       -2 0.19699332E-02 0.27703640E+03</pdfrwt>
<totfact> 0.10807988E+04</totfact>
</mgrwt>
</event>
<event>
 9    1  0.2094635E-002  0.2814714E+03  0.7818608E-02  0.1094888E+00
          1   -1    0    0  501    0  0.00000000000E+00  0.00000000000E+00  0.52019254597E+03  0.52019254597E+03  0.00000000000E+00 0.  1.
         -1   -1    0    0    0  501 -0.00000000000E+00 -0.00000000000E+00 -0.38075390542E+02  0.38075390542E+02  0.00000000000E+00 0.  1.
         36    2    1    2    0    0  0.00000000000E+00  0.35527136788E-14  0.48211715543E+03  0.55826793651E+03  0.28147137933E+03 0.  0.
         25    2    3    3    0    0 -0.23244220086E+01  0.10023907687E+02  0.12116542608E+03  0.17484387518E+03  0.12563215572E+03 0.  0.
         25    2    3    3    0    0  0.23244220086E+01 -0.10023907687E+02  0.36095172935E+03  0.38342406133E+03  0.12892625109E+03 0.  0.
          5    1    4    4  502    0  0.48284891429E+02  0.43081548826E+02  0.54536019284E+02  0.84756816769E+02  0.47000000000E+01 0.  1.
         -5    1    4    4    0  502 -0.50609313437E+02 -0.33057641139E+02  0.66629406792E+02  0.90087058414E+02  0.47000000000E+01 0.  1.
          5    1    5    5  503    0  0.44779407511E+02 -0.30447029019E+02  0.69894857548E+02  0.88541504532E+02  0.47000000000E+01 0.  1.
         -5    1    5    5    0  503 -0.42454985503E+02  0.20423121331E+02  0.29105687181E+03  0.29488255680E+03  0.47000000000E+01 0.  1.
<mgrwt>
<rscale>  0 0.28147138E+03</rscale>
<asrwt>0</asrwt>
<pdfrwt beam="1">  1        1 0.80029617E-01 0.28147138E+03</pdfrwt>
<pdfrwt beam="2">  1       -1 0.58577528E-02 0.28147138E+03</pdfrwt>
<totfact> 0.59111343E+03</totfact>
</mgrwt>
</event>
<event>
 9    1  0.2094635E-002  0.2758856E+03  0.7818608E-02  0.1097958E+00
          2   -1    0    0  501    0  0.00000000000E+00  0.00000000000E+00  0.29135763894E+03  0.29135763894E+03  0.00000000000E+00 0.  1.
         -2   -1    0    0    0  501 -0.00000000000E+00 -0.00000000000E+00 -0.65308784819E+02  0.65308784819E+02  0.00000000000E+00 0.  1.
         36    2    1    2    0    0  0.00000000000E+00 -0.71054273576E-14  0.22604885412E+03  0.35666642376E+03  0.27588558025E+03 0.  0.
         25    2    3    3    0    0  0.20964715461E+02  0.54170045211E+02  0.13739955617E+03  0.19397582273E+03  0.12399221215E+03 0.  0.
         25    2    3    3    0    0 -0.20964715461E+02 -0.54170045211E+02  0.88649297954E+02  0.16269060103E+03  0.12343265591E+03 0.  0.
          5    1    4    4  502    0 -0.42514480269E+02 -0.10157689251E+02  0.62994699594E+02  0.76818499467E+02  0.47000000000E+01 0. -1.
         -5    1    4    4    0  502  0.63479195730E+02  0.64327734462E+02  0.74404856576E+02  0.11715732326E+03  0.47000000000E+01 0. -1.
          5    1    5    5  503    0  0.84017954756E+01 -0.19685220614E+02  0.11016682092E+03  0.11232504845E+03  0.47000000000E+01 0. -1.
         -5    1    5    5    0  503 -0.29366510936E+02 -0.34484824597E+02 -0.21517522969E+02  0.50365552581E+02  0.47000000000E+01 0. -1.
<mgrwt>
<rscale>  0 0.27588558E+03</rscale>
<asrwt>0</asrwt>
<pdfrwt beam="1">  1        2 0.44824252E-01 0.27588558E+03</pdfrwt>
<pdfrwt beam="2">  1       -2 0.10047505E-01 0.27588558E+03</pdfrwt>
<totfact> 0.73789020E+03</totfact>
</mgrwt>
</event>
<event>
 9    1  0.2094635E-002  0.2763266E+03  0.7818608E-02  0.1097712E+00
          1   -1    0    0  501    0  0.00000000000E+00  0.00000000000E+00  0.73878635138E+02  0.73878635138E+02  0.00000000000E+00 0. -1.
         -1   -1    0    0    0  501 -0.00000000000E+00 -0.00000000000E+00 -0.25838449344E+03  0.25838449344E+03  0.00000000000E+00 0. -1.
         36    2    1    2    0    0  0.17763568394E-14  0.00000000000E+00 -0.18450585830E+03  0.33226312858E+03  0.27632657285E+03 0.  0.
         25    2    3    3    0    0 -0.14698027630E+02  0.50065072307E+02 -0.96801357183E+02  0.16930769586E+03  0.12873247315E+03 0.  0.
         25    2    3    3    0    0  0.14698027630E+02 -0.50065072307E+02 -0.87704501115E+02  0.16295543271E+03  0.12704270957E+03 0.  0.
          5    1    4    4  502    0 -0.44484378487E+02 -0.29320574841E+02 -0.30496560242E+02  0.61568548992E+02  0.47000000000E+01 0.  1.
         -5    1    4    4    0  502  0.29786350857E+02  0.79385647148E+02 -0.66304796941E+02  0.10773914687E+03  0.47000000000E+01 0.  1.
          5    1    5    5  503    0  0.27388927110E+02 -0.89991504385E+02 -0.51268250865E+02  0.10723407917E+03  0.47000000000E+01 0.  1.
         -5    1    5    5    0  503 -0.12690899479E+02  0.39926432078E+02 -0.36436250250E+02  0.55721353540E+02  0.47000000000E+01 0.  1.
<mgrwt>
<rscale>  0 0.27632657E+03</rscale>
<asrwt>0</asrwt>
<pdfrwt beam="1">  1        1 0.11365944E-01 0.27632657E+03</pdfrwt>
<pdfrwt beam="2">  1       -1 0.39751460E-01 0.27632657E+03</pdfrwt>
<totfact> 0.33550019E+03</totfact>
</mgrwt>
</event>
<event>
 9    1  0.2094635E-002  0.2751658E+03  0.7818608E-02  0.1098359E+00
         -1   -1    0    0    0  501 -0.00000000000E+00  0.00000000000E+00  0.29797577126E+03  0.29797577126E+03  0.00000000000E+00 0. -1.
          1   -1    0    0  501    0  0.00000000000E+00 -0.00000000000E+00 -0.63525492076E+02  0.63525492076E+02  0.00000000000E+00 0. -1.
         36    2    1    2    0    0 -0.35527136788E-14  0.00000000000E+00  0.23445027918E+03  0.36150126334E+03  0.27516582270E+03 0.  0.
         25    2    3    3    0    0 -0.22144985124E+02  0.35577215332E+01  0.12040775104E+03  0.17394915354E+03  0.12352013502E+03 0.  0.
         25    2    3    3    0    0  0.22144985124E+02 -0.35577215332E+01  0.11404252814E+03  0.18755210980E+03  0.14719727551E+03 0.  0.
          5    1    4    4  502    0 -0.33873010227E+02 -0.46593933388E+02  0.20277023636E+02  0.61250495001E+02  0.47000000000E+01 0. -1.
         -5    1    4    4    0  502  0.11728025103E+02  0.50151654921E+02  0.10013072741E+03  0.11269865853E+03  0.47000000000E+01 0. -1.
          5    1    5    5  503    0  0.44724877095E+02  0.59157128788E+02  0.89589710859E+02  0.11639710825E+03  0.47000000000E+01 0.  1.
         -5    1    5    5    0  503 -0.22579891971E+02 -0.62714850321E+02  0.24452817279E+02  0.71155001547E+02  0.47000000000E+01 0.  1.
<mgrwt>
<rscale>  0 0.27516582E+03</rscale>
<asrwt>0</asrwt>
<pdfrwt beam="1">  1        1 0.97731528E-02 0.27516582E+03</pdfrwt>
<pdfrwt beam="2">  1       -1 0.45842425E-01 0.27516582E+03</pdfrwt>
<totfact> 0.31793480E+03</totfact>
</mgrwt>
</event>
<event>
 9    1  0.2094635E-002  0.2756483E+03  0.7818608E-02  0.1098090E+00
          1   -1    0    0  501    0  0.00000000000E+00  0.00000000000E+00  0.39668528783E+02  0.39668528783E+02  0.00000000000E+00 0.  1.
         -1   -1    0    0    0  501 -0.00000000000E+00 -0.00000000000E+00 -0.47885544460E+03  0.47885544460E+03  0.00000000000E+00 0.  1.
         36    2    1    2    0    0  0.71054273576E-14  0.00000000000E+00 -0.43918691582E+03  0.51852397339E+03  0.27564826128E+03 0.  0.
         25    2    3    3    0    0  0.44356540524E+02 -0.18551383133E+02 -0.26885196252E+03  0.30323276720E+03  0.13174625935E+03 0.  0.
         25    2    3    3    0    0 -0.44356540524E+02  0.18551383133E+02 -0.17033495330E+03  0.21529120618E+03  0.12257508165E+03 0.  0.
          5    1    4    4  502    0 -0.33745253766E+02 -0.42822171128E+02 -0.14251706827E+03  0.15266199671E+03  0.47000000000E+01 0. -1.
         -5    1    4    4    0  502  0.78101794290E+02  0.24270787995E+02 -0.12633489425E+03  0.15057077049E+03  0.47000000000E+01 0. -1.
          5    1    5    5  503    0 -0.58092141291E+02  0.56315031022E+02 -0.69938471052E+02  0.10704933130E+03  0.47000000000E+01 0.  1.
         -5    1    5    5    0  503  0.13735600766E+02 -0.37763647889E+02 -0.10039648225E+03  0.10824187488E+03  0.47000000000E+01 0.  1.
<mgrwt>
<rscale>  0 0.27564826E+03</rscale>
<asrwt>0</asrwt>
<pdfrwt beam="1">  1        1 0.61028506E-02 0.27564826E+03</pdfrwt>
<pdfrwt beam="2">  1       -1 0.73670068E-01 0.27564826E+03</pdfrwt>
<totfact> 0.24349884E+03</totfact>
</mgrwt>
</event>
<event>
 9    1  0.2094635E-002  0.2746398E+03  0.7818608E-02  0.1098653E+00
          2   -1    0    0  501    0  0.00000000000E+00  0.00000000000E+00  0.19757493151E+04  0.19757493151E+04  0.00000000000E+00 0. -1.
         -2   -1    0    0    0  501 -0.00000000000E+00 -0.00000000000E+00 -0.95441004078E+01  0.95441004078E+01  0.00000000000E+00 0. -1.
         36    2    1    2    0    0 -0.71054273576E-14 -0.71054273576E-14  0.19662052147E+04  0.19852934155E+04  0.27463976292E+03 0.  0.
         25    2    3    3    0    0 -0.61038184780E+02  0.22009228969E+02  0.11323303189E+04  0.11404485587E+04  0.11933523252E+03 0.  0.
         25    2    3    3    0    0  0.61038184780E+02 -0.22009228969E+02  0.83387489579E+03  0.84484485683E+03  0.11918650983E+03 0.  0.
          5    1    4    4  502    0  0.29196753668E+02 -0.27612606818E+01  0.11358541101E+03  0.11740447427E+03  0.47000000000E+01 0. -1.
         -5    1    4    4    0  502 -0.90234938448E+02  0.24770489650E+02  0.10187449079E+04  0.10230440844E+04  0.47000000000E+01 0. -1.
          5    1    5    5  503    0  0.58235210939E+01  0.46625393769E+02  0.31658813514E+03  0.32009057788E+03  0.47000000000E+01 0. -1.
         -5    1    5    5    0  503  0.55214663686E+02 -0.68634622737E+02  0.51728676066E+03  0.52475427895E+03  0.47000000000E+01 0. -1.
<mgrwt>
<rscale>  0 0.27463976E+03</rscale>
<asrwt>0</asrwt>
<pdfrwt beam="1">  1        2 0.30396111E+00 0.27463976E+03</pdfrwt>
<pdfrwt beam="2">  1       -2 0.14683247E-02 0.27463976E+03</pdfrwt>
<totfact> 0.93130444E+03</totfact>
</mgrwt>
</event>
<event>
 9    1  0.2094635E-002  0.2749549E+03  0.7818608E-02  0.1098477E+00
          2   -1    0    0  501    0  0.00000000000E+00  0.00000000000E+00  0.12015557567E+04  0.12015557567E+04  0.00000000000E+00 0.  1.
         -2   -1    0    0    0  501 -0.00000000000E+00 -0.00000000000E+00 -0.15729653026E+02  0.15729653026E+02  0.00000000000E+00 0.  1.
         36    2    1    2    0    0 -0.53290705182E-14  0.00000000000E+00  0.11858261037E+04  0.12172854098E+04  0.27495494281E+03 0.  0.
         25    2    3    3    0    0 -0.15951669068E+02 -0.61633073703E+02  0.72332743392E+03  0.73394755759E+03  0.10688006883E+03 0.  0.
         25    2    3    3    0    0  0.15951669068E+02  0.61633073703E+02  0.46249866980E+03  0.48333785218E+03  0.12512940607E+03 0.  0.
          5    1    4    4  502    0 -0.24572540966E+02 -0.29194826745E+02  0.66771891162E+03  0.66882492673E+03  0.47000000000E+01 0. -1.
         -5    1    4    4    0  502  0.86208718975E+01 -0.32438246959E+02  0.55608522298E+02  0.65122630860E+02  0.47000000000E+01 0. -1.
          5    1    5    5  503    0  0.36683332695E+02  0.71162286114E+02  0.15105976445E+03  0.17102888732E+03  0.47000000000E+01 0.  1.
         -5    1    5    5    0  503 -0.20731663626E+02 -0.95292124108E+01  0.31143890535E+03  0.31230896486E+03  0.47000000000E+01 0.  1.
<mgrwt>
<rscale>  0 0.27495494E+03</rscale>
<asrwt>0</asrwt>
<pdfrwt beam="1">  1        2 0.18485466E+00 0.27495494E+03</pdfrwt>
<pdfrwt beam="2">  1       -2 0.24199476E-02 0.27495494E+03</pdfrwt>
<totfact> 0.11614426E+04</totfact>
</mgrwt>
</event>
<event>
 9    1  0.2094635E-002  0.2738525E+03  0.7818608E-02  0.1099095E+00
         -1   -1    0    0    0  501 -0.00000000000E+00  0.00000000000E+00  0.39435898427E+02  0.39435898427E+02  0.00000000000E+00 0.  1.
          1   -1    0    0  501    0  0.00000000000E+00 -0.00000000000E+00 -0.47542451983E+03  0.47542451983E+03  0.00000000000E+00 0.  1.
         36    2    1    2    0    0 -0.35527136788E-14  0.00000000000E+00 -0.43598862140E+03  0.51486041826E+03  0.27385246447E+03 0.  0.
         25    2    3    3    0    0  0.74758208055E+01 -0.47565025776E+02 -0.28006774486E+03  0.31051872531E+03  0.12516236448E+03 0.  0.
         25    2    3    3    0    0 -0.74758208055E+01  0.47565025776E+02 -0.15592087654E+03  0.20434169295E+03  0.12298734960E+03 0.  0.
          5    1    4    4  502    0  0.19399238692E+02  0.25847960380E+01 -0.24969322623E+03  0.25050311147E+03  0.47000000000E+01 0.  1.
         -5    1    4    4    0  502 -0.11923417886E+02 -0.50149821814E+02 -0.30374518629E+02  0.60015613836E+02  0.47000000000E+01 0.  1.
          5    1    5    5  503    0 -0.54176174080E+02  0.21594286300E+02 -0.13432569649E+03  0.14651571171E+03  0.47000000000E+01 0.  1.
         -5    1    5    5    0  503  0.46700353275E+02  0.25970739476E+02 -0.21595180049E+02  0.57825981239E+02  0.47000000000E+01 0.  1.
<mgrwt>
<rscale>  0 0.27385246E+03</rscale>
<asrwt>0</asrwt>
<pdfrwt beam="1">  1        1 0.73142231E-01 0.27385246E+03</pdfrwt>
<pdfrwt beam="2">  1       -1 0.60670615E-02 0.27385246E+03</pdfrwt>
<totfact> 0.63126682E+03</totfact>
</mgrwt>
</event>
<event>
 9    1  0.2094635E-002  0.2758666E+03  0.7818608E-02  0.1097968E+00
         -2   -1    0    0    0  501 -0.00000000000E+00  0.00000000000E+00  0.29518054408E+02  0.29518054408E+02  0.00000000000E+00 0. -1.
          2   -1    0    0  501    0  0.00000000000E+00 -0.00000000000E+00 -0.64454109316E+03  0.64454109316E+03  0.00000000000E+00 0. -1.
         36    2    1    2    0    0  0.71054273576E-14  0.00000000000E+00 -0.61502303875E+03  0.67405914757E+03  0.27586662760E+03 0.  0.
         25    2    3    3    0    0  0.32725517880E+02  0.51509631088E+02 -0.30745913804E+03  0.33749978174E+03  0.12510307547E+03 0.  0.
         25    2    3    3    0    0 -0.32725517880E+02 -0.51509631088E+02 -0.30756390071E+03  0.33655936583E+03  0.12228021955E+03 0.  0.
          5    1    4    4  502    0 -0.34136021352E+02  0.60704596828E+02 -0.18264641763E+03  0.19553035545E+03  0.47000000000E+01 0. -1.
         -5    1    4    4    0  502  0.66861539231E+02 -0.91949657398E+01 -0.12481272041E+03  0.14196942628E+03  0.47000000000E+01 0. -1.
          5    1    5    5  503    0 -0.37970887589E+01  0.37710228518E+02 -0.13254227411E+03  0.13793485289E+03  0.47000000000E+01 0.  1.
         -5    1    5    5    0  503 -0.28928429121E+02 -0.89219859607E+02 -0.17502162661E+03  0.19862451294E+03  0.47000000000E+01 0.  1.
<mgrwt>
<rscale>  0 0.27586663E+03</rscale>
<asrwt>0</asrwt>
<pdfrwt beam="1">  1        2 0.99160166E-01 0.27586663E+03</pdfrwt>
<pdfrwt beam="2">  1       -2 0.45412392E-02 0.27586663E+03</pdfrwt>
<totfact> 0.10464737E+04</totfact>
</mgrwt>
</event>
<event>
 9    1  0.2094635E-002  0.2754501E+03  0.7818608E-02  0.1098200E+00
         -2   -1    0    0    0  501 -0.00000000000E+00  0.00000000000E+00  0.31851281346E+02  0.31851281346E+02  0.00000000000E+00 0. -1.
          2   -1    0    0  501    0  0.00000000000E+00 -0.00000000000E+00 -0.59552338901E+03  0.59552338901E+03  0.00000000000E+00 0. -1.
         36    2    1    2    0    0  0.00000000000E+00  0.00000000000E+00 -0.56367210766E+03  0.62737467036E+03  0.27545005363E+03 0.  0.
         25    2    3    3    0    0  0.63835157633E+02  0.16546552849E+02 -0.18686889212E+03  0.22471814316E+03  0.10596954874E+03 0.  0.
         25    2    3    3    0    0 -0.63835157633E+02 -0.16546552849E+02 -0.37680321554E+03  0.40265652720E+03  0.12570958552E+03 0.  0.
          5    1    4    4  502    0 -0.91378438587E+01 -0.34217956209E+02 -0.50223156566E+02  0.61634602075E+02  0.47000000000E+01 0. -1.
         -5    1    4    4    0  502  0.72973001492E+02  0.50764509058E+02 -0.13664573555E+03  0.16308354108E+03  0.47000000000E+01 0. -1.
          5    1    5    5  503    0  0.20361566998E+02 -0.21004537641E+02 -0.19406060727E+02  0.35418486770E+02  0.47000000000E+01 0. -1.
         -5    1    5    5    0  503 -0.84196724632E+02  0.44579847920E+01 -0.35739715482E+03  0.36723804043E+03  0.47000000000E+01 0. -1.
<mgrwt>
<rscale>  0 0.27545005E+03</rscale>
<asrwt>0</asrwt>
<pdfrwt beam="1">  1        2 0.91618979E-01 0.27545005E+03</pdfrwt>
<pdfrwt beam="2">  1       -2 0.49001973E-02 0.27545005E+03</pdfrwt>
<totfact> 0.10229881E+04</totfact>
</mgrwt>
</event>
<event>
 9    1  0.2094635E-002  0.2734378E+03  0.7818608E-02  0.1099328E+00
          3   -1    0    0  501    0  0.00000000000E+00  0.00000000000E+00  0.18814231596E+03  0.18814231596E+03  0.00000000000E+00 0.  1.
         -3   -1    0    0    0  501 -0.00000000000E+00 -0.00000000000E+00 -0.99350666140E+02  0.99350666140E+02  0.00000000000E+00 0.  1.
         36    2    1    2    0    0  0.00000000000E+00  0.00000000000E+00  0.88791649819E+02  0.28749298210E+03  0.27343784976E+03 0.  0.
         25    2    3    3    0    0  0.14907551992E+02  0.53800999505E+01  0.11201008964E+01  0.13502944647E+03  0.13409144718E+03 0.  0.
         25    2    3    3    0    0 -0.14907551992E+02 -0.53800999505E+01  0.87671548923E+02  0.15246353563E+03  0.12372408264E+03 0.  0.
          5    1    4    4  502    0  0.28571359770E+02  0.28998382746E+02 -0.57261817267E+02  0.70414732249E+02  0.47000000000E+01 0. -1.
         -5    1    4    4    0  502 -0.13663807779E+02 -0.23618282795E+02  0.58381918164E+02  0.64614714219E+02  0.47000000000E+01 0. -1.
          5    1    5    5  503    0 -0.18987268666E+02  0.55152108509E+02  0.65165286183E+02  0.87583537082E+02  0.47000000000E+01 0. -1.
         -5    1    5    5    0  503  0.40797166747E+01 -0.60532208460E+02  0.22506262740E+02  0.64879998549E+02  0.47000000000E+01 0. -1.
<mgrwt>
<rscale>  0 0.27343785E+03</rscale>
<asrwt>0</asrwt>
<pdfrwt beam="1">  1        3 0.28944972E-01 0.27343785E+03</pdfrwt>
<pdfrwt beam="2">  1       -3 0.15284718E-01 0.27343785E+03</pdfrwt>
<totfact> 0.10482237E+03</totfact>
</mgrwt>
</event>
<event>
 9    1  0.2094635E-002  0.2750384E+03  0.7818608E-02  0.1098430E+00
         -1   -1    0    0    0  501 -0.00000000000E+00  0.00000000000E+00  0.39425267186E+02  0.39425267186E+02  0.00000000000E+00 0.  1.
          1   -1    0    0  501    0  0.00000000000E+00 -0.00000000000E+00 -0.47968058679E+03  0.47968058679E+03  0.00000000000E+00 0.  1.
         36    2    1    2    0    0 -0.14210854715E-13 -0.71054273576E-14 -0.44025531960E+03  0.51910585397E+03  0.27503843584E+03 0.  0.
         25    2    3    3    0    0  0.47944767465E+02  0.72081294305E+01 -0.15046644155E+03  0.20039849388E+03  0.12316147311E+03 0.  0.
         25    2    3    3    0    0 -0.47944767465E+02 -0.72081294305E+01 -0.28978887805E+03  0.31870736010E+03  0.12347521889E+03 0.  0.
          5    1    4    4  502    0 -0.13280588819E+02 -0.45001317423E+02 -0.82235259156E+02  0.94795677420E+02  0.47000000000E+01 0. -1.
         -5    1    4    4    0  502  0.61225356284E+02  0.52209446854E+02 -0.68231182394E+02  0.10560281646E+03  0.47000000000E+01 0. -1.
          5    1    5    5  503    0 -0.61728349691E+02 -0.40585498198E+02 -0.94444313510E+02  0.11999745903E+03  0.47000000000E+01 0.  1.
         -5    1    5    5    0  503  0.13783582226E+02  0.33377368768E+02 -0.19534456454E+03  0.19870990106E+03  0.47000000000E+01 0.  1.
<mgrwt>
<rscale>  0 0.27503844E+03</rscale>
<asrwt>0</asrwt>
<pdfrwt beam="1">  1        1 0.73797013E-01 0.27503844E+03</pdfrwt>
<pdfrwt beam="2">  1       -1 0.60654257E-02 0.27503844E+03</pdfrwt>
<totfact> 0.62423902E+03</totfact>
</mgrwt>
</event>
<event>
 9    1  0.2094635E-002  0.2750383E+03  0.7818608E-02  0.1098430E+00
          2   -1    0    0  501    0  0.00000000000E+00  0.00000000000E+00  0.18997511935E+04  0.18997511935E+04  0.00000000000E+00 0.  1.
         -2   -1    0    0    0  501 -0.00000000000E+00 -0.00000000000E+00 -0.99547298305E+01  0.99547298305E+01  0.00000000000E+00 0.  1.
         36    2    1    2    0    0 -0.71054273576E-14  0.00000000000E+00  0.18897964637E+04  0.19097059233E+04  0.27503825099E+03 0.  0.
         25    2    3    3    0    0  0.37624535306E+02 -0.40744950960E+02  0.11224923865E+04  0.11306531991E+04  0.12374062390E+03 0.  0.
         25    2    3    3    0    0 -0.37624535306E+02  0.40744950960E+02  0.76730407715E+03  0.77905272429E+03  0.12284886544E+03 0.  0.
          5    1    4    4  502    0 -0.39064463344E+02 -0.15094599600E+02  0.18842291094E+03  0.19307812564E+03  0.47000000000E+01 0.  1.
         -5    1    4    4    0  502  0.76688998650E+02 -0.25650351360E+02  0.93406947559E+03  0.93757507341E+03  0.47000000000E+01 0.  1.
          5    1    5    5  503    0 -0.32553858345E+02  0.77457908947E+02  0.34562833589E+03  0.35572534057E+03  0.47000000000E+01 0. -1.
         -5    1    5    5    0  503 -0.50706769612E+01 -0.36712957987E+02  0.42167574125E+03  0.42332738372E+03  0.47000000000E+01 0. -1.
<mgrwt>
<rscale>  0 0.27503825E+03</rscale>
<asrwt>0</asrwt>
<pdfrwt beam="1">  1        2 0.29226913E+00 0.27503825E+03</pdfrwt>
<pdfrwt beam="2">  1       -2 0.15314984E-02 0.27503825E+03</pdfrwt>
<totfact> 0.95996820E+03</totfact>
</mgrwt>
</event>
<event>
 9    1  0.2094635E-002  0.2747296E+03  0.7818608E-02  0.1098603E+00
         -1   -1    0    0    0  501 -0.00000000000E+00  0.00000000000E+00  0.74564280794E+03  0.74564280794E+03  0.00000000000E+00 0. -1.
          1   -1    0    0  501    0  0.00000000000E+00 -0.00000000000E+00 -0.25305797186E+02  0.25305797186E+02  0.00000000000E+00 0. -1.
         36    2    1    2    0    0  0.00000000000E+00  0.14210854715E-13  0.72033701075E+03  0.77094860512E+03  0.27472958101E+03 0.  0.
         25    2    3    3    0    0  0.29847029065E+01 -0.54832745708E+02  0.34855099837E+03  0.37432196226E+03  0.12495436974E+03 0.  0.
         25    2    3    3    0    0 -0.29847029065E+01  0.54832745708E+02  0.37178601239E+03  0.39662664286E+03  0.12677663967E+03 0.  0.
          5    1    4    4  502    0  0.18340027175E+02  0.37806725513E+02  0.99281923613E+02  0.10791059006E+03  0.47000000000E+01 0.  1.
         -5    1    4    4    0  502 -0.15355324269E+02 -0.92639471221E+02  0.24926907475E+03  0.26641137220E+03  0.47000000000E+01 0.  1.
          5    1    5    5  503    0 -0.80063228194E+01  0.18848830364E+02 -0.19480391908E+01  0.21101290668E+02  0.47000000000E+01 0. -1.
         -5    1    5    5    0  503  0.50216199129E+01  0.35983915345E+02  0.37373405158E+03  0.37552535219E+03  0.47000000000E+01 0. -1.
<mgrwt>
<rscale>  0 0.27472958E+03</rscale>
<asrwt>0</asrwt>
<pdfrwt beam="1">  1        1 0.38932001E-02 0.27472958E+03</pdfrwt>
<pdfrwt beam="2">  1       -1 0.11471426E+00 0.27472958E+03</pdfrwt>
<totfact> 0.17364822E+03</totfact>
</mgrwt>
</event>
<event>
 9    1  0.2094635E-002  0.2745322E+03  0.7818608E-02  0.1098713E+00
         -2   -1    0    0    0  501 -0.00000000000E+00  0.00000000000E+00  0.14962588030E+02  0.14962588030E+02  0.00000000000E+00 0.  1.
          2   -1    0    0  501    0  0.00000000000E+00 -0.00000000000E+00 -0.12592727994E+04  0.12592727994E+04  0.00000000000E+00 0.  1.
         36    2    1    2    0    0  0.00000000000E+00 -0.71054273576E-14 -0.12443102114E+04  0.12742353874E+04  0.27453218475E+03 0.  0.
         25    2    3    3    0    0 -0.42552566676E+02 -0.50654126441E+02 -0.49630328874E+03  0.51342591525E+03  0.11363386194E+03 0.  0.
         25    2    3    3    0    0  0.42552566676E+02  0.50654126441E+02 -0.74800692262E+03  0.76080947217E+03  0.12222984579E+03 0.  0.
          5    1    4    4  502    0 -0.73194310022E+02 -0.42113408651E+02 -0.44434690182E+03  0.45232422593E+03  0.47000000000E+01 0.  1.
         -5    1    4    4    0  502  0.30641743347E+02 -0.85407177903E+01 -0.51956386923E+02  0.61101689320E+02  0.47000000000E+01 0.  1.
          5    1    5    5  503    0  0.23294391857E+02  0.53683341177E+02 -0.13188872238E+03  0.14436500581E+03  0.47000000000E+01 0.  1.
         -5    1    5    5    0  503  0.19258174819E+02 -0.30292147359E+01 -0.61611820024E+03  0.61644446636E+03  0.47000000000E+01 0.  1.
<mgrwt>
<rscale>  0 0.27453218E+03</rscale>
<asrwt>0</asrwt>
<pdfrwt beam="1">  1        2 0.19373427E+00 0.27453218E+03</pdfrwt>
<pdfrwt beam="2">  1       -2 0.23019367E-02 0.27453218E+03</pdfrwt>
<totfact> 0.11602141E+04</totfact>
</mgrwt>
</event>
<event>
 9    1  0.2094635E-002  0.2739926E+03  0.7818608E-02  0.1099016E+00
         -2   -1    0    0    0  501 -0.00000000000E+00  0.00000000000E+00  0.26203144210E+02  0.26203144210E+02  0.00000000000E+00 0. -1.
          2   -1    0    0  501    0  0.00000000000E+00 -0.00000000000E+00 -0.71624937875E+03  0.71624937875E+03  0.00000000000E+00 0. -1.
         36    2    1    2    0    0  0.00000000000E+00  0.00000000000E+00 -0.69004623454E+03  0.74245252296E+03  0.27399259670E+03 0.  0.
         25    2    3    3    0    0  0.25179088810E+02 -0.89515779091E+01 -0.21397448379E+03  0.24957796959E+03  0.12565813117E+03 0.  0.
         25    2    3    3    0    0 -0.25179088810E+02  0.89515779091E+01 -0.47607175074E+03  0.49287455337E+03  0.12476736849E+03 0.  0.
          5    1    4    4  502    0 -0.51098374468E+01 -0.28998892822E+02  0.25971343122E+01  0.29931276790E+02  0.47000000000E+01 0.  1.
         -5    1    4    4    0  502  0.30288926257E+02  0.20047314913E+02 -0.21657161811E+03  0.21964669280E+03  0.47000000000E+01 0.  1.
          5    1    5    5  503    0 -0.11338306648E+02 -0.54217634613E+02 -0.14052365135E+03  0.15111947488E+03  0.47000000000E+01 0. -1.
         -5    1    5    5    0  503 -0.13840782162E+02  0.63169212522E+02 -0.33554809939E+03  0.34175507848E+03  0.47000000000E+01 0. -1.
<mgrwt>
<rscale>  0 0.27399260E+03</rscale>
<asrwt>0</asrwt>
<pdfrwt beam="1">  1        2 0.11019220E+00 0.27399260E+03</pdfrwt>
<pdfrwt beam="2">  1       -2 0.40312534E-02 0.27399260E+03</pdfrwt>
<totfact> 0.11029983E+04</totfact>
</mgrwt>
</event>
<event>
 9    1  0.2094635E-002  0.2755763E+03  0.7818608E-02  0.1098130E+00
         -2   -1    0    0    0  501 -0.00000000000E+00  0.00000000000E+00  0.30219943777E+02  0.30219943777E+02  0.00000000000E+00 0.  1.
          2   -1    0    0  501    0  0.00000000000E+00 -0.00000000000E+00 -0.62824664622E+03  0.62824664622E+03  0.00000000000E+00 0.  1.
         36    2    1    2    0    0 -0.35527136788E-14  0.00000000000E+00 -0.59802670244E+03  0.65846659000E+03  0.27557632937E+03 0.  0.
         25    2    3    3    0    0 -0.29102497319E+02  0.47935505424E+02 -0.25724110671E+03  0.29090433064E+03  0.12372378338E+03 0.  0.
         25    2    3    3    0    0  0.29102497319E+02 -0.47935505424E+02 -0.34078559573E+03  0.36756225936E+03  0.12578721801E+03 0.  0.
          5    1    4    4  502    0  0.55682558897E+01  0.51928558723E+02 -0.28920054529E+02  0.59883555661E+02  0.47000000000E+01 0.  1.
         -5    1    4    4    0  502 -0.34670753209E+02 -0.39930532981E+01 -0.22832105218E+03  0.23102077498E+03  0.47000000000E+01 0.  1.
          5    1    5    5  503    0  0.39576334508E+02  0.33215201531E+02 -0.91948090045E+02  0.10557498344E+03  0.47000000000E+01 0. -1.
         -5    1    5    5    0  503 -0.10473837189E+02 -0.81150706955E+02 -0.24883750569E+03  0.26198727591E+03  0.47000000000E+01 0. -1.
<mgrwt>
<rscale>  0 0.27557633E+03</rscale>
<asrwt>0</asrwt>
<pdfrwt beam="1">  1        2 0.96653341E-01 0.27557633E+03</pdfrwt>
<pdfrwt beam="2">  1       -2 0.46492216E-02 0.27557633E+03</pdfrwt>
<totfact> 0.10408345E+04</totfact>
</mgrwt>
</event>
<event>
 9    1  0.2094635E-002  0.2730564E+03  0.7818608E-02  0.1099543E+00
          2   -1    0    0  501    0  0.00000000000E+00  0.00000000000E+00  0.12313873111E+03  0.12313873111E+03  0.00000000000E+00 0. -1.
         -2   -1    0    0    0  501 -0.00000000000E+00 -0.00000000000E+00 -0.15137354289E+03  0.15137354289E+03  0.00000000000E+00 0. -1.
         36    2    1    2    0    0 -0.71054273576E-14 -0.35527136788E-14 -0.28234811787E+02  0.27451227400E+03  0.27305637510E+03 0.  0.
         25    2    3    3    0    0  0.42565532605E+02 -0.13767687691E+02  0.10080057821E+02  0.13634650040E+03  0.12840321965E+03 0.  0.
         25    2    3    3    0    0 -0.42565532605E+02  0.13767687691E+02 -0.38314869608E+02  0.13816577360E+03  0.12498151052E+03 0.  0.
          5    1    4    4  502    0 -0.26504590264E+02  0.39895617667E+02 -0.39857734334E+00  0.48129019084E+02  0.47000000000E+01 0. -1.
         -5    1    4    4    0  502  0.69070122869E+02 -0.53663305358E+02  0.10478635164E+02  0.88217481317E+02  0.47000000000E+01 0. -1.
          5    1    5    5  503    0  0.42126282881E+02  0.97644425375E+00 -0.30090181140E+02  0.51991212275E+02  0.47000000000E+01 0.  1.
         -5    1    5    5    0  503 -0.84691815486E+02  0.12791243437E+02 -0.82246884683E+01  0.86174561324E+02  0.47000000000E+01 0.  1.
<mgrwt>
<rscale>  0 0.27305638E+03</rscale>
<asrwt>0</asrwt>
<pdfrwt beam="1">  1        2 0.18944420E-01 0.27305638E+03</pdfrwt>
<pdfrwt beam="2">  1       -2 0.23288237E-01 0.27305638E+03</pdfrwt>
<totfact> 0.47339087E+03</totfact>
</mgrwt>
</event>
<event>
 9    1  0.2094635E-002  0.2740393E+03  0.7818608E-02  0.1098990E+00
         -1   -1    0    0    0  501 -0.00000000000E+00  0.00000000000E+00  0.58698333964E+03  0.58698333964E+03  0.00000000000E+00 0.  1.
          1   -1    0    0  501    0  0.00000000000E+00 -0.00000000000E+00 -0.31984530389E+02  0.31984530389E+02  0.00000000000E+00 0.  1.
         36    2    1    2    0    0  0.00000000000E+00  0.71054273576E-14  0.55499880925E+03  0.61896787003E+03  0.27403931444E+03 0.  0.
         25    2    3    3    0    0  0.14647512004E+02  0.62947118019E+00  0.34606829644E+03  0.37193243801E+03  0.13548257009E+03 0.  0.
         25    2    3    3    0    0 -0.14647512004E+02 -0.62947118019E+00  0.20893051281E+03  0.24703543203E+03  0.13099465504E+03 0.  0.
          5    1    4    4  502    0  0.26857539039E+02 -0.55720193979E+02  0.26609366988E+03  0.27322883920E+03  0.47000000000E+01 0.  1.
         -5    1    4    4    0  502 -0.12210027035E+02  0.56349665159E+02  0.79974626558E+02  0.98703598803E+02  0.47000000000E+01 0.  1.
          5    1    5    5  503    0 -0.28799881885E+02 -0.33535277765E+02  0.10945751778E+02  0.45781519561E+02  0.47000000000E+01 0.  1.
         -5    1    5    5    0  503  0.14152369880E+02  0.32905806585E+02  0.19798476103E+03  0.20125391246E+03  0.47000000000E+01 0.  1.
<mgrwt>
<rscale>  0 0.27403931E+03</rscale>
<asrwt>0</asrwt>
<pdfrwt beam="1">  1        1 0.49206974E-02 0.27403931E+03</pdfrwt>
<pdfrwt beam="2">  1       -1 0.90305121E-01 0.27403931E+03</pdfrwt>
<totfact> 0.21434990E+03</totfact>
</mgrwt>
</event>
<event>
 9    1  0.2094635E-002  0.2746791E+03  0.7818608E-02  0.1098631E+00
          2   -1    0    0  501    0  0.00000000000E+00  0.00000000000E+00  0.56326709263E+02  0.56326709263E+02  0.00000000000E+00 0.  1.
         -2   -1    0    0    0  501 -0.00000000000E+00 -0.00000000000E+00 -0.33487046465E+03  0.33487046465E+03  0.00000000000E+00 0.  1.
         36    2    1    2    0    0 -0.71054273576E-14  0.44408920985E-14 -0.27854375539E+03  0.39119717391E+03  0.27467909497E+03 0.  0.
         25    2    3    3    0    0 -0.50855908141E+02  0.73828759131E+01 -0.10880570013E+03  0.17379281956E+03  0.12539710324E+03 0.  0.
         25    2    3    3    0    0  0.50855908141E+02 -0.73828759131E+01 -0.16973805526E+03  0.21740435435E+03  0.12574901844E+03 0.  0.
          5    1    4    4  502    0 -0.11122055700E+02 -0.54733448341E+02 -0.23069148375E+02  0.60611270380E+02  0.47000000000E+01 0. -1.
         -5    1    4    4    0  502 -0.39733852440E+02  0.62116324254E+02 -0.85736551757E+02  0.11318154918E+03  0.47000000000E+01 0. -1.
          5    1    5    5  503    0 -0.38186873795E+02 -0.55634819251E+01 -0.88926948543E+02  0.97052984697E+02  0.47000000000E+01 0.  1.
         -5    1    5    5    0  503  0.89042781935E+02 -0.18193939880E+01 -0.80811106713E+02  0.12035136965E+03  0.47000000000E+01 0.  1.
<mgrwt>
<rscale>  0 0.27467909E+03</rscale>
<asrwt>0</asrwt>
<pdfrwt beam="1">  1        2 0.86656474E-02 0.27467909E+03</pdfrwt>
<pdfrwt beam="2">  1       -2 0.51518534E-01 0.27467909E+03</pdfrwt>
<totfact> 0.27669936E+03</totfact>
</mgrwt>
</event>
<event>
 9    1  0.2094635E-002  0.2758061E+03  0.7818608E-02  0.1098002E+00
         -2   -1    0    0    0  501 -0.00000000000E+00  0.00000000000E+00  0.40545396603E+02  0.40545396603E+02  0.00000000000E+00 0. -1.
          2   -1    0    0  501    0  0.00000000000E+00 -0.00000000000E+00 -0.46903598485E+03  0.46903598485E+03  0.00000000000E+00 0. -1.
         36    2    1    2    0    0  0.00000000000E+00 -0.35527136788E-14 -0.42849058825E+03  0.50958138145E+03  0.27580609150E+03 0.  0.
         25    2    3    3    0    0  0.42170691477E+02 -0.13843014114E+02 -0.13005027628E+03  0.18357944578E+03  0.12173061362E+03 0.  0.
         25    2    3    3    0    0 -0.42170691477E+02  0.13843014114E+02 -0.29844031196E+03  0.32600193567E+03  0.12345301129E+03 0.  0.
          5    1    4    4  502    0 -0.19256118060E+02 -0.14537022914E+02 -0.11834032352E+03  0.12086622890E+03  0.47000000000E+01 0.  1.
         -5    1    4    4    0  502  0.61426809537E+02  0.69400880045E+00 -0.11709952764E+02  0.62713216883E+02  0.47000000000E+01 0.  1.
          5    1    5    5  503    0 -0.25366612534E+01  0.46372341459E+02 -0.25318361849E+03  0.25745070087E+03  0.47000000000E+01 0. -1.
         -5    1    5    5    0  503 -0.39634030223E+02 -0.32529327345E+02 -0.45256693467E+02  0.68551234802E+02  0.47000000000E+01 0. -1.
<mgrwt>
<rscale>  0 0.27580609E+03</rscale>
<asrwt>0</asrwt>
<pdfrwt beam="1">  1        2 0.72159384E-01 0.27580609E+03</pdfrwt>
<pdfrwt beam="2">  1       -2 0.62377531E-02 0.27580609E+03</pdfrwt>
<totfact> 0.92697289E+03</totfact>
</mgrwt>
</event>
<event>
 9    1  0.2094635E-002  0.2694842E+03  0.7818608E-02  0.1101575E+00
          2   -1    0    0  501    0  0.00000000000E+00  0.00000000000E+00  0.70229177427E+03  0.70229177427E+03  0.00000000000E+00 0.  1.
         -2   -1    0    0    0  501 -0.00000000000E+00 -0.00000000000E+00 -0.25851692378E+02  0.25851692378E+02  0.00000000000E+00 0.  1.
         36    2    1    2    0    0  0.00000000000E+00  0.00000000000E+00  0.67644008190E+03  0.72814346665E+03  0.26948418067E+03 0.  0.
         25    2    3    3    0    0  0.23729006778E+02 -0.47159867097E+02  0.40632818671E+03  0.42915893166E+03  0.12762317377E+03 0.  0.
         25    2    3    3    0    0 -0.23729006778E+02  0.47159867097E+02  0.27011189519E+03  0.29898453499E+03  0.11680837904E+03 0.  0.
          5    1    4    4  502    0 -0.10334360449E+02 -0.27243881194E+02  0.10478283346E+02  0.31319522510E+02  0.47000000000E+01 0.  1.
         -5    1    4    4    0  502  0.34063367227E+02 -0.19915985903E+02  0.39584990336E+03  0.39783940915E+03  0.47000000000E+01 0.  1.
          5    1    5    5  503    0 -0.18426198187E+02 -0.38041552597E+02  0.96865873042E+02  0.10579117101E+03  0.47000000000E+01 0.  1.
         -5    1    5    5    0  503 -0.53028085905E+01  0.85201419693E+02  0.17324602215E+03  0.19319336398E+03  0.47000000000E+01 0.  1.
<mgrwt>
<rscale>  0 0.26948418E+03</rscale>
<asrwt>0</asrwt>
<pdfrwt beam="1">  1        2 0.10804487E+00 0.26948418E+03</pdfrwt>
<pdfrwt beam="2">  1       -2 0.39771840E-02 0.26948418E+03</pdfrwt>
<totfact> 0.11522218E+04</totfact>
</mgrwt>
</event>
<event>
 9    1  0.2094635E-002  0.2763793E+03  0.7818608E-02  0.1097683E+00
         -2   -1    0    0    0  501 -0.00000000000E+00  0.00000000000E+00  0.58052618695E+02  0.58052618695E+02  0.00000000000E+00 0.  1.
          2   -1    0    0  501    0  0.00000000000E+00 -0.00000000000E+00 -0.32894949405E+03  0.32894949405E+03  0.00000000000E+00 0.  1.
         36    2    1    2    0    0  0.71054273576E-14 -0.71054273576E-14 -0.27089687536E+03  0.38700211275E+03  0.27637930131E+03 0.  0.
         25    2    3    3    0    0  0.40797543063E+02 -0.34179928884E+02 -0.19752355939E+03  0.23905472888E+03  0.12368872151E+03 0.  0.
         25    2    3    3    0    0 -0.40797543063E+02  0.34179928884E+02 -0.73373315969E+02  0.14794738386E+03  0.11692766070E+03 0.  0.
          5    1    4    4  502    0  0.78701229454E+02  0.68530984668E+00 -0.14670844715E+03  0.16655272929E+03  0.47000000000E+01 0. -1.
         -5    1    4    4    0  502 -0.37903686391E+02 -0.34865238731E+02 -0.50815112239E+02  0.72501999598E+02  0.47000000000E+01 0. -1.
          5    1    5    5  503    0 -0.17962426098E+02  0.14853783742E+02 -0.10292452551E+03  0.10563537094E+03  0.47000000000E+01 0. -1.
         -5    1    5    5    0  503 -0.22835116965E+02  0.19326145142E+02  0.29551209536E+02  0.42312012927E+02  0.47000000000E+01 0. -1.
<mgrwt>
<rscale>  0 0.27637930E+03</rscale>
<asrwt>0</asrwt>
<pdfrwt beam="1">  1        2 0.50607616E-01 0.27637930E+03</pdfrwt>
<pdfrwt beam="2">  1       -2 0.89311718E-02 0.27637930E+03</pdfrwt>
<totfact> 0.78031772E+03</totfact>
</mgrwt>
</event>
<event>
 9    1  0.2094635E-002  0.2758378E+03  0.7818608E-02  0.1097984E+00
         -2   -1    0    0    0  501 -0.00000000000E+00  0.00000000000E+00  0.17656464015E+03  0.17656464015E+03  0.00000000000E+00 0.  1.
          2   -1    0    0  501    0  0.00000000000E+00 -0.00000000000E+00 -0.10773176514E+03  0.10773176514E+03  0.00000000000E+00 0.  1.
         36    2    1    2    0    0  0.35527136788E-14  0.00000000000E+00  0.68832875003E+02  0.28429640529E+03  0.27583778092E+03 0.  0.
         25    2    3    3    0    0  0.10505725501E+02 -0.91142508537E+01  0.70589769512E+02  0.15501822028E+03  0.13731093628E+03 0.  0.
         25    2    3    3    0    0 -0.10505725501E+02  0.91142508537E+01 -0.17568945086E+01  0.12927818502E+03  0.12851584574E+03 0.  0.
          5    1    4    4  502    0  0.36167607782E+02 -0.65914074738E+02  0.42480180586E+02  0.86483621824E+02  0.47000000000E+01 0.  1.
         -5    1    4    4    0  502 -0.25661882280E+02  0.56799823884E+02  0.28109588926E+02  0.68534598452E+02  0.47000000000E+01 0.  1.
          5    1    5    5  503    0 -0.19272361623E+02  0.30674850520E+02 -0.57820564444E+02  0.68393552690E+02  0.47000000000E+01 0. -1.
         -5    1    5    5    0  503  0.87666361213E+01 -0.21560599667E+02  0.56063669935E+02  0.60884632326E+02  0.47000000000E+01 0. -1.
<mgrwt>
<rscale>  0 0.27583778E+03</rscale>
<asrwt>0</asrwt>
<pdfrwt beam="1">  1        2 0.16574118E-01 0.27583778E+03</pdfrwt>
<pdfrwt beam="2">  1       -2 0.27163791E-01 0.27583778E+03</pdfrwt>
<totfact> 0.42146071E+03</totfact>
</mgrwt>
</event>
<event>
 9    1  0.2094635E-002  0.2785577E+03  0.7818608E-02  0.1096479E+00
          3   -1    0    0  501    0  0.00000000000E+00  0.00000000000E+00  0.35082194124E+03  0.35082194124E+03  0.00000000000E+00 0.  1.
         -3   -1    0    0    0  501 -0.00000000000E+00 -0.00000000000E+00 -0.55294730929E+02  0.55294730929E+02  0.00000000000E+00 0.  1.
         36    2    1    2    0    0 -0.71054273576E-14 -0.17763568394E-14  0.29552721031E+03  0.40611667217E+03  0.27855774873E+03 0.  0.
         25    2    3    3    0    0 -0.42096770949E+02  0.82978201394E+00  0.21877194191E+03  0.25555066571E+03  0.12518847198E+03 0.  0.
         25    2    3    3    0    0  0.42096770949E+02 -0.82978201394E+00  0.76755268400E+02  0.15056600646E+03  0.12249867106E+03 0.  0.
          5    1    4    4  502    0  0.37405527848E+02 -0.12977502456E+02  0.29059913610E+02  0.49337183368E+02  0.47000000000E+01 0. -1.
         -5    1    4    4    0  502 -0.79502298798E+02  0.13807284470E+02  0.18971202830E+03  0.20621348234E+03  0.47000000000E+01 0. -1.
          5    1    5    5  503    0  0.61569873663E+02  0.43991132273E+02  0.65515388651E+02  0.10020192220E+03  0.47000000000E+01 0.  1.
         -5    1    5    5    0  503 -0.19473102714E+02 -0.44820914287E+02  0.11239879749E+02  0.50364084263E+02  0.47000000000E+01 0.  1.
<mgrwt>
<rscale>  0 0.27855775E+03</rscale>
<asrwt>0</asrwt>
<pdfrwt beam="1">  1        3 0.53972605E-01 0.27855775E+03</pdfrwt>
<pdfrwt beam="2">  1       -3 0.85068819E-02 0.27855775E+03</pdfrwt>
<totfact> 0.84045639E+02</totfact>
</mgrwt>
</event>
<event>
 9    1  0.2094635E-002  0.2743670E+03  0.7818608E-02  0.1098806E+00
         -2   -1    0    0    0  501 -0.00000000000E+00  0.00000000000E+00  0.28875524166E+03  0.28875524166E+03  0.00000000000E+00 0. -1.
          2   -1    0    0  501    0  0.00000000000E+00 -0.00000000000E+00 -0.65173919890E+02  0.65173919890E+02  0.00000000000E+00 0. -1.
         36    2    1    2    0    0  0.71054273576E-14 -0.10658141036E-13  0.22358132177E+03  0.35392916155E+03  0.27436698772E+03 0.  0.
         25    2    3    3    0    0 -0.42041443495E+02  0.29633559801E+02  0.14795956842E+03  0.19882590345E+03  0.12245029669E+03 0.  0.
         25    2    3    3    0    0  0.42041443495E+02 -0.29633559801E+02  0.75621753354E+02  0.15510325810E+03  0.12527066798E+03 0.  0.
          5    1    4    4  502    0 -0.26202480559E+02 -0.18995021868E+02 -0.88012071206E+01  0.33866385842E+02  0.47000000000E+01 0.  1.
         -5    1    4    4    0  502 -0.15838962936E+02  0.48628581669E+02  0.15676077554E+03  0.16495951761E+03  0.47000000000E+01 0.  1.
          5    1    5    5  503    0  0.13529660159E+02 -0.27677026424E+02 -0.31395455463E+02  0.44236117816E+02  0.47000000000E+01 0. -1.
         -5    1    5    5    0  503  0.28511783336E+02 -0.19565333764E+01  0.10701720882E+03  0.11086714029E+03  0.47000000000E+01 0. -1.
<mgrwt>
<rscale>  0 0.27436699E+03</rscale>
<asrwt>0</asrwt>
<pdfrwt beam="1">  1        2 0.10026757E-01 0.27436699E+03</pdfrwt>
<pdfrwt beam="2">  1       -2 0.44423883E-01 0.27436699E+03</pdfrwt>
<totfact> 0.30898670E+03</totfact>
</mgrwt>
</event>
<event>
 9    1  0.2094635E-002  0.2754901E+03  0.7818608E-02  0.1098178E+00
          2   -1    0    0  501    0  0.00000000000E+00  0.00000000000E+00  0.27471678993E+03  0.27471678993E+03  0.00000000000E+00 0.  1.
         -2   -1    0    0    0  501 -0.00000000000E+00 -0.00000000000E+00 -0.69066412884E+02  0.69066412884E+02  0.00000000000E+00 0.  1.
         36    2    1    2    0    0  0.71054273576E-14  0.00000000000E+00  0.20565037705E+03  0.34378320282E+03  0.27549013223E+03 0.  0.
         25    2    3    3    0    0 -0.30568294467E+02  0.10226335848E+01  0.16186336585E+03  0.20721780322E+03  0.12571397043E+03 0.  0.
         25    2    3    3    0    0  0.30568294467E+02 -0.10226335848E+01  0.43787011200E+02  0.13656539960E+03  0.12568746800E+03 0.  0.
          5    1    4    4  502    0  0.45006817754E+02 -0.11546910509E+02  0.32851293761E+02  0.57098531404E+02  0.47000000000E+01 0. -1.
         -5    1    4    4    0  502 -0.75575112222E+02  0.12569544094E+02  0.12901207209E+03  0.15011927181E+03  0.47000000000E+01 0. -1.
          5    1    5    5  503    0  0.73126364576E+02  0.22309513150E+02  0.42905525233E+02  0.87796091420E+02  0.47000000000E+01 0. -1.
         -5    1    5    5    0  503 -0.42558070109E+02 -0.23332146735E+02  0.88148596712E+00  0.48769308178E+02  0.47000000000E+01 0. -1.
<mgrwt>
<rscale>  0 0.27549013E+03</rscale>
<asrwt>0</asrwt>
<pdfrwt beam="1">  1        2 0.42264121E-01 0.27549013E+03</pdfrwt>
<pdfrwt beam="2">  1       -2 0.10625602E-01 0.27549013E+03</pdfrwt>
<totfact> 0.71898809E+03</totfact>
</mgrwt>
</event>
<event>
 9    1  0.2094635E-002  0.2753829E+03  0.7818608E-02  0.1098238E+00
         -1   -1    0    0    0  501 -0.00000000000E+00  0.00000000000E+00  0.42989681873E+02  0.42989681873E+02  0.00000000000E+00 0. -1.
          1   -1    0    0  501    0  0.00000000000E+00 -0.00000000000E+00 -0.44101140662E+03  0.44101140662E+03  0.00000000000E+00 0. -1.
         36    2    1    2    0    0  0.35527136788E-14 -0.35527136788E-14 -0.39802172474E+03  0.48400108849E+03  0.27538293392E+03 0.  0.
         25    2    3    3    0    0  0.13667401558E+02  0.17138013975E+02 -0.28948537718E+03  0.31586440556E+03  0.12445091286E+03 0.  0.
         25    2    3    3    0    0 -0.13667401558E+02 -0.17138013975E+02 -0.10853634757E+03  0.16813668293E+03  0.12652784680E+03 0.  0.
          5    1    4    4  502    0  0.20663282616E+02 -0.29590854517E+02 -0.18646317637E+02  0.40894560530E+02  0.47000000000E+01 0. -1.
         -5    1    4    4    0  502 -0.69958810579E+01  0.46728868493E+02 -0.27083905954E+03  0.27496984503E+03  0.47000000000E+01 0. -1.
          5    1    5    5  503    0 -0.19698471489E+01 -0.70123351106E+02 -0.41051632075E+02  0.81415546206E+02  0.47000000000E+01 0. -1.
         -5    1    5    5    0  503 -0.11697554409E+02  0.52985337130E+02 -0.67484715490E+02  0.86721136724E+02  0.47000000000E+01 0. -1.
<mgrwt>
<rscale>  0 0.27538293E+03</rscale>
<asrwt>0</asrwt>
<pdfrwt beam="1">  1        1 0.67847907E-01 0.27538293E+03</pdfrwt>
<pdfrwt beam="2">  1       -1 0.66137974E-02 0.27538293E+03</pdfrwt>
<totfact> 0.61136997E+03</totfact>
</mgrwt>
</event>
<event>
 9    1  0.2094635E-002  0.2757751E+03  0.7818608E-02  0.1098019E+00
         -2   -1    0    0    0  501 -0.00000000000E+00  0.00000000000E+00  0.23007747678E+02  0.23007747678E+02  0.00000000000E+00 0.  1.
          2   -1    0    0  501    0  0.00000000000E+00 -0.00000000000E+00 -0.82637301236E+03  0.82637301236E+03  0.00000000000E+00 0.  1.
         36    2    1    2    0    0  0.00000000000E+00  0.00000000000E+00 -0.80336526468E+03  0.84938076003E+03  0.27577513852E+03 0.  0.
         25    2    3    3    0    0 -0.23311954371E+02  0.33103145746E+02 -0.52867630676E+03  0.54469389928E+03  0.12471383691E+03 0.  0.
         25    2    3    3    0    0  0.23311954371E+02 -0.33103145746E+02 -0.27468895792E+03  0.30468686075E+03  0.12546232118E+03 0.  0.
          5    1    4    4  502    0  0.26150946198E+02 -0.31478830969E+02 -0.96837984114E+02  0.10523532655E+03  0.47000000000E+01 0.  1.
         -5    1    4    4    0  502 -0.49462900569E+02  0.64581976714E+02 -0.43183832264E+03  0.43945857274E+03  0.47000000000E+01 0.  1.
          5    1    5    5  503    0 -0.45307319136E+02 -0.38092771682E+02 -0.16237263666E+03  0.17288948944E+03  0.47000000000E+01 0. -1.
         -5    1    5    5    0  503  0.68619273507E+02  0.49896259364E+01 -0.11231632126E+03  0.13179737131E+03  0.47000000000E+01 0. -1.
<mgrwt>
<rscale>  0 0.27577514E+03</rscale>
<asrwt>0</asrwt>
<pdfrwt beam="1">  1        2 0.12713430E+00 0.27577514E+03</pdfrwt>
<pdfrwt beam="2">  1       -2 0.35396536E-02 0.27577514E+03</pdfrwt>
<totfact> 0.11207463E+04</totfact>
</mgrwt>
</event>
<event>
 9    1  0.2094635E-002  0.2746055E+03  0.7818608E-02  0.1098672E+00
          2   -1    0    0  501    0  0.00000000000E+00  0.00000000000E+00  0.83524355343E+03  0.83524355343E+03  0.00000000000E+00 0. -1.
         -2   -1    0    0    0  501 -0.00000000000E+00 -0.00000000000E+00 -0.22570715917E+02  0.22570715917E+02  0.00000000000E+00 0. -1.
         36    2    1    2    0    0  0.00000000000E+00 -0.17763568394E-14  0.81267283751E+03  0.85781426934E+03  0.27460549860E+03 0.  0.
         25    2    3    3    0    0  0.49627767975E+02  0.11007162415E+02  0.29245371298E+03  0.32028800947E+03  0.12029614207E+03 0.  0.
         25    2    3    3    0    0 -0.49627767975E+02 -0.11007162415E+02  0.52021912453E+03  0.53752625987E+03  0.12538927205E+03 0.  0.
          5    1    4    4  502    0  0.41101704123E+01 -0.69694177488E+01 -0.10098558483E+02  0.13767249834E+02  0.47000000000E+01 0. -1.
         -5    1    4    4    0  502  0.45517597562E+02  0.17976580164E+02  0.30255227146E+03  0.30652075964E+03  0.47000000000E+01 0. -1.
          5    1    5    5  503    0 -0.56079146100E+02 -0.56901297402E+02  0.22845805127E+03  0.24206982353E+03  0.47000000000E+01 0. -1.
         -5    1    5    5    0  503  0.64513781253E+01  0.45894134987E+02  0.29176107326E+03  0.29545643634E+03  0.47000000000E+01 0. -1.
<mgrwt>
<rscale>  0 0.27460550E+03</rscale>
<asrwt>0</asrwt>
<pdfrwt beam="1">  1        2 0.12849898E+00 0.27460550E+03</pdfrwt>
<pdfrwt beam="2">  1       -2 0.34724185E-02 0.27460550E+03</pdfrwt>
<totfact> 0.11374016E+04</totfact>
</mgrwt>
</event>
<event>
 9    1  0.2094635E-002  0.2741619E+03  0.7818608E-02  0.1098921E+00
         -1   -1    0    0    0  501 -0.00000000000E+00  0.00000000000E+00  0.33394054955E+03  0.33394054955E+03  0.00000000000E+00 0.  1.
          1   -1    0    0  501    0  0.00000000000E+00 -0.00000000000E+00 -0.56271059605E+02  0.56271059605E+02  0.00000000000E+00 0.  1.
         36    2    1    2    0    0  0.00000000000E+00  0.71054273576E-14  0.27766948994E+03  0.39021160915E+03  0.27416191251E+03 0.  0.
         25    2    3    3    0    0  0.51749359608E+02  0.14253208515E+02  0.14386860362E+03  0.19995210979E+03  0.12806842284E+03 0.  0.
         25    2    3    3    0    0 -0.51749359608E+02 -0.14253208515E+02  0.13380088632E+03  0.19025949937E+03  0.12415655337E+03 0.  0.
          5    1    4    4  502    0  0.47186690138E+02  0.44885475140E+02  0.15380357699E+03  0.16708955652E+03  0.47000000000E+01 0. -1.
         -5    1    4    4    0  502  0.45626694698E+01 -0.30632266626E+02 -0.99349733671E+01  0.32862553265E+02  0.47000000000E+01 0. -1.
          5    1    5    5  503    0 -0.43825831380E+02 -0.67608252378E+02  0.87262964594E+02  0.11886334286E+03  0.47000000000E+01 0.  1.
         -5    1    5    5    0  503 -0.79235282276E+01  0.53355043863E+02  0.46537921730E+02  0.71396156508E+02  0.47000000000E+01 0.  1.
<mgrwt>
<rscale>  0 0.27416191E+03</rscale>
<asrwt>0</asrwt>
<pdfrwt beam="1">  1        1 0.86570863E-02 0.27416191E+03</pdfrwt>
<pdfrwt beam="2">  1       -1 0.51375468E-01 0.27416191E+03</pdfrwt>
<totfact> 0.30368045E+03</totfact>
</mgrwt>
</event>
<event>
 9    1  0.2094635E-002  0.2745095E+03  0.7818608E-02  0.1098726E+00
         -1   -1    0    0    0  501 -0.00000000000E+00  0.00000000000E+00  0.38205637765E+02  0.38205637765E+02  0.00000000000E+00 0. -1.
          1   -1    0    0  501    0  0.00000000000E+00 -0.00000000000E+00 -0.49309126528E+03  0.49309126528E+03  0.00000000000E+00 0. -1.
         36    2    1    2    0    0  0.00000000000E+00  0.00000000000E+00 -0.45488562751E+03  0.53129690304E+03  0.27450949905E+03 0.  0.
         25    2    3    3    0    0 -0.32231170866E+02  0.45923927178E+02 -0.20998975912E+03  0.24702905178E+03  0.11738738443E+03 0.  0.
         25    2    3    3    0    0  0.32231170866E+02 -0.45923927178E+02 -0.24489586839E+03  0.28426785127E+03  0.13299011033E+03 0.  0.
          5    1    4    4  502    0 -0.26859181718E+02  0.85315891191E+02 -0.15487182253E+03  0.17890664702E+03  0.47000000000E+01 0.  1.
         -5    1    4    4    0  502 -0.53719891485E+01 -0.39391964014E+02 -0.55117936594E+02  0.68122404763E+02  0.47000000000E+01 0.  1.
          5    1    5    5  503    0 -0.11028843911E+02  0.36988485488E+02 -0.13192336296E+03  0.13753416721E+03  0.47000000000E+01 0. -1.
         -5    1    5    5    0  503  0.43260014777E+02 -0.82912412666E+02 -0.11297250543E+03  0.14673368405E+03  0.47000000000E+01 0. -1.
<mgrwt>
<rscale>  0 0.27450950E+03</rscale>
<asrwt>0</asrwt>
<pdfrwt beam="1">  1        1 0.75860190E-01 0.27450950E+03</pdfrwt>
<pdfrwt beam="2">  1       -1 0.58777908E-02 0.27450950E+03</pdfrwt>
<totfact> 0.63107319E+03</totfact>
</mgrwt>
</event>
<event>
 9    1  0.2094635E-002  0.2753161E+03  0.7818608E-02  0.1098275E+00
         -2   -1    0    0    0  501 -0.00000000000E+00  0.00000000000E+00  0.17389382788E+02  0.17389382788E+02  0.00000000000E+00 0.  1.
          2   -1    0    0  501    0  0.00000000000E+00 -0.00000000000E+00 -0.10897303059E+04  0.10897303059E+04  0.00000000000E+00 0.  1.
         36    2    1    2    0    0  0.00000000000E+00 -0.71054273576E-14 -0.10723409231E+04  0.11071196887E+04  0.27531609052E+03 0.  0.
         25    2    3    3    0    0  0.56139989226E+02  0.57440723880E+01 -0.54898227284E+03  0.56574601467E+03  0.12450833092E+03 0.  0.
         25    2    3    3    0    0 -0.56139989226E+02 -0.57440723880E+01 -0.52335865027E+03  0.54137367401E+03  0.12647721275E+03 0.  0.
          5    1    4    4  502    0  0.10642630156E+02 -0.44321692352E+02 -0.82597981919E+02  0.94457369255E+02  0.47000000000E+01 0.  1.
         -5    1    4    4    0  502  0.45497359071E+02  0.50065764740E+02 -0.46638429092E+03  0.47128864542E+03  0.47000000000E+01 0.  1.
          5    1    5    5  503    0  0.25082407741E+01  0.51430641192E+02 -0.13775424703E+03  0.14713845419E+03  0.47000000000E+01 0. -1.
         -5    1    5    5    0  503 -0.58648230000E+02 -0.57174713580E+02 -0.38560440324E+03  0.39423521982E+03  0.47000000000E+01 0. -1.
<mgrwt>
<rscale>  0 0.27531609E+03</rscale>
<asrwt>0</asrwt>
<pdfrwt beam="1">  1        2 0.16765086E+00 0.27531609E+03</pdfrwt>
<pdfrwt beam="2">  1       -2 0.26752889E-02 0.27531609E+03</pdfrwt>
<totfact> 0.11619179E+04</totfact>
</mgrwt>
</event>
<event>
 9    1  0.2094635E-002  0.2749136E+03  0.7818608E-02  0.1098500E+00
          1   -1    0    0  501    0  0.00000000000E+00  0.00000000000E+00  0.49537254463E+03  0.49537254463E+03  0.00000000000E+00 0. -1.
         -1   -1    0    0    0  501 -0.00000000000E+00 -0.00000000000E+00 -0.38141737493E+02  0.38141737493E+02  0.00000000000E+00 0. -1.
         36    2    1    2    0    0  0.00000000000E+00 -0.14210854715E-13  0.45723080713E+03  0.53351428212E+03  0.27491358321E+03 0.  0.
         25    2    3    3    0    0 -0.11176344356E+02  0.61440486609E+02  0.16408532324E+03  0.21016983341E+03  0.11553147409E+03 0.  0.
         25    2    3    3    0    0  0.11176344356E+02 -0.61440486609E+02  0.29314548390E+03  0.32334444871E+03  0.12131576038E+03 0.  0.
          5    1    4    4  502    0 -0.56919292892E+02  0.38570983242E+02  0.13391089100E+03  0.15060459282E+03  0.47000000000E+01 0.  1.
         -5    1    4    4    0  502  0.45742948536E+02  0.22869503367E+02  0.30174432238E+02  0.59565240585E+02  0.47000000000E+01 0.  1.
          5    1    5    5  503    0  0.53042358803E+02 -0.74745765609E+02  0.21035880997E+03  0.22950673244E+03  0.47000000000E+01 0. -1.
         -5    1    5    5    0  503 -0.41866014447E+02  0.13305279000E+02  0.82786673934E+02  0.93837716277E+02  0.47000000000E+01 0. -1.
<mgrwt>
<rscale>  0 0.27491358E+03</rscale>
<asrwt>0</asrwt>
<pdfrwt beam="1">  1        1 0.76211156E-01 0.27491358E+03</pdfrwt>
<pdfrwt beam="2">  1       -1 0.58679599E-02 0.27491358E+03</pdfrwt>
<totfact> 0.62883651E+03</totfact>
</mgrwt>
</event>
<event>
 9    1  0.2094635E-002  0.2717315E+03  0.7818608E-02  0.1100293E+00
          2   -1    0    0  501    0  0.00000000000E+00  0.00000000000E+00  0.31536138223E+03  0.31536138223E+03  0.00000000000E+00 0.  1.
         -2   -1    0    0    0  501 -0.00000000000E+00 -0.00000000000E+00 -0.58534425583E+02  0.58534425583E+02  0.00000000000E+00 0.  1.
         36    2    1    2    0    0  0.71054273576E-14  0.71054273576E-14  0.25682695665E+03  0.37389580782E+03  0.27173146568E+03 0.  0.
         25    2    3    3    0    0  0.81587274930E+01  0.31520543537E+02  0.18748950194E+03  0.22712027808E+03  0.12398063510E+03 0.  0.
         25    2    3    3    0    0 -0.81587274930E+01 -0.31520543537E+02  0.69337454712E+02  0.14677552974E+03  0.12520089458E+03 0.  0.
          5    1    4    4  502    0  0.41496286797E+02  0.16264065508E+02  0.10126520954E+02  0.45946687273E+02  0.47000000000E+01 0. -1.
         -5    1    4    4    0  502 -0.33337559304E+02  0.15256478030E+02  0.17736298098E+03  0.18117359081E+03  0.47000000000E+01 0. -1.
          5    1    5    5  503    0  0.43074333704E+02 -0.21048795324E+02  0.79826219572E+02  0.93235000616E+02  0.47000000000E+01 0.  1.
         -5    1    5    5    0  503 -0.51233061197E+02 -0.10471748213E+02 -0.10488764860E+02  0.53540529121E+02  0.47000000000E+01 0.  1.
<mgrwt>
<rscale>  0 0.27173147E+03</rscale>
<asrwt>0</asrwt>
<pdfrwt beam="1">  1        2 0.48517135E-01 0.27173147E+03</pdfrwt>
<pdfrwt beam="2">  1       -2 0.90052964E-02 0.27173147E+03</pdfrwt>
<totfact> 0.80546836E+03</totfact>
</mgrwt>
</event>
<event>
 9    1  0.2094635E-002  0.2746199E+03  0.7818608E-02  0.1098664E+00
          2   -1    0    0  501    0  0.00000000000E+00  0.00000000000E+00  0.80360323999E+02  0.80360323999E+02  0.00000000000E+00 0.  1.
         -2   -1    0    0    0  501 -0.00000000000E+00 -0.00000000000E+00 -0.23461861440E+03  0.23461861440E+03  0.00000000000E+00 0.  1.
         36    2    1    2    0    0  0.00000000000E+00 -0.71054273576E-14 -0.15425829040E+03  0.31497893840E+03  0.27461994006E+03 0.  0.
         25    2    3    3    0    0  0.14942277002E+02 -0.29626046634E+02 -0.41539832352E+02  0.13882518398E+03  0.12824156796E+03 0.  0.
         25    2    3    3    0    0 -0.14942277002E+02  0.29626046634E+02 -0.11271845805E+03  0.17615375442E+03  0.13123917148E+03 0.  0.
          5    1    4    4  502    0  0.23246904843E+02  0.32395072220E+02  0.25053459924E+02  0.47324677950E+02  0.47000000000E+01 0.  1.
         -5    1    4    4    0  502 -0.83046278409E+01 -0.62021118855E+02 -0.66593292275E+02  0.91500506030E+02  0.47000000000E+01 0.  1.
          5    1    5    5  503    0  0.30764369043E+02  0.51839149727E+02 -0.97676622933E+01  0.61247376056E+02  0.47000000000E+01 0.  1.
         -5    1    5    5    0  503 -0.45706646045E+02 -0.22213103092E+02 -0.10295079576E+03  0.11490637836E+03  0.47000000000E+01 0.  1.
<mgrwt>
<rscale>  0 0.27461994E+03</rscale>
<asrwt>0</asrwt>
<pdfrwt beam="1">  1        2 0.12363127E-01 0.27461994E+03</pdfrwt>
<pdfrwt beam="2">  1       -2 0.36095171E-01 0.27461994E+03</pdfrwt>
<totfact> 0.35527264E+03</totfact>
</mgrwt>
</event>
<event>
 9    1  0.2094635E-002  0.2739092E+03  0.7818608E-02  0.1099063E+00
          2   -1    0    0  501    0  0.00000000000E+00  0.00000000000E+00  0.13658344947E+04  0.13658344947E+04  0.00000000000E+00 0. -1.
         -2   -1    0    0    0  501 -0.00000000000E+00 -0.00000000000E+00 -0.13732678215E+02  0.13732678215E+02  0.00000000000E+00 0. -1.
         36    2    1    2    0    0  0.00000000000E+00  0.71054273576E-14  0.13521018165E+04  0.13795671729E+04  0.27390922299E+03 0.  0.
         25    2    3    3    0    0  0.70334835061E+01 -0.36810796761E+02  0.83543717389E+03  0.84564247632E+03  0.12550466761E+03 0.  0.
         25    2    3    3    0    0 -0.70334835061E+01  0.36810796761E+02  0.51666464256E+03  0.53392469656E+03  0.12933956887E+03 0.  0.
          5    1    4    4  502    0  0.44269475528E+02  0.27415418629E+02  0.24351398513E+03  0.24906333049E+03  0.47000000000E+01 0. -1.
         -5    1    4    4    0  502 -0.37235992022E+02 -0.64226215390E+02  0.59192318877E+03  0.59657914583E+03  0.47000000000E+01 0. -1.
          5    1    5    5  503    0  0.23015728663E+02 -0.38533713353E+02  0.28207794547E+03  0.28566523791E+03  0.47000000000E+01 0. -1.
         -5    1    5    5    0  503 -0.30049212169E+02  0.75344510114E+02  0.23458669709E+03  0.24825945865E+03  0.47000000000E+01 0. -1.
<mgrwt>
<rscale>  0 0.27390922E+03</rscale>
<asrwt>0</asrwt>
<pdfrwt beam="1">  1        2 0.21012828E+00 0.27390922E+03</pdfrwt>
<pdfrwt beam="2">  1       -2 0.21127208E-02 0.27390922E+03</pdfrwt>
<totfact> 0.11497117E+04</totfact>
</mgrwt>
</event>
<event>
 9    1  0.2094635E-002  0.2752324E+03  0.7818608E-02  0.1098322E+00
          4   -1    0    0  501    0  0.00000000000E+00  0.00000000000E+00  0.35684340864E+03  0.35684340864E+03  0.00000000000E+00 0. -1.
         -4   -1    0    0    0  501 -0.00000000000E+00 -0.00000000000E+00 -0.53071514646E+02  0.53071514646E+02  0.00000000000E+00 0. -1.
         36    2    1    2    0    0  0.00000000000E+00  0.71054273576E-14  0.30377189400E+03  0.40991492329E+03  0.27523241225E+03 0.  0.
         25    2    3    3    0    0  0.29451974176E+02  0.55507618646E+02  0.19484766297E+03  0.23990787875E+03  0.12506663828E+03 0.  0.
         25    2    3    3    0    0 -0.29451974176E+02 -0.55507618646E+02  0.10892423102E+03  0.17000704453E+03  0.11440888329E+03 0.  0.
          5    1    4    4  502    0  0.43959312770E+02  0.21371412755E+02  0.84853080403E+01  0.49832207606E+02  0.47000000000E+01 0.  1.
         -5    1    4    4    0  502 -0.14507338594E+02  0.34136205891E+02  0.18636235493E+03  0.19007567115E+03  0.47000000000E+01 0.  1.
          5    1    5    5  503    0  0.39019909204E+02 -0.40277035716E+02  0.69423701596E+02  0.89367406048E+02  0.47000000000E+01 0.  1.
         -5    1    5    5    0  503 -0.68471883381E+02 -0.15230582930E+02  0.39500529424E+02  0.80639638484E+02  0.47000000000E+01 0.  1.
<mgrwt>
<rscale>  0 0.27523241E+03</rscale>
<asrwt>0</asrwt>
<pdfrwt beam="1">  1        4 0.54898984E-01 0.27523241E+03</pdfrwt>
<pdfrwt beam="2">  1       -4 0.81648486E-02 0.27523241E+03</pdfrwt>
<totfact> 0.63958439E+02</totfact>
</mgrwt>
</event>
<event>
 9    1  0.2094635E-002  0.2749291E+03  0.7818608E-02  0.1098491E+00
         -2   -1    0    0    0  501 -0.00000000000E+00  0.00000000000E+00  0.37541409151E+02  0.37541409151E+02  0.00000000000E+00 0. -1.
          2   -1    0    0  501    0  0.00000000000E+00 -0.00000000000E+00 -0.50335089640E+03  0.50335089640E+03  0.00000000000E+00 0. -1.
         36    2    1    2    0    0 -0.71054273576E-14  0.71054273576E-14 -0.46580948725E+03  0.54089230555E+03  0.27492909594E+03 0.  0.
         25    2    3    3    0    0  0.32377079308E+02 -0.41514448779E+02 -0.21518017503E+03  0.25430990941E+03  0.12489714800E+03 0.  0.
         25    2    3    3    0    0 -0.32377079308E+02  0.41514448779E+02 -0.25062931222E+03  0.28658239614E+03  0.12861840036E+03 0.  0.
          5    1    4    4  502    0 -0.43308010376E+02 -0.11915931140E+01 -0.11127678925E+03  0.11950572154E+03  0.47000000000E+01 0. -1.
         -5    1    4    4    0  502  0.75685089684E+02 -0.40322855665E+02 -0.10390338579E+03  0.13480418787E+03  0.47000000000E+01 0. -1.
          5    1    5    5  503    0 -0.78792269330E+02  0.14912662223E+02 -0.18564495072E+03  0.20227888404E+03  0.47000000000E+01 0.  1.
         -5    1    5    5    0  503  0.46415190022E+02  0.26601786556E+02 -0.64984361506E+02  0.84303512104E+02  0.47000000000E+01 0.  1.
<mgrwt>
<rscale>  0 0.27492910E+03</rscale>
<asrwt>0</asrwt>
<pdfrwt beam="1">  1        2 0.77438599E-01 0.27492910E+03</pdfrwt>
<pdfrwt beam="2">  1       -2 0.57756014E-02 0.27492910E+03</pdfrwt>
<totfact> 0.96417658E+03</totfact>
</mgrwt>
</event>
<event>
 9    1  0.2094635E-002  0.2747311E+03  0.7818608E-02  0.1098602E+00
          2   -1    0    0  501    0  0.00000000000E+00  0.00000000000E+00  0.23372727965E+03  0.23372727965E+03  0.00000000000E+00 0.  1.
         -2   -1    0    0    0  501 -0.00000000000E+00 -0.00000000000E+00 -0.80732129325E+02  0.80732129325E+02  0.00000000000E+00 0.  1.
         36    2    1    2    0    0  0.00000000000E+00  0.71054273576E-14  0.15299515033E+03  0.31445940898E+03  0.27473114835E+03 0.  0.
         25    2    3    3    0    0 -0.21047103646E+02  0.63001245383E+02  0.75339469433E+02  0.15386038074E+03  0.11655403732E+03 0.  0.
         25    2    3    3    0    0  0.21047103646E+02 -0.63001245383E+02  0.77655680896E+02  0.16059902824E+03  0.12389312170E+03 0.  0.
          5    1    4    4  502    0 -0.63780262617E+02  0.26839868870E+02  0.68131371989E+02  0.97222807558E+02  0.47000000000E+01 0.  1.
         -5    1    4    4    0  502  0.42733158971E+02  0.36161376514E+02  0.72080974446E+01  0.56637573181E+02  0.47000000000E+01 0.  1.
          5    1    5    5  503    0  0.48569426041E+00 -0.35855827078E+02 -0.30375916807E+02  0.47229890496E+02  0.47000000000E+01 0. -1.
         -5    1    5    5    0  503  0.20561409385E+02 -0.27145418305E+02  0.10803159770E+03  0.11336913775E+03  0.47000000000E+01 0. -1.
<mgrwt>
<rscale>  0 0.27473115E+03</rscale>
<asrwt>0</asrwt>
<pdfrwt beam="1">  1        2 0.35958043E-01 0.27473115E+03</pdfrwt>
<pdfrwt beam="2">  1       -2 0.12420328E-01 0.27473115E+03</pdfrwt>
<totfact> 0.66593660E+03</totfact>
</mgrwt>
</event>
<event>
 9    1  0.2094635E-002  0.2755822E+03  0.7818608E-02  0.1098127E+00
         -2   -1    0    0    0  501 -0.00000000000E+00  0.00000000000E+00  0.14276337763E+02  0.14276337763E+02  0.00000000000E+00 0.  1.
          2   -1    0    0  501    0  0.00000000000E+00 -0.00000000000E+00 -0.13299203001E+04  0.13299203001E+04  0.00000000000E+00 0.  1.
         36    2    1    2    0    0  0.00000000000E+00 -0.35527136788E-14 -0.13156439623E+04  0.13441966379E+04  0.27558223021E+03 0.  0.
         25    2    3    3    0    0 -0.32488975997E+02 -0.10518625575E+02 -0.90577709450E+03  0.91493221790E+03  0.12450961164E+03 0.  0.
         25    2    3    3    0    0  0.32488975997E+02  0.10518625575E+02 -0.40986686784E+03  0.42926441996E+03  0.12292647334E+03 0.  0.
          5    1    4    4  502    0 -0.35626497953E+02 -0.42407333768E+02 -0.17895415711E+03  0.18738812572E+03  0.47000000000E+01 0.  1.
         -5    1    4    4    0  502  0.31375219561E+01  0.31888708193E+02 -0.72682293738E+03  0.72754409218E+03  0.47000000000E+01 0.  1.
          5    1    5    5  503    0 -0.16193405503E+02  0.56250508984E+02 -0.22872500619E+03  0.23614310195E+03  0.47000000000E+01 0.  1.
         -5    1    5    5    0  503  0.48682381501E+02 -0.45731883410E+02 -0.18114186165E+03  0.19312131801E+03  0.47000000000E+01 0.  1.
<mgrwt>
<rscale>  0 0.27558223E+03</rscale>
<asrwt>0</asrwt>
<pdfrwt beam="1">  1        2 0.20460308E+00 0.27558223E+03</pdfrwt>
<pdfrwt beam="2">  1       -2 0.21963601E-02 0.27558223E+03</pdfrwt>
<totfact> 0.11362924E+04</totfact>
</mgrwt>
</event>
<event>
 9    1  0.2094635E-002  0.2724739E+03  0.7818608E-02  0.1099872E+00
         -2   -1    0    0    0  501 -0.00000000000E+00  0.00000000000E+00  0.71626596842E+01  0.71626596842E+01  0.00000000000E+00 0.  1.
          2   -1    0    0  501    0  0.00000000000E+00 -0.00000000000E+00 -0.25912877420E+04  0.25912877420E+04  0.00000000000E+00 0.  1.
         36    2    1    2    0    0 -0.35527136788E-14 -0.14210854715E-13 -0.25841250823E+04  0.25984504017E+04  0.27247394180E+03 0.  0.
         25    2    3    3    0    0 -0.17213118438E+01  0.69666886187E+02 -0.72143424408E+03  0.73016188779E+03  0.88388777063E+02 0.  0.
         25    2    3    3    0    0  0.17213118438E+01 -0.69666886187E+02 -0.18626908383E+04  0.18682885139E+04  0.12660321615E+03 0.  0.
          5    1    4    4  502    0  0.22354296773E+02  0.12703875157E+02 -0.55511904467E+02  0.61357677317E+02  0.47000000000E+01 0. -1.
         -5    1    4    4    0  502 -0.24075608617E+02  0.56963011030E+02 -0.66592233961E+03  0.66880421048E+03  0.47000000000E+01 0. -1.
          5    1    5    5  503    0 -0.49964189988E+02 -0.27739616878E+01 -0.39934784598E+03  0.40249833196E+03  0.47000000000E+01 0. -1.
         -5    1    5    5    0  503  0.51685501831E+02 -0.66892924499E+02 -0.14633429923E+04  0.14657901819E+04  0.47000000000E+01 0. -1.
<mgrwt>
<rscale>  0 0.27247394E+03</rscale>
<asrwt>0</asrwt>
<pdfrwt beam="1">  1        2 0.39866007E+00 0.27247394E+03</pdfrwt>
<pdfrwt beam="2">  1       -2 0.11019465E-02 0.27247394E+03</pdfrwt>
<totfact> 0.66119975E+03</totfact>
</mgrwt>
</event>
<event>
 9    1  0.2094635E-002  0.2745719E+03  0.7818608E-02  0.1098691E+00
         -2   -1    0    0    0  501 -0.00000000000E+00  0.00000000000E+00  0.16292794302E+03  0.16292794302E+03  0.00000000000E+00 0. -1.
          2   -1    0    0  501    0  0.00000000000E+00 -0.00000000000E+00 -0.11567956295E+03  0.11567956295E+03  0.00000000000E+00 0. -1.
         36    2    1    2    0    0  0.00000000000E+00 -0.71054273576E-14  0.47248380071E+02  0.27860750598E+03  0.27457190856E+03 0.  0.
         25    2    3    3    0    0  0.29119538334E+01  0.46413737915E+02 -0.15476039266E+02  0.13184333873E+03  0.12239462256E+03 0.  0.
         25    2    3    3    0    0 -0.29119538334E+01 -0.46413737915E+02  0.62724419336E+02  0.14676416725E+03  0.12426847334E+03 0.  0.
          5    1    4    4  502    0  0.25993064055E+02  0.65778231794E+02  0.30097956687E+02  0.77009039428E+02  0.47000000000E+01 0.  1.
         -5    1    4    4    0  502 -0.23081110221E+02 -0.19364493879E+02 -0.45573995953E+02  0.54834299297E+02  0.47000000000E+01 0.  1.
          5    1    5    5  503    0 -0.29047184240E+02 -0.29306787824E+02  0.93719859187E+02  0.10250916413E+03  0.47000000000E+01 0. -1.
         -5    1    5    5    0  503  0.26135230406E+02 -0.17106950091E+02 -0.30995439850E+02  0.44255003122E+02  0.47000000000E+01 0. -1.
<mgrwt>
<rscale>  0 0.27457191E+03</rscale>
<asrwt>0</asrwt>
<pdfrwt beam="1">  1        2 0.17796856E-01 0.27457191E+03</pdfrwt>
<pdfrwt beam="2">  1       -2 0.25065837E-01 0.27457191E+03</pdfrwt>
<totfact> 0.44732256E+03</totfact>
</mgrwt>
</event>
<event>
 9    1  0.2094635E-002  0.2744664E+03  0.7818608E-02  0.1098750E+00
          2   -1    0    0  501    0  0.00000000000E+00  0.00000000000E+00  0.88496445258E+02  0.88496445258E+02  0.00000000000E+00 0. -1.
         -2   -1    0    0    0  501 -0.00000000000E+00 -0.00000000000E+00 -0.21281028892E+03  0.21281028892E+03  0.00000000000E+00 0. -1.
         36    2    1    2    0    0 -0.35527136788E-14 -0.71054273576E-14 -0.12431384366E+03  0.30130673418E+03  0.27446642114E+03 0.  0.
         25    2    3    3    0    0 -0.17595431551E+02  0.45629418568E+02 -0.96784336276E+02  0.16454599582E+03  0.12375998521E+03 0.  0.
         25    2    3    3    0    0  0.17595431551E+02 -0.45629418568E+02 -0.27529507384E+02  0.13676073836E+03  0.12471560740E+03 0.  0.
          5    1    4    4  502    0  0.38260361804E+02  0.29068724737E+01 -0.84611634694E+02  0.93024318963E+02  0.47000000000E+01 0. -1.
         -5    1    4    4    0  502 -0.55855793354E+02  0.42722546095E+02 -0.12172701582E+02  0.71521676853E+02  0.47000000000E+01 0. -1.
          5    1    5    5  503    0 -0.15522534388E+02 -0.66376584762E+02  0.23550853943E+02  0.72274011926E+02  0.47000000000E+01 0. -1.
         -5    1    5    5    0  503  0.33117965939E+02  0.20747166193E+02 -0.51080361327E+02  0.64486726435E+02  0.47000000000E+01 0. -1.
<mgrwt>
<rscale>  0 0.27446642E+03</rscale>
<asrwt>0</asrwt>
<pdfrwt beam="1">  1        2 0.13614838E-01 0.27446642E+03</pdfrwt>
<pdfrwt beam="2">  1       -2 0.32740044E-01 0.27446642E+03</pdfrwt>
<totfact> 0.37912126E+03</totfact>
</mgrwt>
</event>
<event>
 9    1  0.2094635E-002  0.2749203E+03  0.7818608E-02  0.1098496E+00
          1   -1    0    0  501    0  0.00000000000E+00  0.00000000000E+00  0.85667060923E+03  0.85667060923E+03  0.00000000000E+00 0.  1.
         -1   -1    0    0    0  501 -0.00000000000E+00 -0.00000000000E+00 -0.22056666955E+02  0.22056666955E+02  0.00000000000E+00 0.  1.
         36    2    1    2    0    0  0.00000000000E+00 -0.71054273576E-14  0.83461394228E+03  0.87872727619E+03  0.27492033986E+03 0.  0.
         25    2    3    3    0    0  0.36441106472E+02 -0.43093068569E+02  0.26022237919E+03  0.28835621727E+03  0.11067364009E+03 0.  0.
         25    2    3    3    0    0 -0.36441106472E+02  0.43093068569E+02  0.57439156309E+03  0.59037105891E+03  0.12420689454E+03 0.  0.
          5    1    4    4  502    0 -0.29909661788E+02 -0.30128683041E+02  0.42198072929E+02  0.60042424743E+02  0.47000000000E+01 0. -1.
         -5    1    4    4    0  502  0.66350768260E+02 -0.12964385528E+02  0.21802430626E+03  0.22831379253E+03  0.47000000000E+01 0. -1.
          5    1    5    5  503    0  0.30908145090E+01  0.69542465318E+02  0.47486242063E+03  0.47996053603E+03  0.47000000000E+01 0. -1.
         -5    1    5    5    0  503 -0.39531920981E+02 -0.26449396749E+02  0.99529142457E+02  0.11041052288E+03  0.47000000000E+01 0. -1.
<mgrwt>
<rscale>  0 0.27492034E+03</rscale>
<asrwt>0</asrwt>
<pdfrwt beam="1">  1        1 0.13179545E+00 0.27492034E+03</pdfrwt>
<pdfrwt beam="2">  1       -1 0.33933340E-02 0.27492034E+03</pdfrwt>
<totfact> 0.64897838E+03</totfact>
</mgrwt>
</event>
<event>
 9    1  0.2094635E-002  0.2749864E+03  0.7818608E-02  0.1098459E+00
          4   -1    0    0  501    0  0.00000000000E+00  0.00000000000E+00  0.89355682942E+02  0.89355682942E+02  0.00000000000E+00 0. -1.
         -4   -1    0    0    0  501 -0.00000000000E+00 -0.00000000000E+00 -0.21156327593E+03  0.21156327593E+03  0.00000000000E+00 0. -1.
         36    2    1    2    0    0  0.00000000000E+00  0.00000000000E+00 -0.12220759299E+03  0.30091895887E+03  0.27498640698E+03 0.  0.
         25    2    3    3    0    0  0.14996917691E+02  0.23366283732E+02 -0.92454535553E+02  0.16938828672E+03  0.13918929477E+03 0.  0.
         25    2    3    3    0    0 -0.14996917691E+02 -0.23366283732E+02 -0.29753057435E+02  0.13153067215E+03  0.12507670660E+03 0.  0.
          5    1    4    4  502    0 -0.22354725625E+02 -0.37176847579E+02 -0.87677756746E+02  0.97935339800E+02  0.47000000000E+01 0. -1.
         -5    1    4    4    0  502  0.37351643316E+02  0.60543131312E+02 -0.47767788064E+01  0.71452946918E+02  0.47000000000E+01 0. -1.
          5    1    5    5  503    0 -0.64606992847E+02  0.12910491281E+02 -0.20776897514E+02  0.69242427601E+02  0.47000000000E+01 0.  1.
         -5    1    5    5    0  503  0.49610075156E+02 -0.36276775014E+02 -0.89761599202E+01  0.62288244551E+02  0.47000000000E+01 0.  1.
<mgrwt>
<rscale>  0 0.27498641E+03</rscale>
<asrwt>0</asrwt>
<pdfrwt beam="1">  1        4 0.13747028E-01 0.27498641E+03</pdfrwt>
<pdfrwt beam="2">  1       -4 0.32548196E-01 0.27498641E+03</pdfrwt>
<totfact> 0.74903727E+02</totfact>
</mgrwt>
</event>
<event>
 9    1  0.2094635E-002  0.2648394E+03  0.7818608E-02  0.1104270E+00
         -3   -1    0    0    0  501 -0.00000000000E+00  0.00000000000E+00  0.20748375672E+04  0.20748375672E+04  0.00000000000E+00 0.  1.
          3   -1    0    0  501    0  0.00000000000E+00 -0.00000000000E+00 -0.84512550888E+01  0.84512550888E+01  0.00000000000E+00 0.  1.
         36    2    1    2    0    0  0.44408920985E-15  0.00000000000E+00  0.20663863121E+04  0.20832888223E+04  0.26483943474E+03 0.  0.
         25    2    3    3    0    0  0.20572182559E+01 -0.17514731675E+02  0.88073892881E+03  0.89016232689E+03  0.12797229981E+03 0.  0.
         25    2    3    3    0    0 -0.20572182559E+01  0.17514731675E+02  0.11856473833E+04  0.11931264954E+04  0.13221239928E+03 0.  0.
          5    1    4    4  502    0  0.12995695266E+02 -0.30095523298E+02  0.54713679739E+02  0.63955495218E+02  0.47000000000E+01 0.  1.
         -5    1    4    4    0  502 -0.10938477010E+02  0.12580791623E+02  0.82602524908E+03  0.82620683168E+03  0.47000000000E+01 0.  1.
          5    1    5    5  503    0  0.24198824058E+01 -0.56359345481E+02  0.39975425214E+03  0.40374222439E+03  0.47000000000E+01 0.  1.
         -5    1    5    5    0  503 -0.44771006618E+01  0.73874077156E+02  0.78589313117E+03  0.78938427102E+03  0.47000000000E+01 0.  1.
<mgrwt>
<rscale>  0 0.26483943E+03</rscale>
<asrwt>0</asrwt>
<pdfrwt beam="1">  1        3 0.13001947E-02 0.26483943E+03</pdfrwt>
<pdfrwt beam="2">  1       -3 0.31920538E+00 0.26483943E+03</pdfrwt>
<totfact> 0.16078450E+02</totfact>
</mgrwt>
</event>
<event>
 9    1  0.2094635E-002  0.2737964E+03  0.7818608E-02  0.1099126E+00
         -3   -1    0    0    0  501 -0.00000000000E+00  0.00000000000E+00  0.12135345169E+03  0.12135345169E+03  0.00000000000E+00 0. -1.
          3   -1    0    0  501    0  0.00000000000E+00 -0.00000000000E+00 -0.15443410312E+03  0.15443410312E+03  0.00000000000E+00 0. -1.
         36    2    1    2    0    0  0.71054273576E-14 -0.71054273576E-14 -0.33080651432E+02  0.27578755481E+03  0.27379635843E+03 0.  0.
         25    2    3    3    0    0  0.65153864822E+01 -0.30586589552E+02  0.31022058047E+02  0.12922538212E+03  0.12148597276E+03 0.  0.
         25    2    3    3    0    0 -0.65153864822E+01  0.30586589552E+02 -0.64102709479E+02  0.14656217269E+03  0.12803641427E+03 0.  0.
          5    1    4    4  502    0 -0.49720968960E+02 -0.13605412169E+02 -0.15621182399E+02  0.54068413461E+02  0.47000000000E+01 0. -1.
         -5    1    4    4    0  502  0.56236355443E+02 -0.16981177383E+02  0.46643240446E+02  0.75156968660E+02  0.47000000000E+01 0. -1.
          5    1    5    5  503    0 -0.51581300398E+02  0.57687069800E+02 -0.48741377484E+02  0.91576418646E+02  0.47000000000E+01 0. -1.
         -5    1    5    5    0  503  0.45065913916E+02 -0.27100480248E+02 -0.15361331995E+02  0.54985754040E+02  0.47000000000E+01 0. -1.
<mgrwt>
<rscale>  0 0.27379636E+03</rscale>
<asrwt>0</asrwt>
<pdfrwt beam="1">  1        3 0.23759093E-01 0.27379636E+03</pdfrwt>
<pdfrwt beam="2">  1       -3 0.18669762E-01 0.27379636E+03</pdfrwt>
<totfact> 0.10619360E+03</totfact>
</mgrwt>
</event>
<event>
 9    1  0.2094635E-002  0.2748408E+03  0.7818608E-02  0.1098541E+00
          2   -1    0    0  501    0  0.00000000000E+00  0.00000000000E+00  0.69005196609E+03  0.69005196609E+03  0.00000000000E+00 0. -1.
         -2   -1    0    0    0  501 -0.00000000000E+00 -0.00000000000E+00 -0.27366588980E+02  0.27366588980E+02  0.00000000000E+00 0. -1.
         36    2    1    2    0    0  0.71054273576E-14  0.71054273576E-14  0.66268537711E+03  0.71741855507E+03  0.27484081597E+03 0.  0.
         25    2    3    3    0    0  0.27176157228E+02  0.35145844052E+02  0.23099177286E+03  0.26614576238E+03  0.12450941261E+03 0.  0.
         25    2    3    3    0    0 -0.27176157228E+02 -0.35145844052E+02  0.43169360425E+03  0.45127279269E+03  0.12374971351E+03 0.  0.
          5    1    4    4  502    0 -0.32366134767E+02  0.58843242504E+02  0.10529255852E+03  0.12497482446E+03  0.47000000000E+01 0. -1.
         -5    1    4    4    0  502  0.59542291995E+02 -0.23697398452E+02  0.12569921434E+03  0.14117093792E+03  0.47000000000E+01 0. -1.
          5    1    5    5  503    0  0.41888584982E+02  0.15300944782E+01  0.24815875027E+03  0.25171779849E+03  0.47000000000E+01 0.  1.
         -5    1    5    5    0  503 -0.69064742210E+02 -0.36675938531E+02  0.18353485398E+03  0.19955499420E+03  0.47000000000E+01 0.  1.
<mgrwt>
<rscale>  0 0.27484082E+03</rscale>
<asrwt>0</asrwt>
<pdfrwt beam="1">  1        2 0.10616183E+00 0.27484082E+03</pdfrwt>
<pdfrwt beam="2">  1       -2 0.42102450E-02 0.27484082E+03</pdfrwt>
<totfact> 0.10811233E+04</totfact>
</mgrwt>
</event>
<event>
 9    1  0.2094635E-002  0.2734603E+03  0.7818608E-02  0.1099315E+00
          2   -1    0    0  501    0  0.00000000000E+00  0.00000000000E+00  0.18775744893E+04  0.18775744893E+04  0.00000000000E+00 0. -1.
         -2   -1    0    0    0  501 -0.00000000000E+00 -0.00000000000E+00 -0.99570635387E+01  0.99570635387E+01  0.00000000000E+00 0. -1.
         36    2    1    2    0    0  0.00000000000E+00 -0.14210854715E-13  0.18676174258E+04  0.18875315528E+04  0.27346026028E+03 0.  0.
         25    2    3    3    0    0  0.27913460217E+02  0.59741318035E+02  0.88311132021E+03  0.89330820166E+03  0.11732754550E+03 0.  0.
         25    2    3    3    0    0 -0.27913460217E+02 -0.59741318035E+02  0.98450610555E+03  0.99422335117E+03  0.12198202250E+03 0.  0.
          5    1    4    4  502    0  0.33663977346E+02 -0.26985687936E+02  0.40680767023E+03  0.40911619533E+03  0.47000000000E+01 0.  1.
         -5    1    4    4    0  502 -0.57505171291E+01  0.86727005971E+02  0.47630364998E+03  0.48419200633E+03  0.47000000000E+01 0.  1.
          5    1    5    5  503    0  0.94344696412E+01 -0.79824043948E+02  0.83121734050E+03  0.83510792378E+03  0.47000000000E+01 0.  1.
         -5    1    5    5    0  503 -0.37347929858E+02  0.20082725912E+02  0.15328876505E+03  0.15911542740E+03  0.47000000000E+01 0.  1.
<mgrwt>
<rscale>  0 0.27346026E+03</rscale>
<asrwt>0</asrwt>
<pdfrwt beam="1">  1        2 0.28885733E+00 0.27346026E+03</pdfrwt>
<pdfrwt beam="2">  1       -2 0.15318574E-02 0.27346026E+03</pdfrwt>
<totfact> 0.98563470E+03</totfact>
</mgrwt>
</event>
<event>
 9    1  0.2094635E-002  0.2750832E+03  0.7818608E-02  0.1098405E+00
          1   -1    0    0  501    0  0.00000000000E+00  0.00000000000E+00  0.11044813825E+04  0.11044813825E+04  0.00000000000E+00 0.  1.
         -1   -1    0    0    0  501 -0.00000000000E+00 -0.00000000000E+00 -0.17128116872E+02  0.17128116872E+02  0.00000000000E+00 0.  1.
         36    2    1    2    0    0 -0.71054273576E-14  0.00000000000E+00  0.10873532657E+04  0.11216094994E+04  0.27508315981E+03 0.  0.
         25    2    3    3    0    0 -0.44809800884E+02 -0.27746417169E+02  0.64027030152E+03  0.65512428619E+03  0.12831207826E+03 0.  0.
         25    2    3    3    0    0  0.44809800884E+02  0.27746417169E+02  0.44708296413E+03  0.46648521321E+03  0.12225995011E+03 0.  0.
          5    1    4    4  502    0  0.17509959311E+02 -0.56195632408E+02  0.42722275101E+03  0.43128403258E+03  0.47000000000E+01 0.  1.
         -5    1    4    4    0  502 -0.62319760195E+02  0.28449215240E+02  0.21304755051E+03  0.22384025361E+03  0.47000000000E+01 0.  1.
          5    1    5    5  503    0 -0.17209146106E+02  0.58265336889E+02  0.25832398139E+03  0.26541358962E+03  0.47000000000E+01 0. -1.
         -5    1    5    5    0  503  0.62018946990E+02 -0.30518919720E+02  0.18875898274E+03  0.20107162359E+03  0.47000000000E+01 0. -1.
<mgrwt>
<rscale>  0 0.27508316E+03</rscale>
<asrwt>0</asrwt>
<pdfrwt beam="1">  1        1 0.16992016E+00 0.27508316E+03</pdfrwt>
<pdfrwt beam="2">  1       -1 0.26350958E-02 0.27508316E+03</pdfrwt>
<totfact> 0.61173551E+03</totfact>
</mgrwt>
</event>
<event>
 9    1  0.2094635E-002  0.2719896E+03  0.7818608E-02  0.1100146E+00
         -2   -1    0    0    0  501 -0.00000000000E+00  0.00000000000E+00  0.11671315607E+03  0.11671315607E+03  0.00000000000E+00 0.  1.
          2   -1    0    0  501    0  0.00000000000E+00 -0.00000000000E+00 -0.15846191927E+03  0.15846191927E+03  0.00000000000E+00 0.  1.
         36    2    1    2    0    0  0.35527136788E-14 -0.14210854715E-13 -0.41748763199E+02  0.27517507534E+03  0.27198963741E+03 0.  0.
         25    2    3    3    0    0  0.14857170003E+01  0.71758279818E+02  0.24548852349E+01  0.12261548933E+03  0.99383467868E+02 0.  0.
         25    2    3    3    0    0 -0.14857170003E+01 -0.71758279818E+02 -0.44203648433E+02  0.15255958601E+03  0.12715740903E+03 0.  0.
          5    1    4    4  502    0  0.30782579126E+02  0.63959780504E+02 -0.30669035696E+02  0.77466769974E+02  0.47000000000E+01 0. -1.
         -5    1    4    4    0  502 -0.29296862125E+02  0.77984993141E+01  0.33123920931E+02  0.45148719359E+02  0.47000000000E+01 0. -1.
          5    1    5    5  503    0 -0.21297254531E+02  0.30781967451E+02 -0.27515680501E+02  0.46693738811E+02  0.47000000000E+01 0. -1.
         -5    1    5    5    0  503  0.19811537530E+02 -0.10254024727E+03 -0.16687967932E+02  0.10586584720E+03  0.47000000000E+01 0. -1.
<mgrwt>
<rscale>  0 0.27198964E+03</rscale>
<asrwt>0</asrwt>
<pdfrwt beam="1">  1        2 0.24378757E-01 0.27198964E+03</pdfrwt>
<pdfrwt beam="2">  1       -2 0.17955870E-01 0.27198964E+03</pdfrwt>
<totfact> 0.55527748E+03</totfact>
</mgrwt>
</event>
<event>
 9    1  0.2094635E-002  0.2755982E+03  0.7818608E-02  0.1098118E+00
          1   -1    0    0  501    0  0.00000000000E+00  0.00000000000E+00  0.89295295038E+03  0.89295295038E+03  0.00000000000E+00 0.  1.
         -1   -1    0    0    0  501 -0.00000000000E+00 -0.00000000000E+00 -0.21264934154E+02  0.21264934154E+02  0.00000000000E+00 0.  1.
         36    2    1    2    0    0 -0.21316282073E-13 -0.71054273576E-14  0.87168801623E+03  0.91421788453E+03  0.27559815451E+03 0.  0.
         25    2    3    3    0    0  0.57963805902E+02  0.10431452169E+02  0.47745934598E+03  0.49788340830E+03  0.12826473874E+03 0.  0.
         25    2    3    3    0    0 -0.57963805902E+02 -0.10431452169E+02  0.39422867024E+03  0.41633447623E+03  0.12020621311E+03 0.  0.
          5    1    4    4  502    0  0.72631709013E+02  0.16395325358E+02  0.12891128714E+03  0.14894422379E+03  0.47000000000E+01 0.  1.
         -5    1    4    4    0  502 -0.14667903111E+02 -0.59638731883E+01  0.34854805884E+03  0.34893918451E+03  0.47000000000E+01 0.  1.
          5    1    5    5  503    0 -0.76547446600E+02  0.34028465709E+02  0.27913236733E+03  0.29146940929E+03  0.47000000000E+01 0.  1.
         -5    1    5    5    0  503  0.18583640698E+02 -0.44459917878E+02  0.11509630292E+03  0.12486506695E+03  0.47000000000E+01 0.  1.
<mgrwt>
<rscale>  0 0.27559815E+03</rscale>
<asrwt>0</asrwt>
<pdfrwt beam="1">  1        1 0.13737735E+00 0.27559815E+03</pdfrwt>
<pdfrwt beam="2">  1       -1 0.32715290E-02 0.27559815E+03</pdfrwt>
<totfact> 0.64096249E+03</totfact>
</mgrwt>
</event>
<event>
 9    1  0.2094635E-002  0.2753641E+03  0.7818608E-02  0.1098248E+00
         -2   -1    0    0    0  501 -0.00000000000E+00  0.00000000000E+00  0.90811670555E+02  0.90811670555E+02  0.00000000000E+00 0.  1.
          2   -1    0    0  501    0  0.00000000000E+00 -0.00000000000E+00 -0.20874357712E+03  0.20874357712E+03  0.00000000000E+00 0.  1.
         36    2    1    2    0    0 -0.71054273576E-14  0.14210854715E-13 -0.11793190656E+03  0.29955524767E+03  0.27536414404E+03 0.  0.
         25    2    3    3    0    0 -0.40015707667E+02  0.38923619985E+02 -0.35005802619E+02  0.13930773247E+03  0.12273928897E+03 0.  0.
         25    2    3    3    0    0  0.40015707667E+02 -0.38923619985E+02 -0.82926103941E+02  0.16024751520E+03  0.12524465003E+03 0.  0.
          5    1    4    4  502    0 -0.24006081314E+00  0.25476806579E+02 -0.76087871115E+02  0.80377729711E+02  0.47000000000E+01 0. -1.
         -5    1    4    4    0  502 -0.39775646854E+02  0.13446813405E+02  0.41082068495E+02  0.58930002760E+02  0.47000000000E+01 0. -1.
          5    1    5    5  503    0 -0.12047489416E+02 -0.72999425189E+02 -0.52367386677E+02  0.90766135020E+02  0.47000000000E+01 0. -1.
         -5    1    5    5    0  503  0.52063197083E+02  0.34075805204E+02 -0.30558717264E+02  0.69481380179E+02  0.47000000000E+01 0. -1.
<mgrwt>
<rscale>  0 0.27536414E+03</rscale>
<asrwt>0</asrwt>
<pdfrwt beam="1">  1        2 0.32114396E-01 0.27536414E+03</pdfrwt>
<pdfrwt beam="2">  1       -2 0.13971026E-01 0.27536414E+03</pdfrwt>
<totfact> 0.62173278E+03</totfact>
</mgrwt>
</event>
<event>
 9    1  0.2094635E-002  0.2731349E+03  0.7818608E-02  0.1099499E+00
         -4   -1    0    0    0  501 -0.00000000000E+00  0.00000000000E+00  0.18260512883E+03  0.18260512883E+03  0.00000000000E+00 0.  1.
          4   -1    0    0  501    0  0.00000000000E+00 -0.00000000000E+00 -0.10213658134E+03  0.10213658134E+03  0.00000000000E+00 0.  1.
         36    2    1    2    0    0  0.00000000000E+00  0.71054273576E-14  0.80468547492E+02  0.28474171017E+03  0.27313486481E+03 0.  0.
         25    2    3    3    0    0  0.13483667398E+02  0.33793272548E+02  0.51583373333E+02  0.14287728732E+03  0.12817675402E+03 0.  0.
         25    2    3    3    0    0 -0.13483667398E+02 -0.33793272548E+02  0.28885174158E+02  0.14186442285E+03  0.13404240608E+03 0.  0.
          5    1    4    4  502    0  0.13297501958E+02 -0.46917330930E+02  0.35357081227E+02  0.60417486648E+02  0.47000000000E+01 0. -1.
         -5    1    4    4    0  502  0.18616543970E+00  0.80710603478E+02  0.16226292106E+02  0.82459800672E+02  0.47000000000E+01 0. -1.
          5    1    5    5  503    0  0.25245618716E+00  0.51143011054E+02  0.20463405028E+02  0.55285732872E+02  0.47000000000E+01 0. -1.
         -5    1    5    5    0  503 -0.13736123585E+02 -0.84936283603E+02  0.84217691298E+01  0.86578689980E+02  0.47000000000E+01 0. -1.
<mgrwt>
<rscale>  0 0.27313486E+03</rscale>
<asrwt>0</asrwt>
<pdfrwt beam="1">  1        4 0.15713320E-01 0.27313486E+03</pdfrwt>
<pdfrwt beam="2">  1       -4 0.28093097E-01 0.27313486E+03</pdfrwt>
<totfact> 0.78357727E+02</totfact>
</mgrwt>
</event>
<event>
 9    1  0.2094635E-002  0.2746150E+03  0.7818608E-02  0.1098667E+00
         -2   -1    0    0    0  501 -0.00000000000E+00  0.00000000000E+00  0.22090217172E+02  0.22090217172E+02  0.00000000000E+00 0. -1.
          2   -1    0    0  501    0  0.00000000000E+00 -0.00000000000E+00 -0.85347039156E+03  0.85347039156E+03  0.00000000000E+00 0. -1.
         36    2    1    2    0    0 -0.71054273576E-14 -0.35527136788E-14 -0.83138017438E+03  0.87556060873E+03  0.27461497628E+03 0.  0.
         25    2    3    3    0    0 -0.27254096450E+02  0.34564924125E+01 -0.58429459824E+03  0.59884936732E+03  0.12831856489E+03 0.  0.
         25    2    3    3    0    0  0.27254096450E+02 -0.34564924125E+01 -0.24708557615E+03  0.27671124141E+03  0.12150348172E+03 0.  0.
          5    1    4    4  502    0  0.15448658284E+02 -0.52601403654E+02 -0.17314646942E+03  0.18167927395E+03  0.47000000000E+01 0.  1.
         -5    1    4    4    0  502 -0.42702754733E+02  0.56057896066E+02 -0.41114812882E+03  0.41717009337E+03  0.47000000000E+01 0.  1.
          5    1    5    5  503    0 -0.41209105792E+02 -0.24622440829E+02 -0.13727786022E+03  0.14550517482E+03  0.47000000000E+01 0.  1.
         -5    1    5    5    0  503  0.68463202242E+02  0.21165948417E+02 -0.10980771593E+03  0.13120606659E+03  0.47000000000E+01 0.  1.
<mgrwt>
<rscale>  0 0.27461498E+03</rscale>
<asrwt>0</asrwt>
<pdfrwt beam="1">  1        2 0.13130314E+00 0.27461498E+03</pdfrwt>
<pdfrwt beam="2">  1       -2 0.33984950E-02 0.27461498E+03</pdfrwt>
<totfact> 0.11420593E+04</totfact>
</mgrwt>
</event>
<event>
 9    1  0.2094635E-002  0.2745959E+03  0.7818608E-02  0.1098678E+00
          4   -1    0    0  501    0  0.00000000000E+00  0.00000000000E+00  0.50550652531E+03  0.50550652531E+03  0.00000000000E+00 0. -1.
         -4   -1    0    0    0  501 -0.00000000000E+00 -0.00000000000E+00 -0.37290764367E+02  0.37290764367E+02  0.00000000000E+00 0. -1.
         36    2    1    2    0    0  0.00000000000E+00  0.14210854715E-13  0.46821576094E+03  0.54279728968E+03  0.27459588286E+03 0.  0.
         25    2    3    3    0    0  0.40920859364E+02  0.37754403180E+02  0.24178013671E+03  0.27980709555E+03  0.12936175835E+03 0.  0.
         25    2    3    3    0    0 -0.40920859364E+02 -0.37754403180E+02  0.22643562423E+03  0.26299019412E+03  0.12161759163E+03 0.  0.
          5    1    4    4  502    0  0.11388040175E+02 -0.48050015578E+02  0.75951037774E+02  0.90714616215E+02  0.47000000000E+01 0.  1.
         -5    1    4    4    0  502  0.29532819190E+02  0.85804418758E+02  0.16582909894E+03  0.18909247934E+03  0.47000000000E+01 0.  1.
          5    1    5    5  503    0 -0.46150156948E+02 -0.29333826480E+02  0.23962767995E+03  0.24583292164E+03  0.47000000000E+01 0.  1.
         -5    1    5    5    0  503  0.52292975839E+01 -0.84205767003E+01 -0.13192055718E+02  0.17157272489E+02  0.47000000000E+01 0.  1.
<mgrwt>
<rscale>  0 0.27459588E+03</rscale>
<asrwt>0</asrwt>
<pdfrwt beam="1">  1        4 0.77770230E-01 0.27459588E+03</pdfrwt>
<pdfrwt beam="2">  1       -4 0.57370410E-02 0.27459588E+03</pdfrwt>
<totfact> 0.54114711E+02</totfact>
</mgrwt>
</event>
<event>
 9    1  0.2094635E-002  0.2770204E+03  0.7818608E-02  0.1097328E+00
         -2   -1    0    0    0  501 -0.00000000000E+00  0.00000000000E+00  0.61565847841E+02  0.61565847841E+02  0.00000000000E+00 0. -1.
          2   -1    0    0  501    0  0.00000000000E+00 -0.00000000000E+00 -0.31161881204E+03  0.31161881204E+03  0.00000000000E+00 0. -1.
         36    2    1    2    0    0 -0.71054273576E-14 -0.35527136788E-14 -0.25005296420E+03  0.37318465988E+03  0.27702040622E+03 0.  0.
         25    2    3    3    0    0 -0.28011370527E+02  0.21147454986E+02 -0.76142419159E+02  0.15158247763E+03  0.12628431335E+03 0.  0.
         25    2    3    3    0    0  0.28011370527E+02 -0.21147454986E+02 -0.17391054504E+03  0.22160218225E+03  0.13278101435E+03 0.  0.
          5    1    4    4  502    0  0.34257161695E+02  0.51586070009E+01 -0.79693386537E+02  0.87024652894E+02  0.47000000000E+01 0.  1.
         -5    1    4    4    0  502 -0.62268532222E+02  0.15988847985E+02  0.35509673780E+01  0.64557824733E+02  0.47000000000E+01 0.  1.
          5    1    5    5  503    0 -0.49312491163E+02 -0.32011041756E+02 -0.79695702780E+02  0.99145971278E+02  0.47000000000E+01 0.  1.
         -5    1    5    5    0  503  0.77323861690E+02  0.10863586770E+02 -0.94214842257E+02  0.12245621097E+03  0.47000000000E+01 0.  1.
<mgrwt>
<rscale>  0 0.27702041E+03</rscale>
<asrwt>0</asrwt>
<pdfrwt beam="1">  1        2 0.47941355E-01 0.27702041E+03</pdfrwt>
<pdfrwt beam="2">  1       -2 0.94716690E-02 0.27702041E+03</pdfrwt>
<totfact> 0.75390595E+03</totfact>
</mgrwt>
</event>
<event>
 9    1  0.2094635E-002  0.2746089E+03  0.7818608E-02  0.1098670E+00
         -2   -1    0    0    0  501 -0.00000000000E+00  0.00000000000E+00  0.64539721145E+02  0.64539721145E+02  0.00000000000E+00 0.  1.
          2   -1    0    0  501    0  0.00000000000E+00 -0.00000000000E+00 -0.29210704728E+03  0.29210704728E+03  0.00000000000E+00 0.  1.
         36    2    1    2    0    0  0.00000000000E+00 -0.17763568394E-14 -0.22756732613E+03  0.35664676842E+03  0.27460886639E+03 0.  0.
         25    2    3    3    0    0  0.29260877890E+02 -0.79915209104E+01 -0.64297883144E+02  0.14720868240E+03  0.12890351049E+03 0.  0.
         25    2    3    3    0    0 -0.29260877890E+02  0.79915209104E+01 -0.16326944299E+03  0.20943808602E+03  0.12762185346E+03 0.  0.
          5    1    4    4  502    0 -0.32356251417E+02 -0.23628572760E+02 -0.72472018156E+02  0.82942871134E+02  0.47000000000E+01 0. -1.
         -5    1    4    4    0  502  0.61617129306E+02  0.15637051849E+02  0.81741350122E+01  0.64265811266E+02  0.47000000000E+01 0. -1.
          5    1    5    5  503    0 -0.43248425792E+02  0.29795900851E+02 -0.17339112860E+03  0.18123133150E+03  0.47000000000E+01 0.  1.
         -5    1    5    5    0  503  0.13987547902E+02 -0.21804379941E+02  0.10121685611E+02  0.28206754519E+02  0.47000000000E+01 0.  1.
<mgrwt>
<rscale>  0 0.27460887E+03</rscale>
<asrwt>0</asrwt>
<pdfrwt beam="1">  1        2 0.44939545E-01 0.27460887E+03</pdfrwt>
<pdfrwt beam="2">  1       -2 0.99291880E-02 0.27460887E+03</pdfrwt>
<totfact> 0.74970642E+03</totfact>
</mgrwt>
</event>
<event>
 9    1  0.2094635E-002  0.2752600E+03  0.7818608E-02  0.1098306E+00
         -2   -1    0    0    0  501 -0.00000000000E+00  0.00000000000E+00  0.78669156872E+01  0.78669156872E+01  0.00000000000E+00 0. -1.
          2   -1    0    0  501    0  0.00000000000E+00 -0.00000000000E+00 -0.24078065315E+04  0.24078065315E+04  0.00000000000E+00 0. -1.
         36    2    1    2    0    0 -0.14210854715E-13  0.00000000000E+00 -0.23999396158E+04  0.24156734472E+04  0.27525995695E+03 0.  0.
         25    2    3    3    0    0 -0.47189235242E+02 -0.15317521629E+02 -0.83564336627E+03  0.84549887647E+03  0.11877316251E+03 0.  0.
         25    2    3    3    0    0  0.47189235242E+02  0.15317521629E+02 -0.15642962496E+04  0.15701745707E+04  0.12634862799E+03 0.  0.
          5    1    4    4  502    0  0.40790018047E+00  0.93433652963E+01 -0.69243335171E+03  0.69251245578E+03  0.47000000000E+01 0.  1.
         -5    1    4    4    0  502 -0.47597135422E+02 -0.24660886925E+02 -0.14321001456E+03  0.15298642069E+03  0.47000000000E+01 0.  1.
          5    1    5    5  503    0 -0.16462215558E+02 -0.21615356741E+02 -0.92257442339E+02  0.96289946802E+02  0.47000000000E+01 0. -1.
         -5    1    5    5    0  503  0.63651450800E+02  0.36932878370E+02 -0.14720388072E+04  0.14738846239E+04  0.47000000000E+01 0. -1.
<mgrwt>
<rscale>  0 0.27525996E+03</rscale>
<asrwt>0</asrwt>
<pdfrwt beam="1">  1        2 0.37043164E+00 0.27525996E+03</pdfrwt>
<pdfrwt beam="2">  1       -2 0.12102952E-02 0.27525996E+03</pdfrwt>
<totfact> 0.72706718E+03</totfact>
</mgrwt>
</event>
<event>
 9    1  0.2094635E-002  0.2778275E+03  0.7818608E-02  0.1096881E+00
         -4   -1    0    0    0  501 -0.00000000000E+00  0.00000000000E+00  0.30928596749E+03  0.30928596749E+03  0.00000000000E+00 0.  1.
          4   -1    0    0  501    0  0.00000000000E+00 -0.00000000000E+00 -0.62392191107E+02  0.62392191107E+02  0.00000000000E+00 0.  1.
         36    2    1    2    0    0  0.71054273576E-14  0.00000000000E+00  0.24689377639E+03  0.37167815860E+03  0.27782749461E+03 0.  0.
         25    2    3    3    0    0  0.34908621470E+02  0.33384080184E+02  0.16338669952E+03  0.21300175399E+03  0.12783358307E+03 0.  0.
         25    2    3    3    0    0 -0.34908621470E+02 -0.33384080184E+02  0.83507076868E+02  0.15867640461E+03  0.12598277989E+03 0.  0.
          5    1    4    4  502    0 -0.41658257048E+02  0.63424768291E-01  0.98815403737E+02  0.10734052552E+03  0.47000000000E+01 0.  1.
         -5    1    4    4    0  502  0.76566878518E+02  0.33320655416E+02  0.64571295780E+02  0.10566122847E+03  0.47000000000E+01 0.  1.
          5    1    5    5  503    0  0.17029486914E+02 -0.52701609691E+02 -0.31902082725E+01  0.55675223550E+02  0.47000000000E+01 0.  1.
         -5    1    5    5    0  503 -0.51938108384E+02  0.19317529506E+02  0.86697285141E+02  0.10300118106E+03  0.47000000000E+01 0.  1.
<mgrwt>
<rscale>  0 0.27782749E+03</rscale>
<asrwt>0</asrwt>
<pdfrwt beam="1">  1        4 0.95987988E-02 0.27782749E+03</pdfrwt>
<pdfrwt beam="2">  1       -4 0.47582456E-01 0.27782749E+03</pdfrwt>
<totfact> 0.65522832E+02</totfact>
</mgrwt>
</event>
<event>
 9    1  0.2094635E-002  0.2728810E+03  0.7818608E-02  0.1099642E+00
          2   -1    0    0  501    0  0.00000000000E+00  0.00000000000E+00  0.35955377207E+04  0.35955377207E+04  0.00000000000E+00 0.  1.
         -2   -1    0    0    0  501 -0.00000000000E+00 -0.00000000000E+00 -0.51775319863E+01  0.51775319863E+01  0.00000000000E+00 0.  1.
         36    2    1    2    0    0  0.00000000000E+00 -0.35527136788E-14  0.35903601887E+04  0.36007152527E+04  0.27288101112E+03 0.  0.
         25    2    3    3    0    0  0.41422368802E+02  0.12723611521E+02  0.22328868407E+04  0.22367455018E+04  0.12397214926E+03 0.  0.
         25    2    3    3    0    0 -0.41422368802E+02 -0.12723611521E+02  0.13574733481E+04  0.13639697509E+04  0.12570555944E+03 0.  0.
          5    1    4    4  502    0  0.23285873799E+02 -0.50215710319E+02  0.14660191172E+04  0.14670712292E+04  0.47000000000E+01 0. -1.
         -5    1    4    4    0  502  0.18136495002E+02  0.62939321840E+02  0.76686772349E+03  0.76967427268E+03  0.47000000000E+01 0. -1.
          5    1    5    5  503    0 -0.67724138302E+02  0.20480461883E+02  0.45514874224E+03  0.46063920349E+03  0.47000000000E+01 0.  1.
         -5    1    5    5    0  503  0.26301769500E+02 -0.33204073405E+02  0.90232460582E+03  0.90333054739E+03  0.47000000000E+01 0.  1.
<mgrwt>
<rscale>  0 0.27288101E+03</rscale>
<asrwt>0</asrwt>
<pdfrwt beam="1">  1        2 0.55315766E+00 0.27288101E+03</pdfrwt>
<pdfrwt beam="2">  1       -2 0.79654625E-03 0.27288101E+03</pdfrwt>
<totfact> 0.25960162E+03</totfact>
</mgrwt>
</event>
<event>
 9    1  0.2094635E-002  0.2755989E+03  0.7818608E-02  0.1098117E+00
         -2   -1    0    0    0  501 -0.00000000000E+00  0.00000000000E+00  0.57219557883E+03  0.57219557883E+03  0.00000000000E+00 0. -1.
          2   -1    0    0  501    0  0.00000000000E+00 -0.00000000000E+00 -0.33185656859E+02  0.33185656859E+02  0.00000000000E+00 0. -1.
         36    2    1    2    0    0  0.71054273576E-14  0.00000000000E+00  0.53900992197E+03  0.60538123569E+03  0.27559888342E+03 0.  0.
         25    2    3    3    0    0  0.46935016077E+02  0.19832399103E+02  0.29542474760E+03  0.32420917031E+03  0.12344871336E+03 0.  0.
         25    2    3    3    0    0 -0.46935016077E+02 -0.19832399103E+02  0.24358517438E+03  0.28117206538E+03  0.13087311942E+03 0.  0.
          5    1    4    4  502    0 -0.23787134725E+02  0.26624017776E+02  0.23224094882E+02  0.42849908799E+02  0.47000000000E+01 0.  1.
         -5    1    4    4    0  502  0.70722150802E+02 -0.67916186734E+01  0.27220065272E+03  0.28135926151E+03  0.47000000000E+01 0.  1.
          5    1    5    5  503    0  0.36132171140E+02 -0.40534473053E+02  0.10208296868E+03  0.11572207997E+03  0.47000000000E+01 0. -1.
         -5    1    5    5    0  503 -0.83067187217E+02  0.20702073950E+02  0.14150220569E+03  0.16544998541E+03  0.47000000000E+01 0. -1.
<mgrwt>
<rscale>  0 0.27559888E+03</rscale>
<asrwt>0</asrwt>
<pdfrwt beam="1">  1        2 0.51054861E-02 0.27559888E+03</pdfrwt>
<pdfrwt beam="2">  1       -2 0.88030082E-01 0.27559888E+03</pdfrwt>
<totfact> 0.17554186E+03</totfact>
</mgrwt>
</event>
<event>
 9    1  0.2094635E-002  0.2759461E+03  0.7818608E-02  0.1097924E+00
          3   -1    0    0  501    0  0.00000000000E+00  0.00000000000E+00  0.33346324056E+02  0.33346324056E+02  0.00000000000E+00 0. -1.
         -3   -1    0    0    0  501 -0.00000000000E+00 -0.00000000000E+00 -0.57087457075E+03  0.57087457075E+03  0.00000000000E+00 0. -1.
         36    2    1    2    0    0 -0.14210854715E-13  0.00000000000E+00 -0.53752824670E+03  0.60422089481E+03  0.27594614280E+03 0.  0.
         25    2    3    3    0    0 -0.41105457719E+02  0.38310606630E+02 -0.23920018325E+03  0.27523930844E+03  0.12402656172E+03 0.  0.
         25    2    3    3    0    0  0.41105457719E+02 -0.38310606630E+02 -0.29832806345E+03  0.32898158636E+03  0.12677495609E+03 0.  0.
          5    1    4    4  502    0  0.14879151506E+02  0.69957040932E+02 -0.12695462251E+03  0.14579075040E+03  0.47000000000E+01 0.  1.
         -5    1    4    4    0  502 -0.55984609225E+02 -0.31646434302E+02 -0.11224556073E+03  0.12944855804E+03  0.47000000000E+01 0.  1.
          5    1    5    5  503    0  0.14799082589E+02 -0.65986536876E+02 -0.27662586391E+03  0.28481080470E+03  0.47000000000E+01 0.  1.
         -5    1    5    5    0  503  0.26306375131E+02  0.27675930246E+02 -0.21702199543E+02  0.44170781660E+02  0.47000000000E+01 0.  1.
<mgrwt>
<rscale>  0 0.27594614E+03</rscale>
<asrwt>0</asrwt>
<pdfrwt beam="1">  1        3 0.51302039E-02 0.27594614E+03</pdfrwt>
<pdfrwt beam="2">  1       -3 0.87826854E-01 0.27594614E+03</pdfrwt>
<totfact> 0.67419710E+02</totfact>
</mgrwt>
</event>
<event>
 9    1  0.2094635E-002  0.2803415E+03  0.7818608E-02  0.1095503E+00
          2   -1    0    0  501    0  0.00000000000E+00  0.00000000000E+00  0.27035734059E+03  0.27035734059E+03  0.00000000000E+00 0. -1.
         -2   -1    0    0    0  501 -0.00000000000E+00 -0.00000000000E+00 -0.72673581157E+02  0.72673581157E+02  0.00000000000E+00 0. -1.
         36    2    1    2    0    0  0.00000000000E+00 -0.35527136788E-14  0.19768375944E+03  0.34303092175E+03  0.28034147844E+03 0.  0.
         25    2    3    3    0    0  0.38638532245E+02  0.29206284917E+02  0.13983377674E+03  0.19719417626E+03  0.13033078985E+03 0.  0.
         25    2    3    3    0    0 -0.38638532245E+02 -0.29206284917E+02  0.57849982695E+02  0.14583674549E+03  0.12480301512E+03 0.  0.
          5    1    4    4  502    0  0.64989422616E+01 -0.40330419810E+01  0.14946305117E+03  0.14973241246E+03  0.47000000000E+01 0.  1.
         -5    1    4    4    0  502  0.32139589984E+02  0.33239326898E+02 -0.96292744262E+01  0.47461763799E+02  0.47000000000E+01 0.  1.
          5    1    5    5  503    0 -0.33953269778E+02 -0.92408130250E+01  0.95953617533E+02  0.10231033121E+03  0.47000000000E+01 0. -1.
         -5    1    5    5    0  503 -0.46852624673E+01 -0.19965471892E+02 -0.38103634838E+02  0.43526414280E+02  0.47000000000E+01 0. -1.
<mgrwt>
<rscale>  0 0.28034148E+03</rscale>
<asrwt>0</asrwt>
<pdfrwt beam="1">  1        2 0.41593437E-01 0.28034148E+03</pdfrwt>
<pdfrwt beam="2">  1       -2 0.11180551E-01 0.28034148E+03</pdfrwt>
<totfact> 0.67464999E+03</totfact>
</mgrwt>
</event>
<event>
 9    1  0.2094635E-002  0.2746556E+03  0.7818608E-02  0.1098644E+00
         -3   -1    0    0    0  501 -0.00000000000E+00  0.00000000000E+00  0.10321931249E+03  0.10321931249E+03  0.00000000000E+00 0. -1.
          3   -1    0    0  501    0  0.00000000000E+00 -0.00000000000E+00 -0.18270728973E+03  0.18270728973E+03  0.00000000000E+00 0. -1.
         36    2    1    2    0    0  0.00000000000E+00 -0.71054273576E-14 -0.79487977241E+02  0.28592660223E+03  0.27465557219E+03 0.  0.
         25    2    3    3    0    0 -0.33145903868E+02 -0.55954938564E+02 -0.40797108702E+02  0.14081319015E+03  0.11804382384E+03 0.  0.
         25    2    3    3    0    0  0.33145903868E+02  0.55954938564E+02 -0.38690868539E+02  0.14511341208E+03  0.12381967923E+03 0.  0.
          5    1    4    4  502    0 -0.29509837479E+02 -0.78132919834E+02  0.10792043209E+02  0.84345372525E+02  0.47000000000E+01 0. -1.
         -5    1    4    4    0  502 -0.36360663897E+01  0.22177981270E+02 -0.51589151911E+02  0.56467817621E+02  0.47000000000E+01 0. -1.
          5    1    5    5  503    0  0.23842821738E+02  0.22128241183E+00  0.40790018590E+02  0.47480993365E+02  0.47000000000E+01 0. -1.
         -5    1    5    5    0  503  0.93030821301E+01  0.55733656152E+02 -0.79480887129E+02  0.97632418714E+02  0.47000000000E+01 0. -1.
<mgrwt>
<rscale>  0 0.27465557E+03</rscale>
<asrwt>0</asrwt>
<pdfrwt beam="1">  1        3 0.28108814E-01 0.27465557E+03</pdfrwt>
<pdfrwt beam="2">  1       -3 0.15879894E-01 0.27465557E+03</pdfrwt>
<totfact> 0.10363924E+03</totfact>
</mgrwt>
</event>
<event>
 9    1  0.2094635E-002  0.2755485E+03  0.7818608E-02  0.1098145E+00
         -1   -1    0    0    0  501 -0.00000000000E+00  0.00000000000E+00  0.71874871262E+02  0.71874871262E+02  0.00000000000E+00 0.  1.
          1   -1    0    0  501    0  0.00000000000E+00 -0.00000000000E+00 -0.26409432637E+03  0.26409432637E+03  0.00000000000E+00 0.  1.
         36    2    1    2    0    0  0.71054273576E-14 -0.14210854715E-13 -0.19221945511E+03  0.33596919763E+03  0.27554851267E+03 0.  0.
         25    2    3    3    0    0 -0.36182846299E+02 -0.52899621156E+02 -0.82341377700E+02  0.15985076772E+03  0.12109746973E+03 0.  0.
         25    2    3    3    0    0  0.36182846299E+02  0.52899621156E+02 -0.10987807741E+03  0.17611842991E+03  0.12180698327E+03 0.  0.
          5    1    4    4  502    0 -0.43541185964E+02 -0.52124737858E+02  0.84809585496E+01  0.68606412454E+02  0.47000000000E+01 0. -1.
         -5    1    4    4    0  502  0.73583396651E+01 -0.77488329825E+00 -0.90822336249E+02  0.91244355270E+02  0.47000000000E+01 0. -1.
          5    1    5    5  503    0  0.41317368626E+01 -0.29646903704E+02  0.52990441775E+01  0.30760039303E+02  0.47000000000E+01 0.  1.
         -5    1    5    5    0  503  0.32051109436E+02  0.82546524860E+02 -0.11517712158E+03  0.14535839060E+03  0.47000000000E+01 0.  1.
<mgrwt>
<rscale>  0 0.27554851E+03</rscale>
<asrwt>0</asrwt>
<pdfrwt beam="1">  1        1 0.40629896E-01 0.27554851E+03</pdfrwt>
<pdfrwt beam="2">  1       -1 0.11057673E-01 0.27554851E+03</pdfrwt>
<totfact> 0.53303641E+03</totfact>
</mgrwt>
</event>
<event>
 9    1  0.2094635E-002  0.2745572E+03  0.7818608E-02  0.1098699E+00
          1   -1    0    0  501    0  0.00000000000E+00  0.00000000000E+00  0.15870749262E+04  0.15870749262E+04  0.00000000000E+00 0.  1.
         -1   -1    0    0    0  501 -0.00000000000E+00 -0.00000000000E+00 -0.11874302596E+02  0.11874302596E+02  0.00000000000E+00 0.  1.
         36    2    1    2    0    0  0.71054273576E-14  0.35527136788E-14  0.15752006236E+04  0.15989492288E+04  0.27455715555E+03 0.  0.
         25    2    3    3    0    0  0.41213326920E+02  0.24233943252E+02  0.60266335268E+03  0.61734593557E+03  0.12500826045E+03 0.  0.
         25    2    3    3    0    0 -0.41213326920E+02 -0.24233943252E+02  0.97253727095E+03  0.98160329325E+03  0.12421940111E+03 0.  0.
          5    1    4    4  502    0  0.66963159703E+02 -0.65975584232E+01  0.17146574638E+03  0.18425575898E+03  0.47000000000E+01 0.  1.
         -5    1    4    4    0  502 -0.25749832783E+02  0.30831501676E+02  0.43119760630E+03  0.43309017659E+03  0.47000000000E+01 0.  1.
          5    1    5    5  503    0 -0.17009513867E+02  0.50981348259E+02  0.39434097576E+03  0.39801421658E+03  0.47000000000E+01 0. -1.
         -5    1    5    5    0  503 -0.24203813053E+02 -0.75215291511E+02  0.57819629518E+03  0.58358907667E+03  0.47000000000E+01 0. -1.
<mgrwt>
<rscale>  0 0.27455716E+03</rscale>
<asrwt>0</asrwt>
<pdfrwt beam="1">  1        1 0.24416521E+00 0.27455716E+03</pdfrwt>
<pdfrwt beam="2">  1       -1 0.18268170E-02 0.27455716E+03</pdfrwt>
<totfact> 0.49073530E+03</totfact>
</mgrwt>
</event>
<event>
 9    1  0.2094635E-002  0.2751398E+03  0.7818608E-02  0.1098373E+00
          2   -1    0    0  501    0  0.00000000000E+00  0.00000000000E+00  0.54004312386E+03  0.54004312386E+03  0.00000000000E+00 0. -1.
         -2   -1    0    0    0  501 -0.00000000000E+00 -0.00000000000E+00 -0.35044389004E+02  0.35044389004E+02  0.00000000000E+00 0. -1.
         36    2    1    2    0    0  0.35527136788E-14  0.00000000000E+00  0.50499873486E+03  0.57508751287E+03  0.27513982853E+03 0.  0.
         25    2    3    3    0    0 -0.26698858121E+02 -0.65271643528E+02  0.23649158972E+03  0.27454961373E+03  0.12031625789E+03 0.  0.
         25    2    3    3    0    0  0.26698858121E+02  0.65271643528E+02  0.26850714514E+03  0.30053789914E+03  0.11512482511E+03 0.  0.
          5    1    4    4  502    0  0.36275083689E+02 -0.66904542000E+02  0.13258301174E+03  0.15294588729E+03  0.47000000000E+01 0. -1.
         -5    1    4    4    0  502 -0.62973941810E+02  0.16328984727E+01  0.10390857798E+03  0.12160372643E+03  0.47000000000E+01 0. -1.
          5    1    5    5  503    0 -0.29044228251E+02 -0.17077827777E+02  0.50674934582E+02  0.61034894865E+02  0.47000000000E+01 0. -1.
         -5    1    5    5    0  503  0.55743086372E+02  0.82349471304E+02  0.21783221055E+03  0.23950300428E+03  0.47000000000E+01 0. -1.
<mgrwt>
<rscale>  0 0.27513983E+03</rscale>
<asrwt>0</asrwt>
<pdfrwt beam="1">  1        2 0.83083552E-01 0.27513983E+03</pdfrwt>
<pdfrwt beam="2">  1       -2 0.53914448E-02 0.27513983E+03</pdfrwt>
<totfact> 0.98946475E+03</totfact>
</mgrwt>
</event>
<event>
 9    1  0.2094635E-002  0.2779205E+03  0.7818608E-02  0.1096830E+00
          2   -1    0    0  501    0  0.00000000000E+00  0.00000000000E+00  0.44722512772E+03  0.44722512772E+03  0.00000000000E+00 0. -1.
         -2   -1    0    0    0  501 -0.00000000000E+00 -0.00000000000E+00 -0.43177235854E+02  0.43177235854E+02  0.00000000000E+00 0. -1.
         36    2    1    2    0    0 -0.35527136788E-14 -0.71054273576E-14  0.40404789187E+03  0.49040236357E+03  0.27792045495E+03 0.  0.
         25    2    3    3    0    0  0.44704544229E+01  0.39951322344E+02  0.13756384417E+03  0.19299397784E+03  0.12925467551E+03 0.  0.
         25    2    3    3    0    0 -0.44704544229E+01 -0.39951322344E+02  0.26648404770E+03  0.29740838573E+03  0.12578516251E+03 0.  0.
          5    1    4    4  502    0  0.36108136025E+02  0.48882707393E+02  0.10738300791E+02  0.61892791770E+02  0.47000000000E+01 0. -1.
         -5    1    4    4    0  502 -0.31637681602E+02 -0.89313850489E+01  0.12682554338E+03  0.13110118607E+03  0.47000000000E+01 0. -1.
          5    1    5    5  503    0  0.41016942049E+02  0.25107091949E+02  0.13895942878E+03  0.14712093137E+03  0.47000000000E+01 0. -1.
         -5    1    5    5    0  503 -0.45487396472E+02 -0.65058414293E+02  0.12752461892E+03  0.15028745436E+03  0.47000000000E+01 0. -1.
<mgrwt>
<rscale>  0 0.27792045E+03</rscale>
<asrwt>0</asrwt>
<pdfrwt beam="1">  1        2 0.68803863E-01 0.27792045E+03</pdfrwt>
<pdfrwt beam="2">  1       -2 0.66426520E-02 0.27792045E+03</pdfrwt>
<totfact> 0.88702543E+03</totfact>
</mgrwt>
</event>
<event>
 9    1  0.2094635E-002  0.2756850E+03  0.7818608E-02  0.1098069E+00
         -2   -1    0    0    0  501 -0.00000000000E+00  0.00000000000E+00  0.16876660686E+03  0.16876660686E+03  0.00000000000E+00 0.  1.
          2   -1    0    0  501    0  0.00000000000E+00 -0.00000000000E+00 -0.11258479499E+03  0.11258479499E+03  0.00000000000E+00 0.  1.
         36    2    1    2    0    0 -0.17763568394E-14  0.00000000000E+00  0.56181811872E+02  0.28135140185E+03  0.27568499295E+03 0.  0.
         25    2    3    3    0    0  0.13735254189E+02  0.40070171560E+02  0.78334119496E+02  0.14141253170E+03  0.10984987023E+03 0.  0.
         25    2    3    3    0    0 -0.13735254189E+02 -0.40070171560E+02 -0.22152307623E+02  0.13993887014E+03  0.13152143090E+03 0.  0.
          5    1    4    4  502    0  0.17805123800E+02  0.66597971548E+02  0.88545552181E+02  0.11231525746E+03  0.47000000000E+01 0. -1.
         -5    1    4    4    0  502 -0.40698696112E+01 -0.26527799988E+02 -0.10211432686E+02  0.29097274242E+02  0.47000000000E+01 0. -1.
          5    1    5    5  503    0  0.50591513746E+01 -0.43828488520E+02 -0.72983104515E+02  0.85411679314E+02  0.47000000000E+01 0.  1.
         -5    1    5    5    0  503 -0.18794405563E+02  0.37583169599E+01  0.50830796892E+02  0.54527190827E+02  0.47000000000E+01 0.  1.
<mgrwt>
<rscale>  0 0.27568499E+03</rscale>
<asrwt>0</asrwt>
<pdfrwt beam="1">  1        2 0.17320738E-01 0.27568499E+03</pdfrwt>
<pdfrwt beam="2">  1       -2 0.25964093E-01 0.27568499E+03</pdfrwt>
<totfact> 0.43383085E+03</totfact>
</mgrwt>
</event>
<event>
 9    1  0.2094635E-002  0.2747241E+03  0.7818608E-02  0.1098606E+00
          2   -1    0    0  501    0  0.00000000000E+00  0.00000000000E+00  0.22399838939E+04  0.22399838939E+04  0.00000000000E+00 0.  1.
         -2   -1    0    0    0  501 -0.00000000000E+00 -0.00000000000E+00 -0.84234208019E+01  0.84234208019E+01  0.00000000000E+00 0.  1.
         36    2    1    2    0    0  0.00000000000E+00 -0.71054273576E-14  0.22315604731E+04  0.22484073147E+04  0.27472405739E+03 0.  0.
         25    2    3    3    0    0  0.46855286021E+02  0.29405496761E+02  0.11606865162E+04  0.11688478577E+04  0.12630132348E+03 0.  0.
         25    2    3    3    0    0 -0.46855286021E+02 -0.29405496761E+02  0.10708739568E+04  0.10795594570E+04  0.12496995134E+03 0.  0.
          5    1    4    4  502    0  0.17584806544E+01  0.57211609692E+02  0.94338954796E+03  0.94513606943E+03  0.47000000000E+01 0.  1.
         -5    1    4    4    0  502  0.45096805367E+02 -0.27806112931E+02  0.21729696829E+03  0.22371178824E+03  0.47000000000E+01 0.  1.
          5    1    5    5  503    0  0.34691707294E+02  0.97515507183E+01  0.52177684644E+03  0.52304089207E+03  0.47000000000E+01 0.  1.
         -5    1    5    5    0  503 -0.81546993315E+02 -0.39157047479E+02  0.54909711040E+03  0.55651856496E+03  0.47000000000E+01 0.  1.
<mgrwt>
<rscale>  0 0.27472406E+03</rscale>
<asrwt>0</asrwt>
<pdfrwt beam="1">  1        2 0.34461243E+00 0.27472406E+03</pdfrwt>
<pdfrwt beam="2">  1       -2 0.12959127E-02 0.27472406E+03</pdfrwt>
<totfact> 0.81009106E+03</totfact>
</mgrwt>
</event>
<event>
 9    1  0.2094635E-002  0.2753072E+03  0.7818608E-02  0.1098280E+00
         -2   -1    0    0    0  501 -0.00000000000E+00  0.00000000000E+00  0.15496911615E+02  0.15496911615E+02  0.00000000000E+00 0.  1.
          2   -1    0    0  501    0  0.00000000000E+00 -0.00000000000E+00 -0.12227283686E+04  0.12227283686E+04  0.00000000000E+00 0.  1.
         36    2    1    2    0    0 -0.14210854715E-13  0.00000000000E+00 -0.12072314570E+04  0.12382252802E+04  0.27530719901E+03 0.  0.
         25    2    3    3    0    0 -0.46754154031E+02 -0.12987659590E+02 -0.43737952541E+03  0.45683305933E+03  0.12264161048E+03 0.  0.
         25    2    3    3    0    0  0.46754154031E+02  0.12987659590E+02 -0.76985193156E+03  0.78139222088E+03  0.12468831581E+03 0.  0.
          5    1    4    4  502    0  0.15398040643E+02  0.44001309558E+02 -0.17717778810E+03  0.18326831012E+03  0.47000000000E+01 0.  1.
         -5    1    4    4    0  502 -0.62152194675E+02 -0.56988969147E+02 -0.26020173731E+03  0.27356474921E+03  0.47000000000E+01 0.  1.
          5    1    5    5  503    0  0.55677473946E+02  0.46849860545E+00 -0.13202591926E+03  0.14336364237E+03  0.47000000000E+01 0.  1.
         -5    1    5    5    0  503 -0.89233199149E+01  0.12519160984E+02 -0.63782601230E+03  0.63802857851E+03  0.47000000000E+01 0.  1.
<mgrwt>
<rscale>  0 0.27530720E+03</rscale>
<asrwt>0</asrwt>
<pdfrwt beam="1">  1        2 0.18811207E+00 0.27530720E+03</pdfrwt>
<pdfrwt beam="2">  1       -2 0.23841400E-02 0.27530720E+03</pdfrwt>
<totfact> 0.11550289E+04</totfact>
</mgrwt>
</event>
<event>
 9    1  0.2094635E-002  0.2748377E+03  0.7818608E-02  0.1098542E+00
         -2   -1    0    0    0  501 -0.00000000000E+00  0.00000000000E+00  0.87200198929E+02  0.87200198929E+02  0.00000000000E+00 0.  1.
          2   -1    0    0  501    0  0.00000000000E+00 -0.00000000000E+00 -0.21655839607E+03  0.21655839607E+03  0.00000000000E+00 0.  1.
         36    2    1    2    0    0  0.10658141036E-13  0.35527136788E-14 -0.12935819714E+03  0.30375859500E+03  0.27483766275E+03 0.  0.
         25    2    3    3    0    0 -0.21849471207E+02  0.19524086115E+02 -0.15043029691E+02  0.13076961855E+03  0.12655358968E+03 0.  0.
         25    2    3    3    0    0  0.21849471207E+02 -0.19524086115E+02 -0.11431516745E+03  0.17298897645E+03  0.12648572700E+03 0.  0.
          5    1    4    4  502    0 -0.39205878727E+02  0.20703614472E+02 -0.64342372042E+02  0.78280083156E+02  0.47000000000E+01 0.  1.
         -5    1    4    4    0  502  0.17356407520E+02 -0.11795283572E+01  0.49299342352E+02  0.52489535390E+02  0.47000000000E+01 0.  1.
          5    1    5    5  503    0 -0.50155409686E+02 -0.22605496778E+02 -0.66208120521E+02  0.86210085421E+02  0.47000000000E+01 0.  1.
         -5    1    5    5    0  503  0.72004880893E+02  0.30814106633E+01 -0.48107046925E+02  0.86778891028E+02  0.47000000000E+01 0.  1.
<mgrwt>
<rscale>  0 0.27483766E+03</rscale>
<asrwt>0</asrwt>
<pdfrwt beam="1">  1        2 0.33316676E-01 0.27483766E+03</pdfrwt>
<pdfrwt beam="2">  1       -2 0.13415415E-01 0.27483766E+03</pdfrwt>
<totfact> 0.63827290E+03</totfact>
</mgrwt>
</event>
<event>
 9    1  0.2094635E-002  0.2772428E+03  0.7818608E-02  0.1097204E+00
          2   -1    0    0  501    0  0.00000000000E+00  0.00000000000E+00  0.35718342776E+04  0.35718342776E+04  0.00000000000E+00 0.  1.
         -2   -1    0    0    0  501 -0.00000000000E+00 -0.00000000000E+00 -0.53798374079E+01  0.53798374079E+01  0.00000000000E+00 0.  1.
         36    2    1    2    0    0  0.00000000000E+00  0.71054273576E-14  0.35664544402E+04  0.35772141151E+04  0.27724276482E+03 0.  0.
         25    2    3    3    0    0  0.18835576801E+02  0.28923107001E+02  0.11699917339E+04  0.11771045006E+04  0.12451113582E+03 0.  0.
         25    2    3    3    0    0 -0.18835576801E+02 -0.28923107001E+02  0.23964627064E+04  0.24001096145E+04  0.12767667483E+03 0.  0.
          5    1    4    4  502    0 -0.12426905582E+02  0.66184933790E+02  0.91406967112E+03  0.91655895998E+03  0.47000000000E+01 0.  1.
         -5    1    4    4    0  502  0.31262482383E+02 -0.37261826789E+02  0.25592206274E+03  0.26054554062E+03  0.47000000000E+01 0.  1.
          5    1    5    5  503    0 -0.18039730502E+02 -0.79285942596E+02  0.14094767927E+04  0.14118281098E+04  0.47000000000E+01 0. -1.
         -5    1    5    5    0  503 -0.79584629892E+00  0.50362835595E+02  0.98698591368E+03  0.98828150462E+03  0.47000000000E+01 0. -1.
<mgrwt>
<rscale>  0 0.27724276E+03</rscale>
<asrwt>0</asrwt>
<pdfrwt beam="1">  1        2 0.54951107E+00 0.27724276E+03</pdfrwt>
<pdfrwt beam="2">  1       -2 0.82767015E-03 0.27724276E+03</pdfrwt>
<totfact> 0.25465551E+03</totfact>
</mgrwt>
</event>
<event>
 9    1  0.2094635E-002  0.2755751E+03  0.7818608E-02  0.1098131E+00
          1   -1    0    0  501    0  0.00000000000E+00  0.00000000000E+00  0.45931472500E+03  0.45931472500E+03  0.00000000000E+00 0. -1.
         -1   -1    0    0    0  501 -0.00000000000E+00 -0.00000000000E+00 -0.41334207103E+02  0.41334207103E+02  0.00000000000E+00 0. -1.
         36    2    1    2    0    0  0.14210854715E-13  0.00000000000E+00  0.41798051789E+03  0.50064893210E+03  0.27557510750E+03 0.  0.
         25    2    3    3    0    0  0.38507205413E+02 -0.63779276416E+02  0.19089676345E+03  0.23450426827E+03  0.11401787830E+03 0.  0.
         25    2    3    3    0    0 -0.38507205413E+02  0.63779276416E+02  0.22708375444E+03  0.26614466383E+03  0.11711255092E+03 0.  0.
          5    1    4    4  502    0  0.14225129235E+02 -0.94846902743E+02  0.14361687266E+03  0.17276048557E+03  0.47000000000E+01 0. -1.
         -5    1    4    4    0  502  0.24282076178E+02  0.31067626328E+02  0.47279890789E+02  0.61743782700E+02  0.47000000000E+01 0. -1.
          5    1    5    5  503    0  0.30932522665E+02  0.61567531749E+02  0.10785638480E+03  0.12807213462E+03  0.47000000000E+01 0.  1.
         -5    1    5    5    0  503 -0.69439728078E+02  0.22117446669E+01  0.11922736965E+03  0.13807252921E+03  0.47000000000E+01 0.  1.
<mgrwt>
<rscale>  0 0.27557511E+03</rscale>
<asrwt>0</asrwt>
<pdfrwt beam="1">  1        1 0.70663800E-01 0.27557511E+03</pdfrwt>
<pdfrwt beam="2">  1       -1 0.63591091E-02 0.27557511E+03</pdfrwt>
<totfact> 0.61531394E+03</totfact>
</mgrwt>
</event>
<event>
 9    1  0.2094635E-002  0.2744888E+03  0.7818608E-02  0.1098738E+00
          1   -1    0    0  501    0  0.00000000000E+00  0.00000000000E+00  0.39057253665E+02  0.39057253665E+02  0.00000000000E+00 0. -1.
         -1   -1    0    0    0  501 -0.00000000000E+00 -0.00000000000E+00 -0.48226686436E+03  0.48226686436E+03  0.00000000000E+00 0. -1.
         36    2    1    2    0    0  0.00000000000E+00  0.00000000000E+00 -0.44320961069E+03  0.52132411802E+03  0.27448875573E+03 0.  0.
         25    2    3    3    0    0  0.19920373566E+02 -0.53848776060E+02 -0.23380526096E+03  0.26923985402E+03  0.12053500312E+03 0.  0.
         25    2    3    3    0    0 -0.19920373566E+02  0.53848776060E+02 -0.20940434974E+03  0.25208426400E+03  0.12806163556E+03 0.  0.
          5    1    4    4  502    0 -0.28542747422E+02 -0.65806599814E+02 -0.18821078607E+03  0.20147105748E+03  0.47000000000E+01 0.  1.
         -5    1    4    4    0  502  0.48463120988E+02  0.11957823754E+02 -0.45594474890E+02  0.67768796546E+02  0.47000000000E+01 0.  1.
          5    1    5    5  503    0 -0.19059805029E+02  0.68646535712E+02 -0.22128290919E+03  0.23251631971E+03  0.47000000000E+01 0. -1.
         -5    1    5    5    0  503 -0.86056853738E+00 -0.14797759652E+02  0.11878559454E+02  0.19567944287E+02  0.47000000000E+01 0. -1.
<mgrwt>
<rscale>  0 0.27448876E+03</rscale>
<asrwt>0</asrwt>
<pdfrwt beam="1">  1        1 0.60088081E-02 0.27448876E+03</pdfrwt>
<pdfrwt beam="2">  1       -1 0.74194904E-01 0.27448876E+03</pdfrwt>
<totfact> 0.24517941E+03</totfact>
</mgrwt>
</event>
<event>
 9    1  0.2094635E-002  0.2739076E+03  0.7818608E-02  0.1099064E+00
          3   -1    0    0  501    0  0.00000000000E+00  0.00000000000E+00  0.22010421028E+03  0.22010421028E+03  0.00000000000E+00 0.  1.
         -3   -1    0    0    0  501 -0.00000000000E+00 -0.00000000000E+00 -0.85215737972E+02  0.85215737972E+02  0.00000000000E+00 0.  1.
         36    2    1    2    0    0  0.71054273576E-14  0.17763568394E-14  0.13488847231E+03  0.30531994825E+03  0.27390759544E+03 0.  0.
         25    2    3    3    0    0 -0.60227541721E+02  0.14717109748E+02  0.51415832038E+02  0.14211482803E+03  0.11708580811E+03 0.  0.
         25    2    3    3    0    0  0.60227541721E+02 -0.14717109748E+02  0.83472640268E+02  0.16320512022E+03  0.12579459246E+03 0.  0.
          5    1    4    4  502    0 -0.52536506778E+02  0.33709078859E+02 -0.21532634083E+02  0.66197665159E+02  0.47000000000E+01 0.  1.
         -5    1    4    4    0  502 -0.76910349426E+01 -0.18991969111E+02  0.72948466121E+02  0.75917162873E+02  0.47000000000E+01 0.  1.
          5    1    5    5  503    0 -0.21118170225E+02 -0.27530925459E+02 -0.12021344046E+02  0.37020692632E+02  0.47000000000E+01 0.  1.
         -5    1    5    5    0  503  0.81345711946E+02  0.12813815711E+02  0.95493984315E+02  0.12618442759E+03  0.47000000000E+01 0.  1.
<mgrwt>
<rscale>  0 0.27390760E+03</rscale>
<asrwt>0</asrwt>
<pdfrwt beam="1">  1        3 0.33862186E-01 0.27390760E+03</pdfrwt>
<pdfrwt beam="2">  1       -3 0.13110114E-01 0.27390760E+03</pdfrwt>
<totfact> 0.10163646E+03</totfact>
</mgrwt>
</event>
<event>
 9    1  0.2094635E-002  0.2745657E+03  0.7818608E-02  0.1098695E+00
          3   -1    0    0  501    0  0.00000000000E+00  0.00000000000E+00  0.71624990542E+02  0.71624990542E+02  0.00000000000E+00 0. -1.
         -3   -1    0    0    0  501 -0.00000000000E+00 -0.00000000000E+00 -0.26312850262E+03  0.26312850262E+03  0.00000000000E+00 0. -1.
         36    2    1    2    0    0  0.14210854715E-13 -0.35527136788E-14 -0.19150351208E+03  0.33475349316E+03  0.27456566800E+03 0.  0.
         25    2    3    3    0    0 -0.46892789103E+02  0.18472553409E+02 -0.63120716591E+02  0.14882861965E+03  0.12500225704E+03 0.  0.
         25    2    3    3    0    0  0.46892789103E+02 -0.18472553409E+02 -0.12838279549E+03  0.18592487351E+03  0.12468258705E+03 0.  0.
          5    1    4    4  502    0 -0.35709931702E+02  0.62272208261E+02 -0.11106457386E+01  0.71946860097E+02  0.47000000000E+01 0. -1.
         -5    1    4    4    0  502 -0.11182857402E+02 -0.43799654852E+02 -0.62010070852E+02  0.76881759553E+02  0.47000000000E+01 0. -1.
          5    1    5    5  503    0 -0.34789269358E+02 -0.78499688411E+01 -0.33543439176E+01  0.36128339242E+02  0.47000000000E+01 0.  1.
         -5    1    5    5    0  503  0.81682058462E+02 -0.10622584568E+02 -0.12502845157E+03  0.14979653427E+03  0.47000000000E+01 0.  1.
<mgrwt>
<rscale>  0 0.27456567E+03</rscale>
<asrwt>0</asrwt>
<pdfrwt beam="1">  1        3 0.11019229E-01 0.27456567E+03</pdfrwt>
<pdfrwt beam="2">  1       -3 0.40481308E-01 0.27456567E+03</pdfrwt>
<totfact> 0.96753965E+02</totfact>
</mgrwt>
</event>
<event>
 9    1  0.2094635E-002  0.2752844E+03  0.7818608E-02  0.1098293E+00
         -2   -1    0    0    0  501 -0.00000000000E+00  0.00000000000E+00  0.77327821046E+02  0.77327821046E+02  0.00000000000E+00 0.  1.
          2   -1    0    0  501    0  0.00000000000E+00 -0.00000000000E+00 -0.24500084550E+03  0.24500084550E+03  0.00000000000E+00 0.  1.
         36    2    1    2    0    0  0.14210854715E-13  0.00000000000E+00 -0.16767302445E+03  0.32232866654E+03  0.27528444589E+03 0.  0.
         25    2    3    3    0    0  0.59923587129E+02  0.81217603755E+01 -0.25054944912E+02  0.14305704678E+03  0.12720365200E+03 0.  0.
         25    2    3    3    0    0 -0.59923587129E+02 -0.81217603755E+01 -0.14261807954E+03  0.17927161977E+03  0.90230802703E+02 0.  0.
          5    1    4    4  502    0 -0.35198743939E+02  0.12538997726E+02  0.13791886505E+02  0.40105911937E+02  0.47000000000E+01 0.  1.
         -5    1    4    4    0  502  0.95122331068E+02 -0.44172373506E+01 -0.38846831417E+02  0.10295113484E+03  0.47000000000E+01 0.  1.
          5    1    5    5  503    0  0.16525533091E+02  0.17203407757E+02 -0.15889969765E+02  0.29045337345E+02  0.47000000000E+01 0.  1.
         -5    1    5    5    0  503 -0.76449120219E+02 -0.25325168132E+02 -0.12672810977E+03  0.15022628242E+03  0.47000000000E+01 0.  1.
<mgrwt>
<rscale>  0 0.27528445E+03</rscale>
<asrwt>0</asrwt>
<pdfrwt beam="1">  1        2 0.37692437E-01 0.27528445E+03</pdfrwt>
<pdfrwt beam="2">  1       -2 0.11896588E-01 0.27528445E+03</pdfrwt>
<totfact> 0.67851339E+03</totfact>
</mgrwt>
</event>
<event>
 9    1  0.2094635E-002  0.2734364E+03  0.7818608E-02  0.1099329E+00
          1   -1    0    0  501    0  0.00000000000E+00  0.00000000000E+00  0.27604383369E+02  0.27604383369E+02  0.00000000000E+00 0.  1.
         -1   -1    0    0    0  501 -0.00000000000E+00 -0.00000000000E+00 -0.67713413192E+03  0.67713413192E+03  0.00000000000E+00 0.  1.
         36    2    1    2    0    0  0.17763568394E-14 -0.35527136788E-14 -0.64952974855E+03  0.70473851529E+03  0.27343642895E+03 0.  0.
         25    2    3    3    0    0  0.91885833314E+01  0.28173776458E+02 -0.26314205939E+03  0.29393450313E+03  0.12757569112E+03 0.  0.
         25    2    3    3    0    0 -0.91885833314E+01 -0.28173776458E+02 -0.38638768916E+03  0.41080401216E+03  0.13633157495E+03 0.  0.
          5    1    4    4  502    0 -0.45979581816E+02  0.51126630626E+02 -0.16668756227E+03  0.18037429895E+03  0.47000000000E+01 0.  1.
         -5    1    4    4    0  502  0.55168165148E+02 -0.22952854168E+02 -0.96454497114E+02  0.11356020418E+03  0.47000000000E+01 0.  1.
          5    1    5    5  503    0  0.13896905184E+02 -0.34524993154E+02 -0.38450586125E+03  0.38633139461E+03  0.47000000000E+01 0.  1.
         -5    1    5    5    0  503 -0.23085488515E+02  0.63512166960E+01 -0.18818279131E+01  0.24472617551E+02  0.47000000000E+01 0.  1.
<mgrwt>
<rscale>  0 0.27343643E+03</rscale>
<asrwt>0</asrwt>
<pdfrwt beam="1">  1        1 0.42468282E-02 0.27343643E+03</pdfrwt>
<pdfrwt beam="2">  1       -1 0.10417448E+00 0.27343643E+03</pdfrwt>
<totfact> 0.19195269E+03</totfact>
</mgrwt>
</event>
<event>
 9    1  0.2094635E-002  0.2773690E+03  0.7818608E-02  0.1097135E+00
         -1   -1    0    0    0  501 -0.00000000000E+00  0.00000000000E+00  0.24827880859E+03  0.24827880859E+03  0.00000000000E+00 0.  1.
          1   -1    0    0  501    0  0.00000000000E+00 -0.00000000000E+00 -0.77466910838E+02  0.77466910838E+02  0.00000000000E+00 0.  1.
         36    2    1    2    0    0  0.00000000000E+00  0.14210854715E-13  0.17081189776E+03  0.32574571943E+03  0.27736901289E+03 0.  0.
         25    2    3    3    0    0  0.46916384783E+02 -0.33070537807E+02  0.71649629273E+02  0.15628293789E+03  0.12647481832E+03 0.  0.
         25    2    3    3    0    0 -0.46916384783E+02  0.33070537807E+02  0.99162268483E+02  0.16946278154E+03  0.12485860485E+03 0.  0.
          5    1    4    4  502    0  0.21073521809E+02 -0.35649005363E+02  0.10545649199E+03  0.11339359156E+03  0.47000000000E+01 0.  1.
         -5    1    4    4    0  502  0.25842862974E+02  0.25784675560E+01 -0.33806862715E+02  0.42889346326E+02  0.47000000000E+01 0.  1.
          5    1    5    5  503    0 -0.16877299276E+02 -0.79240869492E+01  0.11455144988E+03  0.11615403159E+03  0.47000000000E+01 0. -1.
         -5    1    5    5    0  503 -0.30039085508E+02  0.40994624756E+02 -0.15389181402E+02  0.53308749950E+02  0.47000000000E+01 0. -1.
<mgrwt>
<rscale>  0 0.27736901E+03</rscale>
<asrwt>0</asrwt>
<pdfrwt beam="1">  1        1 0.11917986E-01 0.27736901E+03</pdfrwt>
<pdfrwt beam="2">  1       -1 0.38196739E-01 0.27736901E+03</pdfrwt>
<totfact> 0.33799336E+03</totfact>
</mgrwt>
</event>
<event>
 9    1  0.2094635E-002  0.2752876E+03  0.7818608E-02  0.1098291E+00
          2   -1    0    0  501    0  0.00000000000E+00  0.00000000000E+00  0.26362498060E+03  0.26362498060E+03  0.00000000000E+00 0.  1.
         -2   -1    0    0    0  501 -0.00000000000E+00 -0.00000000000E+00 -0.71866550521E+02  0.71866550521E+02  0.00000000000E+00 0.  1.
         36    2    1    2    0    0 -0.71054273576E-14  0.00000000000E+00  0.19175843008E+03  0.33549153112E+03  0.27528761677E+03 0.  0.
         25    2    3    3    0    0 -0.37900189679E+02 -0.32610686717E+02  0.13631326575E+03  0.19145543630E+03  0.12479581885E+03 0.  0.
         25    2    3    3    0    0  0.37900189679E+02  0.32610686717E+02  0.55445164333E+02  0.14403609483E+03  0.12317608980E+03 0.  0.
          5    1    4    4  502    0  0.10948093731E+02 -0.46677835102E+02  0.25048704763E+01  0.48239459183E+02  0.47000000000E+01 0. -1.
         -5    1    4    4    0  502 -0.48848283409E+02  0.14067148385E+02  0.13380839527E+03  0.14321597711E+03  0.47000000000E+01 0. -1.
          5    1    5    5  503    0 -0.25540329323E+02  0.29249298724E+02  0.68619893415E+02  0.78984869881E+02  0.47000000000E+01 0.  1.
         -5    1    5    5    0  503  0.63440519002E+02  0.33613879926E+01 -0.13174729082E+02  0.65051224945E+02  0.47000000000E+01 0.  1.
<mgrwt>
<rscale>  0 0.27528762E+03</rscale>
<asrwt>0</asrwt>
<pdfrwt beam="1">  1        2 0.40557689E-01 0.27528762E+03</pdfrwt>
<pdfrwt beam="2">  1       -2 0.11056393E-01 0.27528762E+03</pdfrwt>
<totfact> 0.70527760E+03</totfact>
</mgrwt>
</event>
<event>
 9    1  0.2094635E-002  0.2753463E+03  0.7818608E-02  0.1098258E+00
          2   -1    0    0  501    0  0.00000000000E+00  0.00000000000E+00  0.10389377804E+04  0.10389377804E+04  0.00000000000E+00 0. -1.
         -2   -1    0    0    0  501 -0.00000000000E+00 -0.00000000000E+00 -0.18243534713E+02  0.18243534713E+02  0.00000000000E+00 0. -1.
         36    2    1    2    0    0  0.00000000000E+00  0.00000000000E+00  0.10206942457E+04  0.10571813151E+04  0.27534630894E+03 0.  0.
         25    2    3    3    0    0  0.13684722850E+02  0.41806548989E+02  0.66056390249E+03  0.67367893124E+03  0.12475405382E+03 0.  0.
         25    2    3    3    0    0 -0.13684722850E+02 -0.41806548989E+02  0.36013034322E+03  0.38350238390E+03  0.12427853865E+03 0.  0.
          5    1    4    4  502    0 -0.28457160370E+02 -0.27931329540E+02  0.35994976089E+03  0.36218212202E+03  0.47000000000E+01 0.  1.
         -5    1    4    4    0  502  0.42141883221E+02  0.69737878529E+02  0.30061414161E+03  0.31149680922E+03  0.47000000000E+01 0.  1.
          5    1    5    5  503    0  0.46300582623E+01  0.32222573869E+02  0.29577522169E+02  0.44234053894E+02  0.47000000000E+01 0. -1.
         -5    1    5    5    0  503 -0.18314781113E+02 -0.74029122858E+02  0.33055282106E+03  0.33926833001E+03  0.47000000000E+01 0. -1.
<mgrwt>
<rscale>  0 0.27534631E+03</rscale>
<asrwt>0</asrwt>
<pdfrwt beam="1">  1        2 0.15983654E+00 0.27534631E+03</pdfrwt>
<pdfrwt beam="2">  1       -2 0.28066985E-02 0.27534631E+03</pdfrwt>
<totfact> 0.11601937E+04</totfact>
</mgrwt>
</event>
<event>
 9    1  0.2094635E-002  0.2754513E+03  0.7818608E-02  0.1098200E+00
         -2   -1    0    0    0  501 -0.00000000000E+00  0.00000000000E+00  0.73810291581E+02  0.73810291581E+02  0.00000000000E+00 0. -1.
          2   -1    0    0  501    0  0.00000000000E+00 -0.00000000000E+00 -0.25698787155E+03  0.25698787155E+03  0.00000000000E+00 0. -1.
         36    2    1    2    0    0 -0.71054273576E-14 -0.14210854715E-13 -0.18317757997E+03  0.33079816313E+03  0.27545126416E+03 0.  0.
         25    2    3    3    0    0 -0.36727731966E+02 -0.52129504102E+02 -0.11899341250E+03  0.18225079427E+03  0.12243164747E+03 0.  0.
         25    2    3    3    0    0  0.36727731966E+02  0.52129504102E+02 -0.64184167477E+02  0.14854736886E+03  0.11781469326E+03 0.  0.
          5    1    4    4  502    0 -0.61226589318E+02 -0.73190150308E+02 -0.54563432808E+02  0.11002159580E+03  0.47000000000E+01 0. -1.
         -5    1    4    4    0  502  0.24498857352E+02  0.21060646206E+02 -0.64429979687E+02  0.72229198477E+02  0.47000000000E+01 0. -1.
          5    1    5    5  503    0 -0.85026283148E+01  0.66042808364E+02  0.23155041452E+01  0.66793703178E+02  0.47000000000E+01 0.  1.
         -5    1    5    5    0  503  0.45230360281E+02 -0.13913304262E+02 -0.66499671622E+02  0.81753665682E+02  0.47000000000E+01 0.  1.
<mgrwt>
<rscale>  0 0.27545126E+03</rscale>
<asrwt>0</asrwt>
<pdfrwt beam="1">  1        2 0.39536595E-01 0.27545126E+03</pdfrwt>
<pdfrwt beam="2">  1       -2 0.11355430E-01 0.27545126E+03</pdfrwt>
<totfact> 0.69454918E+03</totfact>
</mgrwt>
</event>
<event>
 9    1  0.2094635E-002  0.2764125E+03  0.7818608E-02  0.1097665E+00
         -2   -1    0    0    0  501 -0.00000000000E+00  0.00000000000E+00  0.12792592346E+02  0.12792592346E+02  0.00000000000E+00 0. -1.
          2   -1    0    0  501    0  0.00000000000E+00 -0.00000000000E+00 -0.14931270284E+04  0.14931270284E+04  0.00000000000E+00 0. -1.
         36    2    1    2    0    0 -0.71054273576E-14  0.71054273576E-14 -0.14803344361E+04  0.15059196208E+04  0.27641248449E+03 0.  0.
         25    2    3    3    0    0 -0.16709717379E+02 -0.27635129892E+02 -0.83513185986E+03  0.84752461752E+03  0.14074742942E+03 0.  0.
         25    2    3    3    0    0  0.16709717379E+02  0.27635129892E+02 -0.64520257621E+03  0.65839500324E+03  0.12710114432E+03 0.  0.
          5    1    4    4  502    0  0.51666995866E+02 -0.49559133453E+02 -0.45858041664E+03  0.46415910494E+03  0.47000000000E+01 0.  1.
         -5    1    4    4    0  502 -0.68376713245E+02  0.21924003561E+02 -0.37655144323E+03  0.38336551259E+03  0.47000000000E+01 0.  1.
          5    1    5    5  503    0 -0.28371569989E+02  0.65433055888E+02 -0.38562967815E+03  0.39219736034E+03  0.47000000000E+01 0.  1.
         -5    1    5    5    0  503  0.45081287367E+02 -0.37797925995E+02 -0.25957289806E+03  0.26619764290E+03  0.47000000000E+01 0.  1.
<mgrwt>
<rscale>  0 0.27641248E+03</rscale>
<asrwt>0</asrwt>
<pdfrwt beam="1">  1        2 0.22971189E+00 0.27641248E+03</pdfrwt>
<pdfrwt beam="2">  1       -2 0.19680908E-02 0.27641248E+03</pdfrwt>
<totfact> 0.10893964E+04</totfact>
</mgrwt>
</event>
<event>
 9    1  0.2094635E-002  0.2750613E+03  0.7818608E-02  0.1098417E+00
          1   -1    0    0  501    0  0.00000000000E+00  0.00000000000E+00  0.26363104422E+03  0.26363104422E+03  0.00000000000E+00 0. -1.
         -1   -1    0    0    0  501 -0.00000000000E+00 -0.00000000000E+00 -0.71746790463E+02  0.71746790463E+02  0.00000000000E+00 0. -1.
         36    2    1    2    0    0  0.00000000000E+00 -0.71054273576E-14  0.19188425376E+03  0.33537783469E+03  0.27506131163E+03 0.  0.
         25    2    3    3    0    0  0.38332314696E+02 -0.29537565347E+02  0.72323359057E+02  0.15442440363E+03  0.12757113331E+03 0.  0.
         25    2    3    3    0    0 -0.38332314696E+02  0.29537565347E+02  0.11956089470E+03  0.18095343106E+03  0.12691533616E+03 0.  0.
          5    1    4    4  502    0 -0.28927810931E+01 -0.43613713288E+02  0.95299698488E+02  0.10495068700E+03  0.47000000000E+01 0.  1.
         -5    1    4    4    0  502  0.41225095789E+02  0.14076147940E+02 -0.22976339432E+02  0.49473716631E+02  0.47000000000E+01 0.  1.
          5    1    5    5  503    0 -0.30488208052E+02 -0.28887352327E+02  0.11396999033E+03  0.12155352175E+03  0.47000000000E+01 0. -1.
         -5    1    5    5    0  503 -0.78441066439E+01  0.58424917674E+02  0.55909043784E+01  0.59399909310E+02  0.47000000000E+01 0. -1.
<mgrwt>
<rscale>  0 0.27506131E+03</rscale>
<asrwt>0</asrwt>
<pdfrwt beam="1">  1        1 0.40558622E-01 0.27506131E+03</pdfrwt>
<pdfrwt beam="2">  1       -1 0.11037968E-01 0.27506131E+03</pdfrwt>
<totfact> 0.53566383E+03</totfact>
</mgrwt>
</event>
<event>
 9    1  0.2094635E-002  0.2749255E+03  0.7818608E-02  0.1098493E+00
          2   -1    0    0  501    0  0.00000000000E+00  0.00000000000E+00  0.16482022315E+04  0.16482022315E+04  0.00000000000E+00 0. -1.
         -2   -1    0    0    0  501 -0.00000000000E+00 -0.00000000000E+00 -0.11464617128E+02  0.11464617128E+02  0.00000000000E+00 0. -1.
         36    2    1    2    0    0 -0.71054273576E-14  0.71054273576E-14  0.16367376144E+04  0.16596668486E+04  0.27492549925E+03 0.  0.
         25    2    3    3    0    0  0.16583105353E+02 -0.18394899216E+02  0.10976721205E+04  0.11053663410E+04  0.12781741724E+03 0.  0.
         25    2    3    3    0    0 -0.16583105353E+02  0.18394899216E+02  0.53906549392E+03  0.55430050761E+03  0.12666520554E+03 0.  0.
          5    1    4    4  502    0 -0.16049711876E+02 -0.63822641703E+02  0.39656989331E+03  0.40202076205E+03  0.47000000000E+01 0. -1.
         -5    1    4    4    0  502  0.32632817229E+02  0.45427742487E+02  0.70110222716E+03  0.70334557898E+03  0.47000000000E+01 0. -1.
          5    1    5    5  503    0  0.20768364944E+00  0.44380052457E+02  0.50884158878E+03  0.51079495363E+03  0.47000000000E+01 0. -1.
         -5    1    5    5    0  503 -0.16790789003E+02 -0.25985153241E+02  0.30223905145E+02  0.43505553974E+02  0.47000000000E+01 0. -1.
<mgrwt>
<rscale>  0 0.27492550E+03</rscale>
<asrwt>0</asrwt>
<pdfrwt beam="1">  1        2 0.25356939E+00 0.27492550E+03</pdfrwt>
<pdfrwt beam="2">  1       -2 0.17637886E-02 0.27492550E+03</pdfrwt>
<totfact> 0.10583584E+04</totfact>
</mgrwt>
</event>
<event>
 9    1  0.2094635E-002  0.2745108E+03  0.7818608E-02  0.1098725E+00
          2   -1    0    0  501    0  0.00000000000E+00  0.00000000000E+00  0.24498946237E+04  0.24498946237E+04  0.00000000000E+00 0.  1.
         -2   -1    0    0    0  501 -0.00000000000E+00 -0.00000000000E+00 -0.76897357284E+01  0.76897357284E+01  0.00000000000E+00 0.  1.
         36    2    1    2    0    0  0.00000000000E+00  0.00000000000E+00  0.24422048880E+04  0.24575843594E+04  0.27451078098E+03 0.  0.
         25    2    3    3    0    0 -0.65483225459E+01  0.48178041224E+02  0.12929695806E+04  0.13006315211E+04  0.13231784904E+03 0.  0.
         25    2    3    3    0    0  0.65483225459E+01 -0.48178041224E+02  0.11492353074E+04  0.11569528383E+04  0.12423394943E+03 0.  0.
          5    1    4    4  502    0  0.16213292351E+02  0.35965757507E+02  0.10337054807E+03  0.11074279557E+03  0.47000000000E+01 0. -1.
         -5    1    4    4    0  502 -0.22761614897E+02  0.12212283717E+02  0.11895990325E+04  0.11898887255E+04  0.47000000000E+01 0. -1.
          5    1    5    5  503    0  0.26185814082E+02 -0.36145873514E+02  0.11120899631E+04  0.11129952367E+04  0.47000000000E+01 0.  1.
         -5    1    5    5    0  503 -0.19637491536E+02 -0.12032167709E+02  0.37145344316E+02  0.43957601595E+02  0.47000000000E+01 0.  1.
<mgrwt>
<rscale>  0 0.27451078E+03</rscale>
<asrwt>0</asrwt>
<pdfrwt beam="1">  1        2 0.37690624E+00 0.27451078E+03</pdfrwt>
<pdfrwt beam="2">  1       -2 0.11830382E-02 0.27451078E+03</pdfrwt>
<totfact> 0.71304501E+03</totfact>
</mgrwt>
</event>
<event>
 9    1  0.2094635E-002  0.2751474E+03  0.7818608E-02  0.1098369E+00
          1   -1    0    0  501    0  0.00000000000E+00  0.00000000000E+00  0.62033554154E+03  0.62033554154E+03  0.00000000000E+00 0. -1.
         -1   -1    0    0    0  501 -0.00000000000E+00 -0.00000000000E+00 -0.30510143666E+02  0.30510143666E+02  0.00000000000E+00 0. -1.
         36    2    1    2    0    0  0.00000000000E+00 -0.71054273576E-14  0.58982539788E+03  0.65084568521E+03  0.27514742589E+03 0.  0.
         25    2    3    3    0    0  0.41621971703E+02 -0.24262966145E+02  0.19065070545E+03  0.22930605492E+03  0.11795124112E+03 0.  0.
         25    2    3    3    0    0 -0.41621971703E+02  0.24262966145E+02  0.39917469242E+03  0.42153963028E+03  0.12662600354E+03 0.  0.
          5    1    4    4  502    0  0.73103674096E+02  0.93042480583E+01  0.15214384407E+03  0.16911698757E+03  0.47000000000E+01 0.  1.
         -5    1    4    4    0  502 -0.31481702393E+02 -0.33567214203E+02  0.38506861384E+02  0.60189067351E+02  0.47000000000E+01 0.  1.
          5    1    5    5  503    0  0.96419723484E+00  0.66104132855E+02  0.28508253863E+03  0.29268554780E+03  0.47000000000E+01 0.  1.
         -5    1    5    5    0  503 -0.42586168938E+02 -0.41841166710E+02  0.11409215379E+03  0.12885408248E+03  0.47000000000E+01 0.  1.
<mgrwt>
<rscale>  0 0.27514743E+03</rscale>
<asrwt>0</asrwt>
<pdfrwt beam="1">  1        1 0.95436228E-01 0.27514743E+03</pdfrwt>
<pdfrwt beam="2">  1       -1 0.46938687E-02 0.27514743E+03</pdfrwt>
<totfact> 0.64722879E+03</totfact>
</mgrwt>
</event>
<event>
 9    1  0.2094635E-002  0.2693873E+03  0.7818608E-02  0.1101631E+00
         -1   -1    0    0    0  501 -0.00000000000E+00  0.00000000000E+00  0.22266124083E+02  0.22266124083E+02  0.00000000000E+00 0.  1.
          1   -1    0    0  501    0  0.00000000000E+00 -0.00000000000E+00 -0.81479743561E+03  0.81479743561E+03  0.00000000000E+00 0.  1.
         36    2    1    2    0    0 -0.35527136788E-14  0.00000000000E+00 -0.79253131153E+03  0.83706355970E+03  0.26938731079E+03 0.  0.
         25    2    3    3    0    0  0.26498436584E+02 -0.11119474611E+02 -0.47855916160E+03  0.49700209874E+03  0.13102062872E+03 0.  0.
         25    2    3    3    0    0 -0.26498436584E+02  0.11119474611E+02 -0.31397214993E+03  0.34006146095E+03  0.12742635691E+03 0.  0.
          5    1    4    4  502    0  0.48921162348E+02 -0.34155202186E+02 -0.44933568143E+03  0.45330398473E+03  0.47000000000E+01 0.  1.
         -5    1    4    4    0  502 -0.22422725764E+02  0.23035727575E+02 -0.29223480165E+02  0.43698114015E+02  0.47000000000E+01 0.  1.
          5    1    5    5  503    0  0.40612426009E+02  0.26743534141E+02 -0.62787616934E+02  0.79554764816E+02  0.47000000000E+01 0. -1.
         -5    1    5    5    0  503 -0.67110862593E+02 -0.15624059530E+02 -0.25118453300E+03  0.26050669614E+03  0.47000000000E+01 0. -1.
<mgrwt>
<rscale>  0 0.26938731E+03</rscale>
<asrwt>0</asrwt>
<pdfrwt beam="1">  1        1 0.12535344E+00 0.26938731E+03</pdfrwt>
<pdfrwt beam="2">  1       -1 0.34255579E-02 0.26938731E+03</pdfrwt>
<totfact> 0.69198577E+03</totfact>
</mgrwt>
</event>
<event>
 9    1  0.2094635E-002  0.2739097E+03  0.7818608E-02  0.1099063E+00
         -2   -1    0    0    0  501 -0.00000000000E+00  0.00000000000E+00  0.14027521891E+03  0.14027521891E+03  0.00000000000E+00 0. -1.
          2   -1    0    0  501    0  0.00000000000E+00 -0.00000000000E+00 -0.13371311232E+03  0.13371311232E+03  0.00000000000E+00 0. -1.
         36    2    1    2    0    0 -0.35527136788E-14  0.35527136788E-14  0.65621065845E+01  0.27398833123E+03  0.27390973770E+03 0.  0.
         25    2    3    3    0    0 -0.21682683685E+02  0.30413052644E+02 -0.37748881112E+02  0.13581829094E+03  0.12500615019E+03 0.  0.
         25    2    3    3    0    0  0.21682683685E+02 -0.30413052644E+02  0.44310987697E+02  0.13817004029E+03  0.12542887969E+03 0.  0.
          5    1    4    4  502    0 -0.39505211393E+02 -0.15102203189E+02  0.30056993046E+02  0.52098475020E+02  0.47000000000E+01 0.  1.
         -5    1    4    4    0  502  0.17822527708E+02  0.45515255833E+02 -0.67805874159E+02  0.83719815921E+02  0.47000000000E+01 0.  1.
          5    1    5    5  503    0  0.53113200690E+02  0.30756245197E+02  0.26194364632E+02  0.66896886659E+02  0.47000000000E+01 0.  1.
         -5    1    5    5    0  503 -0.31430517005E+02 -0.61169297841E+02  0.18116623065E+02  0.71273153633E+02  0.47000000000E+01 0.  1.
<mgrwt>
<rscale>  0 0.27390974E+03</rscale>
<asrwt>0</asrwt>
<pdfrwt beam="1">  1        2 0.20571248E-01 0.27390974E+03</pdfrwt>
<pdfrwt beam="2">  1       -2 0.21580803E-01 0.27390974E+03</pdfrwt>
<totfact> 0.49167766E+03</totfact>
</mgrwt>
</event>
<event>
 9    1  0.2094635E-002  0.2753163E+03  0.7818608E-02  0.1098275E+00
          2   -1    0    0  501    0  0.00000000000E+00  0.00000000000E+00  0.64584207572E+03  0.64584207572E+03  0.00000000000E+00 0. -1.
         -2   -1    0    0    0  501 -0.00000000000E+00 -0.00000000000E+00 -0.29341179052E+02  0.29341179052E+02  0.00000000000E+00 0. -1.
         36    2    1    2    0    0 -0.14210854715E-13  0.71054273576E-14  0.61650089666E+03  0.67518325477E+03  0.27531631251E+03 0.  0.
         25    2    3    3    0    0  0.44548364002E+02 -0.30391137744E+02  0.34345574204E+03  0.36945549408E+03  0.12500934915E+03 0.  0.
         25    2    3    3    0    0 -0.44548364002E+02  0.30391137744E+02  0.27304515462E+03  0.30572776069E+03  0.12652125989E+03 0.  0.
          5    1    4    4  502    0 -0.25226399466E+02  0.29428865490E+02  0.15340570764E+03  0.15829665344E+03  0.47000000000E+01 0.  1.
         -5    1    4    4    0  502  0.69774763468E+02 -0.59820003234E+02  0.19005003440E+03  0.21115884064E+03  0.47000000000E+01 0.  1.
          5    1    5    5  503    0 -0.35639400589E+02  0.78147938056E+02  0.14367585490E+03  0.16745778089E+03  0.47000000000E+01 0. -1.
         -5    1    5    5    0  503 -0.89089634133E+01 -0.47756800312E+02  0.12936929972E+03  0.13826997980E+03  0.47000000000E+01 0. -1.
<mgrwt>
<rscale>  0 0.27531631E+03</rscale>
<asrwt>0</asrwt>
<pdfrwt beam="1">  1        2 0.99360309E-01 0.27531631E+03</pdfrwt>
<pdfrwt beam="2">  1       -2 0.45140280E-02 0.27531631E+03</pdfrwt>
<totfact> 0.10534341E+04</totfact>
</mgrwt>
</event>
<event>
 9    1  0.2094635E-002  0.2752809E+03  0.7818608E-02  0.1098295E+00
          2   -1    0    0  501    0  0.00000000000E+00  0.00000000000E+00  0.39494443102E+03  0.39494443102E+03  0.00000000000E+00 0. -1.
         -2   -1    0    0    0  501 -0.00000000000E+00 -0.00000000000E+00 -0.47968491457E+02  0.47968491457E+02  0.00000000000E+00 0. -1.
         36    2    1    2    0    0  0.00000000000E+00 -0.35527136788E-14  0.34697593956E+03  0.44291292247E+03  0.27528086432E+03 0.  0.
         25    2    3    3    0    0  0.37305743266E+02 -0.12690735687E+02  0.26126915196E+03  0.29264159722E+03  0.12579650793E+03 0.  0.
         25    2    3    3    0    0 -0.37305743266E+02  0.12690735687E+02  0.85706787599E+02  0.15027132525E+03  0.11697454637E+03 0.  0.
          5    1    4    4  502    0  0.43217528131E+02  0.19801509079E+02  0.25406143933E+03  0.25851336417E+03  0.47000000000E+01 0. -1.
         -5    1    4    4    0  502 -0.59117848652E+01 -0.32492244766E+02  0.72077126323E+01  0.34128233057E+02  0.47000000000E+01 0. -1.
          5    1    5    5  503    0 -0.21952231199E+02  0.35805349791E+02  0.10695829219E+03  0.11500473815E+03  0.47000000000E+01 0. -1.
         -5    1    5    5    0  503 -0.15353512067E+02 -0.23114614105E+02 -0.21251504594E+02  0.35266587098E+02  0.47000000000E+01 0. -1.
<mgrwt>
<rscale>  0 0.27528086E+03</rscale>
<asrwt>0</asrwt>
<pdfrwt beam="1">  1        2 0.60760680E-01 0.27528086E+03</pdfrwt>
<pdfrwt beam="2">  1       -2 0.73797682E-02 0.27528086E+03</pdfrwt>
<totfact> 0.86295426E+03</totfact>
</mgrwt>
</event>
<event>
 9    1  0.2094635E-002  0.2730068E+03  0.7818608E-02  0.1099571E+00
          1   -1    0    0  501    0  0.00000000000E+00  0.00000000000E+00  0.62312487083E+03  0.62312487083E+03  0.00000000000E+00 0. -1.
         -1   -1    0    0    0  501 -0.00000000000E+00 -0.00000000000E+00 -0.29902796284E+02  0.29902796284E+02  0.00000000000E+00 0. -1.
         36    2    1    2    0    0  0.71054273576E-14  0.00000000000E+00  0.59322207455E+03  0.65302766712E+03  0.27300678433E+03 0.  0.
         25    2    3    3    0    0  0.45710543992E+02  0.28363321471E+02  0.31931241551E+03  0.34638296463E+03  0.12299108767E+03 0.  0.
         25    2    3    3    0    0 -0.45710543992E+02 -0.28363321471E+02  0.27390965904E+03  0.30664470249E+03  0.12692730366E+03 0.  0.
          5    1    4    4  502    0  0.17493490379E+02 -0.47310693918E+02  0.90851835967E+02  0.10402148847E+03  0.47000000000E+01 0. -1.
         -5    1    4    4    0  502  0.28217053613E+02  0.75674015390E+02  0.22846057955E+03  0.24236147616E+03  0.47000000000E+01 0. -1.
          5    1    5    5  503    0  0.58498116439E+01  0.43447601686E+02  0.54860730796E+02  0.70382555879E+02  0.47000000000E+01 0.  1.
         -5    1    5    5    0  503 -0.51560355636E+02 -0.71810923157E+02  0.21904892824E+03  0.23626214661E+03  0.47000000000E+01 0.  1.
<mgrwt>
<rscale>  0 0.27300678E+03</rscale>
<asrwt>0</asrwt>
<pdfrwt beam="1">  1        1 0.95865355E-01 0.27300678E+03</pdfrwt>
<pdfrwt beam="2">  1       -1 0.46004307E-02 0.27300678E+03</pdfrwt>
<totfact> 0.66263627E+03</totfact>
</mgrwt>
</event>
<event>
 9    1  0.2094635E-002  0.2755465E+03  0.7818608E-02  0.1098147E+00
         -2   -1    0    0    0  501 -0.00000000000E+00  0.00000000000E+00  0.15701746596E+02  0.15701746596E+02  0.00000000000E+00 0. -1.
          2   -1    0    0  501    0  0.00000000000E+00 -0.00000000000E+00 -0.12088758391E+04  0.12088758391E+04  0.00000000000E+00 0. -1.
         36    2    1    2    0    0  0.00000000000E+00  0.17763568394E-14 -0.11931740925E+04  0.12245775857E+04  0.27554645410E+03 0.  0.
         25    2    3    3    0    0 -0.23169962530E+02  0.62441473454E+00 -0.77440923230E+03  0.78460653818E+03  0.12393757957E+03 0.  0.
         25    2    3    3    0    0  0.23169962530E+02 -0.62441473454E+00 -0.41876486017E+03  0.43997104748E+03  0.13294087953E+03 0.  0.
          5    1    4    4  502    0 -0.58814840167E+02  0.18402260102E+02 -0.66859844265E+03  0.67144902719E+03  0.47000000000E+01 0. -1.
         -5    1    4    4    0  502  0.35644877637E+02 -0.17777845368E+02 -0.10581078965E+03  0.11315751099E+03  0.47000000000E+01 0. -1.
          5    1    5    5  503    0 -0.52395517289E+02 -0.84302537630E+01 -0.11383515908E+03  0.12568569073E+03  0.47000000000E+01 0. -1.
         -5    1    5    5    0  503  0.75565479819E+02  0.78058390285E+01 -0.30492970109E+03  0.31428535675E+03  0.47000000000E+01 0. -1.
<mgrwt>
<rscale>  0 0.27554645E+03</rscale>
<asrwt>0</asrwt>
<pdfrwt beam="1">  1        2 0.18598096E+00 0.27554645E+03</pdfrwt>
<pdfrwt beam="2">  1       -2 0.24156525E-02 0.27554645E+03</pdfrwt>
<totfact> 0.11534794E+04</totfact>
</mgrwt>
</event>
<event>
 9    1  0.2094635E-002  0.2709393E+03  0.7818608E-02  0.1100743E+00
         -2   -1    0    0    0  501 -0.00000000000E+00  0.00000000000E+00  0.56077982285E+02  0.56077982285E+02  0.00000000000E+00 0.  1.
          2   -1    0    0  501    0  0.00000000000E+00 -0.00000000000E+00 -0.32725913500E+03  0.32725913500E+03  0.00000000000E+00 0.  1.
         36    2    1    2    0    0  0.00000000000E+00  0.00000000000E+00 -0.27118115271E+03  0.38333711728E+03  0.27093934358E+03 0.  0.
         25    2    3    3    0    0 -0.17749354225E+02  0.70378222220E+01 -0.64428338377E+02  0.13955785732E+03  0.12231440731E+03 0.  0.
         25    2    3    3    0    0  0.17749354225E+02 -0.70378222220E+01 -0.20675281434E+03  0.24377925996E+03  0.12773813384E+03 0.  0.
          5    1    4    4  502    0  0.26864687881E+02 -0.46117207301E+02 -0.20930591775E+02  0.57521195539E+02  0.47000000000E+01 0. -1.
         -5    1    4    4    0  502 -0.44614042106E+02  0.53155029523E+02 -0.43497746602E+02  0.82036661781E+02  0.47000000000E+01 0. -1.
          5    1    5    5  503    0  0.57960265029E+02 -0.37658671088E+02 -0.16167056702E+03  0.17588925513E+03  0.47000000000E+01 0.  1.
         -5    1    5    5    0  503 -0.40210910804E+02  0.30620848866E+02 -0.45082247314E+02  0.67890004830E+02  0.47000000000E+01 0.  1.
<mgrwt>
<rscale>  0 0.27093934E+03</rscale>
<asrwt>0</asrwt>
<pdfrwt beam="1">  1        2 0.50347559E-01 0.27093934E+03</pdfrwt>
<pdfrwt beam="2">  1       -2 0.86273818E-02 0.27093934E+03</pdfrwt>
<totfact> 0.82790553E+03</totfact>
</mgrwt>
</event>
<event>
 9    1  0.2094635E-002  0.2745283E+03  0.7818608E-02  0.1098716E+00
          2   -1    0    0  501    0  0.00000000000E+00  0.00000000000E+00  0.43938905217E+03  0.43938905217E+03  0.00000000000E+00 0. -1.
         -2   -1    0    0    0  501 -0.00000000000E+00 -0.00000000000E+00 -0.42881017933E+02  0.42881017933E+02  0.00000000000E+00 0. -1.
         36    2    1    2    0    0 -0.35527136788E-14 -0.71054273576E-14  0.39650803424E+03  0.48227007011E+03  0.27452832150E+03 0.  0.
         25    2    3    3    0    0 -0.31635895618E+02  0.45650477615E+02  0.24445479114E+03  0.27998697201E+03  0.12469869120E+03 0.  0.
         25    2    3    3    0    0  0.31635895618E+02 -0.45650477615E+02  0.15205324310E+03  0.20228309809E+03  0.12129908095E+03 0.  0.
          5    1    4    4  502    0  0.13409396087E+02 -0.66374035642E+01 -0.84345359846E+01  0.17807257700E+02  0.47000000000E+01 0.  1.
         -5    1    4    4    0  502 -0.45045291706E+02  0.52287881180E+02  0.25288932713E+03  0.26217971431E+03  0.47000000000E+01 0.  1.
          5    1    5    5  503    0 -0.86866984061E+00  0.39818717905E+02  0.32048798221E+02  0.51337124484E+02  0.47000000000E+01 0.  1.
         -5    1    5    5    0  503  0.32504565459E+02 -0.85469195520E+02  0.12000444488E+03  0.15094597361E+03  0.47000000000E+01 0.  1.
<mgrwt>
<rscale>  0 0.27452832E+03</rscale>
<asrwt>0</asrwt>
<pdfrwt beam="1">  1        2 0.67598313E-01 0.27452832E+03</pdfrwt>
<pdfrwt beam="2">  1       -2 0.65970800E-02 0.27452832E+03</pdfrwt>
<totfact> 0.91365947E+03</totfact>
</mgrwt>
</event>
<event>
 9    1  0.2094635E-002  0.2746999E+03  0.7818608E-02  0.1098619E+00
          2   -1    0    0  501    0  0.00000000000E+00  0.00000000000E+00  0.30870332535E+03  0.30870332535E+03  0.00000000000E+00 0. -1.
         -2   -1    0    0    0  501 -0.00000000000E+00 -0.00000000000E+00 -0.61110474414E+02  0.61110474414E+02  0.00000000000E+00 0. -1.
         36    2    1    2    0    0  0.35527136788E-14 -0.71054273576E-14  0.24759285093E+03  0.36981379976E+03  0.27469988471E+03 0.  0.
         25    2    3    3    0    0 -0.28097252687E+02  0.51891339644E+02  0.11067893281E+03  0.17594711732E+03  0.12339122816E+03 0.  0.
         25    2    3    3    0    0  0.28097252687E+02 -0.51891339644E+02  0.13691391812E+03  0.19386668244E+03  0.12392216447E+03 0.  0.
          5    1    4    4  502    0 -0.34990427525E+02  0.24814166928E+02  0.13303320316E+03  0.13985705574E+03  0.47000000000E+01 0. -1.
         -5    1    4    4    0  502  0.68931748383E+01  0.27077172716E+02 -0.22354270349E+02  0.36090061575E+02  0.47000000000E+01 0. -1.
          5    1    5    5  503    0  0.12136429413E+02 -0.92295964885E+02  0.86642761795E+02  0.12725916951E+03  0.47000000000E+01 0.  1.
         -5    1    5    5    0  503  0.15960823274E+02  0.40404625242E+02  0.50271156329E+02  0.66607512933E+02  0.47000000000E+01 0.  1.
<mgrwt>
<rscale>  0 0.27469988E+03</rscale>
<asrwt>0</asrwt>
<pdfrwt beam="1">  1        2 0.47492819E-01 0.27469988E+03</pdfrwt>
<pdfrwt beam="2">  1       -2 0.94016116E-02 0.27469988E+03</pdfrwt>
<totfact> 0.77031887E+03</totfact>
</mgrwt>
</event>
<event>
 9    1  0.2094635E-002  0.2750877E+03  0.7818608E-02  0.1098403E+00
         -2   -1    0    0    0  501 -0.00000000000E+00  0.00000000000E+00  0.67197970432E+01  0.67197970432E+01  0.00000000000E+00 0.  1.
          2   -1    0    0  501    0  0.00000000000E+00 -0.00000000000E+00 -0.28153101336E+04  0.28153101336E+04  0.00000000000E+00 0.  1.
         36    2    1    2    0    0  0.00000000000E+00  0.00000000000E+00 -0.28085903366E+04  0.28220299307E+04  0.27508771482E+03 0.  0.
         25    2    3    3    0    0  0.24964389824E+02  0.47419616492E+02 -0.11686849891E+04  0.11765756302E+04  0.12503507116E+03 0.  0.
         25    2    3    3    0    0 -0.24964389824E+02 -0.47419616492E+02 -0.16399053475E+04  0.16454543005E+04  0.12392927612E+03 0.  0.
          5    1    4    4  502    0  0.68628457571E+02  0.41053521823E+02 -0.95370560350E+03  0.95706411749E+03  0.47000000000E+01 0. -1.
         -5    1    4    4    0  502 -0.43664067746E+02  0.63660946690E+01 -0.21497938557E+03  0.21951151267E+03  0.47000000000E+01 0. -1.
          5    1    5    5  503    0 -0.22394024592E+02  0.23170357911E+02 -0.11499493418E+04  0.11504103339E+04  0.47000000000E+01 0. -1.
         -5    1    5    5    0  503 -0.25703652319E+01 -0.70589974403E+02 -0.48995600573E+03  0.49504396655E+03  0.47000000000E+01 0. -1.
<mgrwt>
<rscale>  0 0.27508771E+03</rscale>
<asrwt>0</asrwt>
<pdfrwt beam="1">  1        2 0.43312537E+00 0.27508771E+03</pdfrwt>
<pdfrwt beam="2">  1       -2 0.10338132E-02 0.27508771E+03</pdfrwt>
<totfact> 0.54239390E+03</totfact>
</mgrwt>
</event>
<event>
 9    1  0.2094635E-002  0.2752411E+03  0.7818608E-02  0.1098317E+00
          2   -1    0    0  501    0  0.00000000000E+00  0.00000000000E+00  0.47181272821E+02  0.47181272821E+02  0.00000000000E+00 0. -1.
         -2   -1    0    0    0  501 -0.00000000000E+00 -0.00000000000E+00 -0.40141817388E+03  0.40141817388E+03  0.00000000000E+00 0. -1.
         36    2    1    2    0    0  0.35527136788E-14  0.71054273576E-14 -0.35423690106E+03  0.44859944670E+03  0.27524113339E+03 0.  0.
         25    2    3    3    0    0 -0.13897877083E+02  0.54863920415E+02 -0.12168110002E+03  0.18318194653E+03  0.12468413966E+03 0.  0.
         25    2    3    3    0    0  0.13897877083E+02 -0.54863920415E+02 -0.23255580103E+03  0.26541750017E+03  0.11472161108E+03 0.  0.
          5    1    4    4  502    0  0.30666200440E+02  0.69191097488E+02 -0.11183239695E+03  0.13511624191E+03  0.47000000000E+01 0. -1.
         -5    1    4    4    0  502 -0.44564077523E+02 -0.14327177074E+02 -0.98487030721E+01  0.48065704620E+02  0.47000000000E+01 0. -1.
          5    1    5    5  503    0 -0.26339102806E+02  0.21242442833E+02 -0.11276635943E+03  0.11782754997E+03  0.47000000000E+01 0.  1.
         -5    1    5    5    0  503  0.40236979889E+02 -0.76106363248E+02 -0.11978944161E+03  0.14758995019E+03  0.47000000000E+01 0.  1.
<mgrwt>
<rscale>  0 0.27524113E+03</rscale>
<asrwt>0</asrwt>
<pdfrwt beam="1">  1        2 0.72586575E-02 0.27524113E+03</pdfrwt>
<pdfrwt beam="2">  1       -2 0.61756641E-01 0.27524113E+03</pdfrwt>
<totfact> 0.23929586E+03</totfact>
</mgrwt>
</event>
<event>
 9    1  0.2094635E-002  0.2740015E+03  0.7818608E-02  0.1099011E+00
          2   -1    0    0  501    0  0.00000000000E+00  0.00000000000E+00  0.69731954288E+03  0.69731954288E+03  0.00000000000E+00 0.  1.
         -2   -1    0    0    0  501 -0.00000000000E+00 -0.00000000000E+00 -0.26916220475E+02  0.26916220475E+02  0.00000000000E+00 0.  1.
         36    2    1    2    0    0  0.17763568394E-14  0.00000000000E+00  0.67040332241E+03  0.72423576336E+03  0.27400150772E+03 0.  0.
         25    2    3    3    0    0  0.60378266188E+01 -0.50558940548E+02  0.36517387783E+03  0.39010770207E+03  0.12743389012E+03 0.  0.
         25    2    3    3    0    0 -0.60378266188E+01  0.50558940548E+02  0.30522944458E+03  0.33412806129E+03  0.12603128849E+03 0.  0.
          5    1    4    4  502    0  0.21640970467E+02  0.37110961754E+02  0.75208370854E+02  0.86740671726E+02  0.47000000000E+01 0. -1.
         -5    1    4    4    0  502 -0.15603143848E+02 -0.87669902303E+02  0.28996550697E+03  0.30336703035E+03  0.47000000000E+01 0. -1.
          5    1    5    5  503    0 -0.61931463831E+02  0.10496609762E+02  0.18638227044E+03  0.19673872462E+03  0.47000000000E+01 0. -1.
         -5    1    5    5    0  503  0.55893637213E+02  0.40062330786E+02  0.11884717414E+03  0.13738933667E+03  0.47000000000E+01 0. -1.
<mgrwt>
<rscale>  0 0.27400151E+03</rscale>
<asrwt>0</asrwt>
<pdfrwt beam="1">  1        2 0.10727992E+00 0.27400151E+03</pdfrwt>
<pdfrwt beam="2">  1       -2 0.41409575E-02 0.27400151E+03</pdfrwt>
<totfact> 0.10944098E+04</totfact>
</mgrwt>
</event>
<event>
 9    1  0.2094635E-002  0.2749537E+03  0.7818608E-02  0.1098478E+00
         -1   -1    0    0    0  501 -0.00000000000E+00  0.00000000000E+00  0.58303254933E+02  0.58303254933E+02  0.00000000000E+00 0.  1.
          1   -1    0    0  501    0  0.00000000000E+00 -0.00000000000E+00 -0.32416508395E+03  0.32416508395E+03  0.00000000000E+00 0.  1.
         36    2    1    2    0    0 -0.14210854715E-13  0.00000000000E+00 -0.26586182902E+03  0.38246833889E+03  0.27495366541E+03 0.  0.
         25    2    3    3    0    0 -0.51366003094E+02  0.28597652158E+02 -0.13127916091E+03  0.18954866164E+03  0.12344304379E+03 0.  0.
         25    2    3    3    0    0  0.51366003094E+02 -0.28597652158E+02 -0.13458266812E+03  0.19291967724E+03  0.12509682381E+03 0.  0.
          5    1    4    4  502    0  0.17616866817E+02 -0.37067266530E+02 -0.42361819011E+02  0.59168825866E+02  0.47000000000E+01 0.  1.
         -5    1    4    4    0  502 -0.68982869911E+02  0.65664918689E+02 -0.88917341895E+02  0.13037983578E+03  0.47000000000E+01 0.  1.
          5    1    5    5  503    0  0.91261061413E+02 -0.34362707734E+02 -0.96165394381E+02  0.13703740398E+03  0.47000000000E+01 0. -1.
         -5    1    5    5    0  503 -0.39895058319E+02  0.57650555753E+01 -0.38417273735E+02  0.55882273265E+02  0.47000000000E+01 0. -1.
<mgrwt>
<rscale>  0 0.27495367E+03</rscale>
<asrwt>0</asrwt>
<pdfrwt beam="1">  1        1 0.49871552E-01 0.27495367E+03</pdfrwt>
<pdfrwt beam="2">  1       -1 0.89697314E-02 0.27495367E+03</pdfrwt>
<totfact> 0.56919919E+03</totfact>
</mgrwt>
</event>
<event>
 9    1  0.2094635E-002  0.2756526E+03  0.7818608E-02  0.1098087E+00
         -2   -1    0    0    0  501 -0.00000000000E+00  0.00000000000E+00  0.95657697563E+02  0.95657697563E+02  0.00000000000E+00 0. -1.
          2   -1    0    0  501    0  0.00000000000E+00 -0.00000000000E+00 -0.19858393789E+03  0.19858393789E+03  0.00000000000E+00 0. -1.
         36    2    1    2    0    0  0.00000000000E+00  0.00000000000E+00 -0.10292624032E+03  0.29424163545E+03  0.27565255138E+03 0.  0.
         25    2    3    3    0    0  0.11711889257E+01 -0.33561779499E+02 -0.98642408761E+02  0.16326199841E+03  0.12568369263E+03 0.  0.
         25    2    3    3    0    0 -0.11711889257E+01  0.33561779499E+02 -0.42838315609E+01  0.13097963704E+03  0.12652884801E+03 0.  0.
          5    1    4    4  502    0  0.41668533262E+02 -0.20020365707E+02 -0.10950050553E+03  0.11895180713E+03  0.47000000000E+01 0.  1.
         -5    1    4    4    0  502 -0.40497344336E+02 -0.13541413792E+02  0.10858096773E+02  0.44310191280E+02  0.47000000000E+01 0.  1.
          5    1    5    5  503    0 -0.28951076503E+02 -0.39582513144E+02 -0.15841182270E+02  0.51749137511E+02  0.47000000000E+01 0.  1.
         -5    1    5    5    0  503  0.27779887577E+02  0.73144292642E+02  0.11557350709E+02  0.79230499527E+02  0.47000000000E+01 0.  1.
<mgrwt>
<rscale>  0 0.27565255E+03</rscale>
<asrwt>0</asrwt>
<pdfrwt beam="1">  1        2 0.30551375E-01 0.27565255E+03</pdfrwt>
<pdfrwt beam="2">  1       -2 0.14716569E-01 0.27565255E+03</pdfrwt>
<totfact> 0.60283627E+03</totfact>
</mgrwt>
</event>
<event>
 9    1  0.2094635E-002  0.2751402E+03  0.7818608E-02  0.1098373E+00
          4   -1    0    0  501    0  0.00000000000E+00  0.00000000000E+00  0.50524845251E+03  0.50524845251E+03  0.00000000000E+00 0. -1.
         -4   -1    0    0    0  501 -0.00000000000E+00 -0.00000000000E+00 -0.37457866428E+02  0.37457866428E+02  0.00000000000E+00 0. -1.
         36    2    1    2    0    0 -0.35527136788E-14  0.00000000000E+00  0.46779058608E+03  0.54270631894E+03  0.27514017553E+03 0.  0.
         25    2    3    3    0    0  0.13168752504E+02 -0.57888680178E+02  0.28805462418E+03  0.31763650364E+03  0.11997069058E+03 0.  0.
         25    2    3    3    0    0 -0.13168752504E+02  0.57888680178E+02  0.17973596190E+03  0.22506981530E+03  0.12176571940E+03 0.  0.
          5    1    4    4  502    0  0.17732274008E+02  0.15241847579E+02  0.20660789815E+03  0.20797995345E+03  0.47000000000E+01 0.  1.
         -5    1    4    4    0  502 -0.45635215039E+01 -0.73130527757E+02  0.81446726030E+02  0.10965655019E+03  0.47000000000E+01 0.  1.
          5    1    5    5  503    0 -0.10673521417E+02 -0.25512077314E+02  0.13561682292E+01  0.28084147496E+02  0.47000000000E+01 0.  1.
         -5    1    5    5    0  503 -0.24952310869E+01  0.83400757492E+02  0.17837979367E+03  0.19698566780E+03  0.47000000000E+01 0.  1.
<mgrwt>
<rscale>  0 0.27514018E+03</rscale>
<asrwt>0</asrwt>
<pdfrwt beam="1">  1        4 0.77730526E-01 0.27514018E+03</pdfrwt>
<pdfrwt beam="2">  1       -4 0.57627491E-02 0.27514018E+03</pdfrwt>
<totfact> 0.53795845E+02</totfact>
</mgrwt>
</event>
<event>
 9    1  0.2094635E-002  0.2740648E+03  0.7818608E-02  0.1098976E+00
         -4   -1    0    0    0  501 -0.00000000000E+00  0.00000000000E+00  0.62929104165E+02  0.62929104165E+02  0.00000000000E+00 0.  1.
          4   -1    0    0  501    0  0.00000000000E+00 -0.00000000000E+00 -0.29839727825E+03  0.29839727825E+03  0.00000000000E+00 0.  1.
         36    2    1    2    0    0 -0.35527136788E-14  0.00000000000E+00 -0.23546817408E+03  0.36132638241E+03  0.27406476173E+03 0.  0.
         25    2    3    3    0    0 -0.26637837125E+02  0.39520170306E+02 -0.15901346550E+03  0.20681725386E+03  0.12335589186E+03 0.  0.
         25    2    3    3    0    0  0.26637837125E+02 -0.39520170306E+02 -0.76454708581E+02  0.15450912855E+03  0.12552422122E+03 0.  0.
          5    1    4    4  502    0 -0.60391856948E+02  0.47322654917E+02 -0.48462480760E+02  0.90869753469E+02  0.47000000000E+01 0.  1.
         -5    1    4    4    0  502  0.33754019823E+02 -0.78024846108E+01 -0.11055098474E+03  0.11594750039E+03  0.47000000000E+01 0.  1.
          5    1    5    5  503    0  0.27777447232E+02  0.19640600220E+02 -0.87620031158E+02  0.94110039910E+02  0.47000000000E+01 0. -1.
         -5    1    5    5    0  503 -0.11396101062E+01 -0.59160770526E+02  0.11165322576E+02  0.60399088641E+02  0.47000000000E+01 0. -1.
<mgrwt>
<rscale>  0 0.27406476E+03</rscale>
<asrwt>0</asrwt>
<pdfrwt beam="1">  1        4 0.45907274E-01 0.27406476E+03</pdfrwt>
<pdfrwt beam="2">  1       -4 0.96814006E-02 0.27406476E+03</pdfrwt>
<totfact> 0.69333711E+02</totfact>
</mgrwt>
</event>
<event>
 9    1  0.2094635E-002  0.2754576E+03  0.7818608E-02  0.1098196E+00
         -2   -1    0    0    0  501 -0.00000000000E+00  0.00000000000E+00  0.60409847011E+02  0.60409847011E+02  0.00000000000E+00 0.  1.
          2   -1    0    0  501    0  0.00000000000E+00 -0.00000000000E+00 -0.31400880530E+03  0.31400880530E+03  0.00000000000E+00 0.  1.
         36    2    1    2    0    0  0.00000000000E+00  0.00000000000E+00 -0.25359895829E+03  0.37441865231E+03  0.27545761117E+03 0.  0.
         25    2    3    3    0    0  0.32230418491E+02 -0.48206021268E+02 -0.15075346373E+03  0.20325837774E+03  0.12338857699E+03 0.  0.
         25    2    3    3    0    0 -0.32230418491E+02  0.48206021268E+02 -0.10284549456E+03  0.17116027457E+03  0.12391942333E+03 0.  0.
          5    1    4    4  502    0 -0.41057484673E+02 -0.30113151216E+02 -0.25989480031E+02  0.57359062023E+02  0.47000000000E+01 0.  1.
         -5    1    4    4    0  502  0.73287903164E+02 -0.18092870052E+02 -0.12476398370E+03  0.14589931572E+03  0.47000000000E+01 0.  1.
          5    1    5    5  503    0 -0.50933072245E+02 -0.13038023185E+02 -0.91964557142E+02  0.10603649215E+03  0.47000000000E+01 0. -1.
         -5    1    5    5    0  503  0.18702653755E+02  0.61244044453E+02 -0.10880937415E+02  0.65123782426E+02  0.47000000000E+01 0. -1.
<mgrwt>
<rscale>  0 0.27545761E+03</rscale>
<asrwt>0</asrwt>
<pdfrwt beam="1">  1        2 0.48309047E-01 0.27545761E+03</pdfrwt>
<pdfrwt beam="2">  1       -2 0.92938226E-02 0.27545761E+03</pdfrwt>
<totfact> 0.77032220E+03</totfact>
</mgrwt>
</event>
<event>
 9    1  0.2094635E-002  0.2749630E+03  0.7818608E-02  0.1098472E+00
         -2   -1    0    0    0  501 -0.00000000000E+00  0.00000000000E+00  0.39890476056E+02  0.39890476056E+02  0.00000000000E+00 0. -1.
          2   -1    0    0  501    0  0.00000000000E+00 -0.00000000000E+00 -0.47382650619E+03  0.47382650619E+03  0.00000000000E+00 0. -1.
         36    2    1    2    0    0  0.00000000000E+00  0.00000000000E+00 -0.43393603013E+03  0.51371698224E+03  0.27496301496E+03 0.  0.
         25    2    3    3    0    0  0.24832624976E+02 -0.21946227012E+02 -0.13427163549E+03  0.18676854067E+03  0.12552019576E+03 0.  0.
         25    2    3    3    0    0 -0.24832624976E+02  0.21946227012E+02 -0.29966439464E+03  0.32694844157E+03  0.12648414085E+03 0.  0.
          5    1    4    4  502    0 -0.16869545378E+02  0.48823614946E+01  0.18586843520E+02  0.25999610902E+02  0.47000000000E+01 0. -1.
         -5    1    4    4    0  502  0.41702170354E+02 -0.26828588506E+02 -0.15285847901E+03  0.16076892977E+03  0.47000000000E+01 0. -1.
          5    1    5    5  503    0 -0.15699797056E+02 -0.35470131690E+02 -0.24126975556E+03  0.24441317235E+03  0.47000000000E+01 0.  1.
         -5    1    5    5    0  503 -0.91328279196E+01  0.57416358702E+02 -0.58394639082E+02  0.82535269224E+02  0.47000000000E+01 0.  1.
<mgrwt>
<rscale>  0 0.27496301E+03</rscale>
<asrwt>0</asrwt>
<pdfrwt beam="1">  1        2 0.72896385E-01 0.27496301E+03</pdfrwt>
<pdfrwt beam="2">  1       -2 0.61369963E-02 0.27496301E+03</pdfrwt>
<totfact> 0.93971477E+03</totfact>
</mgrwt>
</event>
<event>
 9    1  0.2094635E-002  0.2742238E+03  0.7818608E-02  0.1098886E+00
         -1   -1    0    0    0  501 -0.00000000000E+00  0.00000000000E+00  0.39536832945E+02  0.39536832945E+02  0.00000000000E+00 0. -1.
          1   -1    0    0  501    0  0.00000000000E+00 -0.00000000000E+00 -0.47549761036E+03  0.47549761036E+03  0.00000000000E+00 0. -1.
         36    2    1    2    0    0  0.00000000000E+00  0.71054273576E-14 -0.43596077741E+03  0.51503444330E+03  0.27422377422E+03 0.  0.
         25    2    3    3    0    0  0.47270935881E+01  0.21581109477E+02 -0.27563631280E+03  0.30406855213E+03  0.12646824803E+03 0.  0.
         25    2    3    3    0    0 -0.47270935881E+01 -0.21581109477E+02 -0.16032446461E+03  0.21096589117E+03  0.13533138433E+03 0.  0.
          5    1    4    4  502    0 -0.51960043404E+02 -0.18529338523E+02 -0.88313845948E+02  0.10423342978E+03  0.47000000000E+01 0. -1.
         -5    1    4    4    0  502  0.56687136992E+02  0.40110448001E+02 -0.18732246686E+03  0.19983512236E+03  0.47000000000E+01 0. -1.
          5    1    5    5  503    0 -0.66817174200E+02 -0.19899600920E+02 -0.11249790715E+03  0.13243261682E+03  0.47000000000E+01 0.  1.
         -5    1    5    5    0  503  0.62090080612E+02 -0.16815085578E+01 -0.47826557461E+02  0.78533274350E+02  0.47000000000E+01 0.  1.
<mgrwt>
<rscale>  0 0.27422377E+03</rscale>
<asrwt>0</asrwt>
<pdfrwt beam="1">  1        1 0.73153484E-01 0.27422377E+03</pdfrwt>
<pdfrwt beam="2">  1       -1 0.60825892E-02 0.27422377E+03</pdfrwt>
<totfact> 0.62873619E+03</totfact>
</mgrwt>
</event>
<event>
 9    1  0.2094635E-002  0.2760379E+03  0.7818608E-02  0.1097873E+00
         -1   -1    0    0    0  501 -0.00000000000E+00  0.00000000000E+00  0.74182785435E+02  0.74182785435E+02  0.00000000000E+00 0.  1.
          1   -1    0    0  501    0  0.00000000000E+00 -0.00000000000E+00 -0.25678774595E+03  0.25678774595E+03  0.00000000000E+00 0.  1.
         36    2    1    2    0    0  0.14210854715E-13  0.00000000000E+00 -0.18260496051E+03  0.33097053138E+03  0.27603789783E+03 0.  0.
         25    2    3    3    0    0 -0.48961989214E+02 -0.23489010202E+02 -0.11729000065E+03  0.17995666271E+03  0.12521360235E+03 0.  0.
         25    2    3    3    0    0  0.48961989214E+02  0.23489010202E+02 -0.65314959864E+02  0.15101386867E+03  0.12486046036E+03 0.  0.
          5    1    4    4  502    0 -0.29478351226E+02  0.49745469929E+02 -0.68221600915E+02  0.89553681113E+02  0.47000000000E+01 0. -1.
         -5    1    4    4    0  502 -0.19483637988E+02 -0.73234480131E+02 -0.49068399734E+02  0.90402981598E+02  0.47000000000E+01 0. -1.
          5    1    5    5  503    0 -0.15989169054E+02 -0.40410045583E+02 -0.30779629735E+02  0.53461209467E+02  0.47000000000E+01 0. -1.
         -5    1    5    5    0  503  0.64951158268E+02  0.63899055785E+02 -0.34535330128E+02  0.97552659204E+02  0.47000000000E+01 0. -1.
<mgrwt>
<rscale>  0 0.27603790E+03</rscale>
<asrwt>0</asrwt>
<pdfrwt beam="1">  1        1 0.39505808E-01 0.27603790E+03</pdfrwt>
<pdfrwt beam="2">  1       -1 0.11412736E-01 0.27603790E+03</pdfrwt>
<totfact> 0.52566509E+03</totfact>
</mgrwt>
</event>
<event>
 9    1  0.2094635E-002  0.2755253E+03  0.7818608E-02  0.1098158E+00
         -2   -1    0    0    0  501 -0.00000000000E+00  0.00000000000E+00  0.22086890774E+02  0.22086890774E+02  0.00000000000E+00 0. -1.
          2   -1    0    0  501    0  0.00000000000E+00 -0.00000000000E+00 -0.85926734004E+03  0.85926734004E+03  0.00000000000E+00 0. -1.
         36    2    1    2    0    0  0.71054273576E-14 -0.71054273576E-14 -0.83718044927E+03  0.88135423081E+03  0.27552527205E+03 0.  0.
         25    2    3    3    0    0  0.34007699128E+02 -0.44105142474E+02 -0.34402135385E+03  0.37037885857E+03  0.12541140211E+03 0.  0.
         25    2    3    3    0    0 -0.34007699128E+02  0.44105142474E+02 -0.49315909542E+03  0.51097537224E+03  0.12160653952E+03 0.  0.
          5    1    4    4  502    0  0.16891781460E+02  0.60783468610E+01 -0.30197803686E+03  0.30254768769E+03  0.47000000000E+01 0. -1.
         -5    1    4    4    0  502  0.17115917668E+02 -0.50183489335E+02 -0.42043316992E+02  0.67831170882E+02  0.47000000000E+01 0. -1.
          5    1    5    5  503    0 -0.22013560488E+02  0.83693859033E+02 -0.39421290619E+03  0.40362750686E+03  0.47000000000E+01 0. -1.
         -5    1    5    5    0  503 -0.11994138641E+02 -0.39588716559E+02 -0.98946189224E+02  0.10734786538E+03  0.47000000000E+01 0. -1.
<mgrwt>
<rscale>  0 0.27552527E+03</rscale>
<asrwt>0</asrwt>
<pdfrwt beam="1">  1        2 0.13219495E+00 0.27552527E+03</pdfrwt>
<pdfrwt beam="2">  1       -2 0.33979839E-02 0.27552527E+03</pdfrwt>
<totfact> 0.11323648E+04</totfact>
</mgrwt>
</event>
<event>
 9    1  0.2094635E-002  0.2732340E+03  0.7818608E-02  0.1099443E+00
         -2   -1    0    0    0  501 -0.00000000000E+00  0.00000000000E+00  0.30865649179E+02  0.30865649179E+02  0.00000000000E+00 0. -1.
          2   -1    0    0  501    0  0.00000000000E+00 -0.00000000000E+00 -0.60469198282E+03  0.60469198282E+03  0.00000000000E+00 0. -1.
         36    2    1    2    0    0  0.35527136788E-14  0.35527136788E-14 -0.57382633364E+03  0.63555763200E+03  0.27323404329E+03 0.  0.
         25    2    3    3    0    0 -0.11553151080E+02 -0.31791331384E+02 -0.40780560203E+03  0.42738748907E+03  0.12333082629E+03 0.  0.
         25    2    3    3    0    0  0.11553151080E+02  0.31791331384E+02 -0.16602073161E+03  0.20817014293E+03  0.12094528115E+03 0.  0.
          5    1    4    4  502    0  0.16952705322E+02 -0.73833576024E+02 -0.21747825408E+03  0.23034251054E+03  0.47000000000E+01 0.  1.
         -5    1    4    4    0  502 -0.28505856402E+02  0.42042244639E+02 -0.19032734795E+03  0.19704497852E+03  0.47000000000E+01 0.  1.
          5    1    5    5  503    0  0.53085523980E+02 -0.10359852794E+02 -0.35728079476E+02  0.64992192371E+02  0.47000000000E+01 0.  1.
         -5    1    5    5    0  503 -0.41532372900E+02  0.42151184178E+02 -0.13029265214E+03  0.14317795056E+03  0.47000000000E+01 0.  1.
<mgrwt>
<rscale>  0 0.27323404E+03</rscale>
<asrwt>0</asrwt>
<pdfrwt beam="1">  1        2 0.93029532E-01 0.27323404E+03</pdfrwt>
<pdfrwt beam="2">  1       -2 0.47485616E-02 0.27323404E+03</pdfrwt>
<totfact> 0.10537538E+04</totfact>
</mgrwt>
</event>
<event>
 9    1  0.2094635E-002  0.2747435E+03  0.7818608E-02  0.1098595E+00
          1   -1    0    0  501    0  0.00000000000E+00  0.00000000000E+00  0.33088067476E+02  0.33088067476E+02  0.00000000000E+00 0.  1.
         -1   -1    0    0    0  501 -0.00000000000E+00 -0.00000000000E+00 -0.57032625688E+03  0.57032625688E+03  0.00000000000E+00 0.  1.
         36    2    1    2    0    0  0.00000000000E+00  0.00000000000E+00 -0.53723818941E+03  0.60341432436E+03  0.27474347068E+03 0.  0.
         25    2    3    3    0    0 -0.38979586933E+02  0.54562220026E+02 -0.24414442736E+03  0.28202642016E+03  0.12424152369E+03 0.  0.
         25    2    3    3    0    0  0.38979586933E+02 -0.54562220026E+02 -0.29309376204E+03  0.32138790419E+03  0.11353320025E+03 0.  0.
          5    1    4    4  502    0 -0.51564155761E+02  0.55507360264E+02 -0.25415368392E+03  0.26524727002E+03  0.47000000000E+01 0. -1.
         -5    1    4    4    0  502  0.12584568828E+02 -0.94514023754E+00  0.10009256561E+02  0.16779150144E+02  0.47000000000E+01 0. -1.
          5    1    5    5  503    0  0.53270905529E+02  0.46727548099E+01 -0.21828237466E+03  0.22478636324E+03  0.47000000000E+01 0.  1.
         -5    1    5    5    0  503 -0.14291318596E+02 -0.59234974836E+02 -0.74811387387E+02  0.96601540949E+02  0.47000000000E+01 0.  1.
<mgrwt>
<rscale>  0 0.27474347E+03</rscale>
<asrwt>0</asrwt>
<pdfrwt beam="1">  1        1 0.50904720E-02 0.27474347E+03</pdfrwt>
<pdfrwt beam="2">  1       -1 0.87742499E-01 0.27474347E+03</pdfrwt>
<totfact> 0.21752527E+03</totfact>
</mgrwt>
</event>
<event>
 9    1  0.2094635E-002  0.2751103E+03  0.7818608E-02  0.1098390E+00
          3   -1    0    0  501    0  0.00000000000E+00  0.00000000000E+00  0.15279620426E+03  0.15279620426E+03  0.00000000000E+00 0.  1.
         -3   -1    0    0    0  501 -0.00000000000E+00 -0.00000000000E+00 -0.12383436995E+03  0.12383436995E+03  0.00000000000E+00 0.  1.
         36    2    1    2    0    0  0.00000000000E+00  0.00000000000E+00  0.28961834310E+02  0.27663057421E+03  0.27511031740E+03 0.  0.
         25    2    3    3    0    0 -0.46505576620E+02 -0.42240910402E+02  0.10349292052E+02  0.13711804992E+03  0.12143800311E+03 0.  0.
         25    2    3    3    0    0  0.46505576620E+02  0.42240910402E+02  0.18612542259E+02  0.13951252429E+03  0.12316758720E+03 0.  0.
          5    1    4    4  502    0 -0.43199660282E+02 -0.14031814532E+02  0.62585914773E+02  0.77473796832E+02  0.47000000000E+01 0.  1.
         -5    1    4    4    0  502 -0.33059163381E+01 -0.28209095870E+02 -0.52236622721E+02  0.59644253084E+02  0.47000000000E+01 0.  1.
          5    1    5    5  503    0  0.47501692027E+02 -0.30415752527E+02 -0.16100758349E+02  0.58846012326E+02  0.47000000000E+01 0. -1.
         -5    1    5    5    0  503 -0.99611540657E+00  0.72656662929E+02  0.34713300608E+02  0.80666511967E+02  0.47000000000E+01 0. -1.
<mgrwt>
<rscale>  0 0.27511032E+03</rscale>
<asrwt>0</asrwt>
<pdfrwt beam="1">  1        3 0.23507108E-01 0.27511032E+03</pdfrwt>
<pdfrwt beam="2">  1       -3 0.19051442E-01 0.27511032E+03</pdfrwt>
<totfact> 0.10451540E+03</totfact>
</mgrwt>
</event>
<event>
 9    1  0.2094635E-002  0.2751485E+03  0.7818608E-02  0.1098369E+00
         -1   -1    0    0    0  501 -0.00000000000E+00  0.00000000000E+00  0.13043473195E+02  0.13043473195E+02  0.00000000000E+00 0. -1.
          1   -1    0    0  501    0  0.00000000000E+00 -0.00000000000E+00 -0.14510457768E+04  0.14510457768E+04  0.00000000000E+00 0. -1.
         36    2    1    2    0    0  0.00000000000E+00  0.00000000000E+00 -0.14380023036E+04  0.14640892500E+04  0.27514851767E+03 0.  0.
         25    2    3    3    0    0 -0.58583142862E+02  0.14185211273E+02 -0.50265503573E+03  0.52150013267E+03  0.12516828106E+03 0.  0.
         25    2    3    3    0    0  0.58583142862E+02 -0.14185211273E+02 -0.93534726783E+03  0.94258911728E+03  0.99832498370E+02 0.  0.
          5    1    4    4  502    0  0.32279701035E+02  0.27032925279E+02 -0.22740734874E+03  0.23132001731E+03  0.47000000000E+01 0. -1.
         -5    1    4    4    0  502 -0.90862843896E+02 -0.12847714006E+02 -0.27524768699E+03  0.29018011536E+03  0.47000000000E+01 0. -1.
          5    1    5    5  503    0  0.13198327274E+02 -0.17925788475E+02 -0.39581936921E+02  0.45654676274E+02  0.47000000000E+01 0. -1.
         -5    1    5    5    0  503  0.45384815588E+02  0.37405772016E+01 -0.89576533091E+03  0.89693444101E+03  0.47000000000E+01 0. -1.
<mgrwt>
<rscale>  0 0.27514852E+03</rscale>
<asrwt>0</asrwt>
<pdfrwt beam="1">  1        1 0.22323779E+00 0.27514852E+03</pdfrwt>
<pdfrwt beam="2">  1       -1 0.20066884E-02 0.27514852E+03</pdfrwt>
<totfact> 0.52636139E+03</totfact>
</mgrwt>
</event>
<event>
 9    1  0.2094635E-002  0.2749323E+03  0.7818608E-02  0.1098489E+00
         -2   -1    0    0    0  501 -0.00000000000E+00  0.00000000000E+00  0.57820132696E+02  0.57820132696E+02  0.00000000000E+00 0.  1.
          2   -1    0    0  501    0  0.00000000000E+00 -0.00000000000E+00 -0.32682287624E+03  0.32682287624E+03  0.00000000000E+00 0.  1.
         36    2    1    2    0    0  0.35527136788E-14  0.00000000000E+00 -0.26900274355E+03  0.38464300894E+03  0.27493229765E+03 0.  0.
         25    2    3    3    0    0 -0.31406498635E+02 -0.33543977665E+01 -0.79901388939E+02  0.15443062319E+03  0.12832367390E+03 0.  0.
         25    2    3    3    0    0  0.31406498635E+02  0.33543977665E+01 -0.18910135461E+03  0.23021238575E+03  0.12743939774E+03 0.  0.
          5    1    4    4  502    0  0.46055934386E+02 -0.21086870868E+02 -0.43344256003E+02  0.66832774472E+02  0.47000000000E+01 0. -1.
         -5    1    4    4    0  502 -0.77462433020E+02  0.17732473101E+02 -0.36557132936E+02  0.87597848719E+02  0.47000000000E+01 0. -1.
          5    1    5    5  503    0  0.56358814460E+02 -0.13645333164E+02 -0.25052766901E+02  0.63342262463E+02  0.47000000000E+01 0.  1.
         -5    1    5    5    0  503 -0.24952315825E+02  0.16999730931E+02 -0.16404858771E+03  0.16687012328E+03  0.47000000000E+01 0.  1.
<mgrwt>
<rscale>  0 0.27493230E+03</rscale>
<asrwt>0</asrwt>
<pdfrwt beam="1">  1        2 0.50280442E-01 0.27493230E+03</pdfrwt>
<pdfrwt beam="2">  1       -2 0.88954051E-02 0.27493230E+03</pdfrwt>
<totfact> 0.79061027E+03</totfact>
</mgrwt>
</event>
<event>
 9    1  0.2094635E-002  0.2762017E+03  0.7818608E-02  0.1097782E+00
          1   -1    0    0  501    0  0.00000000000E+00  0.00000000000E+00  0.10195696171E+04  0.10195696171E+04  0.00000000000E+00 0. -1.
         -1   -1    0    0    0  501 -0.00000000000E+00 -0.00000000000E+00 -0.18705785839E+02  0.18705785839E+02  0.00000000000E+00 0. -1.
         36    2    1    2    0    0  0.71054273576E-14  0.00000000000E+00  0.10008638313E+04  0.10382754030E+04  0.27620174443E+03 0.  0.
         25    2    3    3    0    0 -0.43415647764E+02 -0.38874915957E+02  0.40169256982E+03  0.42258597082E+03  0.11758318133E+03 0.  0.
         25    2    3    3    0    0  0.43415647764E+02  0.38874915957E+02  0.59917126147E+03  0.61568943214E+03  0.12911660898E+03 0.  0.
          5    1    4    4  502    0  0.24360359497E+02 -0.25861502317E+02  0.28258489730E+03  0.28484830805E+03  0.47000000000E+01 0. -1.
         -5    1    4    4    0  502 -0.67776007261E+02 -0.13013413640E+02  0.11910767252E+03  0.13773766278E+03  0.47000000000E+01 0. -1.
          5    1    5    5  503    0  0.57087044622E+02 -0.13341959855E+02  0.49296709239E+03  0.49646307288E+03  0.47000000000E+01 0. -1.
         -5    1    5    5    0  503 -0.13671396858E+02  0.52216875812E+02  0.10620416908E+03  0.11922635925E+03  0.47000000000E+01 0. -1.
<mgrwt>
<rscale>  0 0.27620174E+03</rscale>
<asrwt>0</asrwt>
<pdfrwt beam="1">  1        1 0.15685682E+00 0.27620174E+03</pdfrwt>
<pdfrwt beam="2">  1       -1 0.28778140E-02 0.27620174E+03</pdfrwt>
<totfact> 0.61987564E+03</totfact>
</mgrwt>
</event>
<event>
 9    1  0.2094635E-002  0.2750116E+03  0.7818608E-02  0.1098445E+00
         -2   -1    0    0    0  501 -0.00000000000E+00  0.00000000000E+00  0.22777144692E+03  0.22777144692E+03  0.00000000000E+00 0. -1.
          2   -1    0    0  501    0  0.00000000000E+00 -0.00000000000E+00 -0.83012334868E+02  0.83012334868E+02  0.00000000000E+00 0. -1.
         36    2    1    2    0    0  0.35527136788E-14  0.00000000000E+00  0.14475911205E+03  0.31078378178E+03  0.27501156066E+03 0.  0.
         25    2    3    3    0    0  0.28036686970E+02 -0.30172080708E+01  0.12449221386E+03  0.18090796160E+03  0.12819602138E+03 0.  0.
         25    2    3    3    0    0 -0.28036686970E+02  0.30172080708E+01  0.20266898186E+02  0.12987582018E+03  0.12514720191E+03 0.  0.
          5    1    4    4  502    0 -0.43364605203E+02  0.11076209123E+02  0.11543279761E+02  0.46459753557E+02  0.47000000000E+01 0. -1.
         -5    1    4    4    0  502  0.71401292172E+02 -0.14093417194E+02  0.11294893410E+03  0.13444820805E+03  0.47000000000E+01 0. -1.
          5    1    5    5  503    0 -0.12627039205E+02  0.40258726363E+02 -0.39266906974E+02  0.57828947343E+02  0.47000000000E+01 0. -1.
         -5    1    5    5    0  503 -0.15409647764E+02 -0.37241518292E+02  0.59533805159E+02  0.72046872838E+02  0.47000000000E+01 0. -1.
<mgrwt>
<rscale>  0 0.27501156E+03</rscale>
<asrwt>0</asrwt>
<pdfrwt beam="1">  1        2 0.12771129E-01 0.27501156E+03</pdfrwt>
<pdfrwt beam="2">  1       -2 0.35041761E-01 0.27501156E+03</pdfrwt>
<totfact> 0.36103940E+03</totfact>
</mgrwt>
</event>
<event>
 9    1  0.2094635E-002  0.2762518E+03  0.7818608E-02  0.1097754E+00
         -2   -1    0    0    0  501 -0.00000000000E+00  0.00000000000E+00  0.37974779125E+02  0.37974779125E+02  0.00000000000E+00 0.  1.
          2   -1    0    0  501    0  0.00000000000E+00 -0.00000000000E+00 -0.50240603353E+03  0.50240603353E+03  0.00000000000E+00 0.  1.
         36    2    1    2    0    0  0.00000000000E+00  0.00000000000E+00 -0.46443125441E+03  0.54038081266E+03  0.27625175586E+03 0.  0.
         25    2    3    3    0    0  0.73964547326E+01  0.55347817175E+01 -0.31075665200E+03  0.33566451003E+03  0.12655285526E+03 0.  0.
         25    2    3    3    0    0 -0.73964547326E+01 -0.55347817175E+01 -0.15367460240E+03  0.20471630263E+03  0.13493531705E+03 0.  0.
          5    1    4    4  502    0  0.38762615130E+02 -0.33267337114E+02 -0.55663749470E+02  0.75695436160E+02  0.47000000000E+01 0.  1.
         -5    1    4    4    0  502 -0.31366160397E+02  0.38802118831E+02 -0.25509290253E+03  0.25996907387E+03  0.47000000000E+01 0.  1.
          5    1    5    5  503    0  0.19944522854E+02 -0.65738630046E+02 -0.74266773552E+02  0.10127682423E+03  0.47000000000E+01 0.  1.
         -5    1    5    5    0  503 -0.27340977587E+02  0.60203848329E+02 -0.79407828852E+02  0.10343947840E+03  0.47000000000E+01 0.  1.
<mgrwt>
<rscale>  0 0.27625176E+03</rscale>
<asrwt>0</asrwt>
<pdfrwt beam="1">  1        2 0.77293231E-01 0.27625176E+03</pdfrwt>
<pdfrwt beam="2">  1       -2 0.58422741E-02 0.27625176E+03</pdfrwt>
<totfact> 0.94954739E+03</totfact>
</mgrwt>
</event>
<event>
 9    1  0.2094635E-002  0.2748403E+03  0.7818608E-02  0.1098541E+00
          1   -1    0    0  501    0  0.00000000000E+00  0.00000000000E+00  0.75488689021E+03  0.75488689021E+03  0.00000000000E+00 0.  1.
         -1   -1    0    0    0  501 -0.00000000000E+00 -0.00000000000E+00 -0.25016062090E+02  0.25016062090E+02  0.00000000000E+00 0.  1.
         36    2    1    2    0    0  0.14210854715E-13  0.00000000000E+00  0.72987082812E+03  0.77990295230E+03  0.27484029775E+03 0.  0.
         25    2    3    3    0    0  0.44970079420E+02  0.15802420572E+01  0.45952409146E+03  0.47853402942E+03  0.12572836383E+03 0.  0.
         25    2    3    3    0    0 -0.44970079420E+02 -0.15802420572E+01  0.27034673667E+03  0.30136892289E+03  0.12534378504E+03 0.  0.
          5    1    4    4  502    0  0.65835921997E+02 -0.27333190482E+02  0.14178200100E+03  0.15876302382E+03  0.47000000000E+01 0. -1.
         -5    1    4    4    0  502 -0.20865842577E+02  0.28913432539E+02  0.31774209046E+03  0.31977100559E+03  0.47000000000E+01 0. -1.
          5    1    5    5  503    0 -0.23243328480E+02  0.21506267057E+02  0.26726139395E+03  0.26917190518E+03  0.47000000000E+01 0.  1.
         -5    1    5    5    0  503 -0.21726750941E+02 -0.23086509114E+02  0.30853427150E+01  0.32197017706E+02  0.47000000000E+01 0.  1.
<mgrwt>
<rscale>  0 0.27484030E+03</rscale>
<asrwt>0</asrwt>
<pdfrwt beam="1">  1        1 0.11613643E+00 0.27484030E+03</pdfrwt>
<pdfrwt beam="2">  1       -1 0.38486255E-02 0.27484030E+03</pdfrwt>
<totfact> 0.65458944E+03</totfact>
</mgrwt>
</event>
<event>
 9    1  0.2094635E-002  0.2751332E+03  0.7818608E-02  0.1098377E+00
         -4   -1    0    0    0  501 -0.00000000000E+00  0.00000000000E+00  0.69573668725E+01  0.69573668725E+01  0.00000000000E+00 0. -1.
          4   -1    0    0  501    0  0.00000000000E+00 -0.00000000000E+00 -0.27200762144E+04  0.27200762144E+04  0.00000000000E+00 0. -1.
         36    2    1    2    0    0 -0.14210854715E-13  0.00000000000E+00 -0.27131188475E+04  0.27270335812E+04  0.27513319061E+03 0.  0.
         25    2    3    3    0    0 -0.78574502101E+02  0.27706123379E+01 -0.10193605408E+04  0.10272743771E+04  0.10007549649E+03 0.  0.
         25    2    3    3    0    0  0.78574502101E+02 -0.27706123379E+01 -0.16937583067E+04  0.16997592042E+04  0.11909039401E+03 0.  0.
          5    1    4    4  502    0 -0.16588620868E+02 -0.45191381013E+02 -0.35066920027E+03  0.35398929543E+03  0.47000000000E+01 0.  1.
         -5    1    4    4    0  502 -0.61985881232E+02  0.47961993351E+02 -0.66869134053E+03  0.67328508165E+03  0.47000000000E+01 0.  1.
          5    1    5    5  503    0  0.99524879219E+02 -0.25022318299E+02 -0.98859165501E+03  0.99391492008E+03  0.47000000000E+01 0. -1.
         -5    1    5    5    0  503 -0.20950377118E+02  0.22251705961E+02 -0.70516665168E+03  0.70584428408E+03  0.47000000000E+01 0. -1.
<mgrwt>
<rscale>  0 0.27513319E+03</rscale>
<asrwt>0</asrwt>
<pdfrwt beam="1">  1        4 0.41847350E+00 0.27513319E+03</pdfrwt>
<pdfrwt beam="2">  1       -4 0.10703635E-02 0.27513319E+03</pdfrwt>
<totfact> 0.31884109E+01</totfact>
</mgrwt>
</event>
<event>
 9    1  0.2094635E-002  0.2748808E+03  0.7818608E-02  0.1098518E+00
          1   -1    0    0  501    0  0.00000000000E+00  0.00000000000E+00  0.13362665886E+03  0.13362665886E+03  0.00000000000E+00 0. -1.
         -1   -1    0    0    0  501 -0.00000000000E+00 -0.00000000000E+00 -0.14136296487E+03  0.14136296487E+03  0.00000000000E+00 0. -1.
         36    2    1    2    0    0  0.00000000000E+00 -0.17763568394E-14 -0.77363060137E+01  0.27498962373E+03  0.27488077912E+03 0.  0.
         25    2    3    3    0    0 -0.16140208438E+02  0.68360254384E+01  0.52263104646E+02  0.13480718249E+03  0.12302157035E+03 0.  0.
         25    2    3    3    0    0  0.16140208438E+02 -0.68360254384E+01 -0.59999410660E+02  0.14018244124E+03  0.12547489781E+03 0.  0.
          5    1    4    4  502    0  0.84335764309E+01 -0.50504468819E+02  0.50723168858E+02  0.72227117076E+02  0.47000000000E+01 0. -1.
         -5    1    4    4    0  502 -0.24573784869E+02  0.57340494257E+02  0.15399357884E+01  0.62580065410E+02  0.47000000000E+01 0. -1.
          5    1    5    5  503    0  0.11669142062E+02  0.46491184372E+01 -0.98539288498E+02  0.99447798148E+02  0.47000000000E+01 0.  1.
         -5    1    5    5    0  503  0.44710663757E+01 -0.11485143876E+02  0.38539877839E+02  0.40734643096E+02  0.47000000000E+01 0.  1.
<mgrwt>
<rscale>  0 0.27488078E+03</rscale>
<asrwt>0</asrwt>
<pdfrwt beam="1">  1        1 0.20557947E-01 0.27488078E+03</pdfrwt>
<pdfrwt beam="2">  1       -1 0.21748149E-01 0.27488078E+03</pdfrwt>
<totfact> 0.43003451E+03</totfact>
</mgrwt>
</event>
<event>
 9    1  0.2094635E-002  0.2753331E+03  0.7818608E-02  0.1098266E+00
          1   -1    0    0  501    0  0.00000000000E+00  0.00000000000E+00  0.30282034273E+03  0.30282034273E+03  0.00000000000E+00 0. -1.
         -1   -1    0    0    0  501 -0.00000000000E+00 -0.00000000000E+00 -0.62585202080E+02  0.62585202080E+02  0.00000000000E+00 0. -1.
         36    2    1    2    0    0  0.71054273576E-14 -0.71054273576E-14  0.24023514065E+03  0.36540554481E+03  0.27533305173E+03 0.  0.
         25    2    3    3    0    0  0.22333407542E+02  0.27920792223E+02  0.53271929866E+02  0.13941713081E+03  0.12377756711E+03 0.  0.
         25    2    3    3    0    0 -0.22333407542E+02 -0.27920792223E+02  0.18696321079E+03  0.22598841401E+03  0.12180791989E+03 0.  0.
          5    1    4    4  502    0  0.26810462855E+02 -0.46634215294E+02  0.22890247532E+02  0.58648140522E+02  0.47000000000E+01 0.  1.
         -5    1    4    4    0  502 -0.44770553128E+01  0.74555007516E+02  0.30381682334E+02  0.80768990284E+02  0.47000000000E+01 0.  1.
          5    1    5    5  503    0 -0.50438684700E+02  0.54196390969E+01  0.17240782707E+03  0.17977759104E+03  0.47000000000E+01 0.  1.
         -5    1    5    5    0  503  0.28105277157E+02 -0.33340431319E+02  0.14555383712E+02  0.46210822971E+02  0.47000000000E+01 0.  1.
<mgrwt>
<rscale>  0 0.27533305E+03</rscale>
<asrwt>0</asrwt>
<pdfrwt beam="1">  1        1 0.46587744E-01 0.27533305E+03</pdfrwt>
<pdfrwt beam="2">  1       -1 0.96284928E-02 0.27533305E+03</pdfrwt>
<totfact> 0.55612835E+03</totfact>
</mgrwt>
</event>
<event>
 9    1  0.2094635E-002  0.2750158E+03  0.7818608E-02  0.1098443E+00
         -2   -1    0    0    0  501 -0.00000000000E+00  0.00000000000E+00  0.41074377203E+02  0.41074377203E+02  0.00000000000E+00 0.  1.
          2   -1    0    0  501    0  0.00000000000E+00 -0.00000000000E+00 -0.46034596294E+03  0.46034596294E+03  0.00000000000E+00 0.  1.
         36    2    1    2    0    0 -0.71054273576E-14  0.00000000000E+00 -0.41927158574E+03  0.50142034015E+03  0.27501580846E+03 0.  0.
         25    2    3    3    0    0 -0.14983348026E+02 -0.75419086736E+01 -0.11459355660E+03  0.16885353273E+03  0.12287575512E+03 0.  0.
         25    2    3    3    0    0  0.14983348026E+02  0.75419086736E+01 -0.30467802914E+03  0.33256680742E+03  0.13225202777E+03 0.  0.
          5    1    4    4  502    0  0.49450989502E+02 -0.32770454027E+01 -0.83061822712E+02  0.96837470958E+02  0.47000000000E+01 0. -1.
         -5    1    4    4    0  502 -0.64434337528E+02 -0.42648632709E+01 -0.31531733886E+02  0.72016061773E+02  0.47000000000E+01 0. -1.
          5    1    5    5  503    0  0.56151219132E+02 -0.38000733159E+02 -0.19868997530E+03  0.20999240799E+03  0.47000000000E+01 0. -1.
         -5    1    5    5    0  503 -0.41167871106E+02  0.45542641832E+02 -0.10598805385E+03  0.12257439943E+03  0.47000000000E+01 0. -1.
<mgrwt>
<rscale>  0 0.27501581E+03</rscale>
<asrwt>0</asrwt>
<pdfrwt beam="1">  1        2 0.70822450E-01 0.27501581E+03</pdfrwt>
<pdfrwt beam="2">  1       -2 0.63191355E-02 0.27501581E+03</pdfrwt>
<totfact> 0.92755826E+03</totfact>
</mgrwt>
</event>
<event>
 9    1  0.2094635E-002  0.2742136E+03  0.7818608E-02  0.1098892E+00
          2   -1    0    0  501    0  0.00000000000E+00  0.00000000000E+00  0.17290039734E+03  0.17290039734E+03  0.00000000000E+00 0. -1.
         -2   -1    0    0    0  501 -0.00000000000E+00 -0.00000000000E+00 -0.10872313200E+03  0.10872313200E+03  0.00000000000E+00 0. -1.
         36    2    1    2    0    0  0.00000000000E+00  0.00000000000E+00  0.64177265342E+02  0.28162352934E+03  0.27421358626E+03 0.  0.
         25    2    3    3    0    0  0.18382062763E+02 -0.52084072383E+02  0.33687030014E+02  0.13802676982E+03  0.12192588884E+03 0.  0.
         25    2    3    3    0    0 -0.18382062763E+02  0.52084072383E+02  0.30490235328E+02  0.14359675952E+03  0.12899505442E+03 0.  0.
          5    1    4    4  502    0  0.20898869667E+02 -0.80186636081E+02 -0.12264622832E+02  0.83899763602E+02  0.47000000000E+01 0. -1.
         -5    1    4    4    0  502 -0.25168069040E+01  0.28102563697E+02  0.45951652846E+02  0.54127006222E+02  0.47000000000E+01 0. -1.
          5    1    5    5  503    0 -0.16990072502E+02  0.78612405890E+02 -0.22918743326E+02  0.83761158773E+02  0.47000000000E+01 0. -1.
         -5    1    5    5    0  503 -0.13919902614E+01 -0.26528333506E+02  0.53408978654E+02  0.59835600744E+02  0.47000000000E+01 0. -1.
<mgrwt>
<rscale>  0 0.27421359E+03</rscale>
<asrwt>0</asrwt>
<pdfrwt beam="1">  1        2 0.26600061E-01 0.27421359E+03</pdfrwt>
<pdfrwt beam="2">  1       -2 0.16726636E-01 0.27421359E+03</pdfrwt>
<totfact> 0.56769749E+03</totfact>
</mgrwt>
</event>
<event>
 9    1  0.2094635E-002  0.2747525E+03  0.7818608E-02  0.1098590E+00
         -1   -1    0    0    0  501 -0.00000000000E+00  0.00000000000E+00  0.12980184842E+02  0.12980184842E+02  0.00000000000E+00 0. -1.
          1   -1    0    0  501    0  0.00000000000E+00 -0.00000000000E+00 -0.14539264699E+04  0.14539264699E+04  0.00000000000E+00 0. -1.
         36    2    1    2    0    0 -0.71054273576E-14  0.14210854715E-13 -0.14409462851E+04  0.14669066548E+04  0.27475250191E+03 0.  0.
         25    2    3    3    0    0  0.53732511050E+02 -0.17924495472E+02 -0.69920850006E+03  0.71256176190E+03  0.12507304942E+03 0.  0.
         25    2    3    3    0    0 -0.53732511050E+02  0.17924495472E+02 -0.74173778502E+03  0.75434489286E+03  0.12511117206E+03 0.  0.
          5    1    4    4  502    0  0.22457449616E+02 -0.66338560822E+02 -0.25073430239E+03  0.26037458034E+03  0.47000000000E+01 0.  1.
         -5    1    4    4    0  502  0.31275061434E+02  0.48414065349E+02 -0.44847419767E+03  0.45218718156E+03  0.47000000000E+01 0.  1.
          5    1    5    5  503    0  0.56331153648E+01 -0.46347662858E+02 -0.33546965018E+03  0.33873561081E+03  0.47000000000E+01 0. -1.
         -5    1    5    5    0  503 -0.59365626414E+02  0.64272158330E+02 -0.40626813484E+03  0.41560928205E+03  0.47000000000E+01 0. -1.
<mgrwt>
<rscale>  0 0.27475250E+03</rscale>
<asrwt>0</asrwt>
<pdfrwt beam="1">  1        1 0.22368101E+00 0.27475250E+03</pdfrwt>
<pdfrwt beam="2">  1       -1 0.19969514E-02 0.27475250E+03</pdfrwt>
<totfact> 0.52777150E+03</totfact>
</mgrwt>
</event>
<event>
 9    1  0.2094635E-002  0.2727930E+03  0.7818608E-02  0.1099692E+00
         -2   -1    0    0    0  501 -0.00000000000E+00  0.00000000000E+00  0.98659235482E+01  0.98659235482E+01  0.00000000000E+00 0. -1.
          2   -1    0    0  501    0  0.00000000000E+00 -0.00000000000E+00 -0.18856830196E+04  0.18856830196E+04  0.00000000000E+00 0. -1.
         36    2    1    2    0    0  0.00000000000E+00 -0.35527136788E-14 -0.18758170960E+04  0.18955489431E+04  0.27279299483E+03 0.  0.
         25    2    3    3    0    0  0.44808394879E+02 -0.28924320823E+02 -0.78392279234E+03  0.79537279771E+03  0.12344445877E+03 0.  0.
         25    2    3    3    0    0 -0.44808394879E+02  0.28924320823E+02 -0.10918943037E+04  0.11001761454E+04  0.12373347132E+03 0.  0.
          5    1    4    4  502    0  0.45646433972E+02 -0.32916662547E+02 -0.13391923272E+03  0.14533944578E+03  0.47000000000E+01 0.  1.
         -5    1    4    4    0  502 -0.83803909373E+00  0.39923417246E+01 -0.65000355962E+03  0.65003335193E+03  0.47000000000E+01 0.  1.
          5    1    5    5  503    0 -0.39671474090E+02 -0.42915186048E+02 -0.62389924844E+03  0.62664814789E+03  0.47000000000E+01 0.  1.
         -5    1    5    5    0  503 -0.51369207881E+01  0.71839506871E+02 -0.46799505526E+03  0.47352799754E+03  0.47000000000E+01 0.  1.
<mgrwt>
<rscale>  0 0.27279299E+03</rscale>
<asrwt>0</asrwt>
<pdfrwt beam="1">  1        2 0.29010489E+00 0.27279299E+03</pdfrwt>
<pdfrwt beam="2">  1       -2 0.15178354E-02 0.27279299E+03</pdfrwt>
<totfact> 0.98921364E+03</totfact>
</mgrwt>
</event>
<event>
 9    1  0.2094635E-002  0.2828157E+03  0.7818608E-02  0.1094161E+00
          4   -1    0    0  501    0  0.00000000000E+00  0.00000000000E+00  0.14355456986E+03  0.14355456986E+03  0.00000000000E+00 0.  1.
         -4   -1    0    0    0  501 -0.00000000000E+00 -0.00000000000E+00 -0.13929323955E+03  0.13929323955E+03  0.00000000000E+00 0.  1.
         36    2    1    2    0    0 -0.71054273576E-14 -0.71054273576E-14  0.42613303169E+01  0.28284780941E+03  0.28281570740E+03 0.  0.
         25    2    3    3    0    0 -0.38261794177E+02 -0.43109540477E+02 -0.13435740639E+02  0.14247991927E+03  0.12960559746E+03 0.  0.
         25    2    3    3    0    0  0.38261794177E+02  0.43109540477E+02  0.17697070956E+02  0.14036789014E+03  0.12675788294E+03 0.  0.
          5    1    4    4  502    0  0.44197583264E+02 -0.33401339715E+02 -0.19935971980E+02  0.59064446496E+02  0.47000000000E+01 0. -1.
         -5    1    4    4    0  502 -0.82459377441E+02 -0.97082007624E+01  0.65002313411E+01  0.83415472770E+02  0.47000000000E+01 0. -1.
          5    1    5    5  503    0  0.98276511709E+01  0.37787445154E+02  0.70070594035E+02  0.80352049676E+02  0.47000000000E+01 0. -1.
         -5    1    5    5    0  503  0.28434143006E+02  0.53220953230E+01 -0.52373523078E+02  0.60015840465E+02  0.47000000000E+01 0. -1.
<mgrwt>
<rscale>  0 0.28281571E+03</rscale>
<asrwt>0</asrwt>
<pdfrwt beam="1">  1        4 0.22085318E-01 0.28281571E+03</pdfrwt>
<pdfrwt beam="2">  1       -4 0.21429729E-01 0.28281571E+03</pdfrwt>
<totfact> 0.70540387E+02</totfact>
</mgrwt>
</event>
<event>
 9    1  0.2094635E-002  0.2813666E+03  0.7818608E-02  0.1094945E+00
         -1   -1    0    0    0  501 -0.00000000000E+00  0.00000000000E+00  0.54237013724E+02  0.54237013724E+02  0.00000000000E+00 0. -1.
          1   -1    0    0  501    0  0.00000000000E+00 -0.00000000000E+00 -0.36491304284E+03  0.36491304284E+03  0.00000000000E+00 0. -1.
         36    2    1    2    0    0 -0.71054273576E-14  0.00000000000E+00 -0.31067602912E+03  0.41915005656E+03  0.28136662000E+03 0.  0.
         25    2    3    3    0    0 -0.52081405784E+02 -0.44546309222E+01 -0.11101496864E+03  0.17533605694E+03  0.12524413374E+03 0.  0.
         25    2    3    3    0    0  0.52081405784E+02  0.44546309222E+01 -0.19966106048E+03  0.24381399962E+03  0.12980142825E+03 0.  0.
          5    1    4    4  502    0  0.84197769127E+01 -0.18576911041E+02  0.20818546709E+02  0.29521113702E+02  0.47000000000E+01 0.  1.
         -5    1    4    4    0  502 -0.60501182697E+02  0.14122280119E+02 -0.13183351535E+03  0.14581494324E+03  0.47000000000E+01 0.  1.
          5    1    5    5  503    0  0.73737556976E+02 -0.43536404673E+02 -0.10690017199E+03  0.13704883294E+03  0.47000000000E+01 0. -1.
         -5    1    5    5    0  503 -0.21656151192E+02  0.47991035596E+02 -0.92760888492E+02  0.10676516668E+03  0.47000000000E+01 0. -1.
<mgrwt>
<rscale>  0 0.28136662E+03</rscale>
<asrwt>0</asrwt>
<pdfrwt beam="1">  1        1 0.56140469E-01 0.28136662E+03</pdfrwt>
<pdfrwt beam="2">  1       -1 0.83441558E-02 0.28136662E+03</pdfrwt>
<totfact> 0.54773593E+03</totfact>
</mgrwt>
</event>
<event>
 9    1  0.2094635E-002  0.2747188E+03  0.7818608E-02  0.1098609E+00
          3   -1    0    0  501    0  0.00000000000E+00  0.00000000000E+00  0.15187511861E+02  0.15187511861E+02  0.00000000000E+00 0. -1.
         -3   -1    0    0    0  501 -0.00000000000E+00 -0.00000000000E+00 -0.12423107142E+04  0.12423107142E+04  0.00000000000E+00 0. -1.
         36    2    1    2    0    0  0.35527136788E-14  0.71054273576E-14 -0.12271232024E+04  0.12574982261E+04  0.27471882868E+03 0.  0.
         25    2    3    3    0    0  0.13309623766E+01 -0.33483391922E+02 -0.77536170171E+03  0.78648315965E+03  0.12746404569E+03 0.  0.
         25    2    3    3    0    0 -0.13309623766E+01  0.33483391922E+02 -0.45176150065E+03  0.47101506643E+03  0.12901096984E+03 0.  0.
          5    1    4    4  502    0 -0.28946508539E+02 -0.17849936694E+02 -0.52039818874E+02  0.62343831652E+02  0.47000000000E+01 0. -1.
         -5    1    4    4    0  502  0.30277470916E+02 -0.15633455227E+02 -0.72332188283E+03  0.72413932800E+03  0.47000000000E+01 0. -1.
          5    1    5    5  503    0  0.57158451234E+02  0.25905189502E+02 -0.13728457945E+03  0.15102090300E+03  0.47000000000E+01 0. -1.
         -5    1    5    5    0  503 -0.58489413610E+02  0.75782024191E+01 -0.31447692121E+03  0.31999416343E+03  0.47000000000E+01 0. -1.
<mgrwt>
<rscale>  0 0.27471883E+03</rscale>
<asrwt>0</asrwt>
<pdfrwt beam="1">  1        3 0.23365408E-02 0.27471883E+03</pdfrwt>
<pdfrwt beam="2">  1       -3 0.19112468E+00 0.27471883E+03</pdfrwt>
<totfact> 0.34365557E+02</totfact>
</mgrwt>
</event>
<event>
 9    1  0.2094635E-002  0.2750220E+03  0.7818608E-02  0.1098439E+00
         -2   -1    0    0    0  501 -0.00000000000E+00  0.00000000000E+00  0.95935562352E+01  0.95935562352E+01  0.00000000000E+00 0.  1.
          2   -1    0    0  501    0  0.00000000000E+00 -0.00000000000E+00 -0.19710391834E+04  0.19710391834E+04  0.00000000000E+00 0.  1.
         36    2    1    2    0    0 -0.71054273576E-14 -0.35527136788E-14 -0.19614456272E+04  0.19806327397E+04  0.27502200092E+03 0.  0.
         25    2    3    3    0    0  0.52668267667E+02  0.19926512569E+02 -0.10935351191E+04  0.11019398153E+04  0.12361750409E+03 0.  0.
         25    2    3    3    0    0 -0.52668267667E+02 -0.19926512569E+02 -0.86791050805E+03  0.87869292442E+03  0.12514628682E+03 0.  0.
          5    1    4    4  502    0  0.57481515262E+02  0.42521320032E+01 -0.10757283471E+04  0.10772816586E+04  0.47000000000E+01 0.  1.
         -5    1    4    4    0  502 -0.48132475955E+01  0.15674380566E+02 -0.17806772053E+02  0.24658156653E+02  0.47000000000E+01 0.  1.
          5    1    5    5  503    0  0.42534480108E+01 -0.43605875642E+02 -0.11350759322E+03  0.12176053518E+03  0.47000000000E+01 0.  1.
         -5    1    5    5    0  503 -0.56921715678E+02  0.23679363073E+02 -0.75440291484E+03  0.75693238923E+03  0.47000000000E+01 0.  1.
<mgrwt>
<rscale>  0 0.27502200E+03</rscale>
<asrwt>0</asrwt>
<pdfrwt beam="1">  1        2 0.30323701E+00 0.27502200E+03</pdfrwt>
<pdfrwt beam="2">  1       -2 0.14759307E-02 0.27502200E+03</pdfrwt>
<totfact> 0.92958812E+03</totfact>
</mgrwt>
</event>
<event>
 9    1  0.2094635E-002  0.2751970E+03  0.7818608E-02  0.1098342E+00
          2   -1    0    0  501    0  0.00000000000E+00  0.00000000000E+00  0.18111039474E+03  0.18111039474E+03  0.00000000000E+00 0.  1.
         -2   -1    0    0    0  501 -0.00000000000E+00 -0.00000000000E+00 -0.10454037221E+03  0.10454037221E+03  0.00000000000E+00 0.  1.
         36    2    1    2    0    0  0.00000000000E+00  0.00000000000E+00  0.76570022527E+02  0.28565076695E+03  0.27519700636E+03 0.  0.
         25    2    3    3    0    0 -0.24848543258E+01  0.55271791319E+02  0.38247103013E+02  0.14107988875E+03  0.12401430846E+03 0.  0.
         25    2    3    3    0    0  0.24848543258E+01 -0.55271791319E+02  0.38322919514E+02  0.14457087820E+03  0.12794900253E+03 0.  0.
          5    1    4    4  502    0  0.26074498330E+02  0.63638555994E+02 -0.23126876471E+02  0.72709612071E+02  0.47000000000E+01 0. -1.
         -5    1    4    4    0  502 -0.28559352656E+02 -0.83667646755E+01  0.61373979483E+02  0.68370276677E+02  0.47000000000E+01 0. -1.
          5    1    5    5  503    0  0.16510861353E+02 -0.33789501089E+02  0.83897189511E+02  0.92060672028E+02  0.47000000000E+01 0.  1.
         -5    1    5    5    0  503 -0.14026007027E+02 -0.21482290230E+02 -0.45574269996E+02  0.52510206173E+02  0.47000000000E+01 0.  1.
<mgrwt>
<rscale>  0 0.27519701E+03</rscale>
<asrwt>0</asrwt>
<pdfrwt beam="1">  1        2 0.27863138E-01 0.27519701E+03</pdfrwt>
<pdfrwt beam="2">  1       -2 0.16083134E-01 0.27519701E+03</pdfrwt>
<totfact> 0.57582280E+03</totfact>
</mgrwt>
</event>
<event>
 9    1  0.2094635E-002  0.2752135E+03  0.7818608E-02  0.1098332E+00
         -2   -1    0    0    0  501 -0.00000000000E+00  0.00000000000E+00  0.20629758203E+02  0.20629758203E+02  0.00000000000E+00 0.  1.
          2   -1    0    0  501    0  0.00000000000E+00 -0.00000000000E+00 -0.91787852152E+03  0.91787852152E+03  0.00000000000E+00 0.  1.
         36    2    1    2    0    0  0.00000000000E+00 -0.35527136788E-14 -0.89724876332E+03  0.93850827972E+03  0.27521345867E+03 0.  0.
         25    2    3    3    0    0  0.42925610250E+01 -0.19494536618E+02 -0.26662128430E+03  0.29405301624E+03  0.12240018006E+03 0.  0.
         25    2    3    3    0    0 -0.42925610250E+01  0.19494536618E+02 -0.63062747901E+03  0.64445526348E+03  0.13127492640E+03 0.  0.
          5    1    4    4  502    0  0.51285738187E+02  0.41310159162E+01 -0.53057329277E+02  0.74057156467E+02  0.47000000000E+01 0.  1.
         -5    1    4    4    0  502 -0.46993177162E+02 -0.23625552534E+02 -0.21356395503E+03  0.21999585978E+03  0.47000000000E+01 0.  1.
          5    1    5    5  503    0 -0.28945760687E+02  0.68653628263E+02 -0.29385859712E+03  0.30319324339E+03  0.47000000000E+01 0. -1.
         -5    1    5    5    0  503  0.24653199662E+02 -0.49159091645E+02 -0.33676888189E+03  0.34126202009E+03  0.47000000000E+01 0. -1.
<mgrwt>
<rscale>  0 0.27521346E+03</rscale>
<asrwt>0</asrwt>
<pdfrwt beam="1">  1        2 0.14121208E+00 0.27521346E+03</pdfrwt>
<pdfrwt beam="2">  1       -2 0.31738090E-02 0.27521346E+03</pdfrwt>
<totfact> 0.11483789E+04</totfact>
</mgrwt>
</event>
<event>
 9    1  0.2094635E-002  0.2891030E+03  0.7818608E-02  0.1090818E+00
         -1   -1    0    0    0  501 -0.00000000000E+00  0.00000000000E+00  0.16476207533E+02  0.16476207533E+02  0.00000000000E+00 0. -1.
          1   -1    0    0  501    0  0.00000000000E+00 -0.00000000000E+00 -0.12682002865E+04  0.12682002865E+04  0.00000000000E+00 0. -1.
         36    2    1    2    0    0 -0.35527136788E-14 -0.71054273576E-14 -0.12517240790E+04  0.12846764940E+04  0.28910296514E+03 0.  0.
         25    2    3    3    0    0 -0.29926699853E+02 -0.29124041494E+02 -0.98392739794E+03  0.99241692071E+03  0.12261485613E+03 0.  0.
         25    2    3    3    0    0  0.29926699853E+02  0.29124041494E+02 -0.26779668104E+03  0.29225957333E+03  0.10934705607E+03 0.  0.
          5    1    4    4  502    0 -0.53563291765E+02  0.29463386607E+01 -0.19019112289E+03  0.19766755010E+03  0.47000000000E+01 0.  1.
         -5    1    4    4    0  502  0.23636591912E+02 -0.32070380155E+02 -0.79373627505E+03  0.79474937062E+03  0.47000000000E+01 0.  1.
          5    1    5    5  503    0  0.14334389156E+02  0.68589275987E+02 -0.12690143239E+03  0.14503801927E+03  0.47000000000E+01 0. -1.
         -5    1    5    5    0  503  0.15592310697E+02 -0.39465234493E+02 -0.14089524865E+03  0.14722155406E+03  0.47000000000E+01 0. -1.
<mgrwt>
<rscale>  0 0.28910297E+03</rscale>
<asrwt>0</asrwt>
<pdfrwt beam="1">  1        1 0.19510772E+00 0.28910297E+03</pdfrwt>
<pdfrwt beam="2">  1       -1 0.25348014E-02 0.28910297E+03</pdfrwt>
<totfact> 0.49715247E+03</totfact>
</mgrwt>
</event>
<event>
 9    1  0.2094635E-002  0.2727245E+03  0.7818608E-02  0.1099730E+00
          2   -1    0    0  501    0  0.00000000000E+00  0.00000000000E+00  0.14325656105E+04  0.14325656105E+04  0.00000000000E+00 0. -1.
         -2   -1    0    0    0  501 -0.00000000000E+00 -0.00000000000E+00 -0.12979975599E+02  0.12979975599E+02  0.00000000000E+00 0. -1.
         36    2    1    2    0    0  0.00000000000E+00  0.35527136788E-14  0.14195856349E+04  0.14455455861E+04  0.27272452525E+03 0.  0.
         25    2    3    3    0    0  0.91513633485E+01  0.20150630530E+02  0.51554679442E+03  0.53085260555E+03  0.12460415809E+03 0.  0.
         25    2    3    3    0    0 -0.91513633485E+01 -0.20150630530E+02  0.90403884043E+03  0.91469298051E+03  0.13743081248E+03 0.  0.
          5    1    4    4  502    0 -0.74495433538E+01 -0.19561981407E+02  0.10378512961E+02  0.23832128399E+02  0.47000000000E+01 0.  1.
         -5    1    4    4    0  502  0.16600906702E+02  0.39712611937E+02  0.50516828146E+03  0.50702047715E+03  0.47000000000E+01 0.  1.
          5    1    5    5  503    0 -0.40283997896E+02  0.24417110800E+02  0.12370905152E+03  0.13245759780E+03  0.47000000000E+01 0. -1.
         -5    1    5    5    0  503  0.31132634548E+02 -0.44567741330E+02  0.78032978891E+03  0.78223538271E+03  0.47000000000E+01 0. -1.
<mgrwt>
<rscale>  0 0.27272453E+03</rscale>
<asrwt>0</asrwt>
<pdfrwt beam="1">  1        2 0.22039458E+00 0.27272453E+03</pdfrwt>
<pdfrwt beam="2">  1       -2 0.19969205E-02 0.27272453E+03</pdfrwt>
<totfact> 0.11490653E+04</totfact>
</mgrwt>
</event>
<event>
 9    1  0.2094635E-002  0.2748329E+03  0.7818608E-02  0.1098545E+00
         -2   -1    0    0    0  501 -0.00000000000E+00  0.00000000000E+00  0.27371697792E+03  0.27371697792E+03  0.00000000000E+00 0.  1.
          2   -1    0    0  501    0  0.00000000000E+00 -0.00000000000E+00 -0.68988339160E+02  0.68988339160E+02  0.00000000000E+00 0.  1.
         36    2    1    2    0    0  0.71054273576E-14  0.35527136788E-14  0.20472863876E+03  0.34270531708E+03  0.27483289255E+03 0.  0.
         25    2    3    3    0    0  0.10362766452E+02  0.65964752815E+01  0.31152734182E+02  0.12766302442E+03  0.12319275361E+03 0.  0.
         25    2    3    3    0    0 -0.10362766452E+02 -0.65964752815E+01  0.17357590458E+03  0.21504229266E+03  0.12634750717E+03 0.  0.
          5    1    4    4  502    0  0.58061294775E+02  0.18317785664E+02  0.45643819362E+02  0.76237152810E+02  0.47000000000E+01 0. -1.
         -5    1    4    4    0  502 -0.47698528323E+02 -0.11721310383E+02 -0.14491085180E+02  0.51425871611E+02  0.47000000000E+01 0. -1.
          5    1    5    5  503    0 -0.46565182050E+02  0.32925638304E+02  0.14094387862E+03  0.15211732563E+03  0.47000000000E+01 0. -1.
         -5    1    5    5    0  503  0.36202415597E+02 -0.39522113585E+02  0.32632025957E+02  0.62924967027E+02  0.47000000000E+01 0. -1.
<mgrwt>
<rscale>  0 0.27483289E+03</rscale>
<asrwt>0</asrwt>
<pdfrwt beam="1">  1        2 0.10613591E-01 0.27483289E+03</pdfrwt>
<pdfrwt beam="2">  1       -2 0.42110304E-01 0.27483289E+03</pdfrwt>
<totfact> 0.31945438E+03</totfact>
</mgrwt>
</event>
<event>
 9    1  0.2094635E-002  0.2753107E+03  0.7818608E-02  0.1098278E+00
         -2   -1    0    0    0  501 -0.00000000000E+00  0.00000000000E+00  0.16348433967E+02  0.16348433967E+02  0.00000000000E+00 0.  1.
          2   -1    0    0  501    0  0.00000000000E+00 -0.00000000000E+00 -0.11590712809E+04  0.11590712809E+04  0.00000000000E+00 0.  1.
         36    2    1    2    0    0  0.00000000000E+00  0.14210854715E-13 -0.11427228469E+04  0.11754197149E+04  0.27531073571E+03 0.  0.
         25    2    3    3    0    0 -0.15557016190E+02  0.68970236678E+02 -0.65613624999E+03  0.67135629380E+03  0.12331090939E+03 0.  0.
         25    2    3    3    0    0  0.15557016190E+02 -0.68970236678E+02 -0.48658659693E+03  0.50406342106E+03  0.11097072512E+03 0.  0.
          5    1    4    4  502    0  0.29827514436E+02 -0.13658554722E+02 -0.67462621919E+02  0.75163369341E+02  0.47000000000E+01 0. -1.
         -5    1    4    4    0  502 -0.45384530627E+02  0.82628791400E+02 -0.58867362807E+03  0.59619292445E+03  0.47000000000E+01 0. -1.
          5    1    5    5  503    0  0.29416850427E+02 -0.89817802549E+02 -0.27242110708E+03  0.28838851975E+03  0.47000000000E+01 0.  1.
         -5    1    5    5    0  503 -0.13859834237E+02  0.20847565871E+02 -0.21416548986E+03  0.21567490131E+03  0.47000000000E+01 0.  1.
<mgrwt>
<rscale>  0 0.27531074E+03</rscale>
<asrwt>0</asrwt>
<pdfrwt beam="1">  1        2 0.17831870E+00 0.27531074E+03</pdfrwt>
<pdfrwt beam="2">  1       -2 0.25151432E-02 0.27531074E+03</pdfrwt>
<totfact> 0.11601401E+04</totfact>
</mgrwt>
</event>
<event>
 9    1  0.2094635E-002  0.2751296E+03  0.7818608E-02  0.1098379E+00
         -1   -1    0    0    0  501 -0.00000000000E+00  0.00000000000E+00  0.19786912316E+02  0.19786912316E+02  0.00000000000E+00 0.  1.
          1   -1    0    0  501    0  0.00000000000E+00 -0.00000000000E+00 -0.95639382080E+03  0.95639382080E+03  0.00000000000E+00 0.  1.
         36    2    1    2    0    0 -0.17763568394E-14  0.00000000000E+00 -0.93660690848E+03  0.97618073311E+03  0.27512964705E+03 0.  0.
         25    2    3    3    0    0 -0.14294440833E+01 -0.32757900301E+02 -0.31247585383E+03  0.33850332192E+03  0.12596910884E+03 0.  0.
         25    2    3    3    0    0  0.14294440833E+01  0.32757900301E+02 -0.62413105465E+03  0.63767741119E+03  0.12656138441E+03 0.  0.
          5    1    4    4  502    0 -0.38524542885E+02 -0.27232889485E+02 -0.29139006583E+03  0.29522200314E+03  0.47000000000E+01 0.  1.
         -5    1    4    4    0  502  0.37095098802E+02 -0.55250108164E+01 -0.21085787997E+02  0.43281318777E+02  0.47000000000E+01 0.  1.
          5    1    5    5  503    0  0.16621946786E+02 -0.36549008669E+02 -0.41129780643E+03  0.41327968100E+03  0.47000000000E+01 0. -1.
         -5    1    5    5    0  503 -0.15192502703E+02  0.69306908970E+02 -0.21283324822E+03  0.22439773020E+03  0.47000000000E+01 0. -1.
<mgrwt>
<rscale>  0 0.27512965E+03</rscale>
<asrwt>0</asrwt>
<pdfrwt beam="1">  1        1 0.14713752E+00 0.27512965E+03</pdfrwt>
<pdfrwt beam="2">  1       -1 0.30441402E-02 0.27512965E+03</pdfrwt>
<totfact> 0.63653944E+03</totfact>
</mgrwt>
</event>
<event>
 9    1  0.2094635E-002  0.2752613E+03  0.7818608E-02  0.1098306E+00
         -2   -1    0    0    0  501 -0.00000000000E+00  0.00000000000E+00  0.28864494651E+02  0.28864494651E+02  0.00000000000E+00 0. -1.
          2   -1    0    0  501    0  0.00000000000E+00 -0.00000000000E+00 -0.65624573217E+03  0.65624573217E+03  0.00000000000E+00 0. -1.
         36    2    1    2    0    0 -0.71054273576E-14  0.71054273576E-14 -0.62738123752E+03  0.68511022682E+03  0.27526134074E+03 0.  0.
         25    2    3    3    0    0  0.33855530105E+02 -0.36169239025E+02 -0.37419565647E+03  0.39803004899E+03  0.12629774268E+03 0.  0.
         25    2    3    3    0    0 -0.33855530105E+02  0.36169239025E+02 -0.25318558104E+03  0.28708017783E+03  0.12592727776E+03 0.  0.
          5    1    4    4  502    0  0.50736108706E+02 -0.54737909583E+02 -0.11247501050E+03  0.13506705542E+03  0.47000000000E+01 0. -1.
         -5    1    4    4    0  502 -0.16880578601E+02  0.18568670558E+02 -0.26172064597E+03  0.26296299357E+03  0.47000000000E+01 0. -1.
          5    1    5    5  503    0 -0.40438563975E+02  0.27925239157E+02 -0.19452774220E+02  0.53062198062E+02  0.47000000000E+01 0.  1.
         -5    1    5    5    0  503  0.65830338703E+01  0.82439998685E+01 -0.23373280682E+03  0.23401797977E+03  0.47000000000E+01 0.  1.
<mgrwt>
<rscale>  0 0.27526134E+03</rscale>
<asrwt>0</asrwt>
<pdfrwt beam="1">  1        2 0.10096088E+00 0.27526134E+03</pdfrwt>
<pdfrwt beam="2">  1       -2 0.44406916E-02 0.27526134E+03</pdfrwt>
<totfact> 0.10595445E+04</totfact>
</mgrwt>
</event>
<event>
 9    1  0.2094635E-002  0.2730344E+03  0.7818608E-02  0.1099555E+00
         -1   -1    0    0    0  501 -0.00000000000E+00  0.00000000000E+00  0.70590156136E+02  0.70590156136E+02  0.00000000000E+00 0.  1.
          1   -1    0    0  501    0  0.00000000000E+00 -0.00000000000E+00 -0.26401621935E+03  0.26401621935E+03  0.00000000000E+00 0.  1.
         36    2    1    2    0    0  0.00000000000E+00 -0.35527136788E-14 -0.19342606321E+03  0.33460637548E+03  0.27303440183E+03 0.  0.
         25    2    3    3    0    0 -0.27671035943E+02  0.20214598776E+02 -0.42981389714E+02  0.13671685963E+03  0.12517900627E+03 0.  0.
         25    2    3    3    0    0  0.27671035943E+02 -0.20214598776E+02 -0.15044467350E+03  0.19788951585E+03  0.12390457807E+03 0.  0.
          5    1    4    4  502    0 -0.73421331755E+02 -0.86181125256E+01 -0.14736223578E+02  0.75526221311E+02  0.47000000000E+01 0.  1.
         -5    1    4    4    0  502  0.45750295813E+02  0.28832711302E+02 -0.28245166136E+02  0.61190638320E+02  0.47000000000E+01 0.  1.
          5    1    5    5  503    0  0.61558920966E+02  0.26213218380E+02 -0.10441187181E+03  0.12409900299E+03  0.47000000000E+01 0. -1.
         -5    1    5    5    0  503 -0.33887885023E+02 -0.46427817156E+02 -0.46032801691E+02  0.73790512864E+02  0.47000000000E+01 0. -1.
<mgrwt>
<rscale>  0 0.27303440E+03</rscale>
<asrwt>0</asrwt>
<pdfrwt beam="1">  1        1 0.40617880E-01 0.27303440E+03</pdfrwt>
<pdfrwt beam="2">  1       -1 0.10860024E-01 0.27303440E+03</pdfrwt>
<totfact> 0.54822056E+03</totfact>
</mgrwt>
</event>
<event>
 9    1  0.2094635E-002  0.2698636E+03  0.7818608E-02  0.1101358E+00
         -1   -1    0    0    0  501 -0.00000000000E+00  0.00000000000E+00  0.19250316089E+02  0.19250316089E+02  0.00000000000E+00 0.  1.
          1   -1    0    0  501    0  0.00000000000E+00 -0.00000000000E+00 -0.94578122755E+03  0.94578122755E+03  0.00000000000E+00 0.  1.
         36    2    1    2    0    0  0.71054273576E-14 -0.17763568394E-14 -0.92653091146E+03  0.96503154364E+03  0.26986357725E+03 0.  0.
         25    2    3    3    0    0 -0.22089077479E+02  0.16580767163E+01 -0.29027790260E+03  0.31630241738E+03  0.12367409568E+03 0.  0.
         25    2    3    3    0    0  0.22089077479E+02 -0.16580767163E+01 -0.63625300886E+03  0.64872912626E+03  0.12466319187E+03 0.  0.
          5    1    4    4  502    0 -0.32386437113E+02 -0.22016879510E+02 -0.19039317938E+02  0.43797373434E+02  0.47000000000E+01 0.  1.
         -5    1    4    4    0  502  0.10297359633E+02  0.23674956227E+02 -0.27123858466E+03  0.27250504395E+03  0.47000000000E+01 0.  1.
          5    1    5    5  503    0 -0.16721931226E+02  0.91241457367E+01 -0.57459403596E+03  0.57492892533E+03  0.47000000000E+01 0. -1.
         -5    1    5    5    0  503  0.38811008705E+02 -0.10782222453E+02 -0.61658972903E+02  0.73800200930E+02  0.47000000000E+01 0. -1.
<mgrwt>
<rscale>  0 0.26986358E+03</rscale>
<asrwt>0</asrwt>
<pdfrwt beam="1">  1        1 0.14550478E+00 0.26986358E+03</pdfrwt>
<pdfrwt beam="2">  1       -1 0.29615876E-02 0.26986358E+03</pdfrwt>
<totfact> 0.67510348E+03</totfact>
</mgrwt>
</event>
<event>
 9    1  0.2094635E-002  0.2759591E+03  0.7818608E-02  0.1097917E+00
          1   -1    0    0  501    0  0.00000000000E+00  0.00000000000E+00  0.54372696786E+02  0.54372696786E+02  0.00000000000E+00 0. -1.
         -1   -1    0    0    0  501 -0.00000000000E+00 -0.00000000000E+00 -0.35014554316E+03  0.35014554316E+03  0.00000000000E+00 0. -1.
         36    2    1    2    0    0 -0.14210854715E-13  0.00000000000E+00 -0.29577284638E+03  0.40451823995E+03  0.27595910892E+03 0.  0.
         25    2    3    3    0    0 -0.46109520588E+02 -0.30046992042E+02 -0.10390263065E+03  0.17172873440E+03  0.12516425985E+03 0.  0.
         25    2    3    3    0    0  0.46109520588E+02  0.30046992042E+02 -0.19187021573E+03  0.23278950554E+03  0.11978257214E+03 0.  0.
          5    1    4    4  502    0 -0.68117041329E+01  0.27145867401E+02 -0.97886487543E+02  0.10191737768E+03  0.47000000000E+01 0.  1.
         -5    1    4    4    0  502 -0.39297816455E+02 -0.57192859443E+02 -0.60161431076E+01  0.69811356721E+02  0.47000000000E+01 0.  1.
          5    1    5    5  503    0  0.14253105474E+02  0.32687818395E+02 -0.19684077074E+03  0.20010003377E+03  0.47000000000E+01 0. -1.
         -5    1    5    5    0  503  0.31856415114E+02 -0.26408263534E+01  0.49705550182E+01  0.32689471775E+02  0.47000000000E+01 0. -1.
<mgrwt>
<rscale>  0 0.27595911E+03</rscale>
<asrwt>0</asrwt>
<pdfrwt beam="1">  1        1 0.83650300E-02 0.27595911E+03</pdfrwt>
<pdfrwt beam="2">  1       -1 0.53868547E-01 0.27595911E+03</pdfrwt>
<totfact> 0.29123871E+03</totfact>
</mgrwt>
</event>
<event>
 9    1  0.2094635E-002  0.2745077E+03  0.7818608E-02  0.1098727E+00
          1   -1    0    0  501    0  0.00000000000E+00  0.00000000000E+00  0.15418512087E+04  0.15418512087E+04  0.00000000000E+00 0.  1.
         -1   -1    0    0    0  501 -0.00000000000E+00 -0.00000000000E+00 -0.12218184687E+02  0.12218184687E+02  0.00000000000E+00 0.  1.
         36    2    1    2    0    0  0.00000000000E+00  0.00000000000E+00  0.15296330240E+04  0.15540693934E+04  0.27450772542E+03 0.  0.
         25    2    3    3    0    0  0.19762838452E+02 -0.54185645220E+02  0.75828851467E+03  0.77089440005E+03  0.12629350978E+03 0.  0.
         25    2    3    3    0    0 -0.19762838452E+02  0.54185645220E+02  0.77134450933E+03  0.78317499332E+03  0.12273574935E+03 0.  0.
          5    1    4    4  502    0  0.41466767064E+02  0.48792948034E+01  0.58443560624E+03  0.58594399743E+03  0.47000000000E+01 0. -1.
         -5    1    4    4    0  502 -0.21703928613E+02 -0.59064940024E+02  0.17385290843E+03  0.18495040262E+03  0.47000000000E+01 0. -1.
          5    1    5    5  503    0  0.95586159511E+01  0.20700436051E+02  0.68949684104E+03  0.68988974408E+03  0.47000000000E+01 0.  1.
         -5    1    5    5    0  503 -0.29321454403E+02  0.33485209169E+02  0.81847668288E+02  0.93285249239E+02  0.47000000000E+01 0.  1.
<mgrwt>
<rscale>  0 0.27450773E+03</rscale>
<asrwt>0</asrwt>
<pdfrwt beam="1">  1        1 0.23720772E+00 0.27450773E+03</pdfrwt>
<pdfrwt beam="2">  1       -1 0.18797219E-02 0.27450773E+03</pdfrwt>
<totfact> 0.50411491E+03</totfact>
</mgrwt>
</event>
<event>
 9    1  0.2094635E-002  0.2764342E+03  0.7818608E-02  0.1097653E+00
         -2   -1    0    0    0  501 -0.00000000000E+00  0.00000000000E+00  0.57722696681E+03  0.57722696681E+03  0.00000000000E+00 0.  1.
          2   -1    0    0  501    0  0.00000000000E+00 -0.00000000000E+00 -0.33096116610E+02  0.33096116610E+02  0.00000000000E+00 0.  1.
         36    2    1    2    0    0  0.00000000000E+00  0.00000000000E+00  0.54413085020E+03  0.61032308342E+03  0.27643423091E+03 0.  0.
         25    2    3    3    0    0 -0.20922587790E+02 -0.12771261504E+01  0.40395240531E+03  0.42358628232E+03  0.12573148801E+03 0.  0.
         25    2    3    3    0    0  0.20922587790E+02  0.12771261504E+01  0.14017844489E+03  0.18673680111E+03  0.12157816722E+03 0.  0.
          5    1    4    4  502    0  0.18600744046E+02  0.53701226793E+02  0.14298839055E+03  0.15394018082E+03  0.47000000000E+01 0. -1.
         -5    1    4    4    0  502 -0.39523331836E+02 -0.54978352943E+02  0.26096401477E+03  0.26964610150E+03  0.47000000000E+01 0. -1.
          5    1    5    5  503    0  0.54834431877E+02 -0.16265732526E+02  0.20358444737E+02  0.60892899799E+02  0.47000000000E+01 0. -1.
         -5    1    5    5    0  503 -0.33911844086E+02  0.17542858677E+02  0.11982000015E+03  0.12584390131E+03  0.47000000000E+01 0. -1.
<mgrwt>
<rscale>  0 0.27643423E+03</rscale>
<asrwt>0</asrwt>
<pdfrwt beam="1">  1        2 0.50917107E-02 0.27643423E+03</pdfrwt>
<pdfrwt beam="2">  1       -2 0.88804141E-01 0.27643423E+03</pdfrwt>
<totfact> 0.17274074E+03</totfact>
</mgrwt>
</event>
<event>
 9    1  0.2094635E-002  0.2748030E+03  0.7818608E-02  0.1098562E+00
          2   -1    0    0  501    0  0.00000000000E+00  0.00000000000E+00  0.88190843521E+03  0.88190843521E+03  0.00000000000E+00 0.  1.
         -2   -1    0    0    0  501 -0.00000000000E+00 -0.00000000000E+00 -0.21407185971E+02  0.21407185971E+02  0.00000000000E+00 0.  1.
         36    2    1    2    0    0  0.00000000000E+00  0.71054273576E-14  0.86050124924E+03  0.90331562118E+03  0.27480304134E+03 0.  0.
         25    2    3    3    0    0  0.59560282389E+02  0.14191064324E+02  0.46065519575E+03  0.48129677585E+03  0.12527794512E+03 0.  0.
         25    2    3    3    0    0 -0.59560282389E+02 -0.14191064324E+02  0.39984605350E+03  0.42201884533E+03  0.12030887654E+03 0.  0.
          5    1    4    4  502    0  0.42574362087E+02 -0.39399008470E+02  0.95694290508E+02  0.11200154200E+03  0.47000000000E+01 0. -1.
         -5    1    4    4    0  502  0.16985920302E+02  0.53590072795E+02  0.36496090524E+03  0.36929523385E+03  0.47000000000E+01 0. -1.
          5    1    5    5  503    0 -0.69904013553E+02 -0.47698405271E+02  0.35456161194E+03  0.36455141701E+03  0.47000000000E+01 0.  1.
         -5    1    5    5    0  503  0.10343731164E+02  0.33507340947E+02  0.45284441552E+02  0.57467428326E+02  0.47000000000E+01 0.  1.
<mgrwt>
<rscale>  0 0.27480304E+03</rscale>
<asrwt>0</asrwt>
<pdfrwt beam="1">  1        2 0.13567819E+00 0.27480304E+03</pdfrwt>
<pdfrwt beam="2">  1       -2 0.32934139E-02 0.27480304E+03</pdfrwt>
<totfact> 0.11463909E+04</totfact>
</mgrwt>
</event>
<event>
 9    1  0.2094635E-002  0.2751587E+03  0.7818608E-02  0.1098363E+00
         -2   -1    0    0    0  501 -0.00000000000E+00  0.00000000000E+00  0.91543777209E+01  0.91543777209E+01  0.00000000000E+00 0. -1.
          2   -1    0    0  501    0  0.00000000000E+00 -0.00000000000E+00 -0.20676530536E+04  0.20676530536E+04  0.00000000000E+00 0. -1.
         36    2    1    2    0    0  0.00000000000E+00  0.00000000000E+00 -0.20584986759E+04  0.20768074313E+04  0.27515869638E+03 0.  0.
         25    2    3    3    0    0  0.42857440862E+01  0.41080465665E+02 -0.13004054191E+04  0.13074293298E+04  0.12888454559E+03 0.  0.
         25    2    3    3    0    0 -0.42857440862E+01 -0.41080465665E+02 -0.75809325677E+03  0.76937810153E+03  0.12462465603E+03 0.  0.
          5    1    4    4  502    0 -0.27559617907E+02 -0.21443124408E+02 -0.12358111600E+03  0.12850572888E+03  0.47000000000E+01 0. -1.
         -5    1    4    4    0  502  0.31845361994E+02  0.62523590073E+02 -0.11768243031E+04  0.11789236009E+04  0.47000000000E+01 0. -1.
          5    1    5    5  503    0 -0.53793544576E+02 -0.37626825222E+02 -0.60031575100E+03  0.60391275389E+03  0.47000000000E+01 0. -1.
         -5    1    5    5    0  503  0.49507800489E+02 -0.34536404431E+01 -0.15777750577E+03  0.16546534764E+03  0.47000000000E+01 0. -1.
<mgrwt>
<rscale>  0 0.27515870E+03</rscale>
<asrwt>0</asrwt>
<pdfrwt beam="1">  1        2 0.31810087E+00 0.27515870E+03</pdfrwt>
<pdfrwt beam="2">  1       -2 0.14083640E-02 0.27515870E+03</pdfrwt>
<totfact> 0.88545966E+03</totfact>
</mgrwt>
</event>
<event>
 9    1  0.2094635E-002  0.2750061E+03  0.7818608E-02  0.1098448E+00
          2   -1    0    0  501    0  0.00000000000E+00  0.00000000000E+00  0.70064583486E+02  0.70064583486E+02  0.00000000000E+00 0. -1.
         -2   -1    0    0    0  501 -0.00000000000E+00 -0.00000000000E+00 -0.26985226391E+03  0.26985226391E+03  0.00000000000E+00 0. -1.
         36    2    1    2    0    0  0.00000000000E+00  0.35527136788E-14 -0.19978768042E+03  0.33991684740E+03  0.27500608338E+03 0.  0.
         25    2    3    3    0    0 -0.24500858574E+02  0.26088607284E+02 -0.35877705543E+02  0.13048910526E+03  0.12024678513E+03 0.  0.
         25    2    3    3    0    0  0.24500858574E+02 -0.26088607284E+02 -0.16390997488E+03  0.20942774214E+03  0.12534987759E+03 0.  0.
          5    1    4    4  502    0 -0.15697460560E+02  0.24905204026E+01 -0.78787536335E+02  0.80511979492E+02  0.47000000000E+01 0. -1.
         -5    1    4    4    0  502 -0.88033980139E+01  0.23598086882E+02  0.42909830792E+02  0.49977125765E+02  0.47000000000E+01 0. -1.
          5    1    5    5  503    0  0.39067244436E+02  0.31355279130E+02 -0.13347225697E+03  0.14264058503E+03  0.47000000000E+01 0.  1.
         -5    1    5    5    0  503 -0.14566385862E+02 -0.57443886414E+02 -0.30437717914E+02  0.66787157113E+02  0.47000000000E+01 0.  1.
<mgrwt>
<rscale>  0 0.27500608E+03</rscale>
<asrwt>0</asrwt>
<pdfrwt beam="1">  1        2 0.10779167E-01 0.27500608E+03</pdfrwt>
<pdfrwt beam="2">  1       -2 0.41515733E-01 0.27500608E+03</pdfrwt>
<totfact> 0.32212272E+03</totfact>
</mgrwt>
</event>
<event>
 9    1  0.2094635E-002  0.2777921E+03  0.7818608E-02  0.1096901E+00
          4   -1    0    0  501    0  0.00000000000E+00  0.00000000000E+00  0.35694908256E+02  0.35694908256E+02  0.00000000000E+00 0.  1.
         -4   -1    0    0    0  501 -0.00000000000E+00 -0.00000000000E+00 -0.54047254847E+03  0.54047254847E+03  0.00000000000E+00 0.  1.
         36    2    1    2    0    0  0.00000000000E+00  0.00000000000E+00 -0.50477764022E+03  0.57616745673E+03  0.27779213835E+03 0.  0.
         25    2    3    3    0    0 -0.27003260746E+02 -0.16873555683E+02 -0.36407008568E+03  0.38659671488E+03  0.12607973547E+03 0.  0.
         25    2    3    3    0    0  0.27003260746E+02  0.16873555683E+02 -0.14070755453E+03  0.18957074185E+03  0.12298193887E+03 0.  0.
          5    1    4    4  502    0 -0.48326375391E+02  0.47518697853E+01 -0.46024474623E+02  0.67069822493E+02  0.47000000000E+01 0. -1.
         -5    1    4    4    0  502  0.21323114645E+02 -0.21625425468E+02 -0.31804561106E+03  0.31952689239E+03  0.47000000000E+01 0. -1.
          5    1    5    5  503    0 -0.20752674543E+02 -0.44221631884E+02 -0.48467400000E+02  0.68973945008E+02  0.47000000000E+01 0.  1.
         -5    1    5    5    0  503  0.47755935289E+02  0.61095187567E+02 -0.92240154532E+02  0.12059679684E+03  0.47000000000E+01 0.  1.
<mgrwt>
<rscale>  0 0.27779214E+03</rscale>
<asrwt>0</asrwt>
<pdfrwt beam="1">  1        4 0.54915247E-02 0.27779214E+03</pdfrwt>
<pdfrwt beam="2">  1       -4 0.83149617E-01 0.27779214E+03</pdfrwt>
<totfact> 0.50116196E+02</totfact>
</mgrwt>
</event>
<event>
 9    1  0.2094635E-002  0.2719795E+03  0.7818608E-02  0.1100152E+00
         -1   -1    0    0    0  501 -0.00000000000E+00  0.00000000000E+00  0.23808626573E+02  0.23808626573E+02  0.00000000000E+00 0. -1.
          1   -1    0    0  501    0  0.00000000000E+00 -0.00000000000E+00 -0.77674438903E+03  0.77674438903E+03  0.00000000000E+00 0. -1.
         36    2    1    2    0    0 -0.14210854715E-13  0.00000000000E+00 -0.75293576246E+03  0.80055301560E+03  0.27197953674E+03 0.  0.
         25    2    3    3    0    0 -0.71032285996E+02 -0.14197154846E+01 -0.46420291872E+03  0.48574737806E+03  0.12417151163E+03 0.  0.
         25    2    3    3    0    0  0.71032285996E+02  0.14197154846E+01 -0.28873284374E+03  0.31480563754E+03  0.10338439500E+03 0.  0.
          5    1    4    4  502    0  0.27003273978E+02 -0.28011231972E+02 -0.17027383877E+03  0.17472571674E+03  0.47000000000E+01 0.  1.
         -5    1    4    4    0  502 -0.98035559974E+02  0.26591516488E+02 -0.29392907996E+03  0.31102166132E+03  0.47000000000E+01 0.  1.
          5    1    5    5  503    0  0.73998875548E+02 -0.57967649372E+01 -0.29468435254E+03  0.30392498038E+03  0.47000000000E+01 0. -1.
         -5    1    5    5    0  503 -0.29665895525E+01  0.72164804218E+01  0.59515088037E+01  0.10880657163E+02  0.47000000000E+01 0. -1.
<mgrwt>
<rscale>  0 0.27197954E+03</rscale>
<asrwt>0</asrwt>
<pdfrwt beam="1">  1        1 0.11949916E+00 0.27197954E+03</pdfrwt>
<pdfrwt beam="2">  1       -1 0.36628649E-02 0.27197954E+03</pdfrwt>
<totfact> 0.67454460E+03</totfact>
</mgrwt>
</event>
<event>
 9    1  0.2094635E-002  0.2834225E+03  0.7818608E-02  0.1093834E+00
          2   -1    0    0  501    0  0.00000000000E+00  0.00000000000E+00  0.17115654043E+04  0.17115654043E+04  0.00000000000E+00 0. -1.
         -2   -1    0    0    0  501 -0.00000000000E+00 -0.00000000000E+00 -0.11733165439E+02  0.11733165439E+02  0.00000000000E+00 0. -1.
         36    2    1    2    0    0  0.00000000000E+00  0.00000000000E+00  0.16998322389E+04  0.17232985698E+04  0.28342251179E+03 0.  0.
         25    2    3    3    0    0 -0.18650376262E+01  0.70166293517E+02  0.91242978067E+03  0.92312924151E+03  0.12129593875E+03 0.  0.
         25    2    3    3    0    0  0.18650376262E+01 -0.70166293517E+02  0.78740245823E+03  0.80016932827E+03  0.12386095256E+03 0.  0.
          5    1    4    4  502    0  0.28959940086E+02 -0.45986924678E+01  0.60898615122E+02  0.67753652492E+02  0.47000000000E+01 0.  1.
         -5    1    4    4    0  502 -0.30824977712E+02  0.74764985985E+02  0.85153116555E+03  0.85537558901E+03  0.47000000000E+01 0.  1.
          5    1    5    5  503    0 -0.20774847324E+02 -0.76419743829E+02  0.75847200319E+03  0.76260962566E+03  0.47000000000E+01 0. -1.
         -5    1    5    5    0  503  0.22639884950E+02  0.62534503119E+01  0.28930455038E+02  0.37559702609E+02  0.47000000000E+01 0. -1.
<mgrwt>
<rscale>  0 0.28342251E+03</rscale>
<asrwt>0</asrwt>
<pdfrwt beam="1">  1        2 0.26331756E+00 0.28342251E+03</pdfrwt>
<pdfrwt beam="2">  1       -2 0.18051037E-02 0.28342251E+03</pdfrwt>
<totfact> 0.94765865E+03</totfact>
</mgrwt>
</event>
<event>
 9    1  0.2094635E-002  0.2756568E+03  0.7818608E-02  0.1098085E+00
         -2   -1    0    0    0  501 -0.00000000000E+00  0.00000000000E+00  0.16786574626E+03  0.16786574626E+03  0.00000000000E+00 0. -1.
          2   -1    0    0  501    0  0.00000000000E+00 -0.00000000000E+00 -0.11316581695E+03  0.11316581695E+03  0.00000000000E+00 0. -1.
         36    2    1    2    0    0  0.00000000000E+00 -0.71054273576E-14  0.54699929308E+02  0.28103156321E+03  0.27565677436E+03 0.  0.
         25    2    3    3    0    0 -0.64425661422E+01 -0.51023464546E+02  0.54240177883E+02  0.14677200278E+03  0.12631359116E+03 0.  0.
         25    2    3    3    0    0  0.64425661422E+01  0.51023464546E+02  0.45975142529E+00  0.13425956042E+03  0.12401821480E+03 0.  0.
          5    1    4    4  502    0 -0.55916502819E+02 -0.73442715819E+01 -0.64888591833E+01  0.56963048602E+02  0.47000000000E+01 0. -1.
         -5    1    4    4    0  502  0.49473936677E+02 -0.43679192964E+02  0.60729037066E+02  0.89808954182E+02  0.47000000000E+01 0. -1.
          5    1    5    5  503    0  0.57216342196E+02  0.14897681542E+02 -0.28006354588E+02  0.65590369925E+02  0.47000000000E+01 0.  1.
         -5    1    5    5    0  503 -0.50773776053E+02  0.36125783004E+02  0.28466106013E+02  0.68669190500E+02  0.47000000000E+01 0.  1.
<mgrwt>
<rscale>  0 0.27565677E+03</rscale>
<asrwt>0</asrwt>
<pdfrwt beam="1">  1        2 0.17410126E-01 0.27565677E+03</pdfrwt>
<pdfrwt beam="2">  1       -2 0.25825499E-01 0.27565677E+03</pdfrwt>
<totfact> 0.43534897E+03</totfact>
</mgrwt>
</event>
<event>
 9    1  0.2094635E-002  0.2754628E+03  0.7818608E-02  0.1098193E+00
         -1   -1    0    0    0  501 -0.00000000000E+00  0.00000000000E+00  0.32661498922E+02  0.32661498922E+02  0.00000000000E+00 0. -1.
          1   -1    0    0  501    0  0.00000000000E+00 -0.00000000000E+00 -0.58080409330E+03  0.58080409330E+03  0.00000000000E+00 0. -1.
         36    2    1    2    0    0  0.35527136788E-14  0.00000000000E+00 -0.54814259438E+03  0.61346559222E+03  0.27546275441E+03 0.  0.
         25    2    3    3    0    0  0.72481788184E+01  0.45278930149E+02 -0.35706529071E+03  0.38073504356E+03  0.12393883150E+03 0.  0.
         25    2    3    3    0    0 -0.72481788184E+01 -0.45278930149E+02 -0.19107730367E+03  0.23273054866E+03  0.12470066035E+03 0.  0.
          5    1    4    4  502    0 -0.25822246999E+02  0.54762120528E+02 -0.33299058894E+03  0.33848264447E+03  0.47000000000E+01 0.  1.
         -5    1    4    4    0  502  0.33070425817E+02 -0.94831903797E+01 -0.24074701769E+02  0.42252399089E+02  0.47000000000E+01 0.  1.
          5    1    5    5  503    0  0.41092682438E+02 -0.57929773844E+02 -0.15607868572E+03  0.17154332801E+03  0.47000000000E+01 0. -1.
         -5    1    5    5    0  503 -0.48340861256E+02  0.12650843695E+02 -0.34998617947E+02  0.61187220654E+02  0.47000000000E+01 0. -1.
<mgrwt>
<rscale>  0 0.27546275E+03</rscale>
<asrwt>0</asrwt>
<pdfrwt beam="1">  1        1 0.89354471E-01 0.27546275E+03</pdfrwt>
<pdfrwt beam="2">  1       -1 0.50248462E-02 0.27546275E+03</pdfrwt>
<totfact> 0.64048286E+03</totfact>
</mgrwt>
</event>
<event>
 9    1  0.2094635E-002  0.2762854E+03  0.7818608E-02  0.1097735E+00
          1   -1    0    0  501    0  0.00000000000E+00  0.00000000000E+00  0.20747077443E+03  0.20747077443E+03  0.00000000000E+00 0. -1.
         -1   -1    0    0    0  501 -0.00000000000E+00 -0.00000000000E+00 -0.91981184251E+02  0.91981184251E+02  0.00000000000E+00 0. -1.
         36    2    1    2    0    0  0.35527136788E-14 -0.71054273576E-14  0.11548959018E+03  0.29945195868E+03  0.27628541423E+03 0.  0.
         25    2    3    3    0    0  0.12015262866E+02  0.70546228343E+01  0.12348225685E+03  0.17489850259E+03  0.12307511612E+03 0.  0.
         25    2    3    3    0    0 -0.12015262866E+02 -0.70546228343E+01 -0.79926666676E+01  0.12455345609E+03  0.12351334526E+03 0.  0.
          5    1    4    4  502    0  0.34171600278E+02  0.44491958635E+02  0.15505478846E+02  0.58393000633E+02  0.47000000000E+01 0.  1.
         -5    1    4    4    0  502 -0.22156337412E+02 -0.37437335801E+02  0.10797677800E+03  0.11650550196E+03  0.47000000000E+01 0.  1.
          5    1    5    5  503    0  0.13447942950E+01 -0.47911972317E+02  0.38057673877E+02  0.61382750866E+02  0.47000000000E+01 0.  1.
         -5    1    5    5    0  503 -0.13360057161E+02  0.40857349482E+02 -0.46050340545E+02  0.63170705223E+02  0.47000000000E+01 0.  1.
<mgrwt>
<rscale>  0 0.27628541E+03</rscale>
<asrwt>0</asrwt>
<pdfrwt beam="1">  1        1 0.31918580E-01 0.27628541E+03</pdfrwt>
<pdfrwt beam="2">  1       -1 0.14150952E-01 0.27628541E+03</pdfrwt>
<totfact> 0.49051182E+03</totfact>
</mgrwt>
</event>
<event>
 9    1  0.2094635E-002  0.2751326E+03  0.7818608E-02  0.1098378E+00
         -2   -1    0    0    0  501 -0.00000000000E+00  0.00000000000E+00  0.19350927250E+03  0.19350927250E+03  0.00000000000E+00 0. -1.
          2   -1    0    0  501    0  0.00000000000E+00 -0.00000000000E+00 -0.97796268704E+02  0.97796268704E+02  0.00000000000E+00 0. -1.
         36    2    1    2    0    0  0.00000000000E+00  0.00000000000E+00  0.95713003801E+02  0.29130554121E+03  0.27513258484E+03 0.  0.
         25    2    3    3    0    0 -0.45091297781E+02 -0.20160364822E+02  0.88780335361E+02  0.16163052111E+03  0.12570923578E+03 0.  0.
         25    2    3    3    0    0  0.45091297781E+02  0.20160364822E+02  0.69326684401E+01  0.12967502010E+03  0.11969913743E+03 0.  0.
          5    1    4    4  502    0 -0.70308156257E+02 -0.54771600208E+02  0.74465604395E+02  0.11623416565E+03  0.47000000000E+01 0. -1.
         -5    1    4    4    0  502  0.25216858477E+02  0.34611235386E+02  0.14314730966E+02  0.45396355460E+02  0.47000000000E+01 0. -1.
          5    1    5    5  503    0  0.11539467365E+02  0.24704262260E+02  0.60273744429E+02  0.66320993270E+02  0.47000000000E+01 0.  1.
         -5    1    5    5    0  503  0.33551830416E+02 -0.45438974381E+01 -0.53341075989E+02  0.63354026832E+02  0.47000000000E+01 0.  1.
<mgrwt>
<rscale>  0 0.27513258E+03</rscale>
<asrwt>0</asrwt>
<pdfrwt beam="1">  1        2 0.15045580E-01 0.27513258E+03</pdfrwt>
<pdfrwt beam="2">  1       -2 0.29770657E-01 0.27513258E+03</pdfrwt>
<totfact> 0.40046923E+03</totfact>
</mgrwt>
</event>
<event>
 9    1  0.2094635E-002  0.2742149E+03  0.7818608E-02  0.1098891E+00
         -2   -1    0    0    0  501 -0.00000000000E+00  0.00000000000E+00  0.34963533276E+02  0.34963533276E+02  0.00000000000E+00 0.  1.
          2   -1    0    0  501    0  0.00000000000E+00 -0.00000000000E+00 -0.53765872615E+03  0.53765872615E+03  0.00000000000E+00 0.  1.
         36    2    1    2    0    0  0.00000000000E+00  0.00000000000E+00 -0.50269519288E+03  0.57262225943E+03  0.27421487022E+03 0.  0.
         25    2    3    3    0    0 -0.58757695606E+02  0.13698049511E+02 -0.28415884075E+03  0.31601442745E+03  0.12441369792E+03 0.  0.
         25    2    3    3    0    0  0.58757695606E+02 -0.13698049511E+02 -0.21853635213E+03  0.25660783197E+03  0.12020540286E+03 0.  0.
          5    1    4    4  502    0 -0.72433908729E+02 -0.32497381847E+01 -0.70644374442E+02  0.10134075968E+03  0.47000000000E+01 0. -1.
         -5    1    4    4    0  502  0.13676213123E+02  0.16947787696E+02 -0.21351446631E+03  0.21467366777E+03  0.47000000000E+01 0. -1.
          5    1    5    5  503    0 -0.22287393335E+02  0.26166299876E+01 -0.14203486172E+03  0.14387343951E+03  0.47000000000E+01 0.  1.
         -5    1    5    5    0  503  0.81045088942E+02 -0.16314679499E+02 -0.76501490410E+02  0.11273439246E+03  0.47000000000E+01 0.  1.
<mgrwt>
<rscale>  0 0.27421487E+03</rscale>
<asrwt>0</asrwt>
<pdfrwt beam="1">  1        2 0.82716730E-01 0.27421487E+03</pdfrwt>
<pdfrwt beam="2">  1       -2 0.53790049E-02 0.27421487E+03</pdfrwt>
<totfact> 0.99782400E+03</totfact>
</mgrwt>
</event>
<event>
 9    1  0.2094635E-002  0.2754215E+03  0.7818608E-02  0.1098216E+00
          2   -1    0    0  501    0  0.00000000000E+00  0.00000000000E+00  0.14227628437E+04  0.14227628437E+04  0.00000000000E+00 0. -1.
         -2   -1    0    0    0  501 -0.00000000000E+00 -0.00000000000E+00 -0.13329169534E+02  0.13329169534E+02  0.00000000000E+00 0. -1.
         36    2    1    2    0    0 -0.35527136788E-14  0.00000000000E+00  0.14094336741E+04  0.14360920132E+04  0.27542147447E+03 0.  0.
         25    2    3    3    0    0  0.11824832368E+02 -0.17081638754E+02  0.62024802234E+03  0.63323341710E+03  0.12587828355E+03 0.  0.
         25    2    3    3    0    0 -0.11824832368E+02  0.17081638754E+02  0.78918565179E+03  0.80285859609E+03  0.14606958375E+03 0.  0.
          5    1    4    4  502    0  0.12548255937E+02 -0.69318552780E+02  0.26993621800E+03  0.27901643729E+03  0.47000000000E+01 0.  1.
         -5    1    4    4    0  502 -0.72342356873E+00  0.52236914026E+02  0.35031180434E+03  0.35421697982E+03  0.47000000000E+01 0.  1.
          5    1    5    5  503    0 -0.36620101506E+02  0.28183322211E+02  0.76432355855E+03  0.76573358529E+03  0.47000000000E+01 0.  1.
         -5    1    5    5    0  503  0.24795269138E+02 -0.11101683457E+02  0.24862093234E+02  0.37125010804E+02  0.47000000000E+01 0.  1.
<mgrwt>
<rscale>  0 0.27542147E+03</rscale>
<asrwt>0</asrwt>
<pdfrwt beam="1">  1        2 0.21888647E+00 0.27542147E+03</pdfrwt>
<pdfrwt beam="2">  1       -2 0.20506426E-02 0.27542147E+03</pdfrwt>
<totfact> 0.11188571E+04</totfact>
</mgrwt>
</event>
<event>
 9    1  0.2094635E-002  0.2753410E+03  0.7818608E-02  0.1098261E+00
          2   -1    0    0  501    0  0.00000000000E+00  0.00000000000E+00  0.44369841660E+02  0.44369841660E+02  0.00000000000E+00 0.  1.
         -2   -1    0    0    0  501 -0.00000000000E+00 -0.00000000000E+00 -0.42716312048E+03  0.42716312048E+03  0.00000000000E+00 0.  1.
         36    2    1    2    0    0  0.00000000000E+00  0.00000000000E+00 -0.38279327882E+03  0.47153296214E+03  0.27534095241E+03 0.  0.
         25    2    3    3    0    0  0.44045481840E+02  0.30162644598E+02 -0.25703073053E+03  0.28754063880E+03  0.11732447708E+03 0.  0.
         25    2    3    3    0    0 -0.44045481840E+02 -0.30162644598E+02 -0.12576254829E+03  0.18399232334E+03  0.12323622397E+03 0.  0.
          5    1    4    4  502    0  0.77930811576E+02  0.19974663735E+01 -0.20396921696E+03  0.21840955275E+03  0.47000000000E+01 0. -1.
         -5    1    4    4    0  502 -0.33885329736E+02  0.28165178225E+02 -0.53061513577E+02  0.69131086053E+02  0.47000000000E+01 0. -1.
          5    1    5    5  503    0 -0.24306832490E+02  0.30655756665E+02  0.36457820583E+01  0.39572455688E+02  0.47000000000E+01 0.  1.
         -5    1    5    5    0  503 -0.19738649351E+02 -0.60818401263E+02 -0.12940833035E+03  0.14441986765E+03  0.47000000000E+01 0.  1.
<mgrwt>
<rscale>  0 0.27534095E+03</rscale>
<asrwt>0</asrwt>
<pdfrwt beam="1">  1        2 0.68261296E-02 0.27534095E+03</pdfrwt>
<pdfrwt beam="2">  1       -2 0.65717402E-01 0.27534095E+03</pdfrwt>
<totfact> 0.22731615E+03</totfact>
</mgrwt>
</event>
<event>
 9    1  0.2094635E-002  0.2753771E+03  0.7818608E-02  0.1098241E+00
          1   -1    0    0  501    0  0.00000000000E+00  0.00000000000E+00  0.94578043423E+03  0.94578043423E+03  0.00000000000E+00 0. -1.
         -1   -1    0    0    0  501 -0.00000000000E+00 -0.00000000000E+00 -0.20044962034E+02  0.20044962034E+02  0.00000000000E+00 0. -1.
         36    2    1    2    0    0  0.00000000000E+00 -0.71054273576E-14  0.92573547220E+03  0.96582539627E+03  0.27537707164E+03 0.  0.
         25    2    3    3    0    0 -0.16274823096E+02 -0.29165532208E+02  0.31746942985E+03  0.34326759407E+03  0.12621530855E+03 0.  0.
         25    2    3    3    0    0  0.16274823096E+02  0.29165532208E+02  0.60826604235E+03  0.62255780220E+03  0.12835552449E+03 0.  0.
          5    1    4    4  502    0  0.52613429652E+01 -0.54561397893E+01  0.30989068825E+03  0.31001899919E+03  0.47000000000E+01 0. -1.
         -5    1    4    4    0  502 -0.21536166061E+02 -0.23709392418E+02  0.75787415991E+01  0.33248594883E+02  0.47000000000E+01 0. -1.
          5    1    5    5  503    0 -0.22893324723E+01 -0.42331936904E+02  0.97028603226E+02  0.10598997013E+03  0.47000000000E+01 0. -1.
         -5    1    5    5    0  503  0.18564155568E+02  0.71497469112E+02  0.51123743912E+03  0.51656783206E+03  0.47000000000E+01 0. -1.
<mgrwt>
<rscale>  0 0.27537707E+03</rscale>
<asrwt>0</asrwt>
<pdfrwt beam="1">  1        1 0.14550465E+00 0.27537707E+03</pdfrwt>
<pdfrwt beam="2">  1       -1 0.30838410E-02 0.27537707E+03</pdfrwt>
<totfact> 0.63628181E+03</totfact>
</mgrwt>
</event>
<event>
 9    1  0.2094635E-002  0.2719601E+03  0.7818608E-02  0.1100163E+00
          2   -1    0    0  501    0  0.00000000000E+00  0.00000000000E+00  0.92985402540E+02  0.92985402540E+02  0.00000000000E+00 0.  1.
         -2   -1    0    0    0  501 -0.00000000000E+00 -0.00000000000E+00 -0.19885463976E+03  0.19885463976E+03  0.00000000000E+00 0.  1.
         36    2    1    2    0    0  0.17763568394E-14  0.35527136788E-14 -0.10586923722E+03  0.29184004230E+03  0.27196013476E+03 0.  0.
         25    2    3    3    0    0 -0.14772190404E+02  0.20882024306E+02 -0.10421795834E+03  0.16416616734E+03  0.12423715671E+03 0.  0.
         25    2    3    3    0    0  0.14772190404E+02 -0.20882024306E+02 -0.16512788755E+01  0.12767387496E+03  0.12507443815E+03 0.  0.
          5    1    4    4  502    0 -0.37251265350E+02 -0.16155173903E+02 -0.11259887669E+03  0.11978832767E+03  0.47000000000E+01 0.  1.
         -5    1    4    4    0  502  0.22479074946E+02  0.37037198209E+02  0.83809183420E+01  0.44377839671E+02  0.47000000000E+01 0.  1.
          5    1    5    5  503    0  0.23482585593E+02 -0.44284824031E+02 -0.51314537372E+02  0.71887754252E+02  0.47000000000E+01 0.  1.
         -5    1    5    5    0  503 -0.87103951891E+01  0.23402799726E+02  0.49663258497E+02  0.55786120710E+02  0.47000000000E+01 0.  1.
<mgrwt>
<rscale>  0 0.27196013E+03</rscale>
<asrwt>0</asrwt>
<pdfrwt beam="1">  1        2 0.14305447E-01 0.27196013E+03</pdfrwt>
<pdfrwt beam="2">  1       -2 0.30593021E-01 0.27196013E+03</pdfrwt>
<totfact> 0.40450925E+03</totfact>
</mgrwt>
</event>
<event>
 9    1  0.2094635E-002  0.2765181E+03  0.7818608E-02  0.1097606E+00
         -1   -1    0    0    0  501 -0.00000000000E+00  0.00000000000E+00  0.42792087993E+02  0.42792087993E+02  0.00000000000E+00 0. -1.
          1   -1    0    0  501    0  0.00000000000E+00 -0.00000000000E+00 -0.44670797638E+03  0.44670797638E+03  0.00000000000E+00 0. -1.
         36    2    1    2    0    0 -0.35527136788E-14  0.00000000000E+00 -0.40391588839E+03  0.48950006437E+03  0.27651811537E+03 0.  0.
         25    2    3    3    0    0 -0.30553534574E+02  0.18421848815E+02 -0.11447778697E+03  0.17279716337E+03  0.12442191514E+03 0.  0.
         25    2    3    3    0    0  0.30553534574E+02 -0.18421848815E+02 -0.28943810141E+03  0.31670290101E+03  0.12350477711E+03 0.  0.
          5    1    4    4  502    0 -0.55917301395E+01 -0.36724971051E+02  0.59648967063E+01  0.37916499540E+02  0.47000000000E+01 0. -1.
         -5    1    4    4    0  502 -0.24961804434E+02  0.55146819866E+02 -0.12044268368E+03  0.13488066383E+03  0.47000000000E+01 0. -1.
          5    1    5    5  503    0  0.66723188066E+02 -0.41795401847E+02 -0.23003869704E+03  0.24318456279E+03  0.47000000000E+01 0. -1.
         -5    1    5    5    0  503 -0.36169653492E+02  0.23373553032E+02 -0.59399404368E+02  0.73518338218E+02  0.47000000000E+01 0. -1.
<mgrwt>
<rscale>  0 0.27651812E+03</rscale>
<asrwt>0</asrwt>
<pdfrwt beam="1">  1        1 0.68724301E-01 0.27651812E+03</pdfrwt>
<pdfrwt beam="2">  1       -1 0.65833984E-02 0.27651812E+03</pdfrwt>
<totfact> 0.60553333E+03</totfact>
</mgrwt>
</event>
<event>
 9    1  0.2094635E-002  0.2755219E+03  0.7818608E-02  0.1098160E+00
         -2   -1    0    0    0  501 -0.00000000000E+00  0.00000000000E+00  0.96202633676E+01  0.96202633676E+01  0.00000000000E+00 0.  1.
          2   -1    0    0  501    0  0.00000000000E+00 -0.00000000000E+00 -0.19727190208E+04  0.19727190208E+04  0.00000000000E+00 0.  1.
         36    2    1    2    0    0  0.71054273576E-14  0.00000000000E+00 -0.19630987575E+04  0.19823392842E+04  0.27552187957E+03 0.  0.
         25    2    3    3    0    0  0.42625514440E+02 -0.51824610209E+01 -0.69858213531E+03  0.71112224975E+03  0.12583346906E+03 0.  0.
         25    2    3    3    0    0 -0.42625514440E+02  0.51824610209E+01 -0.12645166222E+04  0.12712170344E+04  0.12307180254E+03 0.  0.
          5    1    4    4  502    0  0.35046879172E+01 -0.62137977161E+02 -0.38078889369E+03  0.38587003330E+03  0.47000000000E+01 0.  1.
         -5    1    4    4    0  502  0.39120826523E+02  0.56955516140E+02 -0.31779324162E+03  0.32525221645E+03  0.47000000000E+01 0.  1.
          5    1    5    5  503    0 -0.21926233323E+02  0.44789940475E+02 -0.10852069903E+04  0.10863623706E+04  0.47000000000E+01 0. -1.
         -5    1    5    5    0  503 -0.20699281117E+02 -0.39607479454E+02 -0.17930963185E+03  0.18485466384E+03  0.47000000000E+01 0. -1.
<mgrwt>
<rscale>  0 0.27552188E+03</rscale>
<asrwt>0</asrwt>
<pdfrwt beam="1">  1        2 0.30349507E+00 0.27552188E+03</pdfrwt>
<pdfrwt beam="2">  1       -2 0.14800413E-02 0.27552188E+03</pdfrwt>
<totfact> 0.92395345E+03</totfact>
</mgrwt>
</event>
<event>
 9    1  0.2094635E-002  0.2777284E+03  0.7818608E-02  0.1096936E+00
          1   -1    0    0  501    0  0.00000000000E+00  0.00000000000E+00  0.30180841318E+02  0.30180841318E+02  0.00000000000E+00 0.  1.
         -1   -1    0    0    0  501 -0.00000000000E+00 -0.00000000000E+00 -0.63892414486E+03  0.63892414486E+03  0.00000000000E+00 0.  1.
         36    2    1    2    0    0 -0.35527136788E-14  0.00000000000E+00 -0.60874330355E+03  0.66910498618E+03  0.27772841576E+03 0.  0.
         25    2    3    3    0    0 -0.14249801228E+02  0.10141038273E+02 -0.18648947649E+03  0.22620934050E+03  0.12683234365E+03 0.  0.
         25    2    3    3    0    0  0.14249801228E+02 -0.10141038273E+02 -0.42225382705E+03  0.44289564568E+03  0.13248532375E+03 0.  0.
          5    1    4    4  502    0  0.28012129623E+02 -0.34928120695E+02 -0.21345112943E+02  0.49823256295E+02  0.47000000000E+01 0. -1.
         -5    1    4    4    0  502 -0.42261930851E+02  0.45069158968E+02 -0.16514436355E+03  0.17638608421E+03  0.47000000000E+01 0. -1.
          5    1    5    5  503    0  0.35088636435E+02  0.43222074776E+02 -0.32625337982E+03  0.33100259515E+03  0.47000000000E+01 0.  1.
         -5    1    5    5    0  503 -0.20838835207E+02 -0.53363113049E+02 -0.96000447235E+02  0.11189305053E+03  0.47000000000E+01 0.  1.
<mgrwt>
<rscale>  0 0.27772842E+03</rscale>
<asrwt>0</asrwt>
<pdfrwt beam="1">  1        1 0.46432065E-02 0.27772842E+03</pdfrwt>
<pdfrwt beam="2">  1       -1 0.98296018E-01 0.27772842E+03</pdfrwt>
<totfact> 0.19314826E+03</totfact>
</mgrwt>
</event>
<event>
 9    1  0.2094635E-002  0.2755465E+03  0.7818608E-02  0.1098147E+00
          4   -1    0    0  501    0  0.00000000000E+00  0.00000000000E+00  0.68243817803E+02  0.68243817803E+02  0.00000000000E+00 0. -1.
         -4   -1    0    0    0  501 -0.00000000000E+00 -0.00000000000E+00 -0.27814195968E+03  0.27814195968E+03  0.00000000000E+00 0. -1.
         36    2    1    2    0    0  0.00000000000E+00  0.14210854715E-13 -0.20989814188E+03  0.34638577749E+03  0.27554650584E+03 0.  0.
         25    2    3    3    0    0  0.21134694688E+02 -0.46288020567E+02 -0.71371440165E+02  0.15236369309E+03  0.12462566483E+03 0.  0.
         25    2    3    3    0    0 -0.21134694688E+02  0.46288020567E+02 -0.13852670171E+03  0.19402208439E+03  0.12595898529E+03 0.  0.
          5    1    4    4  502    0  0.17684445178E+02 -0.88191012549E+02 -0.61069427954E+02  0.10882076698E+03  0.47000000000E+01 0.  1.
         -5    1    4    4    0  502  0.34502495105E+01  0.41902991982E+02 -0.10302012211E+02  0.43542926111E+02  0.47000000000E+01 0.  1.
          5    1    5    5  503    0 -0.16427255679E+02  0.89917610946E+02 -0.88605676328E+02  0.12738951042E+03  0.47000000000E+01 0.  1.
         -5    1    5    5    0  503 -0.47074390093E+01 -0.43629590379E+02 -0.49921025386E+02  0.66632573973E+02  0.47000000000E+01 0.  1.
<mgrwt>
<rscale>  0 0.27554651E+03</rscale>
<asrwt>0</asrwt>
<pdfrwt beam="1">  1        4 0.10499049E-01 0.27554651E+03</pdfrwt>
<pdfrwt beam="2">  1       -4 0.42791071E-01 0.27554651E+03</pdfrwt>
<totfact> 0.69660114E+02</totfact>
</mgrwt>
</event>
<event>
 9    1  0.2094635E-002  0.2744200E+03  0.7818608E-02  0.1098776E+00
         -1   -1    0    0    0  501 -0.00000000000E+00  0.00000000000E+00  0.46316844522E+03  0.46316844522E+03  0.00000000000E+00 0.  1.
          1   -1    0    0  501    0  0.00000000000E+00 -0.00000000000E+00 -0.40647387312E+02  0.40647387312E+02  0.00000000000E+00 0.  1.
         36    2    1    2    0    0 -0.17763568394E-14  0.00000000000E+00  0.42252105791E+03  0.50381583253E+03  0.27442002247E+03 0.  0.
         25    2    3    3    0    0  0.76034313183E+01  0.40373429459E+01  0.11292478445E+03  0.17011220792E+03  0.12693322667E+03 0.  0.
         25    2    3    3    0    0 -0.76034313183E+01 -0.40373429459E+01  0.30959627346E+03  0.33370362461E+03  0.12423423133E+03 0.  0.
          5    1    4    4  502    0 -0.31627829827E+01 -0.29815405858E+02  0.12777063032E+03  0.13132549484E+03  0.47000000000E+01 0. -1.
         -5    1    4    4    0  502  0.10766214301E+02  0.33852748804E+02 -0.14845845868E+02  0.38786713079E+02  0.47000000000E+01 0. -1.
          5    1    5    5  503    0 -0.56512735917E+02 -0.33525241532E+02  0.14088069643E+03  0.15552199770E+03  0.47000000000E+01 0.  1.
         -5    1    5    5    0  503  0.48909304598E+02  0.29487898586E+02  0.16871557703E+03  0.17818162692E+03  0.47000000000E+01 0.  1.
<mgrwt>
<rscale>  0 0.27442002E+03</rscale>
<asrwt>0</asrwt>
<pdfrwt beam="1">  1        1 0.62534445E-02 0.27442002E+03</pdfrwt>
<pdfrwt beam="2">  1       -1 0.71256680E-01 0.27442002E+03</pdfrwt>
<totfact> 0.25180714E+03</totfact>
</mgrwt>
</event>
<event>
 9    1  0.2094635E-002  0.2741971E+03  0.7818608E-02  0.1098901E+00
         -1   -1    0    0    0  501 -0.00000000000E+00  0.00000000000E+00  0.46919154320E+03  0.46919154320E+03  0.00000000000E+00 0.  1.
          1   -1    0    0  501    0  0.00000000000E+00 -0.00000000000E+00 -0.40060427070E+02  0.40060427070E+02  0.00000000000E+00 0.  1.
         36    2    1    2    0    0  0.00000000000E+00  0.00000000000E+00  0.42913111613E+03  0.50925197027E+03  0.27419710865E+03 0.  0.
         25    2    3    3    0    0  0.45288539067E+02 -0.32146795194E+02  0.23496901273E+03  0.27166609099E+03  0.12452935331E+03 0.  0.
         25    2    3    3    0    0 -0.45288539067E+02  0.32146795194E+02  0.19416210340E+03  0.23758587928E+03  0.12515454217E+03 0.  0.
          5    1    4    4  502    0  0.68484523805E+02 -0.41268475070E+02  0.75097484998E+02  0.10979498754E+03  0.47000000000E+01 0. -1.
         -5    1    4    4    0  502 -0.23195984738E+02  0.91216798757E+01  0.15987152774E+03  0.16187110345E+03  0.47000000000E+01 0. -1.
          5    1    5    5  503    0 -0.40846990367E+02 -0.20307593779E+02  0.11286880773E+02  0.47226673234E+02  0.47000000000E+01 0. -1.
         -5    1    5    5    0  503 -0.44415486997E+01  0.52454388973E+02  0.18287522263E+03  0.19035920605E+03  0.47000000000E+01 0. -1.
<mgrwt>
<rscale>  0 0.27419711E+03</rscale>
<asrwt>0</asrwt>
<pdfrwt beam="1">  1        1 0.61631430E-02 0.27419711E+03</pdfrwt>
<pdfrwt beam="2">  1       -1 0.72183310E-01 0.27419711E+03</pdfrwt>
<totfact> 0.25029898E+03</totfact>
</mgrwt>
</event>
<event>
 9    1  0.2094635E-002  0.2749937E+03  0.7818608E-02  0.1098455E+00
          3   -1    0    0  501    0  0.00000000000E+00  0.00000000000E+00  0.12057617861E+03  0.12057617861E+03  0.00000000000E+00 0. -1.
         -3   -1    0    0    0  501 -0.00000000000E+00 -0.00000000000E+00 -0.15679197546E+03  0.15679197546E+03  0.00000000000E+00 0. -1.
         36    2    1    2    0    0  0.00000000000E+00 -0.35527136788E-14 -0.36215796853E+02  0.27736815408E+03  0.27499365257E+03 0.  0.
         25    2    3    3    0    0  0.41195182195E+02 -0.29448256789E+02  0.22203623434E+02  0.12932999819E+03  0.11691451866E+03 0.  0.
         25    2    3    3    0    0 -0.41195182195E+02  0.29448256789E+02 -0.58419420287E+02  0.14803815589E+03  0.12624667944E+03 0.  0.
          5    1    4    4  502    0  0.73441918099E+02 -0.36919563200E+02 -0.99642457675E+01  0.82934586721E+02  0.47000000000E+01 0. -1.
         -5    1    4    4    0  502 -0.32246735904E+02  0.74713064114E+01  0.32167869201E+02  0.46395411464E+02  0.47000000000E+01 0. -1.
          5    1    5    5  503    0 -0.71349601712E+02  0.31394861429E+02 -0.79073955357E+02  0.11113587812E+03  0.47000000000E+01 0.  1.
         -5    1    5    5    0  503  0.30154419517E+02 -0.19466046397E+01  0.20654535071E+02  0.36902277776E+02  0.47000000000E+01 0.  1.
<mgrwt>
<rscale>  0 0.27499365E+03</rscale>
<asrwt>0</asrwt>
<pdfrwt beam="1">  1        3 0.18550181E-01 0.27499365E+03</pdfrwt>
<pdfrwt beam="2">  1       -3 0.24121842E-01 0.27499365E+03</pdfrwt>
<totfact> 0.10453451E+03</totfact>
</mgrwt>
</event>
<event>
 9    1  0.2094635E-002  0.2721446E+03  0.7818608E-02  0.1100058E+00
          1   -1    0    0  501    0  0.00000000000E+00  0.00000000000E+00  0.25664362509E+02  0.25664362509E+02  0.00000000000E+00 0.  1.
         -1   -1    0    0    0  501 -0.00000000000E+00 -0.00000000000E+00 -0.72145475600E+03  0.72145475600E+03  0.00000000000E+00 0.  1.
         36    2    1    2    0    0  0.35527136788E-14 -0.71054273576E-14 -0.69579039349E+03  0.74711911850E+03  0.27214464089E+03 0.  0.
         25    2    3    3    0    0  0.78141780478E+01 -0.38462864417E+02 -0.42689237110E+03  0.44763874163E+03  0.12885221454E+03 0.  0.
         25    2    3    3    0    0 -0.78141780478E+01  0.38462864417E+02 -0.26889802239E+03  0.29948037687E+03  0.12586459537E+03 0.  0.
          5    1    4    4  502    0  0.34156562998E+02  0.10350209847E+02 -0.35447743615E+03  0.35630063202E+03  0.47000000000E+01 0. -1.
         -5    1    4    4    0  502 -0.26342384950E+02 -0.48813074265E+02 -0.72414934945E+02  0.91338109610E+02  0.47000000000E+01 0. -1.
          5    1    5    5  503    0  0.47887679019E+02  0.53011696284E+02 -0.17707521780E+03  0.19100050394E+03  0.47000000000E+01 0.  1.
         -5    1    5    5    0  503 -0.55701857067E+02 -0.14548831866E+02 -0.91822804588E+02  0.10847987293E+03  0.47000000000E+01 0.  1.
<mgrwt>
<rscale>  0 0.27214464E+03</rscale>
<asrwt>0</asrwt>
<pdfrwt beam="1">  1        1 0.39483637E-02 0.27214464E+03</pdfrwt>
<pdfrwt beam="2">  1       -1 0.11099303E+00 0.27214464E+03</pdfrwt>
<totfact> 0.18379382E+03</totfact>
</mgrwt>
</event>
<event>
 9    1  0.2094635E-002  0.2738447E+03  0.7818608E-02  0.1099099E+00
          1   -1    0    0  501    0  0.00000000000E+00  0.00000000000E+00  0.13456380444E+04  0.13456380444E+04  0.00000000000E+00 0.  1.
         -1   -1    0    0    0  501 -0.00000000000E+00 -0.00000000000E+00 -0.13932220949E+02  0.13932220949E+02  0.00000000000E+00 0.  1.
         36    2    1    2    0    0  0.00000000000E+00  0.00000000000E+00  0.13317058234E+04  0.13595702653E+04  0.27384467533E+03 0.  0.
         25    2    3    3    0    0  0.46371516450E+02  0.16423828857E+02  0.66756466915E+03  0.68135722199E+03  0.12722034731E+03 0.  0.
         25    2    3    3    0    0 -0.46371516450E+02 -0.16423828857E+02  0.66414115425E+03  0.67821304331E+03  0.12833315881E+03 0.  0.
          5    1    4    4  502    0 -0.21437693554E+02 -0.35408497422E+02  0.11697293804E+03  0.12416962039E+03  0.47000000000E+01 0. -1.
         -5    1    4    4    0  502  0.67809210004E+02  0.51832326279E+02  0.55059173112E+03  0.55718760160E+03  0.47000000000E+01 0. -1.
          5    1    5    5  503    0  0.15046876736E+02 -0.30311097209E+02  0.51658906442E+03  0.51771760893E+03  0.47000000000E+01 0. -1.
         -5    1    5    5    0  503 -0.61418393186E+02  0.13887268352E+02  0.14755208983E+03  0.16049543438E+03  0.47000000000E+01 0. -1.
<mgrwt>
<rscale>  0 0.27384468E+03</rscale>
<asrwt>0</asrwt>
<pdfrwt beam="1">  1        1 0.20702114E+00 0.27384468E+03</pdfrwt>
<pdfrwt beam="2">  1       -1 0.21434197E-02 0.27384468E+03</pdfrwt>
<totfact> 0.56260854E+03</totfact>
</mgrwt>
</event>
<event>
 9    1  0.2094635E-002  0.2747967E+03  0.7818608E-02  0.1098565E+00
          1   -1    0    0  501    0  0.00000000000E+00  0.00000000000E+00  0.17847582756E+04  0.17847582756E+04  0.00000000000E+00 0.  1.
         -1   -1    0    0    0  501 -0.00000000000E+00 -0.00000000000E+00 -0.10577511261E+02  0.10577511261E+02  0.00000000000E+00 0.  1.
         36    2    1    2    0    0 -0.35527136788E-14 -0.14210854715E-13  0.17741807643E+04  0.17953357868E+04  0.27479665760E+03 0.  0.
         25    2    3    3    0    0  0.15796270771E+02  0.32426505159E+02  0.60062432629E+03  0.61463148940E+03  0.12538455257E+03 0.  0.
         25    2    3    3    0    0 -0.15796270771E+02 -0.32426505159E+02  0.11735564380E+04  0.11807042974E+04  0.12460707985E+03 0.  0.
          5    1    4    4  502    0  0.35375704290E+01  0.68924962443E+02  0.19039009866E+03  0.20256762950E+03  0.47000000000E+01 0. -1.
         -5    1    4    4    0  502  0.12258700342E+02 -0.36498457284E+02  0.41023422763E+03  0.41206385990E+03  0.47000000000E+01 0. -1.
          5    1    5    5  503    0 -0.40257689252E+02  0.32999821914E+02  0.70645044917E+03  0.70838125111E+03  0.47000000000E+01 0. -1.
         -5    1    5    5    0  503  0.24461418481E+02 -0.65426327073E+02  0.46710598885E+03  0.47232304633E+03  0.47000000000E+01 0. -1.
<mgrwt>
<rscale>  0 0.27479666E+03</rscale>
<asrwt>0</asrwt>
<pdfrwt beam="1">  1        1 0.27457796E+00 0.27479666E+03</pdfrwt>
<pdfrwt beam="2">  1       -1 0.16273108E-02 0.27479666E+03</pdfrwt>
<totfact> 0.43148170E+03</totfact>
</mgrwt>
</event>
<event>
 9    1  0.2094635E-002  0.2755068E+03  0.7818608E-02  0.1098169E+00
         -2   -1    0    0    0  501 -0.00000000000E+00  0.00000000000E+00  0.77260151121E+01  0.77260151121E+01  0.00000000000E+00 0. -1.
          2   -1    0    0  501    0  0.00000000000E+00 -0.00000000000E+00 -0.24561168544E+04  0.24561168544E+04  0.00000000000E+00 0. -1.
         36    2    1    2    0    0 -0.14210854715E-13 -0.35527136788E-14 -0.24483908392E+04  0.24638428695E+04  0.27550677621E+03 0.  0.
         25    2    3    3    0    0  0.41807814417E+02  0.21400747968E+02 -0.93727075243E+03  0.94682409022E+03  0.12567222885E+03 0.  0.
         25    2    3    3    0    0 -0.41807814417E+02 -0.21400747968E+02 -0.15111200868E+04  0.15170187792E+04  0.12512463568E+03 0.  0.
          5    1    4    4  502    0  0.79298332215E+02  0.11712694808E+02 -0.80293346589E+03  0.80693844459E+03  0.47000000000E+01 0. -1.
         -5    1    4    4    0  502 -0.37490517798E+02  0.96880531600E+01 -0.13433728654E+03  0.13988564563E+03  0.47000000000E+01 0. -1.
          5    1    5    5  503    0 -0.45937099878E+02 -0.47941078209E+02 -0.14277906884E+04  0.14293414231E+04  0.47000000000E+01 0. -1.
         -5    1    5    5    0  503  0.41292854607E+01  0.26540330241E+02 -0.83329398444E+02  0.87677356100E+02  0.47000000000E+01 0. -1.
<mgrwt>
<rscale>  0 0.27550678E+03</rscale>
<asrwt>0</asrwt>
<pdfrwt beam="1">  1        2 0.37786421E+00 0.27550678E+03</pdfrwt>
<pdfrwt beam="2">  1       -2 0.11886175E-02 0.27550678E+03</pdfrwt>
<totfact> 0.70265335E+03</totfact>
</mgrwt>
</event>
<event>
 9    1  0.2094635E-002  0.2751830E+03  0.7818608E-02  0.1098349E+00
         -2   -1    0    0    0  501 -0.00000000000E+00  0.00000000000E+00  0.13754574450E+02  0.13754574450E+02  0.00000000000E+00 0. -1.
          2   -1    0    0  501    0  0.00000000000E+00 -0.00000000000E+00 -0.13763722802E+04  0.13763722802E+04  0.00000000000E+00 0. -1.
         36    2    1    2    0    0  0.00000000000E+00  0.00000000000E+00 -0.13626177057E+04  0.13901268546E+04  0.27518295731E+03 0.  0.
         25    2    3    3    0    0  0.31004019837E+02  0.50574267331E+02 -0.71768831706E+03  0.73091709276E+03  0.12507705738E+03 0.  0.
         25    2    3    3    0    0 -0.31004019837E+02 -0.50574267331E+02 -0.64492938869E+03  0.65920976188E+03  0.12290072421E+03 0.  0.
          5    1    4    4  502    0 -0.39124811865E+02 -0.53892786288E+01 -0.11767984452E+03  0.12421928608E+03  0.47000000000E+01 0. -1.
         -5    1    4    4    0  502  0.70128831701E+02  0.55963545960E+02 -0.60000847255E+03  0.60669780669E+03  0.47000000000E+01 0. -1.
          5    1    5    5  503    0 -0.22426377262E+02 -0.79344019648E+02 -0.25373467305E+03  0.26683663572E+03  0.47000000000E+01 0. -1.
         -5    1    5    5    0  503 -0.85776425744E+01  0.28769752317E+02 -0.39119471563E+03  0.39237312617E+03  0.47000000000E+01 0. -1.
<mgrwt>
<rscale>  0 0.27518296E+03</rscale>
<asrwt>0</asrwt>
<pdfrwt beam="1">  1        2 0.21174963E+00 0.27518296E+03</pdfrwt>
<pdfrwt beam="2">  1       -2 0.21160879E-02 0.27518296E+03</pdfrwt>
<totfact> 0.11320520E+04</totfact>
</mgrwt>
</event>
<event>
 9    1  0.2094635E-002  0.2754156E+03  0.7818608E-02  0.1098219E+00
          1   -1    0    0  501    0  0.00000000000E+00  0.00000000000E+00  0.15348466547E+04  0.15348466547E+04  0.00000000000E+00 0.  1.
         -1   -1    0    0    0  501 -0.00000000000E+00 -0.00000000000E+00 -0.12355268805E+02  0.12355268805E+02  0.00000000000E+00 0.  1.
         36    2    1    2    0    0 -0.71054273576E-14  0.00000000000E+00  0.15224913859E+04  0.15472019235E+04  0.27541563494E+03 0.  0.
         25    2    3    3    0    0  0.26523631043E+02 -0.31096038801E+02  0.52358941364E+03  0.53941984626E+03  0.12311551418E+03 0.  0.
         25    2    3    3    0    0 -0.26523631043E+02  0.31096038801E+02  0.99890197226E+03  0.10077820772E+04  0.12707910294E+03 0.  0.
          5    1    4    4  502    0 -0.30095898338E+02 -0.55286679450E+02  0.19140717020E+03  0.20154695440E+03  0.47000000000E+01 0.  1.
         -5    1    4    4    0  502  0.56619529381E+02  0.24190640649E+02  0.33218224344E+03  0.33787289186E+03  0.47000000000E+01 0.  1.
          5    1    5    5  503    0 -0.54422797906E+02  0.63927863958E+02  0.50202222487E+03  0.50901573353E+03  0.47000000000E+01 0.  1.
         -5    1    5    5    0  503  0.27899166863E+02 -0.32831825157E+02  0.49687974739E+03  0.49876634371E+03  0.47000000000E+01 0.  1.
<mgrwt>
<rscale>  0 0.27541563E+03</rscale>
<asrwt>0</asrwt>
<pdfrwt beam="1">  1        1 0.23613010E+00 0.27541563E+03</pdfrwt>
<pdfrwt beam="2">  1       -1 0.19008118E-02 0.27541563E+03</pdfrwt>
<totfact> 0.50128777E+03</totfact>
</mgrwt>
</event>
<event>
 9    1  0.2094635E-002  0.2765903E+03  0.7818608E-02  0.1097566E+00
          1   -1    0    0  501    0  0.00000000000E+00  0.00000000000E+00  0.25161413264E+02  0.25161413264E+02  0.00000000000E+00 0. -1.
         -1   -1    0    0    0  501 -0.00000000000E+00 -0.00000000000E+00 -0.76011437433E+03  0.76011437433E+03  0.00000000000E+00 0. -1.
         36    2    1    2    0    0  0.00000000000E+00  0.00000000000E+00 -0.73495296107E+03  0.78527578760E+03  0.27659032449E+03 0.  0.
         25    2    3    3    0    0 -0.19231577253E+01  0.42712490312E+02 -0.27692680977E+03  0.30795990839E+03  0.12776068192E+03 0.  0.
         25    2    3    3    0    0  0.19231577253E+01 -0.42712490312E+02 -0.45802615130E+03  0.47731587921E+03  0.12733592542E+03 0.  0.
          5    1    4    4  502    0  0.33416842255E+02 -0.18373404920E+02 -0.19919107920E+03  0.20286311490E+03  0.47000000000E+01 0.  1.
         -5    1    4    4    0  502 -0.35339999980E+02  0.61085895233E+02 -0.77735730570E+02  0.10509679349E+03  0.47000000000E+01 0.  1.
          5    1    5    5  503    0 -0.47218411222E+02 -0.58202861776E+02 -0.18923786352E+03  0.20359324759E+03  0.47000000000E+01 0. -1.
         -5    1    5    5    0  503  0.49141568948E+02  0.15490371463E+02 -0.26878828779E+03  0.27372263161E+03  0.47000000000E+01 0. -1.
<mgrwt>
<rscale>  0 0.27659032E+03</rscale>
<asrwt>0</asrwt>
<pdfrwt beam="1">  1        1 0.38709874E-02 0.27659032E+03</pdfrwt>
<pdfrwt beam="2">  1       -1 0.11694065E+00 0.27659032E+03</pdfrwt>
<totfact> 0.16734945E+03</totfact>
</mgrwt>
</event>
<event>
 9    1  0.2094635E-002  0.2749105E+03  0.7818608E-02  0.1098502E+00
         -1   -1    0    0    0  501 -0.00000000000E+00  0.00000000000E+00  0.29829909157E+03  0.29829909157E+03  0.00000000000E+00 0. -1.
          1   -1    0    0  501    0  0.00000000000E+00 -0.00000000000E+00 -0.63338936504E+02  0.63338936504E+02  0.00000000000E+00 0. -1.
         36    2    1    2    0    0  0.00000000000E+00  0.00000000000E+00  0.23496015507E+03  0.36163802807E+03  0.27491051068E+03 0.  0.
         25    2    3    3    0    0 -0.40897132953E+02  0.28841206570E+02  0.70569144629E+02  0.15028900010E+03  0.12289177636E+03 0.  0.
         25    2    3    3    0    0  0.40897132953E+02 -0.28841206570E+02  0.16439101044E+03  0.21134902797E+03  0.12304314947E+03 0.  0.
          5    1    4    4  502    0 -0.19320541119E+02  0.76174015547E+02  0.54101244516E+02  0.95523811753E+02  0.47000000000E+01 0. -1.
         -5    1    4    4    0  502 -0.21576591835E+02 -0.47332808977E+02  0.16467900113E+02  0.54765188350E+02  0.47000000000E+01 0. -1.
          5    1    5    5  503    0  0.46053154755E+02  0.41083686370E+02  0.87575260247E+02  0.10723935171E+03  0.47000000000E+01 0.  1.
         -5    1    5    5    0  503 -0.51560218017E+01 -0.69924892939E+02  0.76815750190E+02  0.10410967626E+03  0.47000000000E+01 0.  1.
<mgrwt>
<rscale>  0 0.27491051E+03</rscale>
<asrwt>0</asrwt>
<pdfrwt beam="1">  1        1 0.97444519E-02 0.27491051E+03</pdfrwt>
<pdfrwt beam="2">  1       -1 0.45892167E-01 0.27491051E+03</pdfrwt>
<totfact> 0.31855884E+03</totfact>
</mgrwt>
</event>
<event>
 9    1  0.2094635E-002  0.2752751E+03  0.7818608E-02  0.1098298E+00
          1   -1    0    0  501    0  0.00000000000E+00  0.00000000000E+00  0.20136006137E+04  0.20136006137E+04  0.00000000000E+00 0.  1.
         -1   -1    0    0    0  501 -0.00000000000E+00 -0.00000000000E+00 -0.94080668481E+01  0.94080668481E+01  0.00000000000E+00 0.  1.
         36    2    1    2    0    0  0.71054273576E-14  0.00000000000E+00  0.20041925468E+04  0.20230086805E+04  0.27527505647E+03 0.  0.
         25    2    3    3    0    0  0.40852887508E+02 -0.43889454798E+02  0.10403335801E+04  0.10494541003E+04  0.12435717878E+03 0.  0.
         25    2    3    3    0    0 -0.40852887508E+02  0.43889454798E+02  0.96385896667E+03  0.97355458025E+03  0.12324435257E+03 0.  0.
          5    1    4    4  502    0  0.55905747906E+02 -0.38191817303E+02  0.10233153229E+04  0.10255634586E+04  0.47000000000E+01 0.  1.
         -5    1    4    4    0  502 -0.15052860398E+02 -0.56976374947E+01  0.17018257283E+02  0.23890641686E+02  0.47000000000E+01 0.  1.
          5    1    5    5  503    0 -0.16304991437E+02 -0.20055954466E+02  0.71260522380E+03  0.71308932753E+03  0.47000000000E+01 0. -1.
         -5    1    5    5    0  503 -0.24547896071E+02  0.63945409264E+02  0.25125374287E+03  0.26046525272E+03  0.47000000000E+01 0. -1.
<mgrwt>
<rscale>  0 0.27527506E+03</rscale>
<asrwt>0</asrwt>
<pdfrwt beam="1">  1        1 0.30978437E+00 0.27527506E+03</pdfrwt>
<pdfrwt beam="2">  1       -1 0.14473965E-02 0.27527506E+03</pdfrwt>
<totfact> 0.36345155E+03</totfact>
</mgrwt>
</event>
<event>
 9    1  0.2094635E-002  0.2748975E+03  0.7818608E-02  0.1098509E+00
         -1   -1    0    0    0  501 -0.00000000000E+00  0.00000000000E+00  0.71084325151E+03  0.71084325151E+03  0.00000000000E+00 0.  1.
          1   -1    0    0  501    0  0.00000000000E+00 -0.00000000000E+00 -0.26577112301E+02  0.26577112301E+02  0.00000000000E+00 0.  1.
         36    2    1    2    0    0  0.71054273576E-14  0.00000000000E+00  0.68426613921E+03  0.73742036381E+03  0.27489751490E+03 0.  0.
         25    2    3    3    0    0  0.22310834183E+02  0.45075604580E+02  0.46922449532E+03  0.48798851033E+03  0.12422389368E+03 0.  0.
         25    2    3    3    0    0 -0.22310834183E+02 -0.45075604580E+02  0.21504164389E+03  0.24943185348E+03  0.11594721847E+03 0.  0.
          5    1    4    4  502    0 -0.13871920152E+00 -0.39479448697E+02  0.22590106090E+03  0.22937311400E+03  0.47000000000E+01 0. -1.
         -5    1    4    4    0  502  0.22449553384E+02  0.84555053276E+02  0.24332343442E+03  0.25861539633E+03  0.47000000000E+01 0. -1.
          5    1    5    5  503    0  0.33673019810E+02 -0.56393070172E+02  0.86662444866E+02  0.10884171984E+03  0.47000000000E+01 0.  1.
         -5    1    5    5    0  503 -0.55983853993E+02  0.11317465592E+02  0.12837919903E+03  0.14059013364E+03  0.47000000000E+01 0.  1.
<mgrwt>
<rscale>  0 0.27489751E+03</rscale>
<asrwt>0</asrwt>
<pdfrwt beam="1">  1        1 0.40887870E-02 0.27489751E+03</pdfrwt>
<pdfrwt beam="2">  1       -1 0.10936049E+00 0.27489751E+03</pdfrwt>
<totfact> 0.18116428E+03</totfact>
</mgrwt>
</event>
<event>
 9    1  0.2094635E-002  0.2749629E+03  0.7818608E-02  0.1098472E+00
         -2   -1    0    0    0  501 -0.00000000000E+00  0.00000000000E+00  0.44821824564E+03  0.44821824564E+03  0.00000000000E+00 0. -1.
          2   -1    0    0  501    0  0.00000000000E+00 -0.00000000000E+00 -0.42169520217E+02  0.42169520217E+02  0.00000000000E+00 0. -1.
         36    2    1    2    0    0 -0.14210854715E-13  0.00000000000E+00  0.40604872542E+03  0.49038776585E+03  0.27496289474E+03 0.  0.
         25    2    3    3    0    0 -0.49305512369E+02  0.19664638681E+02  0.19964098302E+03  0.24312402034E+03  0.12819920281E+03 0.  0.
         25    2    3    3    0    0  0.49305512369E+02 -0.19664638681E+02  0.20640774240E+03  0.24726374551E+03  0.12536934298E+03 0.  0.
          5    1    4    4  502    0  0.35425236610E+02 -0.12887070421E+02  0.22832419730E+02  0.44321928699E+02  0.47000000000E+01 0.  1.
         -5    1    4    4    0  502 -0.84730748978E+02  0.32551709102E+02  0.17680856329E+03  0.19880209164E+03  0.47000000000E+01 0.  1.
          5    1    5    5  503    0 -0.58659007705E+01 -0.78887870220E+01 -0.15108819859E+02  0.18628155842E+02  0.47000000000E+01 0.  1.
         -5    1    5    5    0  503  0.55171413139E+02 -0.11775851659E+02  0.22151656226E+03  0.22863558967E+03  0.47000000000E+01 0.  1.
<mgrwt>
<rscale>  0 0.27496289E+03</rscale>
<asrwt>0</asrwt>
<pdfrwt beam="1">  1        2 0.64876188E-02 0.27496289E+03</pdfrwt>
<pdfrwt beam="2">  1       -2 0.68956650E-01 0.27496289E+03</pdfrwt>
<totfact> 0.21918235E+03</totfact>
</mgrwt>
</event>
<event>
 9    1  0.2094635E-002  0.2719370E+03  0.7818608E-02  0.1100176E+00
          2   -1    0    0  501    0  0.00000000000E+00  0.00000000000E+00  0.12494533956E+04  0.12494533956E+04  0.00000000000E+00 0. -1.
         -2   -1    0    0    0  501 -0.00000000000E+00 -0.00000000000E+00 -0.14796417584E+02  0.14796417584E+02  0.00000000000E+00 0. -1.
         36    2    1    2    0    0  0.00000000000E+00  0.00000000000E+00  0.12346569780E+04  0.12642498132E+04  0.27193700882E+03 0.  0.
         25    2    3    3    0    0  0.23665952370E+02  0.22239408502E+02  0.45046622018E+03  0.46933942296E+03  0.12769107184E+03 0.  0.
         25    2    3    3    0    0 -0.23665952370E+02 -0.22239408502E+02  0.78419075781E+03  0.79491039020E+03  0.12598696448E+03 0.  0.
          5    1    4    4  502    0  0.18485842952E+02  0.10969856238E+02  0.36234662093E+01  0.22299857464E+02  0.47000000000E+01 0.  1.
         -5    1    4    4    0  502  0.51801094174E+01  0.11269552263E+02  0.44684275397E+03  0.44703956549E+03  0.47000000000E+01 0.  1.
          5    1    5    5  503    0  0.11496316158E+02  0.14081028614E+01  0.70382536577E+03  0.70393634907E+03  0.47000000000E+01 0.  1.
         -5    1    5    5    0  503 -0.35162268528E+02 -0.23647511363E+02  0.80365392042E+02  0.90974041131E+02  0.47000000000E+01 0.  1.
<mgrwt>
<rscale>  0 0.27193701E+03</rscale>
<asrwt>0</asrwt>
<pdfrwt beam="1">  1        2 0.19222352E+00 0.27193701E+03</pdfrwt>
<pdfrwt beam="2">  1       -2 0.22763729E-02 0.27193701E+03</pdfrwt>
<totfact> 0.11942153E+04</totfact>
</mgrwt>
</event>
<event>
 9    1  0.2094635E-002  0.2751048E+03  0.7818608E-02  0.1098393E+00
         -2   -1    0    0    0  501 -0.00000000000E+00  0.00000000000E+00  0.19664650406E+03  0.19664650406E+03  0.00000000000E+00 0. -1.
          2   -1    0    0  501    0  0.00000000000E+00 -0.00000000000E+00 -0.96216658208E+02  0.96216658208E+02  0.00000000000E+00 0. -1.
         36    2    1    2    0    0  0.00000000000E+00 -0.71054273576E-14  0.10042984585E+03  0.29286316227E+03  0.27510484888E+03 0.  0.
         25    2    3    3    0    0 -0.11510006562E+02  0.30052595554E+02  0.13007744847E+02  0.13754632506E+03  0.13309452041E+03 0.  0.
         25    2    3    3    0    0  0.11510006562E+02 -0.30052595554E+02  0.87422101001E+02  0.15531683720E+03  0.12427814540E+03 0.  0.
          5    1    4    4  502    0 -0.47981999986E+02 -0.35486446793E+02 -0.56030589846E+01  0.60125240112E+02  0.47000000000E+01 0. -1.
         -5    1    4    4    0  502  0.36471993424E+02  0.65539042346E+02  0.18610803832E+02  0.77421084953E+02  0.47000000000E+01 0. -1.
          5    1    5    5  503    0 -0.39681834355E+01  0.43553900900E+02  0.61518999586E+02  0.75626490554E+02  0.47000000000E+01 0. -1.
         -5    1    5    5    0  503  0.15478189997E+02 -0.73606496453E+02  0.25903101415E+02  0.79690346646E+02  0.47000000000E+01 0. -1.
<mgrwt>
<rscale>  0 0.27510485E+03</rscale>
<asrwt>0</asrwt>
<pdfrwt beam="1">  1        2 0.14802563E-01 0.27510485E+03</pdfrwt>
<pdfrwt beam="2">  1       -2 0.30253308E-01 0.27510485E+03</pdfrwt>
<totfact> 0.39652492E+03</totfact>
</mgrwt>
</event>
<event>
 9    1  0.2094635E-002  0.2730193E+03  0.7818608E-02  0.1099564E+00
         -2   -1    0    0    0  501 -0.00000000000E+00  0.00000000000E+00  0.79733431376E+02  0.79733431376E+02  0.00000000000E+00 0.  1.
          2   -1    0    0  501    0  0.00000000000E+00 -0.00000000000E+00 -0.23371478055E+03  0.23371478055E+03  0.00000000000E+00 0.  1.
         36    2    1    2    0    0  0.00000000000E+00  0.35527136788E-14 -0.15398134917E+03  0.31344821193E+03  0.27301927710E+03 0.  0.
         25    2    3    3    0    0  0.20007155466E+02  0.28329721658E+02 -0.28834893970E+02  0.13380665057E+03  0.12597582795E+03 0.  0.
         25    2    3    3    0    0 -0.20007155466E+02 -0.28329721658E+02 -0.12514645520E+03  0.17964156136E+03  0.12412330933E+03 0.  0.
          5    1    4    4  502    0  0.52808542976E+02  0.22344498685E+02 -0.63357222573E+02  0.85581811648E+02  0.47000000000E+01 0. -1.
         -5    1    4    4    0  502 -0.32801387510E+02  0.59852229723E+01  0.34522328604E+02  0.48224838920E+02  0.47000000000E+01 0. -1.
          5    1    5    5  503    0  0.38858847596E+02 -0.15047952372E+02 -0.10930678381E+03  0.11707482178E+03  0.47000000000E+01 0. -1.
         -5    1    5    5    0  503 -0.58866003062E+02 -0.13281769285E+02 -0.15839671390E+02  0.62566739579E+02  0.47000000000E+01 0. -1.
<mgrwt>
<rscale>  0 0.27301928E+03</rscale>
<asrwt>0</asrwt>
<pdfrwt beam="1">  1        2 0.35956119E-01 0.27301928E+03</pdfrwt>
<pdfrwt beam="2">  1       -2 0.12266682E-01 0.27301928E+03</pdfrwt>
<totfact> 0.67937209E+03</totfact>
</mgrwt>
</event>
<event>
 9    1  0.2094635E-002  0.2753864E+03  0.7818608E-02  0.1098236E+00
         -3   -1    0    0    0  501 -0.00000000000E+00  0.00000000000E+00  0.73229212049E+03  0.73229212049E+03  0.00000000000E+00 0.  1.
          3   -1    0    0  501    0  0.00000000000E+00 -0.00000000000E+00 -0.25890520087E+02  0.25890520087E+02  0.00000000000E+00 0.  1.
         36    2    1    2    0    0  0.71054273576E-14 -0.35527136788E-14  0.70640160041E+03  0.75818264058E+03  0.27538644742E+03 0.  0.
         25    2    3    3    0    0 -0.52257857519E+01  0.44082916302E+01  0.25351449679E+03  0.28511182379E+03  0.13027820275E+03 0.  0.
         25    2    3    3    0    0  0.52257857519E+01 -0.44082916302E+01  0.45288710362E+03  0.47307081679E+03  0.13653764024E+03 0.  0.
          5    1    4    4  502    0 -0.35550351660E+02 -0.29922998849E+01  0.70929819337E+01  0.36676719516E+02  0.47000000000E+01 0.  1.
         -5    1    4    4    0  502  0.30324565908E+02  0.74005915151E+01  0.24642151485E+03  0.24843510427E+03  0.47000000000E+01 0.  1.
          5    1    5    5  503    0 -0.41472771061E+02 -0.41904408464E+02  0.10934279928E+03  0.12431374801E+03  0.47000000000E+01 0. -1.
         -5    1    5    5    0  503  0.46698556813E+02  0.37496116833E+02  0.34354430433E+03  0.34875706878E+03  0.47000000000E+01 0. -1.
<mgrwt>
<rscale>  0 0.27538645E+03</rscale>
<asrwt>0</asrwt>
<pdfrwt beam="1">  1        3 0.39831575E-02 0.27538645E+03</pdfrwt>
<pdfrwt beam="2">  1       -3 0.11266031E+00 0.27538645E+03</pdfrwt>
<totfact> 0.56898266E+02</totfact>
</mgrwt>
</event>
<event>
 9    1  0.2094635E-002  0.2748024E+03  0.7818608E-02  0.1098562E+00
          4   -1    0    0  501    0  0.00000000000E+00  0.00000000000E+00  0.16165970514E+03  0.16165970514E+03  0.00000000000E+00 0. -1.
         -4   -1    0    0    0  501 -0.00000000000E+00 -0.00000000000E+00 -0.11678286216E+03  0.11678286216E+03  0.00000000000E+00 0. -1.
         36    2    1    2    0    0 -0.53290705182E-14  0.35527136788E-14  0.44876842974E+02  0.27844256730E+03  0.27480235125E+03 0.  0.
         25    2    3    3    0    0  0.21002864146E+01 -0.18980753098E+02  0.78178223377E+02  0.14640590820E+03  0.12230361872E+03 0.  0.
         25    2    3    3    0    0 -0.21002864146E+01  0.18980753098E+02 -0.33301380403E+02  0.13203665911E+03  0.12633296173E+03 0.  0.
          5    1    4    4  502    0  0.15244541487E+02 -0.47658015281E+02  0.97089951831E+02  0.10932626040E+03  0.47000000000E+01 0.  1.
         -5    1    4    4    0  502 -0.13144255072E+02  0.28677262183E+02 -0.18911728455E+02  0.37079647799E+02  0.47000000000E+01 0.  1.
          5    1    5    5  503    0  0.42524589863E+02  0.11098275925E+02  0.30454625308E+02  0.53675754993E+02  0.47000000000E+01 0. -1.
         -5    1    5    5    0  503 -0.44624876277E+02  0.78824771729E+01 -0.63756005711E+02  0.78360904112E+02  0.47000000000E+01 0. -1.
<mgrwt>
<rscale>  0 0.27480235E+03</rscale>
<asrwt>0</asrwt>
<pdfrwt beam="1">  1        4 0.24870724E-01 0.27480235E+03</pdfrwt>
<pdfrwt beam="2">  1       -4 0.17966594E-01 0.27480235E+03</pdfrwt>
<totfact> 0.77632003E+02</totfact>
</mgrwt>
</event>
<event>
 9    1  0.2094635E-002  0.2747409E+03  0.7818608E-02  0.1098597E+00
         -1   -1    0    0    0  501 -0.00000000000E+00  0.00000000000E+00  0.33394860863E+03  0.33394860863E+03  0.00000000000E+00 0.  1.
          1   -1    0    0  501    0  0.00000000000E+00 -0.00000000000E+00 -0.56507598316E+02  0.56507598316E+02  0.00000000000E+00 0.  1.
         36    2    1    2    0    0  0.71054273576E-14  0.00000000000E+00  0.27744101031E+03  0.39045620694E+03  0.27474085124E+03 0.  0.
         25    2    3    3    0    0 -0.33525985817E+02  0.47712657164E+01  0.19502113434E+03  0.23500652915E+03  0.12668097412E+03 0.  0.
         25    2    3    3    0    0  0.33525985817E+02 -0.47712657164E+01  0.82419875971E+02  0.15544967779E+03  0.12737664491E+03 0.  0.
          5    1    4    4  502    0  0.22622829437E+02  0.39394441304E+02  0.23890166137E+02  0.51541676879E+02  0.47000000000E+01 0. -1.
         -5    1    4    4    0  502 -0.56148815254E+02 -0.34623175588E+02  0.17113096820E+03  0.18346485227E+03  0.47000000000E+01 0. -1.
          5    1    5    5  503    0  0.66119529225E+02  0.33290384595E+02  0.23174786871E+02  0.77712306605E+02  0.47000000000E+01 0. -1.
         -5    1    5    5    0  503 -0.32593543407E+02 -0.38061650311E+02  0.59245089100E+02  0.77737371185E+02  0.47000000000E+01 0. -1.
<mgrwt>
<rscale>  0 0.27474085E+03</rscale>
<asrwt>0</asrwt>
<pdfrwt beam="1">  1        1 0.86934769E-02 0.27474085E+03</pdfrwt>
<pdfrwt beam="2">  1       -1 0.51376708E-01 0.27474085E+03</pdfrwt>
<totfact> 0.30196365E+03</totfact>
</mgrwt>
</event>
<event>
 9    1  0.2094635E-002  0.2735053E+03  0.7818608E-02  0.1099290E+00
         -1   -1    0    0    0  501 -0.00000000000E+00  0.00000000000E+00  0.20623990170E+03  0.20623990170E+03  0.00000000000E+00 0.  1.
          1   -1    0    0  501    0  0.00000000000E+00 -0.00000000000E+00 -0.90677315983E+02  0.90677315983E+02  0.00000000000E+00 0.  1.
         36    2    1    2    0    0  0.88817841970E-15 -0.14210854715E-13  0.11556258571E+03  0.29691721768E+03  0.27350525212E+03 0.  0.
         25    2    3    3    0    0 -0.29227218268E+01 -0.84571897806E+02  0.26057118518E+02  0.12291196690E+03  0.85249222755E+02 0.  0.
         25    2    3    3    0    0  0.29227218268E+01  0.84571897806E+02  0.89505467196E+02  0.17400525078E+03  0.12290504644E+03 0.  0.
          5    1    4    4  502    0  0.16768954368E+01 -0.29585820992E+02  0.53323706175E+02  0.61185295801E+02  0.47000000000E+01 0. -1.
         -5    1    4    4    0  502 -0.45996172635E+01 -0.54986076814E+02 -0.27266587657E+02  0.61726671098E+02  0.47000000000E+01 0. -1.
          5    1    5    5  503    0 -0.39795525088E+02  0.96561358537E+02  0.64918383614E+02  0.12306204253E+03  0.47000000000E+01 0.  1.
         -5    1    5    5    0  503  0.42718246915E+02 -0.11989460731E+02  0.24587083582E+02  0.50943208253E+02  0.47000000000E+01 0.  1.
<mgrwt>
<rscale>  0 0.27350525E+03</rscale>
<asrwt>0</asrwt>
<pdfrwt beam="1">  1        1 0.13950356E-01 0.27350525E+03</pdfrwt>
<pdfrwt beam="2">  1       -1 0.31729216E-01 0.27350525E+03</pdfrwt>
<totfact> 0.37853036E+03</totfact>
</mgrwt>
</event>
<event>
 9    1  0.2094635E-002  0.2747843E+03  0.7818608E-02  0.1098572E+00
          4   -1    0    0  501    0  0.00000000000E+00  0.00000000000E+00  0.65906710316E+03  0.65906710316E+03  0.00000000000E+00 0.  1.
         -4   -1    0    0    0  501 -0.00000000000E+00 -0.00000000000E+00 -0.28641405567E+02  0.28641405567E+02  0.00000000000E+00 0.  1.
         36    2    1    2    0    0  0.00000000000E+00 -0.14210854715E-13  0.63042569759E+03  0.68770850873E+03  0.27478433869E+03 0.  0.
         25    2    3    3    0    0  0.32281340066E+01  0.65616301081E+02  0.40453033333E+03  0.42564330400E+03  0.11494134085E+03 0.  0.
         25    2    3    3    0    0 -0.32281340066E+01 -0.65616301081E+02  0.22589536426E+03  0.26206520473E+03  0.11547093192E+03 0.  0.
          5    1    4    4  502    0 -0.19259059787E+02  0.47492266727E+02  0.38924027255E+03  0.39262769459E+03  0.47000000000E+01 0. -1.
         -5    1    4    4    0  502  0.22487193794E+02  0.18124034354E+02  0.15290060783E+02  0.33015609410E+02  0.47000000000E+01 0. -1.
          5    1    5    5  503    0 -0.11351656008E+02 -0.58393436870E+01  0.19244569762E+03  0.19292587841E+03  0.47000000000E+01 0. -1.
         -5    1    5    5    0  503  0.81235220017E+01 -0.59776957394E+02  0.33449666636E+02  0.69139326313E+02  0.47000000000E+01 0. -1.
<mgrwt>
<rscale>  0 0.27478434E+03</rscale>
<asrwt>0</asrwt>
<pdfrwt beam="1">  1        4 0.10139493E+00 0.27478434E+03</pdfrwt>
<pdfrwt beam="2">  1       -4 0.44063706E-02 0.27478434E+03</pdfrwt>
<totfact> 0.45320739E+02</totfact>
</mgrwt>
</event>
<event>
 9    1  0.2094635E-002  0.2754108E+03  0.7818608E-02  0.1098222E+00
          2   -1    0    0  501    0  0.00000000000E+00  0.00000000000E+00  0.13569110939E+04  0.13569110939E+04  0.00000000000E+00 0. -1.
         -2   -1    0    0    0  501 -0.00000000000E+00 -0.00000000000E+00 -0.13974957620E+02  0.13974957620E+02  0.00000000000E+00 0. -1.
         36    2    1    2    0    0 -0.71054273576E-14 -0.35527136788E-14  0.13429361362E+04  0.13708860515E+04  0.27541078432E+03 0.  0.
         25    2    3    3    0    0 -0.33576093155E+02 -0.31478616959E+02  0.83321102757E+03  0.84364779493E+03  0.12402712637E+03 0.  0.
         25    2    3    3    0    0  0.33576093155E+02  0.31478616959E+02  0.50972510867E+03  0.52723825654E+03  0.12665794645E+03 0.  0.
          5    1    4    4  502    0  0.47146355227E+02 -0.87352179898E+01  0.32090242165E+03  0.32449890149E+03  0.47000000000E+01 0.  1.
         -5    1    4    4    0  502 -0.80722448382E+02 -0.22743398969E+02  0.51230860591E+03  0.51914889344E+03  0.47000000000E+01 0.  1.
          5    1    5    5  503    0  0.77885865117E+02  0.99594040303E+01  0.22767479808E+03  0.24088026360E+03  0.47000000000E+01 0.  1.
         -5    1    5    5    0  503 -0.44309771962E+02  0.21519212929E+02  0.28205031059E+03  0.28635799294E+03  0.47000000000E+01 0.  1.
<mgrwt>
<rscale>  0 0.27541078E+03</rscale>
<asrwt>0</asrwt>
<pdfrwt beam="1">  1        2 0.20875545E+00 0.27541078E+03</pdfrwt>
<pdfrwt beam="2">  1       -2 0.21499946E-02 0.27541078E+03</pdfrwt>
<totfact> 0.11332699E+04</totfact>
</mgrwt>
</event>
<event>
 9    1  0.2094635E-002  0.2738656E+03  0.7818608E-02  0.1099087E+00
          1   -1    0    0  501    0  0.00000000000E+00  0.00000000000E+00  0.11015920848E+04  0.11015920848E+04  0.00000000000E+00 0. -1.
         -1   -1    0    0    0  501 -0.00000000000E+00 -0.00000000000E+00 -0.17021351292E+02  0.17021351292E+02  0.00000000000E+00 0. -1.
         36    2    1    2    0    0 -0.71054273576E-14  0.71054273576E-14  0.10845707335E+04  0.11186134361E+04  0.27386555721E+03 0.  0.
         25    2    3    3    0    0 -0.34351520873E+02  0.40920822875E+02  0.56747245051E+03  0.58363715056E+03  0.12551016173E+03 0.  0.
         25    2    3    3    0    0  0.34351520873E+02 -0.40920822875E+02  0.51709828303E+03  0.53497628556E+03  0.12631093013E+03 0.  0.
          5    1    4    4  502    0 -0.47693115532E+02  0.66906015726E+02  0.21970276580E+03  0.23461126040E+03  0.47000000000E+01 0. -1.
         -5    1    4    4    0  502  0.13341594660E+02 -0.25985192851E+02  0.34776968471E+03  0.34902589016E+03  0.47000000000E+01 0. -1.
          5    1    5    5  503    0  0.50555976594E+02  0.82171059907E+01  0.82062639443E+02  0.96849338628E+02  0.47000000000E+01 0.  1.
         -5    1    5    5    0  503 -0.16204455721E+02 -0.49137928865E+02  0.43503564359E+03  0.43812694694E+03  0.47000000000E+01 0.  1.
<mgrwt>
<rscale>  0 0.27386556E+03</rscale>
<asrwt>0</asrwt>
<pdfrwt beam="1">  1        1 0.16947565E+00 0.27386556E+03</pdfrwt>
<pdfrwt beam="2">  1       -1 0.26186703E-02 0.27386556E+03</pdfrwt>
<totfact> 0.62030010E+03</totfact>
</mgrwt>
</event>
<event>
 9    1  0.2094635E-002  0.2752924E+03  0.7818608E-02  0.1098288E+00
         -2   -1    0    0    0  501 -0.00000000000E+00  0.00000000000E+00  0.14602930050E+03  0.14602930050E+03  0.00000000000E+00 0.  1.
          2   -1    0    0  501    0  0.00000000000E+00 -0.00000000000E+00 -0.12974433976E+03  0.12974433976E+03  0.00000000000E+00 0.  1.
         36    2    1    2    0    0  0.00000000000E+00  0.71054273576E-14  0.16284960741E+02  0.27577364026E+03  0.27529239131E+03 0.  0.
         25    2    3    3    0    0 -0.29425383974E+02 -0.20623354231E+02 -0.38451182241E+02  0.13497811184E+03  0.12429570105E+03 0.  0.
         25    2    3    3    0    0  0.29425383974E+02  0.20623354231E+02  0.54736142982E+02  0.14079552842E+03  0.12464413148E+03 0.  0.
          5    1    4    4  502    0 -0.26435811058E+02 -0.70907646455E+02 -0.36995508581E+02  0.84365301441E+02  0.47000000000E+01 0. -1.
         -5    1    4    4    0  502 -0.29895729157E+01  0.50284292224E+02 -0.14556736594E+01  0.50612810399E+02  0.47000000000E+01 0. -1.
          5    1    5    5  503    0  0.59882679776E+02 -0.27500932200E+02  0.51125742587E+02  0.83535430591E+02  0.47000000000E+01 0. -1.
         -5    1    5    5    0  503 -0.30457295802E+02  0.48124286431E+02  0.36104003947E+01  0.57260097826E+02  0.47000000000E+01 0. -1.
<mgrwt>
<rscale>  0 0.27529239E+03</rscale>
<asrwt>0</asrwt>
<pdfrwt beam="1">  1        2 0.19960667E-01 0.27529239E+03</pdfrwt>
<pdfrwt beam="2">  1       -2 0.22466046E-01 0.27529239E+03</pdfrwt>
<totfact> 0.47474909E+03</totfact>
</mgrwt>
</event>
<event>
 9    1  0.2094635E-002  0.2749798E+03  0.7818608E-02  0.1098463E+00
          2   -1    0    0  501    0  0.00000000000E+00  0.00000000000E+00  0.91308391570E+03  0.91308391570E+03  0.00000000000E+00 0.  1.
         -2   -1    0    0    0  501 -0.00000000000E+00 -0.00000000000E+00 -0.20702887427E+02  0.20702887427E+02  0.00000000000E+00 0.  1.
         36    2    1    2    0    0  0.71054273576E-14  0.71054273576E-14  0.89238102827E+03  0.93378680312E+03  0.27497980666E+03 0.  0.
         25    2    3    3    0    0  0.51283344767E+02  0.84905622714E+01  0.50701983617E+03  0.52516877092E+03  0.12661379300E+03 0.  0.
         25    2    3    3    0    0 -0.51283344767E+02 -0.84905622714E+01  0.38536119209E+03  0.40861803220E+03  0.12555228700E+03 0.  0.
          5    1    4    4  502    0  0.30850560107E+02 -0.24229936249E+02  0.46947096681E+03  0.47113047614E+03  0.47000000000E+01 0.  1.
         -5    1    4    4    0  502  0.20432784660E+02  0.32720498520E+02  0.37548869362E+02  0.54038294780E+02  0.47000000000E+01 0.  1.
          5    1    5    5  503    0 -0.50424483315E+02  0.48057789123E+02  0.28395975148E+03  0.29241650103E+03  0.47000000000E+01 0. -1.
         -5    1    5    5    0  503 -0.85886145271E+00 -0.56548351394E+02  0.10140144061E+03  0.11620153117E+03  0.47000000000E+01 0. -1.
<mgrwt>
<rscale>  0 0.27497981E+03</rscale>
<asrwt>0</asrwt>
<pdfrwt beam="1">  1        2 0.14047442E+00 0.27497981E+03</pdfrwt>
<pdfrwt beam="2">  1       -2 0.31850603E-02 0.27497981E+03</pdfrwt>
<totfact> 0.11504049E+04</totfact>
</mgrwt>
</event>
<event>
 9    1  0.2094635E-002  0.2745587E+03  0.7818608E-02  0.1098699E+00
          2   -1    0    0  501    0  0.00000000000E+00  0.00000000000E+00  0.15172178984E+03  0.15172178984E+03  0.00000000000E+00 0.  1.
         -2   -1    0    0    0  501 -0.00000000000E+00 -0.00000000000E+00 -0.12421165062E+03  0.12421165062E+03  0.00000000000E+00 0.  1.
         36    2    1    2    0    0  0.00000000000E+00  0.00000000000E+00  0.27510139221E+02  0.27593344046E+03  0.27455865640E+03 0.  0.
         25    2    3    3    0    0 -0.19757143854E+02  0.36351583940E+02  0.63277778474E+02  0.14093207997E+03  0.11893692248E+03 0.  0.
         25    2    3    3    0    0  0.19757143854E+02 -0.36351583940E+02 -0.35767639253E+02  0.13500136049E+03  0.12342714826E+03 0.  0.
          5    1    4    4  502    0 -0.41992109846E+02  0.62213736783E+02  0.77599828765E+01  0.75605513477E+02  0.47000000000E+01 0. -1.
         -5    1    4    4    0  502  0.22234965992E+02 -0.25862152843E+02  0.55517795597E+02  0.65326566497E+02  0.47000000000E+01 0. -1.
          5    1    5    5  503    0 -0.17469095329E+02 -0.58010118040E+02 -0.59970671576E+02  0.85375140035E+02  0.47000000000E+01 0. -1.
         -5    1    5    5    0  503  0.37226239183E+02  0.21658534099E+02  0.24203032324E+02  0.49626220456E+02  0.47000000000E+01 0. -1.
<mgrwt>
<rscale>  0 0.27455866E+03</rscale>
<asrwt>0</asrwt>
<pdfrwt beam="1">  1        2 0.23341814E-01 0.27455866E+03</pdfrwt>
<pdfrwt beam="2">  1       -2 0.19109485E-01 0.27455866E+03</pdfrwt>
<totfact> 0.52488449E+03</totfact>
</mgrwt>
</event>
<event>
 9    1  0.2094635E-002  0.2744925E+03  0.7818608E-02  0.1098736E+00
          2   -1    0    0  501    0  0.00000000000E+00  0.00000000000E+00  0.18621246838E+04  0.18621246838E+04  0.00000000000E+00 0. -1.
         -2   -1    0    0    0  501 -0.00000000000E+00 -0.00000000000E+00 -0.10115611626E+02  0.10115611626E+02  0.00000000000E+00 0. -1.
         36    2    1    2    0    0  0.00000000000E+00  0.00000000000E+00  0.18520090722E+04  0.18722402955E+04  0.27449247786E+03 0.  0.
         25    2    3    3    0    0  0.26866206312E+02 -0.46742392743E+02  0.10422226551E+04  0.10509994358E+04  0.12435878255E+03 0.  0.
         25    2    3    3    0    0 -0.26866206312E+02  0.46742392743E+02  0.80978641707E+03  0.82124085969E+03  0.12560200644E+03 0.  0.
          5    1    4    4  502    0 -0.11380782803E+02  0.36237502052E+02  0.46484963963E+03  0.46642250828E+03  0.47000000000E+01 0.  1.
         -5    1    4    4    0  502  0.38246989115E+02 -0.82979894795E+02  0.57737301550E+03  0.58457692748E+03  0.47000000000E+01 0.  1.
          5    1    5    5  503    0 -0.25787198542E+02  0.89496695922E+02  0.52397267555E+03  0.53220681404E+03  0.47000000000E+01 0. -1.
         -5    1    5    5    0  503 -0.10790077699E+01 -0.42754303179E+02  0.28581374153E+03  0.28903404565E+03  0.47000000000E+01 0. -1.
<mgrwt>
<rscale>  0 0.27449248E+03</rscale>
<asrwt>0</asrwt>
<pdfrwt beam="1">  1        2 0.28648045E+00 0.27449248E+03</pdfrwt>
<pdfrwt beam="2">  1       -2 0.15562494E-02 0.27449248E+03</pdfrwt>
<totfact> 0.98130416E+03</totfact>
</mgrwt>
</event>
<event>
 9    1  0.2094635E-002  0.2740925E+03  0.7818608E-02  0.1098960E+00
          2   -1    0    0  501    0  0.00000000000E+00  0.00000000000E+00  0.87525418029E+03  0.87525418029E+03  0.00000000000E+00 0.  1.
         -2   -1    0    0    0  501 -0.00000000000E+00 -0.00000000000E+00 -0.21458531149E+02  0.21458531149E+02  0.00000000000E+00 0.  1.
         36    2    1    2    0    0  0.71054273576E-14 -0.35527136788E-14  0.85379564915E+03  0.89671271144E+03  0.27409245952E+03 0.  0.
         25    2    3    3    0    0 -0.43209199955E+02  0.48440215231E+01  0.33104629044E+03  0.35745986199E+03  0.12765346455E+03 0.  0.
         25    2    3    3    0    0  0.43209199955E+02 -0.48440215231E+01  0.52274935870E+03  0.53925284945E+03  0.12504496837E+03 0.  0.
          5    1    4    4  502    0 -0.72239999674E+02  0.41365035628E+02  0.25328399635E+03  0.26665437655E+03  0.47000000000E+01 0.  1.
         -5    1    4    4    0  502  0.29030799718E+02 -0.36521014104E+02  0.77762294090E+02  0.90805485438E+02  0.47000000000E+01 0.  1.
          5    1    5    5  503    0 -0.34204068448E+02  0.25565412434E+02  0.10820846870E+03  0.11642453054E+03  0.47000000000E+01 0. -1.
         -5    1    5    5    0  503  0.77413268403E+02 -0.30409433957E+02  0.41454089000E+03  0.42282831892E+03  0.47000000000E+01 0. -1.
<mgrwt>
<rscale>  0 0.27409246E+03</rscale>
<asrwt>0</asrwt>
<pdfrwt beam="1">  1        2 0.13465446E+00 0.27409246E+03</pdfrwt>
<pdfrwt beam="2">  1       -2 0.33013132E-02 0.27409246E+03</pdfrwt>
<totfact> 0.11537089E+04</totfact>
</mgrwt>
</event>
<event>
 9    1  0.2094635E-002  0.2750001E+03  0.7818608E-02  0.1098452E+00
          3   -1    0    0  501    0  0.00000000000E+00  0.00000000000E+00  0.15355464473E+03  0.15355464473E+03  0.00000000000E+00 0. -1.
         -3   -1    0    0    0  501 -0.00000000000E+00 -0.00000000000E+00 -0.12312397581E+03  0.12312397581E+03  0.00000000000E+00 0. -1.
         36    2    1    2    0    0  0.71054273576E-14  0.35527136788E-14  0.30430668920E+02  0.27667862054E+03  0.27500006082E+03 0.  0.
         25    2    3    3    0    0  0.31314121975E+02  0.10613418385E+02 -0.54292369631E+02  0.14011260752E+03  0.12486257446E+03 0.  0.
         25    2    3    3    0    0 -0.31314121975E+02 -0.10613418385E+02  0.84723038551E+02  0.13656601302E+03  0.10187769022E+03 0.  0.
          5    1    4    4  502    0 -0.14193368877E+01  0.54782668661E+02 -0.63677574979E+02  0.84143204467E+02  0.47000000000E+01 0. -1.
         -5    1    4    4    0  502  0.32733458863E+02 -0.44169250276E+02  0.93852053478E+01  0.55969403056E+02  0.47000000000E+01 0. -1.
          5    1    5    5  503    0 -0.63783324448E+02 -0.17572866146E+02  0.77953263302E+02  0.10235193873E+03  0.47000000000E+01 0. -1.
         -5    1    5    5    0  503  0.32469202473E+02  0.69594477603E+01  0.67697752493E+01  0.34214074287E+02  0.47000000000E+01 0. -1.
<mgrwt>
<rscale>  0 0.27500006E+03</rscale>
<asrwt>0</asrwt>
<pdfrwt beam="1">  1        3 0.23623791E-01 0.27500006E+03</pdfrwt>
<pdfrwt beam="2">  1       -3 0.18942150E-01 0.27500006E+03</pdfrwt>
<totfact> 0.10463704E+03</totfact>
</mgrwt>
</event>
<event>
 9    1  0.2094635E-002  0.2747688E+03  0.7818608E-02  0.1098581E+00
          2   -1    0    0  501    0  0.00000000000E+00  0.00000000000E+00  0.31691861699E+03  0.31691861699E+03  0.00000000000E+00 0. -1.
         -2   -1    0    0    0  501 -0.00000000000E+00 -0.00000000000E+00 -0.59556233297E+02  0.59556233297E+02  0.00000000000E+00 0. -1.
         36    2    1    2    0    0 -0.71054273576E-14 -0.17763568394E-14  0.25736238369E+03  0.37647485028E+03  0.27476884168E+03 0.  0.
         25    2    3    3    0    0 -0.52594380534E+02 -0.78762218358E+01  0.16614843684E+03  0.21375057402E+03  0.12351437607E+03 0.  0.
         25    2    3    3    0    0  0.52594380534E+02  0.78762218358E+01  0.91213946853E+02  0.16272427626E+03  0.12381842452E+03 0.  0.
          5    1    4    4  502    0  0.31517727561E+02  0.61470896065E+01  0.70965616341E+01  0.33220551595E+02  0.47000000000E+01 0.  1.
         -5    1    4    4    0  502 -0.84112108095E+02 -0.14023311442E+02  0.15905187520E+03  0.18053002243E+03  0.47000000000E+01 0.  1.
          5    1    5    5  503    0  0.14748324677E+02  0.47432801006E+02 -0.68034804991E+01  0.50356340603E+02  0.47000000000E+01 0.  1.
         -5    1    5    5    0  503  0.37846055858E+02 -0.39556579170E+02  0.98017427352E+02  0.11236793566E+03  0.47000000000E+01 0.  1.
<mgrwt>
<rscale>  0 0.27476884E+03</rscale>
<asrwt>0</asrwt>
<pdfrwt beam="1">  1        2 0.48756709E-01 0.27476884E+03</pdfrwt>
<pdfrwt beam="2">  1       -2 0.91624976E-02 0.27476884E+03</pdfrwt>
<totfact> 0.77997621E+03</totfact>
</mgrwt>
</event>
<event>
 9    1  0.2094635E-002  0.2738396E+03  0.7818608E-02  0.1099102E+00
          2   -1    0    0  501    0  0.00000000000E+00  0.00000000000E+00  0.23778498505E+03  0.23778498505E+03  0.00000000000E+00 0. -1.
         -2   -1    0    0    0  501 -0.00000000000E+00 -0.00000000000E+00 -0.78840273993E+02  0.78840273993E+02  0.00000000000E+00 0. -1.
         36    2    1    2    0    0  0.71054273576E-14 -0.35527136788E-14  0.15894471106E+03  0.31662525904E+03  0.27383961271E+03 0.  0.
         25    2    3    3    0    0 -0.38298966992E+02 -0.20109891390E+02  0.39983885242E+02  0.14018045458E+03  0.12720310595E+03 0.  0.
         25    2    3    3    0    0  0.38298966992E+02  0.20109891390E+02  0.11896082582E+03  0.17644480446E+03  0.12292222068E+03 0.  0.
          5    1    4    4  502    0 -0.79534254607E+02  0.13675867287E+02  0.23570465943E+02  0.84204417145E+02  0.47000000000E+01 0. -1.
         -5    1    4    4    0  502  0.41235287615E+02 -0.33785758677E+02  0.16413419298E+02  0.55976037437E+02  0.47000000000E+01 0. -1.
          5    1    5    5  503    0  0.29345515572E+02  0.59101568892E+02  0.11901332393E+03  0.13616319622E+03  0.47000000000E+01 0. -1.
         -5    1    5    5    0  503  0.89534514193E+01 -0.38991677502E+02 -0.52498118430E-01  0.40281608245E+02  0.47000000000E+01 0. -1.
<mgrwt>
<rscale>  0 0.27383961E+03</rscale>
<asrwt>0</asrwt>
<pdfrwt beam="1">  1        2 0.36582305E-01 0.27383961E+03</pdfrwt>
<pdfrwt beam="2">  1       -2 0.12129273E-01 0.27383961E+03</pdfrwt>
<totfact> 0.67911367E+03</totfact>
</mgrwt>
</event>
<event>
 9    1  0.2094635E-002  0.2741860E+03  0.7818608E-02  0.1098907E+00
          1   -1    0    0  501    0  0.00000000000E+00  0.00000000000E+00  0.80348416806E+03  0.80348416806E+03  0.00000000000E+00 0. -1.
         -1   -1    0    0    0  501 -0.00000000000E+00 -0.00000000000E+00 -0.23391244615E+02  0.23391244615E+02  0.00000000000E+00 0. -1.
         36    2    1    2    0    0  0.00000000000E+00  0.10658141036E-13  0.78009292345E+03  0.82687541268E+03  0.27418602969E+03 0.  0.
         25    2    3    3    0    0  0.48354582647E+02 -0.22533995477E+02  0.43621185509E+03  0.45674269081E+03  0.12444740444E+03 0.  0.
         25    2    3    3    0    0 -0.48354582647E+02  0.22533995477E+02  0.34388106835E+03  0.37013272186E+03  0.12608765208E+03 0.  0.
          5    1    4    4  502    0  0.85367731830E+01 -0.49912035042E+02  0.65793741381E+02  0.83156443787E+02  0.47000000000E+01 0.  1.
         -5    1    4    4    0  502  0.39817809464E+02  0.27378039566E+02  0.37041811371E+03  0.37358624702E+03  0.47000000000E+01 0.  1.
          5    1    5    5  503    0 -0.36340009969E+01  0.53070362983E+02  0.28515575995E+03  0.29011302422E+03  0.47000000000E+01 0.  1.
         -5    1    5    5    0  503 -0.44720581650E+02 -0.30536367506E+02  0.58725308402E+02  0.80019697640E+02  0.47000000000E+01 0.  1.
<mgrwt>
<rscale>  0 0.27418603E+03</rscale>
<asrwt>0</asrwt>
<pdfrwt beam="1">  1        1 0.12361293E+00 0.27418603E+03</pdfrwt>
<pdfrwt beam="2">  1       -1 0.35986536E-02 0.27418603E+03</pdfrwt>
<totfact> 0.65762819E+03</totfact>
</mgrwt>
</event>
<event>
 9    1  0.2094635E-002  0.2773599E+03  0.7818608E-02  0.1097140E+00
         -2   -1    0    0    0  501 -0.00000000000E+00  0.00000000000E+00  0.19129800715E+03  0.19129800715E+03  0.00000000000E+00 0. -1.
          2   -1    0    0  501    0  0.00000000000E+00 -0.00000000000E+00 -0.10053492147E+03  0.10053492147E+03  0.00000000000E+00 0. -1.
         36    2    1    2    0    0  0.00000000000E+00 -0.71054273576E-14  0.90763085682E+02  0.29183292861E+03  0.27735991149E+03 0.  0.
         25    2    3    3    0    0  0.16221761316E+02  0.43915913477E+02 -0.39652538035E+01  0.13375569900E+03  0.12523222741E+03 0.  0.
         25    2    3    3    0    0 -0.16221761316E+02 -0.43915913477E+02  0.94728339486E+02  0.15807722961E+03  0.11757210223E+03 0.  0.
          5    1    4    4  502    0 -0.13469226418E+01  0.18648177021E+02 -0.63614180190E+02  0.66471216538E+02  0.47000000000E+01 0.  1.
         -5    1    4    4    0  502  0.17568683958E+02  0.25267736456E+02  0.59648926386E+02  0.67284482466E+02  0.47000000000E+01 0.  1.
          5    1    5    5  503    0 -0.21418250108E+02 -0.41667775079E+02  0.12150427536E+03  0.13030857166E+03  0.47000000000E+01 0.  1.
         -5    1    5    5    0  503  0.51964887912E+01 -0.22481383984E+01 -0.26775935877E+02  0.27768657946E+02  0.47000000000E+01 0.  1.
<mgrwt>
<rscale>  0 0.27735991E+03</rscale>
<asrwt>0</asrwt>
<pdfrwt beam="1">  1        2 0.15466911E-01 0.27735991E+03</pdfrwt>
<pdfrwt beam="2">  1       -2 0.29430463E-01 0.27735991E+03</pdfrwt>
<totfact> 0.39585495E+03</totfact>
</mgrwt>
</event>
<event>
 9    1  0.2094635E-002  0.2752337E+03  0.7818608E-02  0.1098321E+00
          2   -1    0    0  501    0  0.00000000000E+00  0.00000000000E+00  0.11398028232E+04  0.11398028232E+04  0.00000000000E+00 0.  1.
         -2   -1    0    0    0  501 -0.00000000000E+00 -0.00000000000E+00 -0.16615502849E+02  0.16615502849E+02  0.00000000000E+00 0.  1.
         36    2    1    2    0    0  0.00000000000E+00 -0.88817841970E-15  0.11231873203E+04  0.11564183260E+04  0.27523369747E+03 0.  0.
         25    2    3    3    0    0  0.46683680219E+02  0.59219645140E+01  0.74182948950E+03  0.75345808266E+03  0.12318139133E+03 0.  0.
         25    2    3    3    0    0 -0.46683680219E+02 -0.59219645140E+01  0.38135783082E+03  0.40296024336E+03  0.12136196660E+03 0.  0.
          5    1    4    4  502    0  0.40416481095E+02  0.12395038389E+02  0.74207498092E+03  0.74329300833E+03  0.47000000000E+01 0.  1.
         -5    1    4    4    0  502  0.62671991237E+01 -0.64730738752E+01 -0.24549141436E+00  0.10165074337E+02  0.47000000000E+01 0.  1.
          5    1    5    5  503    0  0.88721544922E+01 -0.50918168930E+02  0.22592795523E+03  0.23181222143E+03  0.47000000000E+01 0.  1.
         -5    1    5    5    0  503 -0.55555834711E+02  0.44996204416E+02  0.15542987560E+03  0.17114802193E+03  0.47000000000E+01 0.  1.
<mgrwt>
<rscale>  0 0.27523370E+03</rscale>
<asrwt>0</asrwt>
<pdfrwt beam="1">  1        2 0.17535422E+00 0.27523370E+03</pdfrwt>
<pdfrwt beam="2">  1       -2 0.25562321E-02 0.27523370E+03</pdfrwt>
<totfact> 0.11620138E+04</totfact>
</mgrwt>
</event>
<event>
 9    1  0.2094635E-002  0.2763081E+03  0.7818608E-02  0.1097723E+00
          1   -1    0    0  501    0  0.00000000000E+00  0.00000000000E+00  0.50263601038E+03  0.50263601038E+03  0.00000000000E+00 0.  1.
         -1   -1    0    0    0  501 -0.00000000000E+00 -0.00000000000E+00 -0.37972889536E+02  0.37972889536E+02  0.00000000000E+00 0.  1.
         36    2    1    2    0    0  0.00000000000E+00  0.00000000000E+00  0.46466312084E+03  0.54060889992E+03  0.27630810121E+03 0.  0.
         25    2    3    3    0    0  0.35245615040E+02 -0.40637288696E+02  0.27817384731E+03  0.31050930138E+03  0.12704996776E+03 0.  0.
         25    2    3    3    0    0 -0.35245615040E+02  0.40637288696E+02  0.18648927353E+03  0.23009959853E+03  0.12358775623E+03 0.  0.
          5    1    4    4  502    0  0.33372794413E+02  0.13986609502E+02  0.24214341215E+03  0.24487729723E+03  0.47000000000E+01 0.  1.
         -5    1    4    4    0  502  0.18728206267E+01 -0.54623898197E+02  0.36030435164E+02  0.65632004155E+02  0.47000000000E+01 0.  1.
          5    1    5    5  503    0 -0.59158807369E+02  0.62309138906E+02  0.17588576102E+03  0.19580624150E+03  0.47000000000E+01 0.  1.
         -5    1    5    5    0  503  0.23913192329E+02 -0.21671850211E+02  0.10603512515E+02  0.34293357033E+02  0.47000000000E+01 0.  1.
<mgrwt>
<rscale>  0 0.27630810E+03</rscale>
<asrwt>0</asrwt>
<pdfrwt beam="1">  1        1 0.77328612E-01 0.27630810E+03</pdfrwt>
<pdfrwt beam="2">  1       -1 0.58419834E-02 0.27630810E+03</pdfrwt>
<totfact> 0.62102892E+03</totfact>
</mgrwt>
</event>
<event>
 9    1  0.2094635E-002  0.2749944E+03  0.7818608E-02  0.1098455E+00
         -2   -1    0    0    0  501 -0.00000000000E+00  0.00000000000E+00  0.17525724940E+02  0.17525724940E+02  0.00000000000E+00 0. -1.
          2   -1    0    0  501    0  0.00000000000E+00 -0.00000000000E+00 -0.10787277516E+04  0.10787277516E+04  0.00000000000E+00 0. -1.
         36    2    1    2    0    0  0.00000000000E+00  0.00000000000E+00 -0.10612020266E+04  0.10962534765E+04  0.27499444256E+03 0.  0.
         25    2    3    3    0    0 -0.26416033060E+02  0.36768814496E+01 -0.35469503937E+03  0.37906385111E+03  0.13103246163E+03 0.  0.
         25    2    3    3    0    0  0.26416033060E+02 -0.36768814496E+01 -0.70650698727E+03  0.71718962542E+03  0.12040560403E+03 0.  0.
          5    1    4    4  502    0 -0.55251935432E+02  0.52713244304E+02 -0.21136835373E+03  0.22478908660E+03  0.47000000000E+01 0. -1.
         -5    1    4    4    0  502  0.28835902372E+02 -0.49036362854E+02 -0.14332668564E+03  0.15427476451E+03  0.47000000000E+01 0. -1.
          5    1    5    5  503    0  0.43288887718E+02  0.45071172139E+02 -0.24923919289E+03  0.25699728332E+03  0.47000000000E+01 0.  1.
         -5    1    5    5    0  503 -0.16872854658E+02 -0.48748053588E+02 -0.45726779438E+03  0.46019234210E+03  0.47000000000E+01 0.  1.
<mgrwt>
<rscale>  0 0.27499444E+03</rscale>
<asrwt>0</asrwt>
<pdfrwt beam="1">  1        2 0.16595813E+00 0.27499444E+03</pdfrwt>
<pdfrwt beam="2">  1       -2 0.26962651E-02 0.27499444E+03</pdfrwt>
<totfact> 0.11658211E+04</totfact>
</mgrwt>
</event>
<event>
 9    1  0.2094635E-002  0.2758540E+03  0.7818608E-02  0.1097975E+00
          3   -1    0    0  501    0  0.00000000000E+00  0.00000000000E+00  0.98627438711E+02  0.98627438711E+02  0.00000000000E+00 0.  1.
         -3   -1    0    0    0  501 -0.00000000000E+00 -0.00000000000E+00 -0.19288607300E+03  0.19288607300E+03  0.00000000000E+00 0.  1.
         36    2    1    2    0    0  0.35527136788E-14  0.00000000000E+00 -0.94258634294E+02  0.29151351172E+03  0.27585401461E+03 0.  0.
         25    2    3    3    0    0 -0.35337708347E+01  0.28655440452E+02 -0.11846225174E+02  0.13740900233E+03  0.13381808199E+03 0.  0.
         25    2    3    3    0    0  0.35337708347E+01 -0.28655440452E+02 -0.82412409120E+02  0.15410450938E+03  0.12697548122E+03 0.  0.
          5    1    4    4  502    0  0.28322099205E+02  0.67176794697E+02  0.22659012510E+02  0.76487802276E+02  0.47000000000E+01 0. -1.
         -5    1    4    4    0  502 -0.31855870039E+02 -0.38521354246E+02 -0.34505237683E+02  0.60921200057E+02  0.47000000000E+01 0. -1.
          5    1    5    5  503    0  0.57738914473E+02  0.15297431721E+02 -0.43728136969E+02  0.74175694297E+02  0.47000000000E+01 0. -1.
         -5    1    5    5    0  503 -0.54205143638E+02 -0.43952872172E+02 -0.38684272151E+02  0.79928815085E+02  0.47000000000E+01 0. -1.
<mgrwt>
<rscale>  0 0.27585401E+03</rscale>
<asrwt>0</asrwt>
<pdfrwt beam="1">  1        3 0.15173452E-01 0.27585401E+03</pdfrwt>
<pdfrwt beam="2">  1       -3 0.29674780E-01 0.27585401E+03</pdfrwt>
<totfact> 0.10142707E+03</totfact>
</mgrwt>
</event>
<event>
 9    1  0.2094635E-002  0.2751997E+03  0.7818608E-02  0.1098340E+00
          2   -1    0    0  501    0  0.00000000000E+00  0.00000000000E+00  0.14496071567E+04  0.14496071567E+04  0.00000000000E+00 0.  1.
         -2   -1    0    0    0  501 -0.00000000000E+00 -0.00000000000E+00 -0.13061271777E+02  0.13061271777E+02  0.00000000000E+00 0.  1.
         36    2    1    2    0    0  0.71054273576E-14  0.71054273576E-14  0.14365458849E+04  0.14626684285E+04  0.27519965875E+03 0.  0.
         25    2    3    3    0    0 -0.41056531845E+02  0.17231310921E+02  0.93821895159E+03  0.94733204180E+03  0.12329087319E+03 0.  0.
         25    2    3    3    0    0  0.41056531845E+02 -0.17231310921E+02  0.49832693332E+03  0.51533638667E+03  0.12352854757E+03 0.  0.
          5    1    4    4  502    0 -0.22325304010E+02 -0.51809281417E+02  0.51274205128E+03  0.51585765672E+03  0.47000000000E+01 0.  1.
         -5    1    4    4    0  502 -0.18731227836E+02  0.69040592338E+02  0.42547690031E+03  0.43147438508E+03  0.47000000000E+01 0.  1.
          5    1    5    5  503    0  0.55228222053E+01  0.48894829592E+02  0.28217458058E+03  0.28647127229E+03  0.47000000000E+01 0.  1.
         -5    1    5    5    0  503  0.35533709640E+02 -0.66126140513E+02  0.21615235275E+03  0.22886511437E+03  0.47000000000E+01 0.  1.
<mgrwt>
<rscale>  0 0.27519966E+03</rscale>
<asrwt>0</asrwt>
<pdfrwt beam="1">  1        2 0.22301636E+00 0.27519966E+03</pdfrwt>
<pdfrwt beam="2">  1       -2 0.20094276E-02 0.27519966E+03</pdfrwt>
<totfact> 0.11149384E+04</totfact>
</mgrwt>
</event>
<event>
 9    1  0.2094635E-002  0.2603737E+03  0.7818608E-02  0.1106919E+00
          2   -1    0    0  501    0  0.00000000000E+00  0.00000000000E+00  0.16866934392E+04  0.16866934392E+04  0.00000000000E+00 0. -1.
         -2   -1    0    0    0  501 -0.00000000000E+00 -0.00000000000E+00 -0.10048428755E+02  0.10048428755E+02  0.00000000000E+00 0. -1.
         36    2    1    2    0    0 -0.35527136788E-14 -0.14210854715E-13  0.16766450104E+04  0.16967418679E+04  0.26037372260E+03 0.  0.
         25    2    3    3    0    0 -0.12092404602E+02 -0.35536544977E+02  0.10031647656E+04  0.10115531628E+04  0.12446357684E+03 0.  0.
         25    2    3    3    0    0  0.12092404602E+02  0.35536544977E+02  0.67348024480E+03  0.68518870510E+03  0.12041116722E+03 0.  0.
          5    1    4    4  502    0 -0.26817262348E+02  0.28638792850E+01  0.89968034538E+03  0.90009676215E+03  0.47000000000E+01 0.  1.
         -5    1    4    4    0  502  0.14724857746E+02 -0.38400424262E+02  0.10348442023E+03  0.11145640066E+03  0.47000000000E+01 0.  1.
          5    1    5    5  503    0  0.10701218706E+02 -0.34749329047E+02  0.43435972278E+03  0.43590422196E+03  0.47000000000E+01 0. -1.
         -5    1    5    5    0  503  0.13911858956E+01  0.70285874024E+02  0.23912052202E+03  0.24928448315E+03  0.47000000000E+01 0. -1.
<mgrwt>
<rscale>  0 0.26037372E+03</rscale>
<asrwt>0</asrwt>
<pdfrwt beam="1">  1        2 0.25949107E+00 0.26037372E+03</pdfrwt>
<pdfrwt beam="2">  1       -2 0.15459135E-02 0.26037372E+03</pdfrwt>
<totfact> 0.12238530E+04</totfact>
</mgrwt>
</event>
<event>
 8    1  0.2094635E-002  0.2596571E+03  0.7818608E-02  0.1107349E+00
         -1   -1    0    0    0  501 -0.00000000000E+00  0.00000000000E+00  0.18644427009E+02  0.18644427009E+02  0.00000000000E+00 0. -1.
          1   -1    0    0  501    0  0.00000000000E+00 -0.00000000000E+00 -0.90404749122E+03  0.90404749122E+03  0.00000000000E+00 0. -1.
         25    2    1    2    0    0  0.16904627610E+02  0.25185178647E+02 -0.50360643619E+03  0.52015659564E+03  0.12658349718E+03 0.  0.
         25    2    1    2    0    0 -0.16904627610E+02 -0.25185178647E+02 -0.38179662802E+03  0.40253532259E+03  0.12387881621E+03 0.  0.
          5    1    3    3  502    0  0.63693353676E+02  0.30761647057E+02 -0.40011263043E+03  0.40634385594E+03  0.47000000000E+01 0. -1.
         -5    1    3    3    0  502 -0.46788726066E+02 -0.55764684106E+01 -0.10349380576E+03  0.11381273970E+03  0.47000000000E+01 0. -1.
          5    1    4    4  503    0  0.41424437696E+02 -0.44950355989E+02 -0.24302419929E+03  0.25063792607E+03  0.47000000000E+01 0. -1.
         -5    1    4    4    0  503 -0.58329065306E+02  0.19765177342E+02 -0.13877242873E+03  0.15189739652E+03  0.47000000000E+01 0. -1.
<mgrwt>
<rscale>  0 0.25965706E+03</rscale>
<asrwt>0</asrwt>
<pdfrwt beam="1">  1        1 0.13908424E+00 0.25965706E+03</pdfrwt>
<pdfrwt beam="2">  1       -1 0.28683731E-02 0.25965706E+03</pdfrwt>
<totfact> 0.76159467E+03</totfact>
</mgrwt>
</event>
<event>
 9    1  0.2094635E-002  0.2744663E+03  0.7818608E-02  0.1098750E+00
          1   -1    0    0  501    0  0.00000000000E+00  0.00000000000E+00  0.27636354611E+03  0.27636354611E+03  0.00000000000E+00 0. -1.
         -1   -1    0    0    0  501 -0.00000000000E+00 -0.00000000000E+00 -0.68145516087E+02  0.68145516087E+02  0.00000000000E+00 0. -1.
         36    2    1    2    0    0  0.00000000000E+00  0.00000000000E+00  0.20821803002E+03  0.34450906219E+03  0.27446629284E+03 0.  0.
         25    2    3    3    0    0  0.30130781808E+02  0.25259121265E+02  0.46471353894E+02  0.13797636536E+03  0.12382246745E+03 0.  0.
         25    2    3    3    0    0 -0.30130781808E+02 -0.25259121265E+02  0.16174667613E+03  0.20653269684E+03  0.12226152463E+03 0.  0.
          5    1    4    4  502    0  0.55815265943E+02  0.60040856420E+02  0.13085568893E+02  0.83147883107E+02  0.47000000000E+01 0.  1.
         -5    1    4    4    0  502 -0.25684484135E+02 -0.34781735155E+02  0.33385785002E+02  0.54828482250E+02  0.47000000000E+01 0.  1.
          5    1    5    5  503    0 -0.39541276157E+02  0.13193116196E+02  0.16129975086E+03  0.16666514472E+03  0.47000000000E+01 0. -1.
         -5    1    5    5    0  503  0.94104943493E+01 -0.38452237461E+02  0.44692526094E+00  0.39867552117E+02  0.47000000000E+01 0. -1.
<mgrwt>
<rscale>  0 0.27446629E+03</rscale>
<asrwt>0</asrwt>
<pdfrwt beam="1">  1        1 0.42517468E-01 0.27446629E+03</pdfrwt>
<pdfrwt beam="2">  1       -1 0.10483926E-01 0.27446629E+03</pdfrwt>
<totfact> 0.54685116E+03</totfact>
</mgrwt>
</event>
<event>
 9    1  0.2094635E-002  0.2750181E+03  0.7818608E-02  0.1098441E+00
         -1   -1    0    0    0  501 -0.00000000000E+00  0.00000000000E+00  0.27409209329E+03  0.27409209329E+03  0.00000000000E+00 0.  1.
          1   -1    0    0  501    0  0.00000000000E+00 -0.00000000000E+00 -0.68986805758E+02  0.68986805758E+02  0.00000000000E+00 0.  1.
         36    2    1    2    0    0  0.71054273576E-14  0.00000000000E+00  0.20510528754E+03  0.34307889905E+03  0.27501809395E+03 0.  0.
         25    2    3    3    0    0  0.26716745241E+02  0.18043751183E+01  0.18084221281E+03  0.21933678164E+03  0.12119272915E+03 0.  0.
         25    2    3    3    0    0 -0.26716745241E+02 -0.18043751183E+01  0.24263074724E+02  0.12374211741E+03  0.11834853012E+03 0.  0.
          5    1    4    4  502    0  0.33451133892E+02 -0.56023343234E+02  0.88055705394E+02  0.10969726796E+03  0.47000000000E+01 0.  1.
         -5    1    4    4    0  502 -0.67343886511E+01  0.57827718352E+02  0.92786507420E+02  0.10963951368E+03  0.47000000000E+01 0.  1.
          5    1    5    5  503    0  0.15708688296E+02  0.29349494492E+02 -0.32098298281E+02  0.46481678836E+02  0.47000000000E+01 0. -1.
         -5    1    5    5    0  503 -0.42425433536E+02 -0.31153869610E+02  0.56361373005E+02  0.77260438579E+02  0.47000000000E+01 0. -1.
<mgrwt>
<rscale>  0 0.27501809E+03</rscale>
<asrwt>0</asrwt>
<pdfrwt beam="1">  1        1 0.10613355E-01 0.27501809E+03</pdfrwt>
<pdfrwt beam="2">  1       -1 0.42168014E-01 0.27501809E+03</pdfrwt>
<totfact> 0.33092377E+03</totfact>
</mgrwt>
</event>
<event>
 9    1  0.2094635E-002  0.2745498E+03  0.7818608E-02  0.1098704E+00
          1   -1    0    0  501    0  0.00000000000E+00  0.00000000000E+00  0.49389280420E+03  0.49389280420E+03  0.00000000000E+00 0.  1.
         -1   -1    0    0    0  501 -0.00000000000E+00 -0.00000000000E+00 -0.38154821325E+02  0.38154821325E+02  0.00000000000E+00 0.  1.
         36    2    1    2    0    0  0.35527136788E-14  0.71054273576E-14  0.45573798288E+03  0.53204762553E+03  0.27454975285E+03 0.  0.
         25    2    3    3    0    0 -0.13362982596E+02 -0.61560202006E+02  0.21072066726E+03  0.25218021727E+03  0.12338328329E+03 0.  0.
         25    2    3    3    0    0  0.13362982596E+02  0.61560202006E+02  0.24501731561E+03  0.27986740826E+03  0.11968313782E+03 0.  0.
          5    1    4    4  502    0 -0.29538672365E+02 -0.31351392903E+02  0.50526367494E+01  0.43624100451E+02  0.47000000000E+01 0.  1.
         -5    1    4    4    0  502  0.16175689769E+02 -0.30208809103E+02  0.20566803051E+03  0.20855611682E+03  0.47000000000E+01 0.  1.
          5    1    5    5  503    0  0.42787857248E+02 -0.19090468987E+02  0.11182139824E+03  0.12133161928E+03  0.47000000000E+01 0.  1.
         -5    1    5    5    0  503 -0.29424874652E+02  0.80650670993E+02  0.13319591738E+03  0.15853578897E+03  0.47000000000E+01 0.  1.
<mgrwt>
<rscale>  0 0.27454975E+03</rscale>
<asrwt>0</asrwt>
<pdfrwt beam="1">  1        1 0.75983504E-01 0.27454975E+03</pdfrwt>
<pdfrwt beam="2">  1       -1 0.58699729E-02 0.27454975E+03</pdfrwt>
<totfact> 0.63098355E+03</totfact>
</mgrwt>
</event>
<event>
 9    1  0.2094635E-002  0.2756437E+03  0.7818608E-02  0.1098092E+00
         -1   -1    0    0    0  501 -0.00000000000E+00  0.00000000000E+00  0.20169985722E+02  0.20169985722E+02  0.00000000000E+00 0.  1.
          1   -1    0    0  501    0  0.00000000000E+00 -0.00000000000E+00 -0.94173929849E+03  0.94173929849E+03  0.00000000000E+00 0.  1.
         36    2    1    2    0    0 -0.71054273576E-14  0.71054273576E-14 -0.92156931277E+03  0.96190928421E+03  0.27564374257E+03 0.  0.
         25    2    3    3    0    0 -0.28134010597E+02 -0.44588446220E+02 -0.37877319898E+03  0.40330727038E+03  0.12809358294E+03 0.  0.
         25    2    3    3    0    0  0.28134010597E+02  0.44588446220E+02 -0.54279611379E+03  0.55860201383E+03  0.12095014105E+03 0.  0.
          5    1    4    4  502    0  0.40307814810E+02 -0.55775986260E+02 -0.19309602281E+03  0.20504595729E+03  0.47000000000E+01 0.  1.
         -5    1    4    4    0  502 -0.68441825407E+02  0.11187540040E+02 -0.18567717617E+03  0.19826131309E+03  0.47000000000E+01 0.  1.
          5    1    5    5  503    0  0.16636308651E+02  0.72661162075E+02 -0.18524263937E+03  0.19973316370E+03  0.47000000000E+01 0.  1.
         -5    1    5    5    0  503  0.11497701947E+02 -0.28072715855E+02 -0.35755347442E+03  0.35886885013E+03  0.47000000000E+01 0.  1.
<mgrwt>
<rscale>  0 0.27564374E+03</rscale>
<asrwt>0</asrwt>
<pdfrwt beam="1">  1        1 0.14488298E+00 0.27564374E+03</pdfrwt>
<pdfrwt beam="2">  1       -1 0.31030745E-02 0.27564374E+03</pdfrwt>
<totfact> 0.63500211E+03</totfact>
</mgrwt>
</event>
<event>
 9    1  0.2094635E-002  0.2751538E+03  0.7818608E-02  0.1098366E+00
         -1   -1    0    0    0  501 -0.00000000000E+00  0.00000000000E+00  0.11632066824E+02  0.11632066824E+02  0.00000000000E+00 0.  1.
          1   -1    0    0  501    0  0.00000000000E+00 -0.00000000000E+00 -0.16271740009E+04  0.16271740009E+04  0.00000000000E+00 0.  1.
         36    2    1    2    0    0  0.00000000000E+00 -0.71054273576E-14 -0.16155419341E+04  0.16388060677E+04  0.27515375130E+03 0.  0.
         25    2    3    3    0    0  0.21872051063E+02 -0.40265462714E+02 -0.10269224789E+04  0.10356106718E+04  0.12577754887E+03 0.  0.
         25    2    3    3    0    0 -0.21872051063E+02  0.40265462714E+02 -0.58861945516E+03  0.60319539589E+03  0.12358045367E+03 0.  0.
          5    1    4    4  502    0  0.46402397865E+02  0.16506281544E+02 -0.75866410607E+03  0.76027557879E+03  0.47000000000E+01 0. -1.
         -5    1    4    4    0  502 -0.24530346802E+02 -0.56771744258E+02 -0.26825837286E+03  0.27533509306E+03  0.47000000000E+01 0. -1.
          5    1    5    5  503    0 -0.32987908570E+02  0.81915375961E+02 -0.39227202599E+03  0.40211660412E+03  0.47000000000E+01 0.  1.
         -5    1    5    5    0  503  0.11115857508E+02 -0.41649913247E+02 -0.19634742916E+03  0.20107879177E+03  0.47000000000E+01 0.  1.
<mgrwt>
<rscale>  0 0.27515375E+03</rscale>
<asrwt>0</asrwt>
<pdfrwt beam="1">  1        1 0.25033417E+00 0.27515375E+03</pdfrwt>
<pdfrwt beam="2">  1       -1 0.17895509E-02 0.27515375E+03</pdfrwt>
<totfact> 0.47599205E+03</totfact>
</mgrwt>
</event>
<event>
 9    1  0.2094635E-002  0.2752840E+03  0.7818608E-02  0.1098293E+00
          2   -1    0    0  501    0  0.00000000000E+00  0.00000000000E+00  0.21815572681E+03  0.21815572681E+03  0.00000000000E+00 0. -1.
         -2   -1    0    0    0  501 -0.00000000000E+00 -0.00000000000E+00 -0.86843102610E+02  0.86843102610E+02  0.00000000000E+00 0. -1.
         36    2    1    2    0    0  0.71054273576E-14  0.00000000000E+00  0.13131262420E+03  0.30499882942E+03  0.27528400003E+03 0.  0.
         25    2    3    3    0    0  0.51342963967E+02 -0.47032889411E+00  0.69524203093E+02  0.15348916405E+03  0.12684237268E+03 0.  0.
         25    2    3    3    0    0 -0.51342963967E+02  0.47032889411E+00  0.61788421105E+02  0.15150966537E+03  0.12845640723E+03 0.  0.
          5    1    4    4  502    0  0.61307964508E+02 -0.51244129633E+02  0.21838807521E+02  0.82967769935E+02  0.47000000000E+01 0. -1.
         -5    1    4    4    0  502 -0.99650005413E+01  0.50773800739E+02  0.47685395572E+02  0.70521394117E+02  0.47000000000E+01 0. -1.
          5    1    5    5  503    0 -0.87205620631E+01  0.60180958907E+02  0.10535992052E+02  0.61894209310E+02  0.47000000000E+01 0. -1.
         -5    1    5    5    0  503 -0.42622401904E+02 -0.59710630013E+02  0.51252429053E+02  0.89615456058E+02  0.47000000000E+01 0. -1.
<mgrwt>
<rscale>  0 0.27528400E+03</rscale>
<asrwt>0</asrwt>
<pdfrwt beam="1">  1        2 0.33562419E-01 0.27528400E+03</pdfrwt>
<pdfrwt beam="2">  1       -2 0.13360477E-01 0.27528400E+03</pdfrwt>
<totfact> 0.63748027E+03</totfact>
</mgrwt>
</event>
<event>
 9    1  0.2094635E-002  0.2751212E+03  0.7818608E-02  0.1098384E+00
         -1   -1    0    0    0  501 -0.00000000000E+00  0.00000000000E+00  0.56625969225E+01  0.56625969225E+01  0.00000000000E+00 0.  1.
          1   -1    0    0  501    0  0.00000000000E+00 -0.00000000000E+00 -0.33417393534E+04  0.33417393534E+04  0.00000000000E+00 0.  1.
         36    2    1    2    0    0 -0.14210854715E-13 -0.53290705182E-14 -0.33360767565E+04  0.33474019503E+04  0.27512123130E+03 0.  0.
         25    2    3    3    0    0 -0.37114751123E+02 -0.11903661429E+02 -0.12487838758E+04  0.12557674825E+04  0.12637879510E+03 0.  0.
         25    2    3    3    0    0  0.37114751123E+02  0.11903661429E+02 -0.20872928807E+04  0.20916344678E+04  0.12893399538E+03 0.  0.
          5    1    4    4  502    0  0.44098361719E+02 -0.58562902275E+01 -0.27949457183E+03  0.28305170433E+03  0.47000000000E+01 0.  1.
         -5    1    4    4    0  502 -0.81213112842E+02 -0.60473712012E+01 -0.96928930393E+03  0.97271577818E+03  0.47000000000E+01 0.  1.
          5    1    5    5  503    0 -0.33590018676E+02  0.40003753421E+02 -0.56329726818E+03  0.56573358746E+03  0.47000000000E+01 0. -1.
         -5    1    5    5    0  503  0.70704769799E+02 -0.28100091992E+02 -0.15239956125E+04  0.15259008804E+04  0.47000000000E+01 0. -1.
<mgrwt>
<rscale>  0 0.27512123E+03</rscale>
<asrwt>0</asrwt>
<pdfrwt beam="1">  1        1 0.51411623E+00 0.27512123E+03</pdfrwt>
<pdfrwt beam="2">  1       -1 0.87116455E-03 0.27512123E+03</pdfrwt>
<totfact> 0.94530227E+02</totfact>
</mgrwt>
</event>
<event>
 9    1  0.2094635E-002  0.2711876E+03  0.7818608E-02  0.1100602E+00
          3   -1    0    0  501    0  0.00000000000E+00  0.00000000000E+00  0.49542919165E+02  0.49542919165E+02  0.00000000000E+00 0. -1.
         -3   -1    0    0    0  501 -0.00000000000E+00 -0.00000000000E+00 -0.37110611114E+03  0.37110611114E+03  0.00000000000E+00 0. -1.
         36    2    1    2    0    0 -0.35527136788E-14  0.00000000000E+00 -0.32156319198E+03  0.42064903031E+03  0.27118761082E+03 0.  0.
         25    2    3    3    0    0 -0.17324419839E+02  0.57465824638E+02 -0.15982020222E+03  0.21174028142E+03  0.12525571129E+03 0.  0.
         25    2    3    3    0    0  0.17324419839E+02 -0.57465824638E+02 -0.16174298975E+03  0.20890874889E+03  0.11781177405E+03 0.  0.
          5    1    4    4  502    0 -0.98572387955E+01 -0.28495531835E+02 -0.10514257467E+03  0.10948155781E+03  0.47000000000E+01 0. -1.
         -5    1    4    4    0  502 -0.74671810437E+01  0.85961356474E+02 -0.54677627549E+02  0.10225872361E+03  0.47000000000E+01 0. -1.
          5    1    5    5  503    0  0.55012915588E+02 -0.53180683018E+00 -0.11010342097E+03  0.12317287449E+03  0.47000000000E+01 0.  1.
         -5    1    5    5    0  503 -0.37688495749E+02 -0.56934017808E+02 -0.51639568782E+02  0.85735874402E+02  0.47000000000E+01 0.  1.
<mgrwt>
<rscale>  0 0.27118761E+03</rscale>
<asrwt>0</asrwt>
<pdfrwt beam="1">  1        3 0.76219875E-02 0.27118761E+03</pdfrwt>
<pdfrwt beam="2">  1       -3 0.57093248E-01 0.27118761E+03</pdfrwt>
<totfact> 0.89391008E+02</totfact>
</mgrwt>
</event>
<event>
 9    1  0.2094635E-002  0.2748064E+03  0.7818608E-02  0.1098560E+00
          2   -1    0    0  501    0  0.00000000000E+00  0.00000000000E+00  0.56766648775E+03  0.56766648775E+03  0.00000000000E+00 0.  1.
         -2   -1    0    0    0  501 -0.00000000000E+00 -0.00000000000E+00 -0.33258324372E+02  0.33258324372E+02  0.00000000000E+00 0.  1.
         36    2    1    2    0    0  0.00000000000E+00 -0.71054273576E-14  0.53440816338E+03  0.60092481212E+03  0.27480637682E+03 0.  0.
         25    2    3    3    0    0 -0.39904678915E+02  0.33277611971E+02  0.30735109385E+03  0.33550239122E+03  0.12408616671E+03 0.  0.
         25    2    3    3    0    0  0.39904678915E+02 -0.33277611971E+02  0.22705706953E+03  0.26542242090E+03  0.12725708560E+03 0.  0.
          5    1    4    4  502    0 -0.19013708435E+02 -0.33824478361E+02  0.29791680892E+02  0.49145200124E+02  0.47000000000E+01 0.  1.
         -5    1    4    4    0  502 -0.20890970480E+02  0.67102090332E+02  0.27755941295E+03  0.28635719110E+03  0.47000000000E+01 0.  1.
          5    1    5    5  503    0  0.25564116459E+02  0.33869583637E+02  0.19845853406E+02  0.47081000876E+02  0.47000000000E+01 0.  1.
         -5    1    5    5    0  503  0.14340562456E+02 -0.67147195609E+02  0.20721121613E+03  0.21834142002E+03  0.47000000000E+01 0.  1.
<mgrwt>
<rscale>  0 0.27480638E+03</rscale>
<asrwt>0</asrwt>
<pdfrwt beam="1">  1        2 0.87333298E-01 0.27480638E+03</pdfrwt>
<pdfrwt beam="2">  1       -2 0.51166657E-02 0.27480638E+03</pdfrwt>
<totfact> 0.10122445E+04</totfact>
</mgrwt>
</event>
<event>
 9    1  0.2094635E-002  0.2769778E+03  0.7818608E-02  0.1097351E+00
         -1   -1    0    0    0  501 -0.00000000000E+00  0.00000000000E+00  0.27047852855E+03  0.27047852855E+03  0.00000000000E+00 0. -1.
          1   -1    0    0  501    0  0.00000000000E+00 -0.00000000000E+00 -0.70908307188E+02  0.70908307188E+02  0.00000000000E+00 0. -1.
         36    2    1    2    0    0  0.00000000000E+00  0.00000000000E+00  0.19957022136E+03  0.34138683574E+03  0.27697779399E+03 0.  0.
         25    2    3    3    0    0 -0.51734434849E+01 -0.55347006449E+02  0.83679362617E+02  0.16388014436E+03  0.12947745112E+03 0.  0.
         25    2    3    3    0    0  0.51734434849E+01  0.55347006449E+02  0.11589085874E+03  0.17750669137E+03  0.12242499215E+03 0.  0.
          5    1    4    4  502    0  0.27331220720E+02 -0.31810910380E+02 -0.24223675973E+02  0.48660108127E+02  0.47000000000E+01 0.  1.
         -5    1    4    4    0  502 -0.32504664205E+02 -0.23536096069E+02  0.10790303859E+03  0.11522003624E+03  0.47000000000E+01 0.  1.
          5    1    5    5  503    0 -0.23268558837E+01 -0.10316807809E+02 -0.21812209542E+02  0.24692372644E+02  0.47000000000E+01 0.  1.
         -5    1    5    5    0  503  0.75002993686E+01  0.65663814257E+02  0.13770306829E+03  0.15281431873E+03  0.47000000000E+01 0.  1.
<mgrwt>
<rscale>  0 0.27697779E+03</rscale>
<asrwt>0</asrwt>
<pdfrwt beam="1">  1        1 0.10908970E-01 0.27697779E+03</pdfrwt>
<pdfrwt beam="2">  1       -1 0.41612081E-01 0.27697779E+03</pdfrwt>
<totfact> 0.32670425E+03</totfact>
</mgrwt>
</event>
<event>
 9    1  0.2094635E-002  0.2757780E+03  0.7818608E-02  0.1098018E+00
         -2   -1    0    0    0  501 -0.00000000000E+00  0.00000000000E+00  0.15434519973E+03  0.15434519973E+03  0.00000000000E+00 0. -1.
          2   -1    0    0  501    0  0.00000000000E+00 -0.00000000000E+00 -0.12318734462E+03  0.12318734462E+03  0.00000000000E+00 0. -1.
         36    2    1    2    0    0  0.00000000000E+00  0.00000000000E+00  0.31157855112E+02  0.27753254434E+03  0.27577799266E+03 0.  0.
         25    2    3    3    0    0 -0.17317927604E+02 -0.56433575761E+02  0.37240955613E+02  0.14935475887E+03  0.13204278145E+03 0.  0.
         25    2    3    3    0    0  0.17317927604E+02  0.56433575761E+02 -0.60831005010E+01  0.12817778547E+03  0.11361285793E+03 0.  0.
          5    1    4    4  502    0  0.29672484500E+02 -0.62009221213E+02  0.64636279839E+02  0.94475068263E+02  0.47000000000E+01 0. -1.
         -5    1    4    4    0  502 -0.46990412105E+02  0.55756454516E+01 -0.27395324226E+02  0.54879690610E+02  0.47000000000E+01 0. -1.
          5    1    5    5  503    0  0.28512599878E+01 -0.10068408784E+02 -0.47167401575E+02  0.48542314637E+02  0.47000000000E+01 0. -1.
         -5    1    5    5    0  503  0.14466667617E+02  0.66501984545E+02  0.41084301074E+02  0.79635470835E+02  0.47000000000E+01 0. -1.
<mgrwt>
<rscale>  0 0.27577799E+03</rscale>
<asrwt>0</asrwt>
<pdfrwt beam="1">  1        2 0.18951899E-01 0.27577799E+03</pdfrwt>
<pdfrwt beam="2">  1       -2 0.23745416E-01 0.27577799E+03</pdfrwt>
<totfact> 0.45751417E+03</totfact>
</mgrwt>
</event>
<event>
 9    1  0.2094635E-002  0.2749774E+03  0.7818608E-02  0.1098464E+00
         -2   -1    0    0    0  501 -0.00000000000E+00  0.00000000000E+00  0.42074178177E+03  0.42074178177E+03  0.00000000000E+00 0.  1.
          2   -1    0    0  501    0  0.00000000000E+00 -0.00000000000E+00 -0.44928148704E+02  0.44928148704E+02  0.00000000000E+00 0.  1.
         36    2    1    2    0    0 -0.71054273576E-14  0.35527136788E-14  0.37581363306E+03  0.46566993047E+03  0.27497744880E+03 0.  0.
         25    2    3    3    0    0 -0.53515359851E+02 -0.14492621949E+02  0.15178776470E+03  0.20252467334E+03  0.12207697558E+03 0.  0.
         25    2    3    3    0    0  0.53515359851E+02  0.14492621949E+02  0.22402586837E+03  0.26314525714E+03  0.12642747654E+03 0.  0.
          5    1    4    4  502    0  0.26178230937E+02  0.30038384033E+02  0.29271886366E+02  0.49664248929E+02  0.47000000000E+01 0.  1.
         -5    1    4    4    0  502 -0.79693590788E+02 -0.44531005982E+02  0.12251587833E+03  0.15286042441E+03  0.47000000000E+01 0.  1.
          5    1    5    5  503    0 -0.24844887388E+02  0.30847416266E+02  0.21476159499E+02  0.45300628544E+02  0.47000000000E+01 0. -1.
         -5    1    5    5    0  503  0.78360247239E+02 -0.16354794317E+02  0.20254970887E+03  0.21784462859E+03  0.47000000000E+01 0. -1.
<mgrwt>
<rscale>  0 0.27497745E+03</rscale>
<asrwt>0</asrwt>
<pdfrwt beam="1">  1        2 0.69120232E-02 0.27497745E+03</pdfrwt>
<pdfrwt beam="2">  1       -2 0.64729502E-01 0.27497745E+03</pdfrwt>
<totfact> 0.23093112E+03</totfact>
</mgrwt>
</event>
<event>
 9    1  0.2094635E-002  0.2752389E+03  0.7818608E-02  0.1098318E+00
         -3   -1    0    0    0  501 -0.00000000000E+00  0.00000000000E+00  0.16198449026E+02  0.16198449026E+02  0.00000000000E+00 0.  1.
          3   -1    0    0  501    0  0.00000000000E+00 -0.00000000000E+00 -0.11691932840E+04  0.11691932840E+04  0.00000000000E+00 0.  1.
         36    2    1    2    0    0  0.00000000000E+00  0.00000000000E+00 -0.11529948350E+04  0.11853917330E+04  0.27523893484E+03 0.  0.
         25    2    3    3    0    0  0.28553679101E+02 -0.34816597738E+02 -0.53042107504E+03  0.54881882571E+03  0.13352182796E+03 0.  0.
         25    2    3    3    0    0 -0.28553679101E+02  0.34816597738E+02 -0.62257375993E+03  0.63657290731E+03  0.12489784506E+03 0.  0.
          5    1    4    4  502    0 -0.33918976433E+02 -0.34995524633E+02 -0.41151862332E+03  0.41442110352E+03  0.47000000000E+01 0. -1.
         -5    1    4    4    0  502  0.62472655534E+02  0.17892689463E+00 -0.11890245172E+03  0.13439772219E+03  0.47000000000E+01 0. -1.
          5    1    5    5  503    0 -0.41119240164E+02  0.76509202725E+02 -0.35921087532E+03  0.36959300989E+03  0.47000000000E+01 0. -1.
         -5    1    5    5    0  503  0.12565561063E+02 -0.41692604986E+02 -0.26336288461E+03  0.26697989742E+03  0.47000000000E+01 0. -1.
<mgrwt>
<rscale>  0 0.27523893E+03</rscale>
<asrwt>0</asrwt>
<pdfrwt beam="1">  1        3 0.17987586E+00 0.27523893E+03</pdfrwt>
<pdfrwt beam="2">  1       -3 0.24920695E-02 0.27523893E+03</pdfrwt>
<totfact> 0.36896555E+02</totfact>
</mgrwt>
</event>
<event>
 9    1  0.2094635E-002  0.2748361E+03  0.7818608E-02  0.1098543E+00
         -1   -1    0    0    0  501 -0.00000000000E+00  0.00000000000E+00  0.18449426734E+02  0.18449426734E+02  0.00000000000E+00 0. -1.
          1   -1    0    0  501    0  0.00000000000E+00 -0.00000000000E+00 -0.10235396897E+04  0.10235396897E+04  0.00000000000E+00 0. -1.
         36    2    1    2    0    0  0.00000000000E+00  0.00000000000E+00 -0.10050902629E+04  0.10419891164E+04  0.27483610035E+03 0.  0.
         25    2    3    3    0    0 -0.25515575181E+02  0.35581213790E+02 -0.36489180537E+03  0.38786670021E+03  0.12400596823E+03 0.  0.
         25    2    3    3    0    0  0.25515575181E+02 -0.35581213790E+02 -0.64019845755E+03  0.65412241617E+03  0.12690548824E+03 0.  0.
          5    1    4    4  502    0 -0.34807072975E+02 -0.10124183454E+02 -0.23911524519E+02  0.43679313462E+02  0.47000000000E+01 0. -1.
         -5    1    4    4    0  502  0.92914977941E+01  0.45705397244E+02 -0.34098028085E+03  0.34418738675E+03  0.47000000000E+01 0. -1.
          5    1    5    5  503    0  0.53660880916E+02 -0.29479151622E+02 -0.13762434340E+03  0.15070189254E+03  0.47000000000E+01 0. -1.
         -5    1    5    5    0  503 -0.28145305736E+02 -0.61020621681E+01 -0.50257411415E+03  0.50342052363E+03  0.47000000000E+01 0. -1.
<mgrwt>
<rscale>  0 0.27483610E+03</rscale>
<asrwt>0</asrwt>
<pdfrwt beam="1">  1        1 0.15746763E+00 0.27483610E+03</pdfrwt>
<pdfrwt beam="2">  1       -1 0.28383735E-02 0.27483610E+03</pdfrwt>
<totfact> 0.62827063E+03</totfact>
</mgrwt>
</event>
<event>
 9    1  0.2094635E-002  0.2754948E+03  0.7818608E-02  0.1098175E+00
         -2   -1    0    0    0  501 -0.00000000000E+00  0.00000000000E+00  0.12600818920E+03  0.12600818920E+03  0.00000000000E+00 0.  1.
          2   -1    0    0  501    0  0.00000000000E+00 -0.00000000000E+00 -0.15058026022E+03  0.15058026022E+03  0.00000000000E+00 0.  1.
         36    2    1    2    0    0 -0.14210854715E-13  0.00000000000E+00 -0.24572071022E+02  0.27658844941E+03  0.27549479791E+03 0.  0.
         25    2    3    3    0    0  0.62577387921E+02 -0.26001302266E+02 -0.15010817157E+02  0.14110407554E+03  0.12285372727E+03 0.  0.
         25    2    3    3    0    0 -0.62577387921E+02  0.26001302266E+02 -0.95612538656E+01  0.13548437388E+03  0.11692989691E+03 0.  0.
          5    1    4    4  502    0  0.40487282473E+02 -0.82934381313E+00  0.51980632786E+02  0.66060457446E+02  0.47000000000E+01 0.  1.
         -5    1    4    4    0  502  0.22090105448E+02 -0.25171958453E+02 -0.66991449942E+02  0.75043618092E+02  0.47000000000E+01 0.  1.
          5    1    5    5  503    0  0.68452039170E+01  0.11842837936E+01  0.43645149812E+02  0.44443767245E+02  0.47000000000E+01 0.  1.
         -5    1    5    5    0  503 -0.69422591838E+02  0.24817018472E+02 -0.53206403678E+02  0.91040606631E+02  0.47000000000E+01 0.  1.
<mgrwt>
<rscale>  0 0.27549480E+03</rscale>
<asrwt>0</asrwt>
<pdfrwt beam="1">  1        2 0.23166194E-01 0.27549480E+03</pdfrwt>
<pdfrwt beam="2">  1       -2 0.19385875E-01 0.27549480E+03</pdfrwt>
<totfact> 0.51664646E+03</totfact>
</mgrwt>
</event>
<event>
 9    1  0.2094635E-002  0.2742694E+03  0.7818608E-02  0.1098861E+00
         -2   -1    0    0    0  501 -0.00000000000E+00  0.00000000000E+00  0.93495227681E+03  0.93495227681E+03  0.00000000000E+00 0.  1.
          2   -1    0    0  501    0  0.00000000000E+00 -0.00000000000E+00 -0.20114315639E+02  0.20114315639E+02  0.00000000000E+00 0.  1.
         36    2    1    2    0    0  0.00000000000E+00  0.00000000000E+00  0.91483796117E+03  0.95506659245E+03  0.27426939460E+03 0.  0.
         25    2    3    3    0    0 -0.24083489410E+02  0.24112967323E+02  0.62039293690E+03  0.63355113708E+03  0.12384747669E+03 0.  0.
         25    2    3    3    0    0  0.24083489410E+02 -0.24112967323E+02  0.29444502427E+03  0.32151545537E+03  0.12455065664E+03 0.  0.
          5    1    4    4  502    0 -0.54110930235E+02  0.11481772638E+02  0.12159474939E+03  0.13366823464E+03  0.47000000000E+01 0. -1.
         -5    1    4    4    0  502  0.30027440825E+02  0.12631194685E+02  0.49879818751E+03  0.49988290244E+03  0.47000000000E+01 0. -1.
          5    1    5    5  503    0  0.63479737716E+02 -0.40297136771E+02  0.11844161844E+03  0.14037109144E+03  0.47000000000E+01 0.  1.
         -5    1    5    5    0  503 -0.39396248306E+02  0.16184169448E+02  0.17600340583E+03  0.18114436393E+03  0.47000000000E+01 0.  1.
<mgrwt>
<rscale>  0 0.27426939E+03</rscale>
<asrwt>0</asrwt>
<pdfrwt beam="1">  1        2 0.30945108E-02 0.27426939E+03</pdfrwt>
<pdfrwt beam="2">  1       -2 0.14383878E+00 0.27426939E+03</pdfrwt>
<totfact> 0.10609559E+03</totfact>
</mgrwt>
</event>
<event>
 9    1  0.2094635E-002  0.2664885E+03  0.7818608E-02  0.1103306E+00
         -2   -1    0    0    0  501 -0.00000000000E+00  0.00000000000E+00  0.90888785667E+01  0.90888785667E+01  0.00000000000E+00 0. -1.
          2   -1    0    0  501    0  0.00000000000E+00 -0.00000000000E+00 -0.19533800860E+04  0.19533800860E+04  0.00000000000E+00 0. -1.
         36    2    1    2    0    0 -0.35527136788E-14 -0.17763568394E-14 -0.19442912074E+04  0.19624689646E+04  0.26648853181E+03 0.  0.
         25    2    3    3    0    0  0.16400741950E+02 -0.10184715714E+02 -0.65824420633E+03  0.67014419249E+03  0.12423804084E+03 0.  0.
         25    2    3    3    0    0 -0.16400741950E+02  0.10184715714E+02 -0.12860470011E+04  0.12923247721E+04  0.12575259323E+03 0.  0.
          5    1    4    4  502    0  0.15542999341E+02  0.39361285221E+02 -0.54227397714E+03  0.54394305941E+03  0.47000000000E+01 0. -1.
         -5    1    4    4    0  502  0.85774260884E+00 -0.49546000935E+02 -0.11597022919E+03  0.12620113308E+03  0.47000000000E+01 0. -1.
          5    1    5    5  503    0 -0.69209426990E+02 -0.10587049653E+02 -0.68281512709E+03  0.68641140593E+03  0.47000000000E+01 0.  1.
         -5    1    5    5    0  503  0.52808685040E+02  0.20771765367E+02 -0.60323187401E+03  0.60591336615E+03  0.47000000000E+01 0.  1.
<mgrwt>
<rscale>  0 0.26648853E+03</rscale>
<asrwt>0</asrwt>
<pdfrwt beam="1">  1        2 0.30051991E+00 0.26648853E+03</pdfrwt>
<pdfrwt beam="2">  1       -2 0.13982895E-02 0.26648853E+03</pdfrwt>
<totfact> 0.10272997E+04</totfact>
</mgrwt>
</event>
<event>
 9    1  0.2094635E-002  0.2747335E+03  0.7818608E-02  0.1098601E+00
          4   -1    0    0  501    0  0.00000000000E+00  0.00000000000E+00  0.33252161543E+03  0.33252161543E+03  0.00000000000E+00 0.  1.
         -4   -1    0    0    0  501 -0.00000000000E+00 -0.00000000000E+00 -0.56747052269E+02  0.56747052269E+02  0.00000000000E+00 0.  1.
         36    2    1    2    0    0  0.00000000000E+00  0.00000000000E+00  0.27577456316E+03  0.38926866769E+03  0.27473348169E+03 0.  0.
         25    2    3    3    0    0 -0.43366302370E+02 -0.37668522038E+02  0.10816533481E+03  0.17224098385E+03  0.12111012810E+03 0.  0.
         25    2    3    3    0    0  0.43366302370E+02  0.37668522038E+02  0.16760922834E+03  0.21702768384E+03  0.12533398739E+03 0.  0.
          5    1    4    4  502    0  0.31174003649E+02 -0.15555982123E+02 -0.43191669049E+01  0.35419659599E+02  0.47000000000E+01 0. -1.
         -5    1    4    4    0  502 -0.74540306019E+02 -0.22112539915E+02  0.11248450172E+03  0.13682132425E+03  0.47000000000E+01 0. -1.
          5    1    5    5  503    0 -0.11063247656E+02  0.58242559249E+02  0.28055108503E+02  0.65755382058E+02  0.47000000000E+01 0.  1.
         -5    1    5    5    0  503  0.54429550026E+02 -0.20574037211E+02  0.13955411984E+03  0.15127230179E+03  0.47000000000E+01 0.  1.
<mgrwt>
<rscale>  0 0.27473348E+03</rscale>
<asrwt>0</asrwt>
<pdfrwt beam="1">  1        4 0.51157170E-01 0.27473348E+03</pdfrwt>
<pdfrwt beam="2">  1       -4 0.87303159E-02 0.27473348E+03</pdfrwt>
<totfact> 0.66172351E+02</totfact>
</mgrwt>
</event>
<event>
 9    1  0.2094635E-002  0.2753956E+03  0.7818608E-02  0.1098231E+00
          1   -1    0    0  501    0  0.00000000000E+00  0.00000000000E+00  0.10480831686E+03  0.10480831686E+03  0.00000000000E+00 0. -1.
         -1   -1    0    0    0  501 -0.00000000000E+00 -0.00000000000E+00 -0.18090817552E+03  0.18090817552E+03  0.00000000000E+00 0. -1.
         36    2    1    2    0    0 -0.14210854715E-13 -0.35527136788E-14 -0.76099858657E+02  0.28571649238E+03  0.27539558009E+03 0.  0.
         25    2    3    3    0    0 -0.41571021934E+02  0.26042065910E+02 -0.60270314120E+02  0.14759749263E+03  0.12548374399E+03 0.  0.
         25    2    3    3    0    0  0.41571021934E+02 -0.26042065910E+02 -0.15829544537E+02  0.13811899975E+03  0.12814033147E+03 0.  0.
          5    1    4    4  502    0 -0.43922331082E+02 -0.37751637859E+02  0.22096135308E+01  0.58149202236E+02  0.47000000000E+01 0. -1.
         -5    1    4    4    0  502  0.23513091481E+01  0.63793703769E+02 -0.62479927651E+02  0.89448290395E+02  0.47000000000E+01 0. -1.
          5    1    5    5  503    0  0.73011498482E+02 -0.13585982867E+02  0.30623286340E+02  0.80468214267E+02  0.47000000000E+01 0.  1.
         -5    1    5    5    0  503 -0.31440476547E+02 -0.12456083042E+02 -0.46452830877E+02  0.57650785483E+02  0.47000000000E+01 0.  1.
<mgrwt>
<rscale>  0 0.27539558E+03</rscale>
<asrwt>0</asrwt>
<pdfrwt beam="1">  1        1 0.16124357E-01 0.27539558E+03</pdfrwt>
<pdfrwt beam="2">  1       -1 0.27832027E-01 0.27539558E+03</pdfrwt>
<totfact> 0.39117276E+03</totfact>
</mgrwt>
</event>
<event>
 9    1  0.2094635E-002  0.2753039E+03  0.7818608E-02  0.1098282E+00
         -1   -1    0    0    0  501 -0.00000000000E+00  0.00000000000E+00  0.51854803601E+02  0.51854803601E+02  0.00000000000E+00 0. -1.
          1   -1    0    0  501    0  0.00000000000E+00 -0.00000000000E+00 -0.36540600129E+03  0.36540600129E+03  0.00000000000E+00 0. -1.
         36    2    1    2    0    0  0.00000000000E+00  0.71054273576E-14 -0.31355119769E+03  0.41726080489E+03  0.27530387888E+03 0.  0.
         25    2    3    3    0    0 -0.37127606798E+01  0.54641567446E+02 -0.13532635897E+03  0.19283457235E+03  0.12598596500E+03 0.  0.
         25    2    3    3    0    0  0.37127606798E+01 -0.54641567446E+02 -0.17822483872E+03  0.22442623254E+03  0.12491419147E+03 0.  0.
          5    1    4    4  502    0  0.15038544987E+02  0.74379761227E+02 -0.26437720689E+02  0.80495650757E+02  0.47000000000E+01 0. -1.
         -5    1    4    4    0  502 -0.18751305667E+02 -0.19738193781E+02 -0.10888863828E+03  0.11233892159E+03  0.47000000000E+01 0. -1.
          5    1    5    5  503    0 -0.35035181653E+02 -0.10322234122E+02 -0.15764102265E+03  0.16188512746E+03  0.47000000000E+01 0.  1.
         -5    1    5    5    0  503  0.38747942333E+02 -0.44319333324E+02 -0.20583816078E+02  0.62541105089E+02  0.47000000000E+01 0.  1.
<mgrwt>
<rscale>  0 0.27530388E+03</rscale>
<asrwt>0</asrwt>
<pdfrwt beam="1">  1        1 0.56216308E-01 0.27530388E+03</pdfrwt>
<pdfrwt beam="2">  1       -1 0.79776620E-02 0.27530388E+03</pdfrwt>
<totfact> 0.58527582E+03</totfact>
</mgrwt>
</event>
<event>
 9    1  0.2094635E-002  0.2748634E+03  0.7818608E-02  0.1098528E+00
         -2   -1    0    0    0  501 -0.00000000000E+00  0.00000000000E+00  0.78631770629E+01  0.78631770629E+01  0.00000000000E+00 0.  1.
          2   -1    0    0  501    0  0.00000000000E+00 -0.00000000000E+00 -0.24020145553E+04  0.24020145553E+04  0.00000000000E+00 0.  1.
         36    2    1    2    0    0  0.00000000000E+00  0.71054273576E-14 -0.23941513782E+04  0.24098777323E+04  0.27486335336E+03 0.  0.
         25    2    3    3    0    0 -0.40395566511E+02  0.44315982253E+02 -0.12913124527E+04  0.12985790665E+04  0.12338570993E+03 0.  0.
         25    2    3    3    0    0  0.40395566511E+02 -0.44315982253E+02 -0.11028389255E+04  0.11112986658E+04  0.12302569227E+03 0.  0.
          5    1    4    4  502    0 -0.39124805020E+02  0.49058757181E+02 -0.26968003733E+03  0.27692404113E+03  0.47000000000E+01 0.  1.
         -5    1    4    4    0  502 -0.12707614909E+01 -0.47427749283E+01 -0.10216324154E+04  0.10216550254E+04  0.47000000000E+01 0.  1.
          5    1    5    5  503    0  0.62041373405E+02 -0.21553061619E+02 -0.27213887438E+03  0.27999164885E+03  0.47000000000E+01 0.  1.
         -5    1    5    5    0  503 -0.21645806894E+02 -0.22762920634E+02 -0.83070005112E+03  0.83130701696E+03  0.47000000000E+01 0.  1.
<mgrwt>
<rscale>  0 0.27486335E+03</rscale>
<asrwt>0</asrwt>
<pdfrwt beam="1">  1        2 0.36954061E+00 0.27486335E+03</pdfrwt>
<pdfrwt beam="2">  1       -2 0.12097199E-02 0.27486335E+03</pdfrwt>
<totfact> 0.73285225E+03</totfact>
</mgrwt>
</event>
<event>
 9    1  0.2094635E-002  0.2742455E+03  0.7818608E-02  0.1098874E+00
         -1   -1    0    0    0  501 -0.00000000000E+00  0.00000000000E+00  0.26988515570E+02  0.26988515570E+02  0.00000000000E+00 0.  1.
          1   -1    0    0  501    0  0.00000000000E+00 -0.00000000000E+00 -0.69669081930E+03  0.69669081930E+03  0.00000000000E+00 0.  1.
         36    2    1    2    0    0 -0.35527136788E-14 -0.14210854715E-13 -0.66970230373E+03  0.72367933487E+03  0.27424551791E+03 0.  0.
         25    2    3    3    0    0 -0.74284115717E+01 -0.50059326834E+02 -0.29467554450E+03  0.32441446000E+03  0.12589657591E+03 0.  0.
         25    2    3    3    0    0  0.74284115717E+01  0.50059326834E+02 -0.37502675923E+03  0.39926487487E+03  0.12730378104E+03 0.  0.
          5    1    4    4  502    0 -0.38722637668E+02 -0.41973920418E+02 -0.28448725859E+03  0.29020052199E+03  0.47000000000E+01 0. -1.
         -5    1    4    4    0  502  0.31294226096E+02 -0.80854064162E+01 -0.10188285907E+02  0.34213938002E+02  0.47000000000E+01 0. -1.
          5    1    5    5  503    0 -0.30934318652E+02 -0.32390699514E+02 -0.14644177084E+03  0.15321022071E+03  0.47000000000E+01 0. -1.
         -5    1    5    5    0  503  0.38362730224E+02  0.82450026348E+02 -0.22858498839E+03  0.24605465416E+03  0.47000000000E+01 0. -1.
<mgrwt>
<rscale>  0 0.27424552E+03</rscale>
<asrwt>0</asrwt>
<pdfrwt beam="1">  1        1 0.10718320E+00 0.27424552E+03</pdfrwt>
<pdfrwt beam="2">  1       -1 0.41520794E-02 0.27424552E+03</pdfrwt>
<totfact> 0.65834223E+03</totfact>
</mgrwt>
</event>
<event>
 9    1  0.2094635E-002  0.2753284E+03  0.7818608E-02  0.1098268E+00
         -2   -1    0    0    0  501 -0.00000000000E+00  0.00000000000E+00  0.22077939739E+02  0.22077939739E+02  0.00000000000E+00 0. -1.
          2   -1    0    0  501    0  0.00000000000E+00 -0.00000000000E+00 -0.85838747518E+03  0.85838747518E+03  0.00000000000E+00 0. -1.
         36    2    1    2    0    0  0.00000000000E+00  0.00000000000E+00 -0.83630953545E+03  0.88046541492E+03  0.27532836359E+03 0.  0.
         25    2    3    3    0    0 -0.41778289068E+02 -0.24901891547E+02 -0.54484761887E+03  0.56140740329E+03  0.12630841240E+03 0.  0.
         25    2    3    3    0    0  0.41778289068E+02  0.24901891547E+02 -0.29146191658E+03  0.31905801163E+03  0.12034299453E+03 0.  0.
          5    1    4    4  502    0 -0.21877678737E+01 -0.44751711034E+02 -0.62697563784E+02  0.77204769757E+02  0.47000000000E+01 0.  1.
         -5    1    4    4    0  502 -0.39590521194E+02  0.19849819487E+02 -0.48215005509E+03  0.48420263353E+03  0.47000000000E+01 0.  1.
          5    1    5    5  503    0 -0.41213427532E+01  0.58899330102E+01  0.10178223673E+02  0.13317770613E+02  0.47000000000E+01 0.  1.
         -5    1    5    5    0  503  0.45899631821E+02  0.19011958537E+02 -0.30164014025E+03  0.30574024102E+03  0.47000000000E+01 0.  1.
<mgrwt>
<rscale>  0 0.27532836E+03</rscale>
<asrwt>0</asrwt>
<pdfrwt beam="1">  1        2 0.13205960E+00 0.27532836E+03</pdfrwt>
<pdfrwt beam="2">  1       -2 0.33966065E-02 0.27532836E+03</pdfrwt>
<totfact> 0.11345464E+04</totfact>
</mgrwt>
</event>
<event>
 9    1  0.2094635E-002  0.2746555E+03  0.7818608E-02  0.1098644E+00
         -2   -1    0    0    0  501 -0.00000000000E+00  0.00000000000E+00  0.10177116783E+03  0.10177116783E+03  0.00000000000E+00 0.  1.
          2   -1    0    0  501    0  0.00000000000E+00 -0.00000000000E+00 -0.18530696420E+03  0.18530696420E+03  0.00000000000E+00 0.  1.
         36    2    1    2    0    0  0.71054273576E-14  0.00000000000E+00 -0.83535796364E+02  0.28707813203E+03  0.27465546530E+03 0.  0.
         25    2    3    3    0    0 -0.22888586649E+02 -0.98626383144E+01 -0.92058884877E+02  0.16066906611E+03  0.12930023777E+03 0.  0.
         25    2    3    3    0    0  0.22888586649E+02  0.98626383144E+01  0.85230885124E+01  0.12640906592E+03  0.12363433939E+03 0.  0.
          5    1    4    4  502    0 -0.32886411123E+02 -0.60127948263E+02 -0.18946859539E+02  0.71259804134E+02  0.47000000000E+01 0. -1.
         -5    1    4    4    0  502  0.99978244737E+01  0.50265309949E+02 -0.73112025338E+02  0.89409261978E+02  0.47000000000E+01 0. -1.
          5    1    5    5  503    0  0.18640101864E+02 -0.48095917526E+02  0.34858928441E+02  0.62433208889E+02  0.47000000000E+01 0.  1.
         -5    1    5    5    0  503  0.42484847849E+01  0.57958555840E+02 -0.26335839929E+02  0.63975857031E+02  0.47000000000E+01 0.  1.
<mgrwt>
<rscale>  0 0.27465547E+03</rscale>
<asrwt>0</asrwt>
<pdfrwt beam="1">  1        2 0.28508764E-01 0.27465547E+03</pdfrwt>
<pdfrwt beam="2">  1       -2 0.15657103E-01 0.27465547E+03</pdfrwt>
<totfact> 0.58703366E+03</totfact>
</mgrwt>
</event>
<event>
 9    1  0.2094635E-002  0.2754872E+03  0.7818608E-02  0.1098180E+00
          1   -1    0    0  501    0  0.00000000000E+00  0.00000000000E+00  0.10112039080E+04  0.10112039080E+04  0.00000000000E+00 0.  1.
         -1   -1    0    0    0  501 -0.00000000000E+00 -0.00000000000E+00 -0.18763082066E+02  0.18763082066E+02  0.00000000000E+00 0.  1.
         36    2    1    2    0    0  0.00000000000E+00  0.00000000000E+00  0.99244082595E+03  0.10299669901E+04  0.27548721866E+03 0.  0.
         25    2    3    3    0    0 -0.73909015883E+01  0.32479549298E+02  0.66263608733E+03  0.67522334783E+03  0.12542104558E+03 0.  0.
         25    2    3    3    0    0  0.73909015883E+01 -0.32479549298E+02  0.32980473863E+03  0.35474364226E+03  0.12634215272E+03 0.  0.
          5    1    4    4  502    0 -0.17316766907E+02 -0.37732170452E+01  0.61052057551E+03  0.61079585027E+03  0.47000000000E+01 0. -1.
         -5    1    4    4    0  502  0.99258653186E+01  0.36252766343E+02  0.52115511816E+02  0.64427497559E+02  0.47000000000E+01 0. -1.
          5    1    5    5  503    0 -0.54117999098E+02 -0.30953315962E+02  0.11092072412E+03  0.12732777637E+03  0.47000000000E+01 0. -1.
         -5    1    5    5    0  503  0.61508900687E+02 -0.15262333361E+01  0.21888401451E+03  0.22741586589E+03  0.47000000000E+01 0. -1.
<mgrwt>
<rscale>  0 0.27548722E+03</rscale>
<asrwt>0</asrwt>
<pdfrwt beam="1">  1        1 0.15556979E+00 0.27548722E+03</pdfrwt>
<pdfrwt beam="2">  1       -1 0.28866288E-02 0.27548722E+03</pdfrwt>
<totfact> 0.62596140E+03</totfact>
</mgrwt>
</event>
<event>
 9    1  0.2094635E-002  0.2751546E+03  0.7818608E-02  0.1098365E+00
         -1   -1    0    0    0  501 -0.00000000000E+00  0.00000000000E+00  0.35278171394E+02  0.35278171394E+02  0.00000000000E+00 0.  1.
          1   -1    0    0  501    0  0.00000000000E+00 -0.00000000000E+00 -0.53652178685E+03  0.53652178685E+03  0.00000000000E+00 0.  1.
         36    2    1    2    0    0 -0.71054273576E-14  0.00000000000E+00 -0.50124361545E+03  0.57179995824E+03  0.27515455695E+03 0.  0.
         25    2    3    3    0    0 -0.28675214084E+02  0.19071745579E+02 -0.34552055624E+03  0.36912200924E+03  0.12522221665E+03 0.  0.
         25    2    3    3    0    0  0.28675214084E+02 -0.19071745579E+02 -0.15572305922E+03  0.20267794900E+03  0.12507070183E+03 0.  0.
          5    1    4    4  502    0  0.44424589979E+02  0.31139212994E+02 -0.17120446016E+03  0.17965592659E+03  0.47000000000E+01 0. -1.
         -5    1    4    4    0  502 -0.73099804063E+02 -0.12067467415E+02 -0.17431609608E+03  0.18946608266E+03  0.47000000000E+01 0. -1.
          5    1    5    5  503    0 -0.30248872292E+02 -0.38561977640E+02 -0.19587282185E+02  0.52988413996E+02  0.47000000000E+01 0.  1.
         -5    1    5    5    0  503  0.58924086376E+02  0.19490232061E+02 -0.13613577703E+03  0.14968953500E+03  0.47000000000E+01 0.  1.
<mgrwt>
<rscale>  0 0.27515456E+03</rscale>
<asrwt>0</asrwt>
<pdfrwt beam="1">  1        1 0.82541813E-01 0.27515456E+03</pdfrwt>
<pdfrwt beam="2">  1       -1 0.54274110E-02 0.27515456E+03</pdfrwt>
<totfact> 0.63563192E+03</totfact>
</mgrwt>
</event>
<event>
 9    1  0.2094635E-002  0.2759167E+03  0.7818608E-02  0.1097940E+00
          2   -1    0    0  501    0  0.00000000000E+00  0.00000000000E+00  0.17237239202E+03  0.17237239202E+03  0.00000000000E+00 0. -1.
         -2   -1    0    0    0  501 -0.00000000000E+00 -0.00000000000E+00 -0.11041507934E+03  0.11041507934E+03  0.00000000000E+00 0. -1.
         36    2    1    2    0    0  0.00000000000E+00 -0.17763568394E-14  0.61957312678E+02  0.28278747136E+03  0.27591673629E+03 0.  0.
         25    2    3    3    0    0 -0.48890158336E+02  0.89314238376E+01  0.65661549031E+02  0.14899680890E+03  0.12417162368E+03 0.  0.
         25    2    3    3    0    0  0.48890158336E+02 -0.89314238376E+01 -0.37042363531E+01  0.13379066246E+03  0.12416199934E+03 0.  0.
          5    1    4    4  502    0 -0.43855617058E+02  0.85411750642E+01  0.10229174711E+03  0.11172268501E+03  0.47000000000E+01 0. -1.
         -5    1    4    4    0  502 -0.50345412780E+01  0.39024877334E+00 -0.36630198082E+02  0.37274123886E+02  0.47000000000E+01 0. -1.
          5    1    5    5  503    0  0.16970423402E+02 -0.26216344013E+02 -0.59324696670E+02  0.67207154372E+02  0.47000000000E+01 0. -1.
         -5    1    5    5    0  503  0.31919734934E+02  0.17284920175E+02  0.55620460317E+02  0.66583508090E+02  0.47000000000E+01 0. -1.
<mgrwt>
<rscale>  0 0.27591674E+03</rscale>
<asrwt>0</asrwt>
<pdfrwt beam="1">  1        2 0.26518830E-01 0.27591674E+03</pdfrwt>
<pdfrwt beam="2">  1       -2 0.16986935E-01 0.27591674E+03</pdfrwt>
<totfact> 0.55521707E+03</totfact>
</mgrwt>
</event>
<event>
 9    1  0.2094635E-002  0.2758054E+03  0.7818608E-02  0.1098002E+00
          1   -1    0    0  501    0  0.00000000000E+00  0.00000000000E+00  0.61720238759E+03  0.61720238759E+03  0.00000000000E+00 0.  1.
         -1   -1    0    0    0  501 -0.00000000000E+00 -0.00000000000E+00 -0.30811866839E+02  0.30811866839E+02  0.00000000000E+00 0.  1.
         36    2    1    2    0    0  0.00000000000E+00 -0.71054273576E-14  0.58639052076E+03  0.64801425443E+03  0.27580542257E+03 0.  0.
         25    2    3    3    0    0 -0.27580010676E+02 -0.24886600458E+02  0.38891951578E+03  0.41081191493E+03  0.12699621972E+03 0.  0.
         25    2    3    3    0    0  0.27580010676E+02  0.24886600458E+02  0.19747100498E+03  0.23720233951E+03  0.12605614697E+03 0.  0.
          5    1    4    4  502    0  0.43923042390E+02  0.55106883331E+01  0.22485360003E+03  0.22921787187E+03  0.47000000000E+01 0.  1.
         -5    1    4    4    0  502 -0.71503053066E+02 -0.30397288791E+02  0.16406591575E+03  0.18159404306E+03  0.47000000000E+01 0.  1.
          5    1    5    5  503    0 -0.35784604681E+02 -0.67894078940E+01  0.14321208117E+03  0.14784594747E+03  0.47000000000E+01 0.  1.
         -5    1    5    5    0  503  0.63364615357E+02  0.31676008352E+02  0.54258923814E+02  0.89356392037E+02  0.47000000000E+01 0.  1.
<mgrwt>
<rscale>  0 0.27580542E+03</rscale>
<asrwt>0</asrwt>
<pdfrwt beam="1">  1        1 0.94954204E-01 0.27580542E+03</pdfrwt>
<pdfrwt beam="2">  1       -1 0.47402877E-02 0.27580542E+03</pdfrwt>
<totfact> 0.64236030E+03</totfact>
</mgrwt>
</event>
<event>
 9    1  0.2094635E-002  0.2764978E+03  0.7818608E-02  0.1097617E+00
          1   -1    0    0  501    0  0.00000000000E+00  0.00000000000E+00  0.15393835468E+03  0.15393835468E+03  0.00000000000E+00 0.  1.
         -1   -1    0    0    0  501 -0.00000000000E+00 -0.00000000000E+00 -0.12415850889E+03  0.12415850889E+03  0.00000000000E+00 0.  1.
         36    2    1    2    0    0  0.00000000000E+00 -0.71054273576E-14  0.29779845784E+02  0.27809686357E+03  0.27649778718E+03 0.  0.
         25    2    3    3    0    0 -0.49808196033E+02  0.17920986737E+02 -0.11372371726E+02  0.13609589174E+03  0.12486289582E+03 0.  0.
         25    2    3    3    0    0  0.49808196033E+02 -0.17920986737E+02  0.41152217510E+02  0.14200097183E+03  0.12517488901E+03 0.  0.
          5    1    4    4  502    0 -0.11345395355E+02  0.64625127517E+02  0.18671896633E+02  0.68380222479E+02  0.47000000000E+01 0. -1.
         -5    1    4    4    0  502 -0.38462800678E+02 -0.46704140780E+02 -0.30044268359E+02  0.67715669259E+02  0.47000000000E+01 0. -1.
          5    1    5    5  503    0  0.43485840075E+02 -0.64772017674E+02  0.51209347000E+02  0.93439390948E+02  0.47000000000E+01 0.  1.
         -5    1    5    5    0  503  0.63223559573E+01  0.46851030936E+02 -0.10057129490E+02  0.48561580887E+02  0.47000000000E+01 0.  1.
<mgrwt>
<rscale>  0 0.27649779E+03</rscale>
<asrwt>0</asrwt>
<pdfrwt beam="1">  1        1 0.23682824E-01 0.27649779E+03</pdfrwt>
<pdfrwt beam="2">  1       -1 0.19101309E-01 0.27649779E+03</pdfrwt>
<totfact> 0.44323837E+03</totfact>
</mgrwt>
</event>
<event>
 8    1  0.2094635E-002  0.2948265E+03  0.7818608E-02  0.1087856E+00
          1   -1    0    0  501    0  0.00000000000E+00  0.00000000000E+00  0.24051242657E+03  0.24051242657E+03  0.00000000000E+00 0.  1.
         -1   -1    0    0    0  501 -0.00000000000E+00 -0.00000000000E+00 -0.90351512334E+02  0.90351512334E+02  0.00000000000E+00 0.  1.
         25    2    1    2    0    0  0.49833602323E+02 -0.36278155777E+02  0.19373862715E+02  0.14173411178E+03  0.12614959127E+03 0.  0.
         25    2    1    2    0    0 -0.49833602323E+02  0.36278155777E+02  0.13078705152E+03  0.18912982712E+03  0.12192352584E+03 0.  0.
          5    1    3    3  502    0 -0.31348871926E+02 -0.40389914657E+02 -0.14794959024E+02  0.53432927953E+02  0.47000000000E+01 0. -1.
         -5    1    3    3    0  502  0.81182474249E+02  0.41117588807E+01  0.34168821739E+02  0.88301183828E+02  0.47000000000E+01 0. -1.
          5    1    4    4  503    0  0.17706515356E+02  0.38427685907E+02  0.11050420438E+03  0.11842076219E+03  0.47000000000E+01 0. -1.
         -5    1    4    4    0  503 -0.67540117679E+02 -0.21495301305E+01  0.20282847134E+02  0.70709064933E+02  0.47000000000E+01 0. -1.
<mgrwt>
<rscale>  0 0.29482647E+03</rscale>
<asrwt>0</asrwt>
<pdfrwt beam="1">  1        1 0.37001912E-01 0.29482647E+03</pdfrwt>
<pdfrwt beam="2">  1       -1 0.13900233E-01 0.29482647E+03</pdfrwt>
<totfact> 0.41968352E+03</totfact>
</mgrwt>
</event>
<event>
 9    1  0.2094635E-002  0.2702570E+03  0.7818608E-02  0.1101133E+00
         -4   -1    0    0    0  501 -0.00000000000E+00  0.00000000000E+00  0.50068557370E+03  0.50068557370E+03  0.00000000000E+00 0. -1.
          4   -1    0    0  501    0  0.00000000000E+00 -0.00000000000E+00 -0.36469424548E+02  0.36469424548E+02  0.00000000000E+00 0. -1.
         36    2    1    2    0    0  0.00000000000E+00 -0.71054273576E-14  0.46421614915E+03  0.53715499825E+03  0.27025702398E+03 0.  0.
         25    2    3    3    0    0 -0.24938631369E+02  0.42909702613E+02  0.18779851734E+03  0.23057758623E+03  0.12423591367E+03 0.  0.
         25    2    3    3    0    0  0.24938631369E+02 -0.42909702613E+02  0.27641763182E+03  0.30657741202E+03  0.12296269544E+03 0.  0.
          5    1    4    4  502    0 -0.52594506749E+02 -0.16748096433E+02  0.38760244369E+02  0.67610113281E+02  0.47000000000E+01 0.  1.
         -5    1    4    4    0  502  0.27655875380E+02  0.59657799046E+02  0.14903827297E+03  0.16296747295E+03  0.47000000000E+01 0.  1.
          5    1    5    5  503    0 -0.39061076791E+02  0.11849755712E+02  0.48595788531E+02  0.63638236096E+02  0.47000000000E+01 0. -1.
         -5    1    5    5    0  503  0.63999708160E+02 -0.54759458325E+02  0.22782184329E+03  0.24293917592E+03  0.47000000000E+01 0. -1.
<mgrwt>
<rscale>  0 0.27025702E+03</rscale>
<asrwt>0</asrwt>
<pdfrwt beam="1">  1        4 0.56106811E-02 0.27025702E+03</pdfrwt>
<pdfrwt beam="2">  1       -4 0.77028545E-01 0.27025702E+03</pdfrwt>
<totfact> 0.57204519E+02</totfact>
</mgrwt>
</event>
<event>
 9    1  0.2094635E-002  0.2749178E+03  0.7818608E-02  0.1098498E+00
         -2   -1    0    0    0  501 -0.00000000000E+00  0.00000000000E+00  0.36383972706E+02  0.36383972706E+02  0.00000000000E+00 0. -1.
          2   -1    0    0  501    0  0.00000000000E+00 -0.00000000000E+00 -0.51932066793E+03  0.51932066793E+03  0.00000000000E+00 0. -1.
         36    2    1    2    0    0  0.00000000000E+00  0.17763568394E-14 -0.48293669522E+03  0.55570464063E+03  0.27491779868E+03 0.  0.
         25    2    3    3    0    0 -0.46288395743E+02 -0.67508207329E+01 -0.18410591829E+03  0.22860564147E+03  0.12719025513E+03 0.  0.
         25    2    3    3    0    0  0.46288395743E+02  0.67508207329E+01 -0.29883077693E+03  0.32709899916E+03  0.12452201754E+03 0.  0.
          5    1    4    4  502    0  0.22146582345E+02 -0.46357121870E+02 -0.44669003004E+02  0.68241216922E+02  0.47000000000E+01 0.  1.
         -5    1    4    4    0  502 -0.68434978087E+02  0.39606301137E+02 -0.13943691528E+03  0.16036442455E+03  0.47000000000E+01 0.  1.
          5    1    5    5  503    0  0.36908482819E+02 -0.95449380379E+01 -0.30449423800E+03  0.30690743380E+03  0.47000000000E+01 0.  1.
         -5    1    5    5    0  503  0.93799129234E+01  0.16295758771E+02  0.56634610741E+01  0.20191565360E+02  0.47000000000E+01 0.  1.
<mgrwt>
<rscale>  0 0.27491780E+03</rscale>
<asrwt>0</asrwt>
<pdfrwt beam="1">  1        2 0.79895483E-01 0.27491780E+03</pdfrwt>
<pdfrwt beam="2">  1       -2 0.55975346E-02 0.27491780E+03</pdfrwt>
<totfact> 0.97661521E+03</totfact>
</mgrwt>
</event>
<event>
 9    1  0.2094635E-002  0.2757924E+03  0.7818608E-02  0.1098009E+00
         -1   -1    0    0    0  501 -0.00000000000E+00  0.00000000000E+00  0.26113867195E+02  0.26113867195E+02  0.00000000000E+00 0.  1.
          1   -1    0    0  501    0  0.00000000000E+00 -0.00000000000E+00 -0.72817123344E+03  0.72817123344E+03  0.00000000000E+00 0.  1.
         36    2    1    2    0    0 -0.22204460493E-15  0.00000000000E+00 -0.70205736624E+03  0.75428510063E+03  0.27579243561E+03 0.  0.
         25    2    3    3    0    0  0.10478335138E+01 -0.65484475924E+02 -0.32411573113E+03  0.35294437553E+03  0.12340749780E+03 0.  0.
         25    2    3    3    0    0 -0.10478335138E+01  0.65484475924E+02 -0.37794163511E+03  0.40134072510E+03  0.11808972660E+03 0.  0.
          5    1    4    4  502    0  0.15049509269E+01  0.28497807090E+02 -0.21506746630E+02  0.36041920549E+02  0.47000000000E+01 0. -1.
         -5    1    4    4    0  502 -0.45711741310E+00 -0.93982283014E+02 -0.30260898450E+03  0.31690245499E+03  0.47000000000E+01 0. -1.
          5    1    5    5  503    0 -0.75132490925E+01  0.30371034884E+01 -0.30434924717E+03  0.30449339428E+03  0.47000000000E+01 0. -1.
         -5    1    5    5    0  503  0.64654155787E+01  0.62447372435E+02 -0.73592387944E+02  0.96847330815E+02  0.47000000000E+01 0. -1.
<mgrwt>
<rscale>  0 0.27579244E+03</rscale>
<asrwt>0</asrwt>
<pdfrwt beam="1">  1        1 0.11202635E+00 0.27579244E+03</pdfrwt>
<pdfrwt beam="2">  1       -1 0.40175179E-02 0.27579244E+03</pdfrwt>
<totfact> 0.64806333E+03</totfact>
</mgrwt>
</event>
<event>
 9    1  0.2094635E-002  0.2749433E+03  0.7818608E-02  0.1098483E+00
         -1   -1    0    0    0  501 -0.00000000000E+00  0.00000000000E+00  0.15231251264E+02  0.15231251264E+02  0.00000000000E+00 0. -1.
          1   -1    0    0  501    0  0.00000000000E+00 -0.00000000000E+00 -0.12407680523E+04  0.12407680523E+04  0.00000000000E+00 0. -1.
         36    2    1    2    0    0 -0.14210854715E-13 -0.17763568394E-14 -0.12255368010E+04  0.12559993035E+04  0.27494326662E+03 0.  0.
         25    2    3    3    0    0 -0.55772850846E+02 -0.13266734759E+02 -0.76580423511E+03  0.77753402851E+03  0.12172272520E+03 0.  0.
         25    2    3    3    0    0  0.55772850846E+02  0.13266734759E+02 -0.45973256590E+03  0.47846527504E+03  0.11953397057E+03 0.  0.
          5    1    4    4  502    0  0.15311926006E+02  0.40297287254E+01 -0.53738922814E+03  0.53764297290E+03  0.47000000000E+01 0. -1.
         -5    1    4    4    0  502 -0.71084776852E+02 -0.17296463485E+02 -0.22841500698E+03  0.23989105561E+03  0.47000000000E+01 0. -1.
          5    1    5    5  503    0  0.11181922665E+02  0.45200793259E+02 -0.37172800703E+03  0.37466244584E+03  0.47000000000E+01 0. -1.
         -5    1    5    5    0  503  0.44590928181E+02 -0.31934058500E+02 -0.88004558869E+02  0.10380282920E+03  0.47000000000E+01 0. -1.
<mgrwt>
<rscale>  0 0.27494327E+03</rscale>
<asrwt>0</asrwt>
<pdfrwt beam="1">  1        1 0.19088743E+00 0.27494327E+03</pdfrwt>
<pdfrwt beam="2">  1       -1 0.23432689E-02 0.27494327E+03</pdfrwt>
<totfact> 0.58251346E+03</totfact>
</mgrwt>
</event>
<event>
 9    1  0.2094635E-002  0.2752533E+03  0.7818608E-02  0.1098310E+00
         -2   -1    0    0    0  501 -0.00000000000E+00  0.00000000000E+00  0.12829284603E+03  0.12829284603E+03  0.00000000000E+00 0. -1.
          2   -1    0    0  501    0  0.00000000000E+00 -0.00000000000E+00 -0.14763949481E+03  0.14763949481E+03  0.00000000000E+00 0. -1.
         36    2    1    2    0    0  0.17763568394E-14 -0.71054273576E-14 -0.19346648780E+02  0.27593234085E+03  0.27525327229E+03 0.  0.
         25    2    3    3    0    0 -0.11543861708E+02  0.49936060562E+02  0.10378626955E+02  0.13707324950E+03  0.12670630981E+03 0.  0.
         25    2    3    3    0    0  0.11543861708E+02 -0.49936060562E+02 -0.29725275735E+02  0.13885909135E+03  0.12558417235E+03 0.  0.
          5    1    4    4  502    0  0.34605262737E+01  0.28182328419E+02 -0.57379309113E+02  0.64192631909E+02  0.47000000000E+01 0. -1.
         -5    1    4    4    0  502 -0.15004387981E+02  0.21753732143E+02  0.67757936068E+02  0.72880617595E+02  0.47000000000E+01 0. -1.
          5    1    5    5  503    0  0.60317630346E+02  0.62467153746E+01 -0.90087681591E+01  0.61485655948E+02  0.47000000000E+01 0.  1.
         -5    1    5    5    0  503 -0.48773768639E+02 -0.56182775936E+02 -0.20716507576E+02  0.77373435398E+02  0.47000000000E+01 0.  1.
<mgrwt>
<rscale>  0 0.27525327E+03</rscale>
<asrwt>0</asrwt>
<pdfrwt beam="1">  1        2 0.22713768E-01 0.27525327E+03</pdfrwt>
<pdfrwt beam="2">  1       -2 0.19737361E-01 0.27525327E+03</pdfrwt>
<totfact> 0.51230444E+03</totfact>
</mgrwt>
</event>
<event>
 9    1  0.2094635E-002  0.2751974E+03  0.7818608E-02  0.1098341E+00
          3   -1    0    0  501    0  0.00000000000E+00  0.00000000000E+00  0.14805990790E+03  0.14805990790E+03  0.00000000000E+00 0. -1.
         -3   -1    0    0    0  501 -0.00000000000E+00 -0.00000000000E+00 -0.12787662621E+03  0.12787662621E+03  0.00000000000E+00 0. -1.
         36    2    1    2    0    0 -0.71054273576E-14  0.17763568394E-14  0.20183281688E+02  0.27593653411E+03  0.27519739460E+03 0.  0.
         25    2    3    3    0    0  0.46121324172E+02 -0.83594554032E+01  0.57917653401E+02  0.13581836480E+03  0.11355666692E+03 0.  0.
         25    2    3    3    0    0 -0.46121324172E+02  0.83594554032E+01 -0.37734371713E+02  0.14011816931E+03  0.12653916992E+03 0.  0.
          5    1    4    4  502    0  0.77394769999E+02 -0.21458171603E+02  0.16570129485E+02  0.82140506103E+02  0.47000000000E+01 0.  1.
         -5    1    4    4    0  502 -0.31273445827E+02  0.13098716200E+02  0.41347523916E+02  0.53677858694E+02  0.47000000000E+01 0.  1.
          5    1    5    5  503    0  0.41289131318E+02 -0.14545083825E+02 -0.71449167938E+01  0.44603718056E+02  0.47000000000E+01 0. -1.
         -5    1    5    5    0  503 -0.87410455490E+02  0.22904539228E+02 -0.30589454919E+02  0.95514451254E+02  0.47000000000E+01 0. -1.
<mgrwt>
<rscale>  0 0.27519739E+03</rscale>
<asrwt>0</asrwt>
<pdfrwt beam="1">  1        3 0.22778447E-01 0.27519739E+03</pdfrwt>
<pdfrwt beam="2">  1       -3 0.19673327E-01 0.27519739E+03</pdfrwt>
<totfact> 0.10451811E+03</totfact>
</mgrwt>
</event>
<event>
 9    1  0.2094635E-002  0.2763549E+03  0.7818608E-02  0.1097697E+00
         -4   -1    0    0    0  501 -0.00000000000E+00  0.00000000000E+00  0.48605565362E+03  0.48605565362E+03  0.00000000000E+00 0. -1.
          4   -1    0    0  501    0  0.00000000000E+00 -0.00000000000E+00 -0.39281530173E+02  0.39281530173E+02  0.00000000000E+00 0. -1.
         36    2    1    2    0    0 -0.71054273576E-14 -0.71054273576E-14  0.44677412345E+03  0.52533718379E+03  0.27635491545E+03 0.  0.
         25    2    3    3    0    0 -0.53999080920E+02  0.58666630479E+01  0.18789969356E+03  0.23128874326E+03  0.12344176540E+03 0.  0.
         25    2    3    3    0    0  0.53999080920E+02 -0.58666630479E+01  0.25887442989E+03  0.29404844053E+03  0.12844530530E+03 0.  0.
          5    1    4    4  502    0 -0.82197944526E+02 -0.27934133530E+02  0.97513826774E+02  0.13064399838E+03  0.47000000000E+01 0. -1.
         -5    1    4    4    0  502  0.28198863606E+02  0.33800796578E+02  0.90385866781E+02  0.10064474488E+03  0.47000000000E+01 0. -1.
          5    1    5    5  503    0  0.70090152808E+02  0.45066002907E+02  0.13025784000E+03  0.15470219462E+03  0.47000000000E+01 0.  1.
         -5    1    5    5    0  503 -0.16091071888E+02 -0.50932665955E+02  0.12861658989E+03  0.13934624591E+03  0.47000000000E+01 0.  1.
<mgrwt>
<rscale>  0 0.27635492E+03</rscale>
<asrwt>0</asrwt>
<pdfrwt beam="1">  1        4 0.60433127E-02 0.27635492E+03</pdfrwt>
<pdfrwt beam="2">  1       -4 0.74777788E-01 0.27635492E+03</pdfrwt>
<totfact> 0.54257783E+02</totfact>
</mgrwt>
</event>
<event>
 9    1  0.2094635E-002  0.2745715E+03  0.7818608E-02  0.1098691E+00
         -1   -1    0    0    0  501 -0.00000000000E+00  0.00000000000E+00  0.23390043505E+02  0.23390043505E+02  0.00000000000E+00 0.  1.
          1   -1    0    0  501    0  0.00000000000E+00 -0.00000000000E+00 -0.80578623192E+03  0.80578623192E+03  0.00000000000E+00 0.  1.
         36    2    1    2    0    0  0.00000000000E+00  0.00000000000E+00 -0.78239618841E+03  0.82917627542E+03  0.27457148446E+03 0.  0.
         25    2    3    3    0    0 -0.35455865836E+02  0.17394045629E+02 -0.51510649848E+03  0.53139623167E+03  0.12444910208E+03 0.  0.
         25    2    3    3    0    0  0.35455865836E+02 -0.17394045629E+02 -0.26728968994E+03  0.29778004376E+03  0.12517789289E+03 0.  0.
          5    1    4    4  502    0 -0.40089238562E+02 -0.51762160697E+01 -0.50355518630E+03  0.50519684868E+03  0.47000000000E+01 0. -1.
         -5    1    4    4    0  502  0.46333727264E+01  0.22570261699E+02 -0.11551312174E+02  0.26199382987E+02  0.47000000000E+01 0. -1.
          5    1    5    5  503    0 -0.86306775286E+00  0.20377468486E+02  0.41084626130E+01  0.21329687594E+02  0.47000000000E+01 0. -1.
         -5    1    5    5    0  503  0.36318933589E+02 -0.37771514115E+02 -0.27139815255E+03  0.27645035616E+03  0.47000000000E+01 0. -1.
<mgrwt>
<rscale>  0 0.27457148E+03</rscale>
<asrwt>0</asrwt>
<pdfrwt beam="1">  1        1 0.12396714E+00 0.27457148E+03</pdfrwt>
<pdfrwt beam="2">  1       -1 0.35984675E-02 0.27457148E+03</pdfrwt>
<totfact> 0.65480304E+03</totfact>
</mgrwt>
</event>
<event>
 9    1  0.2094635E-002  0.2756026E+03  0.7818608E-02  0.1098115E+00
          2   -1    0    0  501    0  0.00000000000E+00  0.00000000000E+00  0.34731731251E+04  0.34731731251E+04  0.00000000000E+00 0. -1.
         -2   -1    0    0    0  501 -0.00000000000E+00 -0.00000000000E+00 -0.54673931845E+01  0.54673931845E+01  0.00000000000E+00 0. -1.
         36    2    1    2    0    0 -0.71054273576E-14 -0.35527136788E-14  0.34677057319E+04  0.34786405183E+04  0.27560263477E+03 0.  0.
         25    2    3    3    0    0  0.61664122426E+02  0.65817532497E+01  0.14714162137E+04  0.14777137782E+04  0.12135300952E+03 0.  0.
         25    2    3    3    0    0 -0.61664122426E+02 -0.65817532497E+01  0.19962895183E+04  0.20009267401E+04  0.12120311512E+03 0.  0.
          5    1    4    4  502    0 -0.19840771491E+02  0.33193927355E+02  0.78213929336E+03  0.78310884125E+03  0.47000000000E+01 0.  1.
         -5    1    4    4    0  502  0.81504893917E+02 -0.26612174106E+02  0.68927692031E+03  0.69460493693E+03  0.47000000000E+01 0.  1.
          5    1    5    5  503    0 -0.72299866156E+02 -0.42526653839E+01  0.57176943935E+03  0.57635730028E+03  0.47000000000E+01 0.  1.
         -5    1    5    5    0  503  0.10635743730E+02 -0.23290878658E+01  0.14245200789E+04  0.14245694398E+04  0.47000000000E+01 0.  1.
<mgrwt>
<rscale>  0 0.27560263E+03</rscale>
<asrwt>0</asrwt>
<pdfrwt beam="1">  1        2 0.53433256E+00 0.27560263E+03</pdfrwt>
<pdfrwt beam="2">  1       -2 0.84114019E-03 0.27560263E+03</pdfrwt>
<totfact> 0.28950528E+03</totfact>
</mgrwt>
</event>
<event>
 9    1  0.2094635E-002  0.2755123E+03  0.7818608E-02  0.1098166E+00
          2   -1    0    0  501    0  0.00000000000E+00  0.00000000000E+00  0.18581874545E+04  0.18581874545E+04  0.00000000000E+00 0.  1.
         -2   -1    0    0    0  501 -0.00000000000E+00 -0.00000000000E+00 -0.10212509233E+02  0.10212509233E+02  0.00000000000E+00 0.  1.
         36    2    1    2    0    0  0.14210854715E-13  0.71054273576E-14  0.18479749453E+04  0.18683999637E+04  0.27551229762E+03 0.  0.
         25    2    3    3    0    0  0.48380824130E+02 -0.26773974144E+02  0.79107735346E+03  0.80256095319E+03  0.12346317095E+03 0.  0.
         25    2    3    3    0    0 -0.48380824130E+02  0.26773974144E+02  0.10568975918E+04  0.10658390105E+04  0.12618528840E+03 0.  0.
          5    1    4    4  502    0 -0.16368771661E+01 -0.66238365545E+02  0.51044340477E+03  0.51474727771E+03  0.47000000000E+01 0. -1.
         -5    1    4    4    0  502  0.50017701296E+02  0.39464391401E+02  0.28063394869E+03  0.28781367547E+03  0.47000000000E+01 0. -1.
          5    1    5    5  503    0  0.20038205031E+02  0.41981749549E+02  0.72917341168E+03  0.73067089121E+03  0.47000000000E+01 0.  1.
         -5    1    5    5    0  503 -0.68419029161E+02 -0.15207775405E+02  0.32772418012E+03  0.33516811934E+03  0.47000000000E+01 0.  1.
<mgrwt>
<rscale>  0 0.27551230E+03</rscale>
<asrwt>0</asrwt>
<pdfrwt beam="1">  1        2 0.28587472E+00 0.27551230E+03</pdfrwt>
<pdfrwt beam="2">  1       -2 0.15711567E-02 0.27551230E+03</pdfrwt>
<totfact> 0.97236496E+03</totfact>
</mgrwt>
</event>
<event>
 9    1  0.2094635E-002  0.2788345E+03  0.7818608E-02  0.1096327E+00
         -2   -1    0    0    0  501 -0.00000000000E+00  0.00000000000E+00  0.10010718099E+02  0.10010718099E+02  0.00000000000E+00 0.  1.
          2   -1    0    0  501    0  0.00000000000E+00 -0.00000000000E+00 -0.19416354834E+04  0.19416354834E+04  0.00000000000E+00 0.  1.
         36    2    1    2    0    0 -0.14210854715E-13 -0.88817841970E-15 -0.19316247653E+04  0.19516462015E+04  0.27883447043E+03 0.  0.
         25    2    3    3    0    0  0.51363154419E+02  0.95561042286E+00 -0.89411085969E+03  0.90543881068E+03  0.13321457749E+03 0.  0.
         25    2    3    3    0    0 -0.51363154419E+02 -0.95561042286E+00 -0.10375139056E+04  0.10462073908E+04  0.12440142055E+03 0.  0.
          5    1    4    4  502    0 -0.39498459004E+02 -0.60076274303E+01 -0.13508646253E+03  0.14094914760E+03  0.47000000000E+01 0.  1.
         -5    1    4    4    0  502  0.90861613423E+02  0.69632378532E+01 -0.75902439716E+03  0.76448966308E+03  0.47000000000E+01 0.  1.
          5    1    5    5  503    0 -0.65539066343E+02  0.49298201991E+02 -0.62441395422E+03  0.62979406012E+03  0.47000000000E+01 0.  1.
         -5    1    5    5    0  503  0.14175911924E+02 -0.50253812413E+02 -0.41309995139E+03  0.41641333070E+03  0.47000000000E+01 0.  1.
<mgrwt>
<rscale>  0 0.27883447E+03</rscale>
<asrwt>0</asrwt>
<pdfrwt beam="1">  1        2 0.29871342E+00 0.27883447E+03</pdfrwt>
<pdfrwt beam="2">  1       -2 0.15401091E-02 0.27883447E+03</pdfrwt>
<totfact> 0.90522087E+03</totfact>
</mgrwt>
</event>
<event>
 9    1  0.2094635E-002  0.2726538E+03  0.7818608E-02  0.1099770E+00
         -2   -1    0    0    0  501 -0.00000000000E+00  0.00000000000E+00  0.25628409969E+02  0.25628409969E+02  0.00000000000E+00 0. -1.
          2   -1    0    0  501    0  0.00000000000E+00 -0.00000000000E+00 -0.72517251138E+03  0.72517251138E+03  0.00000000000E+00 0. -1.
         36    2    1    2    0    0  0.00000000000E+00  0.71054273576E-14 -0.69954410141E+03  0.75080092135E+03  0.27265376154E+03 0.  0.
         25    2    3    3    0    0  0.22579351794E+01  0.43665609094E+02 -0.45480344400E+03  0.47374650773E+03  0.12521101078E+03 0.  0.
         25    2    3    3    0    0 -0.22579351794E+01 -0.43665609094E+02 -0.24474065741E+03  0.27705441362E+03  0.12226763688E+03 0.  0.
          5    1    4    4  502    0 -0.41700801487E+02  0.60436790385E+02 -0.36408434994E+03  0.37144456699E+03  0.47000000000E+01 0. -1.
         -5    1    4    4    0  502  0.43958736666E+02 -0.16771181291E+02 -0.90719094058E+02  0.10230194073E+03  0.47000000000E+01 0. -1.
          5    1    5    5  503    0  0.56104048367E+02 -0.42554056374E+02 -0.14808954504E+03  0.16404607678E+03  0.47000000000E+01 0.  1.
         -5    1    5    5    0  503 -0.58361983546E+02 -0.11115527208E+01 -0.96651112370E+02  0.11300833684E+03  0.47000000000E+01 0.  1.
<mgrwt>
<rscale>  0 0.27265376E+03</rscale>
<asrwt>0</asrwt>
<pdfrwt beam="1">  1        2 0.11156498E+00 0.27265376E+03</pdfrwt>
<pdfrwt beam="2">  1       -2 0.39428332E-02 0.27265376E+03</pdfrwt>
<totfact> 0.11230372E+04</totfact>
</mgrwt>
</event>
<event>
 9    1  0.2094635E-002  0.2750775E+03  0.7818608E-02  0.1098408E+00
         -2   -1    0    0    0  501 -0.00000000000E+00  0.00000000000E+00  0.18474405746E+02  0.18474405746E+02  0.00000000000E+00 0. -1.
          2   -1    0    0  501    0  0.00000000000E+00 -0.00000000000E+00 -0.10239519636E+04  0.10239519636E+04  0.00000000000E+00 0. -1.
         36    2    1    2    0    0  0.14210854715E-13  0.71054273576E-14 -0.10054775579E+04  0.10424263694E+04  0.27507747302E+03 0.  0.
         25    2    3    3    0    0 -0.48704435358E+02 -0.30035011605E+02 -0.56569087694E+03  0.58207800423E+03  0.12463711648E+03 0.  0.
         25    2    3    3    0    0  0.48704435358E+02  0.30035011605E+02 -0.43978668094E+03  0.46034836515E+03  0.12342636920E+03 0.  0.
          5    1    4    4  502    0 -0.12660776227E+02 -0.64843484447E+02 -0.46304386783E+03  0.46775708040E+03  0.47000000000E+01 0.  1.
         -5    1    4    4    0  502 -0.36043659131E+02  0.34808472842E+02 -0.10264700911E+03  0.11432092382E+03  0.47000000000E+01 0.  1.
          5    1    5    5  503    0 -0.72815978291E+01 -0.42519207573E+02 -0.11768540933E+03  0.12543065913E+03  0.47000000000E+01 0.  1.
         -5    1    5    5    0  503  0.55986033187E+02  0.72554219178E+02 -0.32210127161E+03  0.33491770602E+03  0.47000000000E+01 0.  1.
<mgrwt>
<rscale>  0 0.27507747E+03</rscale>
<asrwt>0</asrwt>
<pdfrwt beam="1">  1        2 0.15753107E+00 0.27507747E+03</pdfrwt>
<pdfrwt beam="2">  1       -2 0.28422162E-02 0.27507747E+03</pdfrwt>
<totfact> 0.11626675E+04</totfact>
</mgrwt>
</event>
<event>
 9    1  0.2094635E-002  0.2752833E+03  0.7818608E-02  0.1098293E+00
          1   -1    0    0  501    0  0.00000000000E+00  0.00000000000E+00  0.74489976217E+03  0.74489976217E+03  0.00000000000E+00 0.  1.
         -1   -1    0    0    0  501 -0.00000000000E+00 -0.00000000000E+00 -0.25433247331E+02  0.25433247331E+02  0.00000000000E+00 0.  1.
         36    2    1    2    0    0  0.17763568394E-14  0.00000000000E+00  0.71946651484E+03  0.77033300950E+03  0.27528327147E+03 0.  0.
         25    2    3    3    0    0  0.64989074890E+01  0.24549899517E+02  0.33342208442E+03  0.36353769056E+03  0.14263391151E+03 0.  0.
         25    2    3    3    0    0 -0.64989074890E+01 -0.24549899517E+02  0.38604443042E+03  0.40679531894E+03  0.12572667135E+03 0.  0.
          5    1    4    4  502    0  0.10657111099E+02 -0.45682525729E+02  0.40199478864E+02  0.61956075367E+02  0.47000000000E+01 0.  1.
         -5    1    4    4    0  502 -0.41582036101E+01  0.70232425246E+02  0.29322260556E+03  0.30158161520E+03  0.47000000000E+01 0.  1.
          5    1    5    5  503    0  0.33489731728E+02 -0.59265778149E+02  0.14928588752E+03  0.16414128306E+03  0.47000000000E+01 0.  1.
         -5    1    5    5    0  503 -0.39988639217E+02  0.34715878631E+02  0.23675854289E+03  0.24265403588E+03  0.47000000000E+01 0.  1.
<mgrwt>
<rscale>  0 0.27528327E+03</rscale>
<asrwt>0</asrwt>
<pdfrwt beam="1">  1        1 0.11459995E+00 0.27528327E+03</pdfrwt>
<pdfrwt beam="2">  1       -1 0.39128079E-02 0.27528327E+03</pdfrwt>
<totfact> 0.65159494E+03</totfact>
</mgrwt>
</event>
<event>
 9    1  0.2094635E-002  0.2745764E+03  0.7818608E-02  0.1098689E+00
          1   -1    0    0  501    0  0.00000000000E+00  0.00000000000E+00  0.20801692755E+02  0.20801692755E+02  0.00000000000E+00 0.  1.
         -1   -1    0    0    0  501 -0.00000000000E+00 -0.00000000000E+00 -0.90608237804E+03  0.90608237804E+03  0.00000000000E+00 0.  1.
         36    2    1    2    0    0 -0.17763568394E-14  0.53290705182E-14 -0.88528068529E+03  0.92688407080E+03  0.27457638091E+03 0.  0.
         25    2    3    3    0    0  0.54619898976E+01 -0.33200177039E+01 -0.23613959058E+03  0.26592641767E+03  0.12212328820E+03 0.  0.
         25    2    3    3    0    0 -0.54619898976E+01  0.33200177039E+01 -0.64914109471E+03  0.66095765313E+03  0.12425780677E+03 0.  0.
          5    1    4    4  502    0  0.15992487957E+01 -0.62542160469E+02 -0.12342846191E+03  0.13845849430E+03  0.47000000000E+01 0. -1.
         -5    1    4    4    0  502  0.38627411019E+01  0.59222142765E+02 -0.11271112867E+03  0.12746792337E+03  0.47000000000E+01 0. -1.
          5    1    5    5  503    0 -0.58439757339E+02 -0.65222543395E+01 -0.47394567748E+03  0.47760270125E+03  0.47000000000E+01 0. -1.
         -5    1    5    5    0  503  0.52977767441E+02  0.98422720434E+01 -0.17519541723E+03  0.18335495188E+03  0.47000000000E+01 0. -1.
<mgrwt>
<rscale>  0 0.27457638E+03</rscale>
<asrwt>0</asrwt>
<pdfrwt beam="1">  1        1 0.32002607E-02 0.27457638E+03</pdfrwt>
<pdfrwt beam="2">  1       -1 0.13939728E+00 0.27457638E+03</pdfrwt>
<totfact> 0.14215868E+03</totfact>
</mgrwt>
</event>
<event>
 9    1  0.2094635E-002  0.2747127E+03  0.7818608E-02  0.1098612E+00
         -2   -1    0    0    0  501 -0.00000000000E+00  0.00000000000E+00  0.24786137774E+03  0.24786137774E+03  0.00000000000E+00 0.  1.
          2   -1    0    0  501    0  0.00000000000E+00 -0.00000000000E+00 -0.76118244304E+02  0.76118244304E+02  0.00000000000E+00 0.  1.
         36    2    1    2    0    0  0.00000000000E+00 -0.71054273576E-14  0.17174313344E+03  0.32397962205E+03  0.27471274382E+03 0.  0.
         25    2    3    3    0    0  0.37462227629E+02  0.41462444444E+02  0.76011190222E+02  0.16201986619E+03  0.13172009415E+03 0.  0.
         25    2    3    3    0    0 -0.37462227629E+02 -0.41462444444E+02  0.95731943216E+02  0.16195975586E+03  0.11808388869E+03 0.  0.
          5    1    4    4  502    0 -0.27660235005E+02 -0.32176151668E+00  0.79619164757E+02  0.84418561511E+02  0.47000000000E+01 0. -1.
         -5    1    4    4    0  502  0.65122462635E+02  0.41784205960E+02 -0.36079745348E+01  0.77601304677E+02  0.47000000000E+01 0. -1.
          5    1    5    5  503    0 -0.16274593511E+02 -0.20804465111E+02 -0.25539851658E+02  0.37041357767E+02  0.47000000000E+01 0. -1.
         -5    1    5    5    0  503 -0.21187634118E+02 -0.20657979333E+02  0.12127179487E+03  0.12491839809E+03  0.47000000000E+01 0. -1.
<mgrwt>
<rscale>  0 0.27471274E+03</rscale>
<asrwt>0</asrwt>
<pdfrwt beam="1">  1        2 0.11710499E-01 0.27471274E+03</pdfrwt>
<pdfrwt beam="2">  1       -2 0.38132519E-01 0.27471274E+03</pdfrwt>
<totfact> 0.34222390E+03</totfact>
</mgrwt>
</event>
<event>
 9    1  0.2094635E-002  0.2750779E+03  0.7818608E-02  0.1098408E+00
         -1   -1    0    0    0  501 -0.00000000000E+00  0.00000000000E+00  0.79805392565E+02  0.79805392565E+02  0.00000000000E+00 0. -1.
          1   -1    0    0  501    0  0.00000000000E+00 -0.00000000000E+00 -0.23703865984E+03  0.23703865984E+03  0.00000000000E+00 0. -1.
         36    2    1    2    0    0  0.00000000000E+00  0.00000000000E+00 -0.15723326728E+03  0.31684405241E+03  0.27507790389E+03 0.  0.
         25    2    3    3    0    0  0.36236654968E+02 -0.48896907460E+02 -0.71342258684E+02  0.15453972696E+03  0.12283650358E+03 0.  0.
         25    2    3    3    0    0 -0.36236654968E+02  0.48896907460E+02 -0.85891008593E+02  0.16230432544E+03  0.12353714412E+03 0.  0.
          5    1    4    4  502    0 -0.74330651398E+01 -0.70136918146E+01  0.32428734772E+02  0.34324265020E+02  0.47000000000E+01 0. -1.
         -5    1    4    4    0  502  0.43669720108E+02 -0.41883215645E+02 -0.10377099346E+03  0.12021546194E+03  0.47000000000E+01 0. -1.
          5    1    5    5  503    0  0.13894414088E+02 -0.35866626063E+02 -0.29723086710E+02  0.48836681824E+02  0.47000000000E+01 0. -1.
         -5    1    5    5    0  503 -0.50131069057E+02  0.84763533523E+02 -0.56167921883E+02  0.11346764362E+03  0.47000000000E+01 0. -1.
<mgrwt>
<rscale>  0 0.27507790E+03</rscale>
<asrwt>0</asrwt>
<pdfrwt beam="1">  1        1 0.36467486E-01 0.27507790E+03</pdfrwt>
<pdfrwt beam="2">  1       -1 0.12277753E-01 0.27507790E+03</pdfrwt>
<totfact> 0.51853449E+03</totfact>
</mgrwt>
</event>
<event>
 9    1  0.2094635E-002  0.2767468E+03  0.7818608E-02  0.1097479E+00
          2   -1    0    0  501    0  0.00000000000E+00  0.00000000000E+00  0.63470199470E+03  0.63470199470E+03  0.00000000000E+00 0. -1.
         -2   -1    0    0    0  501 -0.00000000000E+00 -0.00000000000E+00 -0.30167228221E+02  0.30167228221E+02  0.00000000000E+00 0. -1.
         36    2    1    2    0    0 -0.35527136788E-14  0.00000000000E+00  0.60453476648E+03  0.66486922292E+03  0.27674681517E+03 0.  0.
         25    2    3    3    0    0 -0.55272193743E+01 -0.40430487971E+02  0.34069259682E+03  0.36850946581E+03  0.13439719623E+03 0.  0.
         25    2    3    3    0    0  0.55272193743E+01  0.40430487971E+02  0.26384216966E+03  0.29635975711E+03  0.12865162506E+03 0.  0.
          5    1    4    4  502    0  0.14109571256E+01  0.46571203807E+02  0.71394193033E+02  0.85382015805E+02  0.47000000000E+01 0.  1.
         -5    1    4    4    0  502 -0.69381765000E+01 -0.87001691778E+02  0.26929840379E+03  0.28312745001E+03  0.47000000000E+01 0.  1.
          5    1    5    5  503    0 -0.38476100217E+02 -0.94305742967E+01  0.22124969398E+02  0.45617434061E+02  0.47000000000E+01 0.  1.
         -5    1    5    5    0  503  0.44003319591E+02  0.49861062267E+02  0.24171720026E+03  0.25074232305E+03  0.47000000000E+01 0.  1.
<mgrwt>
<rscale>  0 0.27674682E+03</rscale>
<asrwt>0</asrwt>
<pdfrwt beam="1">  1        2 0.97646450E-01 0.27674682E+03</pdfrwt>
<pdfrwt beam="2">  1       -2 0.46411125E-02 0.27674682E+03</pdfrwt>
<totfact> 0.10312680E+04</totfact>
</mgrwt>
</event>
<event>
 9    1  0.2094635E-002  0.2746300E+03  0.7818608E-02  0.1098659E+00
         -4   -1    0    0    0  501 -0.00000000000E+00  0.00000000000E+00  0.79801136652E+02  0.79801136652E+02  0.00000000000E+00 0. -1.
          4   -1    0    0  501    0  0.00000000000E+00 -0.00000000000E+00 -0.23627991560E+03  0.23627991560E+03  0.00000000000E+00 0. -1.
         36    2    1    2    0    0  0.00000000000E+00 -0.35527136788E-14 -0.15647877895E+03  0.31608105225E+03  0.27462997530E+03 0.  0.
         25    2    3    3    0    0 -0.56974292417E+02  0.24600802214E+01 -0.84102946952E+02  0.16094589598E+03  0.12481247436E+03 0.  0.
         25    2    3    3    0    0  0.56974292417E+02 -0.24600802214E+01 -0.72375831993E+02  0.15513515627E+03  0.12480598408E+03 0.  0.
          5    1    4    4  502    0  0.14869156590E+02  0.18013506642E+02 -0.83973288516E+02  0.87287922552E+02  0.47000000000E+01 0.  1.
         -5    1    4    4    0  502 -0.71843449007E+02 -0.15553426420E+02 -0.12965843570E+00  0.73657973431E+02  0.47000000000E+01 0.  1.
          5    1    5    5  503    0 -0.25453125238E+02  0.33228481005E+02 -0.43118580463E+01  0.42340000639E+02  0.47000000000E+01 0.  1.
         -5    1    5    5    0  503  0.82427417654E+02 -0.35688561226E+02 -0.68063973947E+02  0.11279515563E+03  0.47000000000E+01 0.  1.
<mgrwt>
<rscale>  0 0.27462998E+03</rscale>
<asrwt>0</asrwt>
<pdfrwt beam="1">  1        4 0.36350756E-01 0.27462998E+03</pdfrwt>
<pdfrwt beam="2">  1       -4 0.12277098E-01 0.27462998E+03</pdfrwt>
<totfact> 0.73540192E+02</totfact>
</mgrwt>
</event>
<event>
 9    1  0.2094635E-002  0.2766629E+03  0.7818608E-02  0.1097526E+00
          2   -1    0    0  501    0  0.00000000000E+00  0.00000000000E+00  0.37839120817E+03  0.37839120817E+03  0.00000000000E+00 0.  1.
         -2   -1    0    0    0  501 -0.00000000000E+00 -0.00000000000E+00 -0.50570915728E+02  0.50570915728E+02  0.00000000000E+00 0.  1.
         36    2    1    2    0    0  0.00000000000E+00  0.00000000000E+00  0.32782029244E+03  0.42896212390E+03  0.27666289885E+03 0.  0.
         25    2    3    3    0    0 -0.20185469527E+02 -0.54407932993E+02  0.17398653396E+03  0.22183780610E+03  0.12479191425E+03 0.  0.
         25    2    3    3    0    0  0.20185469527E+02  0.54407932993E+02  0.15383375848E+03  0.20712431780E+03  0.12596817623E+03 0.  0.
          5    1    4    4  502    0 -0.49835801489E+02 -0.10043942666E+02  0.13734150893E+02  0.52869696378E+02  0.47000000000E+01 0.  1.
         -5    1    4    4    0  502  0.29650331962E+02 -0.44363990327E+02  0.16025238307E+03  0.16896810972E+03  0.47000000000E+01 0.  1.
          5    1    5    5  503    0 -0.53283233769E+02  0.27488343428E+02  0.61779922227E+02  0.86218100278E+02  0.47000000000E+01 0.  1.
         -5    1    5    5    0  503  0.73468703296E+02  0.26919589566E+02  0.92053836248E+02  0.12090621752E+03  0.47000000000E+01 0.  1.
<mgrwt>
<rscale>  0 0.27666290E+03</rscale>
<asrwt>0</asrwt>
<pdfrwt beam="1">  1        2 0.58214030E-01 0.27666290E+03</pdfrwt>
<pdfrwt beam="2">  1       -2 0.77801411E-02 0.27666290E+03</pdfrwt>
<totfact> 0.83274621E+03</totfact>
</mgrwt>
</event>
<event>
 8    1  0.2094635E-002  0.2962801E+03  0.7818608E-02  0.1087115E+00
         -2   -1    0    0    0  501 -0.00000000000E+00  0.00000000000E+00  0.34858922712E+02  0.34858922712E+02  0.00000000000E+00 0.  1.
          2   -1    0    0  501    0  0.00000000000E+00 -0.00000000000E+00 -0.62955092575E+03  0.62955092575E+03  0.00000000000E+00 0.  1.
         25    2    1    2    0    0 -0.55656946919E+01  0.70451772946E+02 -0.19144679710E+03  0.23910411410E+03  0.12459723910E+03 0.  0.
         25    2    1    2    0    0  0.55656946919E+01 -0.70451772946E+02 -0.40324520594E+03  0.42530573437E+03  0.11525555214E+03 0.  0.
          5    1    3    3  502    0 -0.27216478013E+00  0.56587140984E+02 -0.20845318342E+03  0.21604860165E+03  0.47000000000E+01 0.  1.
         -5    1    3    3    0  502 -0.52935299117E+01  0.13864631962E+02  0.17006386324E+02  0.23055512446E+02  0.47000000000E+01 0.  1.
          5    1    4    4  503    0 -0.50986229508E+02 -0.45564015745E+02 -0.26656154896E+03  0.27523231008E+03  0.47000000000E+01 0.  1.
         -5    1    4    4    0  503  0.56551924200E+02 -0.24887757200E+02 -0.13668365699E+03  0.15007342428E+03  0.47000000000E+01 0.  1.
<mgrwt>
<rscale>  0 0.29628005E+03</rscale>
<asrwt>0</asrwt>
<pdfrwt beam="1">  1        2 0.96853987E-01 0.29628005E+03</pdfrwt>
<pdfrwt beam="2">  1       -2 0.53629113E-02 0.29628005E+03</pdfrwt>
<totfact> 0.83758713E+03</totfact>
</mgrwt>
</event>
<event>
 9    1  0.2094635E-002  0.2753053E+03  0.7818608E-02  0.1098281E+00
          1   -1    0    0  501    0  0.00000000000E+00  0.00000000000E+00  0.10484076445E+03  0.10484076445E+03  0.00000000000E+00 0. -1.
         -1   -1    0    0    0  501 -0.00000000000E+00 -0.00000000000E+00 -0.18073362978E+03  0.18073362978E+03  0.00000000000E+00 0. -1.
         36    2    1    2    0    0  0.71054273576E-14  0.35527136788E-14 -0.75892865328E+02  0.28557439424E+03  0.27530529896E+03 0.  0.
         25    2    3    3    0    0 -0.33706367268E+02 -0.16495602801E+02 -0.19235499822E+02  0.12623020870E+03  0.11897830486E+03 0.  0.
         25    2    3    3    0    0  0.33706367268E+02  0.16495602801E+02 -0.56657365506E+02  0.15934418554E+03  0.14412594594E+03 0.  0.
          5    1    4    4  502    0  0.11517801359E+02  0.28179139545E+02  0.32023958542E+02  0.44433631118E+02  0.47000000000E+01 0.  1.
         -5    1    4    4    0  502 -0.45224168627E+02 -0.44674742346E+02 -0.51259458364E+02  0.81796577578E+02  0.47000000000E+01 0.  1.
          5    1    5    5  503    0 -0.15237671662E+02  0.36451976971E+02  0.35290189772E+02  0.53182899102E+02  0.47000000000E+01 0.  1.
         -5    1    5    5    0  503  0.48944038930E+02 -0.19956374170E+02 -0.91947555278E+02  0.10616128644E+03  0.47000000000E+01 0.  1.
<mgrwt>
<rscale>  0 0.27530530E+03</rscale>
<asrwt>0</asrwt>
<pdfrwt beam="1">  1        1 0.16129348E-01 0.27530530E+03</pdfrwt>
<pdfrwt beam="2">  1       -1 0.27805174E-01 0.27530530E+03</pdfrwt>
<totfact> 0.39164736E+03</totfact>
</mgrwt>
</event>
<event>
 9    1  0.2094635E-002  0.2748376E+03  0.7818608E-02  0.1098542E+00
          1   -1    0    0  501    0  0.00000000000E+00  0.00000000000E+00  0.26072797724E+03  0.26072797724E+03  0.00000000000E+00 0. -1.
         -1   -1    0    0    0  501 -0.00000000000E+00 -0.00000000000E+00 -0.72427707848E+02  0.72427707848E+02  0.00000000000E+00 0. -1.
         36    2    1    2    0    0 -0.71054273576E-14 -0.71054273576E-14  0.18830026939E+03  0.33315568509E+03  0.27483762307E+03 0.  0.
         25    2    3    3    0    0  0.26367304285E+02  0.24274145740E+02  0.40759525343E+02  0.13565603922E+03  0.12432519127E+03 0.  0.
         25    2    3    3    0    0 -0.26367304285E+02 -0.24274145740E+02  0.14754074405E+03  0.19749964587E+03  0.12630665096E+03 0.  0.
          5    1    4    4  502    0 -0.44847358592E+02  0.32567493238E+02  0.29394026871E+02  0.62912844509E+02  0.47000000000E+01 0. -1.
         -5    1    4    4    0  502  0.71214662877E+02 -0.82933474975E+01  0.11365498472E+02  0.72743194712E+02  0.47000000000E+01 0. -1.
          5    1    5    5  503    0  0.36310732314E+02  0.15128855995E+02  0.10444644645E+03  0.11170721437E+03  0.47000000000E+01 0.  1.
         -5    1    5    5    0  503 -0.62678036599E+02 -0.39403001735E+02  0.43094297600E+02  0.85792431503E+02  0.47000000000E+01 0.  1.
<mgrwt>
<rscale>  0 0.27483762E+03</rscale>
<asrwt>0</asrwt>
<pdfrwt beam="1">  1        1 0.40111996E-01 0.27483762E+03</pdfrwt>
<pdfrwt beam="2">  1       -1 0.11142724E-01 0.27483762E+03</pdfrwt>
<totfact> 0.53522335E+03</totfact>
</mgrwt>
</event>
<event>
 9    1  0.2094635E-002  0.2748249E+03  0.7818608E-02  0.1098550E+00
         -2   -1    0    0    0  501 -0.00000000000E+00  0.00000000000E+00  0.19777642581E+02  0.19777642581E+02  0.00000000000E+00 0. -1.
          2   -1    0    0  501    0  0.00000000000E+00 -0.00000000000E+00 -0.95472332243E+03  0.95472332243E+03  0.00000000000E+00 0. -1.
         36    2    1    2    0    0  0.00000000000E+00 -0.71054273576E-14 -0.93494567985E+03  0.97450096501E+03  0.27482486521E+03 0.  0.
         25    2    3    3    0    0 -0.29089205845E+02  0.40997082200E+02 -0.36315557531E+03  0.38722911025E+03  0.12464938546E+03 0.  0.
         25    2    3    3    0    0  0.29089205845E+02 -0.40997082200E+02 -0.57179010454E+03  0.58727185476E+03  0.12416668276E+03 0.  0.
          5    1    4    4  502    0  0.14727658207E+02 -0.37649837706E+02 -0.15765044992E+03  0.16281943544E+03  0.47000000000E+01 0. -1.
         -5    1    4    4    0  502 -0.43816864052E+02  0.78646919906E+02 -0.20550512539E+03  0.22440967481E+03  0.47000000000E+01 0. -1.
          5    1    5    5  503    0 -0.29485662744E+02 -0.19011686043E+02 -0.47486381934E+02  0.59227485029E+02  0.47000000000E+01 0. -1.
         -5    1    5    5    0  503  0.58574868589E+02 -0.21985396157E+02 -0.52430372260E+03  0.52804436973E+03  0.47000000000E+01 0. -1.
<mgrwt>
<rscale>  0 0.27482487E+03</rscale>
<asrwt>0</asrwt>
<pdfrwt beam="1">  1        2 0.14688052E+00 0.27482487E+03</pdfrwt>
<pdfrwt beam="2">  1       -2 0.30427140E-02 0.27482487E+03</pdfrwt>
<totfact> 0.11589054E+04</totfact>
</mgrwt>
</event>
<event>
 9    1  0.2094635E-002  0.2754158E+03  0.7818608E-02  0.1098219E+00
          1   -1    0    0  501    0  0.00000000000E+00  0.00000000000E+00  0.29677040235E+02  0.29677040235E+02  0.00000000000E+00 0. -1.
         -1   -1    0    0    0  501 -0.00000000000E+00 -0.00000000000E+00 -0.63899466981E+03  0.63899466981E+03  0.00000000000E+00 0. -1.
         36    2    1    2    0    0 -0.35527136788E-14 -0.71054273576E-14 -0.60931762958E+03  0.66867171005E+03  0.27541583488E+03 0.  0.
         25    2    3    3    0    0  0.12937140462E+01 -0.19307432273E+02 -0.21682104773E+03  0.25416010735E+03  0.13119276959E+03 0.  0.
         25    2    3    3    0    0 -0.12937140462E+01  0.19307432273E+02 -0.39249658184E+03  0.41451160269E+03  0.13187816867E+03 0.  0.
          5    1    4    4  502    0 -0.36887122182E+02  0.11935062939E+02 -0.84244895874E+01  0.39952065467E+02  0.47000000000E+01 0. -1.
         -5    1    4    4    0  502  0.38180836229E+02 -0.31242495212E+02 -0.20839655815E+03  0.21420804189E+03  0.47000000000E+01 0. -1.
          5    1    5    5  503    0  0.27724125179E+02 -0.34985224522E+02 -0.29976683392E+03  0.30310862371E+03  0.47000000000E+01 0. -1.
         -5    1    5    5    0  503 -0.29017839226E+02  0.54292656796E+02 -0.92729747924E+02  0.11140297898E+03  0.47000000000E+01 0. -1.
<mgrwt>
<rscale>  0 0.27541583E+03</rscale>
<asrwt>0</asrwt>
<pdfrwt beam="1">  1        1 0.45656988E-02 0.27541583E+03</pdfrwt>
<pdfrwt beam="2">  1       -1 0.98306865E-01 0.27541583E+03</pdfrwt>
<totfact> 0.19763965E+03</totfact>
</mgrwt>
</event>
<event>
 9    1  0.2094635E-002  0.2738929E+03  0.7818608E-02  0.1099072E+00
         -1   -1    0    0    0  501 -0.00000000000E+00  0.00000000000E+00  0.22876589816E+02  0.22876589816E+02  0.00000000000E+00 0.  1.
          1   -1    0    0  501    0  0.00000000000E+00 -0.00000000000E+00 -0.81980442346E+03  0.81980442346E+03  0.00000000000E+00 0.  1.
         36    2    1    2    0    0 -0.14210854715E-13  0.00000000000E+00 -0.79692783364E+03  0.84268101328E+03  0.27389289531E+03 0.  0.
         25    2    3    3    0    0  0.43318401214E+02  0.11114328012E+01 -0.28435847340E+03  0.31350800254E+03  0.12469886566E+03 0.  0.
         25    2    3    3    0    0 -0.43318401214E+02 -0.11114328012E+01 -0.51256936025E+03  0.52917301074E+03  0.12417329449E+03 0.  0.
          5    1    4    4  502    0  0.18387790066E+02  0.35237682860E+02 -0.26280335495E+03  0.26583359172E+03  0.47000000000E+01 0. -1.
         -5    1    4    4    0  502  0.24930611148E+02 -0.34126250059E+02 -0.21555118451E+02  0.47674410817E+02  0.47000000000E+01 0. -1.
          5    1    5    5  503    0  0.32418284144E+02 -0.17882552702E+02 -0.65385605590E+02  0.75286773449E+02  0.47000000000E+01 0. -1.
         -5    1    5    5    0  503 -0.75736685358E+02  0.16771119901E+02 -0.44718375466E+03  0.45388623729E+03  0.47000000000E+01 0. -1.
<mgrwt>
<rscale>  0 0.27389290E+03</rscale>
<asrwt>0</asrwt>
<pdfrwt beam="1">  1        1 0.12612377E+00 0.27389290E+03</pdfrwt>
<pdfrwt beam="2">  1       -1 0.35194751E-02 0.27389290E+03</pdfrwt>
<totfact> 0.65880234E+03</totfact>
</mgrwt>
</event>
<event>
 9    1  0.2094635E-002  0.2744639E+03  0.7818608E-02  0.1098752E+00
         -1   -1    0    0    0  501 -0.00000000000E+00  0.00000000000E+00  0.23942367687E+02  0.23942367687E+02  0.00000000000E+00 0.  1.
          1   -1    0    0  501    0  0.00000000000E+00 -0.00000000000E+00 -0.78658089638E+03  0.78658089638E+03  0.00000000000E+00 0.  1.
         36    2    1    2    0    0 -0.35527136788E-14  0.71054273576E-14 -0.76263852870E+03  0.81052326407E+03  0.27446390682E+03 0.  0.
         25    2    3    3    0    0  0.22413654623E+02 -0.36319956917E+02 -0.46324593614E+03  0.48200963208E+03  0.12615457537E+03 0.  0.
         25    2    3    3    0    0 -0.22413654623E+02  0.36319956917E+02 -0.29939259256E+03  0.32851363199E+03  0.12831122609E+03 0.  0.
          5    1    4    4  502    0  0.43419690790E+02 -0.37544025518E+02 -0.82277312451E+02  0.10043141712E+03  0.47000000000E+01 0.  1.
         -5    1    4    4    0  502 -0.21006036168E+02  0.12240686011E+01 -0.38096862368E+03  0.38157821496E+03  0.47000000000E+01 0.  1.
          5    1    5    5  503    0 -0.21514643296E+01 -0.37525497051E+01 -0.27882874579E+03  0.27890190015E+03  0.47000000000E+01 0. -1.
         -5    1    5    5    0  503 -0.20262190293E+02  0.40072506622E+02 -0.20563846771E+02  0.49611731843E+02  0.47000000000E+01 0. -1.
<mgrwt>
<rscale>  0 0.27446391E+03</rscale>
<asrwt>0</asrwt>
<pdfrwt beam="1">  1        1 0.12101243E+00 0.27446391E+03</pdfrwt>
<pdfrwt beam="2">  1       -1 0.36834418E-02 0.27446391E+03</pdfrwt>
<totfact> 0.65640805E+03</totfact>
</mgrwt>
</event>
<event>
 9    1  0.2094635E-002  0.2748744E+03  0.7818608E-02  0.1098522E+00
         -1   -1    0    0    0  501 -0.00000000000E+00  0.00000000000E+00  0.17140728756E+02  0.17140728756E+02  0.00000000000E+00 0. -1.
          1   -1    0    0  501    0  0.00000000000E+00 -0.00000000000E+00 -0.11019945093E+04  0.11019945093E+04  0.00000000000E+00 0. -1.
         36    2    1    2    0    0  0.71054273576E-14  0.00000000000E+00 -0.10848537806E+04  0.11191352381E+04  0.27487443661E+03 0.  0.
         25    2    3    3    0    0  0.57587454375E+01  0.45867337014E+02 -0.41396344574E+03  0.43488880266E+03  0.12500224205E+03 0.  0.
         25    2    3    3    0    0 -0.57587454375E+01 -0.45867337014E+02 -0.67089033485E+03  0.68424643544E+03  0.12634226238E+03 0.  0.
          5    1    4    4  502    0 -0.48625869193E+02  0.40162858016E+02 -0.31897535661E+03  0.32518440682E+03  0.47000000000E+01 0. -1.
         -5    1    4    4    0  502  0.54384614630E+02  0.57044789986E+01 -0.94988089132E+02  0.10970439584E+03  0.47000000000E+01 0. -1.
          5    1    5    5  503    0  0.37595788812E+02  0.21287044402E+01 -0.50044284814E+03  0.50187957617E+03  0.47000000000E+01 0. -1.
         -5    1    5    5    0  503 -0.43354534250E+02 -0.47996041455E+02 -0.17044748671E+03  0.18236685927E+03  0.47000000000E+01 0. -1.
<mgrwt>
<rscale>  0 0.27487444E+03</rscale>
<asrwt>0</asrwt>
<pdfrwt beam="1">  1        1 0.16953761E+00 0.27487444E+03</pdfrwt>
<pdfrwt beam="2">  1       -1 0.26370353E-02 0.27487444E+03</pdfrwt>
<totfact> 0.61358958E+03</totfact>
</mgrwt>
</event>
<event>
 9    1  0.2094635E-002  0.2751777E+03  0.7818608E-02  0.1098352E+00
         -1   -1    0    0    0  501 -0.00000000000E+00  0.00000000000E+00  0.12070913421E+03  0.12070913421E+03  0.00000000000E+00 0. -1.
          1   -1    0    0  501    0  0.00000000000E+00 -0.00000000000E+00 -0.15682894072E+03  0.15682894072E+03  0.00000000000E+00 0. -1.
         36    2    1    2    0    0 -0.43298697960E-14  0.71054273576E-14 -0.36119806515E+02  0.27753807493E+03  0.27517765645E+03 0.  0.
         25    2    3    3    0    0 -0.28225672785E+00 -0.23075634950E+02 -0.54607182196E+02  0.13886091769E+03  0.12557008209E+03 0.  0.
         25    2    3    3    0    0  0.28225672785E+00  0.23075634950E+02  0.18487375681E+02  0.13867715724E+03  0.13548803004E+03 0.  0.
          5    1    4    4  502    0  0.42220770352E+02 -0.17069594174E+01  0.22526597404E+02  0.48114911932E+02  0.47000000000E+01 0. -1.
         -5    1    4    4    0  502 -0.42503027080E+02 -0.21368675533E+02 -0.77133779600E+02  0.90746005755E+02  0.47000000000E+01 0. -1.
          5    1    5    5  503    0  0.18605944053E+00  0.74382003071E+02 -0.16582058504E+02  0.76352941418E+02  0.47000000000E+01 0.  1.
         -5    1    5    5    0  503  0.96197287325E-01 -0.51306368121E+02  0.35069434185E+02  0.62324215821E+02  0.47000000000E+01 0.  1.
<mgrwt>
<rscale>  0 0.27517766E+03</rscale>
<asrwt>0</asrwt>
<pdfrwt beam="1">  1        1 0.24127529E-01 0.27517766E+03</pdfrwt>
<pdfrwt beam="2">  1       -1 0.18570636E-01 0.27517766E+03</pdfrwt>
<totfact> 0.45294907E+03</totfact>
</mgrwt>
</event>
<event>
 9    1  0.2094635E-002  0.2789566E+03  0.7818608E-02  0.1096260E+00
         -2   -1    0    0    0  501 -0.00000000000E+00  0.00000000000E+00  0.65382996247E+02  0.65382996247E+02  0.00000000000E+00 0.  1.
          2   -1    0    0  501    0  0.00000000000E+00 -0.00000000000E+00 -0.29754216948E+03  0.29754216948E+03  0.00000000000E+00 0.  1.
         36    2    1    2    0    0  0.00000000000E+00 -0.71054273576E-14 -0.23215917323E+03  0.36292516572E+03  0.27895661706E+03 0.  0.
         25    2    3    3    0    0 -0.32901340337E+02  0.51073768720E+02 -0.97061571529E+02  0.16849641680E+03  0.12360851815E+03 0.  0.
         25    2    3    3    0    0  0.32901340337E+02 -0.51073768720E+02 -0.13509760170E+03  0.19442874892E+03  0.12593708102E+03 0.  0.
          5    1    4    4  502    0  0.23333416217E+02  0.37982644089E+02 -0.10093215475E+03  0.11043785324E+03  0.47000000000E+01 0. -1.
         -5    1    4    4    0  502 -0.56234756554E+02  0.13091124631E+02  0.38705832244E+01  0.58058563565E+02  0.47000000000E+01 0. -1.
          5    1    5    5  503    0  0.75547714490E+02 -0.47277054526E+02 -0.58991989370E+02  0.10698000682E+03  0.47000000000E+01 0. -1.
         -5    1    5    5    0  503 -0.42646374153E+02 -0.37967141943E+01 -0.76105612329E+02  0.87448742101E+02  0.47000000000E+01 0. -1.
<mgrwt>
<rscale>  0 0.27895662E+03</rscale>
<asrwt>0</asrwt>
<pdfrwt beam="1">  1        2 0.45775718E-01 0.27895662E+03</pdfrwt>
<pdfrwt beam="2">  1       -2 0.10058923E-01 0.27895662E+03</pdfrwt>
<totfact> 0.72040430E+03</totfact>
</mgrwt>
</event>
<event>
 8    1  0.2094635E-002  0.2907615E+03  0.7818608E-02  0.1089952E+00
          2   -1    0    0  501    0  0.00000000000E+00  0.00000000000E+00  0.15260501347E+04  0.15260501347E+04  0.00000000000E+00 0.  1.
         -2   -1    0    0    0  501 -0.00000000000E+00 -0.00000000000E+00 -0.13849846302E+02  0.13849846302E+02  0.00000000000E+00 0.  1.
         25    2    1    2    0    0 -0.55143028704E+01  0.53792518099E+02  0.89220840897E+03  0.90494360029E+03  0.14129059461E+03 0.  0.
         25    2    1    2    0    0  0.55143028704E+01 -0.53792518099E+02  0.61999187942E+03  0.63495638070E+03  0.12591914991E+03 0.  0.
          5    1    3    3  502    0  0.10850531059E+02  0.59434305607E+02  0.14038041302E+03  0.15290167124E+03  0.47000000000E+01 0. -1.
         -5    1    3    3    0  502 -0.16364833929E+02 -0.56417875080E+01  0.75182799596E+03  0.75204192906E+03  0.47000000000E+01 0. -1.
          5    1    4    4  503    0  0.61997670630E+02 -0.50008319374E+02  0.33667975451E+03  0.34600562173E+03  0.47000000000E+01 0.  1.
         -5    1    4    4    0  503 -0.56483367760E+02 -0.37841987253E+01  0.28331212490E+03  0.28895075897E+03  0.47000000000E+01 0.  1.
<mgrwt>
<rscale>  0 0.29076148E+03</rscale>
<asrwt>0</asrwt>
<pdfrwt beam="1">  1        2 0.23477681E+00 0.29076148E+03</pdfrwt>
<pdfrwt beam="2">  1       -2 0.21307468E-02 0.29076148E+03</pdfrwt>
<totfact> 0.93142169E+03</totfact>
</mgrwt>
</event>
<event>
 9    1  0.2094635E-002  0.2718779E+03  0.7818608E-02  0.1100210E+00
         -3   -1    0    0    0  501 -0.00000000000E+00  0.00000000000E+00  0.25514556227E+02  0.25514556227E+02  0.00000000000E+00 0. -1.
          3   -1    0    0  501    0  0.00000000000E+00 -0.00000000000E+00 -0.72426862019E+03  0.72426862019E+03  0.00000000000E+00 0. -1.
         36    2    1    2    0    0  0.71054273576E-14  0.17763568394E-14 -0.69875406396E+03  0.74978317641E+03  0.27187785812E+03 0.  0.
         25    2    3    3    0    0  0.30634859583E+02  0.10769884748E+02 -0.46021008033E+03  0.47779397392E+03  0.12425489301E+03 0.  0.
         25    2    3    3    0    0 -0.30634859583E+02 -0.10769884748E+02 -0.23854398363E+03  0.27198920249E+03  0.12657175478E+03 0.  0.
          5    1    4    4  502    0 -0.44667195123E+02  0.98344321711E+01 -0.25586360739E+03  0.25996182405E+03  0.47000000000E+01 0.  1.
         -5    1    4    4    0  502  0.75302054705E+02  0.93545257703E+00 -0.20434647294E+03  0.21783214987E+03  0.47000000000E+01 0.  1.
          5    1    5    5  503    0  0.25041855755E+02  0.13136132001E+02 -0.31059835638E+01  0.28833828006E+02  0.47000000000E+01 0.  1.
         -5    1    5    5    0  503 -0.55676715337E+02 -0.23906016749E+02 -0.23543800006E+03  0.24315537449E+03  0.47000000000E+01 0.  1.
<mgrwt>
<rscale>  0 0.27187786E+03</rscale>
<asrwt>0</asrwt>
<pdfrwt beam="1">  1        3 0.11142594E+00 0.27187786E+03</pdfrwt>
<pdfrwt beam="2">  1       -3 0.39253163E-02 0.27187786E+03</pdfrwt>
<totfact> 0.59827946E+02</totfact>
</mgrwt>
</event>
<event>
 9    1  0.2094635E-002  0.2739347E+03  0.7818608E-02  0.1099049E+00
         -1   -1    0    0    0  501 -0.00000000000E+00  0.00000000000E+00  0.29369263810E+02  0.29369263810E+02  0.00000000000E+00 0.  1.
          1   -1    0    0  501    0  0.00000000000E+00 -0.00000000000E+00 -0.63876499714E+03  0.63876499714E+03  0.00000000000E+00 0.  1.
         36    2    1    2    0    0  0.00000000000E+00 -0.71054273576E-14 -0.60939573333E+03  0.66813426095E+03  0.27393472006E+03 0.  0.
         25    2    3    3    0    0  0.12923559224E+02  0.33065182113E+02 -0.19918397274E+03  0.23758447646E+03  0.12454639219E+03 0.  0.
         25    2    3    3    0    0 -0.12923559224E+02 -0.33065182113E+02 -0.41021176059E+03  0.43054978449E+03  0.12585350113E+03 0.  0.
          5    1    4    4  502    0  0.60269485697E+02  0.50207560942E+02 -0.11253359325E+03  0.13725563628E+03  0.47000000000E+01 0.  1.
         -5    1    4    4    0  502 -0.47345926473E+02 -0.17142378829E+02 -0.86650379489E+02  0.10032884018E+03  0.47000000000E+01 0.  1.
          5    1    5    5  503    0 -0.31348922796E+01 -0.73895905045E+02 -0.15431822975E+03  0.17119181746E+03  0.47000000000E+01 0.  1.
         -5    1    5    5    0  503 -0.97886669447E+01  0.40830722932E+02 -0.25589353084E+03  0.25935796703E+03  0.47000000000E+01 0.  1.
<mgrwt>
<rscale>  0 0.27393472E+03</rscale>
<asrwt>0</asrwt>
<pdfrwt beam="1">  1        1 0.98271542E-01 0.27393472E+03</pdfrwt>
<pdfrwt beam="2">  1       -1 0.45183481E-02 0.27393472E+03</pdfrwt>
<totfact> 0.65738801E+03</totfact>
</mgrwt>
</event>
<event>
 9    1  0.2094635E-002  0.2708581E+03  0.7818608E-02  0.1100789E+00
         -1   -1    0    0    0  501 -0.00000000000E+00  0.00000000000E+00  0.11846047168E+04  0.11846047168E+04  0.00000000000E+00 0.  1.
          1   -1    0    0  501    0  0.00000000000E+00 -0.00000000000E+00 -0.15482828608E+02  0.15482828608E+02  0.00000000000E+00 0.  1.
         36    2    1    2    0    0  0.00000000000E+00  0.00000000000E+00  0.11691218882E+04  0.12000875454E+04  0.27085813112E+03 0.  0.
         25    2    3    3    0    0 -0.59432821485E+02  0.14163699696E+01  0.59510389836E+03  0.60891523554E+03  0.11443272195E+03 0.  0.
         25    2    3    3    0    0  0.59432821485E+02 -0.14163699696E+01  0.57401798982E+03  0.59117230985E+03  0.12827229214E+03 0.  0.
          5    1    4    4  502    0 -0.83497143108E+02  0.28659301117E+02  0.48140492607E+03  0.48945471832E+03  0.47000000000E+01 0. -1.
         -5    1    4    4    0  502  0.24064321623E+02 -0.27242931147E+02  0.11369897230E+03  0.11946051722E+03  0.47000000000E+01 0. -1.
          5    1    5    5  503    0  0.40075840547E+02  0.61304205780E+02  0.35379536471E+03  0.36132745361E+03  0.47000000000E+01 0.  1.
         -5    1    5    5    0  503  0.19356980938E+02 -0.62720575749E+02  0.22022262511E+03  0.22984485625E+03  0.47000000000E+01 0.  1.
<mgrwt>
<rscale>  0 0.27085813E+03</rscale>
<asrwt>0</asrwt>
<pdfrwt beam="1">  1        1 0.23819746E-02 0.27085813E+03</pdfrwt>
<pdfrwt beam="2">  1       -1 0.18224681E+00 0.27085813E+03</pdfrwt>
<totfact> 0.10413090E+03</totfact>
</mgrwt>
</event>
<event>
 9    1  0.2094635E-002  0.2747839E+03  0.7818608E-02  0.1098572E+00
         -2   -1    0    0    0  501 -0.00000000000E+00  0.00000000000E+00  0.19667682889E+02  0.19667682889E+02  0.00000000000E+00 0. -1.
          2   -1    0    0  501    0  0.00000000000E+00 -0.00000000000E+00 -0.95977473059E+03  0.95977473059E+03  0.00000000000E+00 0. -1.
         36    2    1    2    0    0  0.00000000000E+00  0.00000000000E+00 -0.94010704770E+03  0.97944241348E+03  0.27478387904E+03 0.  0.
         25    2    3    3    0    0 -0.61002492291E+02  0.94998926655E+01 -0.50229006009E+03  0.52100059508E+03  0.12383361249E+03 0.  0.
         25    2    3    3    0    0  0.61002492291E+02 -0.94998926655E+01 -0.43781698761E+03  0.45844181840E+03  0.12113477696E+03 0.  0.
          5    1    4    4  502    0  0.27658801188E+02  0.14116814552E+02 -0.27743829211E+03  0.27921029649E+03  0.47000000000E+01 0. -1.
         -5    1    4    4    0  502 -0.88661293479E+02 -0.46169218867E+01 -0.22485176797E+03  0.24179029859E+03  0.47000000000E+01 0. -1.
          5    1    5    5  503    0  0.62793724123E+02 -0.51111804254E+02 -0.36946504701E+03  0.37826178671E+03  0.47000000000E+01 0.  1.
         -5    1    5    5    0  503 -0.17912318319E+01  0.41611911589E+02 -0.68351940605E+02  0.80180031691E+02  0.47000000000E+01 0.  1.
<mgrwt>
<rscale>  0 0.27478388E+03</rscale>
<asrwt>0</asrwt>
<pdfrwt beam="1">  1        2 0.14765767E+00 0.27478388E+03</pdfrwt>
<pdfrwt beam="2">  1       -2 0.30257969E-02 0.27478388E+03</pdfrwt>
<totfact> 0.11600866E+04</totfact>
</mgrwt>
</event>
<event>
 9    1  0.2094635E-002  0.2758613E+03  0.7818608E-02  0.1097971E+00
         -1   -1    0    0    0  501 -0.00000000000E+00  0.00000000000E+00  0.20542866637E+02  0.20542866637E+02  0.00000000000E+00 0.  1.
          1   -1    0    0  501    0  0.00000000000E+00 -0.00000000000E+00 -0.92610593800E+03  0.92610593800E+03  0.00000000000E+00 0.  1.
         36    2    1    2    0    0  0.00000000000E+00  0.00000000000E+00 -0.90556307136E+03  0.94664880464E+03  0.27586134761E+03 0.  0.
         25    2    3    3    0    0 -0.64514620488E+01  0.34987004657E+02 -0.64046849500E+03  0.65354099837E+03  0.12510088574E+03 0.  0.
         25    2    3    3    0    0  0.64514620488E+01 -0.34987004657E+02 -0.26509457637E+03  0.29310780627E+03  0.11988052309E+03 0.  0.
          5    1    4    4  502    0  0.27587660479E+02  0.55737510432E+02 -0.16521234852E+03  0.17659263627E+03  0.47000000000E+01 0. -1.
         -5    1    4    4    0  502 -0.34039122528E+02 -0.20750505776E+02 -0.47525614647E+03  0.47694836210E+03  0.47000000000E+01 0. -1.
          5    1    5    5  503    0  0.29350810343E+02 -0.36944389988E+02 -0.28438516326E+02  0.55291927351E+02  0.47000000000E+01 0.  1.
         -5    1    5    5    0  503 -0.22899348294E+02  0.19573853308E+01 -0.23665606004E+03  0.23781587891E+03  0.47000000000E+01 0.  1.
<mgrwt>
<rscale>  0 0.27586135E+03</rscale>
<asrwt>0</asrwt>
<pdfrwt beam="1">  1        1 0.14247787E+00 0.27586135E+03</pdfrwt>
<pdfrwt beam="2">  1       -1 0.31604402E-02 0.27586135E+03</pdfrwt>
<totfact> 0.63547584E+03</totfact>
</mgrwt>
</event>
<event>
 9    1  0.2094635E-002  0.2747552E+03  0.7818608E-02  0.1098589E+00
         -1   -1    0    0    0  501 -0.00000000000E+00  0.00000000000E+00  0.20287341776E+02  0.20287341776E+02  0.00000000000E+00 0. -1.
          1   -1    0    0  501    0  0.00000000000E+00 -0.00000000000E+00 -0.93026473284E+03  0.93026473284E+03  0.00000000000E+00 0. -1.
         36    2    1    2    0    0  0.35527136788E-14  0.00000000000E+00 -0.90997739106E+03  0.95055207461E+03  0.27475515338E+03 0.  0.
         25    2    3    3    0    0  0.87553001715E+01 -0.52294627695E+02 -0.41566922177E+03  0.43806352901E+03  0.12770031384E+03 0.  0.
         25    2    3    3    0    0 -0.87553001715E+01  0.52294627695E+02 -0.49430816929E+03  0.51248854560E+03  0.12446911175E+03 0.  0.
          5    1    4    4  502    0  0.14586548873E+02  0.41458343021E+02 -0.12954417534E+03  0.13687711634E+03  0.47000000000E+01 0.  1.
         -5    1    4    4    0  502 -0.58312487014E+01 -0.93752970716E+02 -0.28612504644E+03  0.30118641267E+03  0.47000000000E+01 0.  1.
          5    1    5    5  503    0 -0.55281561905E+02  0.65942974855E+02 -0.33431516269E+03  0.34524374726E+03  0.47000000000E+01 0. -1.
         -5    1    5    5    0  503  0.46526261733E+02 -0.13648347160E+02 -0.15999300660E+03  0.16724479834E+03  0.47000000000E+01 0. -1.
<mgrwt>
<rscale>  0 0.27475515E+03</rscale>
<asrwt>0</asrwt>
<pdfrwt beam="1">  1        1 0.14311762E+00 0.27475515E+03</pdfrwt>
<pdfrwt beam="2">  1       -1 0.31211302E-02 0.27475515E+03</pdfrwt>
<totfact> 0.64249682E+03</totfact>
</mgrwt>
</event>
<event>
 9    1  0.2094635E-002  0.2752301E+03  0.7818608E-02  0.1098323E+00
          3   -1    0    0  501    0  0.00000000000E+00  0.00000000000E+00  0.10834812079E+03  0.10834812079E+03  0.00000000000E+00 0.  1.
         -3   -1    0    0    0  501 -0.00000000000E+00 -0.00000000000E+00 -0.17478756326E+03  0.17478756326E+03  0.00000000000E+00 0.  1.
         36    2    1    2    0    0  0.00000000000E+00  0.14210854715E-13 -0.66439442473E+02  0.28313568405E+03  0.27523011475E+03 0.  0.
         25    2    3    3    0    0 -0.20309991042E+02 -0.48529477093E+02  0.16739840408E+02  0.12772762510E+03  0.11518037192E+03 0.  0.
         25    2    3    3    0    0  0.20309991042E+02  0.48529477093E+02 -0.83179282881E+02  0.15540805894E+03  0.12027163340E+03 0.  0.
          5    1    4    4  502    0 -0.20115565681E+02 -0.85565597417E+02  0.19949693933E+02  0.90256233757E+02  0.47000000000E+01 0. -1.
         -5    1    4    4    0  502 -0.19442536073E+00  0.37036120324E+02 -0.32098535247E+01  0.37471391347E+02  0.47000000000E+01 0. -1.
          5    1    5    5  503    0 -0.21340443532E+02  0.50220305168E+01 -0.91696083183E+02  0.94397547594E+02  0.47000000000E+01 0. -1.
         -5    1    5    5    0  503  0.41650434574E+02  0.43507446576E+02  0.85168003013E+01  0.61010511349E+02  0.47000000000E+01 0. -1.
<mgrwt>
<rscale>  0 0.27523011E+03</rscale>
<asrwt>0</asrwt>
<pdfrwt beam="1">  1        3 0.16668942E-01 0.27523011E+03</pdfrwt>
<pdfrwt beam="2">  1       -3 0.26890394E-01 0.27523011E+03</pdfrwt>
<totfact> 0.10338503E+03</totfact>
</mgrwt>
</event>
<event>
 9    1  0.2094635E-002  0.2749828E+03  0.7818608E-02  0.1098461E+00
          2   -1    0    0  501    0  0.00000000000E+00  0.00000000000E+00  0.11713287105E+04  0.11713287105E+04  0.00000000000E+00 0. -1.
         -2   -1    0    0    0  501 -0.00000000000E+00 -0.00000000000E+00 -0.16138841025E+02  0.16138841025E+02  0.00000000000E+00 0. -1.
         36    2    1    2    0    0  0.00000000000E+00  0.00000000000E+00  0.11551898695E+04  0.11874675515E+04  0.27498282016E+03 0.  0.
         25    2    3    3    0    0  0.14674875373E+02  0.22675289148E+02  0.79163566952E+03  0.80039425959E+03  0.11495397694E+03 0.  0.
         25    2    3    3    0    0 -0.14674875373E+02 -0.22675289148E+02  0.36355419996E+03  0.38707329195E+03  0.13009441311E+03 0.  0.
          5    1    4    4  502    0  0.53402941154E+02  0.47492980142E+02  0.45654581962E+03  0.46212945448E+03  0.47000000000E+01 0.  1.
         -5    1    4    4    0  502 -0.38728065780E+02 -0.24817690993E+02  0.33508984990E+03  0.33826480511E+03  0.47000000000E+01 0.  1.
          5    1    5    5  503    0 -0.22806509169E+02  0.47221239198E+02  0.87200428901E+02  0.10186258927E+03  0.47000000000E+01 0.  1.
         -5    1    5    5    0  503  0.81316337958E+01 -0.69896528346E+02  0.27635377106E+03  0.28521070268E+03  0.47000000000E+01 0.  1.
<mgrwt>
<rscale>  0 0.27498282E+03</rscale>
<asrwt>0</asrwt>
<pdfrwt beam="1">  1        2 0.18020435E+00 0.27498282E+03</pdfrwt>
<pdfrwt beam="2">  1       -2 0.24828995E-02 0.27498282E+03</pdfrwt>
<totfact> 0.11634538E+04</totfact>
</mgrwt>
</event>
<event>
 9    1  0.2094635E-002  0.2750494E+03  0.7818608E-02  0.1098424E+00
          1   -1    0    0  501    0  0.00000000000E+00  0.00000000000E+00  0.17816892597E+04  0.17816892597E+04  0.00000000000E+00 0.  1.
         -1   -1    0    0    0  501 -0.00000000000E+00 -0.00000000000E+00 -0.10615228579E+02  0.10615228579E+02  0.00000000000E+00 0.  1.
         36    2    1    2    0    0  0.35527136788E-14  0.00000000000E+00  0.17710740311E+04  0.17923044883E+04  0.27504936828E+03 0.  0.
         25    2    3    3    0    0 -0.50994362167E+01 -0.45088831508E+02  0.10380961086E+04  0.10465995979E+04  0.12517260309E+03 0.  0.
         25    2    3    3    0    0  0.50994362167E+01  0.45088831508E+02  0.73297792248E+03  0.74570489038E+03  0.12946096601E+03 0.  0.
          5    1    4    4  502    0  0.46846472148E+02 -0.60890228960E+02  0.52398902802E+03  0.52961193663E+03  0.47000000000E+01 0.  1.
         -5    1    4    4    0  502 -0.51945908364E+02  0.15801397452E+02  0.51410708060E+03  0.51698766125E+03  0.47000000000E+01 0.  1.
          5    1    5    5  503    0  0.23882245501E+00  0.41804831674E+02  0.63418040133E+02  0.76102817305E+02  0.47000000000E+01 0. -1.
         -5    1    5    5    0  503  0.48606137617E+01  0.32839998339E+01  0.66955988235E+03  0.66960207308E+03  0.47000000000E+01 0. -1.
<mgrwt>
<rscale>  0 0.27504937E+03</rscale>
<asrwt>0</asrwt>
<pdfrwt beam="1">  1        1 0.27410580E+00 0.27504937E+03</pdfrwt>
<pdfrwt beam="2">  1       -1 0.16331135E-02 0.27504937E+03</pdfrwt>
<totfact> 0.43122724E+03</totfact>
</mgrwt>
</event>
<event>
 9    1  0.2094635E-002  0.2757162E+03  0.7818608E-02  0.1098052E+00
          1   -1    0    0  501    0  0.00000000000E+00  0.00000000000E+00  0.19649172849E+03  0.19649172849E+03  0.00000000000E+00 0. -1.
         -1   -1    0    0    0  501 -0.00000000000E+00 -0.00000000000E+00 -0.96720923144E+02  0.96720923144E+02  0.00000000000E+00 0. -1.
         36    2    1    2    0    0 -0.17763568394E-14  0.00000000000E+00  0.99770805342E+02  0.29321265163E+03  0.27571624087E+03 0.  0.
         25    2    3    3    0    0  0.16336898923E+01  0.28000765551E+02  0.10200888641E+03  0.16516720106E+03  0.12683721688E+03 0.  0.
         25    2    3    3    0    0 -0.16336898923E+01 -0.28000765551E+02 -0.22380810660E+01  0.12804545057E+03  0.12491563790E+03 0.  0.
          5    1    4    4  502    0 -0.30778808579E+02 -0.23276962564E+01  0.11460896440E+03  0.11878576492E+03  0.47000000000E+01 0.  1.
         -5    1    4    4    0  502  0.32412498471E+02  0.30328461807E+02 -0.12600077992E+02  0.46381436137E+02  0.47000000000E+01 0.  1.
          5    1    5    5  503    0 -0.87324000903E+01 -0.70714453468E+02 -0.28839545819E+02  0.77010376857E+02  0.47000000000E+01 0. -1.
         -5    1    5    5    0  503  0.70987101980E+01  0.42713687917E+02  0.26601464753E+02  0.51035073713E+02  0.47000000000E+01 0. -1.
<mgrwt>
<rscale>  0 0.27571624E+03</rscale>
<asrwt>0</asrwt>
<pdfrwt beam="1">  1        1 0.30229497E-01 0.27571624E+03</pdfrwt>
<pdfrwt beam="2">  1       -1 0.14880142E-01 0.27571624E+03</pdfrwt>
<totfact> 0.48511113E+03</totfact>
</mgrwt>
</event>
<event>
 9    1  0.2094635E-002  0.2756984E+03  0.7818608E-02  0.1098062E+00
          2   -1    0    0  501    0  0.00000000000E+00  0.00000000000E+00  0.22548297658E+02  0.22548297658E+02  0.00000000000E+00 0.  1.
         -2   -1    0    0    0  501 -0.00000000000E+00 -0.00000000000E+00 -0.84274244752E+03  0.84274244752E+03  0.00000000000E+00 0.  1.
         36    2    1    2    0    0 -0.14210854715E-13 -0.17763568394E-14 -0.82019414986E+03  0.86529074517E+03  0.27569844073E+03 0.  0.
         25    2    3    3    0    0 -0.36519302429E+02 -0.63371523854E+01 -0.53832193730E+03  0.55399537830E+03  0.12548526626E+03 0.  0.
         25    2    3    3    0    0  0.36519302429E+02  0.63371523854E+01 -0.28187221256E+03  0.31129536687E+03  0.12680316350E+03 0.  0.
          5    1    4    4  502    0  0.29339005359E+02 -0.20446728552E+02 -0.53673675411E+02  0.64666833664E+02  0.47000000000E+01 0.  1.
         -5    1    4    4    0  502 -0.65858307788E+02  0.14109576166E+02 -0.48464826189E+03  0.48932854464E+03  0.47000000000E+01 0.  1.
          5    1    5    5  503    0 -0.37492263359E+02  0.25422543810E+02 -0.52616867985E+02  0.69588794659E+02  0.47000000000E+01 0. -1.
         -5    1    5    5    0  503  0.74011565788E+02 -0.19085391425E+02 -0.22925534457E+03  0.24170657221E+03  0.47000000000E+01 0. -1.
<mgrwt>
<rscale>  0 0.27569844E+03</rscale>
<asrwt>0</asrwt>
<pdfrwt beam="1">  1        2 0.34689681E-02 0.27569844E+03</pdfrwt>
<pdfrwt beam="2">  1       -2 0.12965271E+00 0.27569844E+03</pdfrwt>
<totfact> 0.11798076E+03</totfact>
</mgrwt>
</event>
<event>
 9    1  0.2094635E-002  0.2720633E+03  0.7818608E-02  0.1100105E+00
          2   -1    0    0  501    0  0.00000000000E+00  0.00000000000E+00  0.21100805264E+03  0.21100805264E+03  0.00000000000E+00 0.  1.
         -2   -1    0    0    0  501 -0.00000000000E+00 -0.00000000000E+00 -0.87696219273E+02  0.87696219273E+02  0.00000000000E+00 0.  1.
         36    2    1    2    0    0  0.88817841970E-15  0.00000000000E+00  0.12331183337E+03  0.29870427191E+03  0.27206329008E+03 0.  0.
         25    2    3    3    0    0  0.73903061727E+01  0.33007969094E+02  0.98280018231E+02  0.16419590282E+03  0.12711093529E+03 0.  0.
         25    2    3    3    0    0 -0.73903061727E+01 -0.33007969094E+02  0.25031815134E+02  0.13450836909E+03  0.12775667081E+03 0.  0.
          5    1    4    4  502    0  0.67954670770E+01 -0.48701779951E+02  0.42323007333E+02  0.65048971497E+02  0.47000000000E+01 0.  1.
         -5    1    4    4    0  502  0.59483909569E+00  0.81709749044E+02  0.55957010898E+02  0.99146931325E+02  0.47000000000E+01 0.  1.
          5    1    5    5  503    0  0.40299123636E+01 -0.19810957634E+02 -0.51682020850E+02  0.55694124602E+02  0.47000000000E+01 0.  1.
         -5    1    5    5    0  503 -0.11420218536E+02 -0.13197011460E+02  0.76713835984E+02  0.78814244488E+02  0.47000000000E+01 0.  1.
<mgrwt>
<rscale>  0 0.27206329E+03</rscale>
<asrwt>0</asrwt>
<pdfrwt beam="1">  1        2 0.32462777E-01 0.27206329E+03</pdfrwt>
<pdfrwt beam="2">  1       -2 0.13491726E-01 0.27206329E+03</pdfrwt>
<totfact> 0.65029243E+03</totfact>
</mgrwt>
</event>
<event>
 9    1  0.2094635E-002  0.2752705E+03  0.7818608E-02  0.1098300E+00
          1   -1    0    0  501    0  0.00000000000E+00  0.00000000000E+00  0.15451867653E+03  0.15451867653E+03  0.00000000000E+00 0.  1.
         -1   -1    0    0    0  501 -0.00000000000E+00 -0.00000000000E+00 -0.12259657063E+03  0.12259657063E+03  0.00000000000E+00 0.  1.
         36    2    1    2    0    0 -0.71054273576E-14 -0.71054273576E-14  0.31922105902E+02  0.27711524716E+03  0.27527048401E+03 0.  0.
         25    2    3    3    0    0 -0.25501783246E+02  0.44615259478E+02 -0.78329081366E+01  0.13587023295E+03  0.12553287786E+03 0.  0.
         25    2    3    3    0    0  0.25501783246E+02 -0.44615259478E+02  0.39755014039E+02  0.14124501422E+03  0.12541463460E+03 0.  0.
          5    1    4    4  502    0 -0.23868486488E+01 -0.42479618802E+02  0.98434191364E+01  0.43922636081E+02  0.47000000000E+01 0. -1.
         -5    1    4    4    0  502 -0.23114934597E+02  0.87094878280E+02 -0.17676327273E+02  0.91947596868E+02  0.47000000000E+01 0. -1.
          5    1    5    5  503    0 -0.32636115480E+02  0.20040160376E+02  0.37992261482E+02  0.54150032263E+02  0.47000000000E+01 0.  1.
         -5    1    5    5    0  503  0.58137898726E+02 -0.64655419854E+02  0.17627525565E+01  0.87094981953E+02  0.47000000000E+01 0.  1.
<mgrwt>
<rscale>  0 0.27527048E+03</rscale>
<asrwt>0</asrwt>
<pdfrwt beam="1">  1        1 0.23772104E-01 0.27527048E+03</pdfrwt>
<pdfrwt beam="2">  1       -1 0.18861011E-01 0.27527048E+03</pdfrwt>
<totfact> 0.45018247E+03</totfact>
</mgrwt>
</event>
<event>
 9    1  0.2094635E-002  0.2766750E+03  0.7818608E-02  0.1097519E+00
          2   -1    0    0  501    0  0.00000000000E+00  0.00000000000E+00  0.69492755263E+03  0.69492755263E+03  0.00000000000E+00 0. -1.
         -2   -1    0    0    0  501 -0.00000000000E+00 -0.00000000000E+00 -0.27538504125E+02  0.27538504125E+02  0.00000000000E+00 0. -1.
         36    2    1    2    0    0  0.00000000000E+00 -0.71054273576E-14  0.66738904850E+03  0.72246605675E+03  0.27667500989E+03 0.  0.
         25    2    3    3    0    0 -0.40886864133E+02  0.13354439162E+02  0.22642479098E+03  0.26215748407E+03  0.12493311721E+03 0.  0.
         25    2    3    3    0    0  0.40886864133E+02 -0.13354439162E+02  0.44096425752E+03  0.46030857269E+03  0.12483761042E+03 0.  0.
          5    1    4    4  502    0 -0.39160975407E+02  0.61103218443E+02  0.18486967067E+03  0.19866069172E+03  0.47000000000E+01 0.  1.
         -5    1    4    4    0  502 -0.17258887265E+01 -0.47748779281E+02  0.41555120314E+02  0.63496792352E+02  0.47000000000E+01 0.  1.
          5    1    5    5  503    0  0.34099313582E+02 -0.61407389398E+02  0.15526221302E+03  0.17047602603E+03  0.47000000000E+01 0. -1.
         -5    1    5    5    0  503  0.67875505510E+01  0.48052950237E+02  0.28570204450E+03  0.28983254666E+03  0.47000000000E+01 0. -1.
<mgrwt>
<rscale>  0 0.27667501E+03</rscale>
<asrwt>0</asrwt>
<pdfrwt beam="1">  1        2 0.10691192E+00 0.27667501E+03</pdfrwt>
<pdfrwt beam="2">  1       -2 0.42366935E-02 0.27667501E+03</pdfrwt>
<totfact> 0.10621392E+04</totfact>
</mgrwt>
</event>
<event>
 9    1  0.2094635E-002  0.2749297E+03  0.7818608E-02  0.1098491E+00
         -1   -1    0    0    0  501 -0.00000000000E+00  0.00000000000E+00  0.89399194455E+02  0.89399194455E+02  0.00000000000E+00 0. -1.
          1   -1    0    0  501    0  0.00000000000E+00 -0.00000000000E+00 -0.21137309121E+03  0.21137309121E+03  0.00000000000E+00 0. -1.
         36    2    1    2    0    0  0.17763568394E-14 -0.71054273576E-14 -0.12197389676E+03  0.30077228567E+03  0.27492969344E+03 0.  0.
         25    2    3    3    0    0  0.95216727794E+01  0.36736950061E+02 -0.11022703995E+03  0.16965141566E+03  0.12325314092E+03 0.  0.
         25    2    3    3    0    0 -0.95216727794E+01 -0.36736950061E+02 -0.11746856809E+02  0.13112087001E+03  0.12495770546E+03 0.  0.
          5    1    4    4  502    0 -0.10886043200E+02  0.36370994544E+02  0.16169014045E+02  0.41531701095E+02  0.47000000000E+01 0.  1.
         -5    1    4    4    0  502  0.20407715979E+02  0.36595551692E+00 -0.12639605399E+03  0.12811971457E+03  0.47000000000E+01 0.  1.
          5    1    5    5  503    0 -0.46184484351E+02 -0.63028091364E+01 -0.50967422802E+02  0.69227885891E+02  0.47000000000E+01 0. -1.
         -5    1    5    5    0  503  0.36662811572E+02 -0.30434140925E+02  0.39220565993E+02  0.61892984117E+02  0.47000000000E+01 0. -1.
<mgrwt>
<rscale>  0 0.27492969E+03</rscale>
<asrwt>0</asrwt>
<pdfrwt beam="1">  1        1 0.32518937E-01 0.27492969E+03</pdfrwt>
<pdfrwt beam="2">  1       -1 0.13753722E-01 0.27492969E+03</pdfrwt>
<totfact> 0.50108307E+03</totfact>
</mgrwt>
</event>
<event>
 9    1  0.2094635E-002  0.2749315E+03  0.7818608E-02  0.1098490E+00
          2   -1    0    0  501    0  0.00000000000E+00  0.00000000000E+00  0.13720320625E+04  0.13720320625E+04  0.00000000000E+00 0.  1.
         -2   -1    0    0    0  501 -0.00000000000E+00 -0.00000000000E+00 -0.13772881941E+02  0.13772881941E+02  0.00000000000E+00 0.  1.
         36    2    1    2    0    0 -0.66613381478E-14  0.35527136788E-14  0.13582591806E+04  0.13858049445E+04  0.27493152324E+03 0.  0.
         25    2    3    3    0    0 -0.39117710190E+01 -0.57502107000E+01  0.66077885205E+03  0.67222865547E+03  0.12334628913E+03 0.  0.
         25    2    3    3    0    0  0.39117710190E+01  0.57502107000E+01  0.69748032855E+03  0.71357628901E+03  0.15054549031E+03 0.  0.
          5    1    4    4  502    0 -0.12370104434E+01 -0.60605428032E+02  0.22853744066E+03  0.23648678586E+03  0.47000000000E+01 0.  1.
         -5    1    4    4    0  502 -0.26747605756E+01  0.54855217332E+02  0.43224141139E+03  0.43574186961E+03  0.47000000000E+01 0.  1.
          5    1    5    5  503    0 -0.67683622276E+02 -0.14593211542E+02  0.23192246661E+03  0.24208295080E+03  0.47000000000E+01 0. -1.
         -5    1    5    5    0  503  0.71595393295E+02  0.20343422242E+02  0.46555786193E+03  0.47149333821E+03  0.47000000000E+01 0. -1.
<mgrwt>
<rscale>  0 0.27493152E+03</rscale>
<asrwt>0</asrwt>
<pdfrwt beam="1">  1        2 0.21108175E+00 0.27493152E+03</pdfrwt>
<pdfrwt beam="2">  1       -2 0.21189060E-02 0.27493152E+03</pdfrwt>
<totfact> 0.11359875E+04</totfact>
</mgrwt>
</event>
<event>
 9    1  0.2094635E-002  0.2734792E+03  0.7818608E-02  0.1099305E+00
         -2   -1    0    0    0  501 -0.00000000000E+00  0.00000000000E+00  0.16203840478E+02  0.16203840478E+02  0.00000000000E+00 0. -1.
          2   -1    0    0  501    0  0.00000000000E+00 -0.00000000000E+00 -0.11539066757E+04  0.11539066757E+04  0.00000000000E+00 0. -1.
         36    2    1    2    0    0 -0.71054273576E-14  0.00000000000E+00 -0.11377028352E+04  0.11701105162E+04  0.27347921091E+03 0.  0.
         25    2    3    3    0    0 -0.15860072075E+02  0.35968081024E+02 -0.63968060621E+03  0.65316640584E+03  0.12605487302E+03 0.  0.
         25    2    3    3    0    0  0.15860072075E+02 -0.35968081024E+02 -0.49802222903E+03  0.51694411036E+03  0.13289028516E+03 0.  0.
          5    1    4    4  502    0  0.34434239964E+02 -0.23684158101E+02 -0.11029788454E+03  0.11804393064E+03  0.47000000000E+01 0.  1.
         -5    1    4    4    0  502 -0.50294312039E+02  0.59652239125E+02 -0.52938272168E+03  0.53512247520E+03  0.47000000000E+01 0.  1.
          5    1    5    5  503    0  0.66421663582E+02 -0.50594095013E+02 -0.25967286748E+03  0.27280705260E+03  0.47000000000E+01 0.  1.
         -5    1    5    5    0  503 -0.50561591506E+02  0.14626013989E+02 -0.23834936155E+03  0.24413705776E+03  0.47000000000E+01 0.  1.
<mgrwt>
<rscale>  0 0.27347921E+03</rscale>
<asrwt>0</asrwt>
<pdfrwt beam="1">  1        2 0.17752418E+00 0.27347921E+03</pdfrwt>
<pdfrwt beam="2">  1       -2 0.24928975E-02 0.27347921E+03</pdfrwt>
<totfact> 0.11833442E+04</totfact>
</mgrwt>
</event>
<event>
 9    1  0.2094635E-002  0.2731648E+03  0.7818608E-02  0.1099482E+00
          1   -1    0    0  501    0  0.00000000000E+00  0.00000000000E+00  0.53978425890E+02  0.53978425890E+02  0.00000000000E+00 0. -1.
         -1   -1    0    0    0  501 -0.00000000000E+00 -0.00000000000E+00 -0.34559653698E+03  0.34559653698E+03  0.00000000000E+00 0. -1.
         36    2    1    2    0    0  0.00000000000E+00  0.00000000000E+00 -0.29161811109E+03  0.39957496287E+03  0.27316483712E+03 0.  0.
         25    2    3    3    0    0  0.64851115370E+02  0.34113497322E+02 -0.16598895857E+03  0.21880021376E+03  0.12227755848E+03 0.  0.
         25    2    3    3    0    0 -0.64851115370E+02 -0.34113497322E+02 -0.12562915252E+03  0.18077474911E+03  0.10736586091E+03 0.  0.
          5    1    4    4  502    0  0.93468103067E+02  0.71770049985E+01 -0.76992144969E+02  0.12139883063E+03  0.47000000000E+01 0. -1.
         -5    1    4    4    0  502 -0.28616987697E+02  0.26936492323E+02 -0.88996813600E+02  0.97401383124E+02  0.47000000000E+01 0. -1.
          5    1    5    5  503    0  0.22144513930E+02 -0.16412274565E+02 -0.13798017265E+01  0.27995287218E+02  0.47000000000E+01 0. -1.
         -5    1    5    5    0  503 -0.86995629300E+02 -0.17701222756E+02 -0.12424935079E+03  0.15277946189E+03  0.47000000000E+01 0. -1.
<mgrwt>
<rscale>  0 0.27316484E+03</rscale>
<asrwt>0</asrwt>
<pdfrwt beam="1">  1        1 0.83043728E-02 0.27316484E+03</pdfrwt>
<pdfrwt beam="2">  1       -1 0.53168701E-01 0.27316484E+03</pdfrwt>
<totfact> 0.30134844E+03</totfact>
</mgrwt>
</event>
<event>
 9    1  0.2094635E-002  0.2753712E+03  0.7818608E-02  0.1098244E+00
          2   -1    0    0  501    0  0.00000000000E+00  0.00000000000E+00  0.53228336123E+03  0.53228336123E+03  0.00000000000E+00 0.  1.
         -2   -1    0    0    0  501 -0.00000000000E+00 -0.00000000000E+00 -0.35615105142E+02  0.35615105142E+02  0.00000000000E+00 0.  1.
         36    2    1    2    0    0  0.00000000000E+00  0.71054273576E-14  0.49666825608E+03  0.56789846637E+03  0.27537122490E+03 0.  0.
         25    2    3    3    0    0 -0.13745665045E+02  0.48949097441E+02  0.30257936611E+03  0.33190654052E+03  0.12658088874E+03 0.  0.
         25    2    3    3    0    0  0.13745665045E+02 -0.48949097441E+02  0.19408888997E+03  0.23599192585E+03  0.12424465545E+03 0.  0.
          5    1    4    4  502    0 -0.34457301356E+02 -0.12121061518E+02  0.23688511076E+03  0.23973083124E+03  0.47000000000E+01 0.  1.
         -5    1    4    4    0  502  0.20711636311E+02  0.61070158959E+02  0.65694255355E+02  0.92175709276E+02  0.47000000000E+01 0.  1.
          5    1    5    5  503    0 -0.33500256379E+01 -0.69638594132E+02  0.42099392522E+02  0.81579441743E+02  0.47000000000E+01 0. -1.
         -5    1    5    5    0  503  0.17095690683E+02  0.20689496691E+02  0.15198949745E+03  0.15441248411E+03  0.47000000000E+01 0. -1.
<mgrwt>
<rscale>  0 0.27537122E+03</rscale>
<asrwt>0</asrwt>
<pdfrwt beam="1">  1        2 0.81889742E-01 0.27537122E+03</pdfrwt>
<pdfrwt beam="2">  1       -2 0.54792474E-02 0.27537122E+03</pdfrwt>
<totfact> 0.98136657E+03</totfact>
</mgrwt>
</event>
<event>
 9    1  0.2094635E-002  0.2756881E+03  0.7818608E-02  0.1098068E+00
          1   -1    0    0  501    0  0.00000000000E+00  0.00000000000E+00  0.30371925975E+03  0.30371925975E+03  0.00000000000E+00 0.  1.
         -1   -1    0    0    0  501 -0.00000000000E+00 -0.00000000000E+00 -0.62561019213E+02  0.62561019213E+02  0.00000000000E+00 0.  1.
         36    2    1    2    0    0  0.00000000000E+00  0.35527136788E-14  0.24115824054E+03  0.36628027896E+03  0.27568813137E+03 0.  0.
         25    2    3    3    0    0 -0.52304090495E+02 -0.23114872388E+02  0.13816244432E+03  0.19473921365E+03  0.12475770559E+03 0.  0.
         25    2    3    3    0    0  0.52304090495E+02  0.23114872388E+02  0.10299579622E+03  0.17154106532E+03  0.12469237284E+03 0.  0.
          5    1    4    4  502    0 -0.39229713276E+02 -0.64562480132E+02  0.12976223538E+03  0.15022520420E+03  0.47000000000E+01 0. -1.
         -5    1    4    4    0  502 -0.13074377219E+02  0.41447607743E+02  0.84002089396E+01  0.44514009452E+02  0.47000000000E+01 0. -1.
          5    1    5    5  503    0  0.85810072582E+02  0.27480180258E+02  0.10365190573E+03  0.13742029117E+03  0.47000000000E+01 0.  1.
         -5    1    5    5    0  503 -0.33505982087E+02 -0.43653078695E+01 -0.65610951754E+00  0.34120774143E+02  0.47000000000E+01 0.  1.
<mgrwt>
<rscale>  0 0.27568813E+03</rscale>
<asrwt>0</asrwt>
<pdfrwt beam="1">  1        1 0.46726039E-01 0.27568813E+03</pdfrwt>
<pdfrwt beam="2">  1       -1 0.96247724E-02 0.27568813E+03</pdfrwt>
<totfact> 0.55441174E+03</totfact>
</mgrwt>
</event>
<event>
 9    1  0.2094635E-002  0.2757322E+03  0.7818608E-02  0.1098043E+00
         -2   -1    0    0    0  501 -0.00000000000E+00  0.00000000000E+00  0.87982557548E+01  0.87982557548E+01  0.00000000000E+00 0.  1.
          2   -1    0    0  501    0  0.00000000000E+00 -0.00000000000E+00 -0.21603218482E+04  0.21603218482E+04  0.00000000000E+00 0.  1.
         36    2    1    2    0    0 -0.17763568394E-14  0.71054273576E-14 -0.21515235925E+04  0.21691201040E+04  0.27573221889E+03 0.  0.
         25    2    3    3    0    0 -0.27969145649E+00  0.38294496838E+02 -0.14099404882E+04  0.14159388012E+04  0.12443456852E+03 0.  0.
         25    2    3    3    0    0  0.27969145649E+00 -0.38294496838E+02 -0.74158310426E+03  0.75318130274E+03  0.12597629761E+03 0.  0.
          5    1    4    4  502    0  0.12428422884E+02 -0.29987961042E+02 -0.12888087064E+03  0.13298914362E+03  0.47000000000E+01 0.  1.
         -5    1    4    4    0  502 -0.12708114341E+02  0.68282457880E+02 -0.12810596176E+04  0.12829496576E+04  0.47000000000E+01 0.  1.
          5    1    5    5  503    0  0.18498031252E+02  0.43037656696E+02 -0.31601289107E+03  0.31950063282E+03  0.47000000000E+01 0. -1.
         -5    1    5    5    0  503 -0.18218339795E+02 -0.81332153534E+02 -0.42557021319E+03  0.43368066992E+03  0.47000000000E+01 0. -1.
<mgrwt>
<rscale>  0 0.27573222E+03</rscale>
<asrwt>0</asrwt>
<pdfrwt beam="1">  1        2 0.33235728E+00 0.27573222E+03</pdfrwt>
<pdfrwt beam="2">  1       -2 0.13535775E-02 0.27573222E+03</pdfrwt>
<totfact> 0.83815367E+03</totfact>
</mgrwt>
</event>
<event>
 9    1  0.2094635E-002  0.2713921E+03  0.7818608E-02  0.1100486E+00
          1   -1    0    0  501    0  0.00000000000E+00  0.00000000000E+00  0.39399890150E+02  0.39399890150E+02  0.00000000000E+00 0.  1.
         -1   -1    0    0    0  501 -0.00000000000E+00 -0.00000000000E+00 -0.46734691423E+03  0.46734691423E+03  0.00000000000E+00 0.  1.
         36    2    1    2    0    0  0.71054273576E-14  0.71054273576E-14 -0.42794702408E+03  0.50674680438E+03  0.27139209334E+03 0.  0.
         25    2    3    3    0    0  0.39160134075E+02  0.52694180415E+02 -0.18030014661E+03  0.22970352748E+03  0.12627499721E+03 0.  0.
         25    2    3    3    0    0 -0.39160134075E+02 -0.52694180415E+02 -0.24764687746E+03  0.27704327689E+03  0.10542204989E+03 0.  0.
          5    1    4    4  502    0 -0.21711903738E+02 -0.30595603263E+02 -0.35603309272E+02  0.51934413774E+02  0.47000000000E+01 0.  1.
         -5    1    4    4    0  502  0.60872037812E+02  0.83289783678E+02 -0.14469683734E+03  0.17776911371E+03  0.47000000000E+01 0.  1.
          5    1    5    5  503    0 -0.66278658011E+02 -0.63752081711E+02 -0.16116618176E+03  0.18561739297E+03  0.47000000000E+01 0. -1.
         -5    1    5    5    0  503  0.27118523937E+02  0.11057901296E+02 -0.86480695705E+02  0.91425883924E+02  0.47000000000E+01 0. -1.
<mgrwt>
<rscale>  0 0.27139209E+03</rscale>
<asrwt>0</asrwt>
<pdfrwt beam="1">  1        1 0.60615217E-02 0.27139209E+03</pdfrwt>
<pdfrwt beam="2">  1       -1 0.71899524E-01 0.27139209E+03</pdfrwt>
<totfact> 0.25806402E+03</totfact>
</mgrwt>
</event>
<event>
 9    1  0.2094635E-002  0.2744772E+03  0.7818608E-02  0.1098744E+00
         -2   -1    0    0    0  501 -0.00000000000E+00  0.00000000000E+00  0.12637176998E+03  0.12637176998E+03  0.00000000000E+00 0. -1.
          2   -1    0    0  501    0  0.00000000000E+00 -0.00000000000E+00 -0.14903983744E+03  0.14903983744E+03  0.00000000000E+00 0. -1.
         36    2    1    2    0    0  0.00000000000E+00  0.00000000000E+00 -0.22668067461E+02  0.27541160742E+03  0.27447716156E+03 0.  0.
         25    2    3    3    0    0 -0.35555070738E+02 -0.17691264136E+02 -0.52050852688E+02  0.14234622960E+03  0.12639625760E+03 0.  0.
         25    2    3    3    0    0  0.35555070738E+02  0.17691264136E+02  0.29382785228E+02  0.13306537782E+03  0.12355526223E+03 0.  0.
          5    1    4    4  502    0  0.37056362016E+02  0.27405243623E+02 -0.12126648341E+02  0.47889110911E+02  0.47000000000E+01 0.  1.
         -5    1    4    4    0  502 -0.72611432753E+02 -0.45096507759E+02 -0.39924204348E+02  0.94457118691E+02  0.47000000000E+01 0.  1.
          5    1    5    5  503    0 -0.11557260837E+02 -0.99083044071E+01 -0.40927855542E+02  0.43919518822E+02  0.47000000000E+01 0.  1.
         -5    1    5    5    0  503  0.47112331575E+02  0.27599568543E+02  0.70310640770E+02  0.89145858993E+02  0.47000000000E+01 0.  1.
<mgrwt>
<rscale>  0 0.27447716E+03</rscale>
<asrwt>0</asrwt>
<pdfrwt beam="1">  1        2 0.22929206E-01 0.27447716E+03</pdfrwt>
<pdfrwt beam="2">  1       -2 0.19441811E-01 0.27447716E+03</pdfrwt>
<totfact> 0.52004123E+03</totfact>
</mgrwt>
</event>
<event>
 9    1  0.2094635E-002  0.2649636E+03  0.7818608E-02  0.1104197E+00
          4   -1    0    0  501    0  0.00000000000E+00  0.00000000000E+00  0.24555187519E+02  0.24555187519E+02  0.00000000000E+00 0.  1.
         -4   -1    0    0    0  501 -0.00000000000E+00 -0.00000000000E+00 -0.71477467744E+03  0.71477467744E+03  0.00000000000E+00 0.  1.
         36    2    1    2    0    0  0.00000000000E+00  0.00000000000E+00 -0.69021948992E+03  0.73932986496E+03  0.26496359175E+03 0.  0.
         25    2    3    3    0    0  0.31242076569E+02  0.34127023852E+02 -0.36187571544E+03  0.38520973334E+03  0.12365995360E+03 0.  0.
         25    2    3    3    0    0 -0.31242076569E+02 -0.34127023852E+02 -0.32834377448E+03  0.35412013162E+03  0.12430089411E+03 0.  0.
          5    1    4    4  502    0  0.24954691297E+01  0.23953431184E+02 -0.26709905180E+01  0.24682350416E+02  0.47000000000E+01 0. -1.
         -5    1    4    4    0  502  0.28746607439E+02  0.10173592667E+02 -0.35920472492E+03  0.36052738292E+03  0.47000000000E+01 0. -1.
          5    1    5    5  503    0 -0.63533815952E+02 -0.69541181068E+01 -0.28970264356E+03  0.29670628105E+03  0.47000000000E+01 0. -1.
         -5    1    5    5    0  503  0.32291739384E+02 -0.27172905745E+02 -0.38641130913E+02  0.57413850570E+02  0.47000000000E+01 0. -1.
<mgrwt>
<rscale>  0 0.26496359E+03</rscale>
<asrwt>0</asrwt>
<pdfrwt beam="1">  1        4 0.37777214E-02 0.26496359E+03</pdfrwt>
<pdfrwt beam="2">  1       -4 0.10996533E+00 0.26496359E+03</pdfrwt>
<totfact> 0.47627750E+02</totfact>
</mgrwt>
</event>
<event>
 9    1  0.2094635E-002  0.2709212E+03  0.7818608E-02  0.1100754E+00
          2   -1    0    0  501    0  0.00000000000E+00  0.00000000000E+00  0.22510956361E+04  0.22510956361E+04  0.00000000000E+00 0.  1.
         -2   -1    0    0    0  501 -0.00000000000E+00 -0.00000000000E+00 -0.81513995260E+01  0.81513995260E+01  0.00000000000E+00 0.  1.
         36    2    1    2    0    0 -0.35527136788E-14  0.71054273576E-14  0.22429442365E+04  0.22592470356E+04  0.27092124244E+03 0.  0.
         25    2    3    3    0    0  0.29121963688E+01 -0.42165953048E+02  0.14397924967E+04  0.14457715263E+04  0.12436407973E+03 0.  0.
         25    2    3    3    0    0 -0.29121963688E+01  0.42165953048E+02  0.80315173988E+03  0.81347550929E+03  0.12207882071E+03 0.  0.
          5    1    4    4  502    0  0.98779026886E+01 -0.25260323918E+02  0.14114418241E+04  0.14117102287E+04  0.47000000000E+01 0.  1.
         -5    1    4    4    0  502 -0.69657063197E+01 -0.16905629130E+02  0.28350672536E+02  0.34061297598E+02  0.47000000000E+01 0.  1.
          5    1    5    5  503    0  0.32187401971E+02 -0.13734528821E+02  0.81806866683E+02  0.89101737155E+02  0.47000000000E+01 0. -1.
         -5    1    5    5    0  503 -0.35099598340E+02  0.55900481869E+02  0.72134487320E+03  0.72437377214E+03  0.47000000000E+01 0. -1.
<mgrwt>
<rscale>  0 0.27092124E+03</rscale>
<asrwt>0</asrwt>
<pdfrwt beam="1">  1        2 0.34632191E+00 0.27092124E+03</pdfrwt>
<pdfrwt beam="2">  1       -2 0.12540633E-02 0.27092124E+03</pdfrwt>
<totfact> 0.83824734E+03</totfact>
</mgrwt>
</event>
<event>
 9    1  0.2094635E-002  0.2673975E+03  0.7818608E-02  0.1102778E+00
         -2   -1    0    0    0  501 -0.00000000000E+00  0.00000000000E+00  0.29198003051E+02  0.29198003051E+02  0.00000000000E+00 0. -1.
          2   -1    0    0  501    0  0.00000000000E+00 -0.00000000000E+00 -0.61221154249E+03  0.61221154249E+03  0.00000000000E+00 0. -1.
         36    2    1    2    0    0  0.00000000000E+00 -0.35527136788E-14 -0.58301353944E+03  0.64140954554E+03  0.26739749053E+03 0.  0.
         25    2    3    3    0    0 -0.25997028970E+02  0.98088864272E+01 -0.29161411694E+03  0.32337235362E+03  0.13696286400E+03 0.  0.
         25    2    3    3    0    0  0.25997028970E+02 -0.98088864272E+01 -0.29139942250E+03  0.31803719192E+03  0.12434617907E+03 0.  0.
          5    1    4    4  502    0  0.24857588923E+02 -0.46589387112E+02 -0.18463653182E+03  0.19209687557E+03  0.47000000000E+01 0.  1.
         -5    1    4    4    0  502 -0.50854617893E+02  0.56398273539E+02 -0.10697758512E+03  0.13127547805E+03  0.47000000000E+01 0.  1.
          5    1    5    5  503    0 -0.89273773153E+01  0.72545284774E+01  0.88435955686E+01  0.15252063196E+02  0.47000000000E+01 0. -1.
         -5    1    5    5    0  503  0.34924406286E+02 -0.17063414905E+02 -0.30024301806E+03  0.30278512873E+03  0.47000000000E+01 0. -1.
<mgrwt>
<rscale>  0 0.26739749E+03</rscale>
<asrwt>0</asrwt>
<pdfrwt beam="1">  1        2 0.94186389E-01 0.26739749E+03</pdfrwt>
<pdfrwt beam="2">  1       -2 0.44920006E-02 0.26739749E+03</pdfrwt>
<totfact> 0.11288255E+04</totfact>
</mgrwt>
</event>
<event>
 9    1  0.2094635E-002  0.2743733E+03  0.7818608E-02  0.1098802E+00
          1   -1    0    0  501    0  0.00000000000E+00  0.00000000000E+00  0.76920590917E+03  0.76920590917E+03  0.00000000000E+00 0. -1.
         -1   -1    0    0    0  501 -0.00000000000E+00 -0.00000000000E+00 -0.24467014578E+02  0.24467014578E+02  0.00000000000E+00 0. -1.
         36    2    1    2    0    0 -0.10658141036E-13  0.35527136788E-14  0.74473889460E+03  0.79367292375E+03  0.27437326541E+03 0.  0.
         25    2    3    3    0    0 -0.43633923649E+01 -0.20723114968E+02  0.53112423916E+03  0.54604922047E+03  0.12501322757E+03 0.  0.
         25    2    3    3    0    0  0.43633923649E+01  0.20723114968E+02  0.21361465544E+03  0.24762370328E+03  0.12344144653E+03 0.  0.
          5    1    4    4  502    0 -0.64115912278E+02 -0.41440634619E+01  0.28498055060E+03  0.29217123008E+03  0.47000000000E+01 0.  1.
         -5    1    4    4    0  502  0.59752519913E+02 -0.16579051506E+02  0.24614368856E+03  0.25387799039E+03  0.47000000000E+01 0.  1.
          5    1    5    5  503    0 -0.25061417686E+02  0.60974085545E+02  0.16535941160E+03  0.17807790084E+03  0.47000000000E+01 0. -1.
         -5    1    5    5    0  503  0.29424810051E+02 -0.40250970577E+02  0.48255243839E+02  0.69545802439E+02  0.47000000000E+01 0. -1.
<mgrwt>
<rscale>  0 0.27437327E+03</rscale>
<asrwt>0</asrwt>
<pdfrwt beam="1">  1        1 0.11833935E+00 0.27437327E+03</pdfrwt>
<pdfrwt beam="2">  1       -1 0.37641567E-02 0.27437327E+03</pdfrwt>
<totfact> 0.65759831E+03</totfact>
</mgrwt>
</event>
<event>
 9    1  0.2094635E-002  0.2749499E+03  0.7818608E-02  0.1098480E+00
         -3   -1    0    0    0  501 -0.00000000000E+00  0.00000000000E+00  0.33768560631E+03  0.33768560631E+03  0.00000000000E+00 0. -1.
          3   -1    0    0  501    0  0.00000000000E+00 -0.00000000000E+00 -0.55967326253E+02  0.55967326253E+02  0.00000000000E+00 0. -1.
         36    2    1    2    0    0  0.00000000000E+00  0.35527136788E-14  0.28171828006E+03  0.39365293256E+03  0.27494988998E+03 0.  0.
         25    2    3    3    0    0 -0.37789240077E+02 -0.31360143252E+02  0.10465094205E+03  0.17360838739E+03  0.12952438864E+03 0.  0.
         25    2    3    3    0    0  0.37789240077E+02  0.31360143252E+02  0.17706733801E+03  0.22004454517E+03  0.12105897083E+03 0.  0.
          5    1    4    4  502    0  0.37557740895E+02 -0.41456155071E+02  0.19651832754E+02  0.59476728433E+02  0.47000000000E+01 0. -1.
         -5    1    4    4    0  502 -0.75346980973E+02  0.10096011819E+02  0.84999109296E+02  0.11413165896E+03  0.47000000000E+01 0. -1.
          5    1    5    5  503    0  0.63457373426E+02  0.25176233423E+02  0.18047345702E+03  0.19301150137E+03  0.47000000000E+01 0. -1.
         -5    1    5    5    0  503 -0.25668133349E+02  0.61839098284E+01 -0.34061190134E+01  0.27033043800E+02  0.47000000000E+01 0. -1.
<mgrwt>
<rscale>  0 0.27494989E+03</rscale>
<asrwt>0</asrwt>
<pdfrwt beam="1">  1        3 0.86103581E-02 0.27494989E+03</pdfrwt>
<pdfrwt beam="2">  1       -3 0.51951630E-01 0.27494989E+03</pdfrwt>
<totfact> 0.88864729E+02</totfact>
</mgrwt>
</event>
<event>
 9    1  0.2094635E-002  0.2743066E+03  0.7818608E-02  0.1098840E+00
         -4   -1    0    0    0  501 -0.00000000000E+00  0.00000000000E+00  0.12919850028E+03  0.12919850028E+03  0.00000000000E+00 0.  1.
          4   -1    0    0  501    0  0.00000000000E+00 -0.00000000000E+00 -0.14559787519E+03  0.14559787519E+03  0.00000000000E+00 0.  1.
         36    2    1    2    0    0  0.00000000000E+00  0.17763568394E-14 -0.16399374908E+02  0.27479637547E+03  0.27430659576E+03 0.  0.
         25    2    3    3    0    0  0.63868259408E+02 -0.68750690932E+01  0.13844450229E+02  0.13258324548E+03  0.11515305921E+03 0.  0.
         25    2    3    3    0    0 -0.63868259408E+02  0.68750690932E+01 -0.30243825137E+02  0.14221312999E+03  0.12322120048E+03 0.  0.
          5    1    4    4  502    0  0.13916365259E+01 -0.17478078050E+02  0.54300128164E+02  0.57253941202E+02  0.47000000000E+01 0.  1.
         -5    1    4    4    0  502  0.62476622882E+02  0.10603008957E+02 -0.40455677935E+02  0.75329304277E+02  0.47000000000E+01 0.  1.
          5    1    5    5  503    0 -0.16250118654E+02  0.45931389769E+01  0.47647813574E+02  0.50769749067E+02  0.47000000000E+01 0.  1.
         -5    1    5    5    0  503 -0.47618140754E+02  0.22819301163E+01 -0.77891638711E+02  0.91443380925E+02  0.47000000000E+01 0.  1.
<mgrwt>
<rscale>  0 0.27430660E+03</rscale>
<asrwt>0</asrwt>
<pdfrwt beam="1">  1        4 0.22399673E-01 0.27430660E+03</pdfrwt>
<pdfrwt beam="2">  1       -4 0.19876692E-01 0.27430660E+03</pdfrwt>
<totfact> 0.78498868E+02</totfact>
</mgrwt>
</event>
<event>
 9    1  0.2094635E-002  0.2771477E+03  0.7818608E-02  0.1097257E+00
          2   -1    0    0  501    0  0.00000000000E+00  0.00000000000E+00  0.54710256695E+02  0.54710256695E+02  0.00000000000E+00 0.  1.
         -2   -1    0    0    0  501 -0.00000000000E+00 -0.00000000000E+00 -0.35098936423E+03  0.35098936423E+03  0.00000000000E+00 0.  1.
         36    2    1    2    0    0  0.00000000000E+00  0.00000000000E+00 -0.29627910754E+03  0.40569962093E+03  0.27714774554E+03 0.  0.
         25    2    3    3    0    0 -0.32502986414E+02 -0.45057918943E+01 -0.21953326446E+03  0.25405211854E+03  0.12357539579E+03 0.  0.
         25    2    3    3    0    0  0.32502986414E+02  0.45057918943E+01 -0.76745843081E+02  0.15164750239E+03  0.12661079837E+03 0.  0.
          5    1    4    4  502    0 -0.74276506854E+02  0.91158714625E+01 -0.89735986610E+02  0.11693902632E+03  0.47000000000E+01 0.  1.
         -5    1    4    4    0  502  0.41773520440E+02 -0.13621663357E+02 -0.12979727785E+03  0.13711309222E+03  0.47000000000E+01 0.  1.
          5    1    5    5  503    0  0.22200437489E+01  0.36901044613E+02 -0.96071844591E+02  0.10304613050E+03  0.47000000000E+01 0. -1.
         -5    1    5    5    0  503  0.30282942665E+02 -0.32395252718E+02  0.19326001510E+02  0.48601371889E+02  0.47000000000E+01 0. -1.
<mgrwt>
<rscale>  0 0.27714775E+03</rscale>
<asrwt>0</asrwt>
<pdfrwt beam="1">  1        2 0.84169631E-02 0.27714775E+03</pdfrwt>
<pdfrwt beam="2">  1       -2 0.53998360E-01 0.27714775E+03</pdfrwt>
<totfact> 0.26116351E+03</totfact>
</mgrwt>
</event>
<event>
 9    1  0.2094635E-002  0.2743879E+03  0.7818608E-02  0.1098794E+00
         -2   -1    0    0    0  501 -0.00000000000E+00  0.00000000000E+00  0.11868973868E+02  0.11868973868E+02  0.00000000000E+00 0. -1.
          2   -1    0    0  501    0  0.00000000000E+00 -0.00000000000E+00 -0.15858299638E+04  0.15858299638E+04  0.00000000000E+00 0. -1.
         36    2    1    2    0    0 -0.71054273576E-14  0.00000000000E+00 -0.15739609899E+04  0.15976989377E+04  0.27438785978E+03 0.  0.
         25    2    3    3    0    0  0.40112068885E+02  0.26051121515E+00 -0.10625642731E+04  0.10705216939E+04  0.12395489776E+03 0.  0.
         25    2    3    3    0    0 -0.40112068885E+02 -0.26051121515E+00 -0.51139671681E+03  0.52717724376E+03  0.12157383944E+03 0.  0.
          5    1    4    4  502    0  0.12450252095E+02 -0.45781436077E+02 -0.17672553786E+03  0.18304358607E+03  0.47000000000E+01 0.  1.
         -5    1    4    4    0  502  0.27661816790E+02  0.46041947293E+02 -0.88583873526E+03  0.88747810785E+03  0.47000000000E+01 0.  1.
          5    1    5    5  503    0 -0.38226965269E+02 -0.27825289828E+02 -0.48899578563E+03  0.49129880520E+03  0.47000000000E+01 0. -1.
         -5    1    5    5    0  503 -0.18851036156E+01  0.27564778613E+02 -0.22400931180E+02  0.35878438558E+02  0.47000000000E+01 0. -1.
<mgrwt>
<rscale>  0 0.27438786E+03</rscale>
<asrwt>0</asrwt>
<pdfrwt beam="1">  1        2 0.24397382E+00 0.27438786E+03</pdfrwt>
<pdfrwt beam="2">  1       -2 0.18259961E-02 0.27438786E+03</pdfrwt>
<totfact> 0.10852605E+04</totfact>
</mgrwt>
</event>
<event>
 9    1  0.2094635E-002  0.2754298E+03  0.7818608E-02  0.1098212E+00
         -2   -1    0    0    0  501 -0.00000000000E+00  0.00000000000E+00  0.13952464449E+03  0.13952464449E+03  0.00000000000E+00 0.  1.
          2   -1    0    0  501    0  0.00000000000E+00 -0.00000000000E+00 -0.13592860003E+03  0.13592860003E+03  0.00000000000E+00 0.  1.
         36    2    1    2    0    0  0.14210854715E-13  0.00000000000E+00  0.35960444607E+01  0.27545324453E+03  0.27542977033E+03 0.  0.
         25    2    3    3    0    0  0.32748898935E+02  0.39746399382E+02 -0.21827199454E+02  0.13747418939E+03  0.12558049000E+03 0.  0.
         25    2    3    3    0    0 -0.32748898935E+02 -0.39746399382E+02  0.25423243915E+02  0.13797905513E+03  0.12545760909E+03 0.  0.
          5    1    4    4  502    0  0.54243386744E+02 -0.27760752748E+02 -0.25851307428E+02  0.66358002489E+02  0.47000000000E+01 0.  1.
         -5    1    4    4    0  502 -0.21494487809E+02  0.67507152129E+02  0.40241079738E+01  0.71116186904E+02  0.47000000000E+01 0.  1.
          5    1    5    5  503    0  0.34001893713E+02 -0.58775104695E+01  0.48321000392E+02  0.59562429302E+02  0.47000000000E+01 0.  1.
         -5    1    5    5    0  503 -0.66750792648E+02 -0.33868888912E+02 -0.22897756477E+02  0.78416625832E+02  0.47000000000E+01 0.  1.
<mgrwt>
<rscale>  0 0.27542977E+03</rscale>
<asrwt>0</asrwt>
<pdfrwt beam="1">  1        2 0.20912092E-01 0.27542977E+03</pdfrwt>
<pdfrwt beam="2">  1       -2 0.21465330E-01 0.27542977E+03</pdfrwt>
<totfact> 0.48713665E+03</totfact>
</mgrwt>
</event>
<event>
 9    1  0.2094635E-002  0.2784002E+03  0.7818608E-02  0.1096566E+00
         -2   -1    0    0    0  501 -0.00000000000E+00  0.00000000000E+00  0.28253077155E+02  0.28253077155E+02  0.00000000000E+00 0. -1.
          2   -1    0    0  501    0  0.00000000000E+00 -0.00000000000E+00 -0.68582502186E+03  0.68582502186E+03  0.00000000000E+00 0. -1.
         36    2    1    2    0    0 -0.71054273576E-14  0.71054273576E-14 -0.65757194471E+03  0.71407809902E+03  0.27840019582E+03 0.  0.
         25    2    3    3    0    0  0.24736331249E+02 -0.53706694570E+02 -0.41473655179E+03  0.43509438852E+03  0.11749223125E+03 0.  0.
         25    2    3    3    0    0 -0.24736331249E+02  0.53706694570E+02 -0.24283539291E+03  0.27898371050E+03  0.12396204075E+03 0.  0.
          5    1    4    4  502    0  0.14990211325E+02  0.33746585022E+02 -0.70097560330E+02  0.79368106948E+02  0.47000000000E+01 0. -1.
         -5    1    4    4    0  502  0.97461199243E+01 -0.87453279592E+02 -0.34463899146E+03  0.35572628157E+03  0.47000000000E+01 0. -1.
          5    1    5    5  503    0 -0.58772978274E+02 -0.14061399059E+02 -0.12234563918E+03  0.13653765541E+03  0.47000000000E+01 0. -1.
         -5    1    5    5    0  503  0.34036647024E+02  0.67768093630E+02 -0.12048975373E+03  0.14244605508E+03  0.47000000000E+01 0. -1.
<mgrwt>
<rscale>  0 0.27840020E+03</rscale>
<asrwt>0</asrwt>
<pdfrwt beam="1">  1        2 0.10551155E+00 0.27840020E+03</pdfrwt>
<pdfrwt beam="2">  1       -2 0.43466271E-02 0.27840020E+03</pdfrwt>
<totfact> 0.10385032E+04</totfact>
</mgrwt>
</event>
<event>
 9    1  0.2094635E-002  0.2759871E+03  0.7818608E-02  0.1097901E+00
          1   -1    0    0  501    0  0.00000000000E+00  0.00000000000E+00  0.37572693492E+03  0.37572693492E+03  0.00000000000E+00 0. -1.
         -1   -1    0    0    0  501 -0.00000000000E+00 -0.00000000000E+00 -0.50680996217E+02  0.50680996217E+02  0.00000000000E+00 0. -1.
         36    2    1    2    0    0  0.14210854715E-13  0.00000000000E+00  0.32504593870E+03  0.42640793114E+03  0.27598706758E+03 0.  0.
         25    2    3    3    0    0 -0.38206432631E+02 -0.42069881069E+02  0.13364453345E+03  0.19215061035E+03  0.12582284907E+03 0.  0.
         25    2    3    3    0    0  0.38206432631E+02  0.42069881069E+02  0.19140140525E+03  0.23425732079E+03  0.12252505059E+03 0.  0.
          5    1    4    4  502    0 -0.66315083159E+02 -0.46163539567E+02  0.32892854569E+02  0.87365854437E+02  0.47000000000E+01 0.  1.
         -5    1    4    4    0  502  0.28108650527E+02  0.40936584986E+01  0.10075167888E+03  0.10478475591E+03  0.47000000000E+01 0.  1.
          5    1    5    5  503    0 -0.36696369486E+01  0.33622275037E+02  0.18807681859E+03  0.19115151923E+03  0.47000000000E+01 0. -1.
         -5    1    5    5    0  503  0.41876069580E+02  0.84476060320E+01  0.33245866628E+01  0.43105801554E+02  0.47000000000E+01 0. -1.
<mgrwt>
<rscale>  0 0.27598707E+03</rscale>
<asrwt>0</asrwt>
<pdfrwt beam="1">  1        1 0.57804142E-01 0.27598707E+03</pdfrwt>
<pdfrwt beam="2">  1       -1 0.77970766E-02 0.27598707E+03</pdfrwt>
<totfact> 0.58501385E+03</totfact>
</mgrwt>
</event>
<event>
 9    1  0.2094635E-002  0.2745957E+03  0.7818608E-02  0.1098678E+00
          2   -1    0    0  501    0  0.00000000000E+00  0.00000000000E+00  0.20634845054E+02  0.20634845054E+02  0.00000000000E+00 0. -1.
         -2   -1    0    0    0  501 -0.00000000000E+00 -0.00000000000E+00 -0.91353716460E+03  0.91353716460E+03  0.00000000000E+00 0. -1.
         36    2    1    2    0    0  0.00000000000E+00  0.71054273576E-14 -0.89290231955E+03  0.93417200966E+03  0.27459568710E+03 0.  0.
         25    2    3    3    0    0 -0.18326515282E+02  0.48339237226E+02 -0.37061433893E+03  0.39530070596E+03  0.12741709812E+03 0.  0.
         25    2    3    3    0    0  0.18326515282E+02 -0.48339237226E+02 -0.52228798062E+03  0.53887130370E+03  0.12216793455E+03 0.  0.
          5    1    4    4  502    0 -0.53759613111E+02  0.49368724899E+02 -0.34133906504E+03  0.34908711566E+03  0.47000000000E+01 0.  1.
         -5    1    4    4    0  502  0.35433097829E+02 -0.10294876735E+01 -0.29275273892E+02  0.46213590296E+02  0.47000000000E+01 0.  1.
          5    1    5    5  503    0 -0.46081038862E+02 -0.45503575315E+02 -0.20395261701E+03  0.21403924288E+03  0.47000000000E+01 0. -1.
         -5    1    5    5    0  503  0.64407554144E+02 -0.28356619109E+01 -0.31833536361E+03  0.32483206082E+03  0.47000000000E+01 0. -1.
<mgrwt>
<rscale>  0 0.27459569E+03</rscale>
<asrwt>0</asrwt>
<pdfrwt beam="1">  1        2 0.31745924E-02 0.27459569E+03</pdfrwt>
<pdfrwt beam="2">  1       -2 0.14054414E+00 0.27459569E+03</pdfrwt>
<totfact> 0.10870767E+03</totfact>
</mgrwt>
</event>
<event>
 9    1  0.2094635E-002  0.2754905E+03  0.7818608E-02  0.1098178E+00
         -3   -1    0    0    0  501 -0.00000000000E+00  0.00000000000E+00  0.55753906532E+02  0.55753906532E+02  0.00000000000E+00 0. -1.
          3   -1    0    0  501    0  0.00000000000E+00 -0.00000000000E+00 -0.34031266007E+03  0.34031266007E+03  0.00000000000E+00 0. -1.
         36    2    1    2    0    0 -0.35527136788E-14  0.71054273576E-14 -0.28455875354E+03  0.39606656660E+03  0.27549054605E+03 0.  0.
         25    2    3    3    0    0 -0.14772087146E+02 -0.77347986565E+01 -0.21359187005E+03  0.24858920970E+03  0.12608356974E+03 0.  0.
         25    2    3    3    0    0  0.14772087146E+02  0.77347986565E+01 -0.70966883488E+02  0.14747735690E+03  0.12819996325E+03 0.  0.
          5    1    4    4  502    0 -0.64380527858E+01  0.34101055571E+02 -0.46998010277E+01  0.35334241812E+02  0.47000000000E+01 0. -1.
         -5    1    4    4    0  502 -0.83340343606E+01 -0.41835854227E+02 -0.20889206902E+03  0.21325496789E+03  0.47000000000E+01 0. -1.
          5    1    5    5  503    0 -0.37365641849E+02  0.44741604580E+02 -0.10628472162E+02  0.59439522135E+02  0.47000000000E+01 0.  1.
         -5    1    5    5    0  503  0.52137728995E+02 -0.37006805924E+02 -0.60338411327E+02  0.88037834769E+02  0.47000000000E+01 0.  1.
<mgrwt>
<rscale>  0 0.27549055E+03</rscale>
<asrwt>0</asrwt>
<pdfrwt beam="1">  1        3 0.52355794E-01 0.27549055E+03</pdfrwt>
<pdfrwt beam="2">  1       -3 0.85775241E-02 0.27549055E+03</pdfrwt>
<totfact> 0.88101857E+02</totfact>
</mgrwt>
</event>
<event>
 9    1  0.2094635E-002  0.2746613E+03  0.7818608E-02  0.1098641E+00
          2   -1    0    0  501    0  0.00000000000E+00  0.00000000000E+00  0.18424576662E+04  0.18424576662E+04  0.00000000000E+00 0.  1.
         -2   -1    0    0    0  501 -0.00000000000E+00 -0.00000000000E+00 -0.10236169011E+02  0.10236169011E+02  0.00000000000E+00 0.  1.
         36    2    1    2    0    0  0.26645352591E-14 -0.17763568394E-14  0.18322214971E+04  0.18526938352E+04  0.27466130464E+03 0.  0.
         25    2    3    3    0    0 -0.68677977684E+01 -0.12751426041E+01  0.56269592031E+03  0.57699942031E+03  0.12748662544E+03 0.  0.
         25    2    3    3    0    0  0.68677977684E+01  0.12751426041E+01  0.12695255768E+04  0.12756944149E+04  0.12510898143E+03 0.  0.
          5    1    4    4  502    0  0.50462376209E+02  0.13714100926E+02  0.40646537366E+03  0.40984230865E+03  0.47000000000E+01 0.  1.
         -5    1    4    4    0  502 -0.57330173977E+02 -0.14989243531E+02  0.15623054665E+03  0.16715711165E+03  0.47000000000E+01 0.  1.
          5    1    5    5  503    0  0.44321738017E+01  0.63005185234E+02  0.65046822943E+03  0.65354441703E+03  0.47000000000E+01 0.  1.
         -5    1    5    5    0  503  0.24356239667E+01 -0.61730042630E+02  0.61905734739E+03  0.62214999782E+03  0.47000000000E+01 0.  1.
<mgrwt>
<rscale>  0 0.27466130E+03</rscale>
<asrwt>0</asrwt>
<pdfrwt beam="1">  1        2 0.28345476E+00 0.27466130E+03</pdfrwt>
<pdfrwt beam="2">  1       -2 0.15747967E-02 0.27466130E+03</pdfrwt>
<totfact> 0.98763314E+03</totfact>
</mgrwt>
</event>
<event>
 9    1  0.2094635E-002  0.2747641E+03  0.7818608E-02  0.1098584E+00
          1   -1    0    0  501    0  0.00000000000E+00  0.00000000000E+00  0.46932611106E+03  0.46932611106E+03  0.00000000000E+00 0.  1.
         -1   -1    0    0    0  501 -0.00000000000E+00 -0.00000000000E+00 -0.40214742896E+02  0.40214742896E+02  0.00000000000E+00 0.  1.
         36    2    1    2    0    0  0.17763568394E-14 -0.35527136788E-14  0.42911136816E+03  0.50954085395E+03  0.27476410894E+03 0.  0.
         25    2    3    3    0    0  0.49970531971E+01  0.94264193289E+01  0.15223344378E+03  0.20534535709E+03  0.13739674796E+03 0.  0.
         25    2    3    3    0    0 -0.49970531971E+01 -0.94264193289E+01  0.27687792438E+03  0.30419549687E+03  0.12553759350E+03 0.  0.
          5    1    4    4  502    0 -0.39133208781E+01  0.40543389107E+02 -0.80278590777E+01  0.41780581637E+02  0.47000000000E+01 0.  1.
         -5    1    4    4    0  502  0.89103740752E+01 -0.31116969778E+02  0.16026130286E+03  0.16356477545E+03  0.47000000000E+01 0.  1.
          5    1    5    5  503    0  0.12847247234E+02 -0.24503371274E+02  0.18362003054E+01  0.28123452790E+02  0.47000000000E+01 0. -1.
         -5    1    5    5    0  503 -0.17844300431E+02  0.15076951945E+02  0.27504172408E+03  0.27607204408E+03  0.47000000000E+01 0. -1.
<mgrwt>
<rscale>  0 0.27476411E+03</rscale>
<asrwt>0</asrwt>
<pdfrwt beam="1">  1        1 0.72204013E-01 0.27476411E+03</pdfrwt>
<pdfrwt beam="2">  1       -1 0.61868838E-02 0.27476411E+03</pdfrwt>
<totfact> 0.62345587E+03</totfact>
</mgrwt>
</event>
<event>
 9    1  0.2094635E-002  0.2745829E+03  0.7818608E-02  0.1098685E+00
          2   -1    0    0  501    0  0.00000000000E+00  0.00000000000E+00  0.23916510566E+02  0.23916510566E+02  0.00000000000E+00 0.  1.
         -2   -1    0    0    0  501 -0.00000000000E+00 -0.00000000000E+00 -0.78811419396E+03  0.78811419396E+03  0.00000000000E+00 0.  1.
         36    2    1    2    0    0  0.00000000000E+00  0.00000000000E+00 -0.76419768339E+03  0.81203070452E+03  0.27458289420E+03 0.  0.
         25    2    3    3    0    0  0.28143414784E+02 -0.34839097111E+02 -0.26532175977E+03  0.29651903041E+03  0.12458765872E+03 0.  0.
         25    2    3    3    0    0 -0.28143414784E+02  0.34839097111E+02 -0.49887592362E+03  0.51551167411E+03  0.12193967564E+03 0.  0.
          5    1    4    4  502    0  0.45579877318E+02 -0.27877877758E+02 -0.27107314871E+03  0.27632850602E+03  0.47000000000E+01 0.  1.
         -5    1    4    4    0  502 -0.17436462534E+02 -0.69612193525E+01  0.57513889414E+01  0.20190524395E+02  0.47000000000E+01 0.  1.
          5    1    5    5  503    0  0.42191115360E+02  0.40285299896E+02 -0.19998380288E+03  0.20837132004E+03  0.47000000000E+01 0. -1.
         -5    1    5    5    0  503 -0.70334530144E+02 -0.54462027849E+01 -0.29889212074E+03  0.30714035407E+03  0.47000000000E+01 0. -1.
<mgrwt>
<rscale>  0 0.27458289E+03</rscale>
<asrwt>0</asrwt>
<pdfrwt beam="1">  1        2 0.36794629E-02 0.27458289E+03</pdfrwt>
<pdfrwt beam="2">  1       -2 0.12124835E+00 0.27458289E+03</pdfrwt>
<totfact> 0.12845411E+03</totfact>
</mgrwt>
</event>
<event>
 9    1  0.2094635E-002  0.2763519E+03  0.7818608E-02  0.1097698E+00
         -3   -1    0    0    0  501 -0.00000000000E+00  0.00000000000E+00  0.11925641024E+02  0.11925641024E+02  0.00000000000E+00 0. -1.
          3   -1    0    0  501    0  0.00000000000E+00 -0.00000000000E+00 -0.16009699425E+04  0.16009699425E+04  0.00000000000E+00 0. -1.
         36    2    1    2    0    0 -0.71054273576E-14  0.00000000000E+00 -0.15890443014E+04  0.16128955835E+04  0.27635189758E+03 0.  0.
         25    2    3    3    0    0  0.22451328902E+02 -0.18388638492E+02 -0.10477491528E+04  0.10553428968E+04  0.12299649778E+03 0.  0.
         25    2    3    3    0    0 -0.22451328902E+02  0.18388638492E+02 -0.54129514866E+03  0.55755268670E+03  0.13046975237E+03 0.  0.
          5    1    4    4  502    0  0.62391075066E+02 -0.30448779080E+02 -0.38303154286E+03  0.38930068998E+03  0.47000000000E+01 0. -1.
         -5    1    4    4    0  502 -0.39939746164E+02  0.12060140588E+02 -0.66471760992E+03  0.66604220681E+03  0.47000000000E+01 0. -1.
          5    1    5    5  503    0 -0.57416380879E+02 -0.28833350564E+02 -0.17369852683E+03  0.18526000951E+03  0.47000000000E+01 0. -1.
         -5    1    5    5    0  503  0.34965051977E+02  0.47221989056E+02 -0.36759662183E+03  0.37229267719E+03  0.47000000000E+01 0. -1.
<mgrwt>
<rscale>  0 0.27635190E+03</rscale>
<asrwt>0</asrwt>
<pdfrwt beam="1">  1        3 0.24630308E+00 0.27635190E+03</pdfrwt>
<pdfrwt beam="2">  1       -3 0.18347139E-02 0.27635190E+03</pdfrwt>
<totfact> 0.23892215E+02</totfact>
</mgrwt>
</event>
<event>
 9    1  0.2094635E-002  0.2756043E+03  0.7818608E-02  0.1098114E+00
         -2   -1    0    0    0  501 -0.00000000000E+00  0.00000000000E+00  0.16436252585E+04  0.16436252585E+04  0.00000000000E+00 0.  1.
          2   -1    0    0  501    0  0.00000000000E+00 -0.00000000000E+00 -0.11553384258E+02  0.11553384258E+02  0.00000000000E+00 0.  1.
         36    2    1    2    0    0  0.00000000000E+00 -0.35527136788E-14  0.16320718743E+04  0.16551786428E+04  0.27560431193E+03 0.  0.
         25    2    3    3    0    0 -0.54269727152E+02 -0.27709497480E+02  0.82581649736E+03  0.83685935240E+03  0.12102755411E+03 0.  0.
         25    2    3    3    0    0  0.54269727152E+02  0.27709497480E+02  0.80625537693E+03  0.81831929041E+03  0.12603852064E+03 0.  0.
          5    1    4    4  502    0 -0.85234691725E+02  0.92598850801E+01  0.47286698176E+03  0.48059959486E+03  0.47000000000E+01 0. -1.
         -5    1    4    4    0  502  0.30964964574E+02 -0.36969382560E+02  0.35294951560E+03  0.35625975754E+03  0.47000000000E+01 0. -1.
          5    1    5    5  503    0  0.57650449664E+02 -0.62764497620E+00  0.76891503445E+03  0.77108779557E+03  0.47000000000E+01 0.  1.
         -5    1    5    5    0  503 -0.33807225121E+01  0.28337142456E+02  0.37340342483E+02  0.47231494831E+02  0.47000000000E+01 0.  1.
<mgrwt>
<rscale>  0 0.27560431E+03</rscale>
<asrwt>0</asrwt>
<pdfrwt beam="1">  1        2 0.17774450E-02 0.27560431E+03</pdfrwt>
<pdfrwt beam="2">  1       -2 0.25286524E+00 0.27560431E+03</pdfrwt>
<totfact> 0.44512928E+02</totfact>
</mgrwt>
</event>
<event>
 9    1  0.2094635E-002  0.2741638E+03  0.7818608E-02  0.1098920E+00
         -1   -1    0    0    0  501 -0.00000000000E+00  0.00000000000E+00  0.64680620625E+03  0.64680620625E+03  0.00000000000E+00 0.  1.
          1   -1    0    0  501    0  0.00000000000E+00 -0.00000000000E+00 -0.29052673136E+02  0.29052673136E+02  0.00000000000E+00 0.  1.
         36    2    1    2    0    0  0.71054273576E-14  0.00000000000E+00  0.61775353312E+03  0.67585887939E+03  0.27416381448E+03 0.  0.
         25    2    3    3    0    0  0.13001844686E+02  0.76779760819E+01  0.43380914181E+03  0.45083104763E+03  0.12177956606E+03 0.  0.
         25    2    3    3    0    0 -0.13001844686E+02 -0.76779760819E+01  0.18394439131E+03  0.22502783176E+03  0.12873999647E+03 0.  0.
          5    1    4    4  502    0  0.53075665131E+02 -0.24209964355E+02  0.12822957594E+03  0.14095411575E+03  0.47000000000E+01 0.  1.
         -5    1    4    4    0  502 -0.40073820445E+02  0.31887940437E+02  0.30557956587E+03  0.30987693187E+03  0.47000000000E+01 0.  1.
          5    1    5    5  503    0 -0.59468076881E+02 -0.39895539011E+02  0.87884075591E+02  0.11346279982E+03  0.47000000000E+01 0. -1.
         -5    1    5    5    0  503  0.46466232195E+02  0.32217562929E+02  0.96060315719E+02  0.11156503194E+03  0.47000000000E+01 0. -1.
<mgrwt>
<rscale>  0 0.27416381E+03</rscale>
<asrwt>0</asrwt>
<pdfrwt beam="1">  1        1 0.44696425E-02 0.27416381E+03</pdfrwt>
<pdfrwt beam="2">  1       -1 0.99508637E-01 0.27416381E+03</pdfrwt>
<totfact> 0.19814052E+03</totfact>
</mgrwt>
</event>
<event>
 9    1  0.2094635E-002  0.2748751E+03  0.7818608E-02  0.1098521E+00
         -1   -1    0    0    0  501 -0.00000000000E+00  0.00000000000E+00  0.53156144075E+02  0.53156144075E+02  0.00000000000E+00 0.  1.
          1   -1    0    0  501    0  0.00000000000E+00 -0.00000000000E+00 -0.35535090938E+03  0.35535090938E+03  0.00000000000E+00 0.  1.
         36    2    1    2    0    0  0.71054273576E-14  0.00000000000E+00 -0.30219476530E+03  0.40850705345E+03  0.27487512900E+03 0.  0.
         25    2    3    3    0    0 -0.55856746518E+02  0.45372739251E+01 -0.15444405619E+03  0.20731114938E+03  0.12642936043E+03 0.  0.
         25    2    3    3    0    0  0.55856746518E+02 -0.45372739251E+01 -0.14775070912E+03  0.20119590408E+03  0.12453496211E+03 0.  0.
          5    1    4    4  502    0 -0.84168781350E+02 -0.32505783520E+02 -0.11360770450E+03  0.14515443582E+03  0.47000000000E+01 0.  1.
         -5    1    4    4    0  502  0.28312034833E+02  0.37043057445E+02 -0.40836351691E+02  0.62156713560E+02  0.47000000000E+01 0.  1.
          5    1    5    5  503    0  0.25195191458E+02  0.54930302356E+02 -0.10624579195E+03  0.12232086534E+03  0.47000000000E+01 0.  1.
         -5    1    5    5    0  503  0.30661555060E+02 -0.59467576281E+02 -0.41504917166E+02  0.78875038741E+02  0.47000000000E+01 0.  1.
<mgrwt>
<rscale>  0 0.27487513E+03</rscale>
<asrwt>0</asrwt>
<pdfrwt beam="1">  1        1 0.54669369E-01 0.27487513E+03</pdfrwt>
<pdfrwt beam="2">  1       -1 0.81778686E-02 0.27487513E+03</pdfrwt>
<totfact> 0.58383773E+03</totfact>
</mgrwt>
</event>
<event>
 9    1  0.2094635E-002  0.2757094E+03  0.7818608E-02  0.1098056E+00
          3   -1    0    0  501    0  0.00000000000E+00  0.00000000000E+00  0.52226945231E+03  0.52226945231E+03  0.00000000000E+00 0.  1.
         -3   -1    0    0    0  501 -0.00000000000E+00 -0.00000000000E+00 -0.36387202162E+02  0.36387202162E+02  0.00000000000E+00 0.  1.
         36    2    1    2    0    0 -0.71054273576E-14  0.00000000000E+00  0.48588225014E+03  0.55865665447E+03  0.27570944231E+03 0.  0.
         25    2    3    3    0    0  0.33865940185E+02 -0.43631325359E+02  0.22013634288E+03  0.26098822992E+03  0.12885748811E+03 0.  0.
         25    2    3    3    0    0 -0.33865940185E+02  0.43631325359E+02  0.26574590726E+03  0.29766842455E+03  0.12220887566E+03 0.  0.
          5    1    4    4  502    0  0.35979161356E+02 -0.65251396275E+02  0.22599063159E+03  0.23800441243E+03  0.47000000000E+01 0.  1.
         -5    1    4    4    0  502 -0.21132211713E+01  0.21620070917E+02 -0.58542887104E+01  0.22983817491E+02  0.47000000000E+01 0.  1.
          5    1    5    5  503    0  0.10706415451E+02 -0.43755677185E+01 -0.88657620032E+01  0.15312238914E+02  0.47000000000E+01 0. -1.
         -5    1    5    5    0  503 -0.44572355636E+02  0.48006893077E+02  0.27461166927E+03  0.28235618564E+03  0.47000000000E+01 0. -1.
<mgrwt>
<rscale>  0 0.27570944E+03</rscale>
<asrwt>0</asrwt>
<pdfrwt beam="1">  1        3 0.80349141E-01 0.27570944E+03</pdfrwt>
<pdfrwt beam="2">  1       -3 0.55980315E-02 0.27570944E+03</pdfrwt>
<totfact> 0.71485454E+02</totfact>
</mgrwt>
</event>
<event>
 9    1  0.2094635E-002  0.2764926E+03  0.7818608E-02  0.1097620E+00
         -2   -1    0    0    0  501 -0.00000000000E+00  0.00000000000E+00  0.16727178946E+03  0.16727178946E+03  0.00000000000E+00 0. -1.
          2   -1    0    0  501    0  0.00000000000E+00 -0.00000000000E+00 -0.11425742404E+03  0.11425742404E+03  0.00000000000E+00 0. -1.
         36    2    1    2    0    0 -0.71054273576E-14  0.35527136788E-14  0.53014365424E+02  0.28152921350E+03  0.27649263121E+03 0.  0.
         25    2    3    3    0    0 -0.19839029673E+02 -0.26140653711E+02  0.66773234688E+01  0.12943700955E+03  0.12502972414E+03 0.  0.
         25    2    3    3    0    0  0.19839029673E+02  0.26140653711E+02  0.46337041956E+02  0.15209220395E+03  0.14109569862E+03 0.  0.
          5    1    4    4  502    0  0.42350335314E+02  0.15904578149E+02  0.25169063557E+02  0.51981518520E+02  0.47000000000E+01 0.  1.
         -5    1    4    4    0  502 -0.62189364987E+02 -0.42045231861E+02 -0.18491740088E+02  0.77455491033E+02  0.47000000000E+01 0.  1.
          5    1    5    5  503    0 -0.24842927834E+02  0.67885298712E+02 -0.42887169284E+01  0.72567678324E+02  0.47000000000E+01 0.  1.
         -5    1    5    5    0  503  0.44681957507E+02 -0.41744645000E+02  0.50625758884E+02  0.79524525622E+02  0.47000000000E+01 0.  1.
<mgrwt>
<rscale>  0 0.27649263E+03</rscale>
<asrwt>0</asrwt>
<pdfrwt beam="1">  1        2 0.17578065E-01 0.27649263E+03</pdfrwt>
<pdfrwt beam="2">  1       -2 0.25734121E-01 0.27649263E+03</pdfrwt>
<totfact> 0.43326814E+03</totfact>
</mgrwt>
</event>
<event>
 9    1  0.2094635E-002  0.2752386E+03  0.7818608E-02  0.1098318E+00
         -3   -1    0    0    0  501 -0.00000000000E+00  0.00000000000E+00  0.37110949102E+03  0.37110949102E+03  0.00000000000E+00 0. -1.
          3   -1    0    0  501    0  0.00000000000E+00 -0.00000000000E+00 -0.51033663961E+02  0.51033663961E+02  0.00000000000E+00 0. -1.
         36    2    1    2    0    0  0.00000000000E+00  0.00000000000E+00  0.32007582706E+03  0.42214315498E+03  0.27523863869E+03 0.  0.
         25    2    3    3    0    0 -0.45125345251E+02 -0.38195538202E+02  0.16346778064E+03  0.21318294057E+03  0.12341010866E+03 0.  0.
         25    2    3    3    0    0  0.45125345251E+02  0.38195538202E+02  0.15660804642E+03  0.20896021441E+03  0.12507235938E+03 0.  0.
          5    1    4    4  502    0 -0.56561579716E+02  0.29560574114E+02  0.10438179957E+03  0.12243647301E+03  0.47000000000E+01 0. -1.
         -5    1    4    4    0  502  0.11436234465E+02 -0.67756112316E+02  0.59085981070E+02  0.90746467557E+02  0.47000000000E+01 0. -1.
          5    1    5    5  503    0  0.57608091936E+02 -0.82301622714E+01  0.14904023719E+03  0.16006720504E+03  0.47000000000E+01 0. -1.
         -5    1    5    5    0  503 -0.12482746685E+02  0.46425700473E+02  0.75678092299E+01  0.48893009375E+02  0.47000000000E+01 0. -1.
<mgrwt>
<rscale>  0 0.27523864E+03</rscale>
<asrwt>0</asrwt>
<pdfrwt beam="1">  1        3 0.78513332E-02 0.27523864E+03</pdfrwt>
<pdfrwt beam="2">  1       -3 0.57093766E-01 0.27523864E+03</pdfrwt>
<totfact> 0.85283208E+02</totfact>
</mgrwt>
</event>
<event>
 9    1  0.2094635E-002  0.2750251E+03  0.7818608E-02  0.1098438E+00
         -2   -1    0    0    0  501 -0.00000000000E+00  0.00000000000E+00  0.10874510642E+02  0.10874510642E+02  0.00000000000E+00 0.  1.
          2   -1    0    0  501    0  0.00000000000E+00 -0.00000000000E+00 -0.17389013883E+04  0.17389013883E+04  0.00000000000E+00 0.  1.
         36    2    1    2    0    0  0.00000000000E+00  0.00000000000E+00 -0.17280268776E+04  0.17497758989E+04  0.27502510178E+03 0.  0.
         25    2    3    3    0    0  0.58257954760E+01  0.24966169009E+02 -0.11525666157E+04  0.11594335266E+04  0.12336551119E+03 0.  0.
         25    2    3    3    0    0 -0.58257954760E+01 -0.24966169009E+02 -0.57546026190E+03  0.59034237234E+03  0.12919889346E+03 0.  0.
          5    1    4    4  502    0  0.29625567879E+02  0.28023752954E+02 -0.12483493643E+03  0.13141102068E+03  0.47000000000E+01 0.  1.
         -5    1    4    4    0  502 -0.23799772403E+02 -0.30575839446E+01 -0.10277316793E+04  0.10280225059E+04  0.47000000000E+01 0.  1.
          5    1    5    5  503    0 -0.44280894752E+02  0.35454318652E+02 -0.31850872854E+03  0.32355479676E+03  0.47000000000E+01 0.  1.
         -5    1    5    5    0  503  0.38455099276E+02 -0.60420487661E+02 -0.25695153336E+03  0.26678757558E+03  0.47000000000E+01 0.  1.
<mgrwt>
<rscale>  0 0.27502510E+03</rscale>
<asrwt>0</asrwt>
<pdfrwt beam="1">  1        2 0.26752325E+00 0.27502510E+03</pdfrwt>
<pdfrwt beam="2">  1       -2 0.16730019E-02 0.27502510E+03</pdfrwt>
<totfact> 0.10244819E+04</totfact>
</mgrwt>
</event>
<event>
 9    1  0.2094635E-002  0.2740977E+03  0.7818608E-02  0.1098957E+00
         -2   -1    0    0    0  501 -0.00000000000E+00  0.00000000000E+00  0.31918451667E+02  0.31918451667E+02  0.00000000000E+00 0. -1.
          2   -1    0    0  501    0  0.00000000000E+00 -0.00000000000E+00 -0.58844924304E+03  0.58844924304E+03  0.00000000000E+00 0. -1.
         36    2    1    2    0    0  0.14210854715E-13 -0.71054273576E-14 -0.55653079137E+03  0.62036769470E+03  0.27409771048E+03 0.  0.
         25    2    3    3    0    0 -0.55535199301E+02 -0.15019155573E+02 -0.26879224340E+03  0.30259761286E+03  0.12651605353E+03 0.  0.
         25    2    3    3    0    0  0.55535199301E+02  0.15019155573E+02 -0.28773854797E+03  0.31777008184E+03  0.12196154940E+03 0.  0.
          5    1    4    4  502    0 -0.63428114051E+02  0.29920609372E+02 -0.23591390559E+03  0.24616220134E+03  0.47000000000E+01 0.  1.
         -5    1    4    4    0  502  0.78929147495E+01 -0.44939764945E+02 -0.32878337815E+02  0.56435411525E+02  0.47000000000E+01 0.  1.
          5    1    5    5  503    0  0.57676515560E+02  0.62876465638E+02 -0.20414721464E+03  0.22131020226E+03  0.47000000000E+01 0. -1.
         -5    1    5    5    0  503 -0.21413162585E+01 -0.47857310065E+02 -0.83591333323E+02  0.96459879581E+02  0.47000000000E+01 0. -1.
<mgrwt>
<rscale>  0 0.27409771E+03</rscale>
<asrwt>0</asrwt>
<pdfrwt beam="1">  1        2 0.90530652E-01 0.27409771E+03</pdfrwt>
<pdfrwt beam="2">  1       -2 0.49105311E-02 0.27409771E+03</pdfrwt>
<totfact> 0.10337335E+04</totfact>
</mgrwt>
</event>
<event>
 9    1  0.2094635E-002  0.2768254E+03  0.7818608E-02  0.1097436E+00
         -2   -1    0    0    0  501 -0.00000000000E+00  0.00000000000E+00  0.53443152760E+03  0.53443152760E+03  0.00000000000E+00 0. -1.
          2   -1    0    0  501    0  0.00000000000E+00 -0.00000000000E+00 -0.35847568243E+02  0.35847568243E+02  0.00000000000E+00 0. -1.
         36    2    1    2    0    0  0.00000000000E+00 -0.14210854715E-13  0.49858395936E+03  0.57027909585E+03  0.27682536486E+03 0.  0.
         25    2    3    3    0    0 -0.42690684977E+02  0.41560520630E+02  0.27547288815E+03  0.30734933965E+03  0.12259091735E+03 0.  0.
         25    2    3    3    0    0  0.42690684977E+02 -0.41560520630E+02  0.22311107121E+03  0.26292975620E+03  0.12571290761E+03 0.  0.
          5    1    4    4  502    0 -0.18905169029E+02 -0.21572501444E+02  0.62088399748E+01  0.29722347290E+02  0.47000000000E+01 0. -1.
         -5    1    4    4    0  502 -0.23785515948E+02  0.63133022074E+02  0.26926404818E+03  0.27762699236E+03  0.47000000000E+01 0. -1.
          5    1    5    5  503    0  0.79759383091E+02 -0.13535952377E+02  0.86381087654E+02  0.11844223699E+03  0.47000000000E+01 0.  1.
         -5    1    5    5    0  503 -0.37068698114E+02 -0.28024568253E+02  0.13672998355E+03  0.14448751921E+03  0.47000000000E+01 0.  1.
<mgrwt>
<rscale>  0 0.27682536E+03</rscale>
<asrwt>0</asrwt>
<pdfrwt beam="1">  1        2 0.55150109E-02 0.27682536E+03</pdfrwt>
<pdfrwt beam="2">  1       -2 0.82220229E-01 0.27682536E+03</pdfrwt>
<totfact> 0.18474999E+03</totfact>
</mgrwt>
</event>
<event>
 9    1  0.2094635E-002  0.2781429E+03  0.7818608E-02  0.1096708E+00
          2   -1    0    0  501    0  0.00000000000E+00  0.00000000000E+00  0.57215588647E+03  0.57215588647E+03  0.00000000000E+00 0.  1.
         -2   -1    0    0    0  501 -0.00000000000E+00 -0.00000000000E+00 -0.33803494669E+02  0.33803494669E+02  0.00000000000E+00 0.  1.
         36    2    1    2    0    0  0.00000000000E+00  0.00000000000E+00  0.53835239180E+03  0.60595938114E+03  0.27814290182E+03 0.  0.
         25    2    3    3    0    0 -0.68751581423E+02 -0.39867593672E+02  0.24590271434E+03  0.27780903176E+03  0.10194855680E+03 0.  0.
         25    2    3    3    0    0  0.68751581423E+02  0.39867593672E+02  0.29244967746E+03  0.32815034938E+03  0.12585560368E+03 0.  0.
          5    1    4    4  502    0  0.25100471203E+02 -0.14440060136E+02  0.36069025865E+02  0.46493156681E+02  0.47000000000E+01 0.  1.
         -5    1    4    4    0  502 -0.93852052626E+02 -0.25427533536E+02  0.20983368848E+03  0.23131587508E+03  0.47000000000E+01 0.  1.
          5    1    5    5  503    0  0.64112579215E+02  0.32757776757E+02  0.30435584589E+03  0.31279076981E+03  0.47000000000E+01 0.  1.
         -5    1    5    5    0  503  0.46390022081E+01  0.71098169151E+01 -0.11906168426E+02  0.15359579572E+02  0.47000000000E+01 0.  1.
<mgrwt>
<rscale>  0 0.27814290E+03</rscale>
<asrwt>0</asrwt>
<pdfrwt beam="1">  1        2 0.88023975E-01 0.27814290E+03</pdfrwt>
<pdfrwt beam="2">  1       -2 0.52005381E-02 0.27814290E+03</pdfrwt>
<totfact> 0.97905800E+03</totfact>
</mgrwt>
</event>
<event>
 9    1  0.2094635E-002  0.2748173E+03  0.7818608E-02  0.1098554E+00
          2   -1    0    0  501    0  0.00000000000E+00  0.00000000000E+00  0.85485936283E+03  0.85485936283E+03  0.00000000000E+00 0.  1.
         -2   -1    0    0    0  501 -0.00000000000E+00 -0.00000000000E+00 -0.22086827962E+02  0.22086827962E+02  0.00000000000E+00 0.  1.
         36    2    1    2    0    0 -0.71054273576E-14  0.00000000000E+00  0.83277253487E+03  0.87694619079E+03  0.27481726058E+03 0.  0.
         25    2    3    3    0    0  0.27043210168E+02  0.11422980058E+02  0.46470952176E+03  0.48509754710E+03  0.13602525832E+03 0.  0.
         25    2    3    3    0    0 -0.27043210168E+02 -0.11422980058E+02  0.36806301311E+03  0.39184864369E+03  0.13119892626E+03 0.  0.
          5    1    4    4  502    0 -0.21928908264E+02 -0.53290545541E+02  0.19950928558E+03  0.20771808851E+03  0.47000000000E+01 0.  1.
         -5    1    4    4    0  502  0.48972118433E+02  0.64713525599E+02  0.26520023619E+03  0.27737945860E+03  0.47000000000E+01 0.  1.
          5    1    5    5  503    0 -0.44669844314E+02  0.39031368863E+02  0.29647426335E+03  0.30238703937E+03  0.47000000000E+01 0.  1.
         -5    1    5    5    0  503  0.17626634146E+02 -0.50454348920E+02  0.71588749753E+02  0.89461604320E+02  0.47000000000E+01 0.  1.
<mgrwt>
<rscale>  0 0.27481726E+03</rscale>
<asrwt>0</asrwt>
<pdfrwt beam="1">  1        2 0.13151680E+00 0.27481726E+03</pdfrwt>
<pdfrwt beam="2">  1       -2 0.33979742E-02 0.27481726E+03</pdfrwt>
<totfact> 0.11399233E+04</totfact>
</mgrwt>
</event>
<event>
 9    1  0.2094635E-002  0.2708417E+03  0.7818608E-02  0.1100799E+00
          2   -1    0    0  501    0  0.00000000000E+00  0.00000000000E+00  0.23829308548E+04  0.23829308548E+04  0.00000000000E+00 0. -1.
         -2   -1    0    0    0  501 -0.00000000000E+00 -0.00000000000E+00 -0.76959020985E+01  0.76959020985E+01  0.00000000000E+00 0. -1.
         36    2    1    2    0    0 -0.35527136788E-14  0.00000000000E+00  0.23752349527E+04  0.23906267569E+04  0.27084167010E+03 0.  0.
         25    2    3    3    0    0  0.19180099038E+02  0.17284620125E+02  0.15048042945E+04  0.15103844456E+04  0.12711638174E+03 0.  0.
         25    2    3    3    0    0 -0.19180099038E+02 -0.17284620125E+02  0.87043065816E+03  0.88024231125E+03  0.12849265174E+03 0.  0.
          5    1    4    4  502    0  0.30677458990E+02  0.49715886576E+01  0.14782729673E+04  0.14786070739E+04  0.47000000000E+01 0. -1.
         -5    1    4    4    0  502 -0.11497359952E+02  0.12313031468E+02  0.26531327287E+02  0.31777371782E+02  0.47000000000E+01 0. -1.
          5    1    5    5  503    0 -0.14783716491E+02 -0.55630896989E+02  0.18720399436E+03  0.19591013368E+03  0.47000000000E+01 0. -1.
         -5    1    5    5    0  503 -0.43963825470E+01  0.38346276864E+02  0.68322666380E+03  0.68433217757E+03  0.47000000000E+01 0. -1.
<mgrwt>
<rscale>  0 0.27084167E+03</rscale>
<asrwt>0</asrwt>
<pdfrwt beam="1">  1        2 0.36660416E+00 0.27084167E+03</pdfrwt>
<pdfrwt beam="2">  1       -2 0.11839868E-02 0.27084167E+03</pdfrwt>
<totfact> 0.77438180E+03</totfact>
</mgrwt>
</event>
<event>
 9    1  0.2094635E-002  0.2752189E+03  0.7818608E-02  0.1098329E+00
         -1   -1    0    0    0  501 -0.00000000000E+00  0.00000000000E+00  0.11958383157E+02  0.11958383157E+02  0.00000000000E+00 0.  1.
          1   -1    0    0  501    0  0.00000000000E+00 -0.00000000000E+00 -0.15835218800E+04  0.15835218800E+04  0.00000000000E+00 0.  1.
         36    2    1    2    0    0  0.35527136788E-14  0.00000000000E+00 -0.15715634969E+04  0.15954802632E+04  0.27521890473E+03 0.  0.
         25    2    3    3    0    0  0.19917614273E+02 -0.20230008930E+02 -0.51861335314E+03  0.53455298371E+03  0.12641644560E+03 0.  0.
         25    2    3    3    0    0 -0.19917614273E+02  0.20230008930E+02 -0.10529501437E+04  0.10609272795E+04  0.12671512355E+03 0.  0.
          5    1    4    4  502    0 -0.16330963304E+02  0.18850537734E+02 -0.18064834298E+02  0.31152389531E+02  0.47000000000E+01 0. -1.
         -5    1    4    4    0  502  0.36248577576E+02 -0.39080546664E+02 -0.50054851884E+03  0.50340059418E+03  0.47000000000E+01 0. -1.
          5    1    5    5  503    0 -0.54756989218E+02 -0.33643963209E+02 -0.59544912919E+03  0.59892570456E+03  0.47000000000E+01 0. -1.
         -5    1    5    5    0  503  0.34839374945E+02  0.53873972139E+02 -0.45750101453E+03  0.46200157491E+03  0.47000000000E+01 0. -1.
<mgrwt>
<rscale>  0 0.27521890E+03</rscale>
<asrwt>0</asrwt>
<pdfrwt beam="1">  1        1 0.24361858E+00 0.27521890E+03</pdfrwt>
<pdfrwt beam="2">  1       -1 0.18397525E-02 0.27521890E+03</pdfrwt>
<totfact> 0.48833304E+03</totfact>
</mgrwt>
</event>
<event>
 9    1  0.2094635E-002  0.2768367E+03  0.7818608E-02  0.1097429E+00
         -1   -1    0    0    0  501 -0.00000000000E+00  0.00000000000E+00  0.40561709505E+02  0.40561709505E+02  0.00000000000E+00 0. -1.
          1   -1    0    0  501    0  0.00000000000E+00 -0.00000000000E+00 -0.47235784895E+03  0.47235784895E+03  0.00000000000E+00 0. -1.
         36    2    1    2    0    0  0.00000000000E+00  0.00000000000E+00 -0.43179613945E+03  0.51291955846E+03  0.27683671615E+03 0.  0.
         25    2    3    3    0    0 -0.25504024629E+02  0.39460043768E+02 -0.29432324703E+03  0.32285967850E+03  0.12411546209E+03 0.  0.
         25    2    3    3    0    0  0.25504024629E+02 -0.39460043768E+02 -0.13747289242E+03  0.19005987996E+03  0.12254146847E+03 0.  0.
          5    1    4    4  502    0 -0.55646766020E+02 -0.11960890921E+02 -0.22094461541E+03  0.22820656993E+03  0.47000000000E+01 0.  1.
         -5    1    4    4    0  502  0.30142741391E+02  0.51420934689E+02 -0.73378631618E+02  0.94653108565E+02  0.47000000000E+01 0.  1.
          5    1    5    5  503    0 -0.15617753334E+02  0.30234575485E+02 -0.89507079245E+02  0.95873098463E+02  0.47000000000E+01 0. -1.
         -5    1    5    5    0  503  0.41121777964E+02 -0.69694619253E+02 -0.47965813172E+02  0.94186781498E+02  0.47000000000E+01 0. -1.
<mgrwt>
<rscale>  0 0.27683672E+03</rscale>
<asrwt>0</asrwt>
<pdfrwt beam="1">  1        1 0.72670444E-01 0.27683672E+03</pdfrwt>
<pdfrwt beam="2">  1       -1 0.62402625E-02 0.27683672E+03</pdfrwt>
<totfact> 0.61037407E+03</totfact>
</mgrwt>
</event>
<event>
 9    1  0.2094635E-002  0.2783703E+03  0.7818608E-02  0.1096582E+00
          1   -1    0    0  501    0  0.00000000000E+00  0.00000000000E+00  0.17270350136E+03  0.17270350136E+03  0.00000000000E+00 0. -1.
         -1   -1    0    0    0  501 -0.00000000000E+00 -0.00000000000E+00 -0.11217204170E+03  0.11217204170E+03  0.00000000000E+00 0. -1.
         36    2    1    2    0    0  0.00000000000E+00  0.00000000000E+00  0.60531459662E+02  0.28487554306E+03  0.27837028833E+03 0.  0.
         25    2    3    3    0    0  0.13042952707E+02  0.55012563039E+02  0.33433514709E+01  0.13625078134E+03  0.12392173622E+03 0.  0.
         25    2    3    3    0    0 -0.13042952707E+02 -0.55012563039E+02  0.57188108191E+02  0.14862476172E+03  0.12498935703E+03 0.  0.
          5    1    4    4  502    0  0.10361262321E+02  0.92089493582E+02  0.20520181997E+02  0.95031565567E+02  0.47000000000E+01 0. -1.
         -5    1    4    4    0  502  0.26816903856E+01 -0.37076930543E+02 -0.17176830526E+02  0.41219215770E+02  0.47000000000E+01 0. -1.
          5    1    5    5  503    0 -0.10016411044E+02 -0.77644459944E+02 -0.85329306027E+01  0.78891644392E+02  0.47000000000E+01 0.  1.
         -5    1    5    5    0  503 -0.30265416626E+01  0.22631896905E+02  0.65721038794E+02  0.69733117327E+02  0.47000000000E+01 0.  1.
<mgrwt>
<rscale>  0 0.27837029E+03</rscale>
<asrwt>0</asrwt>
<pdfrwt beam="1">  1        1 0.26569769E-01 0.27837029E+03</pdfrwt>
<pdfrwt beam="2">  1       -1 0.17257237E-01 0.27837029E+03</pdfrwt>
<totfact> 0.45102570E+03</totfact>
</mgrwt>
</event>
<event>
 9    1  0.2094635E-002  0.2736802E+03  0.7818608E-02  0.1099192E+00
          1   -1    0    0  501    0  0.00000000000E+00  0.00000000000E+00  0.83016601717E+03  0.83016601717E+03  0.00000000000E+00 0.  1.
         -1   -1    0    0    0  501 -0.00000000000E+00 -0.00000000000E+00 -0.22555986646E+02  0.22555986646E+02  0.00000000000E+00 0.  1.
         36    2    1    2    0    0  0.53290705182E-14 -0.35527136788E-14  0.80761003053E+03  0.85272200382E+03  0.27368020460E+03 0.  0.
         25    2    3    3    0    0 -0.68329300394E+01  0.17620196488E+02  0.25038030015E+03  0.28098622604E+03  0.12611821543E+03 0.  0.
         25    2    3    3    0    0  0.68329300394E+01 -0.17620196488E+02  0.55722973038E+03  0.57173577778E+03  0.12656882285E+03 0.  0.
          5    1    4    4  502    0  0.48070144119E+02  0.60678629885E+01  0.39409269219E+02  0.62631766837E+02  0.47000000000E+01 0.  1.
         -5    1    4    4    0  502 -0.54903074158E+02  0.11552333499E+02  0.21097103093E+03  0.21835445920E+03  0.47000000000E+01 0.  1.
          5    1    5    5  503    0 -0.57740275428E+01  0.26449527578E+02  0.23894102603E+02  0.36413390976E+02  0.47000000000E+01 0.  1.
         -5    1    5    5    0  503  0.12606957582E+02 -0.44069724066E+02  0.53333562778E+03  0.53532238681E+03  0.47000000000E+01 0.  1.
<mgrwt>
<rscale>  0 0.27368020E+03</rscale>
<asrwt>0</asrwt>
<pdfrwt beam="1">  1        1 0.12771783E+00 0.27368020E+03</pdfrwt>
<pdfrwt beam="2">  1       -1 0.34701524E-02 0.27368020E+03</pdfrwt>
<totfact> 0.65964676E+03</totfact>
</mgrwt>
</event>
<event>
 9    1  0.2094635E-002  0.2760787E+03  0.7818608E-02  0.1097850E+00
         -2   -1    0    0    0  501 -0.00000000000E+00  0.00000000000E+00  0.28499071701E+03  0.28499071701E+03  0.00000000000E+00 0. -1.
          2   -1    0    0  501    0  0.00000000000E+00 -0.00000000000E+00 -0.66861342386E+02  0.66861342386E+02  0.00000000000E+00 0. -1.
         36    2    1    2    0    0  0.00000000000E+00  0.14210854715E-13  0.21812937462E+03  0.35185205940E+03  0.27607869825E+03 0.  0.
         25    2    3    3    0    0  0.92991262130E+01 -0.51281536719E+02  0.10755559984E+03  0.17423738329E+03  0.12678402471E+03 0.  0.
         25    2    3    3    0    0 -0.92991262130E+01  0.51281536719E+02  0.11057377478E+03  0.17761467611E+03  0.12885706710E+03 0.  0.
          5    1    4    4  502    0  0.62781211805E+02 -0.38760636353E+00  0.45492893087E+02  0.77674475317E+02  0.47000000000E+01 0.  1.
         -5    1    4    4    0  502 -0.53482085592E+02 -0.50893930356E+02  0.62062706753E+02  0.96562907971E+02  0.47000000000E+01 0.  1.
          5    1    5    5  503    0 -0.30415511266E+02 -0.31670900970E+02  0.70011460971E+02  0.82775865813E+02  0.47000000000E+01 0.  1.
         -5    1    5    5    0  503  0.21116385053E+02  0.82952437689E+02  0.40562313813E+02  0.94838810295E+02  0.47000000000E+01 0.  1.
<mgrwt>
<rscale>  0 0.27607870E+03</rscale>
<asrwt>0</asrwt>
<pdfrwt beam="1">  1        2 0.10286361E-01 0.27607870E+03</pdfrwt>
<pdfrwt beam="2">  1       -2 0.43844725E-01 0.27607870E+03</pdfrwt>
<totfact> 0.30714586E+03</totfact>
</mgrwt>
</event>
<event>
 9    1  0.2094635E-002  0.2828474E+03  0.7818608E-02  0.1094144E+00
         -3   -1    0    0    0  501 -0.00000000000E+00  0.00000000000E+00  0.36439218431E+03  0.36439218431E+03  0.00000000000E+00 0. -1.
          3   -1    0    0  501    0  0.00000000000E+00 -0.00000000000E+00 -0.54887743816E+02  0.54887743816E+02  0.00000000000E+00 0. -1.
         36    2    1    2    0    0  0.00000000000E+00  0.00000000000E+00  0.30950444050E+03  0.41927992813E+03  0.28284741371E+03 0.  0.
         25    2    3    3    0    0  0.37934844807E+02 -0.41991494974E+02  0.10792026800E+03  0.17539772297E+03  0.12615561374E+03 0.  0.
         25    2    3    3    0    0 -0.37934844807E+02  0.41991494974E+02  0.20158417250E+03  0.24388220516E+03  0.12506003874E+03 0.  0.
          5    1    4    4  502    0  0.37188759264E+02 -0.79717548792E+02  0.38271985494E+02  0.96045438594E+02  0.47000000000E+01 0. -1.
         -5    1    4    4    0  502  0.74608554270E+00  0.37726053818E+02  0.69648282503E+02  0.79352284377E+02  0.47000000000E+01 0. -1.
          5    1    5    5  503    0  0.44743849181E+02  0.25621162371E+01  0.76282588416E+02  0.88598531447E+02  0.47000000000E+01 0.  1.
         -5    1    5    5    0  503 -0.82678693988E+02  0.39429378737E+02  0.12530158408E+03  0.15528367371E+03  0.47000000000E+01 0.  1.
<mgrwt>
<rscale>  0 0.28284741E+03</rscale>
<asrwt>0</asrwt>
<pdfrwt beam="1">  1        3 0.84442685E-02 0.28284741E+03</pdfrwt>
<pdfrwt beam="2">  1       -3 0.56060335E-01 0.28284741E+03</pdfrwt>
<totfact> 0.78777950E+02</totfact>
</mgrwt>
</event>
<event>
 9    1  0.2094635E-002  0.2757356E+03  0.7818608E-02  0.1098041E+00
          1   -1    0    0  501    0  0.00000000000E+00  0.00000000000E+00  0.18153260637E+03  0.18153260637E+03  0.00000000000E+00 0. -1.
         -1   -1    0    0    0  501 -0.00000000000E+00 -0.00000000000E+00 -0.10470590054E+03  0.10470590054E+03  0.00000000000E+00 0. -1.
         36    2    1    2    0    0  0.00000000000E+00  0.00000000000E+00  0.76826705835E+02  0.28623850691E+03  0.27573563446E+03 0.  0.
         25    2    3    3    0    0  0.11724956784E+02  0.33581607757E+02  0.26599551418E+02  0.13770307226E+03  0.13034339640E+03 0.  0.
         25    2    3    3    0    0 -0.11724956784E+02 -0.33581607757E+02  0.50227154417E+02  0.14853543465E+03  0.13518435307E+03 0.  0.
          5    1    4    4  502    0  0.70391522333E+02  0.27014631238E+02  0.10013300459E+02  0.76204415248E+02  0.47000000000E+01 0. -1.
         -5    1    4    4    0  502 -0.58666565548E+02  0.65669765189E+01  0.16586250959E+02  0.61498657016E+02  0.47000000000E+01 0. -1.
          5    1    5    5  503    0  0.24060519796E+02 -0.62020394722E+02  0.71608865744E+02  0.97853756328E+02  0.47000000000E+01 0. -1.
         -5    1    5    5    0  503 -0.35785476580E+02  0.28438786966E+02 -0.21381711327E+02  0.50681678321E+02  0.47000000000E+01 0. -1.
<mgrwt>
<rscale>  0 0.27573563E+03</rscale>
<asrwt>0</asrwt>
<pdfrwt beam="1">  1        1 0.27928093E-01 0.27573563E+03</pdfrwt>
<pdfrwt beam="2">  1       -1 0.16108600E-01 0.27573563E+03</pdfrwt>
<totfact> 0.47259864E+03</totfact>
</mgrwt>
</event>
<event>
 9    1  0.2094635E-002  0.2769552E+03  0.7818608E-02  0.1097364E+00
          4   -1    0    0  501    0  0.00000000000E+00  0.00000000000E+00  0.51714972376E+02  0.51714972376E+02  0.00000000000E+00 0. -1.
         -4   -1    0    0    0  501 -0.00000000000E+00 -0.00000000000E+00 -0.37080269321E+03  0.37080269321E+03  0.00000000000E+00 0. -1.
         36    2    1    2    0    0 -0.26645352591E-14  0.00000000000E+00 -0.31908772083E+03  0.42251766559E+03  0.27695523852E+03 0.  0.
         25    2    3    3    0    0  0.21040759482E+01 -0.27262282055E+02 -0.83649210068E+02  0.15412791197E+03  0.12653285638E+03 0.  0.
         25    2    3    3    0    0 -0.21040759482E+01  0.27262282055E+02 -0.23543851077E+03  0.26838975362E+03  0.12591309836E+03 0.  0.
          5    1    4    4  502    0  0.39135421877E+01  0.40728507259E+02  0.58720018613E+01  0.41601652874E+02  0.47000000000E+01 0. -1.
         -5    1    4    4    0  502 -0.18094662394E+01 -0.67990789314E+02 -0.89521211929E+02  0.11252625909E+03  0.47000000000E+01 0. -1.
          5    1    5    5  503    0  0.29513266798E+02 -0.17933754193E+02 -0.19919957867E+03  0.20222565267E+03  0.47000000000E+01 0.  1.
         -5    1    5    5    0  503 -0.31617342746E+02  0.45196036248E+02 -0.36238932097E+02  0.66164100949E+02  0.47000000000E+01 0.  1.
<mgrwt>
<rscale>  0 0.27695524E+03</rscale>
<asrwt>0</asrwt>
<pdfrwt beam="1">  1        4 0.79561495E-02 0.27695524E+03</pdfrwt>
<pdfrwt beam="2">  1       -4 0.57046569E-01 0.27695524E+03</pdfrwt>
<totfact> 0.61679164E+02</totfact>
</mgrwt>
</event>
<event>
 9    1  0.2094635E-002  0.2752029E+03  0.7818608E-02  0.1098338E+00
          2   -1    0    0  501    0  0.00000000000E+00  0.00000000000E+00  0.16439191290E+04  0.16439191290E+04  0.00000000000E+00 0.  1.
         -2   -1    0    0    0  501 -0.00000000000E+00 -0.00000000000E+00 -0.11517693746E+02  0.11517693746E+02  0.00000000000E+00 0.  1.
         36    2    1    2    0    0  0.71054273576E-14 -0.71054273576E-14  0.16324014352E+04  0.16554368227E+04  0.27520288567E+03 0.  0.
         25    2    3    3    0    0  0.21627289311E+02 -0.38277050753E+02  0.59799428682E+03  0.61266460403E+03  0.12580889359E+03 0.  0.
         25    2    3    3    0    0 -0.21627289311E+02  0.38277050753E+02  0.10344071484E+04  0.10427722187E+04  0.12426938131E+03 0.  0.
          5    1    4    4  502    0 -0.50745162986E+02 -0.36843318479E+01  0.28349912148E+03  0.28806681126E+03  0.47000000000E+01 0. -1.
         -5    1    4    4    0  502  0.72372452297E+02 -0.34592718905E+02  0.31449516534E+03  0.32459779277E+03  0.47000000000E+01 0. -1.
          5    1    5    5  503    0 -0.50206174152E+02 -0.47214589369E+01  0.18568269654E+03  0.19246585643E+03  0.47000000000E+01 0.  1.
         -5    1    5    5    0  503  0.28578884842E+02  0.42998509690E+02  0.84872445188E+03  0.85030636227E+03  0.47000000000E+01 0.  1.
<mgrwt>
<rscale>  0 0.27520289E+03</rscale>
<asrwt>0</asrwt>
<pdfrwt beam="1">  1        2 0.25291045E+00 0.27520289E+03</pdfrwt>
<pdfrwt beam="2">  1       -2 0.17719542E-02 0.27520289E+03</pdfrwt>
<totfact> 0.10567188E+04</totfact>
</mgrwt>
</event>
<event>
 9    1  0.2094635E-002  0.2749818E+03  0.7818608E-02  0.1098462E+00
          2   -1    0    0  501    0  0.00000000000E+00  0.00000000000E+00  0.85534231875E+03  0.85534231875E+03  0.00000000000E+00 0. -1.
         -2   -1    0    0    0  501 -0.00000000000E+00 -0.00000000000E+00 -0.22100805759E+02  0.22100805759E+02  0.00000000000E+00 0. -1.
         36    2    1    2    0    0  0.00000000000E+00  0.00000000000E+00  0.83324151299E+03  0.87744312451E+03  0.27498184991E+03 0.  0.
         25    2    3    3    0    0 -0.38384301082E+02  0.35845188836E+02  0.37407519676E+03  0.39797229023E+03  0.12526555324E+03 0.  0.
         25    2    3    3    0    0  0.38384301082E+02 -0.35845188836E+02  0.45916631623E+03  0.47947083428E+03  0.12767279597E+03 0.  0.
          5    1    4    4  502    0  0.42443279497E+02  0.26286656073E+02  0.19268603558E+03  0.19910403956E+03  0.47000000000E+01 0. -1.
         -5    1    4    4    0  502 -0.80827580579E+02  0.95585327632E+01  0.18138916118E+03  0.19886825067E+03  0.47000000000E+01 0. -1.
          5    1    5    5  503    0  0.51778216262E+02 -0.44538611465E+02  0.45766622195E+03  0.46275817908E+03  0.47000000000E+01 0. -1.
         -5    1    5    5    0  503 -0.13393915180E+02  0.86934226292E+01  0.15000942770E+01  0.16712655196E+02  0.47000000000E+01 0. -1.
<mgrwt>
<rscale>  0 0.27498185E+03</rscale>
<asrwt>0</asrwt>
<pdfrwt beam="1">  1        2 0.13159110E+00 0.27498185E+03</pdfrwt>
<pdfrwt beam="2">  1       -2 0.34001246E-02 0.27498185E+03</pdfrwt>
<totfact> 0.11380279E+04</totfact>
</mgrwt>
</event>
<event>
 9    1  0.2094635E-002  0.2750289E+03  0.7818608E-02  0.1098435E+00
          1   -1    0    0  501    0  0.00000000000E+00  0.00000000000E+00  0.26104726772E+03  0.26104726772E+03  0.00000000000E+00 0.  1.
         -1   -1    0    0    0  501 -0.00000000000E+00 -0.00000000000E+00 -0.72439867497E+02  0.72439867497E+02  0.00000000000E+00 0.  1.
         36    2    1    2    0    0  0.00000000000E+00 -0.71054273576E-14  0.18860740022E+03  0.33348713521E+03  0.27502894018E+03 0.  0.
         25    2    3    3    0    0 -0.11000343888E+02  0.35230656457E+02  0.14671628426E+03  0.19583996575E+03  0.12436003136E+03 0.  0.
         25    2    3    3    0    0  0.11000343888E+02 -0.35230656457E+02  0.41891115965E+02  0.13764716946E+03  0.12581602022E+03 0.  0.
          5    1    4    4  502    0 -0.24336376985E+02 -0.42811676166E+02  0.68050349430E+02  0.84131081762E+02  0.47000000000E+01 0. -1.
         -5    1    4    4    0  502  0.13336033097E+02  0.78042332623E+02  0.78665934826E+02  0.11170888399E+03  0.47000000000E+01 0. -1.
          5    1    5    5  503    0  0.10254458226E+02 -0.74096760657E+02 -0.66923494853E+01  0.75248663742E+02  0.47000000000E+01 0. -1.
         -5    1    5    5    0  503  0.74588566232E+00  0.38866104200E+02  0.48583465450E+02  0.62398505721E+02  0.47000000000E+01 0. -1.
<mgrwt>
<rscale>  0 0.27502894E+03</rscale>
<asrwt>0</asrwt>
<pdfrwt beam="1">  1        1 0.40161118E-01 0.27502894E+03</pdfrwt>
<pdfrwt beam="2">  1       -1 0.11144595E-01 0.27502894E+03</pdfrwt>
<totfact> 0.53427505E+03</totfact>
</mgrwt>
</event>
<event>
 9    1  0.2094635E-002  0.2754276E+03  0.7818608E-02  0.1098213E+00
         -2   -1    0    0    0  501 -0.00000000000E+00  0.00000000000E+00  0.22491190644E+03  0.22491190644E+03  0.00000000000E+00 0. -1.
          2   -1    0    0  501    0  0.00000000000E+00 -0.00000000000E+00 -0.84322304598E+02  0.84322304598E+02  0.00000000000E+00 0. -1.
         36    2    1    2    0    0 -0.71054273576E-14 -0.71054273576E-14  0.14058960184E+03  0.30923421104E+03  0.27542759689E+03 0.  0.
         25    2    3    3    0    0  0.51247536675E+02  0.19085917526E+02  0.10213561200E+03  0.16881086859E+03  0.12277965569E+03 0.  0.
         25    2    3    3    0    0 -0.51247536675E+02 -0.19085917526E+02  0.38453989837E+02  0.14042334245E+03  0.12348855618E+03 0.  0.
          5    1    4    4  502    0  0.16909686179E+02 -0.50629763594E+02  0.59396759960E+02  0.79996097042E+02  0.47000000000E+01 0.  1.
         -5    1    4    4    0  502  0.34337850496E+02  0.69715681120E+02  0.42738852042E+02  0.88814771545E+02  0.47000000000E+01 0.  1.
          5    1    5    5  503    0 -0.97085870041E+01 -0.68357503420E+02  0.29345800618E+02  0.75168284199E+02  0.47000000000E+01 0.  1.
         -5    1    5    5    0  503 -0.41538949671E+02  0.49271585894E+02  0.91081892181E+01  0.65255058249E+02  0.47000000000E+01 0.  1.
<mgrwt>
<rscale>  0 0.27542760E+03</rscale>
<asrwt>0</asrwt>
<pdfrwt beam="1">  1        2 0.12972662E-01 0.27542760E+03</pdfrwt>
<pdfrwt beam="2">  1       -2 0.34601832E-01 0.27542760E+03</pdfrwt>
<totfact> 0.36273119E+03</totfact>
</mgrwt>
</event>
<event>
 9    1  0.2094635E-002  0.2747786E+03  0.7818608E-02  0.1098575E+00
          1   -1    0    0  501    0  0.00000000000E+00  0.00000000000E+00  0.16516810407E+02  0.16516810407E+02  0.00000000000E+00 0. -1.
         -1   -1    0    0    0  501 -0.00000000000E+00 -0.00000000000E+00 -0.11428244439E+04  0.11428244439E+04  0.00000000000E+00 0. -1.
         36    2    1    2    0    0  0.71054273576E-14 -0.71054273576E-14 -0.11263076335E+04  0.11593412543E+04  0.27477856298E+03 0.  0.
         25    2    3    3    0    0 -0.59949915590E+02  0.61213809596E+02 -0.59526611863E+03  0.60673096711E+03  0.80247065971E+02 0.  0.
         25    2    3    3    0    0  0.59949915590E+02 -0.61213809596E+02 -0.53104151486E+03  0.55261028720E+03  0.12661720319E+03 0.  0.
          5    1    4    4  502    0 -0.60164833431E+02  0.22866843271E+02 -0.49651252468E+03  0.50068900214E+03  0.47000000000E+01 0.  1.
         -5    1    4    4    0  502  0.21491784117E+00  0.38346966325E+02 -0.98753593952E+02  0.10604196497E+03  0.47000000000E+01 0.  1.
          5    1    5    5  503    0 -0.15022748393E+02 -0.32269741467E+02 -0.35215773855E+02  0.50291747950E+02  0.47000000000E+01 0. -1.
         -5    1    5    5    0  503  0.74972663983E+02 -0.28944068129E+02 -0.49582574101E+03  0.50231853924E+03  0.47000000000E+01 0. -1.
<mgrwt>
<rscale>  0 0.27477856E+03</rscale>
<asrwt>0</asrwt>
<pdfrwt beam="1">  1        1 0.25410472E-02 0.27477856E+03</pdfrwt>
<pdfrwt beam="2">  1       -1 0.17581919E+00 0.27477856E+03</pdfrwt>
<totfact> 0.10543066E+03</totfact>
</mgrwt>
</event>
<event>
 9    1  0.2094635E-002  0.2746269E+03  0.7818608E-02  0.1098660E+00
         -1   -1    0    0    0  501 -0.00000000000E+00  0.00000000000E+00  0.66921048582E+03  0.66921048582E+03  0.00000000000E+00 0.  1.
          1   -1    0    0  501    0  0.00000000000E+00 -0.00000000000E+00 -0.28174959006E+02  0.28174959006E+02  0.00000000000E+00 0.  1.
         36    2    1    2    0    0  0.10658141036E-13  0.00000000000E+00  0.64103552681E+03  0.69738544483E+03  0.27462685961E+03 0.  0.
         25    2    3    3    0    0  0.23085910667E+02  0.41485226559E+02  0.40345526842E+03  0.42473627528E+03  0.12397889591E+03 0.  0.
         25    2    3    3    0    0 -0.23085910667E+02 -0.41485226559E+02  0.23758025840E+03  0.27264916954E+03  0.12505681581E+03 0.  0.
          5    1    4    4  502    0  0.37083262668E+02  0.61040756071E+02  0.39052493722E+03  0.39703017375E+03  0.47000000000E+01 0. -1.
         -5    1    4    4    0  502 -0.13997352000E+02 -0.19555529512E+02  0.12930331196E+02  0.27706101536E+02  0.47000000000E+01 0. -1.
          5    1    5    5  503    0  0.32799118088E+02  0.25279176570E+02  0.45485014971E+02  0.61691129851E+02  0.47000000000E+01 0.  1.
         -5    1    5    5    0  503 -0.55885028756E+02 -0.66764403129E+02  0.19209524343E+03  0.21095803969E+03  0.47000000000E+01 0.  1.
<mgrwt>
<rscale>  0 0.27462686E+03</rscale>
<asrwt>0</asrwt>
<pdfrwt beam="1">  1        1 0.43346096E-02 0.27462686E+03</pdfrwt>
<pdfrwt beam="2">  1       -1 0.10295545E+00 0.27462686E+03</pdfrwt>
<totfact> 0.19160251E+03</totfact>
</mgrwt>
</event>
<event>
 9    1  0.2094635E-002  0.2753359E+03  0.7818608E-02  0.1098264E+00
         -4   -1    0    0    0  501 -0.00000000000E+00  0.00000000000E+00  0.15761176579E+03  0.15761176579E+03  0.00000000000E+00 0.  1.
          4   -1    0    0  501    0  0.00000000000E+00 -0.00000000000E+00 -0.12024780707E+03  0.12024780707E+03  0.00000000000E+00 0.  1.
         36    2    1    2    0    0  0.71054273576E-14 -0.17763568394E-14  0.37363958722E+02  0.27785957285E+03  0.27533593448E+03 0.  0.
         25    2    3    3    0    0 -0.56030452739E+02  0.34151100924E+00  0.37382885285E+02  0.14288997936E+03  0.12601800596E+03 0.  0.
         25    2    3    3    0    0  0.56030452739E+02 -0.34151100924E+00 -0.18926562614E-01  0.13496959349E+03  0.12278950503E+03 0.  0.
          5    1    4    4  502    0 -0.26349141029E+02  0.15475947181E+02  0.81638135965E+02  0.87296376889E+02  0.47000000000E+01 0.  1.
         -5    1    4    4    0  502 -0.29681311710E+02 -0.15134436172E+02 -0.44255250680E+02  0.55593602472E+02  0.47000000000E+01 0.  1.
          5    1    5    5  503    0 -0.28902798984E+02  0.19784190007E+02  0.25879444846E+02  0.43802073339E+02  0.47000000000E+01 0.  1.
         -5    1    5    5    0  503  0.84933251723E+02 -0.20125701016E+02 -0.25898371409E+02  0.91167520155E+02  0.47000000000E+01 0.  1.
<mgrwt>
<rscale>  0 0.27533593E+03</rscale>
<asrwt>0</asrwt>
<pdfrwt beam="1">  1        4 0.18499663E-01 0.27533593E+03</pdfrwt>
<pdfrwt beam="2">  1       -4 0.24247964E-01 0.27533593E+03</pdfrwt>
<totfact> 0.77235883E+02</totfact>
</mgrwt>
</event>
<event>
 9    1  0.2094635E-002  0.2718942E+03  0.7818608E-02  0.1100200E+00
          4   -1    0    0  501    0  0.00000000000E+00  0.00000000000E+00  0.49348864377E+03  0.49348864377E+03  0.00000000000E+00 0.  1.
         -4   -1    0    0    0  501 -0.00000000000E+00 -0.00000000000E+00 -0.37450938859E+02  0.37450938859E+02  0.00000000000E+00 0.  1.
         36    2    1    2    0    0 -0.35527136788E-14  0.00000000000E+00  0.45603770491E+03  0.53093958263E+03  0.27189419284E+03 0.  0.
         25    2    3    3    0    0 -0.70031489918E+01  0.42470750055E+02  0.15900688205E+03  0.20536262446E+03  0.12262874980E+03 0.  0.
         25    2    3    3    0    0  0.70031489918E+01 -0.42470750055E+02  0.29703082286E+03  0.32557695817E+03  0.12617542256E+03 0.  0.
          5    1    4    4  502    0  0.36438748382E+02 -0.19825441868E+02  0.18689066618E+02  0.45740591819E+02  0.47000000000E+01 0.  1.
         -5    1    4    4    0  502 -0.43441897373E+02  0.62296191922E+02  0.14031781544E+03  0.15962203264E+03  0.47000000000E+01 0.  1.
          5    1    5    5  503    0  0.23821100255E+02 -0.51472906669E+02  0.30031332140E+03  0.30565844655E+03  0.47000000000E+01 0. -1.
         -5    1    5    5    0  503 -0.16817951263E+02  0.90021566142E+01 -0.32824985431E+01  0.19918511618E+02  0.47000000000E+01 0. -1.
<mgrwt>
<rscale>  0 0.27189419E+03</rscale>
<asrwt>0</asrwt>
<pdfrwt beam="1">  1        4 0.75921325E-01 0.27189419E+03</pdfrwt>
<pdfrwt beam="2">  1       -4 0.57616832E-02 0.27189419E+03</pdfrwt>
<totfact> 0.56608330E+02</totfact>
</mgrwt>
</event>
<event>
 9    1  0.2094635E-002  0.2760003E+03  0.7818608E-02  0.1097894E+00
          4   -1    0    0  501    0  0.00000000000E+00  0.00000000000E+00  0.18771825778E+03  0.18771825778E+03  0.00000000000E+00 0. -1.
         -4   -1    0    0    0  501 -0.00000000000E+00 -0.00000000000E+00 -0.10145013663E+03  0.10145013663E+03  0.00000000000E+00 0. -1.
         36    2    1    2    0    0 -0.71054273576E-14  0.00000000000E+00  0.86268121151E+02  0.28916839442E+03  0.27600031088E+03 0.  0.
         25    2    3    3    0    0  0.56833192380E+02 -0.52052595963E+01  0.94224762419E+02  0.16601029649E+03  0.12419342255E+03 0.  0.
         25    2    3    3    0    0 -0.56833192380E+02  0.52052595963E+01 -0.79566412682E+01  0.12315809792E+03  0.10884623310E+03 0.  0.
          5    1    4    4  502    0  0.49590329867E+01 -0.52006101758E+02  0.78222803141E+02  0.94181333391E+02  0.47000000000E+01 0. -1.
         -5    1    4    4    0  502  0.51874159393E+02  0.46800842161E+02  0.16001959278E+02  0.71828963103E+02  0.47000000000E+01 0. -1.
          5    1    5    5  503    0 -0.84177990792E+01 -0.27624574699E+02 -0.45061234962E+02  0.53726914716E+02  0.47000000000E+01 0.  1.
         -5    1    5    5    0  503 -0.48415393300E+02  0.32829834295E+02  0.37104593694E+02  0.69431183207E+02  0.47000000000E+01 0.  1.
<mgrwt>
<rscale>  0 0.27600031E+03</rscale>
<asrwt>0</asrwt>
<pdfrwt beam="1">  1        4 0.28879732E-01 0.27600031E+03</pdfrwt>
<pdfrwt beam="2">  1       -4 0.15607713E-01 0.27600031E+03</pdfrwt>
<totfact> 0.75366254E+02</totfact>
</mgrwt>
</event>
<event>
 9    1  0.2094635E-002  0.2729508E+03  0.7818608E-02  0.1099603E+00
          2   -1    0    0  501    0  0.00000000000E+00  0.00000000000E+00  0.43596458519E+02  0.43596458519E+02  0.00000000000E+00 0. -1.
         -2   -1    0    0    0  501 -0.00000000000E+00 -0.00000000000E+00 -0.42722583363E+03  0.42722583363E+03  0.00000000000E+00 0. -1.
         36    2    1    2    0    0  0.71054273576E-14  0.35527136788E-14 -0.38362937511E+03  0.47082229215E+03  0.27295078922E+03 0.  0.
         25    2    3    3    0    0  0.25797645588E+02 -0.21697745716E+02 -0.22337574088E+03  0.25643371317E+03  0.12134750492E+03 0.  0.
         25    2    3    3    0    0 -0.25797645588E+02  0.21697745716E+02 -0.16025363423E+03  0.21438857898E+03  0.13836518646E+03 0.  0.
          5    1    4    4  502    0  0.12815713187E+02  0.23849475896E+02 -0.20268093023E+03  0.20453530131E+03  0.47000000000E+01 0. -1.
         -5    1    4    4    0  502  0.12981932401E+02 -0.45547221612E+02 -0.20694810647E+02  0.51898411856E+02  0.47000000000E+01 0. -1.
          5    1    5    5  503    0  0.49057766226E+02  0.16859296683E+02 -0.21026552173E+02  0.56170332098E+02  0.47000000000E+01 0.  1.
         -5    1    5    5    0  503 -0.74855411814E+02  0.48384490338E+01 -0.13922708206E+03  0.15821824688E+03  0.47000000000E+01 0.  1.
<mgrwt>
<rscale>  0 0.27295079E+03</rscale>
<asrwt>0</asrwt>
<pdfrwt beam="1">  1        2 0.67071474E-02 0.27295079E+03</pdfrwt>
<pdfrwt beam="2">  1       -2 0.65727052E-01 0.27295079E+03</pdfrwt>
<totfact> 0.23240439E+03</totfact>
</mgrwt>
</event>
<event>
 9    1  0.2094635E-002  0.2657801E+03  0.7818608E-02  0.1103719E+00
         -2   -1    0    0    0  501 -0.00000000000E+00  0.00000000000E+00  0.35479544201E+02  0.35479544201E+02  0.00000000000E+00 0.  1.
          2   -1    0    0  501    0  0.00000000000E+00 -0.00000000000E+00 -0.49774509837E+03  0.49774509837E+03  0.00000000000E+00 0.  1.
         36    2    1    2    0    0 -0.71054273576E-14  0.00000000000E+00 -0.46226555417E+03  0.53322464257E+03  0.26578012882E+03 0.  0.
         25    2    3    3    0    0 -0.89016976695E+01 -0.15078570962E+02 -0.14232169243E+03  0.19053377965E+03  0.12546335532E+03 0.  0.
         25    2    3    3    0    0  0.89016976695E+01  0.15078570962E+02 -0.31994386174E+03  0.34269086292E+03  0.12151686854E+03 0.  0.
          5    1    4    4  502    0 -0.50735559963E+02 -0.31007112966E+01 -0.13729553484E+03  0.14647820773E+03  0.47000000000E+01 0.  1.
         -5    1    4    4    0  502  0.41833862294E+02 -0.11977859666E+02 -0.50261575913E+01  0.44055571915E+02  0.47000000000E+01 0.  1.
          5    1    5    5  503    0 -0.54535717154E+02 -0.56830850259E+01 -0.16434571633E+03  0.17331487638E+03  0.47000000000E+01 0.  1.
         -5    1    5    5    0  503  0.63437414823E+02  0.20761655988E+02 -0.15559814541E+03  0.16937598654E+03  0.47000000000E+01 0.  1.
<mgrwt>
<rscale>  0 0.26578013E+03</rscale>
<asrwt>0</asrwt>
<pdfrwt beam="1">  1        2 0.76576163E-01 0.26578013E+03</pdfrwt>
<pdfrwt beam="2">  1       -2 0.54583918E-02 0.26578013E+03</pdfrwt>
<totfact> 0.10629102E+04</totfact>
</mgrwt>
</event>
<event>
 9    1  0.2094635E-002  0.2749174E+03  0.7818608E-02  0.1098498E+00
          2   -1    0    0  501    0  0.00000000000E+00  0.00000000000E+00  0.41310468367E+03  0.41310468367E+03  0.00000000000E+00 0. -1.
         -2   -1    0    0    0  501 -0.00000000000E+00 -0.00000000000E+00 -0.45738745361E+02  0.45738745361E+02  0.00000000000E+00 0. -1.
         36    2    1    2    0    0 -0.71054273576E-14 -0.35527136788E-14  0.36736593831E+03  0.45884342903E+03  0.27491736892E+03 0.  0.
         25    2    3    3    0    0  0.43085635045E+02 -0.25898537704E+02  0.22795079102E+03  0.26390184082E+03  0.12310772624E+03 0.  0.
         25    2    3    3    0    0 -0.43085635045E+02  0.25898537704E+02  0.13941514729E+03  0.19494158821E+03  0.12664333112E+03 0.  0.
          5    1    4    4  502    0  0.93060252518E+00 -0.41543400761E+02  0.12338845488E+02  0.43601115535E+02  0.47000000000E+01 0.  1.
         -5    1    4    4    0  502  0.42155032520E+02  0.15644863057E+02  0.21561194553E+03  0.22030072528E+03  0.47000000000E+01 0.  1.
          5    1    5    5  503    0 -0.18451800690E+02 -0.19730019472E+02 -0.15509426479E+02  0.31501982902E+02  0.47000000000E+01 0. -1.
         -5    1    5    5    0  503 -0.24633834355E+02  0.45628557176E+02  0.15492457377E+03  0.16343960531E+03  0.47000000000E+01 0. -1.
<mgrwt>
<rscale>  0 0.27491737E+03</rscale>
<asrwt>0</asrwt>
<pdfrwt beam="1">  1        2 0.63554564E-01 0.27491737E+03</pdfrwt>
<pdfrwt beam="2">  1       -2 0.70367303E-02 0.27491737E+03</pdfrwt>
<totfact> 0.88469831E+03</totfact>
</mgrwt>
</event>
<event>
 9    1  0.2094635E-002  0.2734895E+03  0.7818608E-02  0.1099299E+00
         -1   -1    0    0    0  501 -0.00000000000E+00  0.00000000000E+00  0.51554965083E+02  0.51554965083E+02  0.00000000000E+00 0. -1.
          1   -1    0    0  501    0  0.00000000000E+00 -0.00000000000E+00 -0.36270274538E+03  0.36270274538E+03  0.00000000000E+00 0. -1.
         36    2    1    2    0    0 -0.71054273576E-14 -0.35527136788E-14 -0.31114778030E+03  0.41425771047E+03  0.27348950527E+03 0.  0.
         25    2    3    3    0    0  0.28345476882E+02 -0.15287501970E+02 -0.14894372850E+03  0.20630966288E+03  0.13907648601E+03 0.  0.
         25    2    3    3    0    0 -0.28345476882E+02  0.15287501970E+02 -0.16220405180E+03  0.20794804759E+03  0.12607562135E+03 0.  0.
          5    1    4    4  502    0  0.30820456055E+02 -0.31388526981E+02  0.10904603894E+02  0.45564685049E+02  0.47000000000E+01 0.  1.
         -5    1    4    4    0  502 -0.24749791731E+01  0.16101025011E+02 -0.15984833240E+03  0.16074497783E+03  0.47000000000E+01 0.  1.
          5    1    5    5  503    0  0.13630468289E+02 -0.19080366546E+02  0.11045175841E+02  0.26342664304E+02  0.47000000000E+01 0.  1.
         -5    1    5    5    0  503 -0.41975945171E+02  0.34367868516E+02 -0.17324922764E+03  0.18160538328E+03  0.47000000000E+01 0.  1.
<mgrwt>
<rscale>  0 0.27348951E+03</rscale>
<asrwt>0</asrwt>
<pdfrwt beam="1">  1        1 0.55800422E-01 0.27348951E+03</pdfrwt>
<pdfrwt beam="2">  1       -1 0.79315331E-02 0.27348951E+03</pdfrwt>
<totfact> 0.59595747E+03</totfact>
</mgrwt>
</event>
<event>
 9    1  0.2094635E-002  0.2779254E+03  0.7818608E-02  0.1096827E+00
          1   -1    0    0  501    0  0.00000000000E+00  0.00000000000E+00  0.19597459175E+02  0.19597459175E+02  0.00000000000E+00 0.  1.
         -1   -1    0    0    0  501 -0.00000000000E+00 -0.00000000000E+00 -0.98536422904E+03  0.98536422904E+03  0.00000000000E+00 0.  1.
         36    2    1    2    0    0  0.00000000000E+00  0.00000000000E+00 -0.96576676986E+03  0.10049616882E+04  0.27792542346E+03 0.  0.
         25    2    3    3    0    0 -0.30788537746E+02 -0.94284379482E+01 -0.65132036203E+03  0.66344393557E+03  0.12207707460E+03 0.  0.
         25    2    3    3    0    0  0.30788537746E+02  0.94284379482E+01 -0.31444640783E+03  0.34151775265E+03  0.12930971532E+03 0.  0.
          5    1    4    4  502    0 -0.48608521798E+02 -0.61069356423E+01 -0.96665100332E+02  0.10847264483E+03  0.47000000000E+01 0.  1.
         -5    1    4    4    0  502  0.17819984052E+02 -0.33215023059E+01 -0.55465526170E+03  0.55497129074E+03  0.47000000000E+01 0.  1.
          5    1    5    5  503    0  0.43996540640E+02 -0.52382322431E+02 -0.18714106124E+03  0.19930747626E+03  0.47000000000E+01 0.  1.
         -5    1    5    5    0  503 -0.13208002894E+02  0.61810760379E+02 -0.12730534659E+03  0.14221027639E+03  0.47000000000E+01 0.  1.
<mgrwt>
<rscale>  0 0.27792542E+03</rscale>
<asrwt>0</asrwt>
<pdfrwt beam="1">  1        1 0.30149934E-02 0.27792542E+03</pdfrwt>
<pdfrwt beam="2">  1       -1 0.15159451E+00 0.27792542E+03</pdfrwt>
<totfact> 0.12443578E+03</totfact>
</mgrwt>
</event>
<event>
 9    1  0.2094635E-002  0.2739474E+03  0.7818608E-02  0.1099041E+00
         -1   -1    0    0    0  501 -0.00000000000E+00  0.00000000000E+00  0.33127769281E+03  0.33127769281E+03  0.00000000000E+00 0. -1.
          1   -1    0    0  501    0  0.00000000000E+00 -0.00000000000E+00 -0.56634637514E+02  0.56634637514E+02  0.00000000000E+00 0. -1.
         36    2    1    2    0    0  0.35527136788E-14  0.00000000000E+00  0.27464305529E+03  0.38791233032E+03  0.27394738216E+03 0.  0.
         25    2    3    3    0    0  0.17426634174E+02  0.22834002174E+02  0.18902024319E+03  0.22931540801E+03  0.12661684241E+03 0.  0.
         25    2    3    3    0    0 -0.17426634174E+02 -0.22834002174E+02  0.85622812102E+02  0.15859692231E+03  0.13037115701E+03 0.  0.
          5    1    4    4  502    0 -0.28197667167E+02 -0.13706294048E+02  0.16141888884E+03  0.16450264011E+03  0.47000000000E+01 0. -1.
         -5    1    4    4    0  502  0.45624301341E+02  0.36540296222E+02  0.27601354351E+02  0.64812767901E+02  0.47000000000E+01 0. -1.
          5    1    5    5  503    0 -0.83363729704E+01 -0.59788801427E+02 -0.44383703597E+01  0.60712313593E+02  0.47000000000E+01 0.  1.
         -5    1    5    5    0  503 -0.90902612039E+01  0.36954799253E+02  0.90061182462E+02  0.97884608714E+02  0.47000000000E+01 0.  1.
<mgrwt>
<rscale>  0 0.27394738E+03</rscale>
<asrwt>0</asrwt>
<pdfrwt beam="1">  1        1 0.87130214E-02 0.27394738E+03</pdfrwt>
<pdfrwt beam="2">  1       -1 0.50965798E-01 0.27394738E+03</pdfrwt>
<totfact> 0.30554750E+03</totfact>
</mgrwt>
</event>
<event>
 9    1  0.2094635E-002  0.2745772E+03  0.7818608E-02  0.1098688E+00
          2   -1    0    0  501    0  0.00000000000E+00  0.00000000000E+00  0.13630240480E+04  0.13630240480E+04  0.00000000000E+00 0.  1.
         -2   -1    0    0    0  501 -0.00000000000E+00 -0.00000000000E+00 -0.13828190308E+02  0.13828190308E+02  0.00000000000E+00 0.  1.
         36    2    1    2    0    0 -0.71054273576E-14 -0.35527136788E-14  0.13491958577E+04  0.13768522383E+04  0.27457717261E+03 0.  0.
         25    2    3    3    0    0 -0.58750218671E+02 -0.20733470549E+02  0.45750004455E+03  0.47866921151E+03  0.12623968587E+03 0.  0.
         25    2    3    3    0    0  0.58750218671E+02  0.20733470549E+02  0.89169581317E+03  0.89818302683E+03  0.87919630678E+02 0.  0.
          5    1    4    4  502    0 -0.37948601277E+02  0.47640825987E+02  0.13299481395E+03  0.14635386971E+03  0.47000000000E+01 0.  1.
         -5    1    4    4    0  502 -0.20801617393E+02 -0.68374296536E+02  0.32450523059E+03  0.33231534180E+03  0.47000000000E+01 0.  1.
          5    1    5    5  503    0 -0.24523289435E+01 -0.24498967242E+02  0.38132652963E+03  0.38214948059E+03  0.47000000000E+01 0. -1.
         -5    1    5    5    0  503  0.61202547614E+02  0.45232437791E+02  0.51036928354E+03  0.51603354624E+03  0.47000000000E+01 0. -1.
<mgrwt>
<rscale>  0 0.27457717E+03</rscale>
<asrwt>0</asrwt>
<pdfrwt beam="1">  1        2 0.20969590E+00 0.27457717E+03</pdfrwt>
<pdfrwt beam="2">  1       -2 0.21274150E-02 0.27457717E+03</pdfrwt>
<totfact> 0.11421297E+04</totfact>
</mgrwt>
</event>
<event>
 9    1  0.2094635E-002  0.2744200E+03  0.7818608E-02  0.1098776E+00
         -2   -1    0    0    0  501 -0.00000000000E+00  0.00000000000E+00  0.15606375087E+03  0.15606375087E+03  0.00000000000E+00 0.  1.
          2   -1    0    0  501    0  0.00000000000E+00 -0.00000000000E+00 -0.12063391979E+03  0.12063391979E+03  0.00000000000E+00 0.  1.
         36    2    1    2    0    0  0.00000000000E+00  0.71054273576E-14  0.35429831072E+02  0.27669767066E+03  0.27441998473E+03 0.  0.
         25    2    3    3    0    0 -0.33553112200E+02 -0.37996069036E+02  0.39985451209E+02  0.14270811504E+03  0.12726844538E+03 0.  0.
         25    2    3    3    0    0  0.33553112200E+02  0.37996069036E+02 -0.45556201374E+01  0.13398955562E+03  0.12394730630E+03 0.  0.
          5    1    4    4  502    0 -0.60896550475E+02 -0.50839762013E+02  0.65425242539E+02  0.10293504565E+03  0.47000000000E+01 0.  1.
         -5    1    4    4    0  502  0.27343438275E+02  0.12843692977E+02 -0.25439791330E+02  0.39773069393E+02  0.47000000000E+01 0.  1.
          5    1    5    5  503    0 -0.17180370384E+02  0.61398299439E+02 -0.32082884453E+02  0.71528440325E+02  0.47000000000E+01 0.  1.
         -5    1    5    5    0  503  0.50733482584E+02 -0.23402230403E+02  0.27527264316E+02  0.62461115293E+02  0.47000000000E+01 0.  1.
<mgrwt>
<rscale>  0 0.27441998E+03</rscale>
<asrwt>0</asrwt>
<pdfrwt beam="1">  1        2 0.18559065E-01 0.27441998E+03</pdfrwt>
<pdfrwt beam="2">  1       -2 0.24009808E-01 0.27441998E+03</pdfrwt>
<totfact> 0.45962243E+03</totfact>
</mgrwt>
</event>
<event>
 9    1  0.2094635E-002  0.2750598E+03  0.7818608E-02  0.1098418E+00
          2   -1    0    0  501    0  0.00000000000E+00  0.00000000000E+00  0.57941714210E+02  0.57941714210E+02  0.00000000000E+00 0. -1.
         -2   -1    0    0    0  501 -0.00000000000E+00 -0.00000000000E+00 -0.32643966259E+03  0.32643966259E+03  0.00000000000E+00 0. -1.
         36    2    1    2    0    0 -0.35527136788E-14 -0.71054273576E-14 -0.26849794838E+03  0.38438137680E+03  0.27505980176E+03 0.  0.
         25    2    3    3    0    0 -0.29311666836E+02 -0.36790703057E+02 -0.73415070667E+02  0.14773356751E+03  0.11925898173E+03 0.  0.
         25    2    3    3    0    0  0.29311666836E+02  0.36790703057E+02 -0.19508287771E+03  0.23664780930E+03  0.12542777533E+03 0.  0.
          5    1    4    4  502    0 -0.52805783458E+02 -0.69188750299E+02 -0.57432841066E+02  0.10438465006E+03  0.47000000000E+01 0.  1.
         -5    1    4    4    0  502  0.23494116623E+02  0.32398047241E+02 -0.15982229602E+02  0.43348917449E+02  0.47000000000E+01 0.  1.
          5    1    5    5  503    0 -0.45546655010E+02  0.37076909970E+02 -0.83162475140E+02  0.10191801758E+03  0.47000000000E+01 0.  1.
         -5    1    5    5    0  503  0.74858321846E+02 -0.28620691244E+00 -0.11192040257E+03  0.13472979172E+03  0.47000000000E+01 0.  1.
<mgrwt>
<rscale>  0 0.27505980E+03</rscale>
<asrwt>0</asrwt>
<pdfrwt beam="1">  1        2 0.89141098E-02 0.27505980E+03</pdfrwt>
<pdfrwt beam="2">  1       -2 0.50221487E-01 0.27505980E+03</pdfrwt>
<totfact> 0.28101834E+03</totfact>
</mgrwt>
</event>
<event>
 9    1  0.2094635E-002  0.2741887E+03  0.7818608E-02  0.1098906E+00
         -2   -1    0    0    0  501 -0.00000000000E+00  0.00000000000E+00  0.11193204279E+02  0.11193204279E+02  0.00000000000E+00 0.  1.
          2   -1    0    0  501    0  0.00000000000E+00 -0.00000000000E+00 -0.16791319521E+04  0.16791319521E+04  0.00000000000E+00 0.  1.
         36    2    1    2    0    0  0.88817841970E-15  0.71054273576E-14 -0.16679387478E+04  0.16903251564E+04  0.27418874486E+03 0.  0.
         25    2    3    3    0    0 -0.55377394745E+01 -0.36853169772E+02 -0.72532781297E+03  0.73910722584E+03  0.13707746839E+03 0.  0.
         25    2    3    3    0    0  0.55377394745E+01  0.36853169772E+02 -0.94261093487E+03  0.95121793056E+03  0.12211205591E+03 0.  0.
          5    1    4    4  502    0 -0.88463841949E+01  0.51897707528E+02 -0.24907879990E+03  0.25462515414E+03  0.47000000000E+01 0.  1.
         -5    1    4    4    0  502  0.33086447204E+01 -0.88750877300E+02 -0.47624901307E+03  0.48448207170E+03  0.47000000000E+01 0.  1.
          5    1    5    5  503    0  0.80374555721E+01  0.26998299427E+02 -0.43498561033E+02  0.52035792259E+02  0.47000000000E+01 0. -1.
         -5    1    5    5    0  503 -0.24997160976E+01  0.98548703451E+01 -0.89911237384E+03  0.89918213830E+03  0.47000000000E+01 0. -1.
<mgrwt>
<rscale>  0 0.27418874E+03</rscale>
<asrwt>0</asrwt>
<pdfrwt beam="1">  1        2 0.25832810E+00 0.27418874E+03</pdfrwt>
<pdfrwt beam="2">  1       -2 0.17220307E-02 0.27418874E+03</pdfrwt>
<totfact> 0.10557372E+04</totfact>
</mgrwt>
</event>
<event>
 9    1  0.2094635E-002  0.2746236E+03  0.7818608E-02  0.1098662E+00
          2   -1    0    0  501    0  0.00000000000E+00  0.00000000000E+00  0.54046875746E+03  0.54046875746E+03  0.00000000000E+00 0.  1.
         -2   -1    0    0    0  501 -0.00000000000E+00 -0.00000000000E+00 -0.34885517515E+02  0.34885517515E+02  0.00000000000E+00 0.  1.
         36    2    1    2    0    0  0.71054273576E-14  0.00000000000E+00  0.50558323994E+03  0.57535427497E+03  0.27462361373E+03 0.  0.
         25    2    3    3    0    0  0.17574374985E+02 -0.76738476589E+01  0.14631820161E+03  0.19448115458E+03  0.12667342567E+03 0.  0.
         25    2    3    3    0    0 -0.17574374985E+02  0.76738476589E+01  0.35926503834E+03  0.38087312039E+03  0.12500087788E+03 0.  0.
          5    1    4    4  502    0 -0.37932868701E+02  0.20122790369E+02  0.11880963996E+03  0.12641854994E+03  0.47000000000E+01 0.  1.
         -5    1    4    4    0  502  0.55507243686E+02 -0.27796638028E+02  0.27508561642E+02  0.68062604644E+02  0.47000000000E+01 0.  1.
          5    1    5    5  503    0  0.42042917083E+02  0.31644835270E+02  0.93334480182E+02  0.10724932479E+03  0.47000000000E+01 0. -1.
         -5    1    5    5    0  503 -0.59617292069E+02 -0.23970987611E+02  0.26593055815E+03  0.27362379560E+03  0.47000000000E+01 0. -1.
<mgrwt>
<rscale>  0 0.27462361E+03</rscale>
<asrwt>0</asrwt>
<pdfrwt beam="1">  1        2 0.83149033E-01 0.27462361E+03</pdfrwt>
<pdfrwt beam="2">  1       -2 0.53670031E-02 0.27462361E+03</pdfrwt>
<totfact> 0.99538386E+03</totfact>
</mgrwt>
</event>
<event>
 9    1  0.2094635E-002  0.2740552E+03  0.7818608E-02  0.1098981E+00
         -2   -1    0    0    0  501 -0.00000000000E+00  0.00000000000E+00  0.27295971903E+03  0.27295971903E+03  0.00000000000E+00 0. -1.
          2   -1    0    0  501    0  0.00000000000E+00 -0.00000000000E+00 -0.68788774801E+02  0.68788774801E+02  0.00000000000E+00 0. -1.
         36    2    1    2    0    0  0.00000000000E+00  0.71054273576E-14  0.20417094423E+03  0.34174849383E+03  0.27405521080E+03 0.  0.
         25    2    3    3    0    0 -0.32795802864E+02  0.42308147748E+02  0.75357609077E+02  0.15330752983E+03  0.12230652233E+03 0.  0.
         25    2    3    3    0    0  0.32795802864E+02 -0.42308147748E+02  0.12881333515E+03  0.18844096400E+03  0.12669482053E+03 0.  0.
          5    1    4    4  502    0  0.66882545949E+01  0.62160828430E+02  0.87119590711E+02  0.10733412517E+03  0.47000000000E+01 0.  1.
         -5    1    4    4    0  502 -0.39484057459E+02 -0.19852680682E+02 -0.11761981634E+02  0.45973404656E+02  0.47000000000E+01 0.  1.
          5    1    5    5  503    0 -0.95452217977E+00 -0.73836452835E+02  0.12031349428E+03  0.14124503455E+03  0.47000000000E+01 0. -1.
         -5    1    5    5    0  503  0.33750325044E+02  0.31528305087E+02  0.84998408777E+01  0.47195929456E+02  0.47000000000E+01 0. -1.
<mgrwt>
<rscale>  0 0.27405521E+03</rscale>
<asrwt>0</asrwt>
<pdfrwt beam="1">  1        2 0.10582889E-01 0.27405521E+03</pdfrwt>
<pdfrwt beam="2">  1       -2 0.41993802E-01 0.27405521E+03</pdfrwt>
<totfact> 0.32228793E+03</totfact>
</mgrwt>
</event>
<event>
 9    1  0.2094635E-002  0.2748947E+03  0.7818608E-02  0.1098510E+00
         -1   -1    0    0    0  501 -0.00000000000E+00  0.00000000000E+00  0.10479499747E+03  0.10479499747E+03  0.00000000000E+00 0.  1.
          1   -1    0    0  501    0  0.00000000000E+00 -0.00000000000E+00 -0.18027358472E+03  0.18027358472E+03  0.00000000000E+00 0.  1.
         36    2    1    2    0    0  0.00000000000E+00  0.14210854715E-13 -0.75478587257E+02  0.28506858219E+03  0.27489466968E+03 0.  0.
         25    2    3    3    0    0 -0.10907744305E+02  0.49807791337E+02 -0.43731978307E+02  0.14462010127E+03  0.12807299794E+03 0.  0.
         25    2    3    3    0    0  0.10907744305E+02 -0.49807791337E+02 -0.31746608949E+02  0.14044848091E+03  0.12695721188E+03 0.  0.
          5    1    4    4  502    0 -0.65559097671E+02  0.32074193698E+02 -0.14885769091E+01  0.73150906010E+02  0.47000000000E+01 0.  1.
         -5    1    4    4    0  502  0.54651353367E+02  0.17733597639E+02 -0.42243401398E+02  0.71469195265E+02  0.47000000000E+01 0.  1.
          5    1    5    5  503    0 -0.29632353354E+02 -0.70849831068E+02 -0.49200050861E+02  0.91326392310E+02  0.47000000000E+01 0. -1.
         -5    1    5    5    0  503  0.40540097658E+02  0.21042039731E+02  0.17453441912E+02  0.49122088603E+02  0.47000000000E+01 0. -1.
<mgrwt>
<rscale>  0 0.27489467E+03</rscale>
<asrwt>0</asrwt>
<pdfrwt beam="1">  1        1 0.27734397E-01 0.27489467E+03</pdfrwt>
<pdfrwt beam="2">  1       -1 0.16122307E-01 0.27489467E+03</pdfrwt>
<totfact> 0.47608685E+03</totfact>
</mgrwt>
</event>
<event>
 9    1  0.2094635E-002  0.2745451E+03  0.7818608E-02  0.1098706E+00
         -1   -1    0    0    0  501 -0.00000000000E+00  0.00000000000E+00  0.90436530910E+02  0.90436530910E+02  0.00000000000E+00 0. -1.
          1   -1    0    0  501    0  0.00000000000E+00 -0.00000000000E+00 -0.20836432057E+03  0.20836432057E+03  0.00000000000E+00 0. -1.
         36    2    1    2    0    0  0.35527136788E-14  0.00000000000E+00 -0.11792778966E+03  0.29880085148E+03  0.27454505144E+03 0.  0.
         25    2    3    3    0    0 -0.24938509479E+00  0.47107959291E+02 -0.89673402922E+02  0.16013386522E+03  0.12402545536E+03 0.  0.
         25    2    3    3    0    0  0.24938509479E+00 -0.47107959291E+02 -0.28254386741E+02  0.13866698626E+03  0.12732242806E+03 0.  0.
          5    1    4    4  502    0 -0.31612798519E+02 -0.32523521912E+02 -0.42309527905E+02  0.62203976234E+02  0.47000000000E+01 0.  1.
         -5    1    4    4    0  502  0.31363413424E+02  0.79631481204E+02 -0.47363875017E+02  0.97929888987E+02  0.47000000000E+01 0.  1.
          5    1    5    5  503    0 -0.46807380910E+02 -0.20748591863E+01 -0.51096247506E+02  0.69484908128E+02  0.47000000000E+01 0.  1.
         -5    1    5    5    0  503  0.47056766005E+02 -0.45033100105E+02  0.22841860765E+02  0.69182078135E+02  0.47000000000E+01 0.  1.
<mgrwt>
<rscale>  0 0.27454505E+03</rscale>
<asrwt>0</asrwt>
<pdfrwt beam="1">  1        1 0.32056049E-01 0.27454505E+03</pdfrwt>
<pdfrwt beam="2">  1       -1 0.13913313E-01 0.27454505E+03</pdfrwt>
<totfact> 0.50098552E+03</totfact>
</mgrwt>
</event>
<event>
 9    1  0.2094635E-002  0.2735482E+03  0.7818608E-02  0.1099266E+00
          2   -1    0    0  501    0  0.00000000000E+00  0.00000000000E+00  0.25518194578E+03  0.25518194578E+03  0.00000000000E+00 0. -1.
         -2   -1    0    0    0  501 -0.00000000000E+00 -0.00000000000E+00 -0.73309062443E+02  0.73309062443E+02  0.00000000000E+00 0. -1.
         36    2    1    2    0    0  0.00000000000E+00  0.71054273576E-14  0.18187288333E+03  0.32849100822E+03  0.27354816173E+03 0.  0.
         25    2    3    3    0    0  0.42188116701E+02  0.31409287427E+02  0.12226609915E+03  0.18262802613E+03  0.12505045542E+03 0.  0.
         25    2    3    3    0    0 -0.42188116701E+02 -0.31409287427E+02  0.59606784185E+02  0.14586298209E+03  0.12229742555E+03 0.  0.
          5    1    4    4  502    0  0.51934675604E+02  0.19249327587E+02  0.14464354276E+03  0.15495674108E+03  0.47000000000E+01 0. -1.
         -5    1    4    4    0  502 -0.97465589032E+01  0.12159959840E+02 -0.22377443614E+02  0.27671285053E+02  0.47000000000E+01 0. -1.
          5    1    5    5  503    0  0.13754622732E+02 -0.36026916985E+02 -0.23545829022E+02  0.45427133503E+02  0.47000000000E+01 0.  1.
         -5    1    5    5    0  503 -0.55942739433E+02  0.46176295580E+01  0.83152613207E+02  0.10043584859E+03  0.47000000000E+01 0.  1.
<mgrwt>
<rscale>  0 0.27354816E+03</rscale>
<asrwt>0</asrwt>
<pdfrwt beam="1">  1        2 0.39258760E-01 0.27354816E+03</pdfrwt>
<pdfrwt beam="2">  1       -2 0.11278317E-01 0.27354816E+03</pdfrwt>
<totfact> 0.70737144E+03</totfact>
</mgrwt>
</event>
<event>
 9    1  0.2094635E-002  0.2752579E+03  0.7818608E-02  0.1098308E+00
          2   -1    0    0  501    0  0.00000000000E+00  0.00000000000E+00  0.23319398035E+03  0.23319398035E+03  0.00000000000E+00 0. -1.
         -2   -1    0    0    0  501 -0.00000000000E+00 -0.00000000000E+00 -0.81227342728E+02  0.81227342728E+02  0.00000000000E+00 0. -1.
         36    2    1    2    0    0 -0.71054273576E-14  0.00000000000E+00  0.15196663762E+03  0.31442132308E+03  0.27525789627E+03 0.  0.
         25    2    3    3    0    0 -0.69617654881E+01  0.15364140365E+02  0.11876372768E+03  0.17550481193E+03  0.12811164275E+03 0.  0.
         25    2    3    3    0    0  0.69617654881E+01 -0.15364140365E+02  0.33202909940E+02  0.13891651115E+03  0.13383138964E+03 0.  0.
          5    1    4    4  502    0  0.34860736017E+02  0.94912414019E+00  0.12565408532E+03  0.13048835546E+03  0.47000000000E+01 0. -1.
         -5    1    4    4    0  502 -0.41822501505E+02  0.14415016224E+02 -0.68903576350E+01  0.45016456471E+02  0.47000000000E+01 0. -1.
          5    1    5    5  503    0 -0.60139947716E+02 -0.12887247226E+01 -0.45465889348E+01  0.60508144853E+02  0.47000000000E+01 0. -1.
         -5    1    5    5    0  503  0.67101713204E+02 -0.14075415642E+02  0.37749498874E+02  0.78408366299E+02  0.47000000000E+01 0. -1.
<mgrwt>
<rscale>  0 0.27525790E+03</rscale>
<asrwt>0</asrwt>
<pdfrwt beam="1">  1        2 0.35875997E-01 0.27525790E+03</pdfrwt>
<pdfrwt beam="2">  1       -2 0.12496514E-01 0.27525790E+03</pdfrwt>
<totfact> 0.66105253E+03</totfact>
</mgrwt>
</event>
<event>
 9    1  0.2094635E-002  0.2746787E+03  0.7818608E-02  0.1098631E+00
         -1   -1    0    0    0  501 -0.00000000000E+00  0.00000000000E+00  0.13558545275E+03  0.13558545275E+03  0.00000000000E+00 0.  1.
          1   -1    0    0  501    0  0.00000000000E+00 -0.00000000000E+00 -0.13911588514E+03  0.13911588514E+03  0.00000000000E+00 0.  1.
         36    2    1    2    0    0 -0.14210854715E-13  0.35527136788E-14 -0.35304323817E+01  0.27470133789E+03  0.27467865058E+03 0.  0.
         25    2    3    3    0    0 -0.45280071203E+02  0.16717892977E+02 -0.23337437185E+02  0.13661149323E+03  0.12565146761E+03 0.  0.
         25    2    3    3    0    0  0.45280071203E+02 -0.16717892977E+02  0.19807004804E+02  0.13808984466E+03  0.12785427238E+03 0.  0.
          5    1    4    4  502    0 -0.73937692924E+02  0.32357284941E+02  0.18896502598E+02  0.83023756444E+02  0.47000000000E+01 0. -1.
         -5    1    4    4    0  502  0.28657621722E+02 -0.15639391963E+02 -0.42233939784E+02  0.53587736782E+02  0.47000000000E+01 0. -1.
          5    1    5    5  503    0 -0.20655826077E+02  0.42764774975E+02  0.77915257176E+01  0.48355837317E+02  0.47000000000E+01 0.  1.
         -5    1    5    5    0  503  0.65935897280E+02 -0.59482667952E+02  0.12015479086E+02  0.89734007347E+02  0.47000000000E+01 0.  1.
<mgrwt>
<rscale>  0 0.27467865E+03</rscale>
<asrwt>0</asrwt>
<pdfrwt beam="1">  1        1 0.21402444E-01 0.27467865E+03</pdfrwt>
<pdfrwt beam="2">  1       -1 0.20859300E-01 0.27467865E+03</pdfrwt>
<totfact> 0.43718925E+03</totfact>
</mgrwt>
</event>
<event>
 9    1  0.2094635E-002  0.2744161E+03  0.7818608E-02  0.1098778E+00
          2   -1    0    0  501    0  0.00000000000E+00  0.00000000000E+00  0.18300153645E+04  0.18300153645E+04  0.00000000000E+00 0.  1.
         -2   -1    0    0    0  501 -0.00000000000E+00 -0.00000000000E+00 -0.10287368437E+02  0.10287368437E+02  0.00000000000E+00 0.  1.
         36    2    1    2    0    0  0.00000000000E+00  0.00000000000E+00  0.18197279961E+04  0.18403027329E+04  0.27441605128E+03 0.  0.
         25    2    3    3    0    0 -0.23423177705E+02 -0.49749326954E+02  0.71892739639E+03  0.73200739427E+03  0.12631145312E+03 0.  0.
         25    2    3    3    0    0  0.23423177705E+02  0.49749326954E+02  0.11008005997E+04  0.11082953387E+04  0.11633123700E+03 0.  0.
          5    1    4    4  502    0  0.45837788645E+02 -0.47503094504E+01  0.39399793656E+03  0.39671164884E+03  0.47000000000E+01 0.  1.
         -5    1    4    4    0  502 -0.69260966351E+02 -0.44999017504E+02  0.32492945983E+03  0.33529574543E+03  0.47000000000E+01 0.  1.
          5    1    5    5  503    0  0.10133643100E+02  0.86992223785E+02  0.68495459195E+03  0.69054704457E+03  0.47000000000E+01 0.  1.
         -5    1    5    5    0  503  0.13289534605E+02 -0.37242896830E+02  0.41584600771E+03  0.41774829410E+03  0.47000000000E+01 0.  1.
<mgrwt>
<rscale>  0 0.27441605E+03</rscale>
<asrwt>0</asrwt>
<pdfrwt beam="1">  1        2 0.28154057E+00 0.27441605E+03</pdfrwt>
<pdfrwt beam="2">  1       -2 0.15826735E-02 0.27441605E+03</pdfrwt>
<totfact> 0.99528655E+03</totfact>
</mgrwt>
</event>
<event>
 9    1  0.2094635E-002  0.2749967E+03  0.7818608E-02  0.1098453E+00
         -2   -1    0    0    0  501 -0.00000000000E+00  0.00000000000E+00  0.82171927751E+02  0.82171927751E+02  0.00000000000E+00 0. -1.
          2   -1    0    0  501    0  0.00000000000E+00 -0.00000000000E+00 -0.23007607990E+03  0.23007607990E+03  0.00000000000E+00 0. -1.
         36    2    1    2    0    0  0.00000000000E+00  0.00000000000E+00 -0.14790415215E+03  0.31224800765E+03  0.27499669100E+03 0.  0.
         25    2    3    3    0    0 -0.42206467612E+02 -0.22753933058E+02 -0.63031792145E+02  0.15389371854E+03  0.13195128801E+03 0.  0.
         25    2    3    3    0    0  0.42206467612E+02  0.22753933058E+02 -0.84872360007E+02  0.15835428911E+03  0.12479437491E+03 0.  0.
          5    1    4    4  502    0 -0.33364129570E+01  0.11866740837E+02 -0.92808954752E+02  0.93741897098E+02  0.47000000000E+01 0.  1.
         -5    1    4    4    0  502 -0.38870054655E+02 -0.34620673895E+02  0.29777162607E+02  0.60151821441E+02  0.47000000000E+01 0.  1.
          5    1    5    5  503    0  0.20256513090E+02  0.60295012652E+02 -0.10303991063E+01  0.63788451899E+02  0.47000000000E+01 0. -1.
         -5    1    5    5    0  503  0.21949954522E+02 -0.37541079594E+02 -0.83841960901E+02  0.94565837216E+02  0.47000000000E+01 0. -1.
<mgrwt>
<rscale>  0 0.27499669E+03</rscale>
<asrwt>0</asrwt>
<pdfrwt beam="1">  1        2 0.35396319E-01 0.27499669E+03</pdfrwt>
<pdfrwt beam="2">  1       -2 0.12641835E-01 0.27499669E+03</pdfrwt>
<totfact> 0.65829216E+03</totfact>
</mgrwt>
</event>
<event>
 9    1  0.2094635E-002  0.2740399E+03  0.7818608E-02  0.1098989E+00
          1   -1    0    0  501    0  0.00000000000E+00  0.00000000000E+00  0.24157809321E+03  0.24157809321E+03  0.00000000000E+00 0.  1.
         -1   -1    0    0    0  501 -0.00000000000E+00 -0.00000000000E+00 -0.77715930803E+02  0.77715930803E+02  0.00000000000E+00 0.  1.
         36    2    1    2    0    0  0.00000000000E+00  0.71054273576E-14  0.16386216241E+03  0.31929402402E+03  0.27403989765E+03 0.  0.
         25    2    3    3    0    0 -0.36144600867E+02 -0.30447734668E+02  0.11721852807E+03  0.17655509337E+03  0.12328025371E+03 0.  0.
         25    2    3    3    0    0  0.36144600867E+02  0.30447734668E+02  0.46643634346E+02  0.14273893065E+03  0.12635377707E+03 0.  0.
          5    1    4    4  502    0 -0.77635384219E+02  0.17906076455E+01  0.82532355157E+02  0.11342018694E+03  0.47000000000E+01 0.  1.
         -5    1    4    4    0  502  0.41490783352E+02 -0.32238342313E+02  0.34686172909E+02  0.63134906425E+02  0.47000000000E+01 0.  1.
          5    1    5    5  503    0  0.24525950710E+02  0.53321764317E+02  0.80666010013E+02  0.99869054164E+02  0.47000000000E+01 0. -1.
         -5    1    5    5    0  503  0.11618650157E+02 -0.22874029649E+02 -0.34022375668E+02  0.42869876486E+02  0.47000000000E+01 0. -1.
<mgrwt>
<rscale>  0 0.27403990E+03</rscale>
<asrwt>0</asrwt>
<pdfrwt beam="1">  1        1 0.37165860E-01 0.27403990E+03</pdfrwt>
<pdfrwt beam="2">  1       -1 0.11956297E-01 0.27403990E+03</pdfrwt>
<totfact> 0.52770055E+03</totfact>
</mgrwt>
</event>
<event>
 9    1  0.2094635E-002  0.2746045E+03  0.7818608E-02  0.1098673E+00
         -1   -1    0    0    0  501 -0.00000000000E+00  0.00000000000E+00  0.21447928704E+02  0.21447928704E+02  0.00000000000E+00 0. -1.
          1   -1    0    0  501    0  0.00000000000E+00 -0.00000000000E+00 -0.87896139266E+03  0.87896139266E+03  0.00000000000E+00 0. -1.
         36    2    1    2    0    0  0.71054273576E-14  0.00000000000E+00 -0.85751346395E+03  0.90040932136E+03  0.27460445214E+03 0.  0.
         25    2    3    3    0    0  0.40667065890E+01 -0.32069749150E+02 -0.54931608491E+03  0.56472072232E+03  0.12695009319E+03 0.  0.
         25    2    3    3    0    0 -0.40667065890E+01  0.32069749150E+02 -0.30819737904E+03  0.33568859904E+03  0.12905891742E+03 0.  0.
          5    1    4    4  502    0  0.27169869148E+01 -0.40256732004E+02 -0.55300574484E+03  0.55449565401E+03  0.47000000000E+01 0.  1.
         -5    1    4    4    0  502  0.13497196742E+01  0.81869828539E+01  0.36896599325E+01  0.10225068306E+02  0.47000000000E+01 0.  1.
          5    1    5    5  503    0 -0.65299716140E+02  0.11334493243E+02 -0.18334729478E+03  0.19501498447E+03  0.47000000000E+01 0. -1.
         -5    1    5    5    0  503  0.61233009551E+02  0.20735255907E+02 -0.12485008426E+03  0.14067361457E+03  0.47000000000E+01 0. -1.
<mgrwt>
<rscale>  0 0.27460445E+03</rscale>
<asrwt>0</asrwt>
<pdfrwt beam="1">  1        1 0.13522482E+00 0.27460445E+03</pdfrwt>
<pdfrwt beam="2">  1       -1 0.32996817E-02 0.27460445E+03</pdfrwt>
<totfact> 0.64918710E+03</totfact>
</mgrwt>
</event>
<event>
 9    1  0.2094635E-002  0.2746914E+03  0.7818608E-02  0.1098624E+00
          1   -1    0    0  501    0  0.00000000000E+00  0.00000000000E+00  0.12832346406E+03  0.12832346406E+03  0.00000000000E+00 0. -1.
         -1   -1    0    0    0  501 -0.00000000000E+00 -0.00000000000E+00 -0.14700232145E+03  0.14700232145E+03  0.00000000000E+00 0. -1.
         36    2    1    2    0    0 -0.88817841970E-15 -0.14210854715E-13 -0.18678857383E+02  0.27532578551E+03  0.27469144226E+03 0.  0.
         25    2    3    3    0    0  0.35821530084E+01  0.56073979502E+02 -0.20587091429E+02  0.13871847040E+03  0.12514736393E+03 0.  0.
         25    2    3    3    0    0 -0.35821530084E+01 -0.56073979502E+02  0.19082340463E+01  0.13660731511E+03  0.12450218547E+03 0.  0.
          5    1    4    4  502    0  0.33379586120E+01 -0.32085204703E+02  0.23355807235E+02  0.40102195204E+02  0.47000000000E+01 0.  1.
         -5    1    4    4    0  502  0.24419439642E+00  0.88159184206E+02 -0.43942898664E+02  0.98616275197E+02  0.47000000000E+01 0.  1.
          5    1    5    5  503    0 -0.84792367069E+01 -0.14240055756E+02  0.61283211159E+02  0.63658452801E+02  0.47000000000E+01 0. -1.
         -5    1    5    5    0  503  0.48970836985E+01 -0.41833923746E+02 -0.59374977112E+02  0.72948862307E+02  0.47000000000E+01 0. -1.
<mgrwt>
<rscale>  0 0.27469144E+03</rscale>
<asrwt>0</asrwt>
<pdfrwt beam="1">  1        1 0.19742072E-01 0.27469144E+03</pdfrwt>
<pdfrwt beam="2">  1       -1 0.22615742E-01 0.27469144E+03</pdfrwt>
<totfact> 0.42486137E+03</totfact>
</mgrwt>
</event>
<event>
 9    1  0.2094635E-002  0.2758340E+03  0.7818608E-02  0.1097986E+00
         -4   -1    0    0    0  501 -0.00000000000E+00  0.00000000000E+00  0.95676214310E+03  0.95676214310E+03  0.00000000000E+00 0.  1.
          4   -1    0    0  501    0  0.00000000000E+00 -0.00000000000E+00 -0.19880699849E+02  0.19880699849E+02  0.00000000000E+00 0.  1.
         36    2    1    2    0    0  0.71054273576E-14  0.71054273576E-14  0.93688144325E+03  0.97664284295E+03  0.27583401526E+03 0.  0.
         25    2    3    3    0    0  0.43103713819E+02  0.21330879877E+02  0.35906598645E+03  0.38337265727E+03  0.12543235283E+03 0.  0.
         25    2    3    3    0    0 -0.43103713819E+02 -0.21330879877E+02  0.57781545680E+03  0.59327018568E+03  0.12564185018E+03 0.  0.
          5    1    4    4  502    0 -0.31900656032E+02 -0.16794538640E+02  0.20085215710E+03  0.20411611253E+03  0.47000000000E+01 0.  1.
         -5    1    4    4    0  502  0.75004369851E+02  0.38125418518E+02  0.15821382935E+03  0.17925654474E+03  0.47000000000E+01 0.  1.
          5    1    5    5  503    0  0.10417073212E+02  0.29286645357E+02  0.42361993643E+02  0.52752739417E+02  0.47000000000E+01 0. -1.
         -5    1    5    5    0  503 -0.53520787031E+02 -0.50617525235E+02  0.53545346316E+03  0.54051744626E+03  0.47000000000E+01 0. -1.
<mgrwt>
<rscale>  0 0.27583402E+03</rscale>
<asrwt>0</asrwt>
<pdfrwt beam="1">  1        4 0.30585700E-02 0.27583402E+03</pdfrwt>
<pdfrwt beam="2">  1       -4 0.14719414E+00 0.27583402E+03</pdfrwt>
<totfact> 0.32528712E+02</totfact>
</mgrwt>
</event>
<event>
 9    1  0.2094635E-002  0.2754292E+03  0.7818608E-02  0.1098212E+00
          2   -1    0    0  501    0  0.00000000000E+00  0.00000000000E+00  0.42073472013E+03  0.42073472013E+03  0.00000000000E+00 0.  1.
         -2   -1    0    0    0  501 -0.00000000000E+00 -0.00000000000E+00 -0.45076662451E+02  0.45076662451E+02  0.00000000000E+00 0.  1.
         36    2    1    2    0    0 -0.71054273576E-14  0.00000000000E+00  0.37565805768E+03  0.46581138259E+03  0.27542924290E+03 0.  0.
         25    2    3    3    0    0 -0.33847330568E+02 -0.42499076188E+02  0.22777421629E+03  0.26637018627E+03  0.12696522855E+03 0.  0.
         25    2    3    3    0    0  0.33847330568E+02  0.42499076188E+02  0.14788384139E+03  0.19944119632E+03  0.12229205608E+03 0.  0.
          5    1    4    4  502    0 -0.28760364084E+01  0.17676193852E+02  0.18553048577E+03  0.18645205970E+03  0.47000000000E+01 0.  1.
         -5    1    4    4    0  502 -0.30971294159E+02 -0.60175270041E+02  0.42243730520E+02  0.79918126571E+02  0.47000000000E+01 0.  1.
          5    1    5    5  503    0  0.74737698808E+02  0.37097465746E+01  0.10211406870E+03  0.12668409083E+03  0.47000000000E+01 0. -1.
         -5    1    5    5    0  503 -0.40890368240E+02  0.38789329614E+02  0.45769772687E+02  0.72757105485E+02  0.47000000000E+01 0. -1.
<mgrwt>
<rscale>  0 0.27542924E+03</rscale>
<asrwt>0</asrwt>
<pdfrwt beam="1">  1        2 0.64728416E-01 0.27542924E+03</pdfrwt>
<pdfrwt beam="2">  1       -2 0.69348714E-02 0.27542924E+03</pdfrwt>
<totfact> 0.88706943E+03</totfact>
</mgrwt>
</event>
<event>
 9    1  0.2094635E-002  0.2689323E+03  0.7818608E-02  0.1101892E+00
         -1   -1    0    0    0  501 -0.00000000000E+00  0.00000000000E+00  0.45523275729E+02  0.45523275729E+02  0.00000000000E+00 0.  1.
          1   -1    0    0  501    0  0.00000000000E+00 -0.00000000000E+00 -0.39718460859E+03  0.39718460859E+03  0.00000000000E+00 0.  1.
         36    2    1    2    0    0 -0.14210854715E-13  0.00000000000E+00 -0.35166133286E+03  0.44270788432E+03  0.26893229224E+03 0.  0.
         25    2    3    3    0    0  0.46493917382E+02  0.62124735257E+01 -0.14060944502E+03  0.19184718287E+03  0.12179509993E+03 0.  0.
         25    2    3    3    0    0 -0.46493917382E+02 -0.62124735257E+01 -0.21105188784E+03  0.25086070144E+03  0.12723172948E+03 0.  0.
          5    1    4    4  502    0  0.10961827469E+01 -0.54277858324E+02 -0.64678391692E+02  0.84573470265E+02  0.47000000000E+01 0.  1.
         -5    1    4    4    0  502  0.45397734635E+02  0.60490331850E+02 -0.75931053328E+02  0.10727371261E+03  0.47000000000E+01 0.  1.
          5    1    5    5  503    0  0.11899927519E+02 -0.20992233924E+02 -0.18229969078E+03  0.18394985572E+03  0.47000000000E+01 0.  1.
         -5    1    5    5    0  503 -0.58393844900E+02  0.14779760398E+02 -0.28752197055E+02  0.66910845721E+02  0.47000000000E+01 0.  1.
<mgrwt>
<rscale>  0 0.26893229E+03</rscale>
<asrwt>0</asrwt>
<pdfrwt beam="1">  1        1 0.61105326E-01 0.26893229E+03</pdfrwt>
<pdfrwt beam="2">  1       -1 0.70035807E-02 0.26893229E+03</pdfrwt>
<totfact> 0.64106464E+03</totfact>
</mgrwt>
</event>
<event>
 9    1  0.2094635E-002  0.2748566E+03  0.7818608E-02  0.1098532E+00
          2   -1    0    0  501    0  0.00000000000E+00  0.00000000000E+00  0.13813431695E+04  0.13813431695E+04  0.00000000000E+00 0. -1.
         -2   -1    0    0    0  501 -0.00000000000E+00 -0.00000000000E+00 -0.13672593837E+02  0.13672593837E+02  0.00000000000E+00 0. -1.
         36    2    1    2    0    0  0.00000000000E+00  0.71054273576E-14  0.13676705756E+04  0.13950157633E+04  0.27485664704E+03 0.  0.
         25    2    3    3    0    0  0.25627672050E+02 -0.45915865412E+02  0.74123753224E+03  0.75386616545E+03  0.12694909187E+03 0.  0.
         25    2    3    3    0    0 -0.25627672050E+02  0.45915865412E+02  0.62643304338E+03  0.64114959786E+03  0.12605318210E+03 0.  0.
          5    1    4    4  502    0 -0.37566161522E+02 -0.23409836286E+01  0.48125915016E+03  0.48275165075E+03  0.47000000000E+01 0.  1.
         -5    1    4    4    0  502  0.63193833572E+02 -0.43574881784E+02  0.25997838209E+03  0.27111451469E+03  0.47000000000E+01 0.  1.
          5    1    5    5  503    0  0.48989851601E+02  0.81297106236E+01  0.17320562845E+03  0.18024532583E+03  0.47000000000E+01 0.  1.
         -5    1    5    5    0  503 -0.74617523651E+02  0.37786154789E+02  0.45322741493E+03  0.46090427203E+03  0.47000000000E+01 0.  1.
<mgrwt>
<rscale>  0 0.27485665E+03</rscale>
<asrwt>0</asrwt>
<pdfrwt beam="1">  1        2 0.21251422E+00 0.27485665E+03</pdfrwt>
<pdfrwt beam="2">  1       -2 0.21034771E-02 0.27485665E+03</pdfrwt>
<totfact> 0.11349323E+04</totfact>
</mgrwt>
</event>
<event>
 9    1  0.2094635E-002  0.2749564E+03  0.7818608E-02  0.1098476E+00
          2   -1    0    0  501    0  0.00000000000E+00  0.00000000000E+00  0.11860847227E+04  0.11860847227E+04  0.00000000000E+00 0.  1.
         -2   -1    0    0    0  501 -0.00000000000E+00 -0.00000000000E+00 -0.15934995540E+02  0.15934995540E+02  0.00000000000E+00 0.  1.
         36    2    1    2    0    0 -0.71054273576E-14  0.00000000000E+00  0.11701497271E+04  0.12020197182E+04  0.27495639484E+03 0.  0.
         25    2    3    3    0    0 -0.13843622137E+02  0.51359111359E+02  0.51839925951E+03  0.53568148594E+03  0.12404619268E+03 0.  0.
         25    2    3    3    0    0  0.13843622137E+02 -0.51359111359E+02  0.65175046762E+03  0.66633823228E+03  0.12805687625E+03 0.  0.
          5    1    4    4  502    0 -0.39724949301E+02  0.65052839629E+02  0.17416567430E+03  0.19017285728E+03  0.47000000000E+01 0.  1.
         -5    1    4    4    0  502  0.25881327164E+02 -0.13693728270E+02  0.34423358522E+03  0.34550862866E+03  0.47000000000E+01 0.  1.
          5    1    5    5  503    0  0.55451631981E+02  0.77701453459E+01  0.16692235853E+03  0.17612615486E+03  0.47000000000E+01 0. -1.
         -5    1    5    5    0  503 -0.41608009844E+02 -0.59129256705E+02  0.48482810909E+03  0.49021207742E+03  0.47000000000E+01 0. -1.
<mgrwt>
<rscale>  0 0.27495639E+03</rscale>
<asrwt>0</asrwt>
<pdfrwt beam="1">  1        2 0.18247450E+00 0.27495639E+03</pdfrwt>
<pdfrwt beam="2">  1       -2 0.24515387E-02 0.27495639E+03</pdfrwt>
<totfact> 0.11627212E+04</totfact>
</mgrwt>
</event>
<event>
 9    1  0.2094635E-002  0.2752388E+03  0.7818608E-02  0.1098318E+00
         -2   -1    0    0    0  501 -0.00000000000E+00  0.00000000000E+00  0.10415827332E+03  0.10415827332E+03  0.00000000000E+00 0. -1.
          2   -1    0    0  501    0  0.00000000000E+00 -0.00000000000E+00 -0.18183006613E+03  0.18183006613E+03  0.00000000000E+00 0. -1.
         36    2    1    2    0    0  0.00000000000E+00  0.00000000000E+00 -0.77671792812E+02  0.28598833944E+03  0.27523884700E+03 0.  0.
         25    2    3    3    0    0 -0.86404533107E+01  0.15421841838E+02  0.18963333197E+02  0.12582294713E+03  0.12312317158E+03 0.  0.
         25    2    3    3    0    0  0.86404533107E+01 -0.15421841838E+02 -0.96635126009E+02  0.16016539232E+03  0.12649946513E+03 0.  0.
          5    1    4    4  502    0  0.38765968676E+02  0.34649088519E+01  0.53103569971E+02  0.66006704693E+02  0.47000000000E+01 0. -1.
         -5    1    4    4    0  502 -0.47406421987E+02  0.11956932986E+02 -0.34140236774E+02  0.59816242435E+02  0.47000000000E+01 0. -1.
          5    1    5    5  503    0 -0.15858614654E+01 -0.20546419139E+02 -0.12628411664E+03  0.12804076855E+03  0.47000000000E+01 0.  1.
         -5    1    5    5    0  503  0.10226314776E+02  0.51245773004E+01  0.29648990632E+02  0.32124623763E+02  0.47000000000E+01 0.  1.
<mgrwt>
<rscale>  0 0.27523885E+03</rscale>
<asrwt>0</asrwt>
<pdfrwt beam="1">  1        2 0.27973856E-01 0.27523885E+03</pdfrwt>
<pdfrwt beam="2">  1       -2 0.16024350E-01 0.27523885E+03</pdfrwt>
<totfact> 0.57681462E+03</totfact>
</mgrwt>
</event>
<event>
 9    1  0.2094635E-002  0.2747127E+03  0.7818608E-02  0.1098612E+00
         -2   -1    0    0    0  501 -0.00000000000E+00  0.00000000000E+00  0.11806894368E+02  0.11806894368E+02  0.00000000000E+00 0.  1.
          2   -1    0    0  501    0  0.00000000000E+00 -0.00000000000E+00 -0.15979451857E+04  0.15979451857E+04  0.00000000000E+00 0.  1.
         36    2    1    2    0    0  0.00000000000E+00 -0.71054273576E-14 -0.15861382914E+04  0.16097520801E+04  0.27471272277E+03 0.  0.
         25    2    3    3    0    0 -0.25674745823E+02 -0.21239672126E+02 -0.52668955309E+03  0.54248508349E+03  0.12560996867E+03 0.  0.
         25    2    3    3    0    0  0.25674745823E+02  0.21239672126E+02 -0.10594487383E+04  0.10672669966E+04  0.12456683658E+03 0.  0.
          5    1    4    4  502    0 -0.46600633548E+02 -0.57835209477E+02 -0.20656476552E+03  0.21956234390E+03  0.47000000000E+01 0. -1.
         -5    1    4    4    0  502  0.20925887725E+02  0.36595537352E+02 -0.32012478756E+03  0.32292273959E+03  0.47000000000E+01 0. -1.
          5    1    5    5  503    0  0.18918446303E+02  0.42847877122E+02 -0.10231299893E+04  0.10242123379E+04  0.47000000000E+01 0.  1.
         -5    1    5    5    0  503  0.67562995208E+01 -0.21608204996E+02 -0.36318748999E+02  0.43054658693E+02  0.47000000000E+01 0.  1.
<mgrwt>
<rscale>  0 0.27471272E+03</rscale>
<asrwt>0</asrwt>
<pdfrwt beam="1">  1        2 0.24583764E+00 0.27471272E+03</pdfrwt>
<pdfrwt beam="2">  1       -2 0.18164459E-02 0.27471272E+03</pdfrwt>
<totfact> 0.10776130E+04</totfact>
</mgrwt>
</event>
<event>
 9    1  0.2094635E-002  0.2759874E+03  0.7818608E-02  0.1097901E+00
          1   -1    0    0  501    0  0.00000000000E+00  0.00000000000E+00  0.23634755116E+03  0.23634755116E+03  0.00000000000E+00 0. -1.
         -1   -1    0    0    0  501 -0.00000000000E+00 -0.00000000000E+00 -0.80568881218E+02  0.80568881218E+02  0.00000000000E+00 0. -1.
         36    2    1    2    0    0  0.00000000000E+00  0.00000000000E+00  0.15577866995E+03  0.31691643238E+03  0.27598737490E+03 0.  0.
         25    2    3    3    0    0  0.33237588602E+02 -0.16814771828E+02  0.35361152971E+02  0.13522221995E+03  0.12508862371E+03 0.  0.
         25    2    3    3    0    0 -0.33237588602E+02  0.16814771828E+02  0.12041751697E+03  0.18169421243E+03  0.13086227336E+03 0.  0.
          5    1    4    4  502    0  0.34183169021E+02  0.50866008325E+02  0.76812656040E+01  0.61942971260E+02  0.47000000000E+01 0. -1.
         -5    1    4    4    0  502 -0.94558041853E+00 -0.67680780154E+02  0.27679887367E+02  0.73279248694E+02  0.47000000000E+01 0. -1.
          5    1    5    5  503    0 -0.20836973606E+01 -0.53928509554E+02  0.72941034440E+02  0.90857638329E+02  0.47000000000E+01 0.  1.
         -5    1    5    5    0  503 -0.31153891242E+02  0.70743281382E+02  0.47476482535E+02  0.90836574099E+02  0.47000000000E+01 0.  1.
<mgrwt>
<rscale>  0 0.27598737E+03</rscale>
<asrwt>0</asrwt>
<pdfrwt beam="1">  1        1 0.36361161E-01 0.27598737E+03</pdfrwt>
<pdfrwt beam="2">  1       -1 0.12395213E-01 0.27598737E+03</pdfrwt>
<totfact> 0.51279705E+03</totfact>
</mgrwt>
</event>
<event>
 9    1  0.2094635E-002  0.2716345E+03  0.7818608E-02  0.1100348E+00
         -1   -1    0    0    0  501 -0.00000000000E+00  0.00000000000E+00  0.10866228940E+03  0.10866228940E+03  0.00000000000E+00 0. -1.
          1   -1    0    0  501    0  0.00000000000E+00 -0.00000000000E+00 -0.16975835158E+03  0.16975835158E+03  0.00000000000E+00 0. -1.
         36    2    1    2    0    0 -0.35527136788E-14 -0.71054273576E-14 -0.61096062180E+02  0.27842064098E+03  0.27163454219E+03 0.  0.
         25    2    3    3    0    0 -0.12901177252E+02  0.21601637163E+02  0.20694546682E+01  0.12999361318E+03  0.12751857010E+03 0.  0.
         25    2    3    3    0    0  0.12901177252E+02 -0.21601637163E+02 -0.63165516848E+02  0.14842702780E+03  0.13193797392E+03 0.  0.
          5    1    4    4  502    0 -0.12733208043E+02  0.15371750280E+02 -0.62075770106E+02  0.65375198110E+02  0.47000000000E+01 0.  1.
         -5    1    4    4    0  502 -0.16796920872E+00  0.62298868834E+01  0.64145224774E+02  0.64618415065E+02  0.47000000000E+01 0.  1.
          5    1    5    5  503    0  0.31031115496E+02 -0.67992754044E+02 -0.63822026400E+02  0.98393525118E+02  0.47000000000E+01 0.  1.
         -5    1    5    5    0  503 -0.18129938244E+02  0.46391116881E+02  0.65650955214E+00  0.50033502686E+02  0.47000000000E+01 0.  1.
<mgrwt>
<rscale>  0 0.27163454E+03</rscale>
<asrwt>0</asrwt>
<pdfrwt beam="1">  1        1 0.26116669E-01 0.27163454E+03</pdfrwt>
<pdfrwt beam="2">  1       -1 0.16717275E-01 0.27163454E+03</pdfrwt>
<totfact> 0.48469447E+03</totfact>
</mgrwt>
</event>
<event>
 9    1  0.2094635E-002  0.2727113E+03  0.7818608E-02  0.1099738E+00
         -2   -1    0    0    0  501 -0.00000000000E+00  0.00000000000E+00  0.46069861985E+02  0.46069861985E+02  0.00000000000E+00 0.  1.
          2   -1    0    0  501    0  0.00000000000E+00 -0.00000000000E+00 -0.40357964691E+03  0.40357964691E+03  0.00000000000E+00 0.  1.
         36    2    1    2    0    0  0.00000000000E+00  0.00000000000E+00 -0.35750978492E+03  0.44964950889E+03  0.27271126587E+03 0.  0.
         25    2    3    3    0    0  0.23429293207E+02 -0.51920438547E+02 -0.20093738594E+03  0.24114311694E+03  0.12053840076E+03 0.  0.
         25    2    3    3    0    0 -0.23429293207E+02  0.51920438547E+02 -0.15657239898E+03  0.20850639196E+03  0.12536082182E+03 0.  0.
          5    1    4    4  502    0  0.47276817255E+02 -0.78302756188E+02 -0.10849612384E+03  0.14198562591E+03  0.47000000000E+01 0.  1.
         -5    1    4    4    0  502 -0.23847524048E+02  0.26382317641E+02 -0.92441262107E+02  0.99157491030E+02  0.47000000000E+01 0.  1.
          5    1    5    5  503    0 -0.62285217188E+02  0.53050218636E+02 -0.14683896410E+03  0.16815928567E+03  0.47000000000E+01 0.  1.
         -5    1    5    5    0  503  0.38855923981E+02 -0.11297800891E+01 -0.97334348768E+01  0.40347106290E+02  0.47000000000E+01 0.  1.
<mgrwt>
<rscale>  0 0.27271127E+03</rscale>
<asrwt>0</asrwt>
<pdfrwt beam="1">  1        2 0.62089178E-01 0.27271127E+03</pdfrwt>
<pdfrwt beam="2">  1       -2 0.70876710E-02 0.27271127E+03</pdfrwt>
<totfact> 0.89709160E+03</totfact>
</mgrwt>
</event>
<event>
 9    1  0.2094635E-002  0.2706979E+03  0.7818608E-02  0.1100881E+00
         -1   -1    0    0    0  501 -0.00000000000E+00  0.00000000000E+00  0.42202947955E+02  0.42202947955E+02  0.00000000000E+00 0.  1.
          1   -1    0    0  501    0  0.00000000000E+00 -0.00000000000E+00 -0.43407733800E+03  0.43407733800E+03  0.00000000000E+00 0.  1.
         36    2    1    2    0    0  0.35527136788E-14  0.00000000000E+00 -0.39187439005E+03  0.47628028596E+03  0.27069793722E+03 0.  0.
         25    2    3    3    0    0 -0.27441205817E+02  0.45861555625E+02 -0.20871765096E+03  0.25020415730E+03  0.12721147922E+03 0.  0.
         25    2    3    3    0    0  0.27441205817E+02 -0.45861555625E+02 -0.18315673909E+03  0.22607612866E+03  0.12127540070E+03 0.  0.
          5    1    4    4  502    0 -0.14147306126E+02  0.22960811084E+02 -0.21952133399E+03  0.22122172405E+03  0.47000000000E+01 0. -1.
         -5    1    4    4    0  502 -0.13293899692E+02  0.22900744541E+02  0.10803683034E+02  0.28982433243E+02  0.47000000000E+01 0. -1.
          5    1    5    5  503    0  0.56754183040E+01  0.17825374465E+02  0.98208338025E+01  0.21644701992E+02  0.47000000000E+01 0.  1.
         -5    1    5    5    0  503  0.21765787513E+02 -0.63686930090E+02 -0.19297757289E+03  0.20443142667E+03  0.47000000000E+01 0.  1.
<mgrwt>
<rscale>  0 0.27069794E+03</rscale>
<asrwt>0</asrwt>
<pdfrwt beam="1">  1        1 0.66781131E-01 0.27069794E+03</pdfrwt>
<pdfrwt beam="2">  1       -1 0.64927610E-02 0.27069794E+03</pdfrwt>
<totfact> 0.64141626E+03</totfact>
</mgrwt>
</event>
<event>
 9    1  0.2094635E-002  0.2753729E+03  0.7818608E-02  0.1098243E+00
         -2   -1    0    0    0  501 -0.00000000000E+00  0.00000000000E+00  0.10163434646E+03  0.10163434646E+03  0.00000000000E+00 0.  1.
          2   -1    0    0  501    0  0.00000000000E+00 -0.00000000000E+00 -0.18652704680E+03  0.18652704680E+03  0.00000000000E+00 0.  1.
         36    2    1    2    0    0  0.00000000000E+00  0.00000000000E+00 -0.84892700346E+02  0.28816139326E+03  0.27537287084E+03 0.  0.
         25    2    3    3    0    0 -0.53219718682E+02  0.23654533410E+02 -0.40360974581E+02  0.14456192469E+03  0.12600502527E+03 0.  0.
         25    2    3    3    0    0  0.53219718682E+02 -0.23654533410E+02 -0.44531725765E+02  0.14359946857E+03  0.12347411618E+03 0.  0.
          5    1    4    4  502    0  0.16756935488E+02  0.56986661657E+02 -0.68143068565E+01  0.59973321333E+02  0.47000000000E+01 0.  1.
         -5    1    4    4    0  502 -0.69976654170E+02 -0.33332128247E+02 -0.33546667725E+02  0.84588603356E+02  0.47000000000E+01 0.  1.
          5    1    5    5  503    0  0.68136485286E+02 -0.63430558465E+02 -0.36551681793E+02  0.10012058638E+03  0.47000000000E+01 0.  1.
         -5    1    5    5    0  503 -0.14916766604E+02  0.39776025054E+02 -0.79800439720E+01  0.43478882194E+02  0.47000000000E+01 0.  1.
<mgrwt>
<rscale>  0 0.27537287E+03</rscale>
<asrwt>0</asrwt>
<pdfrwt beam="1">  1        2 0.28696469E-01 0.27537287E+03</pdfrwt>
<pdfrwt beam="2">  1       -2 0.15636053E-01 0.27537287E+03</pdfrwt>
<totfact> 0.58416167E+03</totfact>
</mgrwt>
</event>
<event>
 9    1  0.2094635E-002  0.2749581E+03  0.7818608E-02  0.1098475E+00
         -1   -1    0    0    0  501 -0.00000000000E+00  0.00000000000E+00  0.53348404744E+02  0.53348404744E+02  0.00000000000E+00 0.  1.
          1   -1    0    0  501    0  0.00000000000E+00 -0.00000000000E+00 -0.35428394995E+03  0.35428394995E+03  0.00000000000E+00 0.  1.
         36    2    1    2    0    0  0.00000000000E+00  0.35527136788E-14 -0.30093554521E+03  0.40763235469E+03  0.27495805903E+03 0.  0.
         25    2    3    3    0    0 -0.13987986077E+01 -0.24956849349E+02 -0.83670095490E+02  0.15321914905E+03  0.12589925254E+03 0.  0.
         25    2    3    3    0    0  0.13987986077E+01  0.24956849349E+02 -0.21726544972E+03  0.25441320564E+03  0.12998847102E+03 0.  0.
          5    1    4    4  502    0  0.52714143997E+01  0.30204327757E+02 -0.91771739698E+02  0.96872242837E+02  0.47000000000E+01 0. -1.
         -5    1    4    4    0  502 -0.66702130074E+01 -0.55161177105E+02  0.81016442081E+01  0.56346906216E+02  0.47000000000E+01 0. -1.
          5    1    5    5  503    0 -0.58836553089E+02  0.22827058341E+01 -0.14993507588E+03  0.16115076079E+03  0.47000000000E+01 0.  1.
         -5    1    5    5    0  503  0.60235351696E+02  0.22674143514E+02 -0.67330373840E+02  0.93262444850E+02  0.47000000000E+01 0.  1.
<mgrwt>
<rscale>  0 0.27495806E+03</rscale>
<asrwt>0</asrwt>
<pdfrwt beam="1">  1        1 0.54505222E-01 0.27495806E+03</pdfrwt>
<pdfrwt beam="2">  1       -1 0.82074470E-02 0.27495806E+03</pdfrwt>
<totfact> 0.58284969E+03</totfact>
</mgrwt>
</event>
<event>
 9    1  0.2094635E-002  0.2745090E+03  0.7818608E-02  0.1098726E+00
          2   -1    0    0  501    0  0.00000000000E+00  0.00000000000E+00  0.14089312489E+03  0.14089312489E+03  0.00000000000E+00 0.  1.
         -2   -1    0    0    0  501 -0.00000000000E+00 -0.00000000000E+00 -0.13370986004E+03  0.13370986004E+03  0.00000000000E+00 0.  1.
         36    2    1    2    0    0 -0.17763568394E-14  0.00000000000E+00  0.71832648532E+01  0.27460298493E+03  0.27450901632E+03 0.  0.
         25    2    3    3    0    0  0.31690609579E+01  0.25650585645E+02 -0.36983736351E+02  0.13650714116E+03  0.12883480641E+03 0.  0.
         25    2    3    3    0    0 -0.31690609579E+01 -0.25650585645E+02  0.44167001205E+02  0.13809584377E+03  0.12826434649E+03 0.  0.
          5    1    4    4  502    0  0.65436018918E+02  0.74024156301E+01 -0.23424482649E+02  0.70053299111E+02  0.47000000000E+01 0. -1.
         -5    1    4    4    0  502 -0.62266957960E+02  0.18248170015E+02 -0.13559253703E+02  0.66453842052E+02  0.47000000000E+01 0. -1.
          5    1    5    5  503    0  0.43211981500E+01 -0.60779576171E+02  0.70507199600E+02  0.93306938801E+02  0.47000000000E+01 0. -1.
         -5    1    5    5    0  503 -0.74902591078E+01  0.35128990526E+02 -0.26340198395E+02  0.44788904970E+02  0.47000000000E+01 0. -1.
<mgrwt>
<rscale>  0 0.27450902E+03</rscale>
<asrwt>0</asrwt>
<pdfrwt beam="1">  1        2 0.21675865E-01 0.27450902E+03</pdfrwt>
<pdfrwt beam="2">  1       -2 0.20570748E-01 0.27450902E+03</pdfrwt>
<totfact> 0.50317708E+03</totfact>
</mgrwt>
</event>
<event>
 9    1  0.2094635E-002  0.2799590E+03  0.7818608E-02  0.1095711E+00
          2   -1    0    0  501    0  0.00000000000E+00  0.00000000000E+00  0.23941380248E+03  0.23941380248E+03  0.00000000000E+00 0. -1.
         -2   -1    0    0    0  501 -0.00000000000E+00 -0.00000000000E+00 -0.81842627306E+02  0.81842627306E+02  0.00000000000E+00 0. -1.
         36    2    1    2    0    0  0.00000000000E+00 -0.17763568394E-14  0.15757117517E+03  0.32125642979E+03  0.27995895848E+03 0.  0.
         25    2    3    3    0    0 -0.93843738481E+01 -0.13327530275E+02  0.66164161109E+02  0.16484772565E+03  0.15010458654E+03 0.  0.
         25    2    3    3    0    0  0.93843738481E+01  0.13327530275E+02  0.91407014065E+02  0.15640870414E+03  0.12586799027E+03 0.  0.
          5    1    4    4  502    0 -0.45052684701E+02  0.43553290469E+02  0.74009921147E+02  0.97088577791E+02  0.47000000000E+01 0. -1.
         -5    1    4    4    0  502  0.35668310853E+02 -0.56880820744E+02 -0.78457600374E+01  0.67759147856E+02  0.47000000000E+01 0. -1.
          5    1    5    5  503    0  0.60921842562E+02  0.11581505225E+02  0.83365527194E+02  0.10400722710E+03  0.47000000000E+01 0.  1.
         -5    1    5    5    0  503 -0.51537468714E+02  0.17460250504E+01  0.80414868706E+01  0.52401477041E+02  0.47000000000E+01 0.  1.
<mgrwt>
<rscale>  0 0.27995896E+03</rscale>
<asrwt>0</asrwt>
<pdfrwt beam="1">  1        2 0.36832892E-01 0.27995896E+03</pdfrwt>
<pdfrwt beam="2">  1       -2 0.12591174E-01 0.27995896E+03</pdfrwt>
<totfact> 0.63503623E+03</totfact>
</mgrwt>
</event>
<event>
 9    1  0.2094635E-002  0.2751199E+03  0.7818608E-02  0.1098385E+00
         -2   -1    0    0    0  501 -0.00000000000E+00  0.00000000000E+00  0.18714472774E+02  0.18714472774E+02  0.00000000000E+00 0.  1.
          2   -1    0    0  501    0  0.00000000000E+00 -0.00000000000E+00 -0.10111286631E+04  0.10111286631E+04  0.00000000000E+00 0.  1.
         36    2    1    2    0    0  0.71054273576E-14  0.00000000000E+00 -0.99241419035E+03  0.10298431359E+04  0.27511989995E+03 0.  0.
         25    2    3    3    0    0  0.21577008866E+02  0.49604760877E+02 -0.62100324086E+03  0.63579309850E+03  0.12514647151E+03 0.  0.
         25    2    3    3    0    0 -0.21577008866E+02 -0.49604760877E+02 -0.37141094949E+03  0.39405003740E+03  0.12001307828E+03 0.  0.
          5    1    4    4  502    0  0.67657969685E+02  0.31703154619E+02 -0.23572739703E+03  0.24733011661E+03  0.47000000000E+01 0.  1.
         -5    1    4    4    0  502 -0.46080960819E+02  0.17901606257E+02 -0.38527584383E+03  0.38846298189E+03  0.47000000000E+01 0.  1.
          5    1    5    5  503    0  0.37885417642E+02  0.97438898692E+00 -0.48106738311E+02  0.61421515568E+02  0.47000000000E+01 0. -1.
         -5    1    5    5    0  503 -0.59462426508E+02 -0.50579149864E+02 -0.32330421118E+03  0.33262852183E+03  0.47000000000E+01 0. -1.
<mgrwt>
<rscale>  0 0.27511990E+03</rscale>
<asrwt>0</asrwt>
<pdfrwt beam="1">  1        2 0.15555830E+00 0.27511990E+03</pdfrwt>
<pdfrwt beam="2">  1       -2 0.28791489E-02 0.27511990E+03</pdfrwt>
<totfact> 0.11612299E+04</totfact>
</mgrwt>
</event>
<event>
 9    1  0.2094635E-002  0.2746426E+03  0.7818608E-02  0.1098652E+00
          4   -1    0    0  501    0  0.00000000000E+00  0.00000000000E+00  0.17544514917E+03  0.17544514917E+03  0.00000000000E+00 0. -1.
         -4   -1    0    0    0  501 -0.00000000000E+00 -0.00000000000E+00 -0.10748164448E+03  0.10748164448E+03  0.00000000000E+00 0. -1.
         36    2    1    2    0    0  0.35527136788E-14  0.00000000000E+00  0.67963504691E+02  0.28292679364E+03  0.27464255422E+03 0.  0.
         25    2    3    3    0    0 -0.14811914798E+02  0.51170385125E+02  0.59826104086E+02  0.14677285431E+03  0.12298498647E+03 0.  0.
         25    2    3    3    0    0  0.14811914798E+02 -0.51170385125E+02  0.81374006052E+01  0.13615393933E+03  0.12503550205E+03 0.  0.
          5    1    4    4  502    0 -0.15141574340E+02 -0.30938468038E+02 -0.12806460730E+02  0.37047962352E+02  0.47000000000E+01 0.  1.
         -5    1    4    4    0  502  0.32965954181E+00  0.82108853162E+02  0.72632564815E+02  0.10972489196E+03  0.47000000000E+01 0.  1.
          5    1    5    5  503    0 -0.27287453058E+02 -0.70367076402E+01 -0.46208191023E+02  0.54326855849E+02  0.47000000000E+01 0. -1.
         -5    1    5    5    0  503  0.42099367857E+02 -0.44133677484E+02  0.54345591629E+02  0.81827083485E+02  0.47000000000E+01 0. -1.
<mgrwt>
<rscale>  0 0.27464255E+03</rscale>
<asrwt>0</asrwt>
<pdfrwt beam="1">  1        4 0.26991561E-01 0.27464255E+03</pdfrwt>
<pdfrwt beam="2">  1       -4 0.16535638E-01 0.27464255E+03</pdfrwt>
<totfact> 0.77247249E+02</totfact>
</mgrwt>
</event>
<event>
 9    1  0.2094635E-002  0.2752746E+03  0.7818608E-02  0.1098298E+00
         -2   -1    0    0    0  501 -0.00000000000E+00  0.00000000000E+00  0.16379699540E+03  0.16379699540E+03  0.00000000000E+00 0.  1.
          2   -1    0    0  501    0  0.00000000000E+00 -0.00000000000E+00 -0.11565549764E+03  0.11565549764E+03  0.00000000000E+00 0.  1.
         36    2    1    2    0    0 -0.71054273576E-14 -0.71054273576E-14  0.48141497757E+02  0.27945249303E+03  0.27527457575E+03 0.  0.
         25    2    3    3    0    0  0.28600606992E+02 -0.90491924461E+01  0.31316553207E+02  0.13307766490E+03  0.12581357552E+03 0.  0.
         25    2    3    3    0    0 -0.28600606992E+02  0.90491924461E+01  0.16824944550E+02  0.14637482813E+03  0.14227659311E+03 0.  0.
          5    1    4    4  502    0 -0.32371827032E+02 -0.44731308823E+02 -0.58850542744E+00  0.55418963479E+02  0.47000000000E+01 0. -1.
         -5    1    4    4    0  502  0.60972434024E+02  0.35682116377E+02  0.31905058634E+02  0.77658701421E+02  0.47000000000E+01 0. -1.
          5    1    5    5  503    0  0.74901465914E+01 -0.40905084522E+02  0.58428695540E+02  0.71870235134E+02  0.47000000000E+01 0.  1.
         -5    1    5    5    0  503 -0.36090753583E+02  0.49954276969E+02 -0.41603750990E+02  0.74504593000E+02  0.47000000000E+01 0.  1.
<mgrwt>
<rscale>  0 0.27527458E+03</rscale>
<asrwt>0</asrwt>
<pdfrwt beam="1">  1        2 0.17793153E-01 0.27527458E+03</pdfrwt>
<pdfrwt beam="2">  1       -2 0.25199538E-01 0.27527458E+03</pdfrwt>
<totfact> 0.44328543E+03</totfact>
</mgrwt>
</event>
<event>
 9    1  0.2094635E-002  0.2751120E+03  0.7818608E-02  0.1098389E+00
         -2   -1    0    0    0  501 -0.00000000000E+00  0.00000000000E+00  0.12219892218E+03  0.12219892218E+03  0.00000000000E+00 0.  1.
          2   -1    0    0  501    0  0.00000000000E+00 -0.00000000000E+00 -0.15484301444E+03  0.15484301444E+03  0.00000000000E+00 0.  1.
         36    2    1    2    0    0  0.00000000000E+00  0.00000000000E+00 -0.32644092256E+02  0.27704193662E+03  0.27511197337E+03 0.  0.
         25    2    3    3    0    0  0.28634456860E+02  0.50085624117E+01  0.46403964167E+02  0.13525149312E+03  0.12367142226E+03 0.  0.
         25    2    3    3    0    0 -0.28634456860E+02 -0.50085624117E+01 -0.79048056423E+02  0.14179044350E+03  0.11406540592E+03 0.  0.
          5    1    4    4  502    0 -0.24847571538E+02 -0.38360064090E+02  0.47691902677E+02  0.66223137266E+02  0.47000000000E+01 0. -1.
         -5    1    4    4    0  502  0.53482028399E+02  0.43368626502E+02 -0.12879385101E+01  0.69028355854E+02  0.47000000000E+01 0. -1.
          5    1    5    5  503    0 -0.29421138273E+02 -0.54175812410E+02 -0.66545613970E+02  0.90835184627E+02  0.47000000000E+01 0.  1.
         -5    1    5    5    0  503  0.78668141261E+00  0.49167249998E+02 -0.12502442453E+02  0.50955258878E+02  0.47000000000E+01 0.  1.
<mgrwt>
<rscale>  0 0.27511197E+03</rscale>
<asrwt>0</asrwt>
<pdfrwt beam="1">  1        2 0.23822002E-01 0.27511197E+03</pdfrwt>
<pdfrwt beam="2">  1       -2 0.18799834E-01 0.27511197E+03</pdfrwt>
<totfact> 0.52747846E+03</totfact>
</mgrwt>
</event>
<event>
 9    1  0.2094635E-002  0.2741137E+03  0.7818608E-02  0.1098948E+00
          1   -1    0    0  501    0  0.00000000000E+00  0.00000000000E+00  0.19659237813E+03  0.19659237813E+03  0.00000000000E+00 0. -1.
         -1   -1    0    0    0  501 -0.00000000000E+00 -0.00000000000E+00 -0.95550906685E+02  0.95550906685E+02  0.00000000000E+00 0. -1.
         36    2    1    2    0    0  0.00000000000E+00  0.00000000000E+00  0.10104147145E+03  0.29214328482E+03  0.27411369888E+03 0.  0.
         25    2    3    3    0    0 -0.39706607964E+02  0.38335497609E+02  0.17918886795E+02  0.13807934070E+03  0.12529402512E+03 0.  0.
         25    2    3    3    0    0  0.39706607964E+02 -0.38335497609E+02  0.83122584655E+02  0.15406394412E+03  0.11738871200E+03 0.  0.
          5    1    4    4  502    0  0.30000537886E+02 -0.13036164911E+02 -0.24888219176E+02  0.41370125970E+02  0.47000000000E+01 0. -1.
         -5    1    4    4    0  502 -0.69707145850E+02  0.51371662520E+02  0.42807105971E+02  0.96709214733E+02  0.47000000000E+01 0. -1.
          5    1    5    5  503    0  0.27299797082E+02  0.40575093398E+02  0.24709590451E+02  0.54993372193E+02  0.47000000000E+01 0.  1.
         -5    1    5    5    0  503  0.12406810882E+02 -0.78910591007E+02  0.58412994204E+02  0.99070571923E+02  0.47000000000E+01 0.  1.
<mgrwt>
<rscale>  0 0.27411370E+03</rscale>
<asrwt>0</asrwt>
<pdfrwt beam="1">  1        1 0.30244981E-01 0.27411370E+03</pdfrwt>
<pdfrwt beam="2">  1       -1 0.14700139E-01 0.27411370E+03</pdfrwt>
<totfact> 0.49414830E+03</totfact>
</mgrwt>
</event>
<event>
 9    1  0.2094635E-002  0.2754200E+03  0.7818608E-02  0.1098217E+00
         -2   -1    0    0    0  501 -0.00000000000E+00  0.00000000000E+00  0.16165562581E+02  0.16165562581E+02  0.00000000000E+00 0.  1.
          2   -1    0    0  501    0  0.00000000000E+00 -0.00000000000E+00 -0.11731138515E+04  0.11731138515E+04  0.00000000000E+00 0.  1.
         36    2    1    2    0    0  0.00000000000E+00  0.17763568394E-14 -0.11569482889E+04  0.11892794141E+04  0.27542000931E+03 0.  0.
         25    2    3    3    0    0 -0.35286862984E+02 -0.33395250577E+01 -0.78489478504E+03  0.79540162162E+03  0.12388543484E+03 0.  0.
         25    2    3    3    0    0  0.35286862984E+02  0.33395250577E+01 -0.37205350391E+03  0.39387779249E+03  0.12433660169E+03 0.  0.
          5    1    4    4  502    0 -0.14491939123E+02 -0.59945434245E+02 -0.52126417806E+03  0.52492085567E+03  0.47000000000E+01 0.  1.
         -5    1    4    4    0  502 -0.20794923861E+02  0.56605909188E+02 -0.26363060698E+03  0.27048076595E+03  0.47000000000E+01 0.  1.
          5    1    5    5  503    0 -0.46527082119E+02 -0.42775302578E+01 -0.13118454240E+03  0.13933607142E+03  0.47000000000E+01 0.  1.
         -5    1    5    5    0  503  0.81813945103E+02  0.76170553155E+01 -0.24086896151E+03  0.25454172107E+03  0.47000000000E+01 0.  1.
<mgrwt>
<rscale>  0 0.27542001E+03</rscale>
<asrwt>0</asrwt>
<pdfrwt beam="1">  1        2 0.18047907E+00 0.27542001E+03</pdfrwt>
<pdfrwt beam="2">  1       -2 0.24870094E-02 0.27542001E+03</pdfrwt>
<totfact> 0.11579303E+04</totfact>
</mgrwt>
</event>
<event>
 9    1  0.2094635E-002  0.2748660E+03  0.7818608E-02  0.1098526E+00
          1   -1    0    0  501    0  0.00000000000E+00  0.00000000000E+00  0.13424931430E+03  0.13424931430E+03  0.00000000000E+00 0. -1.
         -1   -1    0    0    0  501 -0.00000000000E+00 -0.00000000000E+00 -0.14069222991E+03  0.14069222991E+03  0.00000000000E+00 0. -1.
         36    2    1    2    0    0 -0.71054273576E-14  0.00000000000E+00 -0.64429156138E+01  0.27494154421E+03  0.27486604296E+03 0.  0.
         25    2    3    3    0    0  0.51490232544E+02  0.27424849238E+02 -0.20344642518E+02  0.13938034468E+03  0.12493842324E+03 0.  0.
         25    2    3    3    0    0 -0.51490232544E+02 -0.27424849238E+02  0.13901726904E+02  0.13556119953E+03  0.12157390511E+03 0.  0.
          5    1    4    4  502    0  0.84467820729E+02 -0.11683175587E+02 -0.21231562538E+02  0.88001014644E+02  0.47000000000E+01 0.  1.
         -5    1    4    4    0  502 -0.32977588186E+02  0.39108024825E+02  0.88692001983E+00  0.51379330040E+02  0.47000000000E+01 0.  1.
          5    1    5    5  503    0 -0.15085681098E+02 -0.73277142176E+02  0.16549290065E+02  0.76766440202E+02  0.47000000000E+01 0. -1.
         -5    1    5    5    0  503 -0.36404551445E+02  0.45852292937E+02 -0.26475631607E+01  0.58794759326E+02  0.47000000000E+01 0. -1.
<mgrwt>
<rscale>  0 0.27486604E+03</rscale>
<asrwt>0</asrwt>
<pdfrwt beam="1">  1        1 0.20653741E-01 0.27486604E+03</pdfrwt>
<pdfrwt beam="2">  1       -1 0.21644958E-01 0.27486604E+03</pdfrwt>
<totfact> 0.43081441E+03</totfact>
</mgrwt>
</event>
<event>
 9    1  0.2094635E-002  0.2764637E+03  0.7818608E-02  0.1097636E+00
         -1   -1    0    0    0  501 -0.00000000000E+00  0.00000000000E+00  0.20669459650E+03  0.20669459650E+03  0.00000000000E+00 0. -1.
          1   -1    0    0  501    0  0.00000000000E+00 -0.00000000000E+00 -0.92445778029E+02  0.92445778029E+02  0.00000000000E+00 0. -1.
         36    2    1    2    0    0  0.00000000000E+00  0.00000000000E+00  0.11424881848E+03  0.29914037453E+03  0.27646368867E+03 0.  0.
         25    2    3    3    0    0  0.24417406416E+02  0.36304318251E+02  0.95468098460E+02  0.16686898828E+03  0.12967994513E+03 0.  0.
         25    2    3    3    0    0 -0.24417406416E+02 -0.36304318251E+02  0.18780720016E+02  0.13227138625E+03  0.12340498740E+03 0.  0.
          5    1    4    4  502    0  0.28958567393E+02 -0.43480180103E+02  0.58872132416E+02  0.78848859614E+02  0.47000000000E+01 0. -1.
         -5    1    4    4    0  502 -0.45411609766E+01  0.79784498353E+02  0.36595966044E+02  0.88020128671E+02  0.47000000000E+01 0. -1.
          5    1    5    5  503    0  0.14690834296E+02 -0.35595914977E+02  0.62411735243E+02  0.73486083522E+02  0.47000000000E+01 0.  1.
         -5    1    5    5    0  503 -0.39108240712E+02 -0.70840327400E+00 -0.43631015228E+02  0.58785302726E+02  0.47000000000E+01 0.  1.
<mgrwt>
<rscale>  0 0.27646369E+03</rscale>
<asrwt>0</asrwt>
<pdfrwt beam="1">  1        1 0.14222427E-01 0.27646369E+03</pdfrwt>
<pdfrwt beam="2">  1       -1 0.31799168E-01 0.27646369E+03</pdfrwt>
<totfact> 0.36774540E+03</totfact>
</mgrwt>
</event>
<event>
 8    1  0.2094635E-002  0.2573793E+03  0.7818608E-02  0.1108728E+00
          2   -1    0    0  501    0  0.00000000000E+00  0.00000000000E+00  0.29298808464E+02  0.29298808464E+02  0.00000000000E+00 0.  1.
         -2   -1    0    0    0  501 -0.00000000000E+00 -0.00000000000E+00 -0.56524575904E+03  0.56524575904E+03  0.00000000000E+00 0.  1.
         25    2    1    2    0    0  0.51338941491E+01 -0.35429475826E+02 -0.23078381268E+03  0.26336564116E+03  0.12173203409E+03 0.  0.
         25    2    1    2    0    0 -0.51338941491E+01  0.35429475826E+02 -0.30516313789E+03  0.33117892634E+03  0.12358533852E+03 0.  0.
          5    1    3    3  502    0  0.53955016615E+02 -0.31191513974E+02 -0.63945505945E+02  0.89415726203E+02  0.47000000000E+01 0.  1.
         -5    1    3    3    0  502 -0.48821122466E+02 -0.42379618524E+01 -0.16683830674E+03  0.17394991496E+03  0.47000000000E+01 0.  1.
          5    1    4    4  503    0  0.16230325128E+02  0.76220192638E+02 -0.14783269803E+03  0.16718115273E+03  0.47000000000E+01 0.  1.
         -5    1    4    4    0  503 -0.21364219277E+02 -0.40790716812E+02 -0.15733043986E+03  0.16399777361E+03  0.47000000000E+01 0.  1.
<mgrwt>
<rscale>  0 0.25737931E+03</rscale>
<asrwt>0</asrwt>
<pdfrwt beam="1">  1        2 0.45075099E-02 0.25737931E+03</pdfrwt>
<pdfrwt beam="2">  1       -2 0.86960869E-01 0.25737931E+03</pdfrwt>
<totfact> 0.21237189E+03</totfact>
</mgrwt>
</event>
<event>
 9    1  0.2094635E-002  0.2754965E+03  0.7818608E-02  0.1098174E+00
         -2   -1    0    0    0  501 -0.00000000000E+00  0.00000000000E+00  0.15858925885E+03  0.15858925885E+03  0.00000000000E+00 0. -1.
          2   -1    0    0  501    0  0.00000000000E+00 -0.00000000000E+00 -0.11964604699E+03  0.11964604699E+03  0.00000000000E+00 0. -1.
         36    2    1    2    0    0 -0.71054273576E-14  0.10658141036E-13  0.38943211867E+02  0.27823530584E+03  0.27549648213E+03 0.  0.
         25    2    3    3    0    0 -0.39696486622E+02  0.30822977676E+02  0.15315741333E+02  0.14017742220E+03  0.12995872714E+03 0.  0.
         25    2    3    3    0    0  0.39696486622E+02 -0.30822977676E+02  0.23627470534E+02  0.13805788364E+03  0.12639562836E+03 0.  0.
          5    1    4    4  502    0 -0.24086328904E+02  0.50324537797E+02 -0.46857046397E+02  0.73009472958E+02  0.47000000000E+01 0. -1.
         -5    1    4    4    0  502 -0.15610157717E+02 -0.19501560121E+02  0.62172787731E+02  0.67167949242E+02  0.47000000000E+01 0. -1.
          5    1    5    5  503    0  0.33896483277E+02  0.23331608291E+02  0.59628553737E+02  0.72601583625E+02  0.47000000000E+01 0.  1.
         -5    1    5    5    0  503  0.58000033450E+01 -0.54154585967E+02 -0.36001083204E+02  0.65456300017E+02  0.47000000000E+01 0.  1.
<mgrwt>
<rscale>  0 0.27549648E+03</rscale>
<asrwt>0</asrwt>
<pdfrwt beam="1">  1        2 0.18407084E-01 0.27549648E+03</pdfrwt>
<pdfrwt beam="2">  1       -2 0.24398347E-01 0.27549648E+03</pdfrwt>
<totfact> 0.45117546E+03</totfact>
</mgrwt>
</event>
<event>
 9    1  0.2094635E-002  0.2728755E+03  0.7818608E-02  0.1099645E+00
         -2   -1    0    0    0  501 -0.00000000000E+00  0.00000000000E+00  0.65069507241E+01  0.65069507241E+01  0.00000000000E+00 0. -1.
          2   -1    0    0  501    0  0.00000000000E+00 -0.00000000000E+00 -0.28608264831E+04  0.28608264831E+04  0.00000000000E+00 0. -1.
         36    2    1    2    0    0  0.00000000000E+00  0.00000000000E+00 -0.28543195323E+04  0.28673334338E+04  0.27287548043E+03 0.  0.
         25    2    3    3    0    0  0.28042054487E+02 -0.81699638074E+01 -0.19142010879E+04  0.19184831166E+04  0.12473395141E+03 0.  0.
         25    2    3    3    0    0 -0.28042054487E+02  0.81699638074E+01 -0.94011844445E+03  0.94885031720E+03  0.12506450225E+03 0.  0.
          5    1    4    4  502    0  0.19891615101E+02  0.46752376390E+02 -0.14578469230E+04  0.14587395936E+04  0.47000000000E+01 0. -1.
         -5    1    4    4    0  502  0.81504393862E+01 -0.54922340198E+02 -0.45635416489E+03  0.45974352299E+03  0.47000000000E+01 0. -1.
          5    1    5    5  503    0 -0.50396698988E+01  0.62846209129E+02 -0.62281780193E+03  0.62601848909E+03  0.47000000000E+01 0. -1.
         -5    1    5    5    0  503 -0.23002384588E+02 -0.54676245322E+02 -0.31730064252E+03  0.32283182811E+03  0.47000000000E+01 0. -1.
<mgrwt>
<rscale>  0 0.27287548E+03</rscale>
<asrwt>0</asrwt>
<pdfrwt beam="1">  1        2 0.44012629E+00 0.27287548E+03</pdfrwt>
<pdfrwt beam="2">  1       -2 0.10010713E-02 0.27287548E+03</pdfrwt>
<totfact> 0.53515111E+03</totfact>
</mgrwt>
</event>
<event>
 9    1  0.2094635E-002  0.2746074E+03  0.7818608E-02  0.1098671E+00
         -2   -1    0    0    0  501 -0.00000000000E+00  0.00000000000E+00  0.12801539927E+02  0.12801539927E+02  0.00000000000E+00 0.  1.
          2   -1    0    0  501    0  0.00000000000E+00 -0.00000000000E+00 -0.14726587828E+04  0.14726587828E+04  0.00000000000E+00 0.  1.
         36    2    1    2    0    0 -0.35527136788E-14  0.00000000000E+00 -0.14598572429E+04  0.14854603228E+04  0.27460735757E+03 0.  0.
         25    2    3    3    0    0  0.22930866632E+02 -0.49994576764E+02 -0.78043117061E+03  0.79232909116E+03  0.12524892929E+03 0.  0.
         25    2    3    3    0    0 -0.22930866632E+02  0.49994576764E+02 -0.67942607230E+03  0.69313123161E+03  0.12564168956E+03 0.  0.
          5    1    4    4  502    0 -0.41841982591E+02  0.14795345018E+02 -0.28572286158E+03  0.28918730499E+03  0.47000000000E+01 0. -1.
         -5    1    4    4    0  502  0.64772849223E+02 -0.64789921782E+02 -0.49470830904E+03  0.50314178617E+03  0.47000000000E+01 0. -1.
          5    1    5    5  503    0 -0.50497337609E+02  0.62454907147E+01 -0.10940094954E+03  0.12074620085E+03  0.47000000000E+01 0. -1.
         -5    1    5    5    0  503  0.27566470978E+02  0.43749086049E+02 -0.57002512277E+03  0.57238503076E+03  0.47000000000E+01 0. -1.
<mgrwt>
<rscale>  0 0.27460736E+03</rscale>
<asrwt>0</asrwt>
<pdfrwt beam="1">  1        2 0.22656301E+00 0.27460736E+03</pdfrwt>
<pdfrwt beam="2">  1       -2 0.19694666E-02 0.27460736E+03</pdfrwt>
<totfact> 0.11159892E+04</totfact>
</mgrwt>
</event>
<event>
 9    1  0.2094635E-002  0.2745017E+03  0.7818608E-02  0.1098730E+00
          1   -1    0    0  501    0  0.00000000000E+00  0.00000000000E+00  0.15351221041E+03  0.15351221041E+03  0.00000000000E+00 0. -1.
         -1   -1    0    0    0  501 -0.00000000000E+00 -0.00000000000E+00 -0.12271204334E+03  0.12271204334E+03  0.00000000000E+00 0. -1.
         36    2    1    2    0    0  0.00000000000E+00  0.00000000000E+00  0.30800167071E+02  0.27622425375E+03  0.27450170868E+03 0.  0.
         25    2    3    3    0    0  0.37360901925E+02  0.26555425700E+02 -0.23585304144E+02  0.13428750239E+03  0.12399935120E+03 0.  0.
         25    2    3    3    0    0 -0.37360901925E+02 -0.26555425700E+02  0.54385471215E+02  0.14193675136E+03  0.12283010332E+03 0.  0.
          5    1    4    4  502    0 -0.40652843412E+02 -0.95938682541E+01  0.75794317318E+01  0.42711049752E+02  0.47000000000E+01 0. -1.
         -5    1    4    4    0  502  0.78013745337E+02  0.36149293955E+02 -0.31164735876E+02  0.91576452635E+02  0.47000000000E+01 0. -1.
          5    1    5    5  503    0 -0.56903683848E+02 -0.23693511882E+02  0.85060608269E+02  0.10515136147E+03  0.47000000000E+01 0.  1.
         -5    1    5    5    0  503  0.19542781923E+02 -0.28619138189E+01 -0.30675137054E+02  0.36785389889E+02  0.47000000000E+01 0.  1.
<mgrwt>
<rscale>  0 0.27450171E+03</rscale>
<asrwt>0</asrwt>
<pdfrwt beam="1">  1        1 0.23617263E-01 0.27450171E+03</pdfrwt>
<pdfrwt beam="2">  1       -1 0.18878776E-01 0.27450171E+03</pdfrwt>
<totfact> 0.45322270E+03</totfact>
</mgrwt>
</event>
<event>
 9    1  0.2094635E-002  0.2747179E+03  0.7818608E-02  0.1098609E+00
         -2   -1    0    0    0  501 -0.00000000000E+00  0.00000000000E+00  0.17137599011E+03  0.17137599011E+03  0.00000000000E+00 0.  1.
          2   -1    0    0  501    0  0.00000000000E+00 -0.00000000000E+00 -0.11009406612E+03  0.11009406612E+03  0.00000000000E+00 0.  1.
         36    2    1    2    0    0  0.00000000000E+00  0.00000000000E+00  0.61281923994E+02  0.28147005623E+03  0.27471788865E+03 0.  0.
         25    2    3    3    0    0  0.20785078116E+02 -0.19363880525E+02  0.78323293161E+02  0.15152617677E+03  0.12656486343E+03 0.  0.
         25    2    3    3    0    0 -0.20785078116E+02  0.19363880525E+02 -0.17041369168E+02  0.12994387946E+03  0.12565040471E+03 0.  0.
          5    1    4    4  502    0  0.23499371592E+02 -0.71849460063E+02  0.35882834001E+02  0.83810698318E+02  0.47000000000E+01 0. -1.
         -5    1    4    4    0  502 -0.27142934761E+01  0.52485579538E+02  0.42440459160E+02  0.67715478454E+02  0.47000000000E+01 0. -1.
          5    1    5    5  503    0 -0.43964058274E+02  0.62515483314E+02 -0.24005280735E+02  0.80245670145E+02  0.47000000000E+01 0.  1.
         -5    1    5    5    0  503  0.23178980158E+02 -0.43151602789E+02  0.69639115674E+01  0.49698209311E+02  0.47000000000E+01 0.  1.
<mgrwt>
<rscale>  0 0.27471789E+03</rscale>
<asrwt>0</asrwt>
<pdfrwt beam="1">  1        2 0.16937549E-01 0.27471789E+03</pdfrwt>
<pdfrwt beam="2">  1       -2 0.26365537E-01 0.27471789E+03</pdfrwt>
<totfact> 0.43328076E+03</totfact>
</mgrwt>
</event>
<event>
 9    1  0.2094635E-002  0.2747919E+03  0.7818608E-02  0.1098568E+00
         -1   -1    0    0    0  501 -0.00000000000E+00  0.00000000000E+00  0.14367743484E+02  0.14367743484E+02  0.00000000000E+00 0. -1.
          1   -1    0    0  501    0  0.00000000000E+00 -0.00000000000E+00 -0.13138910622E+04  0.13138910622E+04  0.00000000000E+00 0. -1.
         36    2    1    2    0    0 -0.14210854715E-13 -0.35527136788E-14 -0.12995233187E+04  0.13282588057E+04  0.27479191944E+03 0.  0.
         25    2    3    3    0    0 -0.26457192645E+02 -0.28444270504E+02 -0.85404973521E+03  0.86426163687E+03  0.12664188559E+03 0.  0.
         25    2    3    3    0    0  0.26457192645E+02  0.28444270504E+02 -0.44547358353E+03  0.46399716884E+03  0.12384506248E+03 0.  0.
          5    1    4    4  502    0  0.34148388216E+02 -0.53008844535E+02 -0.31869127909E+03  0.32490348011E+03  0.47000000000E+01 0.  1.
         -5    1    4    4    0  502 -0.60605580862E+02  0.24564574030E+02 -0.53535845612E+03  0.53935815676E+03  0.47000000000E+01 0.  1.
          5    1    5    5  503    0  0.69314084706E+02  0.52073605093E+00 -0.16782653279E+03  0.18163851082E+03  0.47000000000E+01 0. -1.
         -5    1    5    5    0  503 -0.42856892060E+02  0.27923534454E+02 -0.27764705074E+03  0.28235865802E+03  0.47000000000E+01 0. -1.
<mgrwt>
<rscale>  0 0.27479192E+03</rscale>
<asrwt>0</asrwt>
<pdfrwt beam="1">  1        1 0.20213706E+00 0.27479192E+03</pdfrwt>
<pdfrwt beam="2">  1       -1 0.22104224E-02 0.27479192E+03</pdfrwt>
<totfact> 0.56522992E+03</totfact>
</mgrwt>
</event>
<event>
 9    1  0.2094635E-002  0.2759838E+03  0.7818608E-02  0.1097903E+00
         -2   -1    0    0    0  501 -0.00000000000E+00  0.00000000000E+00  0.19611662824E+03  0.19611662824E+03  0.00000000000E+00 0. -1.
          2   -1    0    0  501    0  0.00000000000E+00 -0.00000000000E+00 -0.97094068925E+02  0.97094068925E+02  0.00000000000E+00 0. -1.
         36    2    1    2    0    0  0.10658141036E-13 -0.71054273576E-14  0.99022559311E+02  0.29321069716E+03  0.27598377792E+03 0.  0.
         25    2    3    3    0    0 -0.76192184572E+01  0.41793615233E+02  0.83391322476E+01  0.13242080056E+03  0.12514379142E+03 0.  0.
         25    2    3    3    0    0  0.76192184572E+01 -0.41793615233E+02  0.90683427064E+02  0.16078989660E+03  0.12579804506E+03 0.  0.
          5    1    4    4  502    0  0.57711865747E+02  0.12184506681E+02 -0.47344803185E+01  0.59360146183E+02  0.47000000000E+01 0.  1.
         -5    1    4    4    0  502 -0.65331084204E+02  0.29609108552E+02  0.13073612566E+02  0.73060654377E+02  0.47000000000E+01 0.  1.
          5    1    5    5  503    0 -0.30735615544E+02 -0.53441200888E+02  0.32640518034E+00  0.61829091499E+02  0.47000000000E+01 0.  1.
         -5    1    5    5    0  503  0.38354834001E+02  0.11647585655E+02  0.90357021883E+02  0.98960805102E+02  0.47000000000E+01 0.  1.
<mgrwt>
<rscale>  0 0.27598378E+03</rscale>
<asrwt>0</asrwt>
<pdfrwt beam="1">  1        2 0.14937549E-01 0.27598378E+03</pdfrwt>
<pdfrwt beam="2">  1       -2 0.30171789E-01 0.27598378E+03</pdfrwt>
<totfact> 0.39424602E+03</totfact>
</mgrwt>
</event>
<event>
 9    1  0.2094635E-002  0.2734676E+03  0.7818608E-02  0.1099311E+00
          1   -1    0    0  501    0  0.00000000000E+00  0.00000000000E+00  0.14972105047E+03  0.14972105047E+03  0.00000000000E+00 0.  1.
         -1   -1    0    0    0  501 -0.00000000000E+00 -0.00000000000E+00 -0.12487314478E+03  0.12487314478E+03  0.00000000000E+00 0.  1.
         36    2    1    2    0    0  0.00000000000E+00  0.71054273576E-14  0.24847905699E+02  0.27459419525E+03  0.27346764644E+03 0.  0.
         25    2    3    3    0    0  0.36375931275E+02  0.35079969524E+02 -0.15138818056E+02  0.13863762844E+03  0.12820840678E+03 0.  0.
         25    2    3    3    0    0 -0.36375931275E+02 -0.35079969524E+02  0.39986723756E+02  0.13595656681E+03  0.11971398141E+03 0.  0.
          5    1    4    4  502    0  0.75526647483E+02  0.20153397347E+01  0.17504801714E+02  0.77697130946E+02  0.47000000000E+01 0. -1.
         -5    1    4    4    0  502 -0.39150716208E+02  0.33064629789E+02 -0.32643619770E+02  0.60940497491E+02  0.47000000000E+01 0. -1.
          5    1    5    5  503    0  0.12943297150E+02  0.24652944658E+02  0.50285293450E+02  0.57671460523E+02  0.47000000000E+01 0.  1.
         -5    1    5    5    0  503 -0.49319228425E+02 -0.59732914182E+02 -0.10298569694E+02  0.78285106291E+02  0.47000000000E+01 0.  1.
<mgrwt>
<rscale>  0 0.27346765E+03</rscale>
<asrwt>0</asrwt>
<pdfrwt beam="1">  1        1 0.23034008E-01 0.27346765E+03</pdfrwt>
<pdfrwt beam="2">  1       -1 0.19211253E-01 0.27346765E+03</pdfrwt>
<totfact> 0.45484257E+03</totfact>
</mgrwt>
</event>
<event>
 9    1  0.2094635E-002  0.2747775E+03  0.7818608E-02  0.1098576E+00
         -2   -1    0    0    0  501 -0.00000000000E+00  0.00000000000E+00  0.18028508874E+04  0.18028508874E+04  0.00000000000E+00 0. -1.
          2   -1    0    0  501    0  0.00000000000E+00 -0.00000000000E+00 -0.10469898854E+02  0.10469898854E+02  0.00000000000E+00 0. -1.
         36    2    1    2    0    0  0.71054273576E-14  0.00000000000E+00  0.17923809885E+04  0.18133207863E+04  0.27477748408E+03 0.  0.
         25    2    3    3    0    0 -0.56725609081E+01  0.86612991422E+01  0.46276056112E+03  0.47588077583E+03  0.11048972723E+03 0.  0.
         25    2    3    3    0    0  0.56725609081E+01 -0.86612991422E+01  0.13296204274E+04  0.13374400104E+04  0.14404202309E+03 0.  0.
          5    1    4    4  502    0  0.37791783551E+02  0.35963292930E+02  0.14955509975E+03  0.15846259875E+03  0.47000000000E+01 0. -1.
         -5    1    4    4    0  502 -0.43464344459E+02 -0.27301993788E+02  0.31320546137E+03  0.31741817707E+03  0.47000000000E+01 0. -1.
          5    1    5    5  503    0  0.74753031051E+02 -0.54636506076E+01  0.69184973831E+03  0.69591380036E+03  0.47000000000E+01 0.  1.
         -5    1    5    5    0  503 -0.69080470143E+02 -0.31976485346E+01  0.63777068911E+03  0.64152621007E+03  0.47000000000E+01 0.  1.
<mgrwt>
<rscale>  0 0.27477748E+03</rscale>
<asrwt>0</asrwt>
<pdfrwt beam="1">  1        2 0.16107551E-02 0.27477748E+03</pdfrwt>
<pdfrwt beam="2">  1       -2 0.27736143E+00 0.27477748E+03</pdfrwt>
<totfact> 0.36713566E+02</totfact>
</mgrwt>
</event>
<event>
 9    1  0.2094635E-002  0.2748133E+03  0.7818608E-02  0.1098556E+00
         -2   -1    0    0    0  501 -0.00000000000E+00  0.00000000000E+00  0.79100121561E+01  0.79100121561E+01  0.00000000000E+00 0.  1.
          2   -1    0    0  501    0  0.00000000000E+00 -0.00000000000E+00 -0.23869231451E+04  0.23869231451E+04  0.00000000000E+00 0.  1.
         36    2    1    2    0    0  0.71054273576E-14  0.71054273576E-14 -0.23790131330E+04  0.23948331573E+04  0.27481332641E+03 0.  0.
         25    2    3    3    0    0 -0.32706761655E+02 -0.20900854050E+02 -0.83966534822E+03  0.85017130795E+03  0.12746284911E+03 0.  0.
         25    2    3    3    0    0  0.32706761655E+02  0.20900854050E+02 -0.15393477847E+04  0.15446618493E+04  0.12199200141E+03 0.  0.
          5    1    4    4  502    0  0.20232078352E+02 -0.52214920369E+02 -0.60250335967E+03  0.60511827218E+03  0.47000000000E+01 0. -1.
         -5    1    4    4    0  502 -0.52938840007E+02  0.31314066318E+02 -0.23716198854E+03  0.24505303577E+03  0.47000000000E+01 0. -1.
          5    1    5    5  503    0  0.34026144236E+02  0.53658020362E+02 -0.41821503888E+03  0.42304003402E+03  0.47000000000E+01 0.  1.
         -5    1    5    5    0  503 -0.13193825808E+01 -0.32757166311E+02 -0.11211327459E+04  0.11216218153E+04  0.47000000000E+01 0.  1.
<mgrwt>
<rscale>  0 0.27481333E+03</rscale>
<asrwt>0</asrwt>
<pdfrwt beam="1">  1        2 0.36721922E+00 0.27481333E+03</pdfrwt>
<pdfrwt beam="2">  1       -2 0.12169240E-02 0.27481333E+03</pdfrwt>
<totfact> 0.74033592E+03</totfact>
</mgrwt>
</event>
<event>
 9    1  0.2094635E-002  0.2744487E+03  0.7818608E-02  0.1098760E+00
         -1   -1    0    0    0  501 -0.00000000000E+00  0.00000000000E+00  0.13896246759E+03  0.13896246759E+03  0.00000000000E+00 0.  1.
          1   -1    0    0  501    0  0.00000000000E+00 -0.00000000000E+00 -0.13550797289E+03  0.13550797289E+03  0.00000000000E+00 0.  1.
         36    2    1    2    0    0 -0.35527136788E-14 -0.71054273576E-14  0.34544946924E+01  0.27447044048E+03  0.27444870042E+03 0.  0.
         25    2    3    3    0    0 -0.19558329339E+02 -0.43958566546E+02  0.10744341266E+01  0.13909397016E+03  0.13050323485E+03 0.  0.
         25    2    3    3    0    0  0.19558329339E+02  0.43958566546E+02  0.23800605658E+01  0.13537647032E+03  0.12651577059E+03 0.  0.
          5    1    4    4  502    0  0.43457534434E+02 -0.56490925325E+02  0.15470094881E+02  0.73083484994E+02  0.47000000000E+01 0. -1.
         -5    1    4    4    0  502 -0.63015863773E+02  0.12532358779E+02 -0.14395660754E+02  0.66010485169E+02  0.47000000000E+01 0. -1.
          5    1    5    5  503    0  0.24890166699E+02  0.84705445063E+02 -0.16451374813E+02  0.89929253054E+02  0.47000000000E+01 0.  1.
         -5    1    5    5    0  503 -0.53318373597E+01 -0.40746878517E+02  0.18831435379E+02  0.45447217263E+02  0.47000000000E+01 0.  1.
<mgrwt>
<rscale>  0 0.27444870E+03</rscale>
<asrwt>0</asrwt>
<pdfrwt beam="1">  1        1 0.20847380E-01 0.27444870E+03</pdfrwt>
<pdfrwt beam="2">  1       -1 0.21378841E-01 0.27444870E+03</pdfrwt>
<totfact> 0.43436526E+03</totfact>
</mgrwt>
</event>
<event>
 9    1  0.2094635E-002  0.2754720E+03  0.7818608E-02  0.1098188E+00
          2   -1    0    0  501    0  0.00000000000E+00  0.00000000000E+00  0.13115656308E+04  0.13115656308E+04  0.00000000000E+00 0.  1.
         -2   -1    0    0    0  501 -0.00000000000E+00 -0.00000000000E+00 -0.14464554137E+02  0.14464554137E+02  0.00000000000E+00 0.  1.
         36    2    1    2    0    0 -0.71054273576E-14 -0.14210854715E-13  0.12971010767E+04  0.13260301849E+04  0.27547204628E+03 0.  0.
         25    2    3    3    0    0  0.40698359229E+02  0.32745956762E+02  0.56425774446E+03  0.58062407278E+03  0.12652611424E+03 0.  0.
         25    2    3    3    0    0 -0.40698359229E+02 -0.32745956762E+02  0.73284333219E+03  0.74540611214E+03  0.12586607308E+03 0.  0.
          5    1    4    4  502    0  0.32518433312E+02  0.39209816308E+02  0.56663838523E+03  0.56894288626E+03  0.47000000000E+01 0. -1.
         -5    1    4    4    0  502  0.81799259171E+01 -0.64638595459E+01 -0.23806407731E+01  0.11681186529E+02  0.47000000000E+01 0. -1.
          5    1    5    5  503    0  0.62845673390E+01  0.98216042682E+01  0.57643026510E+03  0.57656734231E+03  0.47000000000E+01 0. -1.
         -5    1    5    5    0  503 -0.46982926568E+02 -0.42567561030E+02  0.15641306709E+03  0.16883876983E+03  0.47000000000E+01 0. -1.
<mgrwt>
<rscale>  0 0.27547205E+03</rscale>
<asrwt>0</asrwt>
<pdfrwt beam="1">  1        2 0.20177924E+00 0.27547205E+03</pdfrwt>
<pdfrwt beam="2">  1       -2 0.22253170E-02 0.27547205E+03</pdfrwt>
<totfact> 0.11408151E+04</totfact>
</mgrwt>
</event>
<event>
 9    1  0.2094635E-002  0.2755001E+03  0.7818608E-02  0.1098172E+00
          2   -1    0    0  501    0  0.00000000000E+00  0.00000000000E+00  0.17837176199E+03  0.17837176199E+03  0.00000000000E+00 0.  1.
         -2   -1    0    0    0  501 -0.00000000000E+00 -0.00000000000E+00 -0.10637935229E+03  0.10637935229E+03  0.00000000000E+00 0.  1.
         36    2    1    2    0    0  0.35527136788E-14  0.00000000000E+00  0.71992409704E+02  0.28475111428E+03  0.27550007265E+03 0.  0.
         25    2    3    3    0    0 -0.10616308243E+02 -0.11117245311E+02  0.94901910155E+02  0.15731142803E+03  0.12451591743E+03 0.  0.
         25    2    3    3    0    0  0.10616308243E+02  0.11117245311E+02 -0.22909500451E+02  0.12743968625E+03  0.12441756016E+03 0.  0.
          5    1    4    4  502    0 -0.63238094953E+02 -0.28937700191E+02  0.52265483340E+02  0.87121856583E+02  0.47000000000E+01 0. -1.
         -5    1    4    4    0  502  0.52621786710E+02  0.17820454880E+02  0.42636426815E+02  0.70189571449E+02  0.47000000000E+01 0. -1.
          5    1    5    5  503    0  0.34982089261E+02 -0.10525422249E+02 -0.64570976403E+02  0.74337285908E+02  0.47000000000E+01 0.  1.
         -5    1    5    5    0  503 -0.24365781018E+02  0.21642667560E+02  0.41661475952E+02  0.53102400344E+02  0.47000000000E+01 0.  1.
<mgrwt>
<rscale>  0 0.27550007E+03</rscale>
<asrwt>0</asrwt>
<pdfrwt beam="1">  1        2 0.27441809E-01 0.27550007E+03</pdfrwt>
<pdfrwt beam="2">  1       -2 0.16366054E-01 0.27550007E+03</pdfrwt>
<totfact> 0.56885166E+03</totfact>
</mgrwt>
</event>
<event>
 9    1  0.2094635E-002  0.2745746E+03  0.7818608E-02  0.1098690E+00
          2   -1    0    0  501    0  0.00000000000E+00  0.00000000000E+00  0.79953970278E+03  0.79953970278E+03  0.00000000000E+00 0.  1.
         -2   -1    0    0    0  501 -0.00000000000E+00 -0.00000000000E+00 -0.23573319008E+02  0.23573319008E+02  0.00000000000E+00 0.  1.
         36    2    1    2    0    0  0.00000000000E+00  0.71054273576E-14  0.77596638377E+03  0.82311302179E+03  0.27457461262E+03 0.  0.
         25    2    3    3    0    0 -0.50757356427E+02 -0.17775548104E+01  0.30770796033E+03  0.33739370886E+03  0.12872784079E+03 0.  0.
         25    2    3    3    0    0  0.50757356427E+02  0.17775548104E+01  0.46825842344E+03  0.48571931293E+03  0.11865003538E+03 0.  0.
          5    1    4    4  502    0  0.34844404132E+02 -0.30319971427E+02  0.12983340812E+03  0.13788486875E+03  0.47000000000E+01 0. -1.
         -5    1    4    4    0  502 -0.85601760558E+02  0.28542416617E+02  0.17787455221E+03  0.19950884011E+03  0.47000000000E+01 0. -1.
          5    1    5    5  503    0  0.21904296082E+02  0.58712858854E+02  0.27690707742E+03  0.28394826555E+03  0.47000000000E+01 0. -1.
         -5    1    5    5    0  503  0.28853060345E+02 -0.56935304043E+02  0.19135134601E+03  0.20177104738E+03  0.47000000000E+01 0. -1.
<mgrwt>
<rscale>  0 0.27457461E+03</rscale>
<asrwt>0</asrwt>
<pdfrwt beam="1">  1        2 0.12300609E+00 0.27457461E+03</pdfrwt>
<pdfrwt beam="2">  1       -2 0.36266651E-02 0.27457461E+03</pdfrwt>
<totfact> 0.11272285E+04</totfact>
</mgrwt>
</event>
<event>
 9    1  0.2094635E-002  0.2743267E+03  0.7818608E-02  0.1098829E+00
          2   -1    0    0  501    0  0.00000000000E+00  0.00000000000E+00  0.35933188652E+04  0.35933188652E+04  0.00000000000E+00 0.  1.
         -2   -1    0    0    0  501 -0.00000000000E+00 -0.00000000000E+00 -0.52357663429E+01  0.52357663429E+01  0.00000000000E+00 0.  1.
         36    2    1    2    0    0 -0.71054273576E-14  0.00000000000E+00  0.35880830988E+04  0.35985546315E+04  0.27432665181E+03 0.  0.
         25    2    3    3    0    0  0.37296247612E+02  0.13892529137E+02  0.23371647511E+04  0.23407883973E+04  0.12396465040E+03 0.  0.
         25    2    3    3    0    0 -0.37296247612E+02 -0.13892529137E+02  0.12509183477E+04  0.12577662342E+04  0.12488064251E+03 0.  0.
          5    1    4    4  502    0 -0.19948754792E+02  0.39122312917E+02  0.37046671747E+03  0.37309005205E+03  0.47000000000E+01 0. -1.
         -5    1    4    4    0  502  0.57245002404E+02 -0.25229783780E+02  0.19666980336E+04  0.19676983452E+04  0.47000000000E+01 0. -1.
          5    1    5    5  503    0 -0.46522203887E+01  0.44315172599E+02  0.21134147579E+03  0.21603885545E+03  0.47000000000E+01 0.  1.
         -5    1    5    5    0  503 -0.32644027223E+02 -0.58207701736E+02  0.10395768719E+04  0.10417273788E+04  0.47000000000E+01 0.  1.
<mgrwt>
<rscale>  0 0.27432665E+03</rscale>
<asrwt>0</asrwt>
<pdfrwt beam="1">  1        2 0.55281632E+00 0.27432665E+03</pdfrwt>
<pdfrwt beam="2">  1       -2 0.80550539E-03 0.27432665E+03</pdfrwt>
<totfact> 0.25626123E+03</totfact>
</mgrwt>
</event>
<event>
 9    1  0.2094635E-002  0.2752797E+03  0.7818608E-02  0.1098295E+00
          2   -1    0    0  501    0  0.00000000000E+00  0.00000000000E+00  0.57140738542E+02  0.57140738542E+02  0.00000000000E+00 0.  1.
         -2   -1    0    0    0  501 -0.00000000000E+00 -0.00000000000E+00 -0.33154506123E+03  0.33154506123E+03  0.00000000000E+00 0.  1.
         36    2    1    2    0    0  0.71054273576E-14  0.00000000000E+00 -0.27440432268E+03  0.38868579977E+03  0.27527970981E+03 0.  0.
         25    2    3    3    0    0  0.45618971686E+02  0.75454921844E+00 -0.92951739163E+02  0.16398002629E+03  0.12715251978E+03 0.  0.
         25    2    3    3    0    0 -0.45618971686E+02 -0.75454921844E+00 -0.18145258352E+03  0.22470577348E+03  0.12444269623E+03 0.  0.
          5    1    4    4  502    0  0.85371911183E+01  0.22687845660E+02  0.26911126140E+02  0.36522878898E+02  0.47000000000E+01 0.  1.
         -5    1    4    4    0  502  0.37081780568E+02 -0.21933296442E+02 -0.11986286530E+03  0.12745714739E+03  0.47000000000E+01 0.  1.
          5    1    5    5  503    0 -0.41007466461E+02 -0.56926816712E+02 -0.67407478266E+02  0.97407047449E+02  0.47000000000E+01 0.  1.
         -5    1    5    5    0  503 -0.46115052244E+01  0.56172267494E+02 -0.11404510526E+03  0.12729872603E+03  0.47000000000E+01 0.  1.
<mgrwt>
<rscale>  0 0.27527971E+03</rscale>
<asrwt>0</asrwt>
<pdfrwt beam="1">  1        2 0.87908828E-02 0.27527971E+03</pdfrwt>
<pdfrwt beam="2">  1       -2 0.51006933E-01 0.27527971E+03</pdfrwt>
<totfact> 0.27725148E+03</totfact>
</mgrwt>
</event>
<event>
 9    1  0.2094635E-002  0.2750884E+03  0.7818608E-02  0.1098402E+00
          1   -1    0    0  501    0  0.00000000000E+00  0.00000000000E+00  0.18002990151E+04  0.18002990151E+04  0.00000000000E+00 0.  1.
         -1   -1    0    0    0  501 -0.00000000000E+00 -0.00000000000E+00 -0.10508481354E+02  0.10508481354E+02  0.00000000000E+00 0.  1.
         36    2    1    2    0    0  0.26645352591E-14 -0.35527136788E-14  0.17897905337E+04  0.18108074964E+04  0.27508841220E+03 0.  0.
         25    2    3    3    0    0  0.17146990256E+01 -0.10490365765E+02  0.12458472832E+04  0.12521752006E+04  0.12527686117E+03 0.  0.
         25    2    3    3    0    0 -0.17146990256E+01  0.10490365765E+02  0.54394325054E+03  0.55863229586E+03  0.12681795694E+03 0.  0.
          5    1    4    4  502    0 -0.41678454522E+02 -0.41804156926E+02  0.37252548723E+03  0.37720287611E+03  0.47000000000E+01 0.  1.
         -5    1    4    4    0  502  0.43393153548E+02  0.31313791161E+02  0.87332179596E+03  0.87497232447E+03  0.47000000000E+01 0.  1.
          5    1    5    5  503    0 -0.57385227068E+01 -0.23293903609E+02  0.50917014032E+03  0.50975666585E+03  0.47000000000E+01 0.  1.
         -5    1    5    5    0  503  0.40238236811E+01  0.33784269374E+02  0.34773110218E+02  0.48875630006E+02  0.47000000000E+01 0.  1.
<mgrwt>
<rscale>  0 0.27508841E+03</rscale>
<asrwt>0</asrwt>
<pdfrwt beam="1">  1        1 0.27696883E+00 0.27508841E+03</pdfrwt>
<pdfrwt beam="2">  1       -1 0.16166909E-02 0.27508841E+03</pdfrwt>
<totfact> 0.42560017E+03</totfact>
</mgrwt>
</event>
<event>
 9    1  0.2094635E-002  0.2751786E+03  0.7818608E-02  0.1098352E+00
         -2   -1    0    0    0  501 -0.00000000000E+00  0.00000000000E+00  0.22205211899E+03  0.22205211899E+03  0.00000000000E+00 0. -1.
          2   -1    0    0  501    0  0.00000000000E+00 -0.00000000000E+00 -0.85253926176E+02  0.85253926176E+02  0.00000000000E+00 0. -1.
         36    2    1    2    0    0  0.14210854715E-13 -0.71054273576E-14  0.13679819282E+03  0.30730604517E+03  0.27517859626E+03 0.  0.
         25    2    3    3    0    0 -0.40540637967E+02 -0.49474057522E+02  0.45179113424E+02  0.14884639865E+03  0.12658148525E+03 0.  0.
         25    2    3    3    0    0  0.40540637967E+02  0.49474057522E+02  0.91619079394E+02  0.15845964652E+03  0.11235736812E+03 0.  0.
          5    1    4    4  502    0 -0.48916153505E+02 -0.11436121095E+02  0.81191955976E+02  0.95591833619E+02  0.47000000000E+01 0. -1.
         -5    1    4    4    0  502  0.83755155383E+01 -0.38037936427E+02 -0.36012842552E+02  0.53254565033E+02  0.47000000000E+01 0. -1.
          5    1    5    5  503    0  0.54264303051E+02 -0.18704512962E+02  0.55382594567E+02  0.79898655632E+02  0.47000000000E+01 0.  1.
         -5    1    5    5    0  503 -0.13723665085E+02  0.68178570484E+02  0.36236484827E+02  0.78560990887E+02  0.47000000000E+01 0.  1.
<mgrwt>
<rscale>  0 0.27517860E+03</rscale>
<asrwt>0</asrwt>
<pdfrwt beam="1">  1        2 0.13115989E-01 0.27517860E+03</pdfrwt>
<pdfrwt beam="2">  1       -2 0.34161864E-01 0.27517860E+03</pdfrwt>
<totfact> 0.36656382E+03</totfact>
</mgrwt>
</event>
<event>
 9    1  0.2094635E-002  0.2754958E+03  0.7818608E-02  0.1098175E+00
          2   -1    0    0  501    0  0.00000000000E+00  0.00000000000E+00  0.10400822791E+04  0.10400822791E+04  0.00000000000E+00 0.  1.
         -2   -1    0    0    0  501 -0.00000000000E+00 -0.00000000000E+00 -0.18243258166E+02  0.18243258166E+02  0.00000000000E+00 0.  1.
         36    2    1    2    0    0  0.00000000000E+00  0.00000000000E+00  0.10218390209E+04  0.10583255372E+04  0.27549584049E+03 0.  0.
         25    2    3    3    0    0  0.32814769107E+02 -0.54512384122E+02  0.47149644963E+03  0.49039413154E+03  0.11886586195E+03 0.  0.
         25    2    3    3    0    0 -0.32814769107E+02  0.54512384122E+02  0.55034257128E+03  0.56793140571E+03  0.12498290575E+03 0.  0.
          5    1    4    4  502    0  0.71818707756E+02 -0.59083302817E+02  0.28784058064E+03  0.30252777280E+03  0.47000000000E+01 0.  1.
         -5    1    4    4    0  502 -0.39003938649E+02  0.45709186954E+01  0.18365586900E+03  0.18786635874E+03  0.47000000000E+01 0.  1.
          5    1    5    5  503    0 -0.71572481153E+02  0.34084731031E+02  0.46654318473E+03  0.47325365520E+03  0.47000000000E+01 0.  1.
         -5    1    5    5    0  503  0.38757712046E+02  0.20427653091E+02  0.83799386555E+02  0.94677750506E+02  0.47000000000E+01 0.  1.
<mgrwt>
<rscale>  0 0.27549584E+03</rscale>
<asrwt>0</asrwt>
<pdfrwt beam="1">  1        2 0.16001261E+00 0.27549584E+03</pdfrwt>
<pdfrwt beam="2">  1       -2 0.28066559E-02 0.27549584E+03</pdfrwt>
<totfact> 0.11584006E+04</totfact>
</mgrwt>
</event>
<event>
 9    1  0.2094635E-002  0.2754258E+03  0.7818608E-02  0.1098214E+00
          4   -1    0    0  501    0  0.00000000000E+00  0.00000000000E+00  0.25320187604E+02  0.25320187604E+02  0.00000000000E+00 0.  1.
         -4   -1    0    0    0  501 -0.00000000000E+00 -0.00000000000E+00 -0.74900087249E+03  0.74900087249E+03  0.00000000000E+00 0.  1.
         36    2    1    2    0    0  0.00000000000E+00  0.00000000000E+00 -0.72368068489E+03  0.77432106010E+03  0.27542579841E+03 0.  0.
         25    2    3    3    0    0 -0.16413224081E+02  0.54437237143E+02 -0.28558332507E+03  0.31743491195E+03  0.12638940247E+03 0.  0.
         25    2    3    3    0    0  0.16413224081E+02 -0.54437237143E+02 -0.43809735982E+03  0.45688614814E+03  0.11654548027E+03 0.  0.
          5    1    4    4  502    0 -0.15992341115E+02 -0.13766505758E+02  0.21180393589E+01  0.21722056667E+02  0.47000000000E+01 0. -1.
         -5    1    4    4    0  502 -0.42088296579E+00  0.68203742901E+02 -0.28770136443E+03  0.29571285529E+03  0.47000000000E+01 0. -1.
          5    1    5    5  503    0  0.59422451185E+01 -0.90986944510E+02 -0.30197365860E+03  0.31547442818E+03  0.47000000000E+01 0.  1.
         -5    1    5    5    0  503  0.10470978962E+02  0.36549707367E+02 -0.13612370122E+03  0.14141171996E+03  0.47000000000E+01 0.  1.
<mgrwt>
<rscale>  0 0.27542580E+03</rscale>
<asrwt>0</asrwt>
<pdfrwt beam="1">  1        4 0.38954137E-02 0.27542580E+03</pdfrwt>
<pdfrwt beam="2">  1       -4 0.11523090E+00 0.27542580E+03</pdfrwt>
<totfact> 0.40742276E+02</totfact>
</mgrwt>
</event>
<event>
 9    1  0.2094635E-002  0.2747731E+03  0.7818608E-02  0.1098578E+00
         -2   -1    0    0    0  501 -0.00000000000E+00  0.00000000000E+00  0.11787539600E+02  0.11787539600E+02  0.00000000000E+00 0.  1.
          2   -1    0    0  501    0  0.00000000000E+00 -0.00000000000E+00 -0.16012727065E+04  0.16012727065E+04  0.00000000000E+00 0.  1.
         36    2    1    2    0    0  0.00000000000E+00 -0.71054273576E-14 -0.15894851669E+04  0.16130602461E+04  0.27477310959E+03 0.  0.
         25    2    3    3    0    0  0.22454006713E+02 -0.59766739129E+02 -0.87528182175E+03  0.88557206387E+03  0.11850471426E+03 0.  0.
         25    2    3    3    0    0 -0.22454006713E+02  0.59766739129E+02 -0.71420334518E+03  0.72748818225E+03  0.12278595822E+03 0.  0.
          5    1    4    4  502    0  0.52289722758E+02 -0.17352712073E+02 -0.17899260225E+03  0.18733865960E+03  0.47000000000E+01 0. -1.
         -5    1    4    4    0  502 -0.29835716044E+02 -0.42414027056E+02 -0.69628921950E+03  0.69823340427E+03  0.47000000000E+01 0. -1.
          5    1    5    5  503    0 -0.12754362772E+02 -0.25008808827E+02 -0.42424322601E+03  0.42519703562E+03  0.47000000000E+01 0.  1.
         -5    1    5    5    0  503 -0.96996439410E+01  0.84775547956E+02 -0.28996011917E+03  0.30229114663E+03  0.47000000000E+01 0.  1.
<mgrwt>
<rscale>  0 0.27477311E+03</rscale>
<asrwt>0</asrwt>
<pdfrwt beam="1">  1        2 0.24634965E+00 0.27477311E+03</pdfrwt>
<pdfrwt beam="2">  1       -2 0.18134676E-02 0.27477311E+03</pdfrwt>
<totfact> 0.10758384E+04</totfact>
</mgrwt>
</event>
<event>
 9    1  0.2094635E-002  0.2749430E+03  0.7818608E-02  0.1098483E+00
          1   -1    0    0  501    0  0.00000000000E+00  0.00000000000E+00  0.11767620903E+03  0.11767620903E+03  0.00000000000E+00 0. -1.
         -1   -1    0    0    0  501 -0.00000000000E+00 -0.00000000000E+00 -0.16059670017E+03  0.16059670017E+03  0.00000000000E+00 0. -1.
         36    2    1    2    0    0 -0.53290705182E-14  0.00000000000E+00 -0.42920491143E+02  0.27827290920E+03  0.27494298215E+03 0.  0.
         25    2    3    3    0    0  0.10032364963E+02  0.21085364745E+02 -0.87491399608E+02  0.14402717701E+03  0.11199929357E+03 0.  0.
         25    2    3    3    0    0 -0.10032364963E+02 -0.21085364745E+02  0.44570908464E+02  0.13424573219E+03  0.12445926955E+03 0.  0.
          5    1    4    4  502    0  0.50495237696E+02  0.44445548364E+02 -0.50376363767E+02  0.84172702379E+02  0.47000000000E+01 0.  1.
         -5    1    4    4    0  502 -0.40462872732E+02 -0.23360183620E+02 -0.37115035841E+02  0.59854474636E+02  0.47000000000E+01 0.  1.
          5    1    5    5  503    0  0.70351841496E+01  0.47098453066E+02 -0.49929162629E+01  0.48112132670E+02  0.47000000000E+01 0.  1.
         -5    1    5    5    0  503 -0.17067549113E+02 -0.68183817811E+02  0.49563824727E+02  0.86133599516E+02  0.47000000000E+01 0.  1.
<mgrwt>
<rscale>  0 0.27494298E+03</rscale>
<asrwt>0</asrwt>
<pdfrwt beam="1">  1        1 0.18104032E-01 0.27494298E+03</pdfrwt>
<pdfrwt beam="2">  1       -1 0.24707185E-01 0.27494298E+03</pdfrwt>
<totfact> 0.41058297E+03</totfact>
</mgrwt>
</event>
<event>
 9    1  0.2094635E-002  0.2744876E+03  0.7818608E-02  0.1098738E+00
         -3   -1    0    0    0  501 -0.00000000000E+00  0.00000000000E+00  0.11363683863E+04  0.11363683863E+04  0.00000000000E+00 0.  1.
          3   -1    0    0  501    0  0.00000000000E+00 -0.00000000000E+00 -0.16575488720E+02  0.16575488720E+02  0.00000000000E+00 0.  1.
         36    2    1    2    0    0  0.71054273576E-14  0.71054273576E-14  0.11197928976E+04  0.11529438750E+04  0.27448760532E+03 0.  0.
         25    2    3    3    0    0 -0.38170484178E+02 -0.40990979659E+02  0.47568390083E+03  0.49489799532E+03  0.12454559803E+03 0.  0.
         25    2    3    3    0    0  0.38170484178E+02  0.40990979659E+02  0.64410899678E+03  0.65804587973E+03  0.12251829993E+03 0.  0.
          5    1    4    4  502    0 -0.25270818442E+02 -0.24397019455E+01  0.10428305275E+02  0.27846112138E+02  0.47000000000E+01 0.  1.
         -5    1    4    4    0  502 -0.12899665736E+02 -0.38551277714E+02  0.46525559555E+03  0.46705188318E+03  0.47000000000E+01 0.  1.
          5    1    5    5  503    0 -0.41613708350E+02  0.77383393709E+00  0.14283004558E+03  0.14884492420E+03  0.47000000000E+01 0.  1.
         -5    1    5    5    0  503  0.79784192529E+02  0.40217145722E+02  0.50127895120E+03  0.50920095552E+03  0.47000000000E+01 0.  1.
<mgrwt>
<rscale>  0 0.27448761E+03</rscale>
<asrwt>0</asrwt>
<pdfrwt beam="1">  1        3 0.25500761E-02 0.27448761E+03</pdfrwt>
<pdfrwt beam="2">  1       -3 0.17482584E+00 0.27448761E+03</pdfrwt>
<totfact> 0.38213412E+02</totfact>
</mgrwt>
</event>
<event>
 9    1  0.2094635E-002  0.2770277E+03  0.7818608E-02  0.1097324E+00
          1   -1    0    0  501    0  0.00000000000E+00  0.00000000000E+00  0.37911250483E+03  0.37911250483E+03  0.00000000000E+00 0.  1.
         -1   -1    0    0    0  501 -0.00000000000E+00 -0.00000000000E+00 -0.50607888651E+02  0.50607888651E+02  0.00000000000E+00 0.  1.
         36    2    1    2    0    0  0.00000000000E+00  0.00000000000E+00  0.32850461618E+03  0.42972039348E+03  0.27702767682E+03 0.  0.
         25    2    3    3    0    0 -0.33576663365E+02  0.26661681069E+02  0.10114494139E+03  0.16618797312E+03  0.12469926095E+03 0.  0.
         25    2    3    3    0    0  0.33576663365E+02 -0.26661681069E+02  0.22735967479E+03  0.26353242036E+03  0.12616924070E+03 0.  0.
          5    1    4    4  502    0  0.43589412561E+02 -0.47436227889E+01  0.56114521099E+02  0.71368538746E+02  0.47000000000E+01 0.  1.
         -5    1    4    4    0  502 -0.77166075926E+02  0.31405303858E+02  0.45030420292E+02  0.94819434378E+02  0.47000000000E+01 0.  1.
          5    1    5    5  503    0 -0.20640988925E+02  0.33628148952E+02  0.13410244514E+03  0.13986585938E+03  0.47000000000E+01 0. -1.
         -5    1    5    5    0  503  0.54217652290E+02 -0.60289830021E+02  0.93257229649E+02  0.12366656098E+03  0.47000000000E+01 0. -1.
<mgrwt>
<rscale>  0 0.27702768E+03</rscale>
<asrwt>0</asrwt>
<pdfrwt beam="1">  1        1 0.58324999E-01 0.27702768E+03</pdfrwt>
<pdfrwt beam="2">  1       -1 0.77858293E-02 0.27702768E+03</pdfrwt>
<totfact> 0.57970426E+03</totfact>
</mgrwt>
</event>
<event>
 9    1  0.2094635E-002  0.2748060E+03  0.7818608E-02  0.1098560E+00
          2   -1    0    0  501    0  0.00000000000E+00  0.00000000000E+00  0.53274690695E+03  0.53274690695E+03  0.00000000000E+00 0. -1.
         -2   -1    0    0    0  501 -0.00000000000E+00 -0.00000000000E+00 -0.35438189245E+02  0.35438189245E+02  0.00000000000E+00 0. -1.
         36    2    1    2    0    0  0.17763568394E-14  0.71054273576E-14  0.49730871771E+03  0.56818509619E+03  0.27480600945E+03 0.  0.
         25    2    3    3    0    0 -0.13003931926E+02  0.20889048595E+02  0.15961992236E+03  0.20560209500E+03  0.12723304310E+03 0.  0.
         25    2    3    3    0    0  0.13003931926E+02 -0.20889048595E+02  0.33768879535E+03  0.36258300120E+03  0.12971991234E+03 0.  0.
          5    1    4    4  502    0 -0.24121756407E+02 -0.13942495692E+02  0.16582920724E+03  0.16821910799E+03  0.47000000000E+01 0.  1.
         -5    1    4    4    0  502  0.11117824480E+02  0.34831544288E+02 -0.62092848853E+01  0.37382987005E+02  0.47000000000E+01 0.  1.
          5    1    5    5  503    0  0.31034601817E+02  0.29238353138E+02  0.28248450159E+03  0.28572296275E+03  0.47000000000E+01 0. -1.
         -5    1    5    5    0  503 -0.18030669891E+02 -0.50127401733E+02  0.55204293761E+02  0.76860038452E+02  0.47000000000E+01 0. -1.
<mgrwt>
<rscale>  0 0.27480601E+03</rscale>
<asrwt>0</asrwt>
<pdfrwt beam="1">  1        2 0.81961057E-01 0.27480601E+03</pdfrwt>
<pdfrwt beam="2">  1       -2 0.54520295E-02 0.27480601E+03</pdfrwt>
<totfact> 0.98780325E+03</totfact>
</mgrwt>
</event>
<event>
 9    1  0.2094635E-002  0.2760524E+03  0.7818608E-02  0.1097865E+00
         -4   -1    0    0    0  501 -0.00000000000E+00  0.00000000000E+00  0.28837860614E+02  0.28837860614E+02  0.00000000000E+00 0. -1.
          4   -1    0    0  501    0  0.00000000000E+00 -0.00000000000E+00 -0.66063274921E+03  0.66063274921E+03  0.00000000000E+00 0. -1.
         36    2    1    2    0    0  0.35527136788E-14  0.00000000000E+00 -0.63179488859E+03  0.68947060982E+03  0.27605242356E+03 0.  0.
         25    2    3    3    0    0 -0.78908820216E+01  0.35911569359E+02 -0.18802648769E+03  0.22487637134E+03  0.11774343073E+03 0.  0.
         25    2    3    3    0    0  0.78908820216E+01 -0.35911569359E+02 -0.44376840091E+03  0.46459423849E+03  0.13253492354E+03 0.  0.
          5    1    4    4  502    0  0.31383212163E+02 -0.16449232366E+02 -0.13746297578E+03  0.14203395003E+03  0.47000000000E+01 0.  1.
         -5    1    4    4    0  502 -0.39274094184E+02  0.52360801725E+02 -0.50563511907E+02  0.82842421305E+02  0.47000000000E+01 0.  1.
          5    1    5    5  503    0 -0.45004460736E+02 -0.44735849246E+02 -0.35592775297E+03  0.36157067501E+03  0.47000000000E+01 0. -1.
         -5    1    5    5    0  503  0.52895342758E+02  0.88242798871E+01 -0.87840647934E+02  0.10302356347E+03  0.47000000000E+01 0. -1.
<mgrwt>
<rscale>  0 0.27605242E+03</rscale>
<asrwt>0</asrwt>
<pdfrwt beam="1">  1        4 0.10163581E+00 0.27605242E+03</pdfrwt>
<pdfrwt beam="2">  1       -4 0.44365940E-02 0.27605242E+03</pdfrwt>
<totfact> 0.44601013E+02</totfact>
</mgrwt>
</event>
<event>
 9    1  0.2094635E-002  0.2755881E+03  0.7818608E-02  0.1098123E+00
         -2   -1    0    0    0  501 -0.00000000000E+00  0.00000000000E+00  0.71860953493E+02  0.71860953493E+02  0.00000000000E+00 0. -1.
          2   -1    0    0  501    0  0.00000000000E+00 -0.00000000000E+00 -0.26422137303E+03  0.26422137303E+03  0.00000000000E+00 0. -1.
         36    2    1    2    0    0  0.00000000000E+00  0.00000000000E+00 -0.19236041954E+03  0.33608232652E+03  0.27558809698E+03 0.  0.
         25    2    3    3    0    0  0.92331097233E+01  0.21692621343E+02 -0.34149786119E+02  0.13224859731E+03  0.12556935717E+03 0.  0.
         25    2    3    3    0    0 -0.92331097233E+01 -0.21692621343E+02 -0.15821063342E+03  0.20383372922E+03  0.12633987694E+03 0.  0.
          5    1    4    4  502    0  0.34162209067E+02  0.41982907340E+02  0.28741207847E+02  0.61463550707E+02  0.47000000000E+01 0. -1.
         -5    1    4    4    0  502 -0.24929099343E+02 -0.20290285997E+02 -0.62890993965E+02  0.70785046598E+02  0.47000000000E+01 0. -1.
          5    1    5    5  503    0 -0.14527083149E+01 -0.72862563930E+02 -0.68337839786E+02  0.10001606836E+03  0.47000000000E+01 0.  1.
         -5    1    5    5    0  503 -0.77804014083E+01  0.51169942588E+02 -0.89872793631E+02  0.10381766086E+03  0.47000000000E+01 0.  1.
<mgrwt>
<rscale>  0 0.27558810E+03</rscale>
<asrwt>0</asrwt>
<pdfrwt beam="1">  1        2 0.40649442E-01 0.27558810E+03</pdfrwt>
<pdfrwt beam="2">  1       -2 0.11055531E-01 0.27558810E+03</pdfrwt>
<totfact> 0.70367979E+03</totfact>
</mgrwt>
</event>
<event>
 9    1  0.2094635E-002  0.2750200E+03  0.7818608E-02  0.1098440E+00
         -2   -1    0    0    0  501 -0.00000000000E+00  0.00000000000E+00  0.17316743572E+04  0.17316743572E+04  0.00000000000E+00 0. -1.
          2   -1    0    0  501    0  0.00000000000E+00 -0.00000000000E+00 -0.10919491621E+02  0.10919491621E+02  0.00000000000E+00 0. -1.
         36    2    1    2    0    0  0.00000000000E+00  0.00000000000E+00  0.17207548656E+04  0.17425938488E+04  0.27502002569E+03 0.  0.
         25    2    3    3    0    0  0.33917691616E+02  0.51249685875E+02  0.93317112703E+03  0.94346160183E+03  0.12463748112E+03 0.  0.
         25    2    3    3    0    0 -0.33917691616E+02 -0.51249685875E+02  0.78758373854E+03  0.79913224698E+03  0.12061203441E+03 0.  0.
          5    1    4    4  502    0  0.13057734020E+02 -0.34046826116E+02  0.11886869499E+03  0.12442486663E+03  0.47000000000E+01 0. -1.
         -5    1    4    4    0  502  0.20859957596E+02  0.85296511991E+02  0.81430243204E+03  0.81903673521E+03  0.47000000000E+01 0. -1.
          5    1    5    5  503    0  0.55029587690E+01  0.80959992782E+01  0.57059318421E+03  0.57069650396E+03  0.47000000000E+01 0. -1.
         -5    1    5    5    0  503 -0.39420650385E+02 -0.59345685153E+02  0.21699055433E+03  0.22843574302E+03  0.47000000000E+01 0. -1.
<mgrwt>
<rscale>  0 0.27502003E+03</rscale>
<asrwt>0</asrwt>
<pdfrwt beam="1">  1        2 0.16799232E-02 0.27502003E+03</pdfrwt>
<pdfrwt beam="2">  1       -2 0.26641122E+00 0.27502003E+03</pdfrwt>
<totfact> 0.40111932E+02</totfact>
</mgrwt>
</event>
<event>
 9    1  0.2094635E-002  0.2732167E+03  0.7818608E-02  0.1099453E+00
          2   -1    0    0  501    0  0.00000000000E+00  0.00000000000E+00  0.58516462796E+03  0.58516462796E+03  0.00000000000E+00 0.  1.
         -2   -1    0    0    0  501 -0.00000000000E+00 -0.00000000000E+00 -0.31891617817E+02  0.31891617817E+02  0.00000000000E+00 0.  1.
         36    2    1    2    0    0  0.71054273576E-14  0.00000000000E+00  0.55327301014E+03  0.61705624578E+03  0.27321673942E+03 0.  0.
         25    2    3    3    0    0  0.27668565346E+02 -0.30356204267E+02  0.24237837066E+03  0.27408659229E+03  0.12119874943E+03 0.  0.
         25    2    3    3    0    0 -0.27668565346E+02  0.30356204267E+02  0.31089463948E+03  0.34296965348E+03  0.13887281126E+03 0.  0.
          5    1    4    4  502    0 -0.44375668679E+02 -0.11496860728E+01  0.12925681773E+03  0.13674771178E+03  0.47000000000E+01 0. -1.
         -5    1    4    4    0  502  0.72044234025E+02 -0.29206518195E+02  0.11312155293E+03  0.13733888051E+03  0.47000000000E+01 0. -1.
          5    1    5    5  503    0 -0.43137137032E+02  0.35394637755E+02  0.31922401629E+03  0.32409821898E+03  0.47000000000E+01 0.  1.
         -5    1    5    5    0  503  0.15468571686E+02 -0.50384334873E+01 -0.83293768098E+01  0.18871434499E+02  0.47000000000E+01 0.  1.
<mgrwt>
<rscale>  0 0.27321674E+03</rscale>
<asrwt>0</asrwt>
<pdfrwt beam="1">  1        2 0.90025319E-01 0.27321674E+03</pdfrwt>
<pdfrwt beam="2">  1       -2 0.49064032E-02 0.27321674E+03</pdfrwt>
<totfact> 0.10416394E+04</totfact>
</mgrwt>
</event>
<event>
 9    1  0.2094635E-002  0.2758558E+03  0.7818608E-02  0.1097974E+00
         -1   -1    0    0    0  501 -0.00000000000E+00  0.00000000000E+00  0.77677592469E+02  0.77677592469E+02  0.00000000000E+00 0. -1.
          1   -1    0    0  501    0  0.00000000000E+00 -0.00000000000E+00 -0.24491109983E+03  0.24491109983E+03  0.00000000000E+00 0. -1.
         36    2    1    2    0    0 -0.71054273576E-14  0.00000000000E+00 -0.16723350736E+03  0.32258869230E+03  0.27585579279E+03 0.  0.
         25    2    3    3    0    0 -0.45073676861E+02 -0.12547521846E+02 -0.90336165557E+02  0.16508839984E+03  0.13001723079E+03 0.  0.
         25    2    3    3    0    0  0.45073676861E+02  0.12547521846E+02 -0.76897341807E+02  0.15750029247E+03  0.12924420413E+03 0.  0.
          5    1    4    4  502    0  0.36273763483E+02  0.19460685217E+02 -0.31760520035E+01  0.41553357177E+02  0.47000000000E+01 0.  1.
         -5    1    4    4    0  502 -0.81347440344E+02 -0.32008207063E+02 -0.87160113554E+02  0.12353504266E+03  0.47000000000E+01 0.  1.
          5    1    5    5  503    0 -0.19938144169E+00  0.44913572396E+02 -0.89497858473E+02  0.10024582490E+03  0.47000000000E+01 0. -1.
         -5    1    5    5    0  503  0.45273058303E+02 -0.32366050550E+02  0.12600516665E+02  0.57254467569E+02  0.47000000000E+01 0. -1.
<mgrwt>
<rscale>  0 0.27585579E+03</rscale>
<asrwt>0</asrwt>
<pdfrwt beam="1">  1        1 0.37678631E-01 0.27585579E+03</pdfrwt>
<pdfrwt beam="2">  1       -1 0.11950399E-01 0.27585579E+03</pdfrwt>
<totfact> 0.51920956E+03</totfact>
</mgrwt>
</event>
<event>
 9    1  0.2094635E-002  0.2741018E+03  0.7818608E-02  0.1098955E+00
         -2   -1    0    0    0  501 -0.00000000000E+00  0.00000000000E+00  0.30987069881E+02  0.30987069881E+02  0.00000000000E+00 0.  1.
          2   -1    0    0  501    0  0.00000000000E+00 -0.00000000000E+00 -0.60615460174E+03  0.60615460174E+03  0.00000000000E+00 0.  1.
         36    2    1    2    0    0  0.00000000000E+00 -0.35527136788E-14 -0.57516753186E+03  0.63714167162E+03  0.27410184241E+03 0.  0.
         25    2    3    3    0    0 -0.60802462507E+02  0.28383212669E+02 -0.36251087898E+03  0.38936279197E+03  0.12524655756E+03 0.  0.
         25    2    3    3    0    0  0.60802462507E+02 -0.28383212669E+02 -0.21265665288E+03  0.24777887966E+03  0.10802302987E+03 0.  0.
          5    1    4    4  502    0 -0.38777908890E+02  0.55718261541E+02 -0.81694738641E+02  0.10632201658E+03  0.47000000000E+01 0. -1.
         -5    1    4    4    0  502 -0.22024553617E+02 -0.27335048872E+02 -0.28081614034E+03  0.28304077539E+03  0.47000000000E+01 0. -1.
          5    1    5    5  503    0  0.11908993181E+02 -0.58725719223E+02 -0.61600885515E+02  0.86065633752E+02  0.47000000000E+01 0. -1.
         -5    1    5    5    0  503  0.48893469326E+02  0.30342506555E+02 -0.15105576736E+03  0.16171324590E+03  0.47000000000E+01 0. -1.
<mgrwt>
<rscale>  0 0.27410184E+03</rscale>
<asrwt>0</asrwt>
<pdfrwt beam="1">  1        2 0.93254555E-01 0.27410184E+03</pdfrwt>
<pdfrwt beam="2">  1       -2 0.47672415E-02 0.27410184E+03</pdfrwt>
<totfact> 0.10446857E+04</totfact>
</mgrwt>
</event>
<event>
 9    1  0.2094635E-002  0.2745613E+03  0.7818608E-02  0.1098697E+00
          2   -1    0    0  501    0  0.00000000000E+00  0.00000000000E+00  0.97801245745E+03  0.97801245745E+03  0.00000000000E+00 0. -1.
         -2   -1    0    0    0  501 -0.00000000000E+00 -0.00000000000E+00 -0.19269667482E+02  0.19269667482E+02  0.00000000000E+00 0. -1.
         36    2    1    2    0    0  0.35527136788E-14  0.00000000000E+00  0.95874278997E+03  0.99728212493E+03  0.27456128531E+03 0.  0.
         25    2    3    3    0    0  0.23396801695E+02 -0.49490042226E+02  0.30737089444E+03  0.33050040429E+03  0.10842958950E+03 0.  0.
         25    2    3    3    0    0 -0.23396801695E+02  0.49490042226E+02  0.65137189553E+03  0.66678172064E+03  0.13158967317E+03 0.  0.
          5    1    4    4  502    0  0.29362497284E+02  0.17367578258E+02  0.31936815027E+02  0.46966362169E+02  0.47000000000E+01 0. -1.
         -5    1    4    4    0  502 -0.59656955891E+01 -0.66857620485E+02  0.27543407941E+03  0.28353404212E+03  0.47000000000E+01 0. -1.
          5    1    5    5  503    0  0.26831347922E+02  0.48531646809E+02  0.11210378299E+03  0.12515826035E+03  0.47000000000E+01 0.  1.
         -5    1    5    5    0  503 -0.50228149617E+02  0.95839541748E+00  0.53926811254E+03  0.54162346029E+03  0.47000000000E+01 0.  1.
<mgrwt>
<rscale>  0 0.27456129E+03</rscale>
<asrwt>0</asrwt>
<pdfrwt beam="1">  1        2 0.15046342E+00 0.27456129E+03</pdfrwt>
<pdfrwt beam="2">  1       -2 0.29645650E-02 0.27456129E+03</pdfrwt>
<totfact> 0.11650651E+04</totfact>
</mgrwt>
</event>
<event>
 9    1  0.2094635E-002  0.2749708E+03  0.7818608E-02  0.1098468E+00
         -1   -1    0    0    0  501 -0.00000000000E+00  0.00000000000E+00  0.11761868016E+02  0.11761868016E+02  0.00000000000E+00 0.  1.
          1   -1    0    0  501    0  0.00000000000E+00 -0.00000000000E+00 -0.16070773568E+04  0.16070773568E+04  0.00000000000E+00 0.  1.
         36    2    1    2    0    0 -0.71054273576E-14 -0.35527136788E-14 -0.15953154888E+04  0.16188392249E+04  0.27497077491E+03 0.  0.
         25    2    3    3    0    0 -0.47332823137E+02 -0.43309140218E+01 -0.98561893980E+03  0.99590003098E+03  0.13458463604E+03 0.  0.
         25    2    3    3    0    0  0.47332823137E+02  0.43309140218E+01 -0.60969654904E+03  0.62293919389E+03  0.11859259846E+03 0.  0.
          5    1    4    4  502    0 -0.76181702855E+02  0.26594252032E+02 -0.84822951620E+03  0.85207177412E+03  0.47000000000E+01 0.  1.
         -5    1    4    4    0  502  0.28848879719E+02 -0.30925166054E+02 -0.13738942359E+03  0.14382825686E+03  0.47000000000E+01 0.  1.
          5    1    5    5  503    0  0.33314193353E+02 -0.54946430113E+02 -0.25460645839E+03  0.26263184178E+03  0.47000000000E+01 0. -1.
         -5    1    5    5    0  503  0.14018629784E+02  0.59277344135E+02 -0.35509009064E+03  0.36030735211E+03  0.47000000000E+01 0. -1.
<mgrwt>
<rscale>  0 0.27497077E+03</rscale>
<asrwt>0</asrwt>
<pdfrwt beam="1">  1        1 0.24724281E+00 0.27497077E+03</pdfrwt>
<pdfrwt beam="2">  1       -1 0.18095171E-02 0.27497077E+03</pdfrwt>
<totfact> 0.48277341E+03</totfact>
</mgrwt>
</event>
<event>
 9    1  0.2094635E-002  0.2773963E+03  0.7818608E-02  0.1097120E+00
         -2   -1    0    0    0  501 -0.00000000000E+00  0.00000000000E+00  0.58231242696E+02  0.58231242696E+02  0.00000000000E+00 0.  1.
          2   -1    0    0  501    0  0.00000000000E+00 -0.00000000000E+00 -0.33035843687E+03  0.33035843687E+03  0.00000000000E+00 0.  1.
         36    2    1    2    0    0 -0.71054273576E-14  0.00000000000E+00 -0.27212719418E+03  0.38858967957E+03  0.27739633966E+03 0.  0.
         25    2    3    3    0    0 -0.54530204008E+02  0.11685412082E+02 -0.13865432189E+03  0.19714915311E+03  0.12857945244E+03 0.  0.
         25    2    3    3    0    0  0.54530204008E+02 -0.11685412082E+02 -0.13347287228E+03  0.19144052645E+03  0.12539687208E+03 0.  0.
          5    1    4    4  502    0 -0.48905582796E+02  0.60929894660E+02 -0.42977492979E+02  0.89293689557E+02  0.47000000000E+01 0.  1.
         -5    1    4    4    0  502 -0.56246212116E+01 -0.49244482578E+02 -0.95676828912E+02  0.10785546356E+03  0.47000000000E+01 0.  1.
          5    1    5    5  503    0  0.19433957337E+02 -0.57780868165E+02 -0.11535358098E+03  0.13055591165E+03  0.47000000000E+01 0. -1.
         -5    1    5    5    0  503  0.35096246670E+02  0.46095456083E+02 -0.18119291307E+02  0.60884614800E+02  0.47000000000E+01 0. -1.
<mgrwt>
<rscale>  0 0.27739634E+03</rscale>
<asrwt>0</asrwt>
<pdfrwt beam="1">  1        2 0.50824374E-01 0.27739634E+03</pdfrwt>
<pdfrwt beam="2">  1       -2 0.89586529E-02 0.27739634E+03</pdfrwt>
<totfact> 0.77309016E+03</totfact>
</mgrwt>
</event>
<event>
 9    1  0.2094635E-002  0.2727020E+03  0.7818608E-02  0.1099743E+00
         -3   -1    0    0    0  501 -0.00000000000E+00  0.00000000000E+00  0.14515910254E+03  0.14515910254E+03  0.00000000000E+00 0.  1.
          3   -1    0    0  501    0  0.00000000000E+00 -0.00000000000E+00 -0.12807737873E+03  0.12807737873E+03  0.00000000000E+00 0.  1.
         36    2    1    2    0    0  0.00000000000E+00  0.00000000000E+00  0.17081723817E+02  0.27323648127E+03  0.27270201578E+03 0.  0.
         25    2    3    3    0    0  0.67886302972E+01  0.24302619108E+02  0.47857043737E+02  0.13694981456E+03  0.12581038222E+03 0.  0.
         25    2    3    3    0    0 -0.67886302972E+01 -0.24302619108E+02 -0.30775319920E+02  0.13628666671E+03  0.13034658573E+03 0.  0.
          5    1    4    4  502    0 -0.45784305560E+02 -0.27388693223E+02  0.12261111280E+02  0.54943316262E+02  0.47000000000E+01 0. -1.
         -5    1    4    4    0  502  0.52572935857E+02  0.51691312331E+02  0.35595932457E+02  0.82006498295E+02  0.47000000000E+01 0. -1.
          5    1    5    5  503    0 -0.65111916704E+02 -0.23223013963E+02  0.17934137258E+01  0.69312166373E+02  0.47000000000E+01 0.  1.
         -5    1    5    5    0  503  0.58323286407E+02 -0.10796051444E+01 -0.32568733646E+02  0.66974500341E+02  0.47000000000E+01 0.  1.
<mgrwt>
<rscale>  0 0.27270202E+03</rscale>
<asrwt>0</asrwt>
<pdfrwt beam="1">  1        3 0.19704212E-01 0.27270202E+03</pdfrwt>
<pdfrwt beam="2">  1       -3 0.22332170E-01 0.27270202E+03</pdfrwt>
<totfact> 0.10790309E+03</totfact>
</mgrwt>
</event>
<event>
 9    1  0.2094635E-002  0.2741295E+03  0.7818608E-02  0.1098939E+00
         -2   -1    0    0    0  501 -0.00000000000E+00  0.00000000000E+00  0.25319310662E+02  0.25319310662E+02  0.00000000000E+00 0.  1.
          2   -1    0    0  501    0  0.00000000000E+00 -0.00000000000E+00 -0.74199281763E+03  0.74199281763E+03  0.00000000000E+00 0.  1.
         36    2    1    2    0    0  0.00000000000E+00  0.00000000000E+00 -0.71667350696E+03  0.76731212829E+03  0.27412950705E+03 0.  0.
         25    2    3    3    0    0 -0.17102945674E+01  0.19852897892E+02 -0.24323830525E+03  0.27676184903E+03  0.13051890773E+03 0.  0.
         25    2    3    3    0    0  0.17102945674E+01 -0.19852897892E+02 -0.47343520172E+03  0.49055027926E+03  0.12689217311E+03 0.  0.
          5    1    4    4  502    0 -0.25125896999E+02  0.68445896749E+02 -0.17508755948E+03  0.18972057075E+03  0.47000000000E+01 0. -1.
         -5    1    4    4    0  502  0.23415602432E+02 -0.48592998857E+02 -0.68150745771E+02  0.87041278278E+02  0.47000000000E+01 0. -1.
          5    1    5    5  503    0  0.14967084724E+02 -0.58705188103E+02 -0.11805190291E+03  0.13277294346E+03  0.47000000000E+01 0. -1.
         -5    1    5    5    0  503 -0.13256790157E+02  0.38852290211E+02 -0.35538329880E+03  0.35777733580E+03  0.47000000000E+01 0. -1.
<mgrwt>
<rscale>  0 0.27412951E+03</rscale>
<asrwt>0</asrwt>
<pdfrwt beam="1">  1        2 0.11415275E+00 0.27412951E+03</pdfrwt>
<pdfrwt beam="2">  1       -2 0.38952783E-02 0.27412951E+03</pdfrwt>
<totfact> 0.11120572E+04</totfact>
</mgrwt>
</event>
<event>
 9    1  0.2094635E-002  0.2751487E+03  0.7818608E-02  0.1098369E+00
          1   -1    0    0  501    0  0.00000000000E+00  0.00000000000E+00  0.11809320566E+02  0.11809320566E+02  0.00000000000E+00 0. -1.
         -1   -1    0    0    0  501 -0.00000000000E+00 -0.00000000000E+00 -0.16026917746E+04  0.16026917746E+04  0.00000000000E+00 0. -1.
         36    2    1    2    0    0 -0.35527136788E-14  0.35527136788E-14 -0.15908824540E+04  0.16145010951E+04  0.27514869387E+03 0.  0.
         25    2    3    3    0    0 -0.27476209496E+02 -0.25164991940E+02 -0.10557063685E+04  0.10636738641E+04  0.12449069763E+03 0.  0.
         25    2    3    3    0    0  0.27476209496E+02  0.25164991940E+02 -0.53517608550E+03  0.55082723102E+03  0.12493589170E+03 0.  0.
          5    1    4    4  502    0 -0.53426065248E+01 -0.49833877978E+02 -0.97502825316E+03  0.97632686294E+03  0.47000000000E+01 0.  1.
         -5    1    4    4    0  502 -0.22133602971E+02  0.24668886038E+02 -0.80678115342E+02  0.87347001173E+02  0.47000000000E+01 0.  1.
          5    1    5    5  503    0 -0.30773050797E+02  0.13061510553E+02 -0.41224414622E+02  0.53283450284E+02  0.47000000000E+01 0.  1.
         -5    1    5    5    0  503  0.58249260292E+02  0.12103481387E+02 -0.49395167088E+03  0.49754378074E+03  0.47000000000E+01 0.  1.
<mgrwt>
<rscale>  0 0.27514869E+03</rscale>
<asrwt>0</asrwt>
<pdfrwt beam="1">  1        1 0.18168189E-02 0.27514869E+03</pdfrwt>
<pdfrwt beam="2">  1       -1 0.24656792E+00 0.27514869E+03</pdfrwt>
<totfact> 0.57818667E+02</totfact>
</mgrwt>
</event>
<event>
 9    1  0.2094635E-002  0.2742532E+03  0.7818608E-02  0.1098870E+00
          2   -1    0    0  501    0  0.00000000000E+00  0.00000000000E+00  0.28356549431E+02  0.28356549431E+02  0.00000000000E+00 0.  1.
         -2   -1    0    0    0  501 -0.00000000000E+00 -0.00000000000E+00 -0.66311679614E+03  0.66311679614E+03  0.00000000000E+00 0.  1.
         36    2    1    2    0    0  0.00000000000E+00 -0.71054273576E-14 -0.63476024671E+03  0.69147334558E+03  0.27425319840E+03 0.  0.
         25    2    3    3    0    0  0.35693170239E+02 -0.32873598175E+02 -0.27232583621E+03  0.30286091418E+03  0.12332354362E+03 0.  0.
         25    2    3    3    0    0 -0.35693170239E+02  0.32873598175E+02 -0.36243441051E+03  0.38861243140E+03  0.13155319859E+03 0.  0.
          5    1    4    4  502    0  0.79093505591E+02 -0.73849513270E+01 -0.13745354297E+03  0.15882659288E+03  0.47000000000E+01 0.  1.
         -5    1    4    4    0  502 -0.43400335352E+02 -0.25488646848E+02 -0.13487229324E+03  0.14403432129E+03  0.47000000000E+01 0.  1.
          5    1    5    5  503    0 -0.80884650382E+02 -0.34976870114E+01 -0.23254922784E+03  0.24628396994E+03  0.47000000000E+01 0.  1.
         -5    1    5    5    0  503  0.45191480143E+02  0.36371285187E+02 -0.12988518267E+03  0.14232846146E+03  0.47000000000E+01 0.  1.
<mgrwt>
<rscale>  0 0.27425320E+03</rscale>
<asrwt>0</asrwt>
<pdfrwt beam="1">  1        2 0.43625462E-02 0.27425320E+03</pdfrwt>
<pdfrwt beam="2">  1       -2 0.10201796E+00 0.27425320E+03</pdfrwt>
<totfact> 0.15422812E+03</totfact>
</mgrwt>
</event>
<event>
 9    1  0.2094635E-002  0.2751003E+03  0.7818608E-02  0.1098396E+00
          1   -1    0    0  501    0  0.00000000000E+00  0.00000000000E+00  0.72903383578E+03  0.72903383578E+03  0.00000000000E+00 0.  1.
         -1   -1    0    0    0  501 -0.00000000000E+00 -0.00000000000E+00 -0.25952218180E+02  0.25952218180E+02  0.00000000000E+00 0.  1.
         36    2    1    2    0    0  0.00000000000E+00 -0.55511151231E-15  0.70308161760E+03  0.75498605396E+03  0.27510031019E+03 0.  0.
         25    2    3    3    0    0 -0.73046951734E+01 -0.56936778463E+00  0.20850792053E+03  0.24443870727E+03  0.12736187003E+03 0.  0.
         25    2    3    3    0    0  0.73046951734E+01  0.56936778463E+00  0.49457369707E+03  0.51054734669E+03  0.12649809732E+03 0.  0.
          5    1    4    4  502    0 -0.47547999460E+02  0.20905039433E+01  0.20393436551E+02  0.51991967781E+02  0.47000000000E+01 0. -1.
         -5    1    4    4    0  502  0.40243304287E+02 -0.26598717279E+01  0.18811448398E+03  0.19244673949E+03  0.47000000000E+01 0. -1.
          5    1    5    5  503    0  0.66740917157E+02 -0.86901886373E+00  0.24869315706E+03  0.25753734018E+03  0.47000000000E+01 0. -1.
         -5    1    5    5    0  503 -0.59436221984E+02  0.14383866484E+01  0.24588054001E+03  0.25301000652E+03  0.47000000000E+01 0. -1.
<mgrwt>
<rscale>  0 0.27510031E+03</rscale>
<asrwt>0</asrwt>
<pdfrwt beam="1">  1        1 0.11215904E+00 0.27510031E+03</pdfrwt>
<pdfrwt beam="2">  1       -1 0.39926495E-02 0.27510031E+03</pdfrwt>
<totfact> 0.65288627E+03</totfact>
</mgrwt>
</event>
<event>
 9    1  0.2094635E-002  0.2757208E+03  0.7818608E-02  0.1098049E+00
         -1   -1    0    0    0  501 -0.00000000000E+00  0.00000000000E+00  0.34034854637E+02  0.34034854637E+02  0.00000000000E+00 0.  1.
          1   -1    0    0  501    0  0.00000000000E+00 -0.00000000000E+00 -0.55841258845E+03  0.55841258845E+03  0.00000000000E+00 0.  1.
         36    2    1    2    0    0 -0.14210854715E-13  0.00000000000E+00 -0.52437773381E+03  0.59244744309E+03  0.27572081006E+03 0.  0.
         25    2    3    3    0    0 -0.52241954810E+02  0.10468880536E+02 -0.32239130103E+03  0.35003261104E+03  0.12549047180E+03 0.  0.
         25    2    3    3    0    0  0.52241954810E+02 -0.10468880536E+02 -0.20198643279E+03  0.24241483205E+03  0.12299435948E+03 0.  0.
          5    1    4    4  502    0  0.21193585297E+02  0.48589405952E+02 -0.13634689185E+03  0.14636482961E+03  0.47000000000E+01 0. -1.
         -5    1    4    4    0  502 -0.73435540107E+02 -0.38120525417E+02 -0.18604440918E+03  0.20366778144E+03  0.47000000000E+01 0. -1.
          5    1    5    5  503    0  0.65471485781E+02  0.30019160216E+02 -0.18066656764E+03  0.19455118631E+03  0.47000000000E+01 0.  1.
         -5    1    5    5    0  503 -0.13229530971E+02 -0.40488040752E+02 -0.21319865149E+02  0.47863645741E+02  0.47000000000E+01 0.  1.
<mgrwt>
<rscale>  0 0.27572081E+03</rscale>
<asrwt>0</asrwt>
<pdfrwt beam="1">  1        1 0.85909633E-01 0.27572081E+03</pdfrwt>
<pdfrwt beam="2">  1       -1 0.52361312E-02 0.27572081E+03</pdfrwt>
<totfact> 0.63544751E+03</totfact>
</mgrwt>
</event>
<event>
 9    1  0.2094635E-002  0.2758481E+03  0.7818608E-02  0.1097978E+00
          2   -1    0    0  501    0  0.00000000000E+00  0.00000000000E+00  0.10533951616E+04  0.10533951616E+04  0.00000000000E+00 0. -1.
         -2   -1    0    0    0  501 -0.00000000000E+00 -0.00000000000E+00 -0.18058794998E+02  0.18058794998E+02  0.00000000000E+00 0. -1.
         36    2    1    2    0    0  0.71054273576E-14  0.00000000000E+00  0.10353363666E+04  0.10714539566E+04  0.27584812688E+03 0.  0.
         25    2    3    3    0    0  0.45506432569E+02 -0.68217079326E+01  0.38429353635E+03  0.40693208329E+03  0.12567747302E+03 0.  0.
         25    2    3    3    0    0 -0.45506432569E+02  0.68217079326E+01  0.65104283026E+03  0.66452187332E+03  0.12496072255E+03 0.  0.
          5    1    4    4  502    0  0.39410115838E+02 -0.63929049219E+02  0.24144626939E+03  0.25290012173E+03  0.47000000000E+01 0.  1.
         -5    1    4    4    0  502  0.60963167316E+01  0.57107341286E+02  0.14284726695E+03  0.15403196156E+03  0.47000000000E+01 0.  1.
          5    1    5    5  503    0 -0.12382408233E+02  0.48447649528E+02  0.11087335225E+03  0.12171889343E+03  0.47000000000E+01 0.  1.
         -5    1    5    5    0  503 -0.33124024336E+02 -0.41625941595E+02  0.54016947801E+03  0.54280297988E+03  0.47000000000E+01 0.  1.
<mgrwt>
<rscale>  0 0.27584813E+03</rscale>
<asrwt>0</asrwt>
<pdfrwt beam="1">  1        2 0.16206075E+00 0.27584813E+03</pdfrwt>
<pdfrwt beam="2">  1       -2 0.27782770E-02 0.27584813E+03</pdfrwt>
<totfact> 0.11546267E+04</totfact>
</mgrwt>
</event>
<event>
 9    1  0.2094635E-002  0.2792680E+03  0.7818608E-02  0.1096089E+00
         -2   -1    0    0    0  501 -0.00000000000E+00  0.00000000000E+00  0.67152798201E+02  0.67152798201E+02  0.00000000000E+00 0. -1.
          2   -1    0    0  501    0  0.00000000000E+00 -0.00000000000E+00 -0.29034754536E+03  0.29034754536E+03  0.00000000000E+00 0. -1.
         36    2    1    2    0    0  0.71054273576E-14  0.00000000000E+00 -0.22319474716E+03  0.35750034356E+03  0.27926797254E+03 0.  0.
         25    2    3    3    0    0 -0.32792333256E+02  0.54928225684E+02 -0.96403936420E+02  0.17153662979E+03  0.12664378905E+03 0.  0.
         25    2    3    3    0    0  0.32792333256E+02 -0.54928225684E+02 -0.12679081074E+03  0.18596371378E+03  0.12005892743E+03 0.  0.
          5    1    4    4  502    0  0.25041580923E+02  0.61165878943E+02 -0.96193493040E+01  0.66954965485E+02  0.47000000000E+01 0. -1.
         -5    1    4    4    0  502 -0.57833914179E+02 -0.62376532596E+01 -0.86784587116E+02  0.10458166430E+03  0.47000000000E+01 0. -1.
          5    1    5    5  503    0  0.22907251015E+02  0.34191723585E+02 -0.64598280671E+02  0.76738803590E+02  0.47000000000E+01 0. -1.
         -5    1    5    5    0  503  0.98850822417E+01 -0.89119949268E+02 -0.62192530070E+02  0.10922491019E+03  0.47000000000E+01 0. -1.
<mgrwt>
<rscale>  0 0.27926797E+03</rscale>
<asrwt>0</asrwt>
<pdfrwt beam="1">  1        2 0.44668853E-01 0.27926797E+03</pdfrwt>
<pdfrwt beam="2">  1       -2 0.10331200E-01 0.27926797E+03</pdfrwt>
<totfact> 0.70885851E+03</totfact>
</mgrwt>
</event>
<event>
 9    1  0.2094635E-002  0.2749273E+03  0.7818608E-02  0.1098492E+00
          2   -1    0    0  501    0  0.00000000000E+00  0.00000000000E+00  0.76610123207E+02  0.76610123207E+02  0.00000000000E+00 0. -1.
         -2   -1    0    0    0  501 -0.00000000000E+00 -0.00000000000E+00 -0.24665480096E+03  0.24665480096E+03  0.00000000000E+00 0. -1.
         36    2    1    2    0    0  0.00000000000E+00  0.00000000000E+00 -0.17004467775E+03  0.32326492417E+03  0.27492729723E+03 0.  0.
         25    2    3    3    0    0  0.42221839589E+01 -0.43980766783E+02 -0.21770727165E+02  0.13396718773E+03  0.12458373948E+03 0.  0.
         25    2    3    3    0    0 -0.42221839589E+01  0.43980766783E+02 -0.14827395059E+03  0.18929773643E+03  0.10907031636E+03 0.  0.
          5    1    4    4  502    0  0.55086834148E+01 -0.22151790021E+02 -0.73768939022E+02  0.77362741410E+02  0.47000000000E+01 0. -1.
         -5    1    4    4    0  502 -0.12864994558E+01 -0.21828976762E+02  0.51998211857E+02  0.56604446324E+02  0.47000000000E+01 0. -1.
          5    1    5    5  503    0 -0.74659800871E+01 -0.36122094022E+02 -0.42017958236E+02  0.56108335829E+02  0.47000000000E+01 0.  1.
         -5    1    5    5    0  503  0.32437961282E+01  0.80102860805E+02 -0.10625599235E+03  0.13318940060E+03  0.47000000000E+01 0.  1.
<mgrwt>
<rscale>  0 0.27492730E+03</rscale>
<asrwt>0</asrwt>
<pdfrwt beam="1">  1        2 0.11786173E-01 0.27492730E+03</pdfrwt>
<pdfrwt beam="2">  1       -2 0.37946893E-01 0.27492730E+03</pdfrwt>
<totfact> 0.34270258E+03</totfact>
</mgrwt>
</event>
<event>
 9    1  0.2094635E-002  0.2738536E+03  0.7818608E-02  0.1099094E+00
          2   -1    0    0  501    0  0.00000000000E+00  0.00000000000E+00  0.75089177458E+02  0.75089177458E+02  0.00000000000E+00 0. -1.
         -2   -1    0    0    0  501 -0.00000000000E+00 -0.00000000000E+00 -0.24968904956E+03  0.24968904956E+03  0.00000000000E+00 0. -1.
         36    2    1    2    0    0 -0.35527136788E-14  0.71054273576E-14 -0.17459987210E+03  0.32477822701E+03  0.27385357658E+03 0.  0.
         25    2    3    3    0    0 -0.30478589990E+01 -0.39237037569E+02 -0.13591515776E+03  0.18884038924E+03  0.12505569934E+03 0.  0.
         25    2    3    3    0    0  0.30478589990E+01  0.39237037569E+02 -0.38684714335E+02  0.13593783777E+03  0.12423266098E+03 0.  0.
          5    1    4    4  502    0 -0.20759019115E+02 -0.27511245987E+01  0.18982640785E+02  0.28651984440E+02  0.47000000000E+01 0.  1.
         -5    1    4    4    0  502  0.17711160116E+02 -0.36485912971E+02 -0.15489779855E+03  0.16018840480E+03  0.47000000000E+01 0.  1.
          5    1    5    5  503    0 -0.26756910097E+02  0.29461978955E+02 -0.76633741276E+02  0.86479828537E+02  0.47000000000E+01 0.  1.
         -5    1    5    5    0  503  0.29804769096E+02  0.97750586142E+01  0.37949026941E+02  0.49458009235E+02  0.47000000000E+01 0.  1.
<mgrwt>
<rscale>  0 0.27385358E+03</rscale>
<asrwt>0</asrwt>
<pdfrwt beam="1">  1        2 0.11552181E-01 0.27385358E+03</pdfrwt>
<pdfrwt beam="2">  1       -2 0.38413699E-01 0.27385358E+03</pdfrwt>
<totfact> 0.34311961E+03</totfact>
</mgrwt>
</event>
<event>
 9    1  0.2094635E-002  0.2748524E+03  0.7818608E-02  0.1098534E+00
         -4   -1    0    0    0  501 -0.00000000000E+00  0.00000000000E+00  0.10840561497E+03  0.10840561497E+03  0.00000000000E+00 0.  1.
          4   -1    0    0  501    0  0.00000000000E+00 -0.00000000000E+00 -0.17421572828E+03  0.17421572828E+03  0.00000000000E+00 0.  1.
         36    2    1    2    0    0 -0.71054273576E-14  0.00000000000E+00 -0.65810113318E+02  0.28262134325E+03  0.27485241976E+03 0.  0.
         25    2    3    3    0    0  0.13790816403E+02  0.45166272445E+01 -0.92801546493E+02  0.15524207018E+03  0.12360172645E+03 0.  0.
         25    2    3    3    0    0 -0.13790816403E+02 -0.45166272445E+01  0.26991433175E+02  0.12737927307E+03  0.12363800065E+03 0.  0.
          5    1    4    4  502    0  0.62118119542E+02 -0.25220391505E+02 -0.55638475395E+02  0.87249406115E+02  0.47000000000E+01 0.  1.
         -5    1    4    4    0  502 -0.48327303139E+02  0.29737018749E+02 -0.37163071097E+02  0.67992664061E+02  0.47000000000E+01 0.  1.
          5    1    5    5  503    0  0.31807404707E+02 -0.83569271431E+01 -0.36254778436E+02  0.49173653361E+02  0.47000000000E+01 0. -1.
         -5    1    5    5    0  503 -0.45598221110E+02  0.38402998987E+01  0.63246211610E+02  0.78205619713E+02  0.47000000000E+01 0. -1.
<mgrwt>
<rscale>  0 0.27485242E+03</rscale>
<asrwt>0</asrwt>
<pdfrwt beam="1">  1        4 0.26802420E-01 0.27485242E+03</pdfrwt>
<pdfrwt beam="2">  1       -4 0.16677787E-01 0.27485242E+03</pdfrwt>
<totfact> 0.77100352E+02</totfact>
</mgrwt>
</event>
<event>
 9    1  0.2094635E-002  0.2757145E+03  0.7818608E-02  0.1098053E+00
          4   -1    0    0  501    0  0.00000000000E+00  0.00000000000E+00  0.50533057241E+02  0.50533057241E+02  0.00000000000E+00 0.  1.
         -4   -1    0    0    0  501 -0.00000000000E+00 -0.00000000000E+00 -0.37608306466E+03  0.37608306466E+03  0.00000000000E+00 0.  1.
         36    2    1    2    0    0 -0.71054273576E-14  0.00000000000E+00 -0.32555000742E+03  0.42661612191E+03  0.27571454103E+03 0.  0.
         25    2    3    3    0    0 -0.38404257373E+02 -0.13231464558E+02 -0.10501622536E+03  0.16839261192E+03  0.12521064460E+03 0.  0.
         25    2    3    3    0    0  0.38404257373E+02  0.13231464558E+02 -0.22053378206E+03  0.25822350999E+03  0.12804012434E+03 0.  0.
          5    1    4    4  502    0 -0.18376985754E+02  0.44679596810E+02 -0.21753187543E+01  0.48588084837E+02  0.47000000000E+01 0.  1.
         -5    1    4    4    0  502 -0.20027271620E+02 -0.57911061368E+02 -0.10284090661E+03  0.11980452708E+03  0.47000000000E+01 0.  1.
          5    1    5    5  503    0  0.81120243797E+02  0.17555670360E+02 -0.99174958811E+02  0.12940810628E+03  0.47000000000E+01 0. -1.
         -5    1    5    5    0  503 -0.42715986424E+02 -0.43242058026E+01 -0.12135882325E+03  0.12881540371E+03  0.47000000000E+01 0. -1.
<mgrwt>
<rscale>  0 0.27571454E+03</rscale>
<asrwt>0</asrwt>
<pdfrwt beam="1">  1        4 0.77743165E-02 0.27571454E+03</pdfrwt>
<pdfrwt beam="2">  1       -4 0.57858933E-01 0.27571454E+03</pdfrwt>
<totfact> 0.62187350E+02</totfact>
</mgrwt>
</event>
<event>
 9    1  0.2094635E-002  0.2746369E+03  0.7818608E-02  0.1098655E+00
          1   -1    0    0  501    0  0.00000000000E+00  0.00000000000E+00  0.78311368413E+03  0.78311368413E+03  0.00000000000E+00 0.  1.
         -1   -1    0    0    0  501 -0.00000000000E+00 -0.00000000000E+00 -0.24078697010E+02  0.24078697010E+02  0.00000000000E+00 0.  1.
         36    2    1    2    0    0  0.00000000000E+00  0.00000000000E+00  0.75903498712E+03  0.80719238114E+03  0.27463690302E+03 0.  0.
         25    2    3    3    0    0 -0.11096056247E+02 -0.83776552418E+01  0.30649587271E+03  0.33118072632E+03  0.12469019981E+03 0.  0.
         25    2    3    3    0    0  0.11096056247E+02  0.83776552418E+01  0.45253911441E+03  0.47601165482E+03  0.14697665760E+03 0.  0.
          5    1    4    4  502    0 -0.50752201456E+02 -0.31371110992E+02  0.79253626952E+02  0.99313442909E+02  0.47000000000E+01 0.  1.
         -5    1    4    4    0  502  0.39656145209E+02  0.22993455750E+02  0.22724224576E+03  0.23186728341E+03  0.47000000000E+01 0.  1.
          5    1    5    5  503    0 -0.12587369911E+02 -0.26615550911E+02  0.10017827854E+02  0.31452763098E+02  0.47000000000E+01 0.  1.
         -5    1    5    5    0  503  0.23683426158E+02  0.34993206153E+02  0.44252128655E+03  0.44455889172E+03  0.47000000000E+01 0.  1.
<mgrwt>
<rscale>  0 0.27463690E+03</rscale>
<asrwt>0</asrwt>
<pdfrwt beam="1">  1        1 0.12047901E+00 0.27463690E+03</pdfrwt>
<pdfrwt beam="2">  1       -1 0.37044155E-02 0.27463690E+03</pdfrwt>
<totfact> 0.65531904E+03</totfact>
</mgrwt>
</event>
<event>
 9    1  0.2094635E-002  0.2750695E+03  0.7818608E-02  0.1098413E+00
         -4   -1    0    0    0  501 -0.00000000000E+00  0.00000000000E+00  0.86941146292E+02  0.86941146292E+02  0.00000000000E+00 0.  1.
          4   -1    0    0  501    0  0.00000000000E+00 -0.00000000000E+00 -0.21757024255E+03  0.21757024255E+03  0.00000000000E+00 0.  1.
         36    2    1    2    0    0  0.00000000000E+00  0.00000000000E+00 -0.13062909625E+03  0.30451138884E+03  0.27506949148E+03 0.  0.
         25    2    3    3    0    0  0.66077732383E+01 -0.17807429299E+02 -0.15353460415E+02  0.12780441549E+03  0.12544908396E+03 0.  0.
         25    2    3    3    0    0 -0.66077732383E+01  0.17807429299E+02 -0.11527563584E+03  0.17670697335E+03  0.13257494110E+03 0.  0.
          5    1    4    4  502    0  0.35383999468E-01 -0.63869946428E+02  0.22247798265E+02  0.67796945627E+02  0.47000000000E+01 0. -1.
         -5    1    4    4    0  502  0.65723892388E+01  0.46062517129E+02 -0.37601258681E+02  0.60007469859E+02  0.47000000000E+01 0. -1.
          5    1    5    5  503    0  0.55107182499E+01 -0.41914974267E+02 -0.10685386071E+03  0.11500900239E+03  0.47000000000E+01 0. -1.
         -5    1    5    5    0  503 -0.12118491488E+02  0.59722403567E+02 -0.84217751299E+01  0.61697970956E+02  0.47000000000E+01 0. -1.
<mgrwt>
<rscale>  0 0.27506949E+03</rscale>
<asrwt>0</asrwt>
<pdfrwt beam="1">  1        4 0.33472345E-01 0.27506949E+03</pdfrwt>
<pdfrwt beam="2">  1       -4 0.13375561E-01 0.27506949E+03</pdfrwt>
<totfact> 0.74436715E+02</totfact>
</mgrwt>
</event>
<event>
 9    1  0.2094635E-002  0.2746974E+03  0.7818608E-02  0.1098621E+00
         -1   -1    0    0    0  501 -0.00000000000E+00  0.00000000000E+00  0.15949457296E+02  0.15949457296E+02  0.00000000000E+00 0. -1.
          1   -1    0    0  501    0  0.00000000000E+00 -0.00000000000E+00 -0.11827779892E+04  0.11827779892E+04  0.00000000000E+00 0. -1.
         36    2    1    2    0    0 -0.71054273576E-14 -0.14210854715E-13 -0.11668285319E+04  0.11987274464E+04  0.27469741192E+03 0.  0.
         25    2    3    3    0    0 -0.18013473828E+02  0.64207346749E+02 -0.61109088208E+03  0.62261722688E+03  0.98858871327E+02 0.  0.
         25    2    3    3    0    0  0.18013473828E+02 -0.64207346749E+02 -0.55573764978E+03  0.57611021957E+03  0.13642426869E+03 0.  0.
          5    1    4    4  502    0 -0.34450821955E+02  0.78289892268E+02 -0.34009357493E+03  0.35071626148E+03  0.47000000000E+01 0.  1.
         -5    1    4    4    0  502  0.16437348127E+02 -0.14082545519E+02 -0.27099730715E+03  0.27190096540E+03  0.47000000000E+01 0.  1.
          5    1    5    5  503    0  0.63515926264E+02 -0.12815410581E+02 -0.40797006586E+03  0.41311036331E+03  0.47000000000E+01 0. -1.
         -5    1    5    5    0  503 -0.45502452436E+02 -0.51391936168E+02 -0.14776758393E+03  0.16299985626E+03  0.47000000000E+01 0. -1.
<mgrwt>
<rscale>  0 0.27469741E+03</rscale>
<asrwt>0</asrwt>
<pdfrwt beam="1">  1        1 0.18196579E+00 0.27469741E+03</pdfrwt>
<pdfrwt beam="2">  1       -1 0.24537633E-02 0.27469741E+03</pdfrwt>
<totfact> 0.59756800E+03</totfact>
</mgrwt>
</event>
<event>
 9    1  0.2094635E-002  0.2699737E+03  0.7818608E-02  0.1101295E+00
         -1   -1    0    0    0  501 -0.00000000000E+00  0.00000000000E+00  0.13559086163E+04  0.13559086163E+04  0.00000000000E+00 0. -1.
          1   -1    0    0  501    0  0.00000000000E+00 -0.00000000000E+00 -0.13438548487E+02  0.13438548487E+02  0.00000000000E+00 0. -1.
         36    2    1    2    0    0  0.00000000000E+00  0.71054273576E-14  0.13424700678E+04  0.13693471648E+04  0.26997365563E+03 0.  0.
         25    2    3    3    0    0 -0.11452032025E+02 -0.75512905602E+01  0.45285004409E+03  0.46982896208E+03  0.12441028956E+03 0.  0.
         25    2    3    3    0    0  0.11452032025E+02  0.75512905602E+01  0.88962002371E+03  0.89951820269E+03  0.13236706299E+03 0.  0.
          5    1    4    4  502    0 -0.52542182841E+01 -0.62386205928E+02  0.16175351495E+03  0.17351061955E+03  0.47000000000E+01 0. -1.
         -5    1    4    4    0  502 -0.61978137409E+01  0.54834915368E+02  0.29109652914E+03  0.29631834252E+03  0.47000000000E+01 0. -1.
          5    1    5    5  503    0 -0.28557858698E+02  0.57320857623E+02  0.32529653589E+03  0.33157375993E+03  0.47000000000E+01 0.  1.
         -5    1    5    5    0  503  0.40009890723E+02 -0.49769567063E+02  0.56432348781E+03  0.56794444276E+03  0.47000000000E+01 0.  1.
<mgrwt>
<rscale>  0 0.26997366E+03</rscale>
<asrwt>0</asrwt>
<pdfrwt beam="1">  1        1 0.20674701E-02 0.26997366E+03</pdfrwt>
<pdfrwt beam="2">  1       -1 0.20860122E+00 0.26997366E+03</pdfrwt>
<totfact> 0.84471200E+02</totfact>
</mgrwt>
</event>
<event>
 9    1  0.2094635E-002  0.2748349E+03  0.7818608E-02  0.1098544E+00
          1   -1    0    0  501    0  0.00000000000E+00  0.00000000000E+00  0.11468266290E+03  0.11468266290E+03  0.00000000000E+00 0. -1.
         -1   -1    0    0    0  501 -0.00000000000E+00 -0.00000000000E+00 -0.16465917096E+03  0.16465917096E+03  0.00000000000E+00 0. -1.
         36    2    1    2    0    0  0.71054273576E-14  0.71054273576E-14 -0.49976508063E+02  0.27934183386E+03  0.27483487550E+03 0.  0.
         25    2    3    3    0    0 -0.50010333441E+02  0.14819669786E+02  0.14169422161E+02  0.13362127783E+03  0.12220154377E+03 0.  0.
         25    2    3    3    0    0  0.50010333441E+02 -0.14819669786E+02 -0.64145930224E+02  0.14572055604E+03  0.11999635004E+03 0.  0.
          5    1    4    4  502    0 -0.35044149019E+02  0.65532177780E+02 -0.10296935810E+02  0.75170975729E+02  0.47000000000E+01 0. -1.
         -5    1    4    4    0  502 -0.14966184423E+02 -0.50712507993E+02  0.24466357971E+02  0.58450302099E+02  0.47000000000E+01 0. -1.
          5    1    5    5  503    0  0.42863036680E+02  0.18995399000E+02 -0.90481362311E+02  0.10201486177E+03  0.47000000000E+01 0. -1.
         -5    1    5    5    0  503  0.71472967617E+01 -0.33815068786E+02  0.26335432087E+02  0.43705694265E+02  0.47000000000E+01 0. -1.
<mgrwt>
<rscale>  0 0.27483488E+03</rscale>
<asrwt>0</asrwt>
<pdfrwt beam="1">  1        1 0.17643486E-01 0.27483488E+03</pdfrwt>
<pdfrwt beam="2">  1       -1 0.25332180E-01 0.27483488E+03</pdfrwt>
<totfact> 0.40726170E+03</totfact>
</mgrwt>
</event>
<event>
 9    1  0.2094635E-002  0.2763557E+03  0.7818608E-02  0.1097696E+00
         -1   -1    0    0    0  501 -0.00000000000E+00  0.00000000000E+00  0.63044541562E+03  0.63044541562E+03  0.00000000000E+00 0.  1.
          1   -1    0    0  501    0  0.00000000000E+00 -0.00000000000E+00 -0.30285120693E+02  0.30285120693E+02  0.00000000000E+00 0.  1.
         36    2    1    2    0    0 -0.71054273576E-14 -0.17763568394E-14  0.60016029492E+03  0.66073053631E+03  0.27635568025E+03 0.  0.
         25    2    3    3    0    0 -0.43240365934E+02 -0.54693367461E+01  0.40782193631E+03  0.42917657857E+03  0.12638892739E+03 0.  0.
         25    2    3    3    0    0  0.43240365934E+02  0.54693367461E+01  0.19233835861E+03  0.23155395774E+03  0.12134062906E+03 0.  0.
          5    1    4    4  502    0 -0.22002464747E+02 -0.57494656104E+02  0.31152535640E+03  0.31758444801E+03  0.47000000000E+01 0.  1.
         -5    1    4    4    0  502 -0.21237901188E+02  0.52025319357E+02  0.96296579910E+02  0.11159213056E+03  0.47000000000E+01 0.  1.
          5    1    5    5  503    0 -0.39306562814E+02  0.19758916928E+02  0.54658439827E+02  0.70321090170E+02  0.47000000000E+01 0. -1.
         -5    1    5    5    0  503  0.82546928748E+02 -0.14289580181E+02  0.13767991878E+03  0.16123286757E+03  0.47000000000E+01 0. -1.
<mgrwt>
<rscale>  0 0.27635568E+03</rscale>
<asrwt>0</asrwt>
<pdfrwt beam="1">  1        1 0.46592498E-02 0.27635568E+03</pdfrwt>
<pdfrwt beam="2">  1       -1 0.96991593E-01 0.27635568E+03</pdfrwt>
<totfact> 0.19796020E+03</totfact>
</mgrwt>
</event>
<event>
 9    1  0.2094635E-002  0.2750488E+03  0.7818608E-02  0.1098424E+00
          1   -1    0    0  501    0  0.00000000000E+00  0.00000000000E+00  0.30927810879E+02  0.30927810879E+02  0.00000000000E+00 0.  1.
         -1   -1    0    0    0  501 -0.00000000000E+00 -0.00000000000E+00 -0.61151951782E+03  0.61151951782E+03  0.00000000000E+00 0.  1.
         36    2    1    2    0    0  0.00000000000E+00  0.00000000000E+00 -0.58059170694E+03  0.64244732870E+03  0.27504879564E+03 0.  0.
         25    2    3    3    0    0  0.38922899970E+01 -0.18962945980E+02 -0.15066565100E+03  0.19449626364E+03  0.12146569449E+03 0.  0.
         25    2    3    3    0    0 -0.38922899970E+01  0.18962945980E+02 -0.42992605594E+03  0.44795106506E+03  0.12429400576E+03 0.  0.
          5    1    4    4  502    0  0.35903509583E+02 -0.43482945640E+02 -0.14217512322E+03  0.15302184231E+03  0.47000000000E+01 0.  1.
         -5    1    4    4    0  502 -0.32011219586E+02  0.24519999660E+02 -0.84905277815E+01  0.41474421331E+02  0.47000000000E+01 0.  1.
          5    1    5    5  503    0 -0.50294093819E+02 -0.23097950527E+02 -0.12750809972E+03  0.13908061219E+03  0.47000000000E+01 0. -1.
         -5    1    5    5    0  503  0.46401803822E+02  0.42060896507E+02 -0.30241795621E+03  0.30887045287E+03  0.47000000000E+01 0. -1.
<mgrwt>
<rscale>  0 0.27504880E+03</rscale>
<asrwt>0</asrwt>
<pdfrwt beam="1">  1        1 0.47581243E-02 0.27504880E+03</pdfrwt>
<pdfrwt beam="2">  1       -1 0.94079934E-01 0.27504880E+03</pdfrwt>
<totfact> 0.20553295E+03</totfact>
</mgrwt>
</event>
<event>
 9    1  0.2094635E-002  0.2769739E+03  0.7818608E-02  0.1097353E+00
         -2   -1    0    0    0  501 -0.00000000000E+00  0.00000000000E+00  0.93770299602E+02  0.93770299602E+02  0.00000000000E+00 0. -1.
          2   -1    0    0  501    0  0.00000000000E+00 -0.00000000000E+00 -0.20452780828E+03  0.20452780828E+03  0.00000000000E+00 0. -1.
         36    2    1    2    0    0 -0.71054273576E-14  0.00000000000E+00 -0.11075750867E+03  0.29829810788E+03  0.27697388945E+03 0.  0.
         25    2    3    3    0    0 -0.35306160210E+02  0.40653859428E+02 -0.56907629127E+02  0.14785733028E+03  0.12539557659E+03 0.  0.
         25    2    3    3    0    0  0.35306160210E+02 -0.40653859428E+02 -0.53849879547E+02  0.15044077760E+03  0.12974342682E+03 0.  0.
          5    1    4    4  502    0  0.24286076261E+02 -0.41442384786E+01  0.26091948170E+02  0.36192098199E+02  0.47000000000E+01 0.  1.
         -5    1    4    4    0  502 -0.59592236471E+02  0.44798097906E+02 -0.82999577297E+02  0.11166523208E+03  0.47000000000E+01 0.  1.
          5    1    5    5  503    0  0.47756202280E+02 -0.61456966021E+02 -0.81891657970E+02  0.11307496263E+03  0.47000000000E+01 0. -1.
         -5    1    5    5    0  503 -0.12450042070E+02  0.20803106593E+02  0.28041778423E+02  0.37365814973E+02  0.47000000000E+01 0. -1.
<mgrwt>
<rscale>  0 0.27697389E+03</rscale>
<asrwt>0</asrwt>
<pdfrwt beam="1">  1        2 0.31465816E-01 0.27697389E+03</pdfrwt>
<pdfrwt beam="2">  1       -2 0.14426200E-01 0.27697389E+03</pdfrwt>
<totfact> 0.60326384E+03</totfact>
</mgrwt>
</event>
<event>
 9    1  0.2094635E-002  0.2769023E+03  0.7818608E-02  0.1097393E+00
         -2   -1    0    0    0  501 -0.00000000000E+00  0.00000000000E+00  0.78816564922E+01  0.78816564922E+01  0.00000000000E+00 0.  1.
          2   -1    0    0  501    0  0.00000000000E+00 -0.00000000000E+00 -0.24320683242E+04  0.24320683242E+04  0.00000000000E+00 0.  1.
         36    2    1    2    0    0  0.14210854715E-13  0.71054273576E-14 -0.24241866677E+04  0.24399499807E+04  0.27690234450E+03 0.  0.
         25    2    3    3    0    0  0.50169309519E+02  0.40440813219E+02 -0.11614053194E+04  0.11693942339E+04  0.12028357897E+03 0.  0.
         25    2    3    3    0    0 -0.50169309519E+02 -0.40440813219E+02 -0.12627813483E+04  0.12705557468E+04  0.12467057819E+03 0.  0.
          5    1    4    4  502    0 -0.54905504878E-01  0.36819837506E+02 -0.98110706878E+02  0.10489758936E+03  0.47000000000E+01 0. -1.
         -5    1    4    4    0  502  0.50224215024E+02  0.36209757135E+01 -0.10632946125E+04  0.10644966446E+04  0.47000000000E+01 0. -1.
          5    1    5    5  503    0 -0.53384889106E+02 -0.81182273603E+02 -0.97662358063E+03  0.98145617129E+03  0.47000000000E+01 0.  1.
         -5    1    5    5    0  503  0.32155795873E+01  0.40741460384E+02 -0.28615776766E+03  0.28909957547E+03  0.47000000000E+01 0.  1.
<mgrwt>
<rscale>  0 0.27690234E+03</rscale>
<asrwt>0</asrwt>
<pdfrwt beam="1">  1        2 0.37416464E+00 0.27690234E+03</pdfrwt>
<pdfrwt beam="2">  1       -2 0.12125616E-02 0.27690234E+03</pdfrwt>
<totfact> 0.70340496E+03</totfact>
</mgrwt>
</event>
<event>
 9    1  0.2094635E-002  0.2755202E+03  0.7818608E-02  0.1098161E+00
         -2   -1    0    0    0  501 -0.00000000000E+00  0.00000000000E+00  0.90647636632E+02  0.90647636632E+02  0.00000000000E+00 0. -1.
          2   -1    0    0  501    0  0.00000000000E+00 -0.00000000000E+00 -0.20935840014E+03  0.20935840014E+03  0.00000000000E+00 0. -1.
         36    2    1    2    0    0 -0.71054273576E-14  0.00000000000E+00 -0.11871076351E+03  0.30000603677E+03  0.27552019295E+03 0.  0.
         25    2    3    3    0    0  0.11577393693E+02 -0.55310286039E+02 -0.11119899799E+03  0.17655112630E+03  0.12494726591E+03 0.  0.
         25    2    3    3    0    0 -0.11577393693E+02  0.55310286039E+02 -0.75117655146E+01  0.12345491047E+03  0.10950536293E+03 0.  0.
          5    1    4    4  502    0 -0.22009686973E+02 -0.86196877656E+02 -0.57985124088E+02  0.10629530871E+03  0.47000000000E+01 0. -1.
         -5    1    4    4    0  502  0.33587080666E+02  0.30886591617E+02 -0.53213873904E+02  0.70255817590E+02  0.47000000000E+01 0. -1.
          5    1    5    5  503    0 -0.56940399821E+02  0.17036081914E+02  0.11971383381E+02  0.60809877807E+02  0.47000000000E+01 0. -1.
         -5    1    5    5    0  503  0.45363006128E+02  0.38274204125E+02 -0.19483148896E+02  0.62645032662E+02  0.47000000000E+01 0. -1.
<mgrwt>
<rscale>  0 0.27552019E+03</rscale>
<asrwt>0</asrwt>
<pdfrwt beam="1">  1        2 0.32208984E-01 0.27552019E+03</pdfrwt>
<pdfrwt beam="2">  1       -2 0.13945790E-01 0.27552019E+03</pdfrwt>
<totfact> 0.62159240E+03</totfact>
</mgrwt>
</event>
<event>
 9    1  0.2094635E-002  0.2869757E+03  0.7818608E-02  0.1091939E+00
         -2   -1    0    0    0  501 -0.00000000000E+00  0.00000000000E+00  0.63804035619E+01  0.63804035619E+01  0.00000000000E+00 0.  1.
          2   -1    0    0  501    0  0.00000000000E+00 -0.00000000000E+00 -0.32268737430E+04  0.32268737430E+04  0.00000000000E+00 0.  1.
         36    2    1    2    0    0  0.00000000000E+00  0.00000000000E+00 -0.32204933394E+04  0.32332541466E+04  0.28697565558E+03 0.  0.
         25    2    3    3    0    0 -0.49467839466E+02  0.49136927922E+02 -0.13866516892E+04  0.13938654170E+04  0.12327363310E+03 0.  0.
         25    2    3    3    0    0  0.49467839466E+02 -0.49136927922E+02 -0.18338416503E+04  0.18393887296E+04  0.12455599383E+03 0.  0.
          5    1    4    4  502    0 -0.79649117743E+02  0.71367984307E+01 -0.10689306904E+04  0.10719280884E+04  0.47000000000E+01 0. -1.
         -5    1    4    4    0  502  0.30181278277E+02  0.42000129491E+02 -0.31772099877E+03  0.32193732852E+03  0.47000000000E+01 0. -1.
          5    1    5    5  503    0  0.12799459419E+02 -0.42962244937E+02 -0.19591186978E+03  0.20103017528E+03  0.47000000000E+01 0. -1.
         -5    1    5    5    0  503  0.36668380048E+02 -0.61746829845E+01 -0.16379297805E+04  0.16383585543E+04  0.47000000000E+01 0. -1.
<mgrwt>
<rscale>  0 0.28697566E+03</rscale>
<asrwt>0</asrwt>
<pdfrwt beam="1">  1        2 0.49644134E+00 0.28697566E+03</pdfrwt>
<pdfrwt beam="2">  1       -2 0.98160208E-03 0.28697566E+03</pdfrwt>
<totfact> 0.33203857E+03</totfact>
</mgrwt>
</event>
<event>
 9    1  0.2094635E-002  0.2755205E+03  0.7818608E-02  0.1098161E+00
          1   -1    0    0  501    0  0.00000000000E+00  0.00000000000E+00  0.36810025842E+02  0.36810025842E+02  0.00000000000E+00 0. -1.
         -1   -1    0    0    0  501 -0.00000000000E+00 -0.00000000000E+00 -0.51556290942E+03  0.51556290942E+03  0.00000000000E+00 0. -1.
         36    2    1    2    0    0  0.71054273576E-14 -0.35527136788E-14 -0.47875288358E+03  0.55237293526E+03  0.27552048213E+03 0.  0.
         25    2    3    3    0    0 -0.28120041064E+02  0.21743049226E+02 -0.33113752644E+03  0.35549615878E+03  0.12434613217E+03 0.  0.
         25    2    3    3    0    0  0.28120041064E+02 -0.21743049226E+02 -0.14761535713E+03  0.19687677648E+03  0.12532627242E+03 0.  0.
          5    1    4    4  502    0 -0.48965727993E+02 -0.20611850431E+02 -0.60162179532E+02  0.80399432474E+02  0.47000000000E+01 0.  1.
         -5    1    4    4    0  502  0.20845686929E+02  0.42354899658E+02 -0.27097534691E+03  0.27509672630E+03  0.47000000000E+01 0.  1.
          5    1    5    5  503    0 -0.42286912203E+01 -0.44387499872E+01  0.21978579105E+02  0.23296614998E+02  0.47000000000E+01 0.  1.
         -5    1    5    5    0  503  0.32348732284E+02 -0.17304299239E+02 -0.16959393624E+03  0.17358016148E+03  0.47000000000E+01 0.  1.
<mgrwt>
<rscale>  0 0.27552048E+03</rscale>
<asrwt>0</asrwt>
<pdfrwt beam="1">  1        1 0.56630811E-02 0.27552048E+03</pdfrwt>
<pdfrwt beam="2">  1       -1 0.79317368E-01 0.27552048E+03</pdfrwt>
<totfact> 0.23205332E+03</totfact>
</mgrwt>
</event>
<event>
 9    1  0.2094635E-002  0.2663779E+03  0.7818608E-02  0.1103371E+00
          1   -1    0    0  501    0  0.00000000000E+00  0.00000000000E+00  0.96350576889E+02  0.96350576889E+02  0.00000000000E+00 0. -1.
         -1   -1    0    0    0  501 -0.00000000000E+00 -0.00000000000E+00 -0.18411200541E+03  0.18411200541E+03  0.00000000000E+00 0. -1.
         36    2    1    2    0    0  0.00000000000E+00  0.71054273576E-14 -0.87761428521E+02  0.28046258230E+03  0.26637791150E+03 0.  0.
         25    2    3    3    0    0 -0.14007380773E+02 -0.26403565152E+02 -0.88355416557E+02  0.15312418253E+03  0.12143714700E+03 0.  0.
         25    2    3    3    0    0  0.14007380773E+02  0.26403565152E+02  0.59398803599E+00  0.12733839977E+03  0.12377948241E+03 0.  0.
          5    1    4    4  502    0 -0.15437860169E+02 -0.71775155160E+02 -0.76153951969E+02  0.10588444090E+03  0.47000000000E+01 0. -1.
         -5    1    4    4    0  502  0.14304793960E+01  0.45371590008E+02 -0.12201464589E+02  0.47239741630E+02  0.47000000000E+01 0. -1.
          5    1    5    5  503    0 -0.41825074452E+02  0.47607139741E+02 -0.15295607323E+02  0.65359178472E+02  0.47000000000E+01 0. -1.
         -5    1    5    5    0  503  0.55832455225E+02 -0.21203574589E+02  0.15889595359E+02  0.61979221296E+02  0.47000000000E+01 0. -1.
<mgrwt>
<rscale>  0 0.26637791E+03</rscale>
<asrwt>0</asrwt>
<pdfrwt beam="1">  1        1 0.14823166E-01 0.26637791E+03</pdfrwt>
<pdfrwt beam="2">  1       -1 0.28324924E-01 0.26637791E+03</pdfrwt>
<totfact> 0.42355357E+03</totfact>
</mgrwt>
</event>
<event>
 9    1  0.2094635E-002  0.2747956E+03  0.7818608E-02  0.1098566E+00
         -2   -1    0    0    0  501 -0.00000000000E+00  0.00000000000E+00  0.67052523472E+03  0.67052523472E+03  0.00000000000E+00 0. -1.
          2   -1    0    0  501    0  0.00000000000E+00 -0.00000000000E+00 -0.28154277814E+02  0.28154277814E+02  0.00000000000E+00 0. -1.
         36    2    1    2    0    0  0.00000000000E+00 -0.14210854715E-13  0.64237095691E+03  0.69867951254E+03  0.27479558759E+03 0.  0.
         25    2    3    3    0    0 -0.58982993845E+01 -0.81348394434E+02  0.33730650079E+03  0.36888298295E+03  0.12508648380E+03 0.  0.
         25    2    3    3    0    0  0.58982993845E+01  0.81348394434E+02  0.30506445612E+03  0.32979652958E+03  0.95126638345E+02 0.  0.
          5    1    4    4  502    0  0.57066067345E+02 -0.55379162948E+02  0.15628432677E+03  0.17541456189E+03  0.47000000000E+01 0.  1.
         -5    1    4    4    0  502 -0.62964366729E+02 -0.25969231486E+02  0.18102217402E+03  0.19346842106E+03  0.47000000000E+01 0.  1.
          5    1    5    5  503    0 -0.21785941757E+02  0.58619072940E+02  0.79010654136E+02  0.10087416140E+03  0.47000000000E+01 0.  1.
         -5    1    5    5    0  503  0.27684241141E+02  0.22729321494E+02  0.22605380199E+03  0.22892236819E+03  0.47000000000E+01 0.  1.
<mgrwt>
<rscale>  0 0.27479559E+03</rscale>
<asrwt>0</asrwt>
<pdfrwt beam="1">  1        2 0.43314278E-02 0.27479559E+03</pdfrwt>
<pdfrwt beam="2">  1       -2 0.10315772E+00 0.27479559E+03</pdfrwt>
<totfact> 0.15171765E+03</totfact>
</mgrwt>
</event>
<event>
 9    1  0.2094635E-002  0.2747175E+03  0.7818608E-02  0.1098610E+00
          4   -1    0    0  501    0  0.00000000000E+00  0.00000000000E+00  0.33998503551E+02  0.33998503551E+02  0.00000000000E+00 0.  1.
         -4   -1    0    0    0  501 -0.00000000000E+00 -0.00000000000E+00 -0.55494871386E+03  0.55494871386E+03  0.00000000000E+00 0.  1.
         36    2    1    2    0    0  0.71054273576E-14  0.14210854715E-13 -0.52095021031E+03  0.58894721741E+03  0.27471749721E+03 0.  0.
         25    2    3    3    0    0  0.37459075694E+02  0.48200898554E+02 -0.24387140430E+03  0.27853377371E+03  0.11992202587E+03 0.  0.
         25    2    3    3    0    0 -0.37459075694E+02 -0.48200898554E+02 -0.27707880600E+03  0.31041344370E+03  0.12592590011E+03 0.  0.
          5    1    4    4  502    0  0.69798979175E+02  0.64526180575E+02 -0.14822227798E+03  0.17614613014E+03  0.47000000000E+01 0.  1.
         -5    1    4    4    0  502 -0.32339903481E+02 -0.16325282020E+02 -0.95649126324E+02  0.10238764357E+03  0.47000000000E+01 0.  1.
          5    1    5    5  503    0 -0.53965197351E+02 -0.60448558567E+02 -0.86302831215E+02  0.11847590233E+03  0.47000000000E+01 0.  1.
         -5    1    5    5    0  503  0.16506121657E+02  0.12247660012E+02 -0.19077597479E+03  0.19193754136E+03  0.47000000000E+01 0.  1.
<mgrwt>
<rscale>  0 0.27471750E+03</rscale>
<asrwt>0</asrwt>
<pdfrwt beam="1">  1        4 0.52305394E-02 0.27471750E+03</pdfrwt>
<pdfrwt beam="2">  1       -4 0.85376719E-01 0.27471750E+03</pdfrwt>
<totfact> 0.51033927E+02</totfact>
</mgrwt>
</event>
<event>
 8    1  0.2094635E-002  0.2447535E+03  0.7818608E-02  0.1116666E+00
          2   -1    0    0  501    0  0.00000000000E+00  0.00000000000E+00  0.16835257750E+03  0.16835257750E+03  0.00000000000E+00 0. -1.
         -2   -1    0    0    0  501 -0.00000000000E+00 -0.00000000000E+00 -0.88956544166E+02  0.88956544166E+02  0.00000000000E+00 0. -1.
         25    2    1    2    0    0  0.19498657931E+02 -0.19715287872E+01  0.30474692026E+02  0.12119257024E+03  0.11564967635E+03 0.  0.
         25    2    1    2    0    0 -0.19498657931E+02  0.19715287872E+01  0.48921341306E+02  0.13611655143E+03  0.12550033207E+03 0.  0.
          5    1    3    3  502    0  0.13390792597E+02  0.54211486176E+02 -0.15615465306E+01  0.56060030212E+02  0.47000000000E+01 0. -1.
         -5    1    3    3    0  502  0.61078653339E+01 -0.56183014964E+02  0.32036238556E+02  0.65132540025E+02  0.47000000000E+01 0. -1.
          5    1    4    4  503    0  0.30993351086E+02  0.35643884166E+02  0.57589806155E+02  0.74630758156E+02  0.47000000000E+01 0.  1.
         -5    1    4    4    0  503 -0.50492009016E+02 -0.33672355378E+02 -0.86684648495E+01  0.61485793270E+02  0.47000000000E+01 0.  1.
<mgrwt>
<rscale>  0 0.24475346E+03</rscale>
<asrwt>0</asrwt>
<pdfrwt beam="1">  1        2 0.25900397E-01 0.24475346E+03</pdfrwt>
<pdfrwt beam="2">  1       -2 0.13685622E-01 0.24475346E+03</pdfrwt>
<totfact> 0.81085324E+03</totfact>
</mgrwt>
</event>
<event>
 9    1  0.2094635E-002  0.2749477E+03  0.7818608E-02  0.1098481E+00
         -2   -1    0    0    0  501 -0.00000000000E+00  0.00000000000E+00  0.27682826959E+02  0.27682826959E+02  0.00000000000E+00 0.  1.
          2   -1    0    0  501    0  0.00000000000E+00 -0.00000000000E+00 -0.68269976112E+03  0.68269976112E+03  0.00000000000E+00 0.  1.
         36    2    1    2    0    0  0.00000000000E+00  0.71054273576E-14 -0.65501693416E+03  0.71038258808E+03  0.27494769941E+03 0.  0.
         25    2    3    3    0    0 -0.32493607218E+02  0.44327892173E+02 -0.26727209876E+03  0.30018422445E+03  0.12512153011E+03 0.  0.
         25    2    3    3    0    0  0.32493607218E+02 -0.44327892173E+02 -0.38774483540E+03  0.41019836363E+03  0.12204852973E+03 0.  0.
          5    1    4    4  502    0  0.19574480913E+02 -0.78441145750E+01  0.12973556411E+01  0.21644019223E+02  0.47000000000E+01 0.  1.
         -5    1    4    4    0  502 -0.52068088131E+02  0.52172006748E+02 -0.26856945440E+03  0.27854020523E+03  0.47000000000E+01 0.  1.
          5    1    5    5  503    0 -0.38003105407E+02  0.10105894803E+02 -0.72885784312E+02  0.82950543610E+02  0.47000000000E+01 0.  1.
         -5    1    5    5    0  503  0.70496712626E+02 -0.54433786976E+02 -0.31485905109E+03  0.32724782002E+03  0.47000000000E+01 0.  1.
<mgrwt>
<rscale>  0 0.27494770E+03</rscale>
<asrwt>0</asrwt>
<pdfrwt beam="1">  1        2 0.10503072E+00 0.27494770E+03</pdfrwt>
<pdfrwt beam="2">  1       -2 0.42588969E-02 0.27494770E+03</pdfrwt>
<totfact> 0.10763846E+04</totfact>
</mgrwt>
</event>
<event>
 9    1  0.2094635E-002  0.2726077E+03  0.7818608E-02  0.1099796E+00
          1   -1    0    0  501    0  0.00000000000E+00  0.00000000000E+00  0.27948833361E+03  0.27948833361E+03  0.00000000000E+00 0.  1.
         -1   -1    0    0    0  501 -0.00000000000E+00 -0.00000000000E+00 -0.66474108773E+02  0.66474108773E+02  0.00000000000E+00 0.  1.
         36    2    1    2    0    0 -0.14210854715E-13  0.00000000000E+00  0.21301422484E+03  0.34596244238E+03  0.27260768800E+03 0.  0.
         25    2    3    3    0    0  0.75379853222E+02  0.19498709560E+02  0.11067948718E+03  0.16720437274E+03  0.98209120929E+02 0.  0.
         25    2    3    3    0    0 -0.75379853222E+02 -0.19498709560E+02  0.10233473766E+03  0.17875806965E+03  0.12417619331E+03 0.  0.
          5    1    4    4  502    0  0.11016266760E+02 -0.28406110389E+02  0.50786267551E+00  0.30832015264E+02  0.47000000000E+01 0.  1.
         -5    1    4    4    0  502  0.64363586462E+02  0.47904819949E+02  0.11017162451E+03  0.13637235747E+03  0.47000000000E+01 0.  1.
          5    1    5    5  503    0  0.19617133697E+02  0.15211610823E+02  0.66860213748E+02  0.71474493497E+02  0.47000000000E+01 0. -1.
         -5    1    5    5    0  503 -0.94996986918E+02 -0.34710320383E+02  0.35474523910E+02  0.10728357615E+03  0.47000000000E+01 0. -1.
<mgrwt>
<rscale>  0 0.27260769E+03</rscale>
<asrwt>0</asrwt>
<pdfrwt beam="1">  1        1 0.42998205E-01 0.27260769E+03</pdfrwt>
<pdfrwt beam="2">  1       -1 0.10226786E-01 0.27260769E+03</pdfrwt>
<totfact> 0.56019783E+03</totfact>
</mgrwt>
</event>
<event>
 9    1  0.2094635E-002  0.2700089E+03  0.7818608E-02  0.1101274E+00
          2   -1    0    0  501    0  0.00000000000E+00  0.00000000000E+00  0.10491209746E+04  0.10491209746E+04  0.00000000000E+00 0.  1.
         -2   -1    0    0    0  501 -0.00000000000E+00 -0.00000000000E+00 -0.17372836637E+02  0.17372836637E+02  0.00000000000E+00 0.  1.
         36    2    1    2    0    0  0.00000000000E+00  0.71054273576E-14  0.10317481380E+04  0.10664938113E+04  0.27000894285E+03 0.  0.
         25    2    3    3    0    0 -0.46604937823E+02  0.80531603898E+01  0.55201351523E+03  0.56806971575E+03  0.12548867410E+03 0.  0.
         25    2    3    3    0    0  0.46604937823E+02 -0.80531603898E+01  0.47973462277E+03  0.49842409553E+03  0.12666647977E+03 0.  0.
          5    1    4    4  502    0 -0.66013850423E+01  0.51150847290E+02  0.42361246391E+03  0.42676644321E+03  0.47000000000E+01 0.  1.
         -5    1    4    4    0  502 -0.40003552780E+02 -0.43097686901E+02  0.12840105132E+03  0.14130327254E+03  0.47000000000E+01 0.  1.
          5    1    5    5  503    0  0.76081520455E+02  0.26317051042E+02  0.38454376122E+03  0.39290835983E+03  0.47000000000E+01 0. -1.
         -5    1    5    5    0  503 -0.29476582633E+02 -0.34370211432E+02  0.95190861546E+02  0.10551573570E+03  0.47000000000E+01 0. -1.
<mgrwt>
<rscale>  0 0.27000894E+03</rscale>
<asrwt>0</asrwt>
<pdfrwt beam="1">  1        2 0.16140318E+00 0.27000894E+03</pdfrwt>
<pdfrwt beam="2">  1       -2 0.26727449E-02 0.27000894E+03</pdfrwt>
<totfact> 0.12292964E+04</totfact>
</mgrwt>
</event>
<event>
 9    1  0.2094635E-002  0.2745587E+03  0.7818608E-02  0.1098699E+00
          3   -1    0    0  501    0  0.00000000000E+00  0.00000000000E+00  0.30681237782E+03  0.30681237782E+03  0.00000000000E+00 0.  1.
         -3   -1    0    0    0  501 -0.00000000000E+00 -0.00000000000E+00 -0.61423945317E+02  0.61423945317E+02  0.00000000000E+00 0.  1.
         36    2    1    2    0    0  0.00000000000E+00  0.00000000000E+00  0.24538843251E+03  0.36823632314E+03  0.27455874940E+03 0.  0.
         25    2    3    3    0    0  0.46081734833E+01 -0.15207865161E+02  0.51906330875E+02  0.13817796752E+03  0.12706836387E+03 0.  0.
         25    2    3    3    0    0 -0.46081734833E+01  0.15207865161E+02  0.19348210163E+03  0.23005835562E+03  0.12344638073E+03 0.  0.
          5    1    4    4  502    0  0.90055404424E+01 -0.28613509157E+02 -0.37098294079E+02  0.47939608764E+02  0.47000000000E+01 0. -1.
         -5    1    4    4    0  502 -0.43973669591E+01  0.13405643996E+02  0.89004624954E+02  0.90238358752E+02  0.47000000000E+01 0. -1.
          5    1    5    5  503    0 -0.29363954607E+02  0.10839356388E+02  0.20094131365E+03  0.20341886591E+03  0.47000000000E+01 0.  1.
         -5    1    5    5    0  503  0.24755781123E+02  0.43685087729E+01 -0.74592120238E+01  0.26639489709E+02  0.47000000000E+01 0.  1.
<mgrwt>
<rscale>  0 0.27455875E+03</rscale>
<asrwt>0</asrwt>
<pdfrwt beam="1">  1        3 0.47201903E-01 0.27455875E+03</pdfrwt>
<pdfrwt beam="2">  1       -3 0.94498379E-02 0.27455875E+03</pdfrwt>
<totfact> 0.92424631E+02</totfact>
</mgrwt>
</event>
<event>
 9    1  0.2094635E-002  0.2750386E+03  0.7818608E-02  0.1098430E+00
         -2   -1    0    0    0  501 -0.00000000000E+00  0.00000000000E+00  0.32651484303E+02  0.32651484303E+02  0.00000000000E+00 0.  1.
          2   -1    0    0  501    0  0.00000000000E+00 -0.00000000000E+00 -0.57919427222E+03  0.57919427222E+03  0.00000000000E+00 0.  1.
         36    2    1    2    0    0  0.88817841970E-15  0.10658141036E-13 -0.54654278792E+03  0.61184575653E+03  0.27503856230E+03 0.  0.
         25    2    3    3    0    0 -0.21652132462E+01 -0.29944625233E+02 -0.36979106239E+03  0.39480084481E+03  0.13498484549E+03 0.  0.
         25    2    3    3    0    0  0.21652132462E+01  0.29944625233E+02 -0.17675172553E+03  0.21704491172E+03  0.12233540981E+03 0.  0.
          5    1    4    4  502    0 -0.11669293783E+02  0.46107024396E+02 -0.23374116540E+03  0.23857714165E+03  0.47000000000E+01 0.  1.
         -5    1    4    4    0  502  0.95040805363E+01 -0.76051649629E+02 -0.13604989699E+03  0.15622370316E+03  0.47000000000E+01 0.  1.
          5    1    5    5  503    0  0.74091888858E+01  0.44128964102E+02 -0.19070369744E+03  0.19593940841E+03  0.47000000000E+01 0. -1.
         -5    1    5    5    0  503 -0.52439756396E+01 -0.14184338869E+02  0.13951971905E+02  0.21105503304E+02  0.47000000000E+01 0. -1.
<mgrwt>
<rscale>  0 0.27503856E+03</rscale>
<asrwt>0</asrwt>
<pdfrwt beam="1">  1        2 0.89106812E-01 0.27503856E+03</pdfrwt>
<pdfrwt beam="2">  1       -2 0.50233052E-02 0.27503856E+03</pdfrwt>
<totfact> 0.10172524E+04</totfact>
</mgrwt>
</event>
<event>
 9    1  0.2094635E-002  0.2751040E+03  0.7818608E-02  0.1098393E+00
          2   -1    0    0  501    0  0.00000000000E+00  0.00000000000E+00  0.25073208621E+03  0.25073208621E+03  0.00000000000E+00 0.  1.
         -2   -1    0    0    0  501 -0.00000000000E+00 -0.00000000000E+00 -0.75461244646E+02  0.75461244646E+02  0.00000000000E+00 0.  1.
         36    2    1    2    0    0  0.00000000000E+00  0.71054273576E-14  0.17527084157E+03  0.32619333086E+03  0.27510401886E+03 0.  0.
         25    2    3    3    0    0  0.66896950117E+02  0.12837459500E+02  0.10683911113E+03  0.17799518106E+03  0.12501074558E+03 0.  0.
         25    2    3    3    0    0 -0.66896950117E+02 -0.12837459500E+02  0.68431730431E+02  0.14819814980E+03  0.11242680985E+03 0.  0.
          5    1    4    4  502    0  0.60603502808E+02  0.62631555931E+02  0.44949086840E+02  0.98173350552E+02  0.47000000000E+01 0. -1.
         -5    1    4    4    0  502  0.62934473089E+01 -0.49794096430E+02  0.61890024294E+02  0.79821830507E+02  0.47000000000E+01 0. -1.
          5    1    5    5  503    0  0.15126933819E+02  0.24531824764E+02 -0.76111033676E+01  0.30177035101E+02  0.47000000000E+01 0.  1.
         -5    1    5    5    0  503 -0.82023883936E+02 -0.37369284264E+02  0.76042833799E+02  0.11802111470E+03  0.47000000000E+01 0.  1.
<mgrwt>
<rscale>  0 0.27510402E+03</rscale>
<asrwt>0</asrwt>
<pdfrwt beam="1">  1        2 0.38574167E-01 0.27510402E+03</pdfrwt>
<pdfrwt beam="2">  1       -2 0.11609422E-01 0.27510402E+03</pdfrwt>
<totfact> 0.68832205E+03</totfact>
</mgrwt>
</event>
<event>
 9    1  0.2094635E-002  0.2757096E+03  0.7818608E-02  0.1098056E+00
          2   -1    0    0  501    0  0.00000000000E+00  0.00000000000E+00  0.15431360912E+04  0.15431360912E+04  0.00000000000E+00 0.  1.
         -2   -1    0    0    0  501 -0.00000000000E+00 -0.00000000000E+00 -0.12315143504E+02  0.12315143504E+02  0.00000000000E+00 0.  1.
         36    2    1    2    0    0  0.00000000000E+00  0.71054273576E-14  0.15308209477E+04  0.15554512347E+04  0.27570957481E+03 0.  0.
         25    2    3    3    0    0 -0.80177082636E+01 -0.16967021452E+02  0.10796385936E+04  0.10868501754E+04  0.12357850748E+03 0.  0.
         25    2    3    3    0    0  0.80177082636E+01  0.16967021452E+02  0.45118235417E+03  0.46860105938E+03  0.12517696543E+03 0.  0.
          5    1    4    4  502    0 -0.46846746938E+02 -0.48917674472E+02  0.78347805074E+03  0.78641433263E+03  0.47000000000E+01 0.  1.
         -5    1    4    4    0  502  0.38829038674E+02  0.31950653020E+02  0.29616054283E+03  0.30043584273E+03  0.47000000000E+01 0.  1.
          5    1    5    5  503    0 -0.43374491807E+02  0.39683512476E+02  0.32619822120E+03  0.33148679796E+03  0.47000000000E+01 0. -1.
         -5    1    5    5    0  503  0.51392200071E+02 -0.22716491024E+02  0.12498413296E+03  0.13711426142E+03  0.47000000000E+01 0. -1.
<mgrwt>
<rscale>  0 0.27570957E+03</rscale>
<asrwt>0</asrwt>
<pdfrwt beam="1">  1        2 0.23740540E+00 0.27570957E+03</pdfrwt>
<pdfrwt beam="2">  1       -2 0.18946387E-02 0.27570957E+03</pdfrwt>
<totfact> 0.10832586E+04</totfact>
</mgrwt>
</event>
<event>
 9    1  0.2094635E-002  0.2748448E+03  0.7818608E-02  0.1098538E+00
         -3   -1    0    0    0  501 -0.00000000000E+00  0.00000000000E+00  0.29700170620E+02  0.29700170620E+02  0.00000000000E+00 0. -1.
          3   -1    0    0  501    0  0.00000000000E+00 -0.00000000000E+00 -0.63585191911E+03  0.63585191911E+03  0.00000000000E+00 0. -1.
         36    2    1    2    0    0  0.35527136788E-14 -0.14210854715E-13 -0.60615174849E+03  0.66555208973E+03  0.27484475972E+03 0.  0.
         25    2    3    3    0    0 -0.15583581529E+02  0.36821372248E+02 -0.27172128437E+03  0.30579928438E+03  0.13446964149E+03 0.  0.
         25    2    3    3    0    0  0.15583581529E+02 -0.36821372248E+02 -0.33443046412E+03  0.35975280535E+03  0.12641077547E+03 0.  0.
          5    1    4    4  502    0 -0.28183467221E+02  0.82805130168E+02 -0.21094852443E+03  0.22841271279E+03  0.47000000000E+01 0.  1.
         -5    1    4    4    0  502  0.12599885692E+02 -0.45983757920E+02 -0.60772759940E+02  0.77386571591E+02  0.47000000000E+01 0.  1.
          5    1    5    5  503    0  0.29106649812E+02 -0.56420040368E+02 -0.71613535743E+02  0.95817568953E+02  0.47000000000E+01 0.  1.
         -5    1    5    5    0  503 -0.13523068283E+02  0.19598668120E+02 -0.26281692838E+03  0.26393523639E+03  0.47000000000E+01 0.  1.
<mgrwt>
<rscale>  0 0.27484476E+03</rscale>
<asrwt>0</asrwt>
<pdfrwt beam="1">  1        3 0.97823367E-01 0.27484476E+03</pdfrwt>
<pdfrwt beam="2">  1       -3 0.45692572E-02 0.27484476E+03</pdfrwt>
<totfact> 0.63663612E+02</totfact>
</mgrwt>
</event>
<event>
 9    1  0.2094635E-002  0.2755155E+03  0.7818608E-02  0.1098164E+00
          1   -1    0    0  501    0  0.00000000000E+00  0.00000000000E+00  0.46160122142E+02  0.46160122142E+02  0.00000000000E+00 0. -1.
         -1   -1    0    0    0  501 -0.00000000000E+00 -0.00000000000E+00 -0.41111667129E+03  0.41111667129E+03  0.00000000000E+00 0. -1.
         36    2    1    2    0    0  0.00000000000E+00  0.00000000000E+00 -0.36495654915E+03  0.45727679344E+03  0.27551548604E+03 0.  0.
         25    2    3    3    0    0 -0.32706034608E+01 -0.52367791145E+02 -0.14452016262E+03  0.19836893594E+03  0.12534382691E+03 0.  0.
         25    2    3    3    0    0  0.32706034608E+01  0.52367791145E+02 -0.22043638653E+03  0.25890785750E+03  0.12525172962E+03 0.  0.
          5    1    4    4  502    0 -0.42063587171E+02 -0.76939668707E+01 -0.96704840526E+00  0.43029846322E+02  0.47000000000E+01 0.  1.
         -5    1    4    4    0  502  0.38792983710E+02 -0.44673824275E+02 -0.14355311422E+03  0.15533908961E+03  0.47000000000E+01 0.  1.
          5    1    5    5  503    0  0.18535336110E+02 -0.24266124067E+02 -0.71522628937E+01  0.31711958729E+02  0.47000000000E+01 0.  1.
         -5    1    5    5    0  503 -0.15264732649E+02  0.76633915212E+02 -0.21328412363E+03  0.22719589877E+03  0.47000000000E+01 0.  1.
<mgrwt>
<rscale>  0 0.27551549E+03</rscale>
<asrwt>0</asrwt>
<pdfrwt beam="1">  1        1 0.71015573E-02 0.27551549E+03</pdfrwt>
<pdfrwt beam="2">  1       -1 0.63248718E-01 0.27551549E+03</pdfrwt>
<totfact> 0.26778030E+03</totfact>
</mgrwt>
</event>
<event>
 9    1  0.2094635E-002  0.2759636E+03  0.7818608E-02  0.1097914E+00
          2   -1    0    0  501    0  0.00000000000E+00  0.00000000000E+00  0.41526840204E+02  0.41526840204E+02  0.00000000000E+00 0.  1.
         -2   -1    0    0    0  501 -0.00000000000E+00 -0.00000000000E+00 -0.45847398135E+03  0.45847398135E+03  0.00000000000E+00 0.  1.
         36    2    1    2    0    0  0.00000000000E+00 -0.71054273576E-14 -0.41694714114E+03  0.50000082155E+03  0.27596359007E+03 0.  0.
         25    2    3    3    0    0  0.21691410156E+02 -0.40419743825E+01 -0.14461358934E+03  0.19515359183E+03  0.12917035013E+03 0.  0.
         25    2    3    3    0    0 -0.21691410156E+02  0.40419743825E+01 -0.27233355181E+03  0.30484722972E+03  0.13520138756E+03 0.  0.
          5    1    4    4  502    0  0.79494877577E+01  0.62374983119E+02 -0.69696098673E+02  0.93986536508E+02  0.47000000000E+01 0.  1.
         -5    1    4    4    0  502  0.13741922398E+02 -0.66416957501E+02 -0.74917490663E+02  0.10116705532E+03  0.47000000000E+01 0.  1.
          5    1    5    5  503    0 -0.30167902666E+02 -0.62017681912E+02 -0.15774335557E+03  0.17222471207E+03  0.47000000000E+01 0.  1.
         -5    1    5    5    0  503  0.84764925098E+01  0.66059656294E+02 -0.11459019624E+03  0.13262251766E+03  0.47000000000E+01 0.  1.
<mgrwt>
<rscale>  0 0.27596359E+03</rscale>
<asrwt>0</asrwt>
<pdfrwt beam="1">  1        2 0.63887448E-02 0.27596359E+03</pdfrwt>
<pdfrwt beam="2">  1       -2 0.70534457E-01 0.27596359E+03</pdfrwt>
<totfact> 0.21304625E+03</totfact>
</mgrwt>
</event>
<event>
 9    1  0.2094635E-002  0.2752008E+03  0.7818608E-02  0.1098339E+00
         -1   -1    0    0    0  501 -0.00000000000E+00  0.00000000000E+00  0.18279797051E+02  0.18279797051E+02  0.00000000000E+00 0.  1.
          1   -1    0    0  501    0  0.00000000000E+00 -0.00000000000E+00 -0.10357815436E+04  0.10357815436E+04  0.00000000000E+00 0.  1.
         36    2    1    2    0    0  0.00000000000E+00 -0.14210854715E-13 -0.10175017465E+04  0.10540613406E+04  0.27520084597E+03 0.  0.
         25    2    3    3    0    0  0.69624755319E+01  0.40559366703E+02 -0.64158722707E+03  0.65506936098E+03  0.12565094289E+03 0.  0.
         25    2    3    3    0    0 -0.69624755319E+01 -0.40559366703E+02 -0.37591451946E+03  0.39899197966E+03  0.12723732000E+03 0.  0.
          5    1    4    4  502    0 -0.25046723970E+02 -0.34440157885E+02 -0.12679930000E+03  0.13384175484E+03  0.47000000000E+01 0. -1.
         -5    1    4    4    0  502  0.32009199502E+02  0.74999524588E+02 -0.51478792707E+03  0.52122760614E+03  0.47000000000E+01 0. -1.
          5    1    5    5  503    0 -0.35044624271E+02  0.34259262012E+02 -0.19568628411E+03  0.20178462408E+03  0.47000000000E+01 0.  1.
         -5    1    5    5    0  503  0.28082148739E+02 -0.74818628714E+02 -0.18022823535E+03  0.19720735559E+03  0.47000000000E+01 0.  1.
<mgrwt>
<rscale>  0 0.27520085E+03</rscale>
<asrwt>0</asrwt>
<pdfrwt beam="1">  1        1 0.15935100E+00 0.27520085E+03</pdfrwt>
<pdfrwt beam="2">  1       -1 0.28122766E-02 0.27520085E+03</pdfrwt>
<totfact> 0.62375524E+03</totfact>
</mgrwt>
</event>
<event>
 9    1  0.2094635E-002  0.2755750E+03  0.7818608E-02  0.1098131E+00
         -1   -1    0    0    0  501 -0.00000000000E+00  0.00000000000E+00  0.37969753962E+03  0.37969753962E+03  0.00000000000E+00 0.  1.
          1   -1    0    0  501    0  0.00000000000E+00 -0.00000000000E+00 -0.50001355340E+02  0.50001355340E+02  0.00000000000E+00 0.  1.
         36    2    1    2    0    0 -0.14210854715E-13 -0.13322676296E-14  0.32969618428E+03  0.42969889496E+03  0.27557497419E+03 0.  0.
         25    2    3    3    0    0 -0.57557409812E+02  0.77124401722E+00  0.17208585245E+03  0.22213270622E+03  0.12812473733E+03 0.  0.
         25    2    3    3    0    0  0.57557409812E+02 -0.77124401722E+00  0.15761033182E+03  0.20756618874E+03  0.12218533368E+03 0.  0.
          5    1    4    4  502    0 -0.87924050627E+02  0.34689166977E+02  0.11894704885E+03  0.15200153754E+03  0.47000000000E+01 0. -1.
         -5    1    4    4    0  502  0.30366640815E+02 -0.33917922959E+02  0.53138803601E+02  0.70131168680E+02  0.47000000000E+01 0. -1.
          5    1    5    5  503    0  0.86226651656E+02 -0.26286276060E+00  0.15619288850E+03  0.17847524470E+03  0.47000000000E+01 0. -1.
         -5    1    5    5    0  503 -0.28669241843E+02 -0.50838125662E+00  0.14174433240E+01  0.29090944037E+02  0.47000000000E+01 0. -1.
<mgrwt>
<rscale>  0 0.27557497E+03</rscale>
<asrwt>0</asrwt>
<pdfrwt beam="1">  1        1 0.76925165E-02 0.27557497E+03</pdfrwt>
<pdfrwt beam="2">  1       -1 0.58415004E-01 0.27557497E+03</pdfrwt>
<totfact> 0.27993510E+03</totfact>
</mgrwt>
</event>
<event>
 9    1  0.2094635E-002  0.2747256E+03  0.7818608E-02  0.1098605E+00
         -1   -1    0    0    0  501 -0.00000000000E+00  0.00000000000E+00  0.31978029230E+03  0.31978029230E+03  0.00000000000E+00 0.  1.
          1   -1    0    0  501    0  0.00000000000E+00 -0.00000000000E+00 -0.59004709616E+02  0.59004709616E+02  0.00000000000E+00 0.  1.
         36    2    1    2    0    0  0.35527136788E-14  0.00000000000E+00  0.26077558268E+03  0.37878500191E+03  0.27472563250E+03 0.  0.
         25    2    3    3    0    0  0.12033653721E+02 -0.16881744571E+02  0.18358509688E+03  0.22673026100E+03  0.13142800819E+03 0.  0.
         25    2    3    3    0    0 -0.12033653721E+02  0.16881744571E+02  0.77190485801E+02  0.15205474091E+03  0.12935405295E+03 0.  0.
          5    1    4    4  502    0 -0.56898805387E+02  0.59845761748E+01  0.10467656875E+03  0.11938409966E+03  0.47000000000E+01 0. -1.
         -5    1    4    4    0  502  0.68932459108E+02 -0.22866320746E+02  0.78908528129E+02  0.10734616134E+03  0.47000000000E+01 0. -1.
          5    1    5    5  503    0  0.74859714238E+01  0.38099720062E+02  0.10479990928E+03  0.11186035679E+03  0.47000000000E+01 0. -1.
         -5    1    5    5    0  503 -0.19519625144E+02 -0.21217975491E+02 -0.27609423479E+02  0.40194384117E+02  0.47000000000E+01 0. -1.
<mgrwt>
<rscale>  0 0.27472563E+03</rscale>
<asrwt>0</asrwt>
<pdfrwt beam="1">  1        1 0.90776478E-02 0.27472563E+03</pdfrwt>
<pdfrwt beam="2">  1       -1 0.49196967E-01 0.27472563E+03</pdfrwt>
<totfact> 0.30860559E+03</totfact>
</mgrwt>
</event>
<event>
 9    1  0.2094635E-002  0.2740306E+03  0.7818608E-02  0.1098995E+00
          2   -1    0    0  501    0  0.00000000000E+00  0.00000000000E+00  0.14145127734E+04  0.14145127734E+04  0.00000000000E+00 0. -1.
         -2   -1    0    0    0  501 -0.00000000000E+00 -0.00000000000E+00 -0.13271847105E+02  0.13271847105E+02  0.00000000000E+00 0. -1.
         36    2    1    2    0    0  0.00000000000E+00  0.00000000000E+00  0.14012409263E+04  0.14277846205E+04  0.27403063520E+03 0.  0.
         25    2    3    3    0    0 -0.25544131577E+02 -0.93796425558E+01  0.94125024676E+03  0.94985929638E+03  0.12466024042E+03 0.  0.
         25    2    3    3    0    0  0.25544131577E+02  0.93796425558E+01  0.45999067952E+03  0.47792532411E+03  0.12680973869E+03 0.  0.
          5    1    4    4  502    0  0.25713689488E+02 -0.52995934252E+02  0.50026595504E+03  0.50374386214E+03  0.47000000000E+01 0. -1.
         -5    1    4    4    0  502 -0.51257821065E+02  0.43616291697E+02  0.44098429172E+03  0.44611543424E+03  0.47000000000E+01 0. -1.
          5    1    5    5  503    0  0.26931152569E+02  0.66346800270E+02  0.23002358664E+03  0.24095668759E+03  0.47000000000E+01 0.  1.
         -5    1    5    5    0  503 -0.13870209921E+01 -0.56967157714E+02  0.22996709288E+03  0.23696863651E+03  0.47000000000E+01 0.  1.
<mgrwt>
<rscale>  0 0.27403064E+03</rscale>
<asrwt>0</asrwt>
<pdfrwt beam="1">  1        2 0.21761723E+00 0.27403064E+03</pdfrwt>
<pdfrwt beam="2">  1       -2 0.20418237E-02 0.27403064E+03</pdfrwt>
<totfact> 0.11374868E+04</totfact>
</mgrwt>
</event>
<event>
 9    1  0.2094635E-002  0.2757858E+03  0.7818608E-02  0.1098013E+00
         -1   -1    0    0    0  501 -0.00000000000E+00  0.00000000000E+00  0.10056501903E+03  0.10056501903E+03  0.00000000000E+00 0. -1.
          1   -1    0    0  501    0  0.00000000000E+00 -0.00000000000E+00 -0.18907626409E+03  0.18907626409E+03  0.00000000000E+00 0. -1.
         36    2    1    2    0    0  0.00000000000E+00 -0.14210854715E-13 -0.88511245057E+02  0.28964128312E+03  0.27578584515E+03 0.  0.
         25    2    3    3    0    0 -0.38771342859E+01 -0.49583585998E+02 -0.77769376391E+02  0.15517130856E+03  0.12472567869E+03 0.  0.
         25    2    3    3    0    0  0.38771342859E+01  0.49583585998E+02 -0.10741868666E+02  0.13446997456E+03  0.12447177248E+03 0.  0.
          5    1    4    4  502    0 -0.51851039237E+02 -0.33871831177E+02  0.26557391981E+00  0.62112734176E+02  0.47000000000E+01 0. -1.
         -5    1    4    4    0  502  0.47973904951E+02 -0.15711754821E+02 -0.78034950310E+02  0.93058574381E+02  0.47000000000E+01 0. -1.
          5    1    5    5  503    0  0.33649753452E+02 -0.31552849798E+02 -0.12042120644E+02  0.47906063368E+02  0.47000000000E+01 0.  1.
         -5    1    5    5    0  503 -0.29772619166E+02  0.81136435797E+02  0.13002519778E+01  0.86563911193E+02  0.47000000000E+01 0.  1.
<mgrwt>
<rscale>  0 0.27578585E+03</rscale>
<asrwt>0</asrwt>
<pdfrwt beam="1">  1        1 0.29088656E-01 0.27578585E+03</pdfrwt>
<pdfrwt beam="2">  1       -1 0.15471541E-01 0.27578585E+03</pdfrwt>
<totfact> 0.47868971E+03</totfact>
</mgrwt>
</event>
<event>
 9    1  0.2094635E-002  0.2758820E+03  0.7818608E-02  0.1097960E+00
          1   -1    0    0  501    0  0.00000000000E+00  0.00000000000E+00  0.29215966109E+03  0.29215966109E+03  0.00000000000E+00 0.  1.
         -1   -1    0    0    0  501 -0.00000000000E+00 -0.00000000000E+00 -0.65127803598E+02  0.65127803598E+02  0.00000000000E+00 0.  1.
         36    2    1    2    0    0  0.00000000000E+00  0.71054273576E-14  0.22703185749E+03  0.35728746468E+03  0.27588198220E+03 0.  0.
         25    2    3    3    0    0 -0.35968076152E+02  0.52121268880E+02  0.59451574621E+02  0.13890643117E+03  0.10839823671E+03 0.  0.
         25    2    3    3    0    0  0.35968076152E+02 -0.52121268880E+02  0.16758028287E+03  0.21838103352E+03  0.12488713073E+03 0.  0.
          5    1    4    4  502    0 -0.47627824692E+01  0.75516122460E+02  0.11118963000E+02  0.76623039528E+02  0.47000000000E+01 0.  1.
         -5    1    4    4    0  502 -0.31205293682E+02 -0.23394853580E+02  0.48332611621E+02  0.62283391639E+02  0.47000000000E+01 0.  1.
          5    1    5    5  503    0 -0.76252439149E+01 -0.73891026777E+02  0.46459448305E+02  0.87741657836E+02  0.47000000000E+01 0. -1.
         -5    1    5    5    0  503  0.43593320067E+02  0.21769757897E+02  0.12112083456E+03  0.13063937568E+03  0.47000000000E+01 0. -1.
<mgrwt>
<rscale>  0 0.27588198E+03</rscale>
<asrwt>0</asrwt>
<pdfrwt beam="1">  1        1 0.44947639E-01 0.27588198E+03</pdfrwt>
<pdfrwt beam="2">  1       -1 0.10019662E-01 0.27588198E+03</pdfrwt>
<totfact> 0.54710564E+03</totfact>
</mgrwt>
</event>
<event>
 9    1  0.2094635E-002  0.2740149E+03  0.7818608E-02  0.1099004E+00
         -2   -1    0    0    0  501 -0.00000000000E+00  0.00000000000E+00  0.47145089745E+03  0.47145089745E+03  0.00000000000E+00 0.  1.
          2   -1    0    0  501    0  0.00000000000E+00 -0.00000000000E+00 -0.39815472950E+02  0.39815472950E+02  0.00000000000E+00 0.  1.
         36    2    1    2    0    0  0.71054273576E-14  0.00000000000E+00  0.43163542450E+03  0.51126637040E+03  0.27401489342E+03 0.  0.
         25    2    3    3    0    0  0.38535264035E+02  0.22874291771E+02  0.15952903893E+03  0.20822458061E+03  0.12609425804E+03 0.  0.
         25    2    3    3    0    0 -0.38535264035E+02 -0.22874291771E+02  0.27210638557E+03  0.30304178979E+03  0.12563535128E+03 0.  0.
          5    1    4    4  502    0  0.59489274888E+02  0.60865852846E+02  0.13028409172E+03  0.15569091311E+03  0.47000000000E+01 0.  1.
         -5    1    4    4    0  502 -0.20954010853E+02 -0.37991561075E+02  0.29244947207E+02  0.52533667499E+02  0.47000000000E+01 0.  1.
          5    1    5    5  503    0  0.28053523825E+02  0.28825261106E+02  0.43946487566E+02  0.59760184456E+02  0.47000000000E+01 0. -1.
         -5    1    5    5    0  503 -0.66588787860E+02 -0.51699552877E+02  0.22815989801E+03  0.24328160534E+03  0.47000000000E+01 0. -1.
<mgrwt>
<rscale>  0 0.27401489E+03</rscale>
<asrwt>0</asrwt>
<pdfrwt beam="1">  1        2 0.61254577E-02 0.27401489E+03</pdfrwt>
<pdfrwt beam="2">  1       -2 0.72530903E-01 0.27401489E+03</pdfrwt>
<totfact> 0.21186378E+03</totfact>
</mgrwt>
</event>
<event>
 9    1  0.2094635E-002  0.2755633E+03  0.7818608E-02  0.1098137E+00
          2   -1    0    0  501    0  0.00000000000E+00  0.00000000000E+00  0.72128795473E+03  0.72128795473E+03  0.00000000000E+00 0. -1.
         -2   -1    0    0    0  501 -0.00000000000E+00 -0.00000000000E+00 -0.26319287060E+02  0.26319287060E+02  0.00000000000E+00 0. -1.
         36    2    1    2    0    0  0.71054273576E-14  0.00000000000E+00  0.69496866767E+03  0.74760724179E+03  0.27556331203E+03 0.  0.
         25    2    3    3    0    0  0.26300701163E+02  0.14560133734E+02  0.22789703093E+03  0.26279131085E+03  0.12735184324E+03 0.  0.
         25    2    3    3    0    0 -0.26300701163E+02 -0.14560133734E+02  0.46707163674E+03  0.48481593094E+03  0.12643911052E+03 0.  0.
          5    1    4    4  502    0  0.65639393515E+02 -0.25862341669E+02  0.95701584008E+02  0.11898854516E+03  0.47000000000E+01 0.  1.
         -5    1    4    4    0  502 -0.39338692352E+02  0.40422475403E+02  0.13219544693E+03  0.14380276569E+03  0.47000000000E+01 0.  1.
          5    1    5    5  503    0 -0.69006474804E+01  0.17452707256E+02  0.34382057525E+01  0.19650119211E+02  0.47000000000E+01 0. -1.
         -5    1    5    5    0  503 -0.19400053682E+02 -0.32012840990E+02  0.46363343099E+03  0.46516581173E+03  0.47000000000E+01 0. -1.
<mgrwt>
<rscale>  0 0.27556331E+03</rscale>
<asrwt>0</asrwt>
<pdfrwt beam="1">  1        2 0.11096736E+00 0.27556331E+03</pdfrwt>
<pdfrwt beam="2">  1       -2 0.40491216E-02 0.27556331E+03</pdfrwt>
<totfact> 0.10865467E+04</totfact>
</mgrwt>
</event>
<event>
 9    1  0.2094635E-002  0.2742816E+03  0.7818608E-02  0.1098854E+00
          2   -1    0    0  501    0  0.00000000000E+00  0.00000000000E+00  0.36864128523E+02  0.36864128523E+02  0.00000000000E+00 0.  1.
         -2   -1    0    0    0  501 -0.00000000000E+00 -0.00000000000E+00 -0.51018692406E+03  0.51018692406E+03  0.00000000000E+00 0.  1.
         36    2    1    2    0    0 -0.71054273576E-14  0.00000000000E+00 -0.47332279553E+03  0.54705105258E+03  0.27428158042E+03 0.  0.
         25    2    3    3    0    0 -0.51385952809E+02  0.23675179764E+02 -0.23101716107E+03  0.26832185293E+03  0.12420409724E+03 0.  0.
         25    2    3    3    0    0  0.51385952809E+02 -0.23675179764E+02 -0.24230563447E+03  0.27872919965E+03  0.12560619395E+03 0.  0.
          5    1    4    4  502    0  0.27107540770E+02 -0.25929913200E+02 -0.35664043186E+02  0.51973003968E+02  0.47000000000E+01 0. -1.
         -5    1    4    4    0  502 -0.78493493579E+02  0.49605092963E+02 -0.19535311788E+03  0.21634884896E+03  0.47000000000E+01 0. -1.
          5    1    5    5  503    0  0.21660298773E+01 -0.50732708675E+02 -0.30210656371E+02  0.59272870466E+02  0.47000000000E+01 0. -1.
         -5    1    5    5    0  503  0.49219922932E+02  0.27057528911E+02 -0.21209497810E+03  0.21945632918E+03  0.47000000000E+01 0. -1.
<mgrwt>
<rscale>  0 0.27428158E+03</rscale>
<asrwt>0</asrwt>
<pdfrwt beam="1">  1        2 0.56714043E-02 0.27428158E+03</pdfrwt>
<pdfrwt beam="2">  1       -2 0.78490297E-01 0.27428158E+03</pdfrwt>
<totfact> 0.19727560E+03</totfact>
</mgrwt>
</event>
<event>
 9    1  0.2094635E-002  0.2765692E+03  0.7818608E-02  0.1097578E+00
         -1   -1    0    0    0  501 -0.00000000000E+00  0.00000000000E+00  0.51805398084E+02  0.51805398084E+02  0.00000000000E+00 0. -1.
          1   -1    0    0  501    0  0.00000000000E+00 -0.00000000000E+00 -0.36912418599E+03  0.36912418599E+03  0.00000000000E+00 0. -1.
         36    2    1    2    0    0 -0.21316282073E-13  0.71054273576E-14 -0.31731878790E+03  0.42092958407E+03  0.27656916240E+03 0.  0.
         25    2    3    3    0    0  0.47715543604E+02 -0.33448923903E+02 -0.15237711493E+03  0.20573731059E+03  0.12535330950E+03 0.  0.
         25    2    3    3    0    0 -0.47715543604E+02  0.33448923903E+02 -0.16494167297E+03  0.21519227348E+03  0.12532499938E+03 0.  0.
          5    1    4    4  502    0 -0.41956644183E+02  0.11572748812E+00 -0.51113979824E+02  0.66295567856E+02  0.47000000000E+01 0. -1.
         -5    1    4    4    0  502  0.89672187787E+02 -0.33564651391E+02 -0.10126313511E+03  0.13944174274E+03  0.47000000000E+01 0. -1.
          5    1    5    5  503    0 -0.88170130436E+02  0.39067015049E+02 -0.12416927630E+03  0.15729050430E+03  0.47000000000E+01 0.  1.
         -5    1    5    5    0  503  0.40454586831E+02 -0.56180911453E+01 -0.40772396669E+02  0.57901769178E+02  0.47000000000E+01 0.  1.
<mgrwt>
<rscale>  0 0.27656916E+03</rscale>
<asrwt>0</asrwt>
<pdfrwt beam="1">  1        1 0.56788335E-01 0.27656916E+03</pdfrwt>
<pdfrwt beam="2">  1       -1 0.79700615E-02 0.27656916E+03</pdfrwt>
<totfact> 0.57870652E+03</totfact>
</mgrwt>
</event>
<event>
 9    1  0.2094635E-002  0.2762523E+03  0.7818608E-02  0.1097754E+00
         -2   -1    0    0    0  501 -0.00000000000E+00  0.00000000000E+00  0.27149334079E+03  0.27149334079E+03  0.00000000000E+00 0.  1.
          2   -1    0    0  501    0  0.00000000000E+00 -0.00000000000E+00 -0.70273663640E+02  0.70273663640E+02  0.00000000000E+00 0.  1.
         36    2    1    2    0    0 -0.35527136788E-14  0.00000000000E+00  0.20121967715E+03  0.34176700443E+03  0.27625228840E+03 0.  0.
         25    2    3    3    0    0  0.13027583789E+02 -0.50647881479E+02  0.90942911884E+02  0.16698428220E+03  0.12991617083E+03 0.  0.
         25    2    3    3    0    0 -0.13027583789E+02  0.50647881479E+02  0.11027676527E+03  0.17478272223E+03  0.12511238625E+03 0.  0.
          5    1    4    4  502    0 -0.22676794358E+02  0.31549400195E+02  0.60818882813E+02  0.72323081804E+02  0.47000000000E+01 0. -1.
         -5    1    4    4    0  502  0.35704378146E+02 -0.82197281674E+02  0.30124029070E+02  0.94661200398E+02  0.47000000000E+01 0. -1.
          5    1    5    5  503    0 -0.38282175082E+02  0.45713553809E+02  0.12928366310E+03  0.14244862048E+03  0.47000000000E+01 0.  1.
         -5    1    5    5    0  503  0.25254591293E+02  0.49343276700E+01 -0.19006897832E+02  0.32334101753E+02  0.47000000000E+01 0.  1.
<mgrwt>
<rscale>  0 0.27625229E+03</rscale>
<asrwt>0</asrwt>
<pdfrwt beam="1">  1        2 0.10811333E-01 0.27625229E+03</pdfrwt>
<pdfrwt beam="2">  1       -2 0.41768206E-01 0.27625229E+03</pdfrwt>
<totfact> 0.31726259E+03</totfact>
</mgrwt>
</event>
<event>
 9    1  0.2094635E-002  0.2747086E+03  0.7818608E-02  0.1098615E+00
          1   -1    0    0  501    0  0.00000000000E+00  0.00000000000E+00  0.15497089562E+04  0.15497089562E+04  0.00000000000E+00 0. -1.
         -1   -1    0    0    0  501 -0.00000000000E+00 -0.00000000000E+00 -0.12174027114E+02  0.12174027114E+02  0.00000000000E+00 0. -1.
         36    2    1    2    0    0  0.26645352591E-14  0.71054273576E-14  0.15375349291E+04  0.15618829833E+04  0.27470856450E+03 0.  0.
         25    2    3    3    0    0 -0.15626259146E+01 -0.54778118359E+02  0.67147402222E+03  0.68479815875E+03  0.12275207399E+03 0.  0.
         25    2    3    3    0    0  0.15626259146E+01  0.54778118359E+02  0.86606090684E+03  0.87708482453E+03  0.12733110782E+03 0.  0.
          5    1    4    4  502    0 -0.78309213754E+00 -0.94385802451E+02  0.47869194728E+03  0.48793171995E+03  0.47000000000E+01 0.  1.
         -5    1    4    4    0  502 -0.77953377711E+00  0.39607684092E+02  0.19278207493E+03  0.19686643880E+03  0.47000000000E+01 0.  1.
          5    1    5    5  503    0 -0.39669395622E+02  0.76782875365E+02  0.43919323208E+03  0.44764054330E+03  0.47000000000E+01 0. -1.
         -5    1    5    5    0  503  0.41232021537E+02 -0.22004757006E+02  0.42686767476E+03  0.42944428124E+03  0.47000000000E+01 0. -1.
<mgrwt>
<rscale>  0 0.27470856E+03</rscale>
<asrwt>0</asrwt>
<pdfrwt beam="1">  1        1 0.23841661E+00 0.27470856E+03</pdfrwt>
<pdfrwt beam="2">  1       -1 0.18729285E-02 0.27470856E+03</pdfrwt>
<totfact> 0.50077660E+03</totfact>
</mgrwt>
</event>
<event>
 9    1  0.2094635E-002  0.2748172E+03  0.7818608E-02  0.1098554E+00
         -2   -1    0    0    0  501 -0.00000000000E+00  0.00000000000E+00  0.35635830012E+02  0.35635830012E+02  0.00000000000E+00 0. -1.
          2   -1    0    0  501    0  0.00000000000E+00 -0.00000000000E+00 -0.52983521498E+03  0.52983521498E+03  0.00000000000E+00 0. -1.
         36    2    1    2    0    0 -0.71054273576E-14  0.71054273576E-14 -0.49419938497E+03  0.56547104499E+03  0.27481715853E+03 0.  0.
         25    2    3    3    0    0 -0.38375781424E+02 -0.31183107423E+02 -0.20997172359E+03  0.25060298711E+03  0.12754860114E+03 0.  0.
         25    2    3    3    0    0  0.38375781424E+02  0.31183107423E+02 -0.28422766138E+03  0.31486805788E+03  0.12614057077E+03 0.  0.
          5    1    4    4  502    0 -0.60756638717E+02 -0.34738577085E+02 -0.21565141011E+03  0.22677248194E+03  0.47000000000E+01 0. -1.
         -5    1    4    4    0  502  0.22380857292E+02  0.35554696617E+01  0.56796865128E+01  0.23830505168E+02  0.47000000000E+01 0. -1.
          5    1    5    5  503    0 -0.37621523333E+02 -0.11341651937E+02 -0.14731417985E+03  0.15253710916E+03  0.47000000000E+01 0.  1.
         -5    1    5    5    0  503  0.75997304757E+02  0.42524759360E+02 -0.13691348153E+03  0.16233094872E+03  0.47000000000E+01 0.  1.
<mgrwt>
<rscale>  0 0.27481716E+03</rscale>
<asrwt>0</asrwt>
<pdfrwt beam="1">  1        2 0.81513106E-01 0.27481716E+03</pdfrwt>
<pdfrwt beam="2">  1       -2 0.54824356E-02 0.27481716E+03</pdfrwt>
<totfact> 0.98554549E+03</totfact>
</mgrwt>
</event>
<event>
 9    1  0.2094635E-002  0.2755593E+03  0.7818608E-02  0.1098139E+00
          2   -1    0    0  501    0  0.00000000000E+00  0.00000000000E+00  0.44210758713E+03  0.44210758713E+03  0.00000000000E+00 0. -1.
         -2   -1    0    0    0  501 -0.00000000000E+00 -0.00000000000E+00 -0.42938029512E+02  0.42938029512E+02  0.00000000000E+00 0. -1.
         36    2    1    2    0    0  0.00000000000E+00  0.71054273576E-14  0.39916955762E+03  0.48504561665E+03  0.27555927583E+03 0.  0.
         25    2    3    3    0    0 -0.54923702507E+02 -0.31029971943E+02  0.21013165897E+03  0.25207554853E+03  0.12412612864E+03 0.  0.
         25    2    3    3    0    0  0.54923702507E+02  0.31029971943E+02  0.18903789865E+03  0.23297006811E+03  0.12066587444E+03 0.  0.
          5    1    4    4  502    0 -0.76097408607E+02 -0.37342400029E+01  0.20246789571E+03  0.21637952523E+03  0.47000000000E+01 0. -1.
         -5    1    4    4    0  502  0.21173706100E+02 -0.27295731941E+02  0.76637632547E+01  0.35696023300E+02  0.47000000000E+01 0. -1.
          5    1    5    5  503    0  0.40445860136E+02 -0.35872966852E+01  0.70889011231E+00  0.40881888714E+02  0.47000000000E+01 0. -1.
         -5    1    5    5    0  503  0.14477842370E+02  0.34617268629E+02  0.18832900854E+03  0.19208817940E+03  0.47000000000E+01 0. -1.
<mgrwt>
<rscale>  0 0.27555928E+03</rscale>
<asrwt>0</asrwt>
<pdfrwt beam="1">  1        2 0.68016549E-01 0.27555928E+03</pdfrwt>
<pdfrwt beam="2">  1       -2 0.66058510E-02 0.27555928E+03</pdfrwt>
<totfact> 0.90576404E+03</totfact>
</mgrwt>
</event>
<event>
 9    1  0.2094635E-002  0.2746983E+03  0.7818608E-02  0.1098620E+00
          2   -1    0    0  501    0  0.00000000000E+00  0.00000000000E+00  0.73581723906E+02  0.73581723906E+02  0.00000000000E+00 0.  1.
         -2   -1    0    0    0  501 -0.00000000000E+00 -0.00000000000E+00 -0.25637866117E+03  0.25637866117E+03  0.00000000000E+00 0.  1.
         36    2    1    2    0    0  0.00000000000E+00 -0.71054273576E-14 -0.18279693727E+03  0.32996038508E+03  0.27469826255E+03 0.  0.
         25    2    3    3    0    0  0.27701069018E+02 -0.46361286810E+02 -0.10197265498E+03  0.17057164231E+03  0.12561665756E+03 0.  0.
         25    2    3    3    0    0 -0.27701069018E+02  0.46361286810E+02 -0.80824282288E+02  0.15938874277E+03  0.12631503701E+03 0.  0.
          5    1    4    4  502    0  0.21595885450E+02 -0.24223561253E+01 -0.12030502864E+03  0.12234230663E+03  0.47000000000E+01 0.  1.
         -5    1    4    4    0  502  0.61051835684E+01 -0.43938930685E+02  0.18332373655E+02  0.48229335678E+02  0.47000000000E+01 0.  1.
          5    1    5    5  503    0 -0.48005871235E+02  0.50257312271E+02  0.60903792152E+01  0.69925273175E+02  0.47000000000E+01 0.  1.
         -5    1    5    5    0  503  0.20304802216E+02 -0.38960254605E+01 -0.86914661503E+02  0.89463469593E+02  0.47000000000E+01 0.  1.
<mgrwt>
<rscale>  0 0.27469826E+03</rscale>
<asrwt>0</asrwt>
<pdfrwt beam="1">  1        2 0.11320265E-01 0.27469826E+03</pdfrwt>
<pdfrwt beam="2">  1       -2 0.39442870E-01 0.27469826E+03</pdfrwt>
<totfact> 0.33454081E+03</totfact>
</mgrwt>
</event>
<event>
 9    1  0.2094635E-002  0.2748290E+03  0.7818608E-02  0.1098547E+00
         -2   -1    0    0    0  501 -0.00000000000E+00  0.00000000000E+00  0.32919584311E+02  0.32919584311E+02  0.00000000000E+00 0. -1.
          2   -1    0    0  501    0  0.00000000000E+00 -0.00000000000E+00 -0.57360207065E+03  0.57360207065E+03  0.00000000000E+00 0. -1.
         36    2    1    2    0    0 -0.71054273576E-14 -0.35527136788E-14 -0.54068248634E+03  0.60652165496E+03  0.27482897755E+03 0.  0.
         25    2    3    3    0    0 -0.34116198993E+02  0.30676913545E+02 -0.31309968212E+03  0.34005943790E+03  0.12451514888E+03 0.  0.
         25    2    3    3    0    0  0.34116198993E+02 -0.30676913545E+02 -0.22758280421E+03  0.26646221706E+03  0.13077917375E+03 0.  0.
          5    1    4    4  502    0 -0.40599513784E+02 -0.24728974010E+02 -0.43171350937E+02  0.64387096664E+02  0.47000000000E+01 0. -1.
         -5    1    4    4    0  502  0.64833147906E+01  0.55405887555E+02 -0.26992833119E+03  0.27567234124E+03  0.47000000000E+01 0. -1.
          5    1    5    5  503    0  0.78313881501E+02 -0.32819577603E+02 -0.99616985761E+02  0.13098023730E+03  0.47000000000E+01 0. -1.
         -5    1    5    5    0  503 -0.44197682507E+02  0.21426640576E+01 -0.12796581845E+03  0.13548197976E+03  0.47000000000E+01 0. -1.
<mgrwt>
<rscale>  0 0.27482898E+03</rscale>
<asrwt>0</asrwt>
<pdfrwt beam="1">  1        2 0.88246470E-01 0.27482898E+03</pdfrwt>
<pdfrwt beam="2">  1       -2 0.50645516E-02 0.27482898E+03</pdfrwt>
<totfact> 0.10159310E+04</totfact>
</mgrwt>
</event>
<event>
 9    1  0.2094635E-002  0.2743834E+03  0.7818608E-02  0.1098797E+00
          2   -1    0    0  501    0  0.00000000000E+00  0.00000000000E+00  0.10484698575E+02  0.10484698575E+02  0.00000000000E+00 0. -1.
         -2   -1    0    0    0  501 -0.00000000000E+00 -0.00000000000E+00 -0.17951452046E+04  0.17951452046E+04  0.00000000000E+00 0. -1.
         36    2    1    2    0    0  0.71054273576E-14  0.71054273576E-14 -0.17846605060E+04  0.18056299031E+04  0.27438335495E+03 0.  0.
         25    2    3    3    0    0 -0.31790793574E+02 -0.41157711585E+02 -0.85051921612E+03  0.86055533053E+03  0.12028270084E+03 0.  0.
         25    2    3    3    0    0  0.31790793574E+02  0.41157711585E+02 -0.93414128986E+03  0.94507457261E+03  0.13357165339E+03 0.  0.
          5    1    4    4  502    0  0.36609459694E+02 -0.27892374721E+02 -0.16118630900E+03  0.16769422565E+03  0.47000000000E+01 0. -1.
         -5    1    4    4    0  502 -0.68400253268E+02 -0.13265336863E+02 -0.68933290712E+03  0.69286110487E+03  0.47000000000E+01 0. -1.
          5    1    5    5  503    0  0.33437733811E+01  0.86343392865E+02 -0.66865389166E+03  0.67423028643E+03  0.47000000000E+01 0. -1.
         -5    1    5    5    0  503  0.28447020193E+02 -0.45185681280E+02 -0.26548739820E+03  0.27084428617E+03  0.47000000000E+01 0. -1.
<mgrwt>
<rscale>  0 0.27438335E+03</rscale>
<asrwt>0</asrwt>
<pdfrwt beam="1">  1        2 0.16130306E-02 0.27438335E+03</pdfrwt>
<pdfrwt beam="2">  1       -2 0.27617618E+00 0.27438335E+03</pdfrwt>
<totfact> 0.37228840E+02</totfact>
</mgrwt>
</event>
<event>
 9    1  0.2094635E-002  0.2735126E+03  0.7818608E-02  0.1099286E+00
         -3   -1    0    0    0  501 -0.00000000000E+00  0.00000000000E+00  0.64948249357E+03  0.64948249357E+03  0.00000000000E+00 0. -1.
          3   -1    0    0  501    0  0.00000000000E+00 -0.00000000000E+00 -0.28795666483E+02  0.28795666483E+02  0.00000000000E+00 0. -1.
         36    2    1    2    0    0 -0.71054273576E-14 -0.35527136788E-14  0.62068682709E+03  0.67827816006E+03  0.27351256843E+03 0.  0.
         25    2    3    3    0    0  0.41332311907E+02 -0.17431065994E+02  0.39779492632E+03  0.41852133885E+03  0.12209465837E+03 0.  0.
         25    2    3    3    0    0 -0.41332311907E+02  0.17431065994E+02  0.22289190077E+03  0.25975682120E+03  0.12562087670E+03 0.  0.
          5    1    4    4  502    0 -0.25732355400E+02  0.35657174880E+02  0.14629418635E+03  0.15283215366E+03  0.47000000000E+01 0. -1.
         -5    1    4    4    0  502  0.67064667308E+02 -0.53088240875E+02  0.25150073997E+03  0.26568918519E+03  0.47000000000E+01 0. -1.
          5    1    5    5  503    0 -0.47973674585E+02  0.32306502398E+02  0.28540239361E+02  0.64666983949E+02  0.47000000000E+01 0.  1.
         -5    1    5    5    0  503  0.66413626772E+01 -0.14875436404E+02  0.19435166141E+03  0.19508983725E+03  0.47000000000E+01 0.  1.
<mgrwt>
<rscale>  0 0.27351257E+03</rscale>
<asrwt>0</asrwt>
<pdfrwt beam="1">  1        3 0.44301030E-02 0.27351257E+03</pdfrwt>
<pdfrwt beam="2">  1       -3 0.99920372E-01 0.27351257E+03</pdfrwt>
<totfact> 0.63543400E+02</totfact>
</mgrwt>
</event>
<event>
 9    1  0.2094635E-002  0.2740625E+03  0.7818608E-02  0.1098977E+00
         -2   -1    0    0    0  501 -0.00000000000E+00  0.00000000000E+00  0.21118331895E+03  0.21118331895E+03  0.00000000000E+00 0.  1.
          2   -1    0    0  501    0  0.00000000000E+00 -0.00000000000E+00 -0.88915943793E+02  0.88915943793E+02  0.00000000000E+00 0.  1.
         36    2    1    2    0    0  0.88817841970E-15  0.00000000000E+00  0.12226737516E+03  0.30009926275E+03  0.27406250468E+03 0.  0.
         25    2    3    3    0    0  0.47587170518E+01 -0.41276218664E+02  0.15828599625E+02  0.12955439490E+03  0.12168576357E+03 0.  0.
         25    2    3    3    0    0 -0.47587170518E+01  0.41276218664E+02  0.10643877553E+03  0.17054486785E+03  0.12660950753E+03 0.  0.
          5    1    4    4  502    0 -0.31430080642E+00 -0.43409610705E+02  0.65850402860E+02  0.79011762690E+02  0.47000000000E+01 0.  1.
         -5    1    4    4    0  502  0.50730178582E+01  0.21333920406E+01 -0.50021803235E+02  0.50542632210E+02  0.47000000000E+01 0.  1.
          5    1    5    5  503    0 -0.54364998528E+01  0.86926968894E+02  0.73320142520E+02  0.11394642053E+03  0.47000000000E+01 0.  1.
         -5    1    5    5    0  503  0.67778280097E+00 -0.45650750230E+02  0.33118633015E+02  0.56598447318E+02  0.47000000000E+01 0.  1.
<mgrwt>
<rscale>  0 0.27406250E+03</rscale>
<asrwt>0</asrwt>
<pdfrwt beam="1">  1        2 0.13679376E-01 0.27406250E+03</pdfrwt>
<pdfrwt beam="2">  1       -2 0.32489741E-01 0.27406250E+03</pdfrwt>
<totfact> 0.38232573E+03</totfact>
</mgrwt>
</event>
