<event>
 9    1  0.7926126E-001  0.2748113E+03  0.7818608E-02  0.1098557E+00
         -2   -1    0    0    0  501 -0.00000000000E+00  0.00000000000E+00  0.71317134729E+01  0.71317134729E+01  0.00000000000E+00 0.  1.
          2   -1    0    0  501    0  0.00000000000E+00 -0.00000000000E+00 -0.26473733749E+04  0.26473733749E+04  0.00000000000E+00 0.  1.
         35    2    1    2    0    0 -0.35527136788E-14 -0.71054273576E-14 -0.26402416615E+04  0.26545050884E+04  0.27481126881E+03 0.  0.
         25    2    3    3    0    0 -0.21907334113E+02  0.21396705362E+02 -0.17776162303E+04  0.17822570342E+04  0.12483158048E+03 0.  0.
         25    2    3    3    0    0  0.21907334113E+02 -0.21396705362E+02 -0.86262543120E+03  0.87224805424E+03  0.12552403464E+03 0.  0.
          5    1    4    4  502    0 -0.35203232084E+02 -0.32064518185E+02 -0.13784036683E+04  0.13792339046E+04  0.47000000000E+01 0.  1.
         -5    1    4    4    0  502  0.13295897971E+02  0.53461223547E+02 -0.39921256195E+03  0.40302312954E+03  0.47000000000E+01 0.  1.
          5    1    5    5  503    0  0.56572272320E+02  0.32032720395E+02 -0.41392479861E+03  0.41902547187E+03  0.47000000000E+01 0. -1.
         -5    1    5    5    0  503 -0.34664938207E+02 -0.53429425757E+02 -0.44870063259E+03  0.45322258237E+03  0.47000000000E+01 0. -1.
<mgrwt>
<rscale>  0 0.27481127E+03</rscale>
<asrwt>0</asrwt>
<pdfrwt beam="1">  1        2 0.40728823E+00 0.27481127E+03</pdfrwt>
<pdfrwt beam="2">  1       -2 0.10971866E-02 0.27481127E+03</pdfrwt>
<totfact> 0.61918201E+03</totfact>
</mgrwt>
</event>
<event>
 9    1  0.7926126E-001  0.2745544E+03  0.7818608E-02  0.1098701E+00
          2   -1    0    0  501    0  0.00000000000E+00  0.00000000000E+00  0.97576687899E+03  0.97576687899E+03  0.00000000000E+00 0. -1.
         -2   -1    0    0    0  501 -0.00000000000E+00 -0.00000000000E+00 -0.19313045215E+02  0.19313045215E+02  0.00000000000E+00 0. -1.
         35    2    1    2    0    0  0.35527136788E-14  0.71054273576E-14  0.95645383378E+03  0.99507992421E+03  0.27455440155E+03 0.  0.
         25    2    3    3    0    0 -0.10162386651E+02 -0.50206924544E+02  0.59229988123E+03  0.60608598654E+03  0.11788581084E+03 0.  0.
         25    2    3    3    0    0  0.10162386651E+02  0.50206924544E+02  0.36415395254E+03  0.38899393766E+03  0.12682339300E+03 0.  0.
          5    1    4    4  502    0  0.19261531786E+01 -0.87263881783E+02  0.45313116030E+03  0.46148524740E+03  0.47000000000E+01 0.  1.
         -5    1    4    4    0  502 -0.12088539829E+02  0.37056957238E+02  0.13916872093E+03  0.14460073914E+03  0.47000000000E+01 0.  1.
          5    1    5    5  503    0  0.43211891247E+02  0.52857265010E+01  0.37709594836E+02  0.57786763125E+02  0.47000000000E+01 0. -1.
         -5    1    5    5    0  503 -0.33049504596E+02  0.44921198043E+02  0.32644435771E+03  0.33120717454E+03  0.47000000000E+01 0. -1.
<mgrwt>
<rscale>  0 0.27455440E+03</rscale>
<asrwt>0</asrwt>
<pdfrwt beam="1">  1        2 0.15011794E+00 0.27455440E+03</pdfrwt>
<pdfrwt beam="2">  1       -2 0.29712385E-02 0.27455440E+03</pdfrwt>
<totfact> 0.11648981E+04</totfact>
</mgrwt>
</event>
<event>
 9    1  0.7926126E-001  0.2749862E+03  0.7818608E-02  0.1098459E+00
         -2   -1    0    0    0  501 -0.00000000000E+00  0.00000000000E+00  0.12477436101E+02  0.12477436101E+02  0.00000000000E+00 0. -1.
          2   -1    0    0  501    0  0.00000000000E+00 -0.00000000000E+00 -0.15150831368E+04  0.15150831368E+04  0.00000000000E+00 0. -1.
         35    2    1    2    0    0  0.14210854715E-13  0.35527136788E-14 -0.15026057007E+04  0.15275605729E+04  0.27498620350E+03 0.  0.
         25    2    3    3    0    0 -0.52311438592E+02 -0.19725312611E+02 -0.67859460551E+03  0.69229063479E+03  0.12510039897E+03 0.  0.
         25    2    3    3    0    0  0.52311438592E+02  0.19725312611E+02 -0.82401109524E+03  0.83526993816E+03  0.12472373454E+03 0.  0.
          5    1    4    4  502    0 -0.21149437618E+02 -0.16302746390E+02 -0.64688657529E+03  0.64745456176E+03  0.47000000000E+01 0.  1.
         -5    1    4    4    0  502 -0.31162000974E+02 -0.34225662212E+01 -0.31708030216E+02  0.44836073026E+02  0.47000000000E+01 0.  1.
          5    1    5    5  503    0  0.88413797442E+02 -0.34078070058E+01 -0.43916644203E+03  0.44801547577E+03  0.47000000000E+01 0.  1.
         -5    1    5    5    0  503 -0.36102358849E+02  0.23133119617E+02 -0.38484465321E+03  0.38725446239E+03  0.47000000000E+01 0.  1.
<mgrwt>
<rscale>  0 0.27498620E+03</rscale>
<asrwt>0</asrwt>
<pdfrwt beam="1">  1        2 0.23308968E+00 0.27498620E+03</pdfrwt>
<pdfrwt beam="2">  1       -2 0.19196059E-02 0.27498620E+03</pdfrwt>
<totfact> 0.10998158E+04</totfact>
</mgrwt>
</event>
<event>
 9    1  0.7926126E-001  0.2736204E+03  0.7818608E-02  0.1099225E+00
         -1   -1    0    0    0  501 -0.00000000000E+00  0.00000000000E+00  0.15849311470E+02  0.15849311470E+02  0.00000000000E+00 0. -1.
          1   -1    0    0  501    0  0.00000000000E+00 -0.00000000000E+00 -0.11809362864E+04  0.11809362864E+04  0.00000000000E+00 0. -1.
         35    2    1    2    0    0  0.00000000000E+00  0.00000000000E+00 -0.11650869749E+04  0.11967855978E+04  0.27362037226E+03 0.  0.
         25    2    3    3    0    0 -0.51599537062E+02 -0.13155708531E+02 -0.51940842513E+03  0.53685428699E+03  0.12486724341E+03 0.  0.
         25    2    3    3    0    0  0.51599537062E+02  0.13155708531E+02 -0.64567854977E+03  0.65993131084E+03  0.12559044752E+03 0.  0.
          5    1    4    4  502    0 -0.49182324191E+02 -0.36894039039E+02 -0.50465792393E+03  0.50841103579E+03  0.47000000000E+01 0.  1.
         -5    1    4    4    0  502 -0.24172128713E+01  0.23738330508E+02 -0.14750501201E+02  0.28443251204E+02  0.47000000000E+01 0.  1.
          5    1    5    5  503    0 -0.77132747376E+01 -0.17497428911E+01 -0.52002233225E+03  0.52010371298E+03  0.47000000000E+01 0. -1.
         -5    1    5    5    0  503  0.59312811800E+02  0.14905451422E+02 -0.12565621751E+03  0.13982759787E+03  0.47000000000E+01 0. -1.
<mgrwt>
<rscale>  0 0.27362037E+03</rscale>
<asrwt>0</asrwt>
<pdfrwt beam="1">  1        1 0.18168246E+00 0.27362037E+03</pdfrwt>
<pdfrwt beam="2">  1       -1 0.24383562E-02 0.27362037E+03</pdfrwt>
<totfact> 0.60488130E+03</totfact>
</mgrwt>
</event>
<event>
 9    1  0.7926126E-001  0.2769282E+03  0.7818608E-02  0.1097379E+00
         -2   -1    0    0    0  501 -0.00000000000E+00  0.00000000000E+00  0.36109650697E+03  0.36109650697E+03  0.00000000000E+00 0.  1.
          2   -1    0    0  501    0  0.00000000000E+00 -0.00000000000E+00 -0.53094671951E+02  0.53094671951E+02  0.00000000000E+00 0.  1.
         35    2    1    2    0    0  0.71054273576E-14  0.00000000000E+00  0.30800183502E+03  0.41419117892E+03  0.27692815372E+03 0.  0.
         25    2    3    3    0    0 -0.43642640598E+02  0.16111772847E+02  0.96671159494E+02  0.16418202795E+03  0.12428256484E+03 0.  0.
         25    2    3    3    0    0  0.43642640598E+02 -0.16111772847E+02  0.21133067552E+03  0.25000915096E+03  0.12521841656E+03 0.  0.
          5    1    4    4  502    0 -0.59877924246E+02  0.16264859405E+02 -0.37595592075E+01  0.62338878310E+02  0.47000000000E+01 0.  1.
         -5    1    4    4    0  502  0.16235283648E+02 -0.15308655816E+00  0.10043071870E+03  0.10184314965E+03  0.47000000000E+01 0.  1.
          5    1    5    5  503    0 -0.28386502132E+02 -0.22898094521E+02  0.15182704446E+03  0.15621670098E+03  0.47000000000E+01 0.  1.
         -5    1    5    5    0  503  0.72029142729E+02  0.67863216735E+01  0.59503631063E+02  0.93792449983E+02  0.47000000000E+01 0.  1.
<mgrwt>
<rscale>  0 0.27692815E+03</rscale>
<asrwt>0</asrwt>
<pdfrwt beam="1">  1        2 0.81684113E-02 0.27692815E+03</pdfrwt>
<pdfrwt beam="2">  1       -2 0.55553307E-01 0.27692815E+03</pdfrwt>
<totfact> 0.25605311E+03</totfact>
</mgrwt>
</event>
<event>
 9    1  0.7926126E-001  0.2664102E+03  0.7818608E-02  0.1103352E+00
          1   -1    0    0  501    0  0.00000000000E+00  0.00000000000E+00  0.36586257303E+02  0.36586257303E+02  0.00000000000E+00 0. -1.
         -1   -1    0    0    0  501 -0.00000000000E+00 -0.00000000000E+00 -0.48497997369E+03  0.48497997369E+03  0.00000000000E+00 0. -1.
         35    2    1    2    0    0  0.00000000000E+00  0.00000000000E+00 -0.44839371639E+03  0.52156623100E+03  0.26641022581E+03 0.  0.
         25    2    3    3    0    0 -0.25415913803E+02 -0.31537098407E+02 -0.26892822916E+03  0.29931083015E+03  0.12499609337E+03 0.  0.
         25    2    3    3    0    0  0.25415913803E+02  0.31537098407E+02 -0.17946548723E+03  0.22225540084E+03  0.12469580926E+03 0.  0.
          5    1    4    4  502    0 -0.37869203862E+02  0.57699513819E+01 -0.25410265095E+03  0.25701676241E+03  0.47000000000E+01 0. -1.
         -5    1    4    4    0  502  0.12453290059E+02 -0.37307049789E+02 -0.14825578215E+02  0.42294067748E+02  0.47000000000E+01 0. -1.
          5    1    5    5  503    0 -0.69997872942E+01  0.62595777744E+02 -0.16196173364E+03  0.17384165662E+03  0.47000000000E+01 0.  1.
         -5    1    5    5    0  503  0.32415701097E+02 -0.31058679337E+02 -0.17503753593E+02  0.48413744222E+02  0.47000000000E+01 0.  1.
<mgrwt>
<rscale>  0 0.26641023E+03</rscale>
<asrwt>0</asrwt>
<pdfrwt beam="1">  1        1 0.56286555E-02 0.26641023E+03</pdfrwt>
<pdfrwt beam="2">  1       -1 0.74612297E-01 0.26641023E+03</pdfrwt>
<totfact> 0.26504863E+03</totfact>
</mgrwt>
</event>
<event>
 9    1  0.7926126E-001  0.2771758E+03  0.7818608E-02  0.1097242E+00
          2   -1    0    0  501    0  0.00000000000E+00  0.00000000000E+00  0.91118595190E+03  0.91118595190E+03  0.00000000000E+00 0.  1.
         -2   -1    0    0    0  501 -0.00000000000E+00 -0.00000000000E+00 -0.21078693093E+02  0.21078693093E+02  0.00000000000E+00 0.  1.
         35    2    1    2    0    0 -0.71054273576E-14  0.00000000000E+00  0.89010725881E+03  0.93226464499E+03  0.27717582168E+03 0.  0.
         25    2    3    3    0    0 -0.45882911025E+02 -0.34248041701E+02  0.49700970602E+03  0.51579919561E+03  0.12550694176E+03 0.  0.
         25    2    3    3    0    0  0.45882911025E+02  0.34248041701E+02  0.39309755279E+03  0.41646544938E+03  0.12505844488E+03 0.  0.
          5    1    4    4  502    0 -0.19791446748E+02 -0.79888720962E+02  0.35073147046E+03  0.36028955504E+03  0.47000000000E+01 0.  1.
         -5    1    4    4    0  502 -0.26091464277E+02  0.45640679260E+02  0.14627823556E+03  0.15550964057E+03  0.47000000000E+01 0.  1.
          5    1    5    5  503    0 -0.29349059135E+02 -0.84838872232E+01  0.22729136880E+03  0.22938352152E+03  0.47000000000E+01 0. -1.
         -5    1    5    5    0  503  0.75231970160E+02  0.42731928924E+02  0.16580618399E+03  0.18708192786E+03  0.47000000000E+01 0. -1.
<mgrwt>
<rscale>  0 0.27717582E+03</rscale>
<asrwt>0</asrwt>
<pdfrwt beam="1">  1        2 0.14018242E+00 0.27717582E+03</pdfrwt>
<pdfrwt beam="2">  1       -2 0.32428766E-02 0.27717582E+03</pdfrwt>
<totfact> 0.11233767E+04</totfact>
</mgrwt>
</event>
<event>
 9    1  0.7926126E-001  0.2750256E+03  0.7818608E-02  0.1098437E+00
         -4   -1    0    0    0  501 -0.00000000000E+00  0.00000000000E+00  0.13075672290E+02  0.13075672290E+02  0.00000000000E+00 0. -1.
          4   -1    0    0  501    0  0.00000000000E+00 -0.00000000000E+00 -0.14461799865E+04  0.14461799865E+04  0.00000000000E+00 0. -1.
         35    2    1    2    0    0  0.00000000000E+00  0.00000000000E+00 -0.14331043142E+04  0.14592556588E+04  0.27502563936E+03 0.  0.
         25    2    3    3    0    0  0.38568774818E+02 -0.31118457986E+02 -0.86541798052E+03  0.87585858234E+03  0.12539563964E+03 0.  0.
         25    2    3    3    0    0 -0.38568774818E+02  0.31118457986E+02 -0.56768633366E+03  0.58339707642E+03  0.12501386534E+03 0.  0.
          5    1    4    4  502    0  0.20595928108E+02 -0.57431845292E+02 -0.18869797684E+03  0.19837244156E+03  0.47000000000E+01 0.  1.
         -5    1    4    4    0  502  0.17972846710E+02  0.26313387306E+02 -0.67672000368E+03  0.67748614078E+03  0.47000000000E+01 0.  1.
          5    1    5    5  503    0 -0.58759549587E+02 -0.32657767853E+02 -0.27857764620E+03  0.28661264702E+03  0.47000000000E+01 0.  1.
         -5    1    5    5    0  503  0.20190774769E+02  0.63776225838E+02 -0.28910868746E+03  0.29678442940E+03  0.47000000000E+01 0.  1.
<mgrwt>
<rscale>  0 0.27502564E+03</rscale>
<asrwt>0</asrwt>
<pdfrwt beam="1">  1        4 0.22248893E+00 0.27502564E+03</pdfrwt>
<pdfrwt beam="2">  1       -4 0.20116446E-02 0.27502564E+03</pdfrwt>
<totfact> 0.19669637E+02</totfact>
</mgrwt>
</event>
<event>
 9    1  0.7926126E-001  0.2755592E+03  0.7818608E-02  0.1098139E+00
          2   -1    0    0  501    0  0.00000000000E+00  0.00000000000E+00  0.40859902853E+03  0.40859902853E+03  0.00000000000E+00 0.  1.
         -2   -1    0    0    0  501 -0.00000000000E+00 -0.00000000000E+00 -0.46459282246E+02  0.46459282246E+02  0.00000000000E+00 0.  1.
         35    2    1    2    0    0  0.71054273576E-14  0.35527136788E-14  0.36213974628E+03  0.45505831077E+03  0.27555919576E+03 0.  0.
         25    2    3    3    0    0 -0.50993163050E+02 -0.10969121822E+02  0.15389859396E+03  0.20666447519E+03  0.12769026498E+03 0.  0.
         25    2    3    3    0    0  0.50993163050E+02  0.10969121822E+02  0.20824115232E+03  0.24839383558E+03  0.12495797583E+03 0.  0.
          5    1    4    4  502    0  0.21675061600E+02 -0.44988216700E+02  0.28416674662E+02  0.57648463432E+02  0.47000000000E+01 0.  1.
         -5    1    4    4    0  502 -0.72668224650E+02  0.34019094879E+02  0.12548191930E+03  0.14901601176E+03  0.47000000000E+01 0.  1.
          5    1    5    5  503    0  0.74279670603E+01 -0.77950589730E+00 -0.16719035159E+02  0.18904985076E+02  0.47000000000E+01 0.  1.
         -5    1    5    5    0  503  0.43565195990E+02  0.11748627719E+02  0.22496018748E+03  0.22948885051E+03  0.47000000000E+01 0.  1.
<mgrwt>
<rscale>  0 0.27555920E+03</rscale>
<asrwt>0</asrwt>
<pdfrwt beam="1">  1        2 0.62861386E-01 0.27555920E+03</pdfrwt>
<pdfrwt beam="2">  1       -2 0.71475822E-02 0.27555920E+03</pdfrwt>
<totfact> 0.87398378E+03</totfact>
</mgrwt>
</event>
<event>
 9    1  0.7926126E-001  0.2718832E+03  0.7818608E-02  0.1100207E+00
         -1   -1    0    0    0  501 -0.00000000000E+00  0.00000000000E+00  0.17656094972E+02  0.17656094972E+02  0.00000000000E+00 0. -1.
          1   -1    0    0  501    0  0.00000000000E+00 -0.00000000000E+00 -0.10466709314E+04  0.10466709314E+04  0.00000000000E+00 0. -1.
         35    2    1    2    0    0  0.00000000000E+00  0.00000000000E+00 -0.10290148364E+04  0.10643270264E+04  0.27188322030E+03 0.  0.
         25    2    3    3    0    0  0.40813031737E+00 -0.99529588957E+01 -0.73222723135E+03  0.74298701831E+03  0.12559364272E+03 0.  0.
         25    2    3    3    0    0 -0.40813031737E+00  0.99529588957E+01 -0.29678760508E+03  0.32134000806E+03  0.12278961801E+03 0.  0.
          5    1    4    4  502    0 -0.61203425357E+02  0.73080630508E+01 -0.35363505276E+03  0.35899736433E+03  0.47000000000E+01 0.  1.
         -5    1    4    4    0  502  0.61611555674E+02 -0.17261021947E+02 -0.37859217860E+03  0.38398965398E+03  0.47000000000E+01 0.  1.
          5    1    5    5  503    0 -0.12635865076E+02 -0.91555249948E+01  0.62235081285E+01  0.17444505656E+02  0.47000000000E+01 0.  1.
         -5    1    5    5    0  503  0.12227734759E+02  0.19108483891E+02 -0.30301111321E+03  0.30389550241E+03  0.47000000000E+01 0.  1.
<mgrwt>
<rscale>  0 0.27188322E+03</rscale>
<asrwt>0</asrwt>
<pdfrwt beam="1">  1        1 0.16102631E+00 0.27188322E+03</pdfrwt>
<pdfrwt beam="2">  1       -1 0.27163220E-02 0.27188322E+03</pdfrwt>
<totfact> 0.64429936E+03</totfact>
</mgrwt>
</event>
<event>
 9    1  0.7926126E-001  0.2750505E+03  0.7818608E-02  0.1098423E+00
         -2   -1    0    0    0  501 -0.00000000000E+00  0.00000000000E+00  0.68319414723E+02  0.68319414723E+02  0.00000000000E+00 0. -1.
          2   -1    0    0  501    0  0.00000000000E+00 -0.00000000000E+00 -0.27683494226E+03  0.27683494226E+03  0.00000000000E+00 0. -1.
         35    2    1    2    0    0  0.71054273576E-14  0.00000000000E+00 -0.20851552753E+03  0.34515435698E+03  0.27505054975E+03 0.  0.
         25    2    3    3    0    0 -0.29244604362E+02 -0.34236172903E+02 -0.13400471703E+03  0.18859504381E+03  0.12483374522E+03 0.  0.
         25    2    3    3    0    0  0.29244604362E+02  0.34236172903E+02 -0.74510810507E+02  0.15655931317E+03  0.13012146340E+03 0.  0.
          5    1    4    4  502    0  0.48271392369E+02 -0.78166735786E+01 -0.64509291968E+02  0.81084933603E+02  0.47000000000E+01 0. -1.
         -5    1    4    4    0  502 -0.77515996731E+02 -0.26419499325E+02 -0.69495425059E+02  0.10751011021E+03  0.47000000000E+01 0. -1.
          5    1    5    5  503    0  0.62440869515E+02  0.14407540609E+02 -0.93322075037E+02  0.11330286449E+03  0.47000000000E+01 0.  1.
         -5    1    5    5    0  503 -0.33196265154E+02  0.19828632294E+02  0.18811264531E+02  0.43256448676E+02  0.47000000000E+01 0.  1.
<mgrwt>
<rscale>  0 0.27505055E+03</rscale>
<asrwt>0</asrwt>
<pdfrwt beam="1">  1        2 0.42589991E-01 0.27505055E+03</pdfrwt>
<pdfrwt beam="2">  1       -2 0.10510679E-01 0.27505055E+03</pdfrwt>
<totfact> 0.72551615E+03</totfact>
</mgrwt>
</event>
<event>
 9    1  0.7926126E-001  0.2734621E+03  0.7818608E-02  0.1099314E+00
          2   -1    0    0  501    0  0.00000000000E+00  0.00000000000E+00  0.74642048388E+03  0.74642048388E+03  0.00000000000E+00 0. -1.
         -2   -1    0    0    0  501 -0.00000000000E+00 -0.00000000000E+00 -0.25046712101E+02  0.25046712101E+02  0.00000000000E+00 0. -1.
         35    2    1    2    0    0 -0.71054273576E-14  0.00000000000E+00  0.72137377178E+03  0.77146719599E+03  0.27346209219E+03 0.  0.
         25    2    3    3    0    0 -0.48322643615E+02 -0.20108450902E+02  0.41495933224E+03  0.43637755715E+03  0.12447769794E+03 0.  0.
         25    2    3    3    0    0  0.48322643615E+02  0.20108450902E+02  0.30641443955E+03  0.33508963884E+03  0.12512325768E+03 0.  0.
          5    1    4    4  502    0 -0.61320900036E+02  0.38410126518E+02  0.26690626173E+03  0.27658024722E+03  0.47000000000E+01 0.  1.
         -5    1    4    4    0  502  0.12998256421E+02 -0.58518577419E+02  0.14805307050E+03  0.15979730992E+03  0.47000000000E+01 0.  1.
          5    1    5    5  503    0  0.80635639463E+02  0.26774748490E+02  0.27975915136E+03  0.29241454525E+03  0.47000000000E+01 0.  1.
         -5    1    5    5    0  503 -0.32312995848E+02 -0.66662975880E+01  0.26655288190E+02  0.42675093587E+02  0.47000000000E+01 0.  1.
<mgrwt>
<rscale>  0 0.27346209E+03</rscale>
<asrwt>0</asrwt>
<pdfrwt beam="1">  1        2 0.11483390E+00 0.27346209E+03</pdfrwt>
<pdfrwt beam="2">  1       -2 0.38533409E-02 0.27346209E+03</pdfrwt>
<totfact> 0.11218891E+04</totfact>
</mgrwt>
</event>
<event>
 9    1  0.7926126E-001  0.2677144E+03  0.7818608E-02  0.1102595E+00
          1   -1    0    0  501    0  0.00000000000E+00  0.00000000000E+00  0.27666292993E+03  0.27666292993E+03  0.00000000000E+00 0. -1.
         -1   -1    0    0    0  501 -0.00000000000E+00 -0.00000000000E+00 -0.64763846388E+02  0.64763846388E+02  0.00000000000E+00 0. -1.
         35    2    1    2    0    0 -0.71054273576E-14  0.00000000000E+00  0.21189908354E+03  0.34142677632E+03  0.26771444111E+03 0.  0.
         25    2    3    3    0    0 -0.21924250391E+01  0.40698362551E+02  0.74594111719E+02  0.15144519788E+03  0.12534034872E+03 0.  0.
         25    2    3    3    0    0  0.21924250391E+01 -0.40698362551E+02  0.13730497182E+03  0.18998157844E+03  0.12481659111E+03 0.  0.
          5    1    4    4  502    0 -0.40566848525E+02  0.12097023086E+02 -0.18676048911E+02  0.46506902388E+02  0.47000000000E+01 0.  1.
         -5    1    4    4    0  502  0.38374423486E+02  0.28601339465E+02  0.93270160630E+02  0.10493829549E+03  0.47000000000E+01 0.  1.
          5    1    5    5  503    0 -0.58367835811E+02 -0.20892240078E+02  0.94356391069E+02  0.11299782515E+03  0.47000000000E+01 0. -1.
         -5    1    5    5    0  503  0.60560260850E+02 -0.19806122473E+02  0.42948580754E+02  0.76983753289E+02  0.47000000000E+01 0. -1.
<mgrwt>
<rscale>  0 0.26771444E+03</rscale>
<asrwt>0</asrwt>
<pdfrwt beam="1">  1        1 0.42563527E-01 0.26771444E+03</pdfrwt>
<pdfrwt beam="2">  1       -1 0.99636688E-02 0.26771444E+03</pdfrwt>
<totfact> 0.59034526E+03</totfact>
</mgrwt>
</event>
<event>
 9    1  0.7926126E-001  0.2734684E+03  0.7818608E-02  0.1099311E+00
          3   -1    0    0  501    0  0.00000000000E+00  0.00000000000E+00  0.46160050794E+02  0.46160050794E+02  0.00000000000E+00 0.  1.
         -3   -1    0    0    0  501 -0.00000000000E+00 -0.00000000000E+00 -0.40503082901E+03  0.40503082901E+03  0.00000000000E+00 0.  1.
         35    2    1    2    0    0 -0.14210854715E-13 -0.35527136788E-14 -0.35887077821E+03  0.45119087980E+03  0.27346841602E+03 0.  0.
         25    2    3    3    0    0  0.42035541930E+02  0.30147170364E+02 -0.14628096229E+03  0.19939879056E+03  0.12524343928E+03 0.  0.
         25    2    3    3    0    0 -0.42035541930E+02 -0.30147170364E+02 -0.21258981592E+03  0.25179208924E+03  0.12461535902E+03 0.  0.
          5    1    4    4  502    0  0.83886716597E+02  0.92486154663E+00 -0.96337819797E+02  0.12783153802E+03  0.47000000000E+01 0. -1.
         -5    1    4    4    0  502 -0.41851174667E+02  0.29222308817E+02 -0.49943142497E+02  0.71567252539E+02  0.47000000000E+01 0. -1.
          5    1    5    5  503    0 -0.72432964753E+02 -0.58340703742E+02 -0.15065561404E+03  0.17711402016E+03  0.47000000000E+01 0.  1.
         -5    1    5    5    0  503  0.30397422823E+02  0.28193533379E+02 -0.61934201885E+02  0.74678069082E+02  0.47000000000E+01 0.  1.
<mgrwt>
<rscale>  0 0.27346842E+03</rscale>
<asrwt>0</asrwt>
<pdfrwt beam="1">  1        3 0.71015462E-02 0.27346842E+03</pdfrwt>
<pdfrwt beam="2">  1       -3 0.62312436E-01 0.27346842E+03</pdfrwt>
<totfact> 0.83730191E+02</totfact>
</mgrwt>
</event>
<event>
 9    1  0.7926126E-001  0.2765526E+03  0.7818608E-02  0.1097587E+00
         -1   -1    0    0    0  501 -0.00000000000E+00  0.00000000000E+00  0.88864440239E+02  0.88864440239E+02  0.00000000000E+00 0. -1.
          1   -1    0    0  501    0  0.00000000000E+00 -0.00000000000E+00 -0.21516294921E+03  0.21516294921E+03  0.00000000000E+00 0. -1.
         35    2    1    2    0    0 -0.71054273576E-14  0.00000000000E+00 -0.12629850897E+03  0.30402738945E+03  0.27655259928E+03 0.  0.
         25    2    3    3    0    0  0.85245274884E+01 -0.53916977148E+01 -0.12432340995E+03  0.17680995265E+03  0.12531444897E+03 0.  0.
         25    2    3    3    0    0 -0.85245274884E+01  0.53916977148E+01 -0.19750990222E+01  0.12721743680E+03  0.12680156638E+03 0.  0.
          5    1    4    4  502    0 -0.24397574840E+02  0.28922815182E+02  0.54511632855E+01  0.38517217933E+02  0.47000000000E+01 0.  1.
         -5    1    4    4    0  502  0.32922102328E+02 -0.34314512897E+02 -0.12977457323E+03  0.13829273471E+03  0.47000000000E+01 0.  1.
          5    1    5    5  503    0 -0.52196319894E+02  0.11999633998E+02 -0.41376360187E+02  0.67842023915E+02  0.47000000000E+01 0.  1.
         -5    1    5    5    0  503  0.43671792405E+02 -0.66079362836E+01  0.39401261165E+02  0.59375412884E+02  0.47000000000E+01 0.  1.
<mgrwt>
<rscale>  0 0.27655260E+03</rscale>
<asrwt>0</asrwt>
<pdfrwt beam="1">  1        1 0.33101992E-01 0.27655260E+03</pdfrwt>
<pdfrwt beam="2">  1       -1 0.13671453E-01 0.27655260E+03</pdfrwt>
<totfact> 0.49475115E+03</totfact>
</mgrwt>
</event>
<event>
 9    1  0.7926126E-001  0.2742376E+03  0.7818608E-02  0.1098879E+00
         -1   -1    0    0    0  501 -0.00000000000E+00  0.00000000000E+00  0.68801458198E+01  0.68801458198E+01  0.00000000000E+00 0. -1.
          1   -1    0    0  501    0  0.00000000000E+00 -0.00000000000E+00 -0.27327279450E+04  0.27327279450E+04  0.00000000000E+00 0. -1.
         35    2    1    2    0    0  0.00000000000E+00  0.00000000000E+00 -0.27258477992E+04  0.27396080908E+04  0.27423761046E+03 0.  0.
         25    2    3    3    0    0  0.19440585065E+02  0.42648923911E+02 -0.10348923298E+04  0.10434528748E+04  0.12487954401E+03 0.  0.
         25    2    3    3    0    0 -0.19440585065E+02 -0.42648923911E+02 -0.16909554694E+04  0.16961552161E+04  0.12415816717E+03 0.  0.
          5    1    4    4  502    0  0.25518377852E+02  0.69740350856E+02 -0.96825271070E+03  0.97110777256E+03  0.47000000000E+01 0.  1.
         -5    1    4    4    0  502 -0.60777927869E+01 -0.27091426945E+02 -0.66639619103E+02  0.72345102206E+02  0.47000000000E+01 0.  1.
          5    1    5    5  503    0 -0.12493147745E+02  0.19655421929E+01 -0.14930098692E+04  0.14930708294E+04  0.47000000000E+01 0. -1.
         -5    1    5    5    0  503 -0.69474373200E+01 -0.44614466104E+02 -0.19794560022E+03  0.20308438669E+03  0.47000000000E+01 0. -1.
<mgrwt>
<rscale>  0 0.27423761E+03</rscale>
<asrwt>0</asrwt>
<pdfrwt beam="1">  1        1 0.42041942E+00 0.27423761E+03</pdfrwt>
<pdfrwt beam="2">  1       -1 0.10584846E-02 0.27423761E+03</pdfrwt>
<totfact> 0.19164149E+03</totfact>
</mgrwt>
</event>
<event>
 9    1  0.7926126E-001  0.2810977E+03  0.7818608E-02  0.1095091E+00
          4   -1    0    0  501    0  0.00000000000E+00  0.00000000000E+00  0.17776539786E+03  0.17776539786E+03  0.00000000000E+00 0.  1.
         -4   -1    0    0    0  501 -0.00000000000E+00 -0.00000000000E+00 -0.11112387038E+03  0.11112387038E+03  0.00000000000E+00 0.  1.
         35    2    1    2    0    0  0.00000000000E+00 -0.17763568394E-14  0.66641527482E+02  0.28888926824E+03  0.28109769853E+03 0.  0.
         25    2    3    3    0    0  0.23675318227E+02 -0.62617766565E+01  0.93422921338E+02  0.15811941798E+03  0.12519655575E+03 0.  0.
         25    2    3    3    0    0 -0.23675318227E+02  0.62617766565E+01 -0.26781393855E+02  0.13076985026E+03  0.12563351519E+03 0.  0.
          5    1    4    4  502    0  0.17091407788E+01  0.66461305004E+00  0.12144133014E+03  0.12154607990E+03  0.47000000000E+01 0. -1.
         -5    1    4    4    0  502  0.21966177448E+02 -0.69263897065E+01 -0.28018408807E+02  0.36573338078E+02  0.47000000000E+01 0. -1.
          5    1    5    5  503    0  0.12122111757E+02  0.56055355154E+02 -0.37012532635E+02  0.68419047107E+02  0.47000000000E+01 0.  1.
         -5    1    5    5    0  503 -0.35797429984E+02 -0.49793578498E+02  0.10231138780E+02  0.62350803153E+02  0.47000000000E+01 0.  1.
<mgrwt>
<rscale>  0 0.28109770E+03</rscale>
<asrwt>0</asrwt>
<pdfrwt beam="1">  1        4 0.27348523E-01 0.28109770E+03</pdfrwt>
<pdfrwt beam="2">  1       -4 0.17095980E-01 0.28109770E+03</pdfrwt>
<totfact> 0.71245197E+02</totfact>
</mgrwt>
</event>
<event>
 9    1  0.7926126E-001  0.2747835E+03  0.7818608E-02  0.1098573E+00
         -2   -1    0    0    0  501 -0.00000000000E+00  0.00000000000E+00  0.30231791014E+02  0.30231791014E+02  0.00000000000E+00 0. -1.
          2   -1    0    0  501    0  0.00000000000E+00 -0.00000000000E+00 -0.62439196309E+03  0.62439196309E+03  0.00000000000E+00 0. -1.
         35    2    1    2    0    0 -0.71054273576E-14  0.00000000000E+00 -0.59416017208E+03  0.65462375410E+03  0.27478345903E+03 0.  0.
         25    2    3    3    0    0 -0.54960488205E+02  0.12320309699E+02 -0.29366748368E+03  0.32408846138E+03  0.12498117671E+03 0.  0.
         25    2    3    3    0    0  0.54960488205E+02 -0.12320309699E+02 -0.30049268840E+03  0.33053529273E+03  0.12563947892E+03 0.  0.
          5    1    4    4  502    0 -0.36740544656E+02  0.88077618881E+01 -0.30114217803E+03  0.30353936430E+03  0.47000000000E+01 0.  1.
         -5    1    4    4    0  502 -0.18219943550E+02  0.35125478107E+01  0.74746943502E+01  0.20549097077E+02  0.47000000000E+01 0.  1.
          5    1    5    5  503    0  0.72435265067E+02  0.31329584545E+02 -0.24608487144E+03  0.25847294722E+03  0.47000000000E+01 0.  1.
         -5    1    5    5    0  503 -0.17474776862E+02 -0.43649894244E+02 -0.54407816957E+02  0.72062345506E+02  0.47000000000E+01 0.  1.
<mgrwt>
<rscale>  0 0.27478346E+03</rscale>
<asrwt>0</asrwt>
<pdfrwt beam="1">  1        2 0.96060301E-01 0.27478346E+03</pdfrwt>
<pdfrwt beam="2">  1       -2 0.46510448E-02 0.27478346E+03</pdfrwt>
<totfact> 0.10476505E+04</totfact>
</mgrwt>
</event>
<event>
 9    1  0.7926126E-001  0.2759112E+03  0.7818608E-02  0.1097943E+00
         -1   -1    0    0    0  501 -0.00000000000E+00  0.00000000000E+00  0.77392439856E+03  0.77392439856E+03  0.00000000000E+00 0. -1.
          1   -1    0    0  501    0  0.00000000000E+00 -0.00000000000E+00 -0.24591224961E+02  0.24591224961E+02  0.00000000000E+00 0. -1.
         35    2    1    2    0    0  0.00000000000E+00  0.14210854715E-13  0.74933317360E+03  0.79851562352E+03  0.27591121027E+03 0.  0.
         25    2    3    3    0    0 -0.60888618499E+01 -0.41530711840E+02  0.25999222597E+03  0.29162882766E+03  0.12525789913E+03 0.  0.
         25    2    3    3    0    0  0.60888618499E+01  0.41530711840E+02  0.48934094762E+03  0.50688679585E+03  0.12537059673E+03 0.  0.
          5    1    4    4  502    0  0.22501990002E+02 -0.79136027767E+02  0.13810143279E+03  0.16081960758E+03  0.47000000000E+01 0. -1.
         -5    1    4    4    0  502 -0.28590851852E+02  0.37605315926E+02  0.12189079318E+03  0.13080922008E+03  0.47000000000E+01 0. -1.
          5    1    5    5  503    0 -0.53199198696E+02  0.36107739347E+02  0.33980783126E+03  0.34586901534E+03  0.47000000000E+01 0. -1.
         -5    1    5    5    0  503  0.59288060546E+02  0.54229724929E+01  0.14953311636E+03  0.16101778052E+03  0.47000000000E+01 0. -1.
<mgrwt>
<rscale>  0 0.27591121E+03</rscale>
<asrwt>0</asrwt>
<pdfrwt beam="1">  1        1 0.37832660E-02 0.27591121E+03</pdfrwt>
<pdfrwt beam="2">  1       -1 0.11906527E+00 0.27591121E+03</pdfrwt>
<totfact> 0.16558916E+03</totfact>
</mgrwt>
</event>
<event>
 9    1  0.7926126E-001  0.2740809E+03  0.7818608E-02  0.1098966E+00
          4   -1    0    0  501    0  0.00000000000E+00  0.00000000000E+00  0.14521064198E+02  0.14521064198E+02  0.00000000000E+00 0. -1.
         -4   -1    0    0    0  501 -0.00000000000E+00 -0.00000000000E+00 -0.12932995050E+04  0.12932995050E+04  0.00000000000E+00 0. -1.
         35    2    1    2    0    0  0.00000000000E+00  0.00000000000E+00 -0.12787784408E+04  0.13078205692E+04  0.27408090148E+03 0.  0.
         25    2    3    3    0    0  0.42612098706E+01  0.33641773886E+02 -0.43311189310E+03  0.45224209996E+03  0.12564664008E+03 0.  0.
         25    2    3    3    0    0 -0.42612098706E+01 -0.33641773886E+02 -0.84566654769E+03  0.85557846923E+03  0.12535023046E+03 0.  0.
          5    1    4    4  502    0  0.20010309782E+02  0.61160334666E+02 -0.40342905078E+03  0.40855610147E+03  0.47000000000E+01 0.  1.
         -5    1    4    4    0  502 -0.15749099912E+02 -0.27518560780E+02 -0.29682842327E+02  0.43685998490E+02  0.47000000000E+01 0.  1.
          5    1    5    5  503    0  0.40443331461E+02 -0.60260900186E+02 -0.60183879700E+03  0.60621701290E+03  0.47000000000E+01 0.  1.
         -5    1    5    5    0  503 -0.44704541331E+02  0.26619126300E+02 -0.24382775069E+03  0.24936145634E+03  0.47000000000E+01 0.  1.
<mgrwt>
<rscale>  0 0.27408090E+03</rscale>
<asrwt>0</asrwt>
<pdfrwt beam="1">  1        4 0.22340108E-02 0.27408090E+03</pdfrwt>
<pdfrwt beam="2">  1       -4 0.19896907E+00 0.27408090E+03</pdfrwt>
<totfact> 0.23383433E+02</totfact>
</mgrwt>
</event>
<event>
 9    1  0.7926126E-001  0.2745596E+03  0.7818608E-02  0.1098698E+00
         -1   -1    0    0    0  501 -0.00000000000E+00  0.00000000000E+00  0.21241511572E+02  0.21241511572E+02  0.00000000000E+00 0. -1.
          1   -1    0    0  501    0  0.00000000000E+00 -0.00000000000E+00 -0.88721261149E+03  0.88721261149E+03  0.00000000000E+00 0. -1.
         35    2    1    2    0    0  0.00000000000E+00  0.71054273576E-14 -0.86597109992E+03  0.90845412306E+03  0.27455955240E+03 0.  0.
         25    2    3    3    0    0  0.23776281072E+02 -0.28035273209E+02 -0.28598645504E+03  0.31455539086E+03  0.12572013907E+03 0.  0.
         25    2    3    3    0    0 -0.23776281072E+02  0.28035273209E+02 -0.57998464488E+03  0.59389873221E+03  0.12240191065E+03 0.  0.
          5    1    4    4  502    0  0.21706436377E+02 -0.73905936608E+02 -0.22634731339E+03  0.23914107369E+03  0.47000000000E+01 0.  1.
         -5    1    4    4    0  502  0.20698446949E+01  0.45870663399E+02 -0.59639141641E+02  0.75414317164E+02  0.47000000000E+01 0.  1.
          5    1    5    5  503    0  0.16607795133E+02 -0.14163170392E+02 -0.45826517439E+03  0.45880875571E+03  0.47000000000E+01 0. -1.
         -5    1    5    5    0  503 -0.40384076205E+02  0.42198443601E+02 -0.12171947049E+03  0.13508997650E+03  0.47000000000E+01 0. -1.
<mgrwt>
<rscale>  0 0.27455955E+03</rscale>
<asrwt>0</asrwt>
<pdfrwt beam="1">  1        1 0.13649426E+00 0.27455955E+03</pdfrwt>
<pdfrwt beam="2">  1       -1 0.32679246E-02 0.27455955E+03</pdfrwt>
<totfact> 0.64869015E+03</totfact>
</mgrwt>
</event>
<event>
 9    1  0.7926126E-001  0.2755361E+03  0.7818608E-02  0.1098152E+00
         -1   -1    0    0    0  501 -0.00000000000E+00  0.00000000000E+00  0.15551391734E+03  0.15551391734E+03  0.00000000000E+00 0.  1.
          1   -1    0    0  501    0  0.00000000000E+00 -0.00000000000E+00 -0.12204715895E+03  0.12204715895E+03  0.00000000000E+00 0.  1.
         35    2    1    2    0    0  0.00000000000E+00  0.17763568394E-14  0.33466758390E+02  0.27756107628E+03  0.27553607232E+03 0.  0.
         25    2    3    3    0    0 -0.22908042531E+02  0.11716941752E+02  0.69192968806E+02  0.14533360664E+03  0.12518835868E+03 0.  0.
         25    2    3    3    0    0  0.22908042531E+02 -0.11716941752E+02 -0.35726210416E+02  0.13222746964E+03  0.12468230220E+03 0.  0.
          5    1    4    4  502    0 -0.64765295044E+02 -0.15520658053E+02  0.96173443780E+01  0.67453818138E+02  0.47000000000E+01 0.  1.
         -5    1    4    4    0  502  0.41857252513E+02  0.27237599805E+02  0.59575624428E+02  0.77879788502E+02  0.47000000000E+01 0.  1.
          5    1    5    5  503    0  0.11377085935E+02 -0.43712897792E+02  0.32503396378E+02  0.55846363300E+02  0.47000000000E+01 0. -1.
         -5    1    5    5    0  503  0.11530956596E+02  0.31995956040E+02 -0.68229606794E+02  0.76381106343E+02  0.47000000000E+01 0. -1.
<mgrwt>
<rscale>  0 0.27553607E+03</rscale>
<asrwt>0</asrwt>
<pdfrwt beam="1">  1        1 0.18776486E-01 0.27553607E+03</pdfrwt>
<pdfrwt beam="2">  1       -1 0.23925218E-01 0.27553607E+03</pdfrwt>
<totfact> 0.41311572E+03</totfact>
</mgrwt>
</event>
<event>
 9    1  0.7926126E-001  0.2753537E+03  0.7818608E-02  0.1098254E+00
         -2   -1    0    0    0  501 -0.00000000000E+00  0.00000000000E+00  0.71836984550E+02  0.71836984550E+02  0.00000000000E+00 0. -1.
          2   -1    0    0  501    0  0.00000000000E+00 -0.00000000000E+00 -0.26386010413E+03  0.26386010413E+03  0.00000000000E+00 0. -1.
         35    2    1    2    0    0 -0.71054273576E-14  0.00000000000E+00 -0.19202311958E+03  0.33569708868E+03  0.27535369417E+03 0.  0.
         25    2    3    3    0    0 -0.42013315449E+02 -0.42619774487E+02 -0.90686781004E+02  0.16567810705E+03  0.12507429414E+03 0.  0.
         25    2    3    3    0    0  0.42013315449E+02  0.42619774487E+02 -0.10133633857E+03  0.17001898162E+03  0.12270222795E+03 0.  0.
          5    1    4    4  502    0  0.13594183164E+02  0.18302774850E+00 -0.94169200097E+02  0.95261553430E+02  0.47000000000E+01 0. -1.
         -5    1    4    4    0  502 -0.55607498613E+02 -0.42802802235E+02  0.34824190933E+01  0.70416553621E+02  0.47000000000E+01 0. -1.
          5    1    5    5  503    0  0.79841406968E+02  0.27637320753E+01 -0.48122784978E+02  0.93381908931E+02  0.47000000000E+01 0. -1.
         -5    1    5    5    0  503 -0.37828091519E+02  0.39856042411E+02 -0.53213553595E+02  0.76637072693E+02  0.47000000000E+01 0. -1.
<mgrwt>
<rscale>  0 0.27535369E+03</rscale>
<asrwt>0</asrwt>
<pdfrwt beam="1">  1        2 0.40593863E-01 0.27535369E+03</pdfrwt>
<pdfrwt beam="2">  1       -2 0.11051844E-01 0.27535369E+03</pdfrwt>
<totfact> 0.70507195E+03</totfact>
</mgrwt>
</event>
<event>
 9    1  0.7926126E-001  0.2797692E+03  0.7818608E-02  0.1095815E+00
          2   -1    0    0  501    0  0.00000000000E+00  0.00000000000E+00  0.17352585328E+04  0.17352585328E+04  0.00000000000E+00 0. -1.
         -2   -1    0    0    0  501 -0.00000000000E+00 -0.00000000000E+00 -0.11276530719E+02  0.11276530719E+02  0.00000000000E+00 0. -1.
         35    2    1    2    0    0 -0.71054273576E-14 -0.35527136788E-14  0.17239820021E+04  0.17465350635E+04  0.27976916307E+03 0.  0.
         25    2    3    3    0    0  0.38935883556E+02  0.15812179074E+02  0.11627377625E+04  0.11699600868E+04  0.12280664566E+03 0.  0.
         25    2    3    3    0    0 -0.38935883556E+02 -0.15812179074E+02  0.56124423957E+03  0.57657497675E+03  0.12521014070E+03 0.  0.
          5    1    4    4  502    0 -0.18274701283E+02  0.43816026123E+02  0.22257100492E+03  0.22762634092E+03  0.47000000000E+01 0.  1.
         -5    1    4    4    0  502  0.57210584840E+02 -0.28003847049E+02  0.94016675758E+03  0.94233374583E+03  0.47000000000E+01 0.  1.
          5    1    5    5  503    0  0.25989825987E+02 -0.45178420765E+00  0.25646150895E+02  0.36816982760E+02  0.47000000000E+01 0.  1.
         -5    1    5    5    0  503 -0.64925709543E+02 -0.15360394866E+02  0.53559808867E+03  0.53975799399E+03  0.47000000000E+01 0.  1.
<mgrwt>
<rscale>  0 0.27976916E+03</rscale>
<asrwt>0</asrwt>
<pdfrwt beam="1">  1        2 0.26696264E+00 0.27976916E+03</pdfrwt>
<pdfrwt beam="2">  1       -2 0.17348523E-02 0.27976916E+03</pdfrwt>
<totfact> 0.97590787E+03</totfact>
</mgrwt>
</event>
<event>
 9    1  0.7926126E-001  0.2694461E+03  0.7818608E-02  0.1101597E+00
          2   -1    0    0  501    0  0.00000000000E+00  0.00000000000E+00  0.88518066328E+03  0.88518066328E+03  0.00000000000E+00 0.  1.
         -2   -1    0    0    0  501 -0.00000000000E+00 -0.00000000000E+00 -0.20504634569E+02  0.20504634569E+02  0.00000000000E+00 0.  1.
         35    2    1    2    0    0  0.00000000000E+00  0.71054273576E-14  0.86467602871E+03  0.90568529785E+03  0.26944614325E+03 0.  0.
         25    2    3    3    0    0  0.19962962161E+01  0.10260271687E+02  0.33318764405E+03  0.35610202337E+03  0.12524131316E+03 0.  0.
         25    2    3    3    0    0 -0.19962962161E+01 -0.10260271687E+02  0.53148838466E+03  0.54958327448E+03  0.13947262882E+03 0.  0.
          5    1    4    4  502    0 -0.10126599739E+02  0.56517771256E+02  0.27337548192E+03  0.27937976055E+03  0.47000000000E+01 0. -1.
         -5    1    4    4    0  502  0.12122895955E+02 -0.46257499570E+02  0.59812162132E+02  0.76722262816E+02  0.47000000000E+01 0. -1.
          5    1    5    5  503    0 -0.10344923392E+02 -0.62181346140E+02  0.43522664754E+03  0.43979297627E+03  0.47000000000E+01 0.  1.
         -5    1    5    5    0  503  0.83486271761E+01  0.51921074453E+02  0.96261737112E+02  0.10979029820E+03  0.47000000000E+01 0.  1.
<mgrwt>
<rscale>  0 0.26944614E+03</rscale>
<asrwt>0</asrwt>
<pdfrwt beam="1">  1        2 0.13618161E+00 0.26944614E+03</pdfrwt>
<pdfrwt beam="2">  1       -2 0.31545598E-02 0.26944614E+03</pdfrwt>
<totfact> 0.12156478E+04</totfact>
</mgrwt>
</event>
<event>
 9    1  0.7926126E-001  0.2749783E+03  0.7818608E-02  0.1098464E+00
         -1   -1    0    0    0  501 -0.00000000000E+00  0.00000000000E+00  0.88774954320E+01  0.88774954320E+01  0.00000000000E+00 0. -1.
          1   -1    0    0  501    0  0.00000000000E+00 -0.00000000000E+00 -0.21293472320E+04  0.21293472320E+04  0.00000000000E+00 0. -1.
         35    2    1    2    0    0  0.00000000000E+00  0.71054273576E-14 -0.21204697365E+04  0.21382247274E+04  0.27497832878E+03 0.  0.
         25    2    3    3    0    0 -0.25401638092E+02 -0.43101706037E+02 -0.75613377503E+03  0.76670164794E+03  0.11657671691E+03 0.  0.
         25    2    3    3    0    0  0.25401638092E+02  0.43101706037E+02 -0.13643359615E+04  0.13715230795E+04  0.13099595934E+03 0.  0.
          5    1    4    4  502    0 -0.66882682773E+02 -0.64181591889E+01 -0.31780699540E+03  0.32486591442E+03  0.47000000000E+01 0. -1.
         -5    1    4    4    0  502  0.41481044681E+02 -0.36683546848E+02 -0.43832677963E+03  0.44183573352E+03  0.47000000000E+01 0. -1.
          5    1    5    5  503    0 -0.51483444574E+02  0.28552904877E+00 -0.45559910792E+03  0.45852291516E+03  0.47000000000E+01 0. -1.
         -5    1    5    5    0  503  0.76885082666E+02  0.42816176988E+02 -0.90873685360E+03  0.91300016431E+03  0.47000000000E+01 0. -1.
<mgrwt>
<rscale>  0 0.27497833E+03</rscale>
<asrwt>0</asrwt>
<pdfrwt beam="1">  1        1 0.32759190E+00 0.27497833E+03</pdfrwt>
<pdfrwt beam="2">  1       -1 0.13657685E-02 0.27497833E+03</pdfrwt>
<totfact> 0.33253659E+03</totfact>
</mgrwt>
</event>
<event>
 9    1  0.7926126E-001  0.3026652E+03  0.7818608E-02  0.1083916E+00
          2   -1    0    0  501    0  0.00000000000E+00  0.00000000000E+00  0.83272034005E+03  0.83272034005E+03  0.00000000000E+00 0.  1.
         -2   -1    0    0    0  501 -0.00000000000E+00 -0.00000000000E+00 -0.27502090062E+02  0.27502090062E+02  0.00000000000E+00 0.  1.
         35    2    1    2    0    0 -0.71054273576E-14  0.14210854715E-13  0.80521824999E+03  0.86022243011E+03  0.30266516013E+03 0.  0.
         25    2    3    3    0    0 -0.36597739795E+02  0.73822982234E+02  0.46627658828E+03  0.48971530929E+03  0.12497199730E+03 0.  0.
         25    2    3    3    0    0  0.36597739795E+02 -0.73822982234E+02  0.33894166171E+03  0.37050712082E+03  0.12491937110E+03 0.  0.
          5    1    4    4  502    0 -0.47427450405E+02  0.23107308437E+02  0.40856725652E+03  0.41198616950E+03  0.47000000000E+01 0.  1.
         -5    1    4    4    0  502  0.10829710610E+02  0.50715673798E+02  0.57709331755E+02  0.77729139788E+02  0.47000000000E+01 0.  1.
          5    1    5    5  503    0  0.42507935187E+02 -0.19545766380E+02  0.27902118923E+02  0.54677049826E+02  0.47000000000E+01 0. -1.
         -5    1    5    5    0  503 -0.59101953922E+01 -0.54277215855E+02  0.31103954279E+03  0.31583007100E+03  0.47000000000E+01 0. -1.
<mgrwt>
<rscale>  0 0.30266516E+03</rscale>
<asrwt>0</asrwt>
<pdfrwt beam="1">  1        2 0.12811080E+00 0.30266516E+03</pdfrwt>
<pdfrwt beam="2">  1       -2 0.42310914E-02 0.30266516E+03</pdfrwt>
<totfact> 0.85084086E+03</totfact>
</mgrwt>
</event>
<event>
 9    1  0.7926126E-001  0.2736230E+03  0.7818608E-02  0.1099224E+00
         -2   -1    0    0    0  501 -0.00000000000E+00  0.00000000000E+00  0.61124927544E+02  0.61124927544E+02  0.00000000000E+00 0.  1.
          2   -1    0    0  501    0  0.00000000000E+00 -0.00000000000E+00 -0.30621531627E+03  0.30621531627E+03  0.00000000000E+00 0.  1.
         35    2    1    2    0    0 -0.35527136788E-14  0.00000000000E+00 -0.24509038872E+03  0.36734024381E+03  0.27362301818E+03 0.  0.
         25    2    3    3    0    0 -0.12830312812E+02  0.49458981271E+02 -0.16081495992E+03  0.21035374058E+03  0.12560428769E+03 0.  0.
         25    2    3    3    0    0  0.12830312812E+02 -0.49458981271E+02 -0.84275428799E+02  0.15698650323E+03  0.12219495301E+03 0.  0.
          5    1    4    4  502    0 -0.53274911013E+02 -0.37057056765E+01 -0.12125186483E+03  0.13257470770E+03  0.47000000000E+01 0.  1.
         -5    1    4    4    0  502  0.40444598200E+02  0.53164686948E+02 -0.39563095093E+02  0.77779032876E+02  0.47000000000E+01 0.  1.
          5    1    5    5  503    0 -0.20157811879E+02  0.32072234722E+01 -0.91848097202E+02  0.94206085906E+02  0.47000000000E+01 0. -1.
         -5    1    5    5    0  503  0.32988124692E+02 -0.52666204743E+02  0.75726684025E+01  0.62780417325E+02  0.47000000000E+01 0. -1.
<mgrwt>
<rscale>  0 0.27362302E+03</rscale>
<asrwt>0</asrwt>
<pdfrwt beam="1">  1        2 0.47110049E-01 0.27362302E+03</pdfrwt>
<pdfrwt beam="2">  1       -2 0.94038349E-02 0.27362302E+03</pdfrwt>
<totfact> 0.77664378E+03</totfact>
</mgrwt>
</event>
<event>
 9    1  0.7926126E-001  0.2720265E+03  0.7818608E-02  0.1100125E+00
         -4   -1    0    0    0  501 -0.00000000000E+00  0.00000000000E+00  0.16237210300E+02  0.16237210300E+02  0.00000000000E+00 0. -1.
          4   -1    0    0  501    0  0.00000000000E+00 -0.00000000000E+00 -0.11393336233E+04  0.11393336233E+04  0.00000000000E+00 0. -1.
         35    2    1    2    0    0 -0.35527136788E-14 -0.17763568394E-14 -0.11230964130E+04  0.11555708336E+04  0.27202646668E+03 0.  0.
         25    2    3    3    0    0  0.37525812917E+01 -0.69622438953E+01 -0.78878577530E+03  0.79865976571E+03  0.12494745834E+03 0.  0.
         25    2    3    3    0    0 -0.37525812917E+01  0.69622438953E+01 -0.33431063770E+03  0.35691106789E+03  0.12473713639E+03 0.  0.
          5    1    4    4  502    0  0.25235520693E+02  0.25293672671E+02 -0.69249866826E+02  0.78065584205E+02  0.47000000000E+01 0.  1.
         -5    1    4    4    0  502 -0.21482939401E+02 -0.32255916566E+02 -0.71953590848E+03  0.72059418151E+03  0.47000000000E+01 0.  1.
          5    1    5    5  503    0  0.42228404268E+02  0.22353864850E+02 -0.53407566026E+02  0.71814981094E+02  0.47000000000E+01 0. -1.
         -5    1    5    5    0  503 -0.45980985560E+02 -0.15391620954E+02 -0.28090307168E+03  0.28509608679E+03  0.47000000000E+01 0. -1.
<mgrwt>
<rscale>  0 0.27202647E+03</rscale>
<asrwt>0</asrwt>
<pdfrwt beam="1">  1        4 0.17528204E+00 0.27202647E+03</pdfrwt>
<pdfrwt beam="2">  1       -4 0.24980331E-02 0.27202647E+03</pdfrwt>
<totfact> 0.28080902E+02</totfact>
</mgrwt>
</event>
<event>
 9    1  0.7926126E-001  0.2723083E+03  0.7818608E-02  0.1099966E+00
          2   -1    0    0  501    0  0.00000000000E+00  0.00000000000E+00  0.22350760507E+03  0.22350760507E+03  0.00000000000E+00 0. -1.
         -2   -1    0    0    0  501 -0.00000000000E+00 -0.00000000000E+00 -0.82941038095E+02  0.82941038095E+02  0.00000000000E+00 0. -1.
         35    2    1    2    0    0  0.00000000000E+00 -0.88817841970E-15  0.14056656697E+03  0.30644864317E+03  0.27230830165E+03 0.  0.
         25    2    3    3    0    0 -0.33238004903E+02 -0.74789080365E+01  0.22804832325E+02  0.13135324328E+03  0.12479148652E+03 0.  0.
         25    2    3    3    0    0  0.33238004903E+02  0.74789080365E+01  0.11776173465E+03  0.17509539988E+03  0.12501949399E+03 0.  0.
          5    1    4    4  502    0  0.17527581157E+02 -0.13399617549E+02  0.62514492647E+02  0.66459894993E+02  0.47000000000E+01 0. -1.
         -5    1    4    4    0  502 -0.50765586060E+02  0.59207095124E+01 -0.39709660322E+02  0.64893348288E+02  0.47000000000E+01 0. -1.
          5    1    5    5  503    0 -0.11656335467E+02  0.93960074331E+01  0.12784421227E+03  0.12880367900E+03  0.47000000000E+01 0. -1.
         -5    1    5    5    0  503  0.44894340370E+02 -0.19170993966E+01 -0.10082477624E+02  0.46291720884E+02  0.47000000000E+01 0. -1.
<mgrwt>
<rscale>  0 0.27230830E+03</rscale>
<asrwt>0</asrwt>
<pdfrwt beam="1">  1        2 0.34385785E-01 0.27230830E+03</pdfrwt>
<pdfrwt beam="2">  1       -2 0.12760160E-01 0.27230830E+03</pdfrwt>
<totfact> 0.66888451E+03</totfact>
</mgrwt>
</event>
<event>
 9    1  0.7926126E-001  0.2721546E+03  0.7818608E-02  0.1100053E+00
          1   -1    0    0  501    0  0.00000000000E+00  0.00000000000E+00  0.15979912849E+02  0.15979912849E+02  0.00000000000E+00 0. -1.
         -1   -1    0    0    0  501 -0.00000000000E+00 -0.00000000000E+00 -0.11587694333E+04  0.11587694333E+04  0.00000000000E+00 0. -1.
         35    2    1    2    0    0  0.71054273576E-14  0.00000000000E+00 -0.11427895205E+04  0.11747493461E+04  0.27215462191E+03 0.  0.
         25    2    3    3    0    0 -0.36232060496E+02 -0.30721885922E+02 -0.69179990945E+03  0.70460169211E+03  0.12497933161E+03 0.  0.
         25    2    3    3    0    0  0.36232060496E+02  0.30721885922E+02 -0.45098961100E+03  0.47014765404E+03  0.12405882025E+03 0.  0.
          5    1    4    4  502    0 -0.26489022943E+02 -0.16697279023E+02 -0.68483994510E+03  0.68557151914E+03  0.47000000000E+01 0. -1.
         -5    1    4    4    0  502 -0.97430375529E+01 -0.14024606899E+02 -0.69599643557E+01  0.19030172969E+02  0.47000000000E+01 0. -1.
          5    1    5    5  503    0  0.69935378487E+02  0.40906123333E+01 -0.38444532649E+03  0.39080428521E+03  0.47000000000E+01 0. -1.
         -5    1    5    5    0  503 -0.33703317992E+02  0.26631273589E+02 -0.66544284507E+02  0.79343368829E+02  0.47000000000E+01 0. -1.
<mgrwt>
<rscale>  0 0.27215462E+03</rscale>
<asrwt>0</asrwt>
<pdfrwt beam="1">  1        1 0.24584478E-02 0.27215462E+03</pdfrwt>
<pdfrwt beam="2">  1       -1 0.17827225E+00 0.27215462E+03</pdfrwt>
<totfact> 0.10615217E+03</totfact>
</mgrwt>
</event>
<event>
 9    1  0.7926126E-001  0.2959655E+03  0.7818608E-02  0.1087275E+00
         -2   -1    0    0    0  501 -0.00000000000E+00  0.00000000000E+00  0.36708287598E+03  0.36708287598E+03  0.00000000000E+00 0.  1.
          2   -1    0    0  501    0  0.00000000000E+00 -0.00000000000E+00 -0.59656528652E+02  0.59656528652E+02  0.00000000000E+00 0.  1.
         35    2    1    2    0    0  0.14210854715E-13  0.00000000000E+00  0.30742634733E+03  0.42673940463E+03  0.29596547169E+03 0.  0.
         25    2    3    3    0    0 -0.53007761684E+02  0.50609368476E+02  0.11079374784E+03  0.18217964732E+03  0.12467172239E+03 0.  0.
         25    2    3    3    0    0  0.53007761684E+02 -0.50609368476E+02  0.19663259949E+03  0.24455975731E+03  0.12559444548E+03 0.  0.
          5    1    4    4  502    0 -0.62363249500E+02 -0.51660355457E+01  0.10855257891E+03  0.12538586523E+03  0.47000000000E+01 0. -1.
         -5    1    4    4    0  502  0.93554878161E+01  0.55775404021E+02  0.22411689250E+01  0.56793782091E+02  0.47000000000E+01 0. -1.
          5    1    5    5  503    0  0.74219417469E+02 -0.12630470441E+02  0.18424048564E+03  0.19908464848E+03  0.47000000000E+01 0. -1.
         -5    1    5    5    0  503 -0.21211655785E+02 -0.37978898034E+02  0.12392113853E+02  0.45475108827E+02  0.47000000000E+01 0. -1.
<mgrwt>
<rscale>  0 0.29596547E+03</rscale>
<asrwt>0</asrwt>
<pdfrwt beam="1">  1        2 0.91779277E-02 0.29596547E+03</pdfrwt>
<pdfrwt beam="2">  1       -2 0.56474287E-01 0.29596547E+03</pdfrwt>
<totfact> 0.21406795E+03</totfact>
</mgrwt>
</event>
<event>
 9    1  0.7926126E-001  0.2745455E+03  0.7818608E-02  0.1098706E+00
          2   -1    0    0  501    0  0.00000000000E+00  0.00000000000E+00  0.29404583238E+03  0.29404583238E+03  0.00000000000E+00 0. -1.
         -2   -1    0    0    0  501 -0.00000000000E+00 -0.00000000000E+00 -0.64084595042E+02  0.64084595042E+02  0.00000000000E+00 0. -1.
         35    2    1    2    0    0 -0.71054273576E-14  0.00000000000E+00  0.22996123734E+03  0.35813042742E+03  0.27454550145E+03 0.  0.
         25    2    3    3    0    0 -0.47066761483E+02 -0.16223229807E+02  0.14814786380E+03  0.20030934580E+03  0.12528994870E+03 0.  0.
         25    2    3    3    0    0  0.47066761483E+02  0.16223229807E+02  0.81813373536E+02  0.15782108162E+03  0.12544158996E+03 0.  0.
          5    1    4    4  502    0  0.14869441291E+02 -0.36711963813E+02  0.12454254981E+03  0.13077387080E+03  0.47000000000E+01 0. -1.
         -5    1    4    4    0  502 -0.61936202775E+02  0.20488734006E+02  0.23605313991E+02  0.69535475003E+02  0.47000000000E+01 0. -1.
          5    1    5    5  503    0  0.31494918348E+02 -0.53751053897E+02  0.30400591259E+02  0.69479433113E+02  0.47000000000E+01 0.  1.
         -5    1    5    5    0  503  0.15571843135E+02  0.69974283705E+02  0.51412782277E+02  0.88341648502E+02  0.47000000000E+01 0.  1.
<mgrwt>
<rscale>  0 0.27454550E+03</rscale>
<asrwt>0</asrwt>
<pdfrwt beam="1">  1        2 0.45237820E-01 0.27454550E+03</pdfrwt>
<pdfrwt beam="2">  1       -2 0.98591686E-02 0.27454550E+03</pdfrwt>
<totfact> 0.75279826E+03</totfact>
</mgrwt>
</event>
<event>
 9    1  0.7926126E-001  0.2749718E+03  0.7818608E-02  0.1098467E+00
         -1   -1    0    0    0  501 -0.00000000000E+00  0.00000000000E+00  0.17657623515E+02  0.17657623515E+02  0.00000000000E+00 0.  1.
          1   -1    0    0  501    0  0.00000000000E+00 -0.00000000000E+00 -0.10704938599E+04  0.10704938599E+04  0.00000000000E+00 0.  1.
         35    2    1    2    0    0 -0.71054273576E-14  0.71054273576E-14 -0.10528362363E+04  0.10881514834E+04  0.27497183530E+03 0.  0.
         25    2    3    3    0    0 -0.31073425252E+02  0.20011440869E+02 -0.35924512726E+03  0.38249555607E+03  0.12601497305E+03 0.  0.
         25    2    3    3    0    0  0.31073425252E+02 -0.20011440869E+02 -0.69359110909E+03  0.70565592730E+03  0.12456181442E+03 0.  0.
          5    1    4    4  502    0  0.11619670150E+02  0.64463805522E+02 -0.13885839195E+03  0.15360449854E+03  0.47000000000E+01 0. -1.
         -5    1    4    4    0  502 -0.42693095402E+02 -0.44452364653E+02 -0.22038673530E+03  0.22889105753E+03  0.47000000000E+01 0. -1.
          5    1    5    5  503    0 -0.44675157371E+02 -0.28150924688E+02 -0.25190258886E+03  0.25742056740E+03  0.47000000000E+01 0.  1.
         -5    1    5    5    0  503  0.75748582623E+02  0.81394838193E+01 -0.44168852022E+03  0.44823535990E+03  0.47000000000E+01 0.  1.
<mgrwt>
<rscale>  0 0.27497184E+03</rscale>
<asrwt>0</asrwt>
<pdfrwt beam="1">  1        1 0.16469136E+00 0.27497184E+03</pdfrwt>
<pdfrwt beam="2">  1       -1 0.27165574E-02 0.27497184E+03</pdfrwt>
<totfact> 0.61902653E+03</totfact>
</mgrwt>
</event>
<event>
 9    1  0.7926126E-001  0.2794708E+03  0.7818608E-02  0.1095978E+00
         -1   -1    0    0    0  501 -0.00000000000E+00  0.00000000000E+00  0.32732979725E+02  0.32732979725E+02  0.00000000000E+00 0.  1.
          1   -1    0    0  501    0  0.00000000000E+00 -0.00000000000E+00 -0.59652300215E+03  0.59652300215E+03  0.00000000000E+00 0.  1.
         35    2    1    2    0    0 -0.71054273576E-14  0.71054273576E-14 -0.56379002242E+03  0.62925598187E+03  0.27947075221E+03 0.  0.
         25    2    3    3    0    0  0.52611446543E+02  0.28182757969E+02 -0.32008875144E+03  0.34887821111E+03  0.12528753026E+03 0.  0.
         25    2    3    3    0    0 -0.52611446543E+02 -0.28182757969E+02 -0.24370127099E+03  0.28037777076E+03  0.12513653624E+03 0.  0.
          5    1    4    4  502    0 -0.10981808970E+02 -0.17310775745E+02 -0.22364359303E+03  0.22463038483E+03  0.47000000000E+01 0.  1.
         -5    1    4    4    0  502  0.63593255513E+02  0.45493533714E+02 -0.96445158410E+02  0.12424782629E+03  0.47000000000E+01 0.  1.
          5    1    5    5  503    0  0.91369104330E+01  0.42978529612E+02 -0.83200392178E+02  0.94207390360E+02  0.47000000000E+01 0.  1.
         -5    1    5    5    0  503 -0.61748356976E+02 -0.71161287581E+02 -0.16050087881E+03  0.18617038040E+03  0.47000000000E+01 0.  1.
<mgrwt>
<rscale>  0 0.27947075E+03</rscale>
<asrwt>0</asrwt>
<pdfrwt beam="1">  1        1 0.91772773E-01 0.27947075E+03</pdfrwt>
<pdfrwt beam="2">  1       -1 0.50358428E-02 0.27947075E+03</pdfrwt>
<totfact> 0.61551318E+03</totfact>
</mgrwt>
</event>
<event>
 9    1  0.7926126E-001  0.2753403E+03  0.7818608E-02  0.1098262E+00
          2   -1    0    0  501    0  0.00000000000E+00  0.00000000000E+00  0.19105055215E+04  0.19105055215E+04  0.00000000000E+00 0.  1.
         -2   -1    0    0    0  501 -0.00000000000E+00 -0.00000000000E+00 -0.99204474840E+01  0.99204474840E+01  0.00000000000E+00 0.  1.
         35    2    1    2    0    0  0.00000000000E+00  0.00000000000E+00  0.19005850740E+04  0.19204259690E+04  0.27534029632E+03 0.  0.
         25    2    3    3    0    0  0.46976845635E+01 -0.43113103315E+02  0.79526353772E+03  0.80708958835E+03  0.13064723985E+03 0.  0.
         25    2    3    3    0    0 -0.46976845635E+01  0.43113103315E+02  0.11053215363E+04  0.11133363807E+04  0.12610071342E+03 0.  0.
          5    1    4    4  502    0 -0.61550566052E+02 -0.33576174298E+02  0.43299418487E+03  0.43865919093E+03  0.47000000000E+01 0. -1.
         -5    1    4    4    0  502  0.66248250615E+02 -0.95369290169E+01  0.36226935285E+03  0.36843039742E+03  0.47000000000E+01 0. -1.
          5    1    5    5  503    0 -0.57667369233E+02 -0.85655021731E+01  0.43118119789E+03  0.43513010551E+03  0.47000000000E+01 0. -1.
         -5    1    5    5    0  503  0.52969684669E+02  0.51678605488E+02  0.67414033842E+03  0.67820627515E+03  0.47000000000E+01 0. -1.
<mgrwt>
<rscale>  0 0.27534030E+03</rscale>
<asrwt>0</asrwt>
<pdfrwt beam="1">  1        2 0.29392363E+00 0.27534030E+03</pdfrwt>
<pdfrwt beam="2">  1       -2 0.15262242E-02 0.27534030E+03</pdfrwt>
<totfact> 0.95237708E+03</totfact>
</mgrwt>
</event>
<event>
 9    1  0.7926126E-001  0.2761247E+03  0.7818608E-02  0.1097825E+00
          1   -1    0    0  501    0  0.00000000000E+00  0.00000000000E+00  0.14262263155E+03  0.14262263155E+03  0.00000000000E+00 0.  1.
         -1   -1    0    0    0  501 -0.00000000000E+00 -0.00000000000E+00 -0.13364791946E+03  0.13364791946E+03  0.00000000000E+00 0.  1.
         35    2    1    2    0    0 -0.35527136788E-14  0.00000000000E+00  0.89747120939E+01  0.27627055101E+03  0.27612473974E+03 0.  0.
         25    2    3    3    0    0  0.14331541997E+02 -0.36112165296E+02 -0.44074512244E+02  0.13497311755E+03  0.12151418951E+03 0.  0.
         25    2    3    3    0    0 -0.14331541997E+02  0.36112165296E+02  0.53049224338E+02  0.14129743346E+03  0.12506503477E+03 0.  0.
          5    1    4    4  502    0  0.44847333486E+02 -0.17062455612E+02 -0.73744343820E+02  0.88106350269E+02  0.47000000000E+01 0.  1.
         -5    1    4    4    0  502 -0.30515791489E+02 -0.19049709684E+02  0.29669831576E+02  0.46866767277E+02  0.47000000000E+01 0.  1.
          5    1    5    5  503    0 -0.29569164671E+02 -0.40800643110E+02  0.32363366532E+02  0.60070837108E+02  0.47000000000E+01 0. -1.
         -5    1    5    5    0  503  0.15237622674E+02  0.76912808406E+02  0.20685857806E+02  0.81226596352E+02  0.47000000000E+01 0. -1.
<mgrwt>
<rscale>  0 0.27612474E+03</rscale>
<asrwt>0</asrwt>
<pdfrwt beam="1">  1        1 0.21941943E-01 0.27612474E+03</pdfrwt>
<pdfrwt beam="2">  1       -1 0.20561218E-01 0.27612474E+03</pdfrwt>
<totfact> 0.43357964E+03</totfact>
</mgrwt>
</event>
<event>
 9    1  0.7926126E-001  0.2737005E+03  0.7818608E-02  0.1099180E+00
          4   -1    0    0  501    0  0.00000000000E+00  0.00000000000E+00  0.29881558684E+02  0.29881558684E+02  0.00000000000E+00 0. -1.
         -4   -1    0    0    0  501 -0.00000000000E+00 -0.00000000000E+00 -0.62674073855E+03  0.62674073855E+03  0.00000000000E+00 0. -1.
         35    2    1    2    0    0 -0.14210854715E-13  0.00000000000E+00 -0.59685917987E+03  0.65662229724E+03  0.27370049440E+03 0.  0.
         25    2    3    3    0    0 -0.54146718508E+02 -0.25687676985E+02 -0.36342148571E+03  0.38520125065E+03  0.11275239846E+03 0.  0.
         25    2    3    3    0    0  0.54146718508E+02  0.25687676985E+02 -0.23343769416E+03  0.27142104658E+03  0.12483790930E+03 0.  0.
          5    1    4    4  502    0  0.16042409329E+02 -0.47759012841E+02 -0.10648238426E+03  0.11789347040E+03  0.47000000000E+01 0.  1.
         -5    1    4    4    0  502 -0.70189127837E+02  0.22071335857E+02 -0.25693910145E+03  0.26730778026E+03  0.47000000000E+01 0.  1.
          5    1    5    5  503    0  0.45893937705E+02 -0.65048920575E+01 -0.12899126581E+02  0.48342989206E+02  0.47000000000E+01 0.  1.
         -5    1    5    5    0  503  0.82527808023E+01  0.32192569042E+02 -0.22053856758E+03  0.22307805738E+03  0.47000000000E+01 0.  1.
<mgrwt>
<rscale>  0 0.27370049E+03</rscale>
<asrwt>0</asrwt>
<pdfrwt beam="1">  1        4 0.45971631E-02 0.27370049E+03</pdfrwt>
<pdfrwt beam="2">  1       -4 0.96421646E-01 0.27370049E+03</pdfrwt>
<totfact> 0.47577728E+02</totfact>
</mgrwt>
</event>
<event>
 9    1  0.7926126E-001  0.2776109E+03  0.7818608E-02  0.1097001E+00
          1   -1    0    0  501    0  0.00000000000E+00  0.00000000000E+00  0.72012949469E+03  0.72012949469E+03  0.00000000000E+00 0. -1.
         -1   -1    0    0    0  501 -0.00000000000E+00 -0.00000000000E+00 -0.26754845458E+02  0.26754845458E+02  0.00000000000E+00 0. -1.
         35    2    1    2    0    0  0.00000000000E+00  0.00000000000E+00  0.69337464923E+03  0.74688434015E+03  0.27761090281E+03 0.  0.
         25    2    3    3    0    0 -0.47040623762E+02  0.10666667833E+02  0.26554971074E+03  0.29740863456E+03  0.12493457869E+03 0.  0.
         25    2    3    3    0    0  0.47040623762E+02 -0.10666667833E+02  0.42782493849E+03  0.44947570559E+03  0.12910319062E+03 0.  0.
          5    1    4    4  502    0 -0.72614133048E+02 -0.35476316300E+02  0.16167920217E+03  0.18081381515E+03  0.47000000000E+01 0.  1.
         -5    1    4    4    0  502  0.25573509286E+02  0.46142984133E+02  0.10387050857E+03  0.11659481940E+03  0.47000000000E+01 0.  1.
          5    1    5    5  503    0  0.78915074314E+02 -0.26332393464E+02  0.38367485859E+03  0.39261873492E+03  0.47000000000E+01 0.  1.
         -5    1    5    5    0  503 -0.31874450552E+02  0.15665725631E+02  0.44150079907E+02  0.56856970666E+02  0.47000000000E+01 0.  1.
<mgrwt>
<rscale>  0 0.27761090E+03</rscale>
<asrwt>0</asrwt>
<pdfrwt beam="1">  1        1 0.11078914E+00 0.27761090E+03</pdfrwt>
<pdfrwt beam="2">  1       -1 0.41161306E-02 0.27761090E+03</pdfrwt>
<totfact> 0.63554957E+03</totfact>
</mgrwt>
</event>
<event>
 9    1  0.7926126E-001  0.2691184E+03  0.7818608E-02  0.1101785E+00
         -1   -1    0    0    0  501 -0.00000000000E+00  0.00000000000E+00  0.10904762591E+04  0.10904762591E+04  0.00000000000E+00 0. -1.
          1   -1    0    0  501    0  0.00000000000E+00 -0.00000000000E+00 -0.16603918016E+02  0.16603918016E+02  0.00000000000E+00 0. -1.
         35    2    1    2    0    0  0.00000000000E+00  0.00000000000E+00  0.10738723411E+04  0.11070801771E+04  0.26911840075E+03 0.  0.
         25    2    3    3    0    0 -0.49652351910E+02 -0.13567338072E+02  0.53684212227E+03  0.55330313856E+03  0.12367485674E+03 0.  0.
         25    2    3    3    0    0  0.49652351910E+02  0.13567338072E+02  0.53703021884E+03  0.55377703858E+03  0.12497249216E+03 0.  0.
          5    1    4    4  502    0 -0.77929375713E+02 -0.46044299914E+02  0.36504261238E+03  0.37612665952E+03  0.47000000000E+01 0. -1.
         -5    1    4    4    0  502  0.28277023803E+02  0.32476961842E+02  0.17179950989E+03  0.17717647904E+03  0.47000000000E+01 0. -1.
          5    1    5    5  503    0  0.17789742995E+02 -0.39014447064E+02  0.41318334829E+03  0.41542890047E+03  0.47000000000E+01 0. -1.
         -5    1    5    5    0  503  0.31862608915E+02  0.52581785136E+02  0.12384687055E+03  0.13834813811E+03  0.47000000000E+01 0. -1.
<mgrwt>
<rscale>  0 0.26911840E+03</rscale>
<asrwt>0</asrwt>
<pdfrwt beam="1">  1        1 0.25544498E-02 0.26911840E+03</pdfrwt>
<pdfrwt beam="2">  1       -1 0.16776552E+00 0.26911840E+03</pdfrwt>
<totfact> 0.11937331E+03</totfact>
</mgrwt>
</event>
<event>
 9    1  0.7926126E-001  0.2766001E+03  0.7818608E-02  0.1097561E+00
          2   -1    0    0  501    0  0.00000000000E+00  0.00000000000E+00  0.20515917733E+04  0.20515917733E+04  0.00000000000E+00 0. -1.
         -2   -1    0    0    0  501 -0.00000000000E+00 -0.00000000000E+00 -0.93229579365E+01  0.93229579365E+01  0.00000000000E+00 0. -1.
         35    2    1    2    0    0  0.00000000000E+00  0.35527136788E-14  0.20422688154E+04  0.20609147312E+04  0.27660009982E+03 0.  0.
         25    2    3    3    0    0 -0.18639709091E+02 -0.12134304482E+02  0.60118624579E+03  0.61420321511E+03  0.12379825214E+03 0.  0.
         25    2    3    3    0    0  0.18639709091E+02  0.12134304482E+02  0.14410825696E+04  0.14467115161E+04  0.12554106277E+03 0.  0.
          5    1    4    4  502    0  0.31268955988E+01 -0.30612128710E+02  0.57287715264E+03  0.57372223411E+03  0.47000000000E+01 0. -1.
         -5    1    4    4    0  502 -0.21766604690E+02  0.18477824228E+02  0.28309093145E+02  0.40480980999E+02  0.47000000000E+01 0. -1.
          5    1    5    5  503    0  0.24209914300E+02  0.59677241698E+02  0.46711179265E+03  0.47155382510E+03  0.47000000000E+01 0. -1.
         -5    1    5    5    0  503 -0.55702052088E+01 -0.47542937215E+02  0.97397077692E+03  0.97515769102E+03  0.47000000000E+01 0. -1.
<mgrwt>
<rscale>  0 0.27660010E+03</rscale>
<asrwt>0</asrwt>
<pdfrwt beam="1">  1        2 0.31562914E+00 0.27660010E+03</pdfrwt>
<pdfrwt beam="2">  1       -2 0.14343029E-02 0.27660010E+03</pdfrwt>
<totfact> 0.87917658E+03</totfact>
</mgrwt>
</event>
<event>
 9    1  0.7926126E-001  0.2761612E+03  0.7818608E-02  0.1097804E+00
          1   -1    0    0  501    0  0.00000000000E+00  0.00000000000E+00  0.72329991607E+03  0.72329991607E+03  0.00000000000E+00 0.  1.
         -1   -1    0    0    0  501 -0.00000000000E+00 -0.00000000000E+00 -0.26360082310E+02  0.26360082310E+02  0.00000000000E+00 0.  1.
         35    2    1    2    0    0  0.00000000000E+00  0.00000000000E+00  0.69693983376E+03  0.74965999838E+03  0.27616115094E+03 0.  0.
         25    2    3    3    0    0  0.49534201744E+02  0.27642714112E+02  0.39466457074E+03  0.41791364144E+03  0.12519557308E+03 0.  0.
         25    2    3    3    0    0 -0.49534201744E+02 -0.27642714112E+02  0.30227526302E+03  0.33174635694E+03  0.12436862113E+03 0.  0.
          5    1    4    4  502    0  0.21347689107E+02 -0.37574003298E+02  0.51283485934E+02  0.67228085527E+02  0.47000000000E+01 0. -1.
         -5    1    4    4    0  502  0.28186512637E+02  0.65216717410E+02  0.34338108481E+03  0.35068555592E+03  0.47000000000E+01 0. -1.
          5    1    5    5  503    0 -0.45773311670E+02  0.39725107010E+02  0.20076865299E+03  0.20976992685E+03  0.47000000000E+01 0.  1.
         -5    1    5    5    0  503 -0.37608900737E+01 -0.67367821122E+02  0.10150661003E+03  0.12197643009E+03  0.47000000000E+01 0.  1.
<mgrwt>
<rscale>  0 0.27616115E+03</rscale>
<asrwt>0</asrwt>
<pdfrwt beam="1">  1        1 0.11127689E+00 0.27616115E+03</pdfrwt>
<pdfrwt beam="2">  1       -1 0.40553978E-02 0.27616115E+03</pdfrwt>
<totfact> 0.64547802E+03</totfact>
</mgrwt>
</event>
<event>
 9    1  0.7926126E-001  0.2737657E+03  0.7818608E-02  0.1099144E+00
         -2   -1    0    0    0  501 -0.00000000000E+00  0.00000000000E+00  0.11637297318E+02  0.11637297318E+02  0.00000000000E+00 0. -1.
          2   -1    0    0  501    0  0.00000000000E+00 -0.00000000000E+00 -0.16100740165E+04  0.16100740165E+04  0.00000000000E+00 0. -1.
         35    2    1    2    0    0  0.00000000000E+00  0.00000000000E+00 -0.15984367192E+04  0.16217113138E+04  0.27376566646E+03 0.  0.
         25    2    3    3    0    0 -0.19591476998E+02 -0.40260576143E+02 -0.60161471024E+03  0.61622918238E+03  0.12567181733E+03 0.  0.
         25    2    3    3    0    0  0.19591476998E+02  0.40260576143E+02 -0.99682200895E+03  0.10054821315E+04  0.12383642104E+03 0.  0.
          5    1    4    4  502    0  0.28424666607E+02 -0.55157523940E+02 -0.48732951339E+03  0.49128653425E+03  0.47000000000E+01 0.  1.
         -5    1    4    4    0  502 -0.48016143605E+02  0.14896947797E+02 -0.11428519685E+03  0.12494264812E+03  0.47000000000E+01 0.  1.
          5    1    5    5  503    0  0.66451219291E+02 -0.43324608574E+01 -0.52163165875E+03  0.52588612092E+03  0.47000000000E+01 0.  1.
         -5    1    5    5    0  503 -0.46859742293E+02  0.44593037000E+02 -0.47519035020E+03  0.47959601053E+03  0.47000000000E+01 0.  1.
<mgrwt>
<rscale>  0 0.27376567E+03</rscale>
<asrwt>0</asrwt>
<pdfrwt beam="1">  1        2 0.24770376E+00 0.27376567E+03</pdfrwt>
<pdfrwt beam="2">  1       -2 0.17903529E-02 0.27376567E+03</pdfrwt>
<totfact> 0.10845064E+04</totfact>
</mgrwt>
</event>
<event>
 9    1  0.7926126E-001  0.2767703E+03  0.7818608E-02  0.1097466E+00
         -3   -1    0    0    0  501 -0.00000000000E+00  0.00000000000E+00  0.30855669268E+04  0.30855669268E+04  0.00000000000E+00 0. -1.
          3   -1    0    0  501    0  0.00000000000E+00 -0.00000000000E+00 -0.62064596249E+01  0.62064596249E+01  0.00000000000E+00 0. -1.
         35    2    1    2    0    0  0.00000000000E+00  0.71054273576E-14  0.30793604672E+04  0.30917733864E+04  0.27677027695E+03 0.  0.
         25    2    3    3    0    0  0.20209947557E+02  0.54940917802E+02  0.15026568867E+04  0.15090007639E+04  0.12521437560E+03 0.  0.
         25    2    3    3    0    0 -0.20209947557E+02 -0.54940917802E+02  0.15767035805E+04  0.15827726225E+04  0.12549122487E+03 0.  0.
          5    1    4    4  502    0 -0.31986439536E+02 -0.23764463044E+02  0.61901040703E+03  0.62030948407E+03  0.47000000000E+01 0.  1.
         -5    1    4    4    0  502  0.52196387093E+02  0.78705380846E+02  0.88364647968E+03  0.88869127984E+03  0.47000000000E+01 0.  1.
          5    1    5    5  503    0 -0.62246824631E+02 -0.39977388655E+02  0.13270889161E+04  0.13291576054E+04  0.47000000000E+01 0.  1.
         -5    1    5    5    0  503  0.42036877074E+02 -0.14963529147E+02  0.24961466439E+03  0.25361501713E+03  0.47000000000E+01 0.  1.
<mgrwt>
<rscale>  0 0.27677028E+03</rscale>
<asrwt>0</asrwt>
<pdfrwt beam="1">  1        3 0.95484241E-03 0.27677028E+03</pdfrwt>
<pdfrwt beam="2">  1       -3 0.47470138E+00 0.27677028E+03</pdfrwt>
<totfact> 0.38355538E+01</totfact>
</mgrwt>
</event>
<event>
 9    1  0.7926126E-001  0.2860521E+03  0.7818608E-02  0.1092429E+00
         -3   -1    0    0    0  501 -0.00000000000E+00  0.00000000000E+00  0.67698789962E+03  0.67698789962E+03  0.00000000000E+00 0.  1.
          3   -1    0    0  501    0  0.00000000000E+00 -0.00000000000E+00 -0.30216865401E+02  0.30216865401E+02  0.00000000000E+00 0.  1.
         35    2    1    2    0    0  0.71054273576E-14  0.00000000000E+00  0.64677103422E+03  0.70720476502E+03  0.28605210882E+03 0.  0.
         25    2    3    3    0    0  0.55261969478E+02 -0.20170296939E+02  0.21412397931E+03  0.25341279130E+03  0.12209929618E+03 0.  0.
         25    2    3    3    0    0 -0.55261969478E+02  0.20170296939E+02  0.43264705491E+03  0.45379197372E+03  0.12362424982E+03 0.  0.
          5    1    4    4  502    0 -0.13458986439E+02 -0.16708620216E+02 -0.59741811750E+01  0.22761879233E+02  0.47000000000E+01 0.  1.
         -5    1    4    4    0  502  0.68720955917E+02 -0.34616767230E+01  0.22009816048E+03  0.23065091206E+03  0.47000000000E+01 0.  1.
          5    1    5    5  503    0 -0.24627425185E+02  0.13122911342E+02  0.10093615912E+02  0.30044832426E+02  0.47000000000E+01 0.  1.
         -5    1    5    5    0  503 -0.30634544293E+02  0.70473855973E+01  0.42255343900E+03  0.42374714130E+03  0.47000000000E+01 0.  1.
<mgrwt>
<rscale>  0 0.28605211E+03</rscale>
<asrwt>0</asrwt>
<pdfrwt beam="1">  1        3 0.46487490E-02 0.28605211E+03</pdfrwt>
<pdfrwt beam="2">  1       -3 0.10415197E+00 0.28605211E+03</pdfrwt>
<totfact> 0.53697143E+02</totfact>
</mgrwt>
</event>
<event>
 9    1  0.7926126E-001  0.2751833E+03  0.7818608E-02  0.1098349E+00
         -1   -1    0    0    0  501 -0.00000000000E+00  0.00000000000E+00  0.29999737186E+02  0.29999737186E+02  0.00000000000E+00 0. -1.
          1   -1    0    0  501    0  0.00000000000E+00 -0.00000000000E+00 -0.63105433496E+03  0.63105433496E+03  0.00000000000E+00 0. -1.
         35    2    1    2    0    0  0.00000000000E+00  0.00000000000E+00 -0.60105459777E+03  0.66105407214E+03  0.27518331489E+03 0.  0.
         25    2    3    3    0    0 -0.42391317007E+02 -0.36273459470E+02 -0.29944498791E+03  0.32931175281E+03  0.12516446035E+03 0.  0.
         25    2    3    3    0    0  0.42391317007E+02  0.36273459470E+02 -0.30160960986E+03  0.33174231933E+03  0.12637967422E+03 0.  0.
          5    1    4    4  502    0 -0.37191681176E+02  0.35986081278E+02 -0.61377446882E+02  0.80420769582E+02  0.47000000000E+01 0.  1.
         -5    1    4    4    0  502 -0.51996358309E+01 -0.72259540747E+02 -0.23806754103E+03  0.24889098323E+03  0.47000000000E+01 0.  1.
          5    1    5    5  503    0 -0.31176863267E+02  0.18344711600E+02 -0.20835905895E+03  0.21152804233E+03  0.47000000000E+01 0.  1.
         -5    1    5    5    0  503  0.73568180274E+02  0.17928747870E+02 -0.93250550910E+02  0.12021427700E+03  0.47000000000E+01 0.  1.
<mgrwt>
<rscale>  0 0.27518331E+03</rscale>
<asrwt>0</asrwt>
<pdfrwt beam="1">  1        1 0.97085288E-01 0.27518331E+03</pdfrwt>
<pdfrwt beam="2">  1       -1 0.46153439E-02 0.27518331E+03</pdfrwt>
<totfact> 0.64796174E+03</totfact>
</mgrwt>
</event>
<event>
 9    1  0.7926126E-001  0.2862751E+03  0.7818608E-02  0.1092310E+00
          3   -1    0    0  501    0  0.00000000000E+00  0.00000000000E+00  0.32340264170E+03  0.32340264170E+03  0.00000000000E+00 0. -1.
         -3   -1    0    0    0  501 -0.00000000000E+00 -0.00000000000E+00 -0.63352469583E+02  0.63352469583E+02  0.00000000000E+00 0. -1.
         35    2    1    2    0    0  0.00000000000E+00  0.00000000000E+00  0.26005017212E+03  0.38675511128E+03  0.28627508464E+03 0.  0.
         25    2    3    3    0    0 -0.17437117316E+02 -0.68179458359E+02  0.13151533317E+03  0.19465838583E+03  0.12507242987E+03 0.  0.
         25    2    3    3    0    0  0.17437117316E+02  0.68179458359E+02  0.12853483895E+03  0.19209672545E+03  0.12420730858E+03 0.  0.
          5    1    4    4  502    0 -0.32318589806E+01 -0.54638643550E+02  0.15455659035E+03  0.16402943608E+03  0.47000000000E+01 0. -1.
         -5    1    4    4    0  502 -0.14205258336E+02 -0.13540814809E+02 -0.23041257181E+02  0.30628949747E+02  0.47000000000E+01 0. -1.
          5    1    5    5  503    0  0.37969209683E+02 -0.55699725214E+01  0.10496428938E+03  0.11185829215E+03  0.47000000000E+01 0.  1.
         -5    1    5    5    0  503 -0.20532092367E+02  0.73749430881E+02  0.23570549573E+02  0.80238433306E+02  0.47000000000E+01 0.  1.
<mgrwt>
<rscale>  0 0.28627508E+03</rscale>
<asrwt>0</asrwt>
<pdfrwt beam="1">  1        3 0.49754252E-01 0.28627508E+03</pdfrwt>
<pdfrwt beam="2">  1       -3 0.97465340E-02 0.28627508E+03</pdfrwt>
<totfact> 0.79323357E+02</totfact>
</mgrwt>
</event>
<event>
 9    1  0.7926126E-001  0.2738244E+03  0.7818608E-02  0.1099111E+00
          2   -1    0    0  501    0  0.00000000000E+00  0.00000000000E+00  0.23455647470E+04  0.23455647470E+04  0.00000000000E+00 0. -1.
         -2   -1    0    0    0  501 -0.00000000000E+00 -0.00000000000E+00 -0.79916568684E+01  0.79916568684E+01  0.00000000000E+00 0. -1.
         35    2    1    2    0    0  0.35527136788E-14 -0.71054273576E-14  0.23375730901E+04  0.23535564038E+04  0.27382438621E+03 0.  0.
         25    2    3    3    0    0  0.20513498296E+02  0.52877247420E+02  0.12075748350E+04  0.12153550408E+04  0.12503633911E+03 0.  0.
         25    2    3    3    0    0 -0.20513498296E+02 -0.52877247420E+02  0.11299982551E+04  0.11382013630E+04  0.12405434070E+03 0.  0.
          5    1    4    4  502    0 -0.51594647030E+02  0.25999435359E+02  0.62914447923E+03  0.63180918321E+03  0.47000000000E+01 0.  1.
         -5    1    4    4    0  502  0.72108145326E+02  0.26877812061E+02  0.57843035580E+03  0.58354585760E+03  0.47000000000E+01 0.  1.
          5    1    5    5  503    0  0.20564068896E+02  0.23383870730E+02  0.62603219812E+03  0.62682381051E+03  0.47000000000E+01 0.  1.
         -5    1    5    5    0  503 -0.41077567192E+02 -0.76261118150E+02  0.50396605694E+03  0.51137755252E+03  0.47000000000E+01 0.  1.
<mgrwt>
<rscale>  0 0.27382439E+03</rscale>
<asrwt>0</asrwt>
<pdfrwt beam="1">  1        2 0.36085557E+00 0.27382439E+03</pdfrwt>
<pdfrwt beam="2">  1       -2 0.12294875E-02 0.27382439E+03</pdfrwt>
<totfact> 0.76781708E+03</totfact>
</mgrwt>
</event>
<event>
 9    1  0.7926126E-001  0.2739948E+03  0.7818608E-02  0.1099015E+00
         -1   -1    0    0    0  501 -0.00000000000E+00  0.00000000000E+00  0.25712507821E+03  0.25712507821E+03  0.00000000000E+00 0.  1.
          1   -1    0    0  501    0  0.00000000000E+00 -0.00000000000E+00 -0.72992810877E+02  0.72992810877E+02  0.00000000000E+00 0.  1.
         35    2    1    2    0    0  0.14210854715E-13 -0.35527136788E-14  0.18413226733E+03  0.33011788908E+03  0.27399476057E+03 0.  0.
         25    2    3    3    0    0 -0.44135930689E+02  0.23564643917E+02  0.12348870525E+03  0.18235045187E+03  0.12449479569E+03 0.  0.
         25    2    3    3    0    0  0.44135930689E+02 -0.23564643917E+02  0.60643562081E+02  0.14776743721E+03  0.12511714933E+03 0.  0.
          5    1    4    4  502    0  0.11380220598E+02  0.17419830011E+02 -0.19416596024E+02  0.28845347972E+02  0.47000000000E+01 0.  1.
         -5    1    4    4    0  502 -0.55516151287E+02  0.61448139064E+01  0.14290530127E+03  0.15350510390E+03  0.47000000000E+01 0.  1.
          5    1    5    5  503    0 -0.31325231152E+02 -0.24057932879E+02 -0.13369218760E+02  0.41962843700E+02  0.47000000000E+01 0. -1.
         -5    1    5    5    0  503  0.75461161841E+02  0.49328896186E+00  0.74012780841E+02  0.10580459351E+03  0.47000000000E+01 0. -1.
<mgrwt>
<rscale>  0 0.27399476E+03</rscale>
<asrwt>0</asrwt>
<pdfrwt beam="1">  1        1 0.11229663E-01 0.27399476E+03</pdfrwt>
<pdfrwt beam="2">  1       -1 0.39557704E-01 0.27399476E+03</pdfrwt>
<totfact> 0.34383214E+03</totfact>
</mgrwt>
</event>
<event>
 9    1  0.7926126E-001  0.2668280E+03  0.7818608E-02  0.1103109E+00
         -1   -1    0    0    0  501 -0.00000000000E+00  0.00000000000E+00  0.12069022713E+04  0.12069022713E+04  0.00000000000E+00 0. -1.
          1   -1    0    0  501    0  0.00000000000E+00 -0.00000000000E+00 -0.14747915697E+02  0.14747915697E+02  0.00000000000E+00 0. -1.
         35    2    1    2    0    0  0.00000000000E+00 -0.71054273576E-14  0.11921543556E+04  0.12216501870E+04  0.26682798169E+03 0.  0.
         25    2    3    3    0    0  0.33468150379E+02  0.32887818042E+02  0.57803727207E+03  0.59340058821E+03  0.12567992887E+03 0.  0.
         25    2    3    3    0    0 -0.33468150379E+02 -0.32887818042E+02  0.61411708357E+03  0.62824959882E+03  0.12391949171E+03 0.  0.
          5    1    4    4  502    0  0.62389039816E+00  0.77628184950E+02  0.30689491747E+03  0.31659612238E+03  0.47000000000E+01 0.  1.
         -5    1    4    4    0  502  0.32844259981E+02 -0.44740366908E+02  0.27114235461E+03  0.27680446583E+03  0.47000000000E+01 0.  1.
          5    1    5    5  503    0 -0.31835128460E+02 -0.39616094129E+02  0.85564232891E+02  0.99630508723E+02  0.47000000000E+01 0. -1.
         -5    1    5    5    0  503 -0.16330219187E+01  0.67282760875E+01  0.52855285068E+03  0.52861909010E+03  0.47000000000E+01 0. -1.
<mgrwt>
<rscale>  0 0.26682798E+03</rscale>
<asrwt>0</asrwt>
<pdfrwt beam="1">  1        1 0.22689111E-02 0.26682798E+03</pdfrwt>
<pdfrwt beam="2">  1       -1 0.18567719E+00 0.26682798E+03</pdfrwt>
<totfact> 0.10559316E+03</totfact>
</mgrwt>
</event>
<event>
 9    1  0.7926126E-001  0.2739116E+03  0.7818608E-02  0.1099062E+00
         -2   -1    0    0    0  501 -0.00000000000E+00  0.00000000000E+00  0.61377853827E+01  0.61377853827E+01  0.00000000000E+00 0. -1.
          2   -1    0    0  501    0  0.00000000000E+00 -0.00000000000E+00 -0.30559694030E+04  0.30559694030E+04  0.00000000000E+00 0. -1.
         35    2    1    2    0    0 -0.35527136788E-14  0.00000000000E+00 -0.30498316176E+04  0.30621071884E+04  0.27391155019E+03 0.  0.
         25    2    3    3    0    0  0.21814253557E+02 -0.12408399597E+01 -0.20911863948E+04  0.20950418666E+04  0.12514984366E+03 0.  0.
         25    2    3    3    0    0 -0.21814253557E+02  0.12408399597E+01 -0.95864522278E+03  0.96706532182E+03  0.12544828480E+03 0.  0.
          5    1    4    4  502    0  0.65352069984E+02 -0.30158242613E+02 -0.10024764679E+04  0.10050679437E+04  0.47000000000E+01 0. -1.
         -5    1    4    4    0  502 -0.43537816428E+02  0.28917402654E+02 -0.10887099269E+04  0.10899739229E+04  0.47000000000E+01 0. -1.
          5    1    5    5  503    0 -0.28691694633E+02 -0.44242865783E+02 -0.80180226567E+03  0.80354813655E+03  0.47000000000E+01 0. -1.
         -5    1    5    5    0  503  0.68774410768E+01  0.45483705743E+02 -0.15684295711E+03  0.16351718527E+03  0.47000000000E+01 0. -1.
<mgrwt>
<rscale>  0 0.27391155E+03</rscale>
<asrwt>0</asrwt>
<pdfrwt beam="1">  1        2 0.47014826E+00 0.27391155E+03</pdfrwt>
<pdfrwt beam="2">  1       -2 0.94427645E-03 0.27391155E+03</pdfrwt>
<totfact> 0.44717043E+03</totfact>
</mgrwt>
</event>
<event>
 9    1  0.7926126E-001  0.2727784E+03  0.7818608E-02  0.1099700E+00
         -1   -1    0    0    0  501 -0.00000000000E+00  0.00000000000E+00  0.11286392593E+02  0.11286392593E+02  0.00000000000E+00 0.  1.
          1   -1    0    0  501    0  0.00000000000E+00 -0.00000000000E+00 -0.16481807601E+04  0.16481807601E+04  0.00000000000E+00 0.  1.
         35    2    1    2    0    0 -0.35527136788E-14 -0.14210854715E-13 -0.16368943675E+04  0.16594671527E+04  0.27277840913E+03 0.  0.
         25    2    3    3    0    0 -0.13760188641E+02 -0.49780236900E+02 -0.70315034072E+03  0.71570361172E+03  0.12306032422E+03 0.  0.
         25    2    3    3    0    0  0.13760188641E+02  0.49780236900E+02 -0.93374402681E+03  0.94376354099E+03  0.12706021774E+03 0.  0.
          5    1    4    4  502    0  0.15023399626E+02  0.35894245501E+02 -0.29810587734E+03  0.30067142115E+03  0.47000000000E+01 0.  1.
         -5    1    4    4    0  502 -0.28783588267E+02 -0.85674482400E+02 -0.40504446339E+03  0.41503219057E+03  0.47000000000E+01 0.  1.
          5    1    5    5  503    0 -0.32967992595E+02  0.74338439117E+02 -0.47066515213E+03  0.47766187569E+03  0.47000000000E+01 0. -1.
         -5    1    5    5    0  503  0.46728181236E+02 -0.24558202218E+02 -0.46307887468E+03  0.46610166530E+03  0.47000000000E+01 0. -1.
<mgrwt>
<rscale>  0 0.27277841E+03</rscale>
<asrwt>0</asrwt>
<pdfrwt beam="1">  1        1 0.25356618E+00 0.27277841E+03</pdfrwt>
<pdfrwt beam="2">  1       -1 0.17363687E-02 0.27277841E+03</pdfrwt>
<totfact> 0.48187907E+03</totfact>
</mgrwt>
</event>
<event>
 9    1  0.7926126E-001  0.2746338E+03  0.7818608E-02  0.1098656E+00
          1   -1    0    0  501    0  0.00000000000E+00  0.00000000000E+00  0.15493828406E+03  0.15493828406E+03  0.00000000000E+00 0.  1.
         -1   -1    0    0    0  501 -0.00000000000E+00 -0.00000000000E+00 -0.12169963289E+03  0.12169963289E+03  0.00000000000E+00 0.  1.
         35    2    1    2    0    0  0.00000000000E+00  0.17763568394E-14  0.33238651168E+02  0.27663791695E+03  0.27463380922E+03 0.  0.
         25    2    3    3    0    0  0.26420201970E+02 -0.15979132865E+02 -0.32298136163E+02  0.13203262900E+03  0.12424204507E+03 0.  0.
         25    2    3    3    0    0 -0.26420201970E+02  0.15979132865E+02  0.65536787331E+02  0.14460528795E+03  0.12514894746E+03 0.  0.
          5    1    4    4  502    0 -0.43042698181E+02 -0.33766878212E+02 -0.48940748733E+01  0.55126381160E+02  0.47000000000E+01 0.  1.
         -5    1    4    4    0  502  0.69462900151E+02  0.17787745346E+02 -0.27404061290E+02  0.76906247842E+02  0.47000000000E+01 0.  1.
          5    1    5    5  503    0 -0.54034169859E+02  0.81462434667E+01 -0.16735509723E+02  0.57343003764E+02  0.47000000000E+01 0. -1.
         -5    1    5    5    0  503  0.27613967889E+02  0.78328893987E+01  0.82272297054E+02  0.87262284187E+02  0.47000000000E+01 0. -1.
<mgrwt>
<rscale>  0 0.27463381E+03</rscale>
<asrwt>0</asrwt>
<pdfrwt beam="1">  1        1 0.23836659E-01 0.27463381E+03</pdfrwt>
<pdfrwt beam="2">  1       -1 0.18723020E-01 0.27463381E+03</pdfrwt>
<totfact> 0.45395150E+03</totfact>
</mgrwt>
</event>
<event>
 9    1  0.7926126E-001  0.2788413E+03  0.7818608E-02  0.1096324E+00
          2   -1    0    0  501    0  0.00000000000E+00  0.00000000000E+00  0.53252967444E+03  0.53252967444E+03  0.00000000000E+00 0. -1.
         -2   -1    0    0    0  501 -0.00000000000E+00 -0.00000000000E+00 -0.36501463639E+02  0.36501463639E+02  0.00000000000E+00 0. -1.
         35    2    1    2    0    0  0.35527136788E-14  0.71054273576E-14  0.49602821080E+03  0.56903113808E+03  0.27884126343E+03 0.  0.
         25    2    3    3    0    0 -0.20600223508E+02  0.55125241110E+02  0.18328653920E+03  0.22925387298E+03  0.12449988518E+03 0.  0.
         25    2    3    3    0    0  0.20600223508E+02 -0.55125241110E+02  0.31274167160E+03  0.33977726510E+03  0.11907172336E+03 0.  0.
          5    1    4    4  502    0 -0.42714002030E+02 -0.90843761395E+01  0.12907189579E+02  0.45778787687E+02  0.47000000000E+01 0. -1.
         -5    1    4    4    0  502  0.22113778522E+02  0.64209617249E+02  0.17037934962E+03  0.18347508529E+03  0.47000000000E+01 0. -1.
          5    1    5    5  503    0  0.34306243435E+02 -0.20052896363E+02  0.29532553122E+03  0.29802398625E+03  0.47000000000E+01 0. -1.
         -5    1    5    5    0  503 -0.13706019927E+02 -0.35072344747E+02  0.17416140382E+02  0.41753278842E+02  0.47000000000E+01 0. -1.
<mgrwt>
<rscale>  0 0.27884126E+03</rscale>
<asrwt>0</asrwt>
<pdfrwt beam="1">  1        2 0.81927636E-01 0.27884126E+03</pdfrwt>
<pdfrwt beam="2">  1       -2 0.56156102E-02 0.27884126E+03</pdfrwt>
<totfact> 0.94514333E+03</totfact>
</mgrwt>
</event>
<event>
 9    1  0.7926126E-001  0.2699028E+03  0.7818608E-02  0.1101335E+00
         -2   -1    0    0    0  501 -0.00000000000E+00  0.00000000000E+00  0.81209993738E+01  0.81209993738E+01  0.00000000000E+00 0. -1.
          2   -1    0    0  501    0  0.00000000000E+00 -0.00000000000E+00 -0.22425658853E+04  0.22425658853E+04  0.00000000000E+00 0. -1.
         35    2    1    2    0    0  0.35527136788E-14 -0.14210854715E-13 -0.22344448860E+04  0.22506868847E+04  0.26990276879E+03 0.  0.
         25    2    3    3    0    0  0.60362157046E+01 -0.36612583778E+02 -0.12969241890E+04  0.13042985003E+04  0.13343653391E+03 0.  0.
         25    2    3    3    0    0 -0.60362157046E+01  0.36612583778E+02 -0.93752069694E+03  0.94638838443E+03  0.12381033799E+03 0.  0.
          5    1    4    4  502    0 -0.32108466192E+02  0.39224885965E+02 -0.61294859398E+03  0.61505903305E+03  0.47000000000E+01 0. -1.
         -5    1    4    4    0  502  0.38144681896E+02 -0.75837469743E+02 -0.68397559505E+03  0.68923946723E+03  0.47000000000E+01 0. -1.
          5    1    5    5  503    0  0.20552863437E+02  0.75082940715E+02 -0.69445899667E+03  0.69882419551E+03  0.47000000000E+01 0. -1.
         -5    1    5    5    0  503 -0.26589079142E+02 -0.38470356937E+02 -0.24306170027E+03  0.24756418891E+03  0.47000000000E+01 0. -1.
<mgrwt>
<rscale>  0 0.26990277E+03</rscale>
<asrwt>0</asrwt>
<pdfrwt beam="1">  1        2 0.34501013E+00 0.26990277E+03</pdfrwt>
<pdfrwt beam="2">  1       -2 0.12493845E-02 0.26990277E+03</pdfrwt>
<totfact> 0.85168873E+03</totfact>
</mgrwt>
</event>
<event>
 9    1  0.7926126E-001  0.2783514E+03  0.7818608E-02  0.1096593E+00
          2   -1    0    0  501    0  0.00000000000E+00  0.00000000000E+00  0.23917421121E+03  0.23917421121E+03  0.00000000000E+00 0. -1.
         -2   -1    0    0    0  501 -0.00000000000E+00 -0.00000000000E+00 -0.80986454386E+02  0.80986454386E+02  0.00000000000E+00 0. -1.
         35    2    1    2    0    0  0.00000000000E+00 -0.71054273576E-14  0.15818775682E+03  0.32016066559E+03  0.27835137037E+03 0.  0.
         25    2    3    3    0    0  0.57474283591E+02  0.97052233038E+01  0.56417751989E+02  0.14865153426E+03  0.12456657363E+03 0.  0.
         25    2    3    3    0    0 -0.57474283591E+02 -0.97052233038E+01  0.10177000483E+03  0.17150913133E+03  0.12514297268E+03 0.  0.
          5    1    4    4  502    0  0.46867512486E+02  0.57779379690E+02  0.64456536103E+02  0.98548239408E+02  0.47000000000E+01 0.  1.
         -5    1    4    4    0  502  0.10606771105E+02 -0.48074156386E+02 -0.80387841143E+01  0.50103294857E+02  0.47000000000E+01 0.  1.
          5    1    5    5  503    0 -0.27942223786E+02 -0.60552407524E+02  0.18325990809E+02  0.69320226963E+02  0.47000000000E+01 0. -1.
         -5    1    5    5    0  503 -0.29532059804E+02  0.50847184220E+02  0.83444014022E+02  0.10218890437E+03  0.47000000000E+01 0. -1.
<mgrwt>
<rscale>  0 0.27835137E+03</rscale>
<asrwt>0</asrwt>
<pdfrwt beam="1">  1        2 0.36796032E-01 0.27835137E+03</pdfrwt>
<pdfrwt beam="2">  1       -2 0.12459455E-01 0.27835137E+03</pdfrwt>
<totfact> 0.64652580E+03</totfact>
</mgrwt>
</event>
<event>
 9    1  0.7926126E-001  0.2748857E+03  0.7818608E-02  0.1098515E+00
         -1   -1    0    0    0  501 -0.00000000000E+00  0.00000000000E+00  0.76242180211E+01  0.76242180211E+01  0.00000000000E+00 0. -1.
          1   -1    0    0  501    0  0.00000000000E+00 -0.00000000000E+00 -0.24777021043E+04  0.24777021043E+04  0.00000000000E+00 0. -1.
         35    2    1    2    0    0 -0.35527136788E-14  0.14210854715E-13 -0.24700778863E+04  0.24853263223E+04  0.27488572924E+03 0.  0.
         25    2    3    3    0    0  0.84594169636E+01  0.53788893290E+02 -0.92845336826E+03  0.93835760478E+03  0.12459747438E+03 0.  0.
         25    2    3    3    0    0 -0.84594169636E+01 -0.53788893290E+02 -0.15416245180E+04  0.15469687176E+04  0.11636688423E+03 0.  0.
          5    1    4    4  502    0 -0.44661307370E+02 -0.16413260900E+02 -0.32879491138E+03  0.33225323363E+03  0.47000000000E+01 0. -1.
         -5    1    4    4    0  502  0.53120724334E+02  0.70202154190E+02 -0.59965845689E+03  0.60610437115E+03  0.47000000000E+01 0. -1.
          5    1    5    5  503    0 -0.26039319093E+02  0.16343302406E+02 -0.10042723204E+04  0.10047537675E+04  0.47000000000E+01 0.  1.
         -5    1    5    5    0  503  0.17579902130E+02 -0.70132195696E+02 -0.53735219762E+03  0.54221495010E+03  0.47000000000E+01 0.  1.
<mgrwt>
<rscale>  0 0.27488573E+03</rscale>
<asrwt>0</asrwt>
<pdfrwt beam="1">  1        1 0.38118526E+00 0.27488573E+03</pdfrwt>
<pdfrwt beam="2">  1       -1 0.11729556E-02 0.27488573E+03</pdfrwt>
<totfact> 0.24490092E+03</totfact>
</mgrwt>
</event>
<event>
 9    1  0.7926126E-001  0.2761995E+03  0.7818608E-02  0.1097783E+00
          1   -1    0    0  501    0  0.00000000000E+00  0.00000000000E+00  0.24145025144E+04  0.24145025144E+04  0.00000000000E+00 0. -1.
         -1   -1    0    0    0  501 -0.00000000000E+00 -0.00000000000E+00 -0.78987476044E+01  0.78987476044E+01  0.00000000000E+00 0. -1.
         35    2    1    2    0    0  0.00000000000E+00  0.71054273576E-14  0.24066037668E+04  0.24224012620E+04  0.27619953622E+03 0.  0.
         25    2    3    3    0    0 -0.11507802085E+02 -0.47217668107E+02  0.15059169116E+04  0.15117648340E+04  0.12363345343E+03 0.  0.
         25    2    3    3    0    0  0.11507802085E+02  0.47217668107E+02  0.90068685520E+03  0.91063642807E+03  0.12513974310E+03 0.  0.
          5    1    4    4  502    0 -0.35272667324E+02 -0.29029407907E+02  0.18898916651E+03  0.19448872111E+03  0.47000000000E+01 0. -1.
         -5    1    4    4    0  502  0.23764865239E+02 -0.18188260200E+02  0.13169277451E+04  0.13172761128E+04  0.47000000000E+01 0. -1.
          5    1    5    5  503    0  0.43385439656E+02  0.74067001742E+02  0.46046885443E+03  0.46842488514E+03  0.47000000000E+01 0. -1.
         -5    1    5    5    0  503 -0.31877637571E+02 -0.26849333635E+02  0.44021800078E+03  0.44221154293E+03  0.47000000000E+01 0. -1.
<mgrwt>
<rscale>  0 0.27619954E+03</rscale>
<asrwt>0</asrwt>
<pdfrwt beam="1">  1        1 0.37146134E+00 0.27619954E+03</pdfrwt>
<pdfrwt beam="2">  1       -1 0.12151939E-02 0.27619954E+03</pdfrwt>
<totfact> 0.25617767E+03</totfact>
</mgrwt>
</event>
<event>
 9    1  0.7926126E-001  0.2736988E+03  0.7818608E-02  0.1099181E+00
          2   -1    0    0  501    0  0.00000000000E+00  0.00000000000E+00  0.31078274865E+04  0.31078274865E+04  0.00000000000E+00 0. -1.
         -2   -1    0    0    0  501 -0.00000000000E+00 -0.00000000000E+00 -0.60259981450E+01  0.60259981450E+01  0.00000000000E+00 0. -1.
         35    2    1    2    0    0  0.00000000000E+00  0.00000000000E+00  0.31018014884E+04  0.31138534847E+04  0.27369883207E+03 0.  0.
         25    2    3    3    0    0  0.20184975778E+02  0.43676679832E+02  0.18793772148E+04  0.18840974474E+04  0.12429557548E+03 0.  0.
         25    2    3    3    0    0 -0.20184975778E+02 -0.43676679832E+02  0.12224242736E+04  0.12297560373E+04  0.12515478824E+03 0.  0.
          5    1    4    4  502    0  0.42925558982E+01  0.86395943072E+02  0.11255586077E+04  0.11288874853E+04  0.47000000000E+01 0. -1.
         -5    1    4    4    0  502  0.15892419880E+02 -0.42719263240E+02  0.75381860715E+03  0.75520996216E+03  0.47000000000E+01 0. -1.
          5    1    5    5  503    0 -0.53008708366E+01  0.13461397612E+02  0.98286802060E+03  0.98298572949E+03  0.47000000000E+01 0. -1.
         -5    1    5    5    0  503 -0.14884104942E+02 -0.57138077444E+02  0.23955625295E+03  0.24677030778E+03  0.47000000000E+01 0. -1.
<mgrwt>
<rscale>  0 0.27369883E+03</rscale>
<asrwt>0</asrwt>
<pdfrwt beam="1">  1        2 0.47812602E+00 0.27369883E+03</pdfrwt>
<pdfrwt beam="2">  1       -2 0.92707912E-03 0.27369883E+03</pdfrwt>
<totfact> 0.42739577E+03</totfact>
</mgrwt>
</event>
<event>
 9    1  0.7926126E-001  0.2740345E+03  0.7818608E-02  0.1098993E+00
          1   -1    0    0  501    0  0.00000000000E+00  0.00000000000E+00  0.18386267956E+03  0.18386267956E+03  0.00000000000E+00 0.  1.
         -1   -1    0    0    0  501 -0.00000000000E+00 -0.00000000000E+00 -0.10210731809E+03  0.10210731809E+03  0.00000000000E+00 0.  1.
         35    2    1    2    0    0  0.00000000000E+00  0.71054273576E-14  0.81755361471E+02  0.28596999765E+03  0.27403448766E+03 0.  0.
         25    2    3    3    0    0 -0.56005035474E+02  0.49153251844E+01  0.42676216562E+02  0.14419700901E+03  0.12574097791E+03 0.  0.
         25    2    3    3    0    0  0.56005035474E+02 -0.49153251844E+01  0.39079144909E+02  0.14177298864E+03  0.12414377279E+03 0.  0.
          5    1    4    4  502    0 -0.24403365656E+02  0.56161260298E+02  0.55138930631E+02  0.82534859815E+02  0.47000000000E+01 0. -1.
         -5    1    4    4    0  502 -0.31601669818E+02 -0.51245935113E+02 -0.12462714070E+02  0.61662149191E+02  0.47000000000E+01 0. -1.
          5    1    5    5  503    0 -0.18318337273E+01  0.53613740828E+02  0.14549151841E+02  0.55781328773E+02  0.47000000000E+01 0. -1.
         -5    1    5    5    0  503  0.57836869201E+02 -0.58529066012E+02  0.24529993068E+02  0.85991659870E+02  0.47000000000E+01 0. -1.
<mgrwt>
<rscale>  0 0.27403449E+03</rscale>
<asrwt>0</asrwt>
<pdfrwt beam="1">  1        1 0.28286566E-01 0.27403449E+03</pdfrwt>
<pdfrwt beam="2">  1       -1 0.15708818E-01 0.27403449E+03</pdfrwt>
<totfact> 0.48394438E+03</totfact>
</mgrwt>
</event>
<event>
 9    1  0.7926126E-001  0.2731732E+03  0.7818608E-02  0.1099477E+00
         -1   -1    0    0    0  501 -0.00000000000E+00  0.00000000000E+00  0.17207976223E+03  0.17207976223E+03  0.00000000000E+00 0. -1.
          1   -1    0    0  501    0  0.00000000000E+00 -0.00000000000E+00 -0.10841427779E+03  0.10841427779E+03  0.00000000000E+00 0. -1.
         35    2    1    2    0    0  0.00000000000E+00  0.35527136788E-14  0.63665484437E+02  0.28049404002E+03  0.27317322816E+03 0.  0.
         25    2    3    3    0    0 -0.44256616388E+02  0.30652378510E+02  0.49209953441E+02  0.14397014325E+03  0.12412721791E+03 0.  0.
         25    2    3    3    0    0  0.44256616388E+02 -0.30652378510E+02  0.14455530996E+02  0.13652389678E+03  0.12462582242E+03 0.  0.
          5    1    4    4  502    0  0.29716839581E+02  0.33881417692E+02 -0.13008485977E+02  0.47141825664E+02  0.47000000000E+01 0.  1.
         -5    1    4    4    0  502 -0.73973455969E+02 -0.32290391819E+01  0.62218439419E+02  0.96828317582E+02  0.47000000000E+01 0.  1.
          5    1    5    5  503    0  0.10834416301E+02 -0.71461816724E+02 -0.17707484452E+02  0.74564206103E+02  0.47000000000E+01 0.  1.
         -5    1    5    5    0  503  0.33422200087E+02  0.40809438214E+02  0.32163015448E+02  0.61959690676E+02  0.47000000000E+01 0.  1.
<mgrwt>
<rscale>  0 0.27317323E+03</rscale>
<asrwt>0</asrwt>
<pdfrwt beam="1">  1        1 0.16679120E-01 0.27317323E+03</pdfrwt>
<pdfrwt beam="2">  1       -1 0.26473809E-01 0.27317323E+03</pdfrwt>
<totfact> 0.40699440E+03</totfact>
</mgrwt>
</event>
<event>
 9    1  0.7926126E-001  0.2775529E+03  0.7818608E-02  0.1097033E+00
         -2   -1    0    0    0  501 -0.00000000000E+00  0.00000000000E+00  0.64583864777E+03  0.64583864777E+03  0.00000000000E+00 0. -1.
          2   -1    0    0  501    0  0.00000000000E+00 -0.00000000000E+00 -0.29819991068E+02  0.29819991068E+02  0.00000000000E+00 0. -1.
         35    2    1    2    0    0  0.71054273576E-14 -0.35527136788E-14  0.61601865670E+03  0.67565863883E+03  0.27755289736E+03 0.  0.
         25    2    3    3    0    0  0.35265097785E+02  0.13355854090E+02  0.38985850615E+03  0.41415932758E+03  0.13459676015E+03 0.  0.
         25    2    3    3    0    0 -0.35265097785E+02 -0.13355854090E+02  0.22616015055E+03  0.26149931126E+03  0.12574366836E+03 0.  0.
          5    1    4    4  502    0  0.45999869867E+02 -0.53621824282E+02  0.17435814378E+03  0.18818645108E+03  0.47000000000E+01 0. -1.
         -5    1    4    4    0  502 -0.10734772081E+02  0.66977678372E+02  0.21550036237E+03  0.22597287650E+03  0.47000000000E+01 0. -1.
          5    1    5    5  503    0 -0.81986042978E+02 -0.11756647877E+02  0.16163609663E+03  0.18168172100E+03  0.47000000000E+01 0.  1.
         -5    1    5    5    0  503  0.46720945192E+02 -0.15992062125E+01  0.64524053919E+02  0.79817590256E+02  0.47000000000E+01 0.  1.
<mgrwt>
<rscale>  0 0.27755290E+03</rscale>
<asrwt>0</asrwt>
<pdfrwt beam="1">  1        2 0.45876914E-02 0.27755290E+03</pdfrwt>
<pdfrwt beam="2">  1       -2 0.99359782E-01 0.27755290E+03</pdfrwt>
<totfact> 0.15342899E+03</totfact>
</mgrwt>
</event>
<event>
 9    1  0.7926126E-001  0.2874410E+03  0.7818608E-02  0.1091693E+00
          2   -1    0    0  501    0  0.00000000000E+00  0.00000000000E+00  0.40588136362E+03  0.40588136362E+03  0.00000000000E+00 0.  1.
         -2   -1    0    0    0  501 -0.00000000000E+00 -0.00000000000E+00 -0.50890688846E+02  0.50890688846E+02  0.00000000000E+00 0.  1.
         35    2    1    2    0    0  0.35527136788E-14  0.71054273576E-14  0.35499067478E+03  0.45677205247E+03  0.28744100045E+03 0.  0.
         25    2    3    3    0    0 -0.22380952981E+02 -0.63361904583E+02  0.14369693808E+03  0.20222676523E+03  0.12542414661E+03 0.  0.
         25    2    3    3    0    0  0.22380952981E+02  0.63361904583E+02  0.21129373670E+03  0.25454528724E+03  0.12503048460E+03 0.  0.
          5    1    4    4  502    0 -0.51127757277E+01 -0.12762517545E+02 -0.22943054512E+02  0.27156879056E+02  0.47000000000E+01 0.  1.
         -5    1    4    4    0  502 -0.17268177253E+02 -0.50599387038E+02  0.16663999259E+03  0.17506988617E+03  0.47000000000E+01 0.  1.
          5    1    5    5  503    0 -0.23631793003E+02 -0.23555809966E+02  0.10210304781E+03  0.10751958052E+03  0.47000000000E+01 0. -1.
         -5    1    5    5    0  503  0.46012745984E+02  0.86917714550E+02  0.10919068888E+03  0.14702570671E+03  0.47000000000E+01 0. -1.
<mgrwt>
<rscale>  0 0.28744100E+03</rscale>
<asrwt>0</asrwt>
<pdfrwt beam="1">  1        2 0.62443285E-01 0.28744100E+03</pdfrwt>
<pdfrwt beam="2">  1       -2 0.78293370E-02 0.28744100E+03</pdfrwt>
<totfact> 0.76515212E+03</totfact>
</mgrwt>
</event>
<event>
 9    1  0.7926126E-001  0.2742357E+03  0.7818608E-02  0.1098880E+00
          1   -1    0    0  501    0  0.00000000000E+00  0.00000000000E+00  0.17865473023E+02  0.17865473023E+02  0.00000000000E+00 0. -1.
         -1   -1    0    0    0  501 -0.00000000000E+00 -0.00000000000E+00 -0.10523818616E+04  0.10523818616E+04  0.00000000000E+00 0. -1.
         35    2    1    2    0    0  0.00000000000E+00 -0.71054273576E-14 -0.10345163886E+04  0.10702473347E+04  0.27423566332E+03 0.  0.
         25    2    3    3    0    0  0.11760034967E+02  0.48863329582E+02 -0.41859320494E+03  0.43942754274E+03  0.12389661294E+03 0.  0.
         25    2    3    3    0    0 -0.11760034967E+02 -0.48863329582E+02 -0.61592318368E+03  0.63081979193E+03  0.12667406320E+03 0.  0.
          5    1    4    4  502    0  0.24198643728E+01  0.85567419977E+02 -0.35548787519E+03  0.36567931102E+03  0.47000000000E+01 0. -1.
         -5    1    4    4    0  502  0.93401705943E+01 -0.36704090394E+02 -0.63105329750E+02  0.73748231716E+02  0.47000000000E+01 0. -1.
          5    1    5    5  503    0  0.51473885588E+02  0.34828395625E+01 -0.18470749198E+03  0.19183492556E+03  0.47000000000E+01 0.  1.
         -5    1    5    5    0  503 -0.63233920555E+02 -0.52346169145E+02 -0.43121569170E+03  0.43898486637E+03  0.47000000000E+01 0.  1.
<mgrwt>
<rscale>  0 0.27423566E+03</rscale>
<asrwt>0</asrwt>
<pdfrwt beam="1">  1        1 0.27485345E-02 0.27423566E+03</pdfrwt>
<pdfrwt beam="2">  1       -1 0.16190489E+00 0.27423566E+03</pdfrwt>
<totfact> 0.11877516E+03</totfact>
</mgrwt>
</event>
<event>
 9    1  0.7926126E-001  0.2788173E+03  0.7818608E-02  0.1096337E+00
          2   -1    0    0  501    0  0.00000000000E+00  0.00000000000E+00  0.52557475754E+02  0.52557475754E+02  0.00000000000E+00 0. -1.
         -2   -1    0    0    0  501 -0.00000000000E+00 -0.00000000000E+00 -0.36978141028E+03  0.36978141028E+03  0.00000000000E+00 0. -1.
         35    2    1    2    0    0  0.00000000000E+00  0.17763568394E-14 -0.31722393452E+03  0.42233888603E+03  0.27881734168E+03 0.  0.
         25    2    3    3    0    0  0.56018541517E+02  0.92616949263E+01 -0.19015021830E+03  0.23422394471E+03  0.12441822524E+03 0.  0.
         25    2    3    3    0    0 -0.56018541517E+02 -0.92616949263E+01 -0.12707371622E+03  0.18811494132E+03  0.12655293677E+03 0.  0.
          5    1    4    4  502    0 -0.56841710932E+01 -0.19015424682E+02 -0.15739968401E+03  0.15871561582E+03  0.47000000000E+01 0. -1.
         -5    1    4    4    0  502  0.61702712610E+02  0.28277119608E+02 -0.32750534288E+02  0.75508328897E+02  0.47000000000E+01 0. -1.
          5    1    5    5  503    0 -0.74360664025E+02  0.49691591004E+01 -0.18424674428E+02  0.76913974830E+02  0.47000000000E+01 0. -1.
         -5    1    5    5    0  503  0.18342122509E+02 -0.14230854027E+02 -0.10864904180E+03  0.11120096649E+03  0.47000000000E+01 0. -1.
<mgrwt>
<rscale>  0 0.27881734E+03</rscale>
<asrwt>0</asrwt>
<pdfrwt beam="1">  1        2 0.80857657E-02 0.27881734E+03</pdfrwt>
<pdfrwt beam="2">  1       -2 0.56889447E-01 0.27881734E+03</pdfrwt>
<totfact> 0.24712753E+03</totfact>
</mgrwt>
</event>
<event>
 9    1  0.7926126E-001  0.2752357E+03  0.7818608E-02  0.1098320E+00
          2   -1    0    0  501    0  0.00000000000E+00  0.00000000000E+00  0.27812314173E+02  0.27812314173E+02  0.00000000000E+00 0.  1.
         -2   -1    0    0    0  501 -0.00000000000E+00 -0.00000000000E+00 -0.68094554828E+03  0.68094554828E+03  0.00000000000E+00 0.  1.
         35    2    1    2    0    0 -0.35527136788E-14  0.00000000000E+00 -0.65313323411E+03  0.70875786245E+03  0.27523569190E+03 0.  0.
         25    2    3    3    0    0  0.18483377774E+02 -0.54722255900E+02 -0.32980803798E+03  0.35752212024E+03  0.12534976666E+03 0.  0.
         25    2    3    3    0    0 -0.18483377774E+02  0.54722255900E+02 -0.32332519613E+03  0.35123574221E+03  0.12446366382E+03 0.  0.
          5    1    4    4  502    0  0.11929642114E+02  0.37171413480E+02 -0.15450070772E+03  0.15942581042E+03  0.47000000000E+01 0.  1.
         -5    1    4    4    0  502  0.65537356604E+01 -0.91893669381E+02 -0.17530733026E+03  0.19809630982E+03  0.47000000000E+01 0.  1.
          5    1    5    5  503    0 -0.69664409431E+02  0.48506320204E+02 -0.18733182005E+03  0.20572139861E+03  0.47000000000E+01 0.  1.
         -5    1    5    5    0  503  0.51181031657E+02  0.62159356965E+01 -0.13599337608E+03  0.14551434360E+03  0.47000000000E+01 0.  1.
<mgrwt>
<rscale>  0 0.27523569E+03</rscale>
<asrwt>0</asrwt>
<pdfrwt beam="1">  1        2 0.42788180E-02 0.27523569E+03</pdfrwt>
<pdfrwt beam="2">  1       -2 0.10476084E+00 0.27523569E+03</pdfrwt>
<totfact> 0.14873544E+03</totfact>
</mgrwt>
</event>
<event>
 9    1  0.7926126E-001  0.2744383E+03  0.7818608E-02  0.1098766E+00
          2   -1    0    0  501    0  0.00000000000E+00  0.00000000000E+00  0.13227103844E+04  0.13227103844E+04  0.00000000000E+00 0.  1.
         -2   -1    0    0    0  501 -0.00000000000E+00 -0.00000000000E+00 -0.14235241084E+02  0.14235241084E+02  0.00000000000E+00 0.  1.
         35    2    1    2    0    0  0.17763568394E-14 -0.71054273576E-14  0.13084751433E+04  0.13369456254E+04  0.27443834430E+03 0.  0.
         25    2    3    3    0    0  0.15129676551E+02  0.49805590898E+02  0.54626664419E+03  0.56283112390E+03  0.12514840581E+03 0.  0.
         25    2    3    3    0    0 -0.15129676551E+02 -0.49805590898E+02  0.76220849909E+03  0.77411450155E+03  0.12482772700E+03 0.  0.
          5    1    4    4  502    0 -0.57980300900E+01 -0.13765928134E+01 -0.47981333689E+01  0.89791004295E+01  0.47000000000E+01 0.  1.
         -5    1    4    4    0  502  0.20927706641E+02  0.51182183712E+02  0.55106477756E+03  0.55385202347E+03  0.47000000000E+01 0.  1.
          5    1    5    5  503    0  0.50255161189E+01 -0.78486548355E+02  0.68094573480E+03  0.68548856871E+03  0.47000000000E+01 0. -1.
         -5    1    5    5    0  503 -0.20155192670E+02  0.28680957457E+02  0.81262764286E+02  0.88625932839E+02  0.47000000000E+01 0. -1.
<mgrwt>
<rscale>  0 0.27443834E+03</rscale>
<asrwt>0</asrwt>
<pdfrwt beam="1">  1        2 0.20349381E+00 0.27443834E+03</pdfrwt>
<pdfrwt beam="2">  1       -2 0.21900381E-02 0.27443834E+03</pdfrwt>
<totfact> 0.11514947E+04</totfact>
</mgrwt>
</event>
<event>
 9    1  0.7926126E-001  0.2821216E+03  0.7818608E-02  0.1094536E+00
         -2   -1    0    0    0  501 -0.00000000000E+00  0.00000000000E+00  0.46469904191E+02  0.46469904191E+02  0.00000000000E+00 0.  1.
          2   -1    0    0  501    0  0.00000000000E+00 -0.00000000000E+00 -0.42819434584E+03  0.42819434584E+03  0.00000000000E+00 0.  1.
         35    2    1    2    0    0  0.00000000000E+00 -0.88817841970E-15 -0.38172444165E+03  0.47466425003E+03  0.28212160659E+03 0.  0.
         25    2    3    3    0    0  0.52882613343E+02  0.77463007302E+01 -0.12782831797E+03  0.18673323500E+03  0.12519043976E+03 0.  0.
         25    2    3    3    0    0 -0.52882613343E+02 -0.77463007302E+01 -0.25389612368E+03  0.28793101504E+03  0.12483770197E+03 0.  0.
          5    1    4    4  502    0  0.43248629051E+02  0.10900805357E+02 -0.15286936399E+03  0.15931228427E+03  0.47000000000E+01 0. -1.
         -5    1    4    4    0  502  0.96339842918E+01 -0.31545046273E+01  0.25041046021E+02  0.27420950724E+02  0.47000000000E+01 0. -1.
          5    1    5    5  503    0 -0.56291563547E+02  0.44521832014E+02 -0.20039305834E+03  0.21290937388E+03  0.47000000000E+01 0. -1.
         -5    1    5    5    0  503  0.34089502043E+01 -0.52268132745E+02 -0.53503065333E+02  0.75021641158E+02  0.47000000000E+01 0. -1.
<mgrwt>
<rscale>  0 0.28212161E+03</rscale>
<asrwt>0</asrwt>
<pdfrwt beam="1">  1        2 0.65876054E-01 0.28212161E+03</pdfrwt>
<pdfrwt beam="2">  1       -2 0.71492159E-02 0.28212161E+03</pdfrwt>
<totfact> 0.83082857E+03</totfact>
</mgrwt>
</event>
<event>
 9    1  0.7926126E-001  0.2770888E+03  0.7818608E-02  0.1097290E+00
         -1   -1    0    0    0  501 -0.00000000000E+00  0.00000000000E+00  0.52045237270E+02  0.52045237270E+02  0.00000000000E+00 0.  1.
          1   -1    0    0  501    0  0.00000000000E+00 -0.00000000000E+00 -0.36880519762E+03  0.36880519762E+03  0.00000000000E+00 0.  1.
         35    2    1    2    0    0  0.14210854715E-13 -0.14210854715E-13 -0.31675996035E+03  0.42085043489E+03  0.27708882342E+03 0.  0.
         25    2    3    3    0    0 -0.43349442561E+02  0.40438286188E+02 -0.16552500244E+03  0.21562346740E+03  0.12482196963E+03 0.  0.
         25    2    3    3    0    0  0.43349442561E+02 -0.40438286188E+02 -0.15123495791E+03  0.20522696749E+03  0.12542594042E+03 0.  0.
          5    1    4    4  502    0  0.42724668702E+02  0.16033713310E+00 -0.54314632168E+02  0.69264653982E+02  0.47000000000E+01 0. -1.
         -5    1    4    4    0  502 -0.86074111264E+02  0.40277949055E+02 -0.11121037027E+03  0.14635881342E+03  0.47000000000E+01 0. -1.
          5    1    5    5  503    0 -0.44194951707E+02 -0.17387710342E+02 -0.59264289652E+02  0.76091210105E+02  0.47000000000E+01 0.  1.
         -5    1    5    5    0  503  0.87544394269E+02 -0.23050575846E+02 -0.91970668255E+02  0.12913575738E+03  0.47000000000E+01 0.  1.
<mgrwt>
<rscale>  0 0.27708882E+03</rscale>
<asrwt>0</asrwt>
<pdfrwt beam="1">  1        1 0.56739263E-01 0.27708882E+03</pdfrwt>
<pdfrwt beam="2">  1       -1 0.80069594E-02 0.27708882E+03</pdfrwt>
<totfact> 0.57530519E+03</totfact>
</mgrwt>
</event>
<event>
 9    1  0.7926126E-001  0.2746219E+03  0.7818608E-02  0.1098663E+00
         -1   -1    0    0    0  501 -0.00000000000E+00  0.00000000000E+00  0.39401867066E+03  0.39401867066E+03  0.00000000000E+00 0. -1.
          1   -1    0    0  501    0  0.00000000000E+00 -0.00000000000E+00 -0.47851270888E+02  0.47851270888E+02  0.00000000000E+00 0. -1.
         35    2    1    2    0    0  0.71054273576E-14  0.00000000000E+00  0.34616739977E+03  0.44186994155E+03  0.27462187928E+03 0.  0.
         25    2    3    3    0    0 -0.47666301544E+02  0.21820327470E+02  0.21139585355E+03  0.25077935206E+03  0.12431360958E+03 0.  0.
         25    2    3    3    0    0  0.47666301544E+02 -0.21820327470E+02  0.13477154622E+03  0.19109058949E+03  0.12491613477E+03 0.  0.
          5    1    4    4  502    0 -0.18167725128E+02 -0.25084083600E+02 -0.88157373782E+00  0.31339187268E+02  0.47000000000E+01 0. -1.
         -5    1    4    4    0  502 -0.29498576416E+02  0.46904411070E+02  0.21227742729E+03  0.21944016479E+03  0.47000000000E+01 0. -1.
          5    1    5    5  503    0  0.83167677549E+02  0.11160197313E+02  0.10308054682E+03  0.13300038243E+03  0.47000000000E+01 0.  1.
         -5    1    5    5    0  503 -0.35501376006E+02 -0.32980524783E+02  0.31690999403E+02  0.58090207062E+02  0.47000000000E+01 0.  1.
<mgrwt>
<rscale>  0 0.27462188E+03</rscale>
<asrwt>0</asrwt>
<pdfrwt beam="1">  1        1 0.73617343E-02 0.27462188E+03</pdfrwt>
<pdfrwt beam="2">  1       -1 0.60618255E-01 0.27462188E+03</pdfrwt>
<totfact> 0.27679802E+03</totfact>
</mgrwt>
</event>
<event>
 9    1  0.7926126E-001  0.3038760E+03  0.7818608E-02  0.1083319E+00
         -1   -1    0    0    0  501 -0.00000000000E+00  0.00000000000E+00  0.94620207214E+02  0.94620207214E+02  0.00000000000E+00 0.  1.
          1   -1    0    0  501    0  0.00000000000E+00 -0.00000000000E+00 -0.24397703737E+03  0.24397703737E+03  0.00000000000E+00 0.  1.
         35    2    1    2    0    0 -0.10658141036E-13  0.00000000000E+00 -0.14935683016E+03  0.33859724459E+03  0.30387601308E+03 0.  0.
         25    2    3    3    0    0 -0.29416206506E+02 -0.82925210972E+02 -0.86220820248E+02  0.17531957689E+03  0.12474381900E+03 0.  0.
         25    2    3    3    0    0  0.29416206506E+02  0.82925210972E+02 -0.63136009909E+02  0.16327766769E+03  0.12219466928E+03 0.  0.
          5    1    4    4  502    0  0.36619249720E+02 -0.73838766174E+02 -0.65423077828E+02  0.10533471390E+03  0.47000000000E+01 0.  1.
         -5    1    4    4    0  502 -0.66035456226E+02 -0.90864447980E+01 -0.20797742420E+02  0.69984862991E+02  0.47000000000E+01 0.  1.
          5    1    5    5  503    0  0.30502154064E+02 -0.16296696515E+02  0.13901706595E+02  0.37567421605E+02  0.47000000000E+01 0. -1.
         -5    1    5    5    0  503 -0.10859475578E+01  0.99221907486E+02 -0.77037716504E+02  0.12571024609E+03  0.47000000000E+01 0. -1.
<mgrwt>
<rscale>  0 0.30387601E+03</rscale>
<asrwt>0</asrwt>
<pdfrwt beam="1">  1        1 0.37534929E-01 0.30387601E+03</pdfrwt>
<pdfrwt beam="2">  1       -1 0.14556955E-01 0.30387601E+03</pdfrwt>
<totfact> 0.38341089E+03</totfact>
</mgrwt>
</event>
<event>
 9    1  0.7926126E-001  0.2791389E+03  0.7818608E-02  0.1096160E+00
         -2   -1    0    0    0  501 -0.00000000000E+00  0.00000000000E+00  0.45496353890E+02  0.45496353890E+02  0.00000000000E+00 0. -1.
          2   -1    0    0  501    0  0.00000000000E+00 -0.00000000000E+00 -0.42815817885E+03  0.42815817885E+03  0.00000000000E+00 0. -1.
         35    2    1    2    0    0 -0.35527136788E-14 -0.14210854715E-13 -0.38266182496E+03  0.47365453274E+03  0.27913893333E+03 0.  0.
         25    2    3    3    0    0  0.10955894773E+02  0.50064879086E+02 -0.25088401799E+03  0.28469117212E+03  0.12441764046E+03 0.  0.
         25    2    3    3    0    0 -0.10955894773E+02 -0.50064879086E+02 -0.13177780697E+03  0.18896336061E+03  0.12536043034E+03 0.  0.
          5    1    4    4  502    0 -0.11953808495E+02  0.74565813694E+02 -0.23574687351E+03  0.24759166481E+03  0.47000000000E+01 0. -1.
         -5    1    4    4    0  502  0.22909703268E+02 -0.24500934608E+02 -0.15137144472E+02  0.37099507319E+02  0.47000000000E+01 0. -1.
          5    1    5    5  503    0 -0.52030191159E+02 -0.67412929888E+02 -0.59793962388E+02  0.10415878190E+03  0.47000000000E+01 0.  1.
         -5    1    5    5    0  503  0.41074296386E+02  0.17348050802E+02 -0.71983844583E+02  0.84804578716E+02  0.47000000000E+01 0.  1.
<mgrwt>
<rscale>  0 0.27913893E+03</rscale>
<asrwt>0</asrwt>
<pdfrwt beam="1">  1        2 0.65870491E-01 0.27913893E+03</pdfrwt>
<pdfrwt beam="2">  1       -2 0.69994388E-02 0.27913893E+03</pdfrwt>
<totfact> 0.85830031E+03</totfact>
</mgrwt>
</event>
<event>
 9    1  0.7926126E-001  0.2712326E+03  0.7818608E-02  0.1100576E+00
          2   -1    0    0  501    0  0.00000000000E+00  0.00000000000E+00  0.27718984827E+02  0.27718984827E+02  0.00000000000E+00 0. -1.
         -2   -1    0    0    0  501 -0.00000000000E+00 -0.00000000000E+00 -0.66350826366E+03  0.66350826366E+03  0.00000000000E+00 0. -1.
         35    2    1    2    0    0  0.00000000000E+00  0.00000000000E+00 -0.63578927884E+03  0.69122724849E+03  0.27123256068E+03 0.  0.
         25    2    3    3    0    0  0.30917753935E+02 -0.25382811058E+02 -0.38131000684E+03  0.40263002576E+03  0.12293665734E+03 0.  0.
         25    2    3    3    0    0 -0.30917753935E+02  0.25382811058E+02 -0.25447927200E+03  0.28859722273E+03  0.13010942505E+03 0.  0.
          5    1    4    4  502    0  0.46583479085E+02  0.16732981575E+02 -0.33219503015E+03  0.33589528316E+03  0.47000000000E+01 0. -1.
         -5    1    4    4    0  502 -0.15665725150E+02 -0.42115792632E+02 -0.49114976690E+02  0.66734742592E+02  0.47000000000E+01 0. -1.
          5    1    5    5  503    0 -0.35323513190E+02  0.75716263791E+02 -0.13563116001E+03  0.15936939716E+03  0.47000000000E+01 0. -1.
         -5    1    5    5    0  503  0.44057592557E+01 -0.50333452734E+02 -0.11884811199E+03  0.12922782557E+03  0.47000000000E+01 0. -1.
<mgrwt>
<rscale>  0 0.27123256E+03</rscale>
<asrwt>0</asrwt>
<pdfrwt beam="1">  1        2 0.42644599E-02 0.27123256E+03</pdfrwt>
<pdfrwt beam="2">  1       -2 0.10207818E+00 0.27123256E+03</pdfrwt>
<totfact> 0.15871458E+03</totfact>
</mgrwt>
</event>
<event>
 9    1  0.7926126E-001  0.2771183E+03  0.7818608E-02  0.1097273E+00
          2   -1    0    0  501    0  0.00000000000E+00  0.00000000000E+00  0.31424064509E+03  0.31424064509E+03  0.00000000000E+00 0. -1.
         -2   -1    0    0    0  501 -0.00000000000E+00 -0.00000000000E+00 -0.61095325985E+02  0.61095325985E+02  0.00000000000E+00 0. -1.
         35    2    1    2    0    0 -0.26645352591E-14  0.71054273576E-14  0.25314531910E+03  0.37533597107E+03  0.27711827547E+03 0.  0.
         25    2    3    3    0    0  0.63261698965E+01 -0.20283887337E+02  0.20069553091E+03  0.23738120877E+03  0.12497874076E+03 0.  0.
         25    2    3    3    0    0 -0.63261698965E+01  0.20283887337E+02  0.52449788195E+02  0.13795476230E+03  0.12581367036E+03 0.  0.
          5    1    4    4  502    0  0.10401976227E+02 -0.68976834127E+02  0.15617669258E+03  0.17111181742E+03  0.47000000000E+01 0.  1.
         -5    1    4    4    0  502 -0.40758063301E+01  0.48692946789E+02  0.44518838329E+02  0.66269391354E+02  0.47000000000E+01 0.  1.
          5    1    5    5  503    0 -0.26991563417E+02 -0.43304862969E+02  0.48902363490E+02  0.70833514718E+02  0.47000000000E+01 0.  1.
         -5    1    5    5    0  503  0.20665393520E+02  0.63588750306E+02  0.35474247047E+01  0.67121247581E+02  0.47000000000E+01 0.  1.
<mgrwt>
<rscale>  0 0.27711828E+03</rscale>
<asrwt>0</asrwt>
<pdfrwt beam="1">  1        2 0.48344714E-01 0.27711828E+03</pdfrwt>
<pdfrwt beam="2">  1       -2 0.93992811E-02 0.27711828E+03</pdfrwt>
<totfact> 0.75627475E+03</totfact>
</mgrwt>
</event>
<event>
 9    1  0.7926126E-001  0.2787588E+03  0.7818608E-02  0.1096369E+00
          2   -1    0    0  501    0  0.00000000000E+00  0.00000000000E+00  0.11176324775E+04  0.11176324775E+04  0.00000000000E+00 0.  1.
         -2   -1    0    0    0  501 -0.00000000000E+00 -0.00000000000E+00 -0.17381942921E+02  0.17381942921E+02  0.00000000000E+00 0.  1.
         35    2    1    2    0    0  0.00000000000E+00  0.71054273576E-14  0.11002505346E+04  0.11350144204E+04  0.27875884869E+03 0.  0.
         25    2    3    3    0    0 -0.33096692517E+02  0.27968199849E+02  0.37221416504E+03  0.39499845016E+03  0.12491108722E+03 0.  0.
         25    2    3    3    0    0  0.33096692517E+02 -0.27968199849E+02  0.72803636951E+03  0.74001597023E+03  0.12533582735E+03 0.  0.
          5    1    4    4  502    0  0.41908941033E+02  0.21160262463E+02  0.77117499955E+02  0.90406387193E+02  0.47000000000E+01 0.  1.
         -5    1    4    4    0  502 -0.75005633550E+02  0.68079373863E+01  0.29509666509E+03  0.30459206297E+03  0.47000000000E+01 0.  1.
          5    1    5    5  503    0  0.26254149818E+02  0.63574005740E+01  0.28353591980E+02  0.39442529113E+02  0.47000000000E+01 0. -1.
         -5    1    5    5    0  503  0.68425426996E+01 -0.34325600423E+02  0.69968277753E+03  0.70057344112E+03  0.47000000000E+01 0. -1.
<mgrwt>
<rscale>  0 0.27875885E+03</rscale>
<asrwt>0</asrwt>
<pdfrwt beam="1">  1        2 0.17194340E+00 0.27875885E+03</pdfrwt>
<pdfrwt beam="2">  1       -2 0.26741459E-02 0.27875885E+03</pdfrwt>
<totfact> 0.11200442E+04</totfact>
</mgrwt>
</event>
<event>
 9    1  0.7926126E-001  0.2752859E+03  0.7818608E-02  0.1098292E+00
          2   -1    0    0  501    0  0.00000000000E+00  0.00000000000E+00  0.67666100253E+02  0.67666100253E+02  0.00000000000E+00 0. -1.
         -2   -1    0    0    0  501 -0.00000000000E+00 -0.00000000000E+00 -0.27998621916E+03  0.27998621916E+03  0.00000000000E+00 0. -1.
         35    2    1    2    0    0  0.71054273576E-14  0.00000000000E+00 -0.21232011891E+03  0.34765231942E+03  0.27528585562E+03 0.  0.
         25    2    3    3    0    0 -0.52566515668E+02 -0.10993994293E+02 -0.77066174606E+02  0.15631434130E+03  0.12494347341E+03 0.  0.
         25    2    3    3    0    0  0.52566515668E+02  0.10993994293E+02 -0.13525394431E+03  0.19133797811E+03  0.12422755708E+03 0.  0.
          5    1    4    4  502    0 -0.53042034900E+02  0.50036998712E+02 -0.29533041598E+02  0.78812748033E+02  0.47000000000E+01 0. -1.
         -5    1    4    4    0  502  0.47551923216E+00 -0.61030993005E+02 -0.47533133008E+02  0.77501593270E+02  0.47000000000E+01 0. -1.
          5    1    5    5  503    0 -0.34100185116E+02  0.18722245618E+02 -0.77369966078E+02  0.86726851418E+02  0.47000000000E+01 0.  1.
         -5    1    5    5    0  503  0.86666700784E+02 -0.77282513254E+01 -0.57883978228E+02  0.10461112670E+03  0.47000000000E+01 0.  1.
<mgrwt>
<rscale>  0 0.27528586E+03</rscale>
<asrwt>0</asrwt>
<pdfrwt beam="1">  1        2 0.10410169E-01 0.27528586E+03</pdfrwt>
<pdfrwt beam="2">  1       -2 0.43074802E-01 0.27528586E+03</pdfrwt>
<totfact> 0.31318825E+03</totfact>
</mgrwt>
</event>
<event>
 9    1  0.7926126E-001  0.2717373E+03  0.7818608E-02  0.1100289E+00
          2   -1    0    0  501    0  0.00000000000E+00  0.00000000000E+00  0.12942848320E+04  0.12942848320E+04  0.00000000000E+00 0. -1.
         -2   -1    0    0    0  501 -0.00000000000E+00 -0.00000000000E+00 -0.14262927391E+02  0.14262927391E+02  0.00000000000E+00 0. -1.
         35    2    1    2    0    0  0.71054273576E-14  0.35527136788E-14  0.12800219046E+04  0.13085477594E+04  0.27173730390E+03 0.  0.
         25    2    3    3    0    0 -0.39065310971E+02 -0.47303469756E+01  0.80663824990E+03  0.81724645176E+03  0.12521190839E+03 0.  0.
         25    2    3    3    0    0  0.39065310971E+02  0.47303469756E+01  0.47338365473E+03  0.49130130765E+03  0.12544487090E+03 0.  0.
          5    1    4    4  502    0 -0.30574482457E+02  0.59085941094E+02  0.40595444142E+03  0.41139645832E+03  0.47000000000E+01 0. -1.
         -5    1    4    4    0  502 -0.84908285140E+01 -0.63816288070E+02  0.40068380848E+03  0.40584999344E+03  0.47000000000E+01 0. -1.
          5    1    5    5  503    0 -0.27499456564E+02 -0.31240582092E+02  0.76243240797E+02  0.86990320427E+02  0.47000000000E+01 0.  1.
         -5    1    5    5    0  503  0.66564767535E+02  0.35970929067E+02  0.39714041393E+03  0.40431098723E+03  0.47000000000E+01 0.  1.
<mgrwt>
<rscale>  0 0.27173730E+03</rscale>
<asrwt>0</asrwt>
<pdfrwt beam="1">  1        2 0.19912065E+00 0.27173730E+03</pdfrwt>
<pdfrwt beam="2">  1       -2 0.21942975E-02 0.27173730E+03</pdfrwt>
<totfact> 0.11901887E+04</totfact>
</mgrwt>
</event>
<event>
 9    1  0.7926126E-001  0.2756831E+03  0.7818608E-02  0.1098070E+00
         -1   -1    0    0    0  501 -0.00000000000E+00  0.00000000000E+00  0.16585068009E+03  0.16585068009E+03  0.00000000000E+00 0. -1.
          1   -1    0    0  501    0  0.00000000000E+00 -0.00000000000E+00 -0.11456264508E+03  0.11456264508E+03  0.00000000000E+00 0. -1.
         35    2    1    2    0    0 -0.35527136788E-14  0.00000000000E+00  0.51288035011E+02  0.28041332517E+03  0.27568309777E+03 0.  0.
         25    2    3    3    0    0  0.17972714993E+02 -0.14338332903E+02  0.81155135547E+02  0.15051494995E+03  0.12465948764E+03 0.  0.
         25    2    3    3    0    0 -0.17972714993E+02  0.14338332903E+02 -0.29867100535E+02  0.12989837522E+03  0.12430984641E+03 0.  0.
          5    1    4    4  502    0  0.40730651569E+02 -0.54959244013E+02  0.16197754772E+02  0.70455388292E+02  0.47000000000E+01 0. -1.
         -5    1    4    4    0  502 -0.22757936576E+02  0.40620911109E+02  0.64957380775E+02  0.80059561663E+02  0.47000000000E+01 0. -1.
          5    1    5    5  503    0  0.28933199775E+02  0.51368119946E+02 -0.36637749227E+02  0.69571750477E+02  0.47000000000E+01 0. -1.
         -5    1    5    5    0  503 -0.46905914768E+02 -0.37029787043E+02  0.67706486917E+01  0.60326624739E+02  0.47000000000E+01 0. -1.
<mgrwt>
<rscale>  0 0.27568310E+03</rscale>
<asrwt>0</asrwt>
<pdfrwt beam="1">  1        1 0.17625022E-01 0.27568310E+03</pdfrwt>
<pdfrwt beam="2">  1       -1 0.25515489E-01 0.27568310E+03</pdfrwt>
<totfact> 0.40298225E+03</totfact>
</mgrwt>
</event>
<event>
 9    1  0.7926126E-001  0.2758795E+03  0.7818608E-02  0.1097961E+00
         -1   -1    0    0    0  501 -0.00000000000E+00  0.00000000000E+00  0.54730392617E+01  0.54730392617E+01  0.00000000000E+00 0.  1.
          1   -1    0    0  501    0  0.00000000000E+00 -0.00000000000E+00 -0.34765647225E+04  0.34765647225E+04  0.00000000000E+00 0.  1.
         35    2    1    2    0    0 -0.35527136788E-14  0.14210854715E-13 -0.34710916833E+04  0.34820377618E+04  0.27587950429E+03 0.  0.
         25    2    3    3    0    0  0.28707419023E+02  0.49201278092E+02 -0.15165394471E+04  0.15226800554E+04  0.12416833312E+03 0.  0.
         25    2    3    3    0    0 -0.28707419023E+02 -0.49201278092E+02 -0.19545522362E+04  0.19593577064E+04  0.12475293927E+03 0.  0.
          5    1    4    4  502    0 -0.55862952417E+01  0.71923747218E+02 -0.13120780777E+04  0.13140681885E+04  0.47000000000E+01 0.  1.
         -5    1    4    4    0  502  0.34293714264E+02 -0.22722469126E+02 -0.20446136937E+03  0.20861186689E+03  0.47000000000E+01 0.  1.
          5    1    5    5  503    0 -0.67027960675E+02 -0.66304976614E+02 -0.14262621327E+04  0.14293826845E+04  0.47000000000E+01 0. -1.
         -5    1    5    5    0  503  0.38320541652E+02  0.17103698522E+02 -0.52829010345E+03  0.52997502189E+03  0.47000000000E+01 0. -1.
<mgrwt>
<rscale>  0 0.27587950E+03</rscale>
<asrwt>0</asrwt>
<pdfrwt beam="1">  1        1 0.53485629E+00 0.27587950E+03</pdfrwt>
<pdfrwt beam="2">  1       -1 0.84200576E-03 0.27587950E+03</pdfrwt>
<totfact> 0.78806008E+02</totfact>
</mgrwt>
</event>
<event>
 9    1  0.7926126E-001  0.2792588E+03  0.7818608E-02  0.1096094E+00
          1   -1    0    0  501    0  0.00000000000E+00  0.00000000000E+00  0.18886401490E+02  0.18886401490E+02  0.00000000000E+00 0. -1.
         -1   -1    0    0    0  501 -0.00000000000E+00 -0.00000000000E+00 -0.10322969982E+04  0.10322969982E+04  0.00000000000E+00 0. -1.
         35    2    1    2    0    0  0.35527136788E-14  0.71054273576E-14 -0.10134105967E+04  0.10511833997E+04  0.27925884455E+03 0.  0.
         25    2    3    3    0    0  0.11461113531E+01 -0.55845154606E+02 -0.61172554943E+03  0.62684318462E+03  0.12491691404E+03 0.  0.
         25    2    3    3    0    0 -0.11461113531E+01  0.55845154606E+02 -0.40168504728E+03  0.42434021507E+03  0.12487492164E+03 0.  0.
          5    1    4    4  502    0 -0.29334304917E+02  0.10781070161E+02 -0.42821119505E+02  0.53220965741E+02  0.47000000000E+01 0. -1.
         -5    1    4    4    0  502  0.30480416270E+02 -0.66626224766E+02 -0.56890442993E+03  0.57362221888E+03  0.47000000000E+01 0. -1.
          5    1    5    5  503    0 -0.21313665251E+02 -0.31084030224E+01 -0.47947289586E+01  0.22561336875E+02  0.47000000000E+01 0. -1.
         -5    1    5    5    0  503  0.20167553898E+02  0.58953557628E+02 -0.39689031832E+03  0.40177887819E+03  0.47000000000E+01 0. -1.
<mgrwt>
<rscale>  0 0.27925884E+03</rscale>
<asrwt>0</asrwt>
<pdfrwt beam="1">  1        1 0.29056005E-02 0.27925884E+03</pdfrwt>
<pdfrwt beam="2">  1       -1 0.15881491E+00 0.27925884E+03</pdfrwt>
<totfact> 0.11576855E+03</totfact>
</mgrwt>
</event>
<event>
 9    1  0.7926126E-001  0.2758991E+03  0.7818608E-02  0.1097950E+00
         -1   -1    0    0    0  501 -0.00000000000E+00  0.00000000000E+00  0.19860180640E+02  0.19860180640E+02  0.00000000000E+00 0.  1.
          1   -1    0    0  501    0  0.00000000000E+00 -0.00000000000E+00 -0.95820237963E+03  0.95820237963E+03  0.00000000000E+00 0.  1.
         35    2    1    2    0    0  0.71054273576E-14 -0.35527136788E-14 -0.93834219899E+03  0.97806256027E+03  0.27589905653E+03 0.  0.
         25    2    3    3    0    0  0.49432895790E+02  0.15647921658E+02 -0.55393412260E+03  0.57039389136E+03  0.12576847965E+03 0.  0.
         25    2    3    3    0    0 -0.49432895790E+02 -0.15647921658E+02 -0.38440807639E+03  0.40766866892E+03  0.12544204153E+03 0.  0.
          5    1    4    4  502    0  0.56120178865E+02  0.18587511088E+02 -0.55775887240E+03  0.56090286128E+03  0.47000000000E+01 0. -1.
         -5    1    4    4    0  502 -0.66872830749E+01 -0.29395894295E+01  0.38247497999E+01  0.94910300795E+01  0.47000000000E+01 0. -1.
          5    1    5    5  503    0 -0.31017132484E+02  0.49608137337E+02 -0.10685071737E+03  0.12191060495E+03  0.47000000000E+01 0. -1.
         -5    1    5    5    0  503 -0.18415763306E+02 -0.65256058995E+02 -0.27755735902E+03  0.28575806396E+03  0.47000000000E+01 0. -1.
<mgrwt>
<rscale>  0 0.27589906E+03</rscale>
<asrwt>0</asrwt>
<pdfrwt beam="1">  1        1 0.14741576E+00 0.27589906E+03</pdfrwt>
<pdfrwt beam="2">  1       -1 0.30554123E-02 0.27589906E+03</pdfrwt>
<totfact> 0.63110515E+03</totfact>
</mgrwt>
</event>
<event>
 9    1  0.7926126E-001  0.2757557E+03  0.7818608E-02  0.1098030E+00
         -1   -1    0    0    0  501 -0.00000000000E+00  0.00000000000E+00  0.11334248862E+02  0.11334248862E+02  0.00000000000E+00 0.  1.
          1   -1    0    0  501    0  0.00000000000E+00 -0.00000000000E+00 -0.16772434834E+04  0.16772434834E+04  0.00000000000E+00 0.  1.
         35    2    1    2    0    0  0.71054273576E-14  0.00000000000E+00 -0.16659092345E+04  0.16885777322E+04  0.27575565302E+03 0.  0.
         25    2    3    3    0    0  0.53932519895E+02  0.13733406995E+01 -0.96782935311E+03  0.97739100784E+03  0.12525542985E+03 0.  0.
         25    2    3    3    0    0 -0.53932519895E+02 -0.13733406995E+01 -0.69807988141E+03  0.71118672440E+03  0.12474146610E+03 0.  0.
          5    1    4    4  502    0 -0.48723968567E+01 -0.47204618478E+01 -0.78782891942E+03  0.78787214654E+03  0.47000000000E+01 0.  1.
         -5    1    4    4    0  502  0.58804916751E+02  0.60938025472E+01 -0.18000043369E+03  0.18951886131E+03  0.47000000000E+01 0.  1.
          5    1    5    5  503    0 -0.42116828866E+02  0.14345529443E+02 -0.68636089409E+03  0.68781755461E+03  0.47000000000E+01 0. -1.
         -5    1    5    5    0  503 -0.11815691029E+02 -0.15718870143E+02 -0.11718987323E+02  0.23369169795E+02  0.47000000000E+01 0. -1.
<mgrwt>
<rscale>  0 0.27575565E+03</rscale>
<asrwt>0</asrwt>
<pdfrwt beam="1">  1        1 0.25803754E+00 0.27575565E+03</pdfrwt>
<pdfrwt beam="2">  1       -1 0.17437300E-02 0.27575565E+03</pdfrwt>
<totfact> 0.45843444E+03</totfact>
</mgrwt>
</event>
<event>
 9    1  0.7926126E-001  0.2784266E+03  0.7818608E-02  0.1096551E+00
          1   -1    0    0  501    0  0.00000000000E+00  0.00000000000E+00  0.52289488176E+03  0.52289488176E+03  0.00000000000E+00 0.  1.
         -1   -1    0    0    0  501 -0.00000000000E+00 -0.00000000000E+00 -0.37063550768E+02  0.37063550768E+02  0.00000000000E+00 0.  1.
         35    2    1    2    0    0  0.71054273576E-14  0.00000000000E+00  0.48583133099E+03  0.55995843253E+03  0.27842658635E+03 0.  0.
         25    2    3    3    0    0  0.26319052577E+02 -0.41146508415E+02  0.31287007120E+03  0.34053300538E+03  0.12525701026E+03 0.  0.
         25    2    3    3    0    0 -0.26319052577E+02  0.41146508415E+02  0.17296125979E+03  0.21942542715E+03  0.12588166271E+03 0.  0.
          5    1    4    4  502    0  0.74230890633E+02 -0.39874393564E+02  0.17059851714E+03  0.19033164854E+03  0.47000000000E+01 0. -1.
         -5    1    4    4    0  502 -0.47911838056E+02 -0.12721148509E+01  0.14227155406E+03  0.15020135684E+03  0.47000000000E+01 0. -1.
          5    1    5    5  503    0  0.12105423045E+01 -0.36274797625E+02  0.10962319064E+03  0.11557101835E+03  0.47000000000E+01 0.  1.
         -5    1    5    5    0  503 -0.27529594881E+02  0.77421306040E+02  0.63338069152E+02  0.10385440880E+03  0.47000000000E+01 0.  1.
<mgrwt>
<rscale>  0 0.27842659E+03</rscale>
<asrwt>0</asrwt>
<pdfrwt beam="1">  1        1 0.80445361E-01 0.27842659E+03</pdfrwt>
<pdfrwt beam="2">  1       -1 0.57020851E-02 0.27842659E+03</pdfrwt>
<totfact> 0.61114026E+03</totfact>
</mgrwt>
</event>
<event>
 9    1  0.7926126E-001  0.2745436E+03  0.7818608E-02  0.1098707E+00
          1   -1    0    0  501    0  0.00000000000E+00  0.00000000000E+00  0.42903887997E+03  0.42903887997E+03  0.00000000000E+00 0. -1.
         -1   -1    0    0    0  501 -0.00000000000E+00 -0.00000000000E+00 -0.43920364925E+02  0.43920364925E+02  0.00000000000E+00 0. -1.
         35    2    1    2    0    0  0.35527136788E-14  0.14210854715E-13  0.38511851505E+03  0.47295924490E+03  0.27454357888E+03 0.  0.
         25    2    3    3    0    0  0.15304213986E+02 -0.50801201289E+02  0.22113522264E+03  0.26013404687E+03  0.12630896497E+03 0.  0.
         25    2    3    3    0    0 -0.15304213986E+02  0.50801201289E+02  0.16398329241E+03  0.21282519802E+03  0.12485617208E+03 0.  0.
          5    1    4    4  502    0  0.22345167370E+02 -0.88832089021E+02  0.11515052300E+03  0.14721473939E+03  0.47000000000E+01 0.  1.
         -5    1    4    4    0  502 -0.70409533846E+01  0.38030887732E+02  0.10598469964E+03  0.11291930749E+03  0.47000000000E+01 0.  1.
          5    1    5    5  503    0 -0.41478536986E+01  0.91166800565E+02  0.93749995155E+02  0.13091883672E+03  0.47000000000E+01 0. -1.
         -5    1    5    5    0  503 -0.11156360287E+02 -0.40365599276E+02  0.70233297250E+02  0.81906361306E+02  0.47000000000E+01 0. -1.
<mgrwt>
<rscale>  0 0.27454358E+03</rscale>
<asrwt>0</asrwt>
<pdfrwt beam="1">  1        1 0.66005979E-01 0.27454358E+03</pdfrwt>
<pdfrwt beam="2">  1       -1 0.67569795E-02 0.27454358E+03</pdfrwt>
<totfact> 0.61329773E+03</totfact>
</mgrwt>
</event>
<event>
 9    1  0.7926126E-001  0.2756521E+03  0.7818608E-02  0.1098088E+00
          3   -1    0    0  501    0  0.00000000000E+00  0.00000000000E+00  0.97019067823E+02  0.97019067823E+02  0.00000000000E+00 0.  1.
         -3   -1    0    0    0  501 -0.00000000000E+00 -0.00000000000E+00 -0.19579673772E+03  0.19579673772E+03  0.00000000000E+00 0.  1.
         35    2    1    2    0    0  0.35527136788E-14  0.71054273576E-14 -0.98777669896E+02  0.29281580554E+03  0.27565207764E+03 0.  0.
         25    2    3    3    0    0  0.59016459850E+01  0.53478427363E+02 -0.90895824399E+02  0.16061067118E+03  0.12099159138E+03 0.  0.
         25    2    3    3    0    0 -0.59016459850E+01 -0.53478427363E+02 -0.78818454973E+01  0.13220513436E+03  0.12050436691E+03 0.  0.
          5    1    4    4  502    0  0.26283200446E+02  0.30210373195E+02 -0.11451743434E+03  0.12140760290E+03  0.47000000000E+01 0. -1.
         -5    1    4    4    0  502 -0.20381554461E+02  0.23268054168E+02  0.23621609936E+02  0.39203068285E+02  0.47000000000E+01 0. -1.
          5    1    5    5  503    0 -0.41371248104E+02 -0.89581478653E+01 -0.46655450461E+02  0.63171588871E+02  0.47000000000E+01 0.  1.
         -5    1    5    5    0  503  0.35469602119E+02 -0.44520279497E+02  0.38773604963E+02  0.69033545489E+02  0.47000000000E+01 0.  1.
<mgrwt>
<rscale>  0 0.27565208E+03</rscale>
<asrwt>0</asrwt>
<pdfrwt beam="1">  1        3 0.14926011E-01 0.27565208E+03</pdfrwt>
<pdfrwt beam="2">  1       -3 0.30122575E-01 0.27565208E+03</pdfrwt>
<totfact> 0.10146379E+03</totfact>
</mgrwt>
</event>
<event>
 9    1  0.7926126E-001  0.2763073E+03  0.7818608E-02  0.1097723E+00
         -1   -1    0    0    0  501 -0.00000000000E+00  0.00000000000E+00  0.47222579799E+01  0.47222579799E+01  0.00000000000E+00 0.  1.
          1   -1    0    0  501    0  0.00000000000E+00 -0.00000000000E+00 -0.40418028424E+04  0.40418028424E+04  0.00000000000E+00 0.  1.
         35    2    1    2    0    0  0.35527136788E-14  0.14210854715E-13 -0.40370805844E+04  0.40465251004E+04  0.27630733415E+03 0.  0.
         25    2    3    3    0    0  0.54299028184E+01  0.42943280174E+02 -0.26177939988E+04  0.26211138539E+04  0.12457450077E+03 0.  0.
         25    2    3    3    0    0 -0.54299028184E+01 -0.42943280174E+02 -0.14192865857E+04  0.14254112464E+04  0.12469643167E+03 0.  0.
          5    1    4    4  502    0 -0.21951696372E+01  0.43486105911E+02 -0.26056298937E+04  0.26059979073E+04  0.47000000000E+01 0.  1.
         -5    1    4    4    0  502  0.76250724556E+01 -0.54282573718E+00 -0.12164105098E+02  0.15115946632E+02  0.47000000000E+01 0.  1.
          5    1    5    5  503    0 -0.53622623880E+02  0.45381096317E+01 -0.36847913240E+03  0.37241769727E+03  0.47000000000E+01 0.  1.
         -5    1    5    5    0  503  0.48192721062E+02 -0.47481389805E+02 -0.10508074533E+04  0.10529935492E+04  0.47000000000E+01 0.  1.
<mgrwt>
<rscale>  0 0.27630733E+03</rscale>
<asrwt>0</asrwt>
<pdfrwt beam="1">  1        1 0.62181575E+00 0.27630733E+03</pdfrwt>
<pdfrwt beam="2">  1       -1 0.72650131E-03 0.27630733E+03</pdfrwt>
<totfact> 0.34492465E+02</totfact>
</mgrwt>
</event>
<event>
 9    1  0.7926126E-001  0.2777141E+03  0.7818608E-02  0.1096944E+00
         -2   -1    0    0    0  501 -0.00000000000E+00  0.00000000000E+00  0.78900278740E+01  0.78900278740E+01  0.00000000000E+00 0. -1.
          2   -1    0    0  501    0  0.00000000000E+00 -0.00000000000E+00 -0.24437538631E+04  0.24437538631E+04  0.00000000000E+00 0. -1.
         35    2    1    2    0    0  0.00000000000E+00  0.00000000000E+00 -0.24358638353E+04  0.24516438910E+04  0.27771414150E+03 0.  0.
         25    2    3    3    0    0  0.17640924641E+02 -0.49236257747E+02 -0.14907195303E+04  0.14968985222E+04  0.12539958710E+03 0.  0.
         25    2    3    3    0    0 -0.17640924641E+02  0.49236257747E+02 -0.94514430493E+03  0.95474536878E+03  0.12452128639E+03 0.  0.
          5    1    4    4  502    0  0.50963847904E+02 -0.44350348231E+02 -0.13644650002E+04  0.13661446095E+04  0.47000000000E+01 0. -1.
         -5    1    4    4    0  502 -0.33322923263E+02 -0.48859095162E+01 -0.12625453014E+03  0.13075391278E+03  0.47000000000E+01 0. -1.
          5    1    5    5  503    0 -0.17974249071E+02 -0.37967601465E+02 -0.19462740486E+03  0.19916457795E+03  0.47000000000E+01 0.  1.
         -5    1    5    5    0  503  0.33332443036E+00  0.87203859212E+02 -0.75051690008E+03  0.75558079083E+03  0.47000000000E+01 0.  1.
<mgrwt>
<rscale>  0 0.27771414E+03</rscale>
<asrwt>0</asrwt>
<pdfrwt beam="1">  1        2 0.37596262E+00 0.27771414E+03</pdfrwt>
<pdfrwt beam="2">  1       -2 0.12138489E-02 0.27771414E+03</pdfrwt>
<totfact> 0.69209902E+03</totfact>
</mgrwt>
</event>
<event>
 9    1  0.7926126E-001  0.2763348E+03  0.7818608E-02  0.1097708E+00
         -2   -1    0    0    0  501 -0.00000000000E+00  0.00000000000E+00  0.13053304623E+02  0.13053304623E+02  0.00000000000E+00 0. -1.
          2   -1    0    0  501    0  0.00000000000E+00 -0.00000000000E+00 -0.14624824143E+04  0.14624824143E+04  0.00000000000E+00 0. -1.
         35    2    1    2    0    0  0.35527136788E-14  0.14210854715E-13 -0.14494291097E+04  0.14755357190E+04  0.27633478579E+03 0.  0.
         25    2    3    3    0    0 -0.56532870734E+00  0.58953852972E+02 -0.78193813991E+03  0.79396895386E+03  0.12443298863E+03 0.  0.
         25    2    3    3    0    0  0.56532870734E+00 -0.58953852972E+02 -0.66749096980E+03  0.68156676510E+03  0.12455193355E+03 0.  0.
          5    1    4    4  502    0  0.59720694635E+02  0.12188943454E+02 -0.33120542886E+03  0.33680002645E+03  0.47000000000E+01 0. -1.
         -5    1    4    4    0  502 -0.60286023342E+02  0.46764909518E+02 -0.45073271105E+03  0.45716892741E+03  0.47000000000E+01 0. -1.
          5    1    5    5  503    0 -0.11392980011E+02  0.35417757738E+02 -0.11597044601E+03  0.12188294345E+03  0.47000000000E+01 0.  1.
         -5    1    5    5    0  503  0.11958308719E+02 -0.94371610711E+02 -0.55152052379E+03  0.55968382165E+03  0.47000000000E+01 0.  1.
<mgrwt>
<rscale>  0 0.27633479E+03</rscale>
<asrwt>0</asrwt>
<pdfrwt beam="1">  1        2 0.22499721E+00 0.27633479E+03</pdfrwt>
<pdfrwt beam="2">  1       -2 0.20082015E-02 0.27633479E+03</pdfrwt>
<totfact> 0.10983652E+04</totfact>
</mgrwt>
</event>
<event>
 9    1  0.7926126E-001  0.2753721E+03  0.7818608E-02  0.1098244E+00
         -2   -1    0    0    0  501 -0.00000000000E+00  0.00000000000E+00  0.19232712442E+02  0.19232712442E+02  0.00000000000E+00 0. -1.
          2   -1    0    0  501    0  0.00000000000E+00 -0.00000000000E+00 -0.98568792015E+03  0.98568792015E+03  0.00000000000E+00 0. -1.
         35    2    1    2    0    0  0.00000000000E+00 -0.35527136788E-14 -0.96645520771E+03  0.10049206326E+04  0.27537212877E+03 0.  0.
         25    2    3    3    0    0 -0.11305198358E+01 -0.78865684223E+01 -0.29189720146E+03  0.31925614498E+03  0.12906213175E+03 0.  0.
         25    2    3    3    0    0  0.11305198358E+01  0.78865684223E+01 -0.67455800625E+03  0.68566448761E+03  0.12265320926E+03 0.  0.
          5    1    4    4  502    0  0.49263501393E+02  0.15718425347E+02 -0.54086376711E+02  0.74975913537E+02  0.47000000000E+01 0.  1.
         -5    1    4    4    0  502 -0.50394021229E+02 -0.23604993769E+02 -0.23781082475E+03  0.24428023144E+03  0.47000000000E+01 0.  1.
          5    1    5    5  503    0  0.14400558477E+02 -0.50607530306E+02 -0.45346676582E+03  0.45653334589E+03  0.47000000000E+01 0.  1.
         -5    1    5    5    0  503 -0.13270038641E+02  0.58494098728E+02 -0.22109124043E+03  0.22913114172E+03  0.47000000000E+01 0.  1.
<mgrwt>
<rscale>  0 0.27537213E+03</rscale>
<asrwt>0</asrwt>
<pdfrwt beam="1">  1        2 0.15164426E+00 0.27537213E+03</pdfrwt>
<pdfrwt beam="2">  1       -2 0.29588795E-02 0.27537213E+03</pdfrwt>
<totfact> 0.11558149E+04</totfact>
</mgrwt>
</event>
<event>
 9    1  0.7926126E-001  0.2664199E+03  0.7818608E-02  0.1103346E+00
          2   -1    0    0  501    0  0.00000000000E+00  0.00000000000E+00  0.46136382401E+04  0.46136382401E+04  0.00000000000E+00 0. -1.
         -2   -1    0    0    0  501 -0.00000000000E+00 -0.00000000000E+00 -0.38461822932E+01  0.38461822932E+01  0.00000000000E+00 0. -1.
         35    2    1    2    0    0  0.71054273576E-14  0.00000000000E+00  0.46097920578E+04  0.46174844224E+04  0.26641992197E+03 0.  0.
         25    2    3    3    0    0  0.23980711415E+02  0.32629607918E+02  0.26595349101E+04  0.26627771128E+04  0.12496498881E+03 0.  0.
         25    2    3    3    0    0 -0.23980711415E+02 -0.32629607918E+02  0.19502571477E+04  0.19547073096E+04  0.12545101942E+03 0.  0.
          5    1    4    4  502    0 -0.83523776181E+01 -0.33222096138E+02  0.17280796836E+04  0.17284255705E+04  0.47000000000E+01 0.  1.
         -5    1    4    4    0  502  0.32333089033E+02  0.65851704055E+02  0.93145522653E+03  0.93435154231E+03  0.47000000000E+01 0.  1.
          5    1    5    5  503    0 -0.25656606156E+02 -0.78787236261E+02  0.14192390147E+04  0.14216635188E+04  0.47000000000E+01 0. -1.
         -5    1    5    5    0  503  0.16758947415E+01  0.46157628343E+02  0.53101813301E+03  0.53304379075E+03  0.47000000000E+01 0. -1.
<mgrwt>
<rscale>  0 0.26641992E+03</rscale>
<asrwt>0</asrwt>
<pdfrwt beam="1">  1        2 0.70978607E+00 0.26641992E+03</pdfrwt>
<pdfrwt beam="2">  1       -2 0.59172405E-03 0.26641992E+03</pdfrwt>
<totfact> 0.60492532E+02</totfact>
</mgrwt>
</event>
<event>
 9    1  0.7926126E-001  0.2750769E+03  0.7818608E-02  0.1098409E+00
         -1   -1    0    0    0  501 -0.00000000000E+00  0.00000000000E+00  0.13748402165E+02  0.13748402165E+02  0.00000000000E+00 0.  1.
          1   -1    0    0  501    0  0.00000000000E+00 -0.00000000000E+00 -0.13759291227E+04  0.13759291227E+04  0.00000000000E+00 0.  1.
         35    2    1    2    0    0  0.00000000000E+00  0.14210854715E-13 -0.13621807205E+04  0.13896775249E+04  0.27507691236E+03 0.  0.
         25    2    3    3    0    0 -0.15760644289E+00 -0.55433538889E+02 -0.59195394522E+03  0.60758274605E+03  0.12519751581E+03 0.  0.
         25    2    3    3    0    0  0.15760644289E+00  0.55433538889E+02 -0.77022677531E+03  0.78209477880E+03  0.12389534115E+03 0.  0.
          5    1    4    4  502    0 -0.54292614685E+02 -0.55223495094E+01 -0.15386146782E+03  0.16332062220E+03  0.47000000000E+01 0. -1.
         -5    1    4    4    0  502  0.54135008242E+02 -0.49911189380E+02 -0.43809247740E+03  0.44426212386E+03  0.47000000000E+01 0. -1.
          5    1    5    5  503    0  0.53353023619E+02 -0.43639251386E+01 -0.37374867890E+03  0.37759204700E+03  0.47000000000E+01 0.  1.
         -5    1    5    5    0  503 -0.53195417176E+02  0.59797464028E+02 -0.39647809640E+03  0.40450273181E+03  0.47000000000E+01 0.  1.
<mgrwt>
<rscale>  0 0.27507691E+03</rscale>
<asrwt>0</asrwt>
<pdfrwt beam="1">  1        1 0.21168139E+00 0.27507691E+03</pdfrwt>
<pdfrwt beam="2">  1       -1 0.21151389E-02 0.27507691E+03</pdfrwt>
<totfact> 0.54726495E+03</totfact>
</mgrwt>
</event>
<event>
 9    1  0.7926126E-001  0.2832545E+03  0.7818608E-02  0.1093925E+00
         -2   -1    0    0    0  501 -0.00000000000E+00  0.00000000000E+00  0.26385200479E+02  0.26385200479E+02  0.00000000000E+00 0.  1.
          2   -1    0    0  501    0  0.00000000000E+00 -0.00000000000E+00 -0.76020926126E+03  0.76020926126E+03  0.00000000000E+00 0.  1.
         35    2    1    2    0    0  0.00000000000E+00 -0.14210854715E-13 -0.73382406078E+03  0.78659446174E+03  0.28325447050E+03 0.  0.
         25    2    3    3    0    0 -0.39377810237E+02  0.34441844182E+02 -0.48280121378E+03  0.50145696078E+03  0.12500087568E+03 0.  0.
         25    2    3    3    0    0  0.39377810237E+02 -0.34441844182E+02 -0.25102284700E+03  0.28513750096E+03  0.12471596596E+03 0.  0.
          5    1    4    4  502    0  0.71723396200E+01  0.64911026637E+02 -0.14532989210E+03  0.15939809087E+03  0.47000000000E+01 0.  1.
         -5    1    4    4    0  502 -0.46550149857E+02 -0.30469182455E+02 -0.33747132167E+03  0.34205886991E+03  0.47000000000E+01 0.  1.
          5    1    5    5  503    0  0.39809579717E+02 -0.71261294839E+02 -0.97765318882E+02  0.12744850864E+03  0.47000000000E+01 0.  1.
         -5    1    5    5    0  503 -0.43176948010E+00  0.36819450657E+02 -0.15325752812E+03  0.15768899232E+03  0.47000000000E+01 0.  1.
<mgrwt>
<rscale>  0 0.28325447E+03</rscale>
<asrwt>0</asrwt>
<pdfrwt beam="1">  1        2 0.11695526E+00 0.28325447E+03</pdfrwt>
<pdfrwt beam="2">  1       -2 0.40592619E-02 0.28325447E+03</pdfrwt>
<totfact> 0.10152633E+04</totfact>
</mgrwt>
</event>
<event>
 9    1  0.7926126E-001  0.2834926E+03  0.7818608E-02  0.1093797E+00
          1   -1    0    0  501    0  0.00000000000E+00  0.00000000000E+00  0.88771151771E+02  0.88771151771E+02  0.00000000000E+00 0.  1.
         -1   -1    0    0    0  501 -0.00000000000E+00 -0.00000000000E+00 -0.22633487239E+03  0.22633487239E+03  0.00000000000E+00 0.  1.
         35    2    1    2    0    0  0.35527136788E-14  0.00000000000E+00 -0.13756372062E+03  0.31510602416E+03  0.28349255587E+03 0.  0.
         25    2    3    3    0    0 -0.15334778300E+02  0.72751722148E+02 -0.78951812017E+02  0.16570867877E+03  0.12529169604E+03 0.  0.
         25    2    3    3    0    0  0.15334778300E+02 -0.72751722148E+02 -0.58611908601E+02  0.14939734539E+03  0.11556921078E+03 0.  0.
          5    1    4    4  502    0 -0.39416195169E+02  0.61073954201E+02 -0.10518172088E+03  0.12794119247E+03  0.47000000000E+01 0.  1.
         -5    1    4    4    0  502  0.24081416869E+02  0.11677767947E+02  0.26229908859E+02  0.37767486300E+02  0.47000000000E+01 0.  1.
          5    1    5    5  503    0 -0.79224589382E+01 -0.37640193600E+02  0.31421539556E+02  0.49889404466E+02  0.47000000000E+01 0. -1.
         -5    1    5    5    0  503  0.23257237238E+02 -0.35111528548E+02 -0.90033448157E+02  0.99507940929E+02  0.47000000000E+01 0. -1.
<mgrwt>
<rscale>  0 0.28349256E+03</rscale>
<asrwt>0</asrwt>
<pdfrwt beam="1">  1        1 0.13657100E-01 0.28349256E+03</pdfrwt>
<pdfrwt beam="2">  1       -1 0.34820749E-01 0.28349256E+03</pdfrwt>
<totfact> 0.33191234E+03</totfact>
</mgrwt>
</event>
<event>
 9    1  0.7926126E-001  0.2625183E+03  0.7818608E-02  0.1105640E+00
          2   -1    0    0  501    0  0.00000000000E+00  0.00000000000E+00  0.64725835317E+03  0.64725835317E+03  0.00000000000E+00 0. -1.
         -2   -1    0    0    0  501 -0.00000000000E+00 -0.00000000000E+00 -0.26618367837E+02  0.26618367837E+02  0.00000000000E+00 0. -1.
         35    2    1    2    0    0 -0.71054273576E-14  0.71054273576E-14  0.62063998533E+03  0.67387672101E+03  0.26251827312E+03 0.  0.
         25    2    3    3    0    0  0.70842312043E+01  0.21870951766E+02  0.24196854312E+03  0.27394266894E+03  0.12636172341E+03 0.  0.
         25    2    3    3    0    0 -0.70842312043E+01 -0.21870951766E+02  0.37867144221E+03  0.39993405207E+03  0.12659644543E+03 0.  0.
          5    1    4    4  502    0 -0.56134320025E+02  0.19859955817E+02  0.15650652488E+03  0.16751675158E+03  0.47000000000E+01 0.  1.
         -5    1    4    4    0  502  0.63218551229E+02  0.20109959494E+01  0.85462018249E+02  0.10642591737E+03  0.47000000000E+01 0.  1.
          5    1    5    5  503    0  0.46746734010E+02 -0.48927646026E+02  0.21598448388E+03  0.22638586299E+03  0.47000000000E+01 0. -1.
         -5    1    5    5    0  503 -0.53830965214E+02  0.27056694259E+02  0.16268695833E+03  0.17354818907E+03  0.47000000000E+01 0. -1.
<mgrwt>
<rscale>  0 0.26251827E+03</rscale>
<asrwt>0</asrwt>
<pdfrwt beam="1">  1        2 0.99578196E-01 0.26251827E+03</pdfrwt>
<pdfrwt beam="2">  1       -2 0.40951340E-02 0.26251827E+03</pdfrwt>
<totfact> 0.12146970E+04</totfact>
</mgrwt>
</event>
<event>
 9    1  0.7926126E-001  0.2724960E+03  0.7818608E-02  0.1099860E+00
          2   -1    0    0  501    0  0.00000000000E+00  0.00000000000E+00  0.10257061069E+04  0.10257061069E+04  0.00000000000E+00 0. -1.
         -2   -1    0    0    0  501 -0.00000000000E+00 -0.00000000000E+00 -0.18098285639E+02  0.18098285639E+02  0.00000000000E+00 0. -1.
         35    2    1    2    0    0  0.00000000000E+00  0.00000000000E+00  0.10076078213E+04  0.10438043926E+04  0.27249603377E+03 0.  0.
         25    2    3    3    0    0  0.31718898590E+02 -0.27141242589E+01  0.67385773113E+03  0.68603082594E+03  0.12466193222E+03 0.  0.
         25    2    3    3    0    0 -0.31718898590E+02  0.27141242589E+01  0.33375009016E+03  0.35777356662E+03  0.12489734703E+03 0.  0.
          5    1    4    4  502    0  0.41936476038E+01 -0.77470269298E+01  0.64662784714E+03  0.64670492947E+03  0.47000000000E+01 0.  1.
         -5    1    4    4    0  502  0.27525250987E+02  0.50329026709E+01  0.27229883985E+02  0.39325896468E+02  0.47000000000E+01 0.  1.
          5    1    5    5  503    0 -0.19796257643E+02  0.62539711751E+02  0.20363299579E+03  0.21398970615E+03  0.47000000000E+01 0.  1.
         -5    1    5    5    0  503 -0.11922640948E+02 -0.59825587492E+02  0.13011709436E+03  0.14378386047E+03  0.47000000000E+01 0.  1.
<mgrwt>
<rscale>  0 0.27249603E+03</rscale>
<asrwt>0</asrwt>
<pdfrwt beam="1">  1        2 0.15780089E+00 0.27249603E+03</pdfrwt>
<pdfrwt beam="2">  1       -2 0.27843524E-02 0.27249603E+03</pdfrwt>
<totfact> 0.11954433E+04</totfact>
</mgrwt>
</event>
<event>
 9    1  0.7926126E-001  0.2737791E+03  0.7818608E-02  0.1099136E+00
          3   -1    0    0  501    0  0.00000000000E+00  0.00000000000E+00  0.49348183027E+02  0.49348183027E+02  0.00000000000E+00 0.  1.
         -3   -1    0    0    0  501 -0.00000000000E+00 -0.00000000000E+00 -0.37972529469E+03  0.37972529469E+03  0.00000000000E+00 0.  1.
         35    2    1    2    0    0  0.71054273576E-14 -0.71054273576E-14 -0.33037711166E+03  0.42907347771E+03  0.27377913246E+03 0.  0.
         25    2    3    3    0    0  0.12243761507E+02 -0.57420680279E+02 -0.17073838000E+03  0.21804990712E+03  0.12225842863E+03 0.  0.
         25    2    3    3    0    0 -0.12243761507E+02  0.57420680279E+02 -0.15963873166E+03  0.21102357059E+03  0.12489747187E+03 0.  0.
          5    1    4    4  502    0  0.47217011622E+02 -0.44288594110E+02 -0.28458654644E+02  0.70872496632E+02  0.47000000000E+01 0.  1.
         -5    1    4    4    0  502 -0.34973250115E+02 -0.13132086169E+02 -0.14227972536E+03  0.14717741049E+03  0.47000000000E+01 0.  1.
          5    1    5    5  503    0  0.36922173990E+02 -0.20760343019E+02 -0.71708398238E+02  0.83417163416E+02  0.47000000000E+01 0.  1.
         -5    1    5    5    0  503 -0.49165935497E+02  0.78181023297E+02 -0.87930333418E+02  0.12760640718E+03  0.47000000000E+01 0.  1.
<mgrwt>
<rscale>  0 0.27377913E+03</rscale>
<asrwt>0</asrwt>
<pdfrwt beam="1">  1        3 0.75920282E-02 0.27377913E+03</pdfrwt>
<pdfrwt beam="2">  1       -3 0.58419276E-01 0.27377913E+03</pdfrwt>
<totfact> 0.85885594E+02</totfact>
</mgrwt>
</event>
<event>
 9    1  0.7926126E-001  0.2734477E+03  0.7818608E-02  0.1099322E+00
          2   -1    0    0  501    0  0.00000000000E+00  0.00000000000E+00  0.15777055251E+03  0.15777055251E+03  0.00000000000E+00 0.  1.
         -2   -1    0    0    0  501 -0.00000000000E+00 -0.00000000000E+00 -0.11848475515E+03  0.11848475515E+03  0.00000000000E+00 0.  1.
         35    2    1    2    0    0  0.14210854715E-13  0.00000000000E+00  0.39285797362E+02  0.27625530766E+03  0.27344765703E+03 0.  0.
         25    2    3    3    0    0 -0.45203720637E+02  0.14558583893E+02 -0.96996925781E+01  0.13429935528E+03  0.12524737150E+03 0.  0.
         25    2    3    3    0    0  0.45203720637E+02 -0.14558583893E+02  0.48985489940E+02  0.14195595238E+03  0.12448528213E+03 0.  0.
          5    1    4    4  502    0 -0.58925585861E+02 -0.42475778169E+02  0.69982829983E+01  0.73126481968E+02  0.47000000000E+01 0.  1.
         -5    1    4    4    0  502  0.13721865224E+02  0.57034362062E+02 -0.16697975576E+02  0.61172873313E+02  0.47000000000E+01 0.  1.
          5    1    5    5  503    0 -0.84835766114E+01 -0.61195732737E+02  0.23487576550E+02  0.66261942543E+02  0.47000000000E+01 0.  1.
         -5    1    5    5    0  503  0.53687297248E+02  0.46637148844E+02  0.25497913390E+02  0.75694009838E+02  0.47000000000E+01 0.  1.
<mgrwt>
<rscale>  0 0.27344766E+03</rscale>
<asrwt>0</asrwt>
<pdfrwt beam="1">  1        2 0.24272393E-01 0.27344766E+03</pdfrwt>
<pdfrwt beam="2">  1       -2 0.18228424E-01 0.27344766E+03</pdfrwt>
<totfact> 0.54409955E+03</totfact>
</mgrwt>
</event>
<event>
 9    1  0.7926126E-001  0.2717116E+03  0.7818608E-02  0.1100304E+00
         -1   -1    0    0    0  501 -0.00000000000E+00  0.00000000000E+00  0.36826822924E+02  0.36826822924E+02  0.00000000000E+00 0.  1.
          1   -1    0    0  501    0  0.00000000000E+00 -0.00000000000E+00 -0.50117815879E+03  0.50117815879E+03  0.00000000000E+00 0.  1.
         35    2    1    2    0    0  0.00000000000E+00  0.00000000000E+00 -0.46435133587E+03  0.53800498171E+03  0.27171160672E+03 0.  0.
         25    2    3    3    0    0  0.48228049606E+02  0.16251423212E+02 -0.18137886564E+03  0.22575320200E+03  0.12440322257E+03 0.  0.
         25    2    3    3    0    0 -0.48228049606E+02 -0.16251423212E+02 -0.28297247022E+03  0.31225177971E+03  0.12181010428E+03 0.  0.
          5    1    4    4  502    0 -0.20620825689E+02  0.46699490709E+02 -0.38239368953E+02  0.63956236776E+02  0.47000000000E+01 0. -1.
         -5    1    4    4    0  502  0.68848875295E+02 -0.30448067497E+02 -0.14313949669E+03  0.16179696522E+03  0.47000000000E+01 0. -1.
          5    1    5    5  503    0 -0.45081608128E+02 -0.59651658989E+01 -0.29316341028E+03  0.29670660546E+03  0.47000000000E+01 0. -1.
         -5    1    5    5    0  503 -0.31464414778E+01 -0.10286257313E+02  0.10190940054E+02  0.15545174257E+02  0.47000000000E+01 0. -1.
<mgrwt>
<rscale>  0 0.27171161E+03</rscale>
<asrwt>0</asrwt>
<pdfrwt beam="1">  1        1 0.77104333E-01 0.27171161E+03</pdfrwt>
<pdfrwt beam="2">  1       -1 0.56656650E-02 0.27171161E+03</pdfrwt>
<totfact> 0.65253467E+03</totfact>
</mgrwt>
</event>
<event>
 9    1  0.7926126E-001  0.2768535E+03  0.7818608E-02  0.1097420E+00
         -1   -1    0    0    0  501 -0.00000000000E+00  0.00000000000E+00  0.41506774343E+02  0.41506774343E+02  0.00000000000E+00 0. -1.
          1   -1    0    0  501    0  0.00000000000E+00 -0.00000000000E+00 -0.46165883174E+03  0.46165883174E+03  0.00000000000E+00 0. -1.
         35    2    1    2    0    0 -0.35527136788E-14  0.71054273576E-14 -0.42015205740E+03  0.50316560608E+03  0.27685352772E+03 0.  0.
         25    2    3    3    0    0  0.12078562290E+02  0.29801740977E+02 -0.12519459635E+03  0.18104638397E+03  0.12676778282E+03 0.  0.
         25    2    3    3    0    0 -0.12078562290E+02 -0.29801740977E+02 -0.29495746104E+03  0.32211922211E+03  0.12540675419E+03 0.  0.
          5    1    4    4  502    0 -0.23844244512E+02  0.67029183016E+02 -0.41372573852E+02  0.82433241106E+02  0.47000000000E+01 0. -1.
         -5    1    4    4    0  502  0.35922806802E+02 -0.37227442038E+02 -0.83822022500E+02  0.98613142863E+02  0.47000000000E+01 0. -1.
          5    1    5    5  503    0 -0.38828885365E+02 -0.28409867360E+02 -0.32486655558E+02  0.58243245887E+02  0.47000000000E+01 0.  1.
         -5    1    5    5    0  503  0.26750323075E+02 -0.13918736179E+01 -0.26247080549E+03  0.26387597623E+03  0.47000000000E+01 0.  1.
<mgrwt>
<rscale>  0 0.27685353E+03</rscale>
<asrwt>0</asrwt>
<pdfrwt beam="1">  1        1 0.71024438E-01 0.27685353E+03</pdfrwt>
<pdfrwt beam="2">  1       -1 0.63856573E-02 0.27685353E+03</pdfrwt>
<totfact> 0.60747577E+03</totfact>
</mgrwt>
</event>
<event>
 9    1  0.7926126E-001  0.2724995E+03  0.7818608E-02  0.1099858E+00
         -1   -1    0    0    0  501 -0.00000000000E+00  0.00000000000E+00  0.15657257507E+02  0.15657257507E+02  0.00000000000E+00 0. -1.
          1   -1    0    0  501    0  0.00000000000E+00 -0.00000000000E+00 -0.11856477981E+04  0.11856477981E+04  0.00000000000E+00 0. -1.
         35    2    1    2    0    0  0.00000000000E+00 -0.17763568394E-14 -0.11699905406E+04  0.12013050556E+04  0.27249948908E+03 0.  0.
         25    2    3    3    0    0 -0.33052729876E+02  0.19602671575E+01 -0.51457105923E+03  0.53101428336E+03  0.12687185873E+03 0.  0.
         25    2    3    3    0    0  0.33052729876E+02 -0.19602671575E+01 -0.65541948137E+03  0.67029077225E+03  0.13645034704E+03 0.  0.
          5    1    4    4  502    0  0.18432640712E+02  0.53054242558E+02 -0.17910124514E+03  0.18776011533E+03  0.47000000000E+01 0. -1.
         -5    1    4    4    0  502 -0.51485370588E+02 -0.51093975401E+02 -0.33546981408E+03  0.34325416803E+03  0.47000000000E+01 0. -1.
          5    1    5    5  503    0  0.76463733286E+01  0.68506890907E+01 -0.63758038474E+03  0.63768035564E+03  0.47000000000E+01 0. -1.
         -5    1    5    5    0  503  0.25406356547E+02 -0.88109562482E+01 -0.17839096632E+02  0.32610416613E+02  0.47000000000E+01 0. -1.
<mgrwt>
<rscale>  0 0.27249949E+03</rscale>
<asrwt>0</asrwt>
<pdfrwt beam="1">  1        1 0.18240742E+00 0.27249949E+03</pdfrwt>
<pdfrwt beam="2">  1       -1 0.24088080E-02 0.27249949E+03</pdfrwt>
<totfact> 0.61108392E+03</totfact>
</mgrwt>
</event>
<event>
 9    1  0.7926126E-001  0.2716842E+03  0.7818608E-02  0.1100320E+00
          2   -1    0    0  501    0  0.00000000000E+00  0.00000000000E+00  0.59155555940E+03  0.59155555940E+03  0.00000000000E+00 0. -1.
         -2   -1    0    0    0  501 -0.00000000000E+00 -0.00000000000E+00 -0.31194164503E+02  0.31194164503E+02  0.00000000000E+00 0. -1.
         35    2    1    2    0    0  0.71054273576E-14  0.00000000000E+00  0.56036139490E+03  0.62274972390E+03  0.27168423902E+03 0.  0.
         25    2    3    3    0    0  0.27927485106E+02 -0.44838570861E+02  0.27710065378E+03  0.30863226382E+03  0.12521445636E+03 0.  0.
         25    2    3    3    0    0 -0.27927485106E+02  0.44838570861E+02  0.28326074111E+03  0.31411746008E+03  0.12507073763E+03 0.  0.
          5    1    4    4  502    0 -0.12764029965E+02  0.20019216141E+02  0.34674397806E+01  0.24450002341E+02  0.47000000000E+01 0.  1.
         -5    1    4    4    0  502  0.40691515071E+02 -0.64857787002E+02  0.27363321400E+03  0.28418226148E+03  0.47000000000E+01 0.  1.
          5    1    5    5  503    0  0.12298114742E+02 -0.28231494399E+02  0.17923301682E+02  0.35938776349E+02  0.47000000000E+01 0.  1.
         -5    1    5    5    0  503 -0.40225599848E+02  0.73070065261E+02  0.26533743943E+03  0.27817868373E+03  0.47000000000E+01 0.  1.
<mgrwt>
<rscale>  0 0.27168424E+03</rscale>
<asrwt>0</asrwt>
<pdfrwt beam="1">  1        2 0.91008539E-01 0.27168424E+03</pdfrwt>
<pdfrwt beam="2">  1       -2 0.47991027E-02 0.27168424E+03</pdfrwt>
<totfact> 0.10635084E+04</totfact>
</mgrwt>
</event>
<event>
 9    1  0.7926126E-001  0.2728772E+03  0.7818608E-02  0.1099644E+00
         -1   -1    0    0    0  501 -0.00000000000E+00  0.00000000000E+00  0.88644600580E+02  0.88644600580E+02  0.00000000000E+00 0.  1.
          1   -1    0    0  501    0  0.00000000000E+00 -0.00000000000E+00 -0.21000139562E+03  0.21000139562E+03  0.00000000000E+00 0.  1.
         35    2    1    2    0    0  0.71054273576E-14 -0.71054273576E-14 -0.12135679504E+03  0.29864599620E+03  0.27287718729E+03 0.  0.
         25    2    3    3    0    0 -0.33349948771E+02  0.25500834934E+02 -0.90294674076E+02  0.16307736314E+03  0.12914560209E+03 0.  0.
         25    2    3    3    0    0  0.33349948771E+02 -0.25500834934E+02 -0.31062120961E+02  0.13556863305E+03  0.12510590411E+03 0.  0.
          5    1    4    4  502    0  0.11024859372E+02 -0.26041317757E+02  0.18908098002E+02  0.34340994813E+02  0.47000000000E+01 0. -1.
         -5    1    4    4    0  502 -0.44374808143E+02  0.51542152691E+02 -0.10920277208E+03  0.12873636833E+03  0.47000000000E+01 0. -1.
          5    1    5    5  503    0  0.15222955742E+02 -0.75322258520E+02 -0.29109873738E+02  0.82308297025E+02  0.47000000000E+01 0.  1.
         -5    1    5    5    0  503  0.18126993029E+02  0.49821423586E+02 -0.19522472229E+01  0.53260336027E+02  0.47000000000E+01 0.  1.
<mgrwt>
<rscale>  0 0.27287719E+03</rscale>
<asrwt>0</asrwt>
<pdfrwt beam="1">  1        1 0.32307907E-01 0.27287719E+03</pdfrwt>
<pdfrwt beam="2">  1       -1 0.13637631E-01 0.27287719E+03</pdfrwt>
<totfact> 0.51187634E+03</totfact>
</mgrwt>
</event>
<event>
 9    1  0.7926126E-001  0.2778997E+03  0.7818608E-02  0.1096842E+00
          4   -1    0    0  501    0  0.00000000000E+00  0.00000000000E+00  0.11356013719E+04  0.11356013719E+04  0.00000000000E+00 0. -1.
         -4   -1    0    0    0  501 -0.00000000000E+00 -0.00000000000E+00 -0.17001618756E+02  0.17001618756E+02  0.00000000000E+00 0. -1.
         35    2    1    2    0    0  0.35527136788E-14  0.00000000000E+00  0.11185997531E+04  0.11526029906E+04  0.27789970553E+03 0.  0.
         25    2    3    3    0    0 -0.17761594778E+02  0.17414809626E+02  0.31670227083E+03  0.34069031253E+03  0.12308863010E+03 0.  0.
         25    2    3    3    0    0  0.17761594778E+02 -0.17414809626E+02  0.80189748227E+03  0.81191267808E+03  0.12467507735E+03 0.  0.
          5    1    4    4  502    0  0.12518808577E+01  0.53831067019E+02  0.28072350774E+03  0.28587957041E+03  0.47000000000E+01 0.  1.
         -5    1    4    4    0  502 -0.19013475635E+02 -0.36416257392E+02  0.35978763096E+02  0.54810742123E+02  0.47000000000E+01 0.  1.
          5    1    5    5  503    0  0.18249809325E+02  0.14942010825E+02  0.75119556922E+03  0.75158046305E+03  0.47000000000E+01 0.  1.
         -5    1    5    5    0  503 -0.48821454743E+00 -0.32356820451E+02  0.50701913054E+02  0.60332215031E+02  0.47000000000E+01 0.  1.
<mgrwt>
<rscale>  0 0.27789971E+03</rscale>
<asrwt>0</asrwt>
<pdfrwt beam="1">  1        4 0.17470784E+00 0.27789971E+03</pdfrwt>
<pdfrwt beam="2">  1       -4 0.26156345E-02 0.27789971E+03</pdfrwt>
<totfact> 0.26424012E+02</totfact>
</mgrwt>
</event>
<event>
 9    1  0.7926126E-001  0.2751252E+03  0.7818608E-02  0.1098382E+00
         -2   -1    0    0    0  501 -0.00000000000E+00  0.00000000000E+00  0.34038968543E+02  0.34038968543E+02  0.00000000000E+00 0.  1.
          2   -1    0    0  501    0  0.00000000000E+00 -0.00000000000E+00 -0.55593553760E+03  0.55593553760E+03  0.00000000000E+00 0.  1.
         35    2    1    2    0    0  0.71054273576E-14  0.00000000000E+00 -0.52189656905E+03  0.58997450614E+03  0.27512522440E+03 0.  0.
         25    2    3    3    0    0 -0.49724065266E+02  0.20776323764E+02 -0.28396102389E+03  0.31506771579E+03  0.12541795786E+03 0.  0.
         25    2    3    3    0    0  0.49724065266E+02 -0.20776323764E+02 -0.23793554517E+03  0.27490679034E+03  0.12671338299E+03 0.  0.
          5    1    4    4  502    0 -0.73909200590E+02  0.28292887046E+02 -0.92256976526E+02  0.12164085295E+03  0.47000000000E+01 0. -1.
         -5    1    4    4    0  502  0.24185135324E+02 -0.75165632824E+01 -0.19170404736E+03  0.19342686284E+03  0.47000000000E+01 0. -1.
          5    1    5    5  503    0 -0.26006231134E+02  0.42907899022E+01 -0.32261895903E+01  0.26967262283E+02  0.47000000000E+01 0.  1.
         -5    1    5    5    0  503  0.75730296399E+02 -0.25067113666E+02 -0.23470935558E+03  0.24793952806E+03  0.47000000000E+01 0.  1.
<mgrwt>
<rscale>  0 0.27512522E+03</rscale>
<asrwt>0</asrwt>
<pdfrwt beam="1">  1        2 0.85528538E-01 0.27512522E+03</pdfrwt>
<pdfrwt beam="2">  1       -2 0.52367648E-02 0.27512522E+03</pdfrwt>
<totfact> 0.10007810E+04</totfact>
</mgrwt>
</event>
<event>
 9    1  0.7926126E-001  0.2752227E+03  0.7818608E-02  0.1098327E+00
          2   -1    0    0  501    0  0.00000000000E+00  0.00000000000E+00  0.30460498507E+03  0.30460498507E+03  0.00000000000E+00 0.  1.
         -2   -1    0    0    0  501 -0.00000000000E+00 -0.00000000000E+00 -0.62168657760E+02  0.62168657760E+02  0.00000000000E+00 0.  1.
         35    2    1    2    0    0 -0.14210854715E-13  0.35527136788E-14  0.24243632731E+03  0.36677364283E+03  0.27522269578E+03 0.  0.
         25    2    3    3    0    0 -0.54441305938E+02  0.29662423569E+02  0.12174087095E+03  0.18526990493E+03  0.12514145137E+03 0.  0.
         25    2    3    3    0    0  0.54441305938E+02 -0.29662423569E+02  0.12069545636E+03  0.18150373790E+03  0.12055081302E+03 0.  0.
          5    1    4    4  502    0 -0.69089030173E+01 -0.24557538398E+02 -0.15464742757E+02  0.30200230159E+02  0.47000000000E+01 0. -1.
         -5    1    4    4    0  502 -0.47532402921E+02  0.54219961967E+02  0.13720561370E+03  0.15506967477E+03  0.47000000000E+01 0. -1.
          5    1    5    5  503    0 -0.31764726618E+01 -0.15063734313E+01  0.11694598503E+03  0.11709317894E+03  0.47000000000E+01 0.  1.
         -5    1    5    5    0  503  0.57617778600E+02 -0.28156050138E+02  0.37494713367E+01  0.64410558959E+02  0.47000000000E+01 0.  1.
<mgrwt>
<rscale>  0 0.27522270E+03</rscale>
<asrwt>0</asrwt>
<pdfrwt beam="1">  1        2 0.46862305E-01 0.27522270E+03</pdfrwt>
<pdfrwt beam="2">  1       -2 0.95644090E-02 0.27522270E+03</pdfrwt>
<totfact> 0.76058009E+03</totfact>
</mgrwt>
</event>
<event>
 8    1  0.7926126E-001  0.4135069E+03  0.7818608E-02  0.1039201E+00
          2   -1    0    0  501    0  0.00000000000E+00  0.00000000000E+00  0.24492766126E+04  0.24492766126E+04  0.00000000000E+00 0. -1.
         -2   -1    0    0    0  501 -0.00000000000E+00 -0.00000000000E+00 -0.17452905233E+02  0.17452905233E+02  0.00000000000E+00 0. -1.
         25    2    1    2    0    0  0.66510306510E+02  0.60985201425E+02  0.20379025756E+04  0.20437311745E+04  0.12508952916E+03 0.  0.
         25    2    1    2    0    0 -0.66510306510E+02 -0.60985201425E+02  0.39392113180E+03  0.42299834337E+03  0.12494368631E+03 0.  0.
          5    1    3    3  502    0  0.22735819862E+02 -0.17532289811E+02  0.13045596279E+04  0.13048839839E+04  0.47000000000E+01 0. -1.
         -5    1    3    3    0  502  0.43774486649E+02  0.78517491236E+02  0.73334294769E+03  0.73884719059E+03  0.47000000000E+01 0. -1.
          5    1    4    4  503    0 -0.16784510170E+02  0.23762082819E+01  0.29420380768E+03  0.29472925984E+03  0.47000000000E+01 0. -1.
         -5    1    4    4    0  503 -0.49725796340E+02 -0.63361409707E+02  0.99717324115E+02  0.12826908353E+03  0.47000000000E+01 0. -1.
<mgrwt>
<rscale>  0 0.41350692E+03</rscale>
<asrwt>0</asrwt>
<pdfrwt beam="1">  1        2 0.37681151E+00 0.41350692E+03</pdfrwt>
<pdfrwt beam="2">  1       -2 0.26850643E-02 0.41350692E+03</pdfrwt>
<totfact> 0.21114708E+03</totfact>
</mgrwt>
</event>
<event>
 9    1  0.7926126E-001  0.2756224E+03  0.7818608E-02  0.1098104E+00
          1   -1    0    0  501    0  0.00000000000E+00  0.00000000000E+00  0.22115703627E+03  0.22115703627E+03  0.00000000000E+00 0.  1.
         -1   -1    0    0    0  501 -0.00000000000E+00 -0.00000000000E+00 -0.85875309076E+02  0.85875309076E+02  0.00000000000E+00 0.  1.
         35    2    1    2    0    0 -0.71054273576E-14  0.71054273576E-14  0.13528172720E+03  0.30703234535E+03  0.27562241450E+03 0.  0.
         25    2    3    3    0    0 -0.53228578715E+01 -0.58484619113E+02  0.70407359161E+02  0.15484214693E+03  0.12478024985E+03 0.  0.
         25    2    3    3    0    0  0.53228578715E+01  0.58484619113E+02  0.64874368036E+02  0.15219019842E+03  0.12451662290E+03 0.  0.
          5    1    4    4  502    0  0.27261190396E+02 -0.19919230175E+02  0.93207749087E+02  0.99245769292E+02  0.47000000000E+01 0.  1.
         -5    1    4    4    0  502 -0.32584048268E+02 -0.38565388938E+02 -0.22800389926E+02  0.55596377636E+02  0.47000000000E+01 0.  1.
          5    1    5    5  503    0 -0.33749719049E+02  0.93513568146E+01 -0.24408623311E+02  0.42946039422E+02  0.47000000000E+01 0. -1.
         -5    1    5    5    0  503  0.39072576921E+02  0.49133262298E+02  0.89282991347E+02  0.10924415900E+03  0.47000000000E+01 0. -1.
<mgrwt>
<rscale>  0 0.27562241E+03</rscale>
<asrwt>0</asrwt>
<pdfrwt beam="1">  1        1 0.34024159E-01 0.27562241E+03</pdfrwt>
<pdfrwt beam="2">  1       -1 0.13211586E-01 0.27562241E+03</pdfrwt>
<totfact> 0.50434116E+03</totfact>
</mgrwt>
</event>
<event>
 9    1  0.7926126E-001  0.2818943E+03  0.7818608E-02  0.1094659E+00
         -2   -1    0    0    0  501 -0.00000000000E+00  0.00000000000E+00  0.10505502033E+03  0.10505502033E+03  0.00000000000E+00 0.  1.
          2   -1    0    0  501    0  0.00000000000E+00 -0.00000000000E+00 -0.18910181088E+03  0.18910181088E+03  0.00000000000E+00 0.  1.
         35    2    1    2    0    0  0.35527136788E-14 -0.71054273576E-14 -0.84046790550E+02  0.29415683120E+03  0.28189426802E+03 0.  0.
         25    2    3    3    0    0 -0.21011561998E+02  0.55507715467E+02 -0.11406950099E+02  0.13806450649E+03  0.12413338482E+03 0.  0.
         25    2    3    3    0    0  0.21011561998E+02 -0.55507715467E+02 -0.72639840451E+02  0.15609232472E+03  0.12476247513E+03 0.  0.
          5    1    4    4  502    0  0.10723435271E+02 -0.28524052681E+02  0.26306529324E+02  0.40530693683E+02  0.47000000000E+01 0. -1.
         -5    1    4    4    0  502 -0.31734997269E+02  0.84031768148E+02 -0.37713479423E+02  0.97533812803E+02  0.47000000000E+01 0. -1.
          5    1    5    5  503    0  0.33270107513E+02  0.21079164256E+02  0.11758175709E+02  0.41371196691E+02  0.47000000000E+01 0. -1.
         -5    1    5    5    0  503 -0.12258545515E+02 -0.76586879723E+02 -0.84398016160E+02  0.11472112803E+03  0.47000000000E+01 0. -1.
<mgrwt>
<rscale>  0 0.28189427E+03</rscale>
<asrwt>0</asrwt>
<pdfrwt beam="1">  1        2 0.29092586E-01 0.28189427E+03</pdfrwt>
<pdfrwt beam="2">  1       -2 0.16162311E-01 0.28189427E+03</pdfrwt>
<totfact> 0.54503068E+03</totfact>
</mgrwt>
</event>
<event>
 9    1  0.7926126E-001  0.2808283E+03  0.7818608E-02  0.1095237E+00
         -3   -1    0    0    0  501 -0.00000000000E+00  0.00000000000E+00  0.51410614518E+02  0.51410614518E+02  0.00000000000E+00 0. -1.
          3   -1    0    0  501    0  0.00000000000E+00 -0.00000000000E+00 -0.38350304678E+03  0.38350304678E+03  0.00000000000E+00 0. -1.
         35    2    1    2    0    0 -0.10658141036E-13  0.00000000000E+00 -0.33209243226E+03  0.43491366129E+03  0.28082825573E+03 0.  0.
         25    2    3    3    0    0  0.27191017491E+02  0.37142705425E+02 -0.23511436872E+03  0.27005360957E+03  0.12462445050E+03 0.  0.
         25    2    3    3    0    0 -0.27191017491E+02 -0.37142705425E+02 -0.96978063534E+02  0.16486005172E+03  0.12512058123E+03 0.  0.
          5    1    4    4  502    0  0.65445096568E+01  0.10200533436E+02 -0.23542628468E+03  0.23578487442E+03  0.47000000000E+01 0. -1.
         -5    1    4    4    0  502  0.20646507834E+02  0.26942171989E+02  0.31191595267E+00  0.34268735150E+02  0.47000000000E+01 0. -1.
          5    1    5    5  503    0 -0.63355900521E+02 -0.45091152345E+02 -0.10073618593E+03  0.12734618686E+03  0.47000000000E+01 0.  1.
         -5    1    5    5    0  503  0.36164883030E+02  0.79484469202E+01  0.37581224005E+01  0.37513864864E+02  0.47000000000E+01 0.  1.
<mgrwt>
<rscale>  0 0.28082826E+03</rscale>
<asrwt>0</asrwt>
<pdfrwt beam="1">  1        3 0.59000470E-01 0.28082826E+03</pdfrwt>
<pdfrwt beam="2">  1       -3 0.79093252E-02 0.28082826E+03</pdfrwt>
<totfact> 0.78947346E+02</totfact>
</mgrwt>
</event>
<event>
 9    1  0.7926126E-001  0.2746067E+03  0.7818608E-02  0.1098672E+00
         -1   -1    0    0    0  501 -0.00000000000E+00  0.00000000000E+00  0.86233876979E+01  0.86233876979E+01  0.00000000000E+00 0.  1.
          1   -1    0    0  501    0  0.00000000000E+00 -0.00000000000E+00 -0.21861720438E+04  0.21861720438E+04  0.00000000000E+00 0.  1.
         35    2    1    2    0    0 -0.35527136788E-14  0.71054273576E-14 -0.21775486561E+04  0.21947954315E+04  0.27460669408E+03 0.  0.
         25    2    3    3    0    0  0.85960028378E+01 -0.54685088860E+02 -0.11685780391E+04  0.11765512538E+04  0.12503547155E+03 0.  0.
         25    2    3    3    0    0 -0.85960028378E+01  0.54685088860E+02 -0.10089706170E+04  0.10182441777E+04  0.12543982315E+03 0.  0.
          5    1    4    4  502    0  0.11599321905E+02 -0.23146180082E+02 -0.42289732321E+02  0.49807643800E+02  0.47000000000E+01 0. -1.
         -5    1    4    4    0  502 -0.30033190667E+01 -0.31538908778E+02 -0.11262883068E+04  0.11267436100E+04  0.47000000000E+01 0. -1.
          5    1    5    5  503    0  0.53954422567E+02  0.38407326911E+02 -0.36220796740E+03  0.36824299603E+03  0.47000000000E+01 0.  1.
         -5    1    5    5    0  503 -0.62550425405E+02  0.16277761949E+02 -0.64676264959E+03  0.65000118166E+03  0.47000000000E+01 0.  1.
<mgrwt>
<rscale>  0 0.27460669E+03</rscale>
<asrwt>0</asrwt>
<pdfrwt beam="1">  1        1 0.33633453E+00 0.27460669E+03</pdfrwt>
<pdfrwt beam="2">  1       -1 0.13266736E-02 0.27460669E+03</pdfrwt>
<totfact> 0.31850959E+03</totfact>
</mgrwt>
</event>
<event>
 9    1  0.7926126E-001  0.2756561E+03  0.7818608E-02  0.1098085E+00
         -1   -1    0    0    0  501 -0.00000000000E+00  0.00000000000E+00  0.74649020854E+02  0.74649020854E+02  0.00000000000E+00 0. -1.
          1   -1    0    0  501    0  0.00000000000E+00 -0.00000000000E+00 -0.25447858838E+03  0.25447858838E+03  0.00000000000E+00 0. -1.
         35    2    1    2    0    0  0.71054273576E-14 -0.71054273576E-14 -0.17982956753E+03  0.32912760924E+03  0.27565614414E+03 0.  0.
         25    2    3    3    0    0 -0.17472108782E+02  0.41193396217E+02 -0.76341087783E+02  0.16036263185E+03  0.13373870619E+03 0.  0.
         25    2    3    3    0    0  0.17472108782E+02 -0.41193396217E+02 -0.10348847975E+03  0.16876497738E+03  0.12557699500E+03 0.  0.
          5    1    4    4  502    0 -0.50212177042E+02 -0.13074481557E+00 -0.92213312222E+02  0.10510311493E+03  0.47000000000E+01 0.  1.
         -5    1    4    4    0  502  0.32740068260E+02  0.41324141033E+02  0.15872224439E+02  0.55259516922E+02  0.47000000000E+01 0.  1.
          5    1    5    5  503    0 -0.14502696886E+02  0.30815176623E+02  0.48538266239E+01  0.34721073719E+02  0.47000000000E+01 0. -1.
         -5    1    5    5    0  503  0.31974805668E+02 -0.72008572840E+02 -0.10834230637E+03  0.13404390367E+03  0.47000000000E+01 0. -1.
<mgrwt>
<rscale>  0 0.27565614E+03</rscale>
<asrwt>0</asrwt>
<pdfrwt beam="1">  1        1 0.39150552E-01 0.27565614E+03</pdfrwt>
<pdfrwt beam="2">  1       -1 0.11484465E-01 0.27565614E+03</pdfrwt>
<totfact> 0.52647322E+03</totfact>
</mgrwt>
</event>
<event>
 9    1  0.7926126E-001  0.2718932E+03  0.7818608E-02  0.1100201E+00
          1   -1    0    0  501    0  0.00000000000E+00  0.00000000000E+00  0.11928998735E+04  0.11928998735E+04  0.00000000000E+00 0. -1.
         -1   -1    0    0    0  501 -0.00000000000E+00 -0.00000000000E+00 -0.15492901164E+02  0.15492901164E+02  0.00000000000E+00 0. -1.
         35    2    1    2    0    0  0.00000000000E+00  0.71054273576E-14  0.11774069724E+04  0.12083927747E+04  0.27189321315E+03 0.  0.
         25    2    3    3    0    0  0.33139659201E+02 -0.27037903252E+02  0.74326877941E+03  0.75449981957E+03  0.12244269703E+03 0.  0.
         25    2    3    3    0    0 -0.33139659201E+02  0.27037903252E+02  0.43413819295E+03  0.45389295512E+03  0.12535373511E+03 0.  0.
          5    1    4    4  502    0  0.19449643098E+02 -0.67618748799E+02  0.61838650646E+03  0.62239420400E+03  0.47000000000E+01 0. -1.
         -5    1    4    4    0  502  0.13690016103E+02  0.40580845546E+02  0.12488227295E+03  0.13210561556E+03  0.47000000000E+01 0. -1.
          5    1    5    5  503    0 -0.74986915544E+02  0.43903846088E+02  0.29210549145E+03  0.30479221338E+03  0.47000000000E+01 0. -1.
         -5    1    5    5    0  503  0.41847256342E+02 -0.16865942836E+02  0.14203270150E+03  0.14910074174E+03  0.47000000000E+01 0. -1.
<mgrwt>
<rscale>  0 0.27189321E+03</rscale>
<asrwt>0</asrwt>
<pdfrwt beam="1">  1        1 0.18352299E+00 0.27189321E+03</pdfrwt>
<pdfrwt beam="2">  1       -1 0.23835242E-02 0.27189321E+03</pdfrwt>
<totfact> 0.61336958E+03</totfact>
</mgrwt>
</event>
<event>
 9    1  0.7926126E-001  0.2744773E+03  0.7818608E-02  0.1098744E+00
          2   -1    0    0  501    0  0.00000000000E+00  0.00000000000E+00  0.14690610179E+04  0.14690610179E+04  0.00000000000E+00 0. -1.
         -2   -1    0    0    0  501 -0.00000000000E+00 -0.00000000000E+00 -0.12820740237E+02  0.12820740237E+02  0.00000000000E+00 0. -1.
         35    2    1    2    0    0  0.00000000000E+00 -0.35527136788E-14  0.14562402776E+04  0.14818817581E+04  0.27447731930E+03 0.  0.
         25    2    3    3    0    0 -0.55411585036E+02 -0.98593421242E+01  0.73693587881E+03  0.74964665348E+03  0.12541118456E+03 0.  0.
         25    2    3    3    0    0  0.55411585036E+02  0.98593421242E+01  0.71930439883E+03  0.73223510464E+03  0.12490708507E+03 0.  0.
          5    1    4    4  502    0 -0.49188048846E+02  0.13837525820E+02  0.71373895138E+03  0.71558110791E+03  0.47000000000E+01 0.  1.
         -5    1    4    4    0  502 -0.62235361897E+01 -0.23696867945E+02  0.23196927422E+02  0.34065545569E+02  0.47000000000E+01 0.  1.
          5    1    5    5  503    0  0.94815773252E+02 -0.17252647203E+01  0.46529920271E+03  0.47488782406E+03  0.47000000000E+01 0. -1.
         -5    1    5    5    0  503 -0.39404188216E+02  0.11584606845E+02  0.25400519612E+03  0.25734728058E+03  0.47000000000E+01 0. -1.
<mgrwt>
<rscale>  0 0.27447732E+03</rscale>
<asrwt>0</asrwt>
<pdfrwt beam="1">  1        2 0.22600925E+00 0.27447732E+03</pdfrwt>
<pdfrwt beam="2">  1       -2 0.19724227E-02 0.27447732E+03</pdfrwt>
<totfact> 0.11184883E+04</totfact>
</mgrwt>
</event>
<event>
 9    1  0.7926126E-001  0.2756742E+03  0.7818608E-02  0.1098075E+00
          2   -1    0    0  501    0  0.00000000000E+00  0.00000000000E+00  0.15897164276E+04  0.15897164276E+04  0.00000000000E+00 0.  1.
         -2   -1    0    0    0  501 -0.00000000000E+00 -0.00000000000E+00 -0.11951233161E+02  0.11951233161E+02  0.00000000000E+00 0.  1.
         35    2    1    2    0    0 -0.14210854715E-13  0.35527136788E-14  0.15777651945E+04  0.16016676608E+04  0.27567424027E+03 0.  0.
         25    2    3    3    0    0  0.38866634157E+02 -0.20722438285E+02  0.56598639386E+03  0.58130107193E+03  0.12502121217E+03 0.  0.
         25    2    3    3    0    0 -0.38866634157E+02  0.20722438285E+02  0.10117788006E+04  0.10203665888E+04  0.12454557239E+03 0.  0.
          5    1    4    4  502    0  0.38476103991E+02 -0.14915584125E+02  0.57086254886E+03  0.57237140470E+03  0.47000000000E+01 0.  1.
         -5    1    4    4    0  502  0.39053016530E+00 -0.58068541597E+01 -0.48761550076E+01  0.89296672222E+01  0.47000000000E+01 0.  1.
          5    1    5    5  503    0 -0.45374381797E+01  0.23992712290E+02  0.94258545078E+03  0.94291338977E+03  0.47000000000E+01 0.  1.
         -5    1    5    5    0  503 -0.34329195977E+02 -0.32702740048E+01  0.69193349819E+02  0.77453199080E+02  0.47000000000E+01 0.  1.
<mgrwt>
<rscale>  0 0.27567424E+03</rscale>
<asrwt>0</asrwt>
<pdfrwt beam="1">  1        2 0.24457159E+00 0.27567424E+03</pdfrwt>
<pdfrwt beam="2">  1       -2 0.18386525E-02 0.27567424E+03</pdfrwt>
<totfact> 0.10693169E+04</totfact>
</mgrwt>
</event>
<event>
 9    1  0.7926126E-001  0.2759749E+03  0.7818608E-02  0.1097908E+00
         -1   -1    0    0    0  501 -0.00000000000E+00  0.00000000000E+00  0.15219034718E+04  0.15219034718E+04  0.00000000000E+00 0. -1.
          1   -1    0    0  501    0  0.00000000000E+00 -0.00000000000E+00 -0.12511002898E+02  0.12511002898E+02  0.00000000000E+00 0. -1.
         35    2    1    2    0    0 -0.10658141036E-13  0.00000000000E+00  0.15093924689E+04  0.15344144747E+04  0.27597491731E+03 0.  0.
         25    2    3    3    0    0 -0.27493142118E+02 -0.15748758532E+02  0.49520034897E+03  0.51205159647E+03  0.12637070696E+03 0.  0.
         25    2    3    3    0    0  0.27493142118E+02  0.15748758532E+02  0.10141921199E+04  0.10223628782E+04  0.12504520131E+03 0.  0.
          5    1    4    4  502    0 -0.42160918117E+02  0.18945826130E+01  0.47401057638E+02  0.63640260253E+02  0.47000000000E+01 0. -1.
         -5    1    4    4    0  502  0.14667776000E+02 -0.17643341145E+02  0.44779929133E+03  0.44841133622E+03  0.47000000000E+01 0. -1.
          5    1    5    5  503    0 -0.46820357979E+02  0.50655960141E+01  0.24712930162E+03  0.25162032490E+03  0.47000000000E+01 0.  1.
         -5    1    5    5    0  503  0.74313500097E+02  0.10683162518E+02  0.76706281832E+03  0.77074255332E+03  0.47000000000E+01 0.  1.
<mgrwt>
<rscale>  0 0.27597492E+03</rscale>
<asrwt>0</asrwt>
<pdfrwt beam="1">  1        1 0.19247709E-02 0.27597492E+03</pdfrwt>
<pdfrwt beam="2">  1       -1 0.23413885E+00 0.27597492E+03</pdfrwt>
<totfact> 0.63886497E+02</totfact>
</mgrwt>
</event>
<event>
 9    1  0.7926126E-001  0.2751647E+03  0.7818608E-02  0.1098360E+00
          3   -1    0    0  501    0  0.00000000000E+00  0.00000000000E+00  0.25529114960E+03  0.25529114960E+03  0.00000000000E+00 0. -1.
         -3   -1    0    0    0  501 -0.00000000000E+00 -0.00000000000E+00 -0.74146353390E+02  0.74146353390E+02  0.00000000000E+00 0. -1.
         35    2    1    2    0    0  0.00000000000E+00  0.00000000000E+00  0.18114479621E+03  0.32943750299E+03  0.27516473463E+03 0.  0.
         25    2    3    3    0    0 -0.34870640647E+02 -0.45916936134E+02  0.10037813591E+03  0.17047606205E+03  0.12514787637E+03 0.  0.
         25    2    3    3    0    0  0.34870640647E+02  0.45916936134E+02  0.80766660297E+02  0.15896144094E+03  0.12418196200E+03 0.  0.
          5    1    4    4  502    0 -0.63035746892E+02  0.18929634700E+02  0.38433689611E+02  0.76361475583E+02  0.47000000000E+01 0.  1.
         -5    1    4    4    0  502  0.28165106244E+02 -0.64846570834E+02  0.61944446302E+02  0.94114586470E+02  0.47000000000E+01 0.  1.
          5    1    5    5  503    0  0.23670043596E+02 -0.38575984901E+02  0.51500216144E+02  0.68722193197E+02  0.47000000000E+01 0.  1.
         -5    1    5    5    0  503  0.11200597051E+02  0.84492921035E+02  0.29266444153E+02  0.90239247740E+02  0.47000000000E+01 0.  1.
<mgrwt>
<rscale>  0 0.27516473E+03</rscale>
<asrwt>0</asrwt>
<pdfrwt beam="1">  1        3 0.39275561E-01 0.27516473E+03</pdfrwt>
<pdfrwt beam="2">  1       -3 0.11407131E-01 0.27516473E+03</pdfrwt>
<totfact> 0.96862070E+02</totfact>
</mgrwt>
</event>
<event>
 9    1  0.7926126E-001  0.2736712E+03  0.7818608E-02  0.1099197E+00
          2   -1    0    0  501    0  0.00000000000E+00  0.00000000000E+00  0.59467929051E+03  0.59467929051E+03  0.00000000000E+00 0. -1.
         -2   -1    0    0    0  501 -0.00000000000E+00 -0.00000000000E+00 -0.31485843816E+02  0.31485843816E+02  0.00000000000E+00 0. -1.
         35    2    1    2    0    0 -0.35527136788E-14  0.00000000000E+00  0.56319344669E+03  0.62616513432E+03  0.27367118417E+03 0.  0.
         25    2    3    3    0    0 -0.12793033685E+01  0.13130101145E+02  0.15782279559E+03  0.20175204996E+03  0.12498727409E+03 0.  0.
         25    2    3    3    0    0  0.12793033685E+01 -0.13130101145E+02  0.40537065111E+03  0.42441308436E+03  0.12500826063E+03 0.  0.
          5    1    4    4  502    0 -0.51877584039E+02  0.33844788611E+02  0.46356120014E+02  0.77509569116E+02  0.47000000000E+01 0. -1.
         -5    1    4    4    0  502  0.50598280671E+02 -0.20714687466E+02  0.11146667557E+03  0.12424248085E+03  0.47000000000E+01 0. -1.
          5    1    5    5  503    0 -0.29092872383E+02 -0.10807501575E+02  0.18744034606E+02  0.36559898073E+02  0.47000000000E+01 0.  1.
         -5    1    5    5    0  503  0.30372175751E+02 -0.23225995700E+01  0.38662661650E+03  0.38785318629E+03  0.47000000000E+01 0.  1.
<mgrwt>
<rscale>  0 0.27367118E+03</rscale>
<asrwt>0</asrwt>
<pdfrwt beam="1">  1        2 0.91489114E-01 0.27367118E+03</pdfrwt>
<pdfrwt beam="2">  1       -2 0.48439764E-02 0.27367118E+03</pdfrwt>
<totfact> 0.10425187E+04</totfact>
</mgrwt>
</event>
<event>
 9    1  0.7926126E-001  0.2746368E+03  0.7818608E-02  0.1098655E+00
          2   -1    0    0  501    0  0.00000000000E+00  0.00000000000E+00  0.61222187700E+03  0.61222187700E+03  0.00000000000E+00 0. -1.
         -2   -1    0    0    0  501 -0.00000000000E+00 -0.00000000000E+00 -0.30799854406E+02  0.30799854406E+02  0.00000000000E+00 0. -1.
         35    2    1    2    0    0  0.17763568394E-14  0.14210854715E-13  0.58142202260E+03  0.64302173141E+03  0.27463681236E+03 0.  0.
         25    2    3    3    0    0  0.25672253689E+01  0.56768543087E+02  0.39937870001E+03  0.42226625316E+03  0.12480458489E+03 0.  0.
         25    2    3    3    0    0 -0.25672253689E+01 -0.56768543087E+02  0.18204332259E+03  0.22075547825E+03  0.11119330801E+03 0.  0.
          5    1    4    4  502    0 -0.54169841362E+02  0.55242521217E+02  0.18806637766E+03  0.20341376617E+03  0.47000000000E+01 0.  1.
         -5    1    4    4    0  502  0.56737066731E+02  0.15260218700E+01  0.21131232235E+03  0.21885248699E+03  0.47000000000E+01 0.  1.
          5    1    5    5  503    0 -0.12022436847E+02  0.17375993086E+02 -0.23113622636E+01  0.21769164407E+02  0.47000000000E+01 0.  1.
         -5    1    5    5    0  503  0.94552114785E+01 -0.74144536173E+02  0.18435468485E+03  0.19898631384E+03  0.47000000000E+01 0.  1.
<mgrwt>
<rscale>  0 0.27463681E+03</rscale>
<asrwt>0</asrwt>
<pdfrwt beam="1">  1        2 0.94187972E-01 0.27463681E+03</pdfrwt>
<pdfrwt beam="2">  1       -2 0.47384396E-02 0.27463681E+03</pdfrwt>
<totfact> 0.10422316E+04</totfact>
</mgrwt>
</event>
<event>
 9    1  0.7926126E-001  0.2793608E+03  0.7818608E-02  0.1096039E+00
         -1   -1    0    0    0  501 -0.00000000000E+00  0.00000000000E+00  0.22073106258E+02  0.22073106258E+02  0.00000000000E+00 0. -1.
          1   -1    0    0  501    0  0.00000000000E+00 -0.00000000000E+00 -0.88390894129E+03  0.88390894129E+03  0.00000000000E+00 0. -1.
         35    2    1    2    0    0 -0.71054273576E-14  0.71054273576E-14 -0.86183583503E+03  0.90598204755E+03  0.27936081317E+03 0.  0.
         25    2    3    3    0    0 -0.66649856430E+01  0.46979219906E+02 -0.30315446717E+03  0.33149392439E+03  0.12543572778E+03 0.  0.
         25    2    3    3    0    0  0.66649856430E+01 -0.46979219906E+02 -0.55868136786E+03  0.57448812316E+03  0.12514097539E+03 0.  0.
          5    1    4    4  502    0 -0.51815481990E+02  0.32973919749E+02 -0.68682322364E+02  0.92257655307E+02  0.47000000000E+01 0.  1.
         -5    1    4    4    0  502  0.45150496347E+02  0.14005300158E+02 -0.23447214481E+03  0.23923626908E+03  0.47000000000E+01 0.  1.
          5    1    5    5  503    0  0.22070236821E+02 -0.54814347727E+02 -0.55230367092E+03  0.55547560071E+03  0.47000000000E+01 0. -1.
         -5    1    5    5    0  503 -0.15405251178E+02  0.78351278210E+01 -0.63776969429E+01  0.19012522456E+02  0.47000000000E+01 0. -1.
<mgrwt>
<rscale>  0 0.27936081E+03</rscale>
<asrwt>0</asrwt>
<pdfrwt beam="1">  1        1 0.13598600E+00 0.27936081E+03</pdfrwt>
<pdfrwt beam="2">  1       -1 0.33958622E-02 0.27936081E+03</pdfrwt>
<totfact> 0.61680197E+03</totfact>
</mgrwt>
</event>
<event>
 9    1  0.7926126E-001  0.2789769E+03  0.7818608E-02  0.1096249E+00
          2   -1    0    0  501    0  0.00000000000E+00  0.00000000000E+00  0.19379045974E+03  0.19379045974E+03  0.00000000000E+00 0. -1.
         -2   -1    0    0    0  501 -0.00000000000E+00 -0.00000000000E+00 -0.10040241291E+03  0.10040241291E+03  0.00000000000E+00 0. -1.
         35    2    1    2    0    0 -0.71054273576E-14  0.00000000000E+00  0.93388046826E+02  0.29419287265E+03  0.27897691486E+03 0.  0.
         25    2    3    3    0    0  0.16614394112E+02 -0.54338110954E+02  0.27087172960E+02  0.14088285668E+03  0.12603807351E+03 0.  0.
         25    2    3    3    0    0 -0.16614394112E+02  0.54338110954E+02  0.66300873866E+02  0.15331001597E+03  0.12601383546E+03 0.  0.
          5    1    4    4  502    0  0.55669150233E+02 -0.43332327829E+02 -0.24729159502E+02  0.74902378149E+02  0.47000000000E+01 0. -1.
         -5    1    4    4    0  502 -0.39054756121E+02 -0.11005783125E+02  0.51816332462E+02  0.65980478535E+02  0.47000000000E+01 0. -1.
          5    1    5    5  503    0  0.35822253698E+02  0.32691592932E+02  0.80994582771E+02  0.94520825995E+02  0.47000000000E+01 0.  1.
         -5    1    5    5    0  503 -0.52436647810E+02  0.21646518022E+02 -0.14693708905E+02  0.58789189971E+02  0.47000000000E+01 0.  1.
<mgrwt>
<rscale>  0 0.27897691E+03</rscale>
<asrwt>0</asrwt>
<pdfrwt beam="1">  1        2 0.29813917E-01 0.27897691E+03</pdfrwt>
<pdfrwt beam="2">  1       -2 0.15446525E-01 0.27897691E+03</pdfrwt>
<totfact> 0.57183353E+03</totfact>
</mgrwt>
</event>
<event>
 9    1  0.7926126E-001  0.2846315E+03  0.7818608E-02  0.1093186E+00
         -2   -1    0    0    0  501 -0.00000000000E+00  0.00000000000E+00  0.19670103574E+02  0.19670103574E+02  0.00000000000E+00 0. -1.
          2   -1    0    0  501    0  0.00000000000E+00 -0.00000000000E+00 -0.10296727517E+04  0.10296727517E+04  0.00000000000E+00 0. -1.
         35    2    1    2    0    0  0.00000000000E+00  0.00000000000E+00 -0.10100026482E+04  0.10493428553E+04  0.28463147875E+03 0.  0.
         25    2    3    3    0    0  0.53478456735E+02  0.19995634350E+02 -0.36397661488E+03  0.38886382414E+03  0.12440388587E+03 0.  0.
         25    2    3    3    0    0 -0.53478456735E+02 -0.19995634350E+02 -0.64602603328E+03  0.66047903116E+03  0.12499257661E+03 0.  0.
          5    1    4    4  502    0  0.91341350854E+02 -0.42207615136E+01 -0.23559434776E+03  0.25276044765E+03  0.47000000000E+01 0. -1.
         -5    1    4    4    0  502 -0.37862894119E+02  0.24216395864E+02 -0.12838226713E+03  0.13610337649E+03  0.47000000000E+01 0. -1.
          5    1    5    5  503    0  0.40481539798E+02  0.19770388185E+01 -0.19423702186E+03  0.19847613058E+03  0.47000000000E+01 0. -1.
         -5    1    5    5    0  503 -0.93959996533E+02 -0.21972673169E+02 -0.45178901142E+03  0.46200290059E+03  0.47000000000E+01 0. -1.
<mgrwt>
<rscale>  0 0.28463148E+03</rscale>
<asrwt>0</asrwt>
<pdfrwt beam="1">  1        2 0.15841121E+00 0.28463148E+03</pdfrwt>
<pdfrwt beam="2">  1       -2 0.30261694E-02 0.28463148E+03</pdfrwt>
<totfact> 0.10517251E+04</totfact>
</mgrwt>
</event>
<event>
 9    1  0.7926126E-001  0.2745894E+03  0.7818608E-02  0.1098681E+00
         -2   -1    0    0    0  501 -0.00000000000E+00  0.00000000000E+00  0.93073813136E+02  0.93073813136E+02  0.00000000000E+00 0.  1.
          2   -1    0    0  501    0  0.00000000000E+00 -0.00000000000E+00 -0.20252569395E+03  0.20252569395E+03  0.00000000000E+00 0.  1.
         35    2    1    2    0    0  0.71054273576E-14  0.35527136788E-14 -0.10945188081E+03  0.29559950709E+03  0.27458942874E+03 0.  0.
         25    2    3    3    0    0 -0.47041026552E+02  0.18403786658E+02 -0.85695282122E+02  0.15840220538E+03  0.12327213695E+03 0.  0.
         25    2    3    3    0    0  0.47041026552E+02 -0.18403786658E+02 -0.23756598692E+02  0.13719730171E+03  0.12532823334E+03 0.  0.
          5    1    4    4  502    0 -0.22858717839E+02 -0.39252988005E+02 -0.84081516758E+02  0.95682336452E+02  0.47000000000E+01 0. -1.
         -5    1    4    4    0  502 -0.24182308713E+02  0.57656774662E+02 -0.16137653639E+01  0.62719868924E+02  0.47000000000E+01 0. -1.
          5    1    5    5  503    0  0.19404542255E+02 -0.37065228824E+02  0.44392573528E+02  0.61181353633E+02  0.47000000000E+01 0. -1.
         -5    1    5    5    0  503  0.27636484297E+02  0.18661442166E+02 -0.68149172220E+02  0.76015948079E+02  0.47000000000E+01 0. -1.
<mgrwt>
<rscale>  0 0.27458943E+03</rscale>
<asrwt>0</asrwt>
<pdfrwt beam="1">  1        2 0.31157799E-01 0.27458943E+03</pdfrwt>
<pdfrwt beam="2">  1       -2 0.14319048E-01 0.27458943E+03</pdfrwt>
<totfact> 0.61711963E+03</totfact>
</mgrwt>
</event>
<event>
 9    1  0.7926126E-001  0.2762432E+03  0.7818608E-02  0.1097759E+00
          2   -1    0    0  501    0  0.00000000000E+00  0.00000000000E+00  0.81734120740E+03  0.81734120740E+03  0.00000000000E+00 0.  1.
         -2   -1    0    0    0  501 -0.00000000000E+00 -0.00000000000E+00 -0.23341023871E+02  0.23341023871E+02  0.00000000000E+00 0.  1.
         35    2    1    2    0    0 -0.71054273576E-14  0.00000000000E+00  0.79400018353E+03  0.84068223127E+03  0.27624323074E+03 0.  0.
         25    2    3    3    0    0 -0.22280878674E+02 -0.51179070901E+02  0.45968339916E+03  0.47929203342E+03  0.12367817503E+03 0.  0.
         25    2    3    3    0    0  0.22280878674E+02  0.51179070901E+02  0.33431678437E+03  0.36139019786E+03  0.12537714282E+03 0.  0.
          5    1    4    4  502    0 -0.73744955388E+02 -0.32084880985E+02  0.26736602732E+03  0.27923903845E+03  0.47000000000E+01 0. -1.
         -5    1    4    4    0  502  0.51464076714E+02 -0.19094189916E+02  0.19231737185E+03  0.20005299497E+03  0.47000000000E+01 0. -1.
          5    1    5    5  503    0  0.38873209001E+02  0.30996293358E+02  0.33087328581E+03  0.33462085686E+03  0.47000000000E+01 0. -1.
         -5    1    5    5    0  503 -0.16592330327E+02  0.20182777543E+02  0.34434985534E+01  0.26769340995E+02  0.47000000000E+01 0. -1.
<mgrwt>
<rscale>  0 0.27624323E+03</rscale>
<asrwt>0</asrwt>
<pdfrwt beam="1">  1        2 0.12574478E+00 0.27624323E+03</pdfrwt>
<pdfrwt beam="2">  1       -2 0.35909274E-02 0.27624323E+03</pdfrwt>
<totfact> 0.11125556E+04</totfact>
</mgrwt>
</event>
<event>
 9    1  0.7926126E-001  0.2687752E+03  0.7818608E-02  0.1101983E+00
          2   -1    0    0  501    0  0.00000000000E+00  0.00000000000E+00  0.81669227744E+02  0.81669227744E+02  0.00000000000E+00 0.  1.
         -2   -1    0    0    0  501 -0.00000000000E+00 -0.00000000000E+00 -0.22113623726E+03  0.22113623726E+03  0.00000000000E+00 0.  1.
         35    2    1    2    0    0  0.00000000000E+00  0.00000000000E+00 -0.13946700952E+03  0.30280546501E+03  0.26877519025E+03 0.  0.
         25    2    3    3    0    0 -0.31230535416E+02 -0.35747495240E+02 -0.53755884571E+02  0.14380288697E+03  0.12464487722E+03 0.  0.
         25    2    3    3    0    0  0.31230535416E+02  0.35747495240E+02 -0.85711124947E+02  0.15900257804E+03  0.12522856353E+03 0.  0.
          5    1    4    4  502    0 -0.24792738010E+02  0.37554877117E+02  0.99880204033E+01  0.46334643679E+02  0.47000000000E+01 0. -1.
         -5    1    4    4    0  502 -0.64377974058E+01 -0.73302372357E+02 -0.63743904975E+02  0.97468243290E+02  0.47000000000E+01 0. -1.
          5    1    5    5  503    0  0.19174873647E+02  0.50158230930E+02 -0.11319843654E+03  0.12537742997E+03  0.47000000000E+01 0. -1.
         -5    1    5    5    0  503  0.12055661768E+02 -0.14410735690E+02  0.27487311597E+02  0.33625148069E+02  0.47000000000E+01 0. -1.
<mgrwt>
<rscale>  0 0.26877519E+03</rscale>
<asrwt>0</asrwt>
<pdfrwt beam="1">  1        2 0.12564497E-01 0.26877519E+03</pdfrwt>
<pdfrwt beam="2">  1       -2 0.34020959E-01 0.26877519E+03</pdfrwt>
<totfact> 0.38875325E+03</totfact>
</mgrwt>
</event>
<event>
 9    1  0.7926126E-001  0.2710600E+03  0.7818608E-02  0.1100674E+00
         -2   -1    0    0    0  501 -0.00000000000E+00  0.00000000000E+00  0.13690319407E+02  0.13690319407E+02  0.00000000000E+00 0.  1.
          2   -1    0    0  501    0  0.00000000000E+00 -0.00000000000E+00 -0.13417058211E+04  0.13417058211E+04  0.00000000000E+00 0.  1.
         35    2    1    2    0    0  0.71054273576E-14  0.00000000000E+00 -0.13280155017E+04  0.13553961405E+04  0.27106000252E+03 0.  0.
         25    2    3    3    0    0  0.51264029849E+02 -0.14017835710E+02 -0.74700978581E+03  0.75915639248E+03  0.12437969156E+03 0.  0.
         25    2    3    3    0    0 -0.51264029849E+02  0.14017835710E+02 -0.58100571590E+03  0.59623974805E+03  0.12292149838E+03 0.  0.
          5    1    4    4  502    0  0.48223816619E+02 -0.25650609474E+02 -0.74384775863E+03  0.74586531511E+03  0.47000000000E+01 0.  1.
         -5    1    4    4    0  502  0.30402132301E+01  0.11632773763E+02 -0.31620271795E+01  0.13291077375E+02  0.47000000000E+01 0.  1.
          5    1    5    5  503    0 -0.46357518700E+02  0.93017967424E+00 -0.57955115430E+03  0.58142197691E+03  0.47000000000E+01 0.  1.
         -5    1    5    5    0  503 -0.49065111489E+01  0.13087656036E+02 -0.14545616000E+01  0.14817771142E+02  0.47000000000E+01 0.  1.
<mgrwt>
<rscale>  0 0.27106000E+03</rscale>
<asrwt>0</asrwt>
<pdfrwt beam="1">  1        2 0.20641635E+00 0.27106000E+03</pdfrwt>
<pdfrwt beam="2">  1       -2 0.21062023E-02 0.27106000E+03</pdfrwt>
<totfact> 0.11903128E+04</totfact>
</mgrwt>
</event>
<event>
 9    1  0.7926126E-001  0.2752034E+03  0.7818608E-02  0.1098338E+00
          4   -1    0    0  501    0  0.00000000000E+00  0.00000000000E+00  0.21392200329E+02  0.21392200329E+02  0.00000000000E+00 0. -1.
         -4   -1    0    0    0  501 -0.00000000000E+00 -0.00000000000E+00 -0.88509965289E+03  0.88509965289E+03  0.00000000000E+00 0. -1.
         35    2    1    2    0    0  0.00000000000E+00 -0.71054273576E-14 -0.86370745256E+03  0.90649185322E+03  0.27520340903E+03 0.  0.
         25    2    3    3    0    0 -0.47481261519E+02 -0.38231669968E+02 -0.45008381428E+03  0.47017543482E+03  0.12154574797E+03 0.  0.
         25    2    3    3    0    0  0.47481261519E+02  0.38231669968E+02 -0.41362363828E+03  0.43631641839E+03  0.12478530375E+03 0.  0.
          5    1    4    4  502    0 -0.65020509295E+02 -0.11739255830E+02 -0.42302197327E+03  0.42817654843E+03  0.47000000000E+01 0.  1.
         -5    1    4    4    0  502  0.17539247776E+02 -0.26492414138E+02 -0.27061841011E+02  0.41998886394E+02  0.47000000000E+01 0.  1.
          5    1    5    5  503    0 -0.38049707598E+02 -0.54076141696E+01 -0.76307748846E+02  0.85568598640E+02  0.47000000000E+01 0. -1.
         -5    1    5    5    0  503  0.85530969117E+02  0.43639284138E+02 -0.33731588943E+03  0.35074781975E+03  0.47000000000E+01 0. -1.
<mgrwt>
<rscale>  0 0.27520341E+03</rscale>
<asrwt>0</asrwt>
<pdfrwt beam="1">  1        4 0.32911069E-02 0.27520341E+03</pdfrwt>
<pdfrwt beam="2">  1       -4 0.13616921E+00 0.27520341E+03</pdfrwt>
<totfact> 0.35317622E+02</totfact>
</mgrwt>
</event>
<event>
 9    1  0.7926126E-001  0.2726908E+03  0.7818608E-02  0.1099749E+00
         -2   -1    0    0    0  501 -0.00000000000E+00  0.00000000000E+00  0.67248635652E+01  0.67248635652E+01  0.00000000000E+00 0. -1.
          2   -1    0    0  501    0  0.00000000000E+00 -0.00000000000E+00 -0.27643789099E+04  0.27643789099E+04  0.00000000000E+00 0. -1.
         35    2    1    2    0    0  0.00000000000E+00  0.14210854715E-13 -0.27576540463E+04  0.27711037734E+04  0.27269082134E+03 0.  0.
         25    2    3    3    0    0  0.22112895775E+02  0.55754464042E+02 -0.12593655646E+04  0.12663897538E+04  0.11892788916E+03 0.  0.
         25    2    3    3    0    0 -0.22112895775E+02 -0.55754464042E+02 -0.14982884817E+04  0.15047140197E+04  0.12529312049E+03 0.  0.
          5    1    4    4  502    0 -0.18499739252E+02 -0.25869010303E+02 -0.58373538682E+03  0.58461999442E+03  0.47000000000E+01 0.  1.
         -5    1    4    4    0  502  0.40612635027E+02  0.81623474345E+02 -0.67563017773E+03  0.68176975934E+03  0.47000000000E+01 0.  1.
          5    1    5    5  503    0 -0.24545560320E+02  0.99639553014E+01 -0.11456014944E+04  0.11459173787E+04  0.47000000000E+01 0.  1.
         -5    1    5    5    0  503  0.24326645444E+01 -0.65718419343E+02 -0.35268698738E+03  0.35879664096E+03  0.47000000000E+01 0.  1.
<mgrwt>
<rscale>  0 0.27269082E+03</rscale>
<asrwt>0</asrwt>
<pdfrwt beam="1">  1        2 0.42529007E+00 0.27269082E+03</pdfrwt>
<pdfrwt beam="2">  1       -2 0.10345919E-02 0.27269082E+03</pdfrwt>
<totfact> 0.57940821E+03</totfact>
</mgrwt>
</event>
<event>
 9    1  0.7926126E-001  0.2743597E+03  0.7818608E-02  0.1098810E+00
         -1   -1    0    0    0  501 -0.00000000000E+00  0.00000000000E+00  0.14924606736E+02  0.14924606736E+02  0.00000000000E+00 0.  1.
          1   -1    0    0  501    0  0.00000000000E+00 -0.00000000000E+00 -0.12608912009E+04  0.12608912009E+04  0.00000000000E+00 0.  1.
         35    2    1    2    0    0  0.00000000000E+00  0.71054273576E-14 -0.12459665942E+04  0.12758158077E+04  0.27435965673E+03 0.  0.
         25    2    3    3    0    0  0.53886935669E+02  0.14480908101E+02 -0.74208694635E+03  0.75460385679E+03  0.12498178348E+03 0.  0.
         25    2    3    3    0    0 -0.53886935669E+02 -0.14480908101E+02 -0.50387964786E+03  0.52121195089E+03  0.12105246669E+03 0.  0.
          5    1    4    4  502    0  0.30080299267E+02  0.63454152346E+02 -0.25751766518E+03  0.26696196683E+03  0.47000000000E+01 0. -1.
         -5    1    4    4    0  502  0.23806636402E+02 -0.48973244245E+02 -0.48456928117E+03  0.48764188995E+03  0.47000000000E+01 0. -1.
          5    1    5    5  503    0 -0.61801505357E+02  0.40669276800E+02 -0.34218623749E+03  0.35012415979E+03  0.47000000000E+01 0.  1.
         -5    1    5    5    0  503  0.79145696885E+01 -0.55150184901E+02 -0.16169341037E+03  0.17108779111E+03  0.47000000000E+01 0.  1.
<mgrwt>
<rscale>  0 0.27435966E+03</rscale>
<asrwt>0</asrwt>
<pdfrwt beam="1">  1        1 0.19398327E+00 0.27435966E+03</pdfrwt>
<pdfrwt beam="2">  1       -1 0.22960932E-02 0.27435966E+03</pdfrwt>
<totfact> 0.58122168E+03</totfact>
</mgrwt>
</event>
<event>
 9    1  0.7926126E-001  0.2783701E+03  0.7818608E-02  0.1096583E+00
          2   -1    0    0  501    0  0.00000000000E+00  0.00000000000E+00  0.70555707411E+02  0.70555707411E+02  0.00000000000E+00 0. -1.
         -2   -1    0    0    0  501 -0.00000000000E+00 -0.00000000000E+00 -0.27456995110E+03  0.27456995110E+03  0.00000000000E+00 0. -1.
         35    2    1    2    0    0  0.00000000000E+00  0.00000000000E+00 -0.20401424368E+03  0.34512565851E+03  0.27837009274E+03 0.  0.
         25    2    3    3    0    0 -0.12244977607E+02 -0.17099078731E+02 -0.17407658474E+03  0.21530761934E+03  0.12494957231E+03 0.  0.
         25    2    3    3    0    0  0.12244977607E+02  0.17099078731E+02 -0.29937658944E+02  0.12981803917E+03  0.12455577827E+03 0.  0.
          5    1    4    4  502    0 -0.17830167374E+01 -0.54123571926E+02 -0.16736492227E+03  0.17597058673E+03  0.47000000000E+01 0.  1.
         -5    1    4    4    0  502 -0.10461960870E+02  0.37024493195E+02 -0.67116624678E+01  0.39337032612E+02  0.47000000000E+01 0.  1.
          5    1    5    5  503    0  0.12317472919E+02 -0.39057494907E+02  0.27341205130E+02  0.49465538969E+02  0.47000000000E+01 0.  1.
         -5    1    5    5    0  503 -0.72495311612E-01  0.56156573637E+02 -0.57278864074E+02  0.80352500196E+02  0.47000000000E+01 0.  1.
<mgrwt>
<rscale>  0 0.27837009E+03</rscale>
<asrwt>0</asrwt>
<pdfrwt beam="1">  1        2 0.10854724E-01 0.27837009E+03</pdfrwt>
<pdfrwt beam="2">  1       -2 0.42241531E-01 0.27837009E+03</pdfrwt>
<totfact> 0.30898686E+03</totfact>
</mgrwt>
</event>
<event>
 9    1  0.7926126E-001  0.2771227E+03  0.7818608E-02  0.1097271E+00
         -1   -1    0    0    0  501 -0.00000000000E+00  0.00000000000E+00  0.30157462870E+02  0.30157462870E+02  0.00000000000E+00 0. -1.
          1   -1    0    0  501    0  0.00000000000E+00 -0.00000000000E+00 -0.63663329091E+03  0.63663329091E+03  0.00000000000E+00 0. -1.
         35    2    1    2    0    0  0.71054273576E-14  0.26645352591E-14 -0.60647582804E+03  0.66679075378E+03  0.27712267920E+03 0.  0.
         25    2    3    3    0    0 -0.54906690882E+02  0.72506120115E+01 -0.35378493546E+03  0.37928512655E+03  0.12500444226E+03 0.  0.
         25    2    3    3    0    0  0.54906690882E+02 -0.72506120115E+01 -0.25269089258E+03  0.28750562723E+03  0.12545709393E+03 0.  0.
          5    1    4    4  502    0 -0.94224564030E+02 -0.70859707618E+01 -0.24360130998E+03  0.26132770170E+03  0.47000000000E+01 0. -1.
         -5    1    4    4    0  502  0.39317873149E+02  0.14336582773E+02 -0.11018362548E+03  0.11795742486E+03  0.47000000000E+01 0. -1.
          5    1    5    5  503    0  0.40689398666E+01  0.13349442884E+02 -0.22572058534E+03  0.22620043444E+03  0.47000000000E+01 0.  1.
         -5    1    5    5    0  503  0.50837751015E+02 -0.20600054896E+02 -0.26970307241E+02  0.61305192787E+02  0.47000000000E+01 0.  1.
<mgrwt>
<rscale>  0 0.27712268E+03</rscale>
<asrwt>0</asrwt>
<pdfrwt beam="1">  1        1 0.97943578E-01 0.27712268E+03</pdfrwt>
<pdfrwt beam="2">  1       -1 0.46396099E-02 0.27712268E+03</pdfrwt>
<totfact> 0.63509030E+03</totfact>
</mgrwt>
</event>
<event>
 9    1  0.7926126E-001  0.2746131E+03  0.7818608E-02  0.1098668E+00
          2   -1    0    0  501    0  0.00000000000E+00  0.00000000000E+00  0.19973222362E+04  0.19973222362E+04  0.00000000000E+00 0.  1.
         -2   -1    0    0    0  501 -0.00000000000E+00 -0.00000000000E+00 -0.94391803263E+01  0.94391803263E+01  0.00000000000E+00 0.  1.
         35    2    1    2    0    0  0.00000000000E+00  0.00000000000E+00  0.19878830558E+04  0.20067614165E+04  0.27461307148E+03 0.  0.
         25    2    3    3    0    0 -0.42948027415E+02 -0.31650072122E+02  0.98409989779E+03  0.99359081154E+03  0.12618966609E+03 0.  0.
         25    2    3    3    0    0  0.42948027415E+02  0.31650072122E+02  0.10037831581E+04  0.10131706050E+04  0.12683763726E+03 0.  0.
          5    1    4    4  502    0 -0.68400806445E+02  0.49085918840E+01  0.83710591707E+03  0.83992331256E+03  0.47000000000E+01 0. -1.
         -5    1    4    4    0  502  0.25452779030E+02 -0.36558664006E+02  0.14699398072E+03  0.15366749898E+03  0.47000000000E+01 0. -1.
          5    1    5    5  503    0  0.44999067264E+02 -0.23015970340E+02  0.81462235283E+03  0.81620237605E+03  0.47000000000E+01 0. -1.
         -5    1    5    5    0  503 -0.20510398490E+01  0.54666042462E+02  0.18916080523E+03  0.19696822890E+03  0.47000000000E+01 0. -1.
<mgrwt>
<rscale>  0 0.27461307E+03</rscale>
<asrwt>0</asrwt>
<pdfrwt beam="1">  1        2 0.30728001E+00 0.27461307E+03</pdfrwt>
<pdfrwt beam="2">  1       -2 0.14521832E-02 0.27461307E+03</pdfrwt>
<totfact> 0.92207440E+03</totfact>
</mgrwt>
</event>
<event>
 9    1  0.7926126E-001  0.2712139E+03  0.7818608E-02  0.1100587E+00
          1   -1    0    0  501    0  0.00000000000E+00  0.00000000000E+00  0.25354523367E+04  0.25354523367E+04  0.00000000000E+00 0. -1.
         -1   -1    0    0    0  501 -0.00000000000E+00 -0.00000000000E+00 -0.72528481723E+01  0.72528481723E+01  0.00000000000E+00 0. -1.
         35    2    1    2    0    0 -0.71054273576E-14  0.00000000000E+00  0.25281994885E+04  0.25427051848E+04  0.27121394393E+03 0.  0.
         25    2    3    3    0    0 -0.30592410890E+02 -0.61288312351E+01  0.87411294301E+03  0.88356468342E+03  0.12505860415E+03 0.  0.
         25    2    3    3    0    0  0.30592410890E+02  0.61288312351E+01  0.16540865455E+04  0.16591405014E+04  0.12558441513E+03 0.  0.
          5    1    4    4  502    0  0.46487612859E+02  0.14434289886E+02  0.34653408203E+03  0.34996772263E+03  0.47000000000E+01 0. -1.
         -5    1    4    4    0  502 -0.77080023749E+02 -0.20563121121E+02  0.52757886099E+03  0.53359696080E+03  0.47000000000E+01 0. -1.
          5    1    5    5  503    0  0.68869263574E+02 -0.99556746018E+01  0.13918175138E+04  0.13935638388E+04  0.47000000000E+01 0. -1.
         -5    1    5    5    0  503 -0.38276852685E+02  0.16084505837E+02  0.26226903164E+03  0.26557666263E+03  0.47000000000E+01 0. -1.
<mgrwt>
<rscale>  0 0.27121394E+03</rscale>
<asrwt>0</asrwt>
<pdfrwt beam="1">  1        1 0.39006888E+00 0.27121394E+03</pdfrwt>
<pdfrwt beam="2">  1       -1 0.11158248E-02 0.27121394E+03</pdfrwt>
<totfact> 0.24104908E+03</totfact>
</mgrwt>
</event>
<event>
 9    1  0.7926126E-001  0.2703754E+03  0.7818608E-02  0.1101065E+00
         -1   -1    0    0    0  501 -0.00000000000E+00  0.00000000000E+00  0.21915706921E+02  0.21915706921E+02  0.00000000000E+00 0.  1.
          1   -1    0    0  501    0  0.00000000000E+00 -0.00000000000E+00 -0.83390956085E+03  0.83390956085E+03  0.00000000000E+00 0.  1.
         35    2    1    2    0    0 -0.14210854715E-13  0.22204460493E-14 -0.81199385393E+03  0.85582526777E+03  0.27037542443E+03 0.  0.
         25    2    3    3    0    0 -0.16636606397E+02 -0.25732348433E+01 -0.25374523220E+03  0.28336174813E+03  0.12499535682E+03 0.  0.
         25    2    3    3    0    0  0.16636606397E+02  0.25732348433E+01 -0.55824862172E+03  0.57246351964E+03  0.12565651378E+03 0.  0.
          5    1    4    4  502    0  0.53389082419E+02  0.26248365300E+01 -0.13578714384E+03  0.14600521333E+03  0.47000000000E+01 0. -1.
         -5    1    4    4    0  502 -0.70025688815E+02 -0.51980713733E+01 -0.11795808837E+03  0.13735653480E+03  0.47000000000E+01 0. -1.
          5    1    5    5  503    0  0.61969352959E+02  0.19168805353E+02 -0.43798637829E+03  0.44278866446E+03  0.47000000000E+01 0.  1.
         -5    1    5    5    0  503 -0.45332746562E+02 -0.16595570510E+02 -0.12026224343E+03  0.12967485518E+03  0.47000000000E+01 0.  1.
<mgrwt>
<rscale>  0 0.27037542E+03</rscale>
<asrwt>0</asrwt>
<pdfrwt beam="1">  1        1 0.12829376E+00 0.27037542E+03</pdfrwt>
<pdfrwt beam="2">  1       -1 0.33716476E-02 0.27037542E+03</pdfrwt>
<totfact> 0.68332559E+03</totfact>
</mgrwt>
</event>
<event>
 9    1  0.7926126E-001  0.2731831E+03  0.7818608E-02  0.1099472E+00
          2   -1    0    0  501    0  0.00000000000E+00  0.00000000000E+00  0.41957688126E+04  0.41957688126E+04  0.00000000000E+00 0. -1.
         -2   -1    0    0    0  501 -0.00000000000E+00 -0.00000000000E+00 -0.44466838335E+01  0.44466838335E+01  0.00000000000E+00 0. -1.
         35    2    1    2    0    0  0.71054273576E-14  0.00000000000E+00  0.41913221288E+04  0.42002154965E+04  0.27318314259E+03 0.  0.
         25    2    3    3    0    0 -0.54075004178E+02  0.11582636719E+02  0.16409061557E+04  0.16466019380E+04  0.12516655583E+03 0.  0.
         25    2    3    3    0    0  0.54075004178E+02 -0.11582636719E+02  0.25504159731E+04  0.25536135585E+04  0.11516208945E+03 0.  0.
          5    1    4    4  502    0 -0.67546946232E+02  0.20247306779E+02  0.44481426810E+03  0.45039356843E+03  0.47000000000E+01 0.  1.
         -5    1    4    4    0  502  0.13471942054E+02 -0.86646700596E+01  0.11960918876E+04  0.11962083696E+04  0.47000000000E+01 0.  1.
          5    1    5    5  503    0 -0.17040448865E+01  0.46602662898E+02  0.99554889660E+03  0.99665159784E+03  0.47000000000E+01 0. -1.
         -5    1    5    5    0  503  0.55779049064E+02 -0.58185299618E+02  0.15548670765E+04  0.15569619607E+04  0.47000000000E+01 0. -1.
<mgrwt>
<rscale>  0 0.27318314E+03</rscale>
<asrwt>0</asrwt>
<pdfrwt beam="1">  1        2 0.64549973E+00 0.27318314E+03</pdfrwt>
<pdfrwt beam="2">  1       -2 0.68410856E-03 0.27318314E+03</pdfrwt>
<totfact> 0.11566810E+03</totfact>
</mgrwt>
</event>
<event>
 9    1  0.7926126E-001  0.2760401E+03  0.7818608E-02  0.1097872E+00
          4   -1    0    0  501    0  0.00000000000E+00  0.00000000000E+00  0.27918405733E+03  0.27918405733E+03  0.00000000000E+00 0. -1.
         -4   -1    0    0    0  501 -0.00000000000E+00 -0.00000000000E+00 -0.68232882545E+02  0.68232882545E+02  0.00000000000E+00 0. -1.
         35    2    1    2    0    0 -0.14210854715E-13  0.35527136788E-14  0.21095117478E+03  0.34741693987E+03  0.27604009123E+03 0.  0.
         25    2    3    3    0    0 -0.61060379209E+02  0.98815354314E+01  0.94782048700E+02  0.16772655657E+03  0.12378427352E+03 0.  0.
         25    2    3    3    0    0  0.61060379209E+02 -0.98815354314E+01  0.11616912608E+03  0.17969038330E+03  0.12234113513E+03 0.  0.
          5    1    4    4  502    0 -0.52547420075E+02  0.40414591845E+02 -0.12702398351E+01  0.66470099291E+02  0.47000000000E+01 0.  1.
         -5    1    4    4    0  502 -0.85129591339E+01 -0.30533056414E+02  0.96052288535E+02  0.10125645728E+03  0.47000000000E+01 0.  1.
          5    1    5    5  503    0  0.22879692562E+02  0.35823695414E+02 -0.64914914356E+01  0.43255600169E+02  0.47000000000E+01 0. -1.
         -5    1    5    5    0  503  0.38180686647E+02 -0.45705230846E+02  0.12266061752E+03  0.13643478313E+03  0.47000000000E+01 0. -1.
<mgrwt>
<rscale>  0 0.27604009E+03</rscale>
<asrwt>0</asrwt>
<pdfrwt beam="1">  1        4 0.42951393E-01 0.27604009E+03</pdfrwt>
<pdfrwt beam="2">  1       -4 0.10497367E-01 0.27604009E+03</pdfrwt>
<totfact> 0.69175089E+02</totfact>
</mgrwt>
</event>
<event>
 9    1  0.7926126E-001  0.2703662E+03  0.7818608E-02  0.1101070E+00
         -2   -1    0    0    0  501 -0.00000000000E+00  0.00000000000E+00  0.79722855295E+02  0.79722855295E+02  0.00000000000E+00 0. -1.
          2   -1    0    0  501    0  0.00000000000E+00 -0.00000000000E+00 -0.22922500625E+03  0.22922500625E+03  0.00000000000E+00 0. -1.
         35    2    1    2    0    0  0.35527136788E-14  0.71054273576E-14 -0.14950215096E+03  0.30894786155E+03  0.27036621093E+03 0.  0.
         25    2    3    3    0    0  0.14195050012E+02  0.40283593937E+02 -0.10569184748E+03  0.16853624478E+03  0.12413473244E+03 0.  0.
         25    2    3    3    0    0 -0.14195050012E+02 -0.40283593937E+02 -0.43810303483E+02  0.14041161677E+03  0.12637963462E+03 0.  0.
          5    1    4    4  502    0 -0.39103632107E+02 -0.97950429006E+01 -0.81689147852E+00  0.40593031681E+02  0.47000000000E+01 0.  1.
         -5    1    4    4    0  502  0.53298682119E+02  0.50078636838E+02 -0.10487495600E+03  0.12794321310E+03  0.47000000000E+01 0.  1.
          5    1    5    5  503    0 -0.16343918584E+02 -0.84163418479E+02 -0.13715757631E+02  0.86952956777E+02  0.47000000000E+01 0. -1.
         -5    1    5    5    0  503  0.21488685718E+01  0.43879824542E+02 -0.30094545852E+02  0.53458659991E+02  0.47000000000E+01 0. -1.
<mgrwt>
<rscale>  0 0.27036621E+03</rscale>
<asrwt>0</asrwt>
<pdfrwt beam="1">  1        2 0.35265386E-01 0.27036621E+03</pdfrwt>
<pdfrwt beam="2">  1       -2 0.12265055E-01 0.27036621E+03</pdfrwt>
<totfact> 0.69370569E+03</totfact>
</mgrwt>
</event>
<event>
 9    1  0.7926126E-001  0.2764270E+03  0.7818608E-02  0.1097657E+00
          1   -1    0    0  501    0  0.00000000000E+00  0.00000000000E+00  0.18377759805E+02  0.18377759805E+02  0.00000000000E+00 0.  1.
         -1   -1    0    0    0  501 -0.00000000000E+00 -0.00000000000E+00 -0.10394614997E+04  0.10394614997E+04  0.00000000000E+00 0.  1.
         35    2    1    2    0    0  0.71054273576E-14  0.00000000000E+00 -0.10210837399E+04  0.10578392595E+04  0.27642701581E+03 0.  0.
         25    2    3    3    0    0 -0.43541609548E+02  0.38096658525E+02 -0.52620285522E+03  0.54401971207E+03  0.12538251523E+03 0.  0.
         25    2    3    3    0    0  0.43541609548E+02 -0.38096658525E+02 -0.49488088464E+03  0.51381954740E+03  0.12552374340E+03 0.  0.
          5    1    4    4  502    0  0.90827251520E+01 -0.40956565212E+02 -0.13610942519E+03  0.14250544466E+03  0.47000000000E+01 0.  1.
         -5    1    4    4    0  502 -0.52624334700E+02  0.79053223737E+02 -0.39009343003E+03  0.40151426741E+03  0.47000000000E+01 0.  1.
          5    1    5    5  503    0  0.57088748118E+02 -0.41658367069E+02 -0.12521929548E+03  0.14386280503E+03  0.47000000000E+01 0.  1.
         -5    1    5    5    0  503 -0.13547138570E+02  0.35617085439E+01 -0.36966158915E+03  0.36995674237E+03  0.47000000000E+01 0.  1.
<mgrwt>
<rscale>  0 0.27642702E+03</rscale>
<asrwt>0</asrwt>
<pdfrwt beam="1">  1        1 0.28273478E-02 0.27642702E+03</pdfrwt>
<pdfrwt beam="2">  1       -1 0.15991715E+00 0.27642702E+03</pdfrwt>
<totfact> 0.11805494E+03</totfact>
</mgrwt>
</event>
<event>
 9    1  0.7926126E-001  0.2741236E+03  0.7818608E-02  0.1098943E+00
         -3   -1    0    0    0  501 -0.00000000000E+00  0.00000000000E+00  0.12457400897E+03  0.12457400897E+03  0.00000000000E+00 0.  1.
          3   -1    0    0  501    0  0.00000000000E+00 -0.00000000000E+00 -0.15080137451E+03  0.15080137451E+03  0.00000000000E+00 0.  1.
         35    2    1    2    0    0  0.00000000000E+00  0.00000000000E+00 -0.26227365539E+02  0.27537538347E+03  0.27412356178E+03 0.  0.
         25    2    3    3    0    0 -0.61924541256E+02 -0.95892724697E+01 -0.10971903223E+02  0.13807578263E+03  0.12254768922E+03 0.  0.
         25    2    3    3    0    0  0.61924541256E+02  0.95892724697E+01 -0.15255462316E+02  0.13729960084E+03  0.12120993484E+03 0.  0.
          5    1    4    4  502    0 -0.85381157549E+02 -0.40121603868E+02  0.81957200530E+01  0.94810046876E+02  0.47000000000E+01 0. -1.
         -5    1    4    4    0  502  0.23456616293E+02  0.30532331399E+02 -0.19167623276E+02  0.43265735757E+02  0.47000000000E+01 0. -1.
          5    1    5    5  503    0  0.55562139368E+02 -0.30458169032E+02  0.35011808680E+02  0.72544938755E+02  0.47000000000E+01 0.  1.
         -5    1    5    5    0  503  0.63624018880E+01  0.40047441502E+02 -0.50267270996E+02  0.64754662087E+02  0.47000000000E+01 0.  1.
<mgrwt>
<rscale>  0 0.27412356E+03</rscale>
<asrwt>0</asrwt>
<pdfrwt beam="1">  1        3 0.23200211E-01 0.27412356E+03</pdfrwt>
<pdfrwt beam="2">  1       -3 0.19165232E-01 0.27412356E+03</pdfrwt>
<totfact> 0.10586774E+03</totfact>
</mgrwt>
</event>
<event>
 9    1  0.7926126E-001  0.2762857E+03  0.7818608E-02  0.1097735E+00
         -1   -1    0    0    0  501 -0.00000000000E+00  0.00000000000E+00  0.11195408556E+04  0.11195408556E+04  0.00000000000E+00 0.  1.
          1   -1    0    0  501    0  0.00000000000E+00 -0.00000000000E+00 -0.17045776190E+02  0.17045776190E+02  0.00000000000E+00 0.  1.
         35    2    1    2    0    0  0.14210854715E-13  0.71054273576E-14  0.11024950794E+04  0.11365866318E+04  0.27628566999E+03 0.  0.
         25    2    3    3    0    0  0.46486181195E+02  0.29667374792E+02  0.64896660259E+03  0.66423128703E+03  0.13040104767E+03 0.  0.
         25    2    3    3    0    0 -0.46486181195E+02 -0.29667374792E+02  0.45352847680E+03  0.47235534473E+03  0.11995988605E+03 0.  0.
          5    1    4    4  502    0  0.56736182412E+02 -0.18162586055E+01  0.61094794697E+03  0.61359740636E+03  0.47000000000E+01 0. -1.
         -5    1    4    4    0  502 -0.10250001217E+02  0.31483633397E+02  0.38018655618E+02  0.50633880672E+02  0.47000000000E+01 0. -1.
          5    1    5    5  503    0 -0.76582447743E+02  0.99620083253E+01  0.33306904455E+03  0.34193740852E+03  0.47000000000E+01 0.  1.
         -5    1    5    5    0  503  0.30096266548E+02 -0.39629383117E+02  0.12045943225E+03  0.13041793621E+03  0.47000000000E+01 0.  1.
<mgrwt>
<rscale>  0 0.27628567E+03</rscale>
<asrwt>0</asrwt>
<pdfrwt beam="1">  1        1 0.26224280E-02 0.27628567E+03</pdfrwt>
<pdfrwt beam="2">  1       -1 0.17223700E+00 0.27628567E+03</pdfrwt>
<totfact> 0.10691501E+03</totfact>
</mgrwt>
</event>
<event>
 9    1  0.7926126E-001  0.2751734E+03  0.7818608E-02  0.1098355E+00
         -1   -1    0    0    0  501 -0.00000000000E+00  0.00000000000E+00  0.20679965437E+02  0.20679965437E+02  0.00000000000E+00 0.  1.
          1   -1    0    0  501    0  0.00000000000E+00 -0.00000000000E+00 -0.91538370065E+03  0.91538370065E+03  0.00000000000E+00 0.  1.
         35    2    1    2    0    0  0.00000000000E+00  0.00000000000E+00 -0.89470373521E+03  0.93606366609E+03  0.27517342379E+03 0.  0.
         25    2    3    3    0    0  0.26162286128E+02  0.29389871029E+02 -0.59791816374E+03  0.61202097896E+03  0.12456050107E+03 0.  0.
         25    2    3    3    0    0 -0.26162286128E+02 -0.29389871029E+02 -0.29678557148E+03  0.32404268713E+03  0.12399095898E+03 0.  0.
          5    1    4    4  502    0 -0.38985508395E+02 -0.11102162195E+02 -0.96881873167E+02  0.10512523588E+03  0.47000000000E+01 0. -1.
         -5    1    4    4    0  502  0.65147794523E+02  0.40492033224E+02 -0.50103629057E+03  0.50689574308E+03  0.47000000000E+01 0. -1.
          5    1    5    5  503    0 -0.15533415122E+02 -0.78019249226E+02 -0.16985224265E+03  0.18761706897E+03  0.47000000000E+01 0. -1.
         -5    1    5    5    0  503 -0.10628871005E+02  0.48629378197E+02 -0.12693332883E+03  0.13642561816E+03  0.47000000000E+01 0. -1.
<mgrwt>
<rscale>  0 0.27517342E+03</rscale>
<asrwt>0</asrwt>
<pdfrwt beam="1">  1        1 0.14082829E+00 0.27517342E+03</pdfrwt>
<pdfrwt beam="2">  1       -1 0.31815325E-02 0.27517342E+03</pdfrwt>
<totfact> 0.64141499E+03</totfact>
</mgrwt>
</event>
<event>
 9    1  0.7926126E-001  0.2759721E+03  0.7818608E-02  0.1097909E+00
          2   -1    0    0  501    0  0.00000000000E+00  0.00000000000E+00  0.95495646178E+03  0.95495646178E+03  0.00000000000E+00 0.  1.
         -2   -1    0    0    0  501 -0.00000000000E+00 -0.00000000000E+00 -0.19938239125E+02  0.19938239125E+02  0.00000000000E+00 0.  1.
         35    2    1    2    0    0  0.00000000000E+00 -0.14210854715E-13  0.93501822266E+03  0.97489470091E+03  0.27597210214E+03 0.  0.
         25    2    3    3    0    0 -0.16178235236E+01  0.56614739482E+02  0.50770137995E+03  0.52630812457E+03  0.12661636825E+03 0.  0.
         25    2    3    3    0    0  0.16178235236E+01 -0.56614739482E+02  0.42731684271E+03  0.44858657634E+03  0.12418690079E+03 0.  0.
          5    1    4    4  502    0 -0.62521618342E+02  0.38761994406E+02  0.30868598539E+03  0.31736504619E+03  0.47000000000E+01 0.  1.
         -5    1    4    4    0  502  0.60903794818E+02  0.17852745076E+02  0.19901539456E+03  0.20894307838E+03  0.47000000000E+01 0.  1.
          5    1    5    5  503    0 -0.17365602975E+02 -0.72379623484E+02  0.41298637525E+03  0.41966678473E+03  0.47000000000E+01 0.  1.
         -5    1    5    5    0  503  0.18983426498E+02  0.15764884001E+02  0.14330467463E+02  0.28919791612E+02  0.47000000000E+01 0.  1.
<mgrwt>
<rscale>  0 0.27597210E+03</rscale>
<asrwt>0</asrwt>
<pdfrwt beam="1">  1        2 0.14691634E+00 0.27597210E+03</pdfrwt>
<pdfrwt beam="2">  1       -2 0.30674221E-02 0.27597210E+03</pdfrwt>
<totfact> 0.11447995E+04</totfact>
</mgrwt>
</event>
<event>
 9    1  0.7926126E-001  0.2751943E+03  0.7818608E-02  0.1098343E+00
         -2   -1    0    0    0  501 -0.00000000000E+00  0.00000000000E+00  0.11058176499E+03  0.11058176499E+03  0.00000000000E+00 0.  1.
          2   -1    0    0  501    0  0.00000000000E+00 -0.00000000000E+00 -0.17121251634E+03  0.17121251634E+03  0.00000000000E+00 0.  1.
         35    2    1    2    0    0 -0.17763568394E-14  0.00000000000E+00 -0.60630751343E+02  0.28179428133E+03  0.27519434766E+03 0.  0.
         25    2    3    3    0    0  0.47653867446E+01 -0.55652900665E+02 -0.16973754535E+02  0.13834145289E+03  0.12542047273E+03 0.  0.
         25    2    3    3    0    0 -0.47653867446E+01  0.55652900665E+02 -0.43656996808E+02  0.14345282844E+03  0.12471097127E+03 0.  0.
          5    1    4    4  502    0  0.80257319504E+01 -0.90838790221E+02  0.12398636363E+02  0.92151583632E+02  0.47000000000E+01 0.  1.
         -5    1    4    4    0  502 -0.32603452058E+01  0.35185889556E+02 -0.29372390898E+02  0.46189869255E+02  0.47000000000E+01 0.  1.
          5    1    5    5  503    0  0.39729615171E+02 -0.13435390797E+02 -0.44238445345E+02  0.61139856837E+02  0.47000000000E+01 0. -1.
         -5    1    5    5    0  503 -0.44495001915E+02  0.69088291462E+02  0.58144853681E+00  0.82312971608E+02  0.47000000000E+01 0. -1.
<mgrwt>
<rscale>  0 0.27519435E+03</rscale>
<asrwt>0</asrwt>
<pdfrwt beam="1">  1        2 0.26340387E-01 0.27519435E+03</pdfrwt>
<pdfrwt beam="2">  1       -2 0.17012579E-01 0.27519435E+03</pdfrwt>
<totfact> 0.55793458E+03</totfact>
</mgrwt>
</event>
<event>
 9    1  0.7926126E-001  0.2753504E+03  0.7818608E-02  0.1098256E+00
          4   -1    0    0  501    0  0.00000000000E+00  0.00000000000E+00  0.17958067221E+02  0.17958067221E+02  0.00000000000E+00 0. -1.
         -4   -1    0    0    0  501 -0.00000000000E+00 -0.00000000000E+00 -0.10554844640E+04  0.10554844640E+04  0.00000000000E+00 0. -1.
         35    2    1    2    0    0 -0.71054273576E-14  0.00000000000E+00 -0.10375263968E+04  0.10734425312E+04  0.27535040189E+03 0.  0.
         25    2    3    3    0    0  0.37231351739E+02  0.39102798319E+02 -0.58777879730E+03  0.60337450456E+03  0.12514661726E+03 0.  0.
         25    2    3    3    0    0 -0.37231351739E+02 -0.39102798319E+02 -0.44974759950E+03  0.47006802668E+03  0.12560192698E+03 0.  0.
          5    1    4    4  502    0  0.76297567069E+02  0.49286606785E+02 -0.47161555311E+03  0.48030595279E+03  0.47000000000E+01 0. -1.
         -5    1    4    4    0  502 -0.39066215330E+02 -0.10183808466E+02 -0.11616324419E+03  0.12306855177E+03  0.47000000000E+01 0. -1.
          5    1    5    5  503    0 -0.22559972706E+02  0.40382467765E+01 -0.62569084011E+01  0.24217735408E+02  0.47000000000E+01 0.  1.
         -5    1    5    5    0  503 -0.14671379033E+02 -0.43141045095E+02 -0.44349069110E+03  0.44585029127E+03  0.47000000000E+01 0.  1.
<mgrwt>
<rscale>  0 0.27535040E+03</rscale>
<asrwt>0</asrwt>
<pdfrwt beam="1">  1        4 0.27627790E-02 0.27535040E+03</pdfrwt>
<pdfrwt beam="2">  1       -4 0.16238226E+00 0.27535040E+03</pdfrwt>
<totfact> 0.29518609E+02</totfact>
</mgrwt>
</event>
<event>
 9    1  0.7926126E-001  0.2604354E+03  0.7818608E-02  0.1106882E+00
          2   -1    0    0  501    0  0.00000000000E+00  0.00000000000E+00  0.35473542048E+03  0.35473542048E+03  0.00000000000E+00 0. -1.
         -2   -1    0    0    0  501 -0.00000000000E+00 -0.00000000000E+00 -0.47800850504E+02  0.47800850504E+02  0.00000000000E+00 0. -1.
         35    2    1    2    0    0  0.00000000000E+00  0.35527136788E-14  0.30693456998E+03  0.40253627099E+03  0.26043544154E+03 0.  0.
         25    2    3    3    0    0 -0.99741140155E+01 -0.15191141011E+02  0.10935164535E+03  0.16802682735E+03  0.12627342813E+03 0.  0.
         25    2    3    3    0    0  0.99741140155E+01  0.15191141011E+02  0.19758292463E+03  0.23450944364E+03  0.12500165333E+03 0.  0.
          5    1    4    4  502    0 -0.63822525791E+02 -0.69066672218E+01  0.88654119529E+02  0.10955665092E+03  0.47000000000E+01 0.  1.
         -5    1    4    4    0  502  0.53848411776E+02 -0.82844737888E+01  0.20697525818E+02  0.58470176430E+02  0.47000000000E+01 0.  1.
          5    1    5    5  503    0  0.50992079866E+02 -0.19395636919E+02  0.15925103493E+03  0.16840239032E+03  0.47000000000E+01 0.  1.
         -5    1    5    5    0  503 -0.41017965850E+02  0.34586777930E+02  0.38331889703E+02  0.66107053317E+02  0.47000000000E+01 0.  1.
<mgrwt>
<rscale>  0 0.26043544E+03</rscale>
<asrwt>0</asrwt>
<pdfrwt beam="1">  1        2 0.54574678E-01 0.26043544E+03</pdfrwt>
<pdfrwt beam="2">  1       -2 0.73539772E-02 0.26043544E+03</pdfrwt>
<totfact> 0.97231729E+03</totfact>
</mgrwt>
</event>
<event>
 9    1  0.7926126E-001  0.2730223E+03  0.7818608E-02  0.1099562E+00
         -2   -1    0    0    0  501 -0.00000000000E+00  0.00000000000E+00  0.22404275977E+02  0.22404275977E+02  0.00000000000E+00 0. -1.
          2   -1    0    0  501    0  0.00000000000E+00 -0.00000000000E+00 -0.83177408212E+03  0.83177408212E+03  0.00000000000E+00 0. -1.
         35    2    1    2    0    0  0.00000000000E+00  0.00000000000E+00 -0.80936980615E+03  0.85417835810E+03  0.27302231474E+03 0.  0.
         25    2    3    3    0    0 -0.25711863701E+02 -0.41851009562E+02 -0.44052164005E+03  0.46087426303E+03  0.12622663758E+03 0.  0.
         25    2    3    3    0    0  0.25711863701E+02  0.41851009562E+02 -0.36884816610E+03  0.39330409507E+03  0.12738341584E+03 0.  0.
          5    1    4    4  502    0  0.29519096921E+02 -0.59758569637E+02 -0.14483887137E+03  0.15950815774E+03  0.47000000000E+01 0.  1.
         -5    1    4    4    0  502 -0.55230960622E+02  0.17907560074E+02 -0.29568276868E+03  0.30136610528E+03  0.47000000000E+01 0.  1.
          5    1    5    5  503    0  0.20763178057E+02  0.67867226576E+02 -0.35682067624E+03  0.36384083745E+03  0.47000000000E+01 0.  1.
         -5    1    5    5    0  503  0.49486856437E+01 -0.26016217014E+02 -0.12027489859E+02  0.29463257621E+02  0.47000000000E+01 0.  1.
<mgrwt>
<rscale>  0 0.27302231E+03</rscale>
<asrwt>0</asrwt>
<pdfrwt beam="1">  1        2 0.12796525E+00 0.27302231E+03</pdfrwt>
<pdfrwt beam="2">  1       -2 0.34468116E-02 0.27302231E+03</pdfrwt>
<totfact> 0.11560408E+04</totfact>
</mgrwt>
</event>
<event>
 9    1  0.7926126E-001  0.2784647E+03  0.7818608E-02  0.1096530E+00
          1   -1    0    0  501    0  0.00000000000E+00  0.00000000000E+00  0.13884766653E+04  0.13884766653E+04  0.00000000000E+00 0.  1.
         -1   -1    0    0    0  501 -0.00000000000E+00 -0.00000000000E+00 -0.13961807130E+02  0.13961807130E+02  0.00000000000E+00 0.  1.
         35    2    1    2    0    0  0.71054273576E-14  0.00000000000E+00  0.13745148582E+04  0.14024384725E+04  0.27846467213E+03 0.  0.
         25    2    3    3    0    0  0.34921477219E+02  0.42528050335E+02  0.55092870377E+03  0.56763381318E+03  0.12513019054E+03 0.  0.
         25    2    3    3    0    0 -0.34921477219E+02 -0.42528050335E+02  0.82358615444E+03  0.83480465930E+03  0.12480593238E+03 0.  0.
          5    1    4    4  502    0  0.41386964697E+02 -0.21158447266E+02  0.82349209359E+02  0.94678630216E+02  0.47000000000E+01 0.  1.
         -5    1    4    4    0  502 -0.64654874781E+01  0.63686497601E+02  0.46857949442E+03  0.47295518296E+03  0.47000000000E+01 0.  1.
          5    1    5    5  503    0 -0.64172460239E+02  0.73204511331E+01  0.61198239729E+03  0.61539925110E+03  0.47000000000E+01 0. -1.
         -5    1    5    5    0  503  0.29250983020E+02 -0.49848501469E+02  0.21160375715E+03  0.21940540820E+03  0.47000000000E+01 0. -1.
<mgrwt>
<rscale>  0 0.27846467E+03</rscale>
<asrwt>0</asrwt>
<pdfrwt beam="1">  1        1 0.21361169E+00 0.27846467E+03</pdfrwt>
<pdfrwt beam="2">  1       -1 0.21479714E-02 0.27846467E+03</pdfrwt>
<totfact> 0.52481282E+03</totfact>
</mgrwt>
</event>
<event>
 9    1  0.7926126E-001  0.2750269E+03  0.7818608E-02  0.1098437E+00
         -1   -1    0    0    0  501 -0.00000000000E+00  0.00000000000E+00  0.12160938621E+03  0.12160938621E+03  0.00000000000E+00 0. -1.
          1   -1    0    0  501    0  0.00000000000E+00 -0.00000000000E+00 -0.15549741888E+03  0.15549741888E+03  0.00000000000E+00 0. -1.
         35    2    1    2    0    0  0.00000000000E+00 -0.14210854715E-13 -0.33888032668E+02  0.27710680508E+03  0.27502687626E+03 0.  0.
         25    2    3    3    0    0 -0.25409295694E+02 -0.38960211431E+02 -0.49879076788E+02  0.14309422249E+03  0.12579548413E+03 0.  0.
         25    2    3    3    0    0  0.25409295694E+02  0.38960211431E+02  0.15991044120E+02  0.13401258259E+03  0.12466005141E+03 0.  0.
          5    1    4    4  502    0 -0.57696243018E+01 -0.83301116768E+02 -0.20179424298E+02  0.86032922677E+02  0.47000000000E+01 0.  1.
         -5    1    4    4    0  502 -0.19639671393E+02  0.44340905336E+02 -0.29699652490E+02  0.57061299814E+02  0.47000000000E+01 0.  1.
          5    1    5    5  503    0  0.50507889433E+01 -0.42038896059E+02  0.25775057028E+02  0.49791794661E+02  0.47000000000E+01 0. -1.
         -5    1    5    5    0  503  0.20358506751E+02  0.80999107490E+02 -0.97840129083E+01  0.84220787932E+02  0.47000000000E+01 0. -1.
<mgrwt>
<rscale>  0 0.27502688E+03</rscale>
<asrwt>0</asrwt>
<pdfrwt beam="1">  1        1 0.23922680E-01 0.27502688E+03</pdfrwt>
<pdfrwt beam="2">  1       -1 0.18709136E-01 0.27502688E+03</pdfrwt>
<totfact> 0.45243216E+03</totfact>
</mgrwt>
</event>
<event>
 9    1  0.7926126E-001  0.2667018E+03  0.7818608E-02  0.1103182E+00
          2   -1    0    0  501    0  0.00000000000E+00  0.00000000000E+00  0.12031847403E+04  0.12031847403E+04  0.00000000000E+00 0.  1.
         -2   -1    0    0    0  501 -0.00000000000E+00 -0.00000000000E+00 -0.14779496301E+02  0.14779496301E+02  0.00000000000E+00 0.  1.
         35    2    1    2    0    0 -0.71054273576E-14 -0.71054273576E-14  0.11884052440E+04  0.12179642366E+04  0.26670181416E+03 0.  0.
         25    2    3    3    0    0  0.35924716773E+02  0.27858855523E+02  0.62434689532E+03  0.63839483409E+03  0.12518872707E+03 0.  0.
         25    2    3    3    0    0 -0.35924716773E+02 -0.27858855523E+02  0.56405834871E+03  0.57956940255E+03  0.12518853986E+03 0.  0.
          5    1    4    4  502    0 -0.36953932093E+02 -0.13012402110E+02  0.33099798445E+03  0.33334167369E+03  0.47000000000E+01 0.  1.
         -5    1    4    4    0  502  0.72878648866E+02  0.40871257633E+02  0.29334891087E+03  0.30505316040E+03  0.47000000000E+01 0.  1.
          5    1    5    5  503    0  0.20106835103E+02 -0.52576520900E+02  0.40745450729E+03  0.41135123785E+03  0.47000000000E+01 0. -1.
         -5    1    5    5    0  503 -0.56031551876E+02  0.24717665377E+02  0.15660384142E+03  0.16821816470E+03  0.47000000000E+01 0. -1.
<mgrwt>
<rscale>  0 0.26670181E+03</rscale>
<asrwt>0</asrwt>
<pdfrwt beam="1">  1        2 0.18510527E+00 0.26670181E+03</pdfrwt>
<pdfrwt beam="2">  1       -2 0.22737696E-02 0.26670181E+03</pdfrwt>
<totfact> 0.12695564E+04</totfact>
</mgrwt>
</event>
<event>
 9    1  0.7926126E-001  0.2777935E+03  0.7818608E-02  0.1096900E+00
          2   -1    0    0  501    0  0.00000000000E+00  0.00000000000E+00  0.59975491977E+02  0.59975491977E+02  0.00000000000E+00 0.  1.
         -2   -1    0    0    0  501 -0.00000000000E+00 -0.00000000000E+00 -0.32166976822E+03  0.32166976822E+03  0.00000000000E+00 0.  1.
         35    2    1    2    0    0 -0.17763568394E-14 -0.71054273576E-14 -0.26169427624E+03  0.38164526020E+03  0.27779346719E+03 0.  0.
         25    2    3    3    0    0 -0.80112085335E+01  0.62078373976E+02 -0.14701752192E+03  0.20217205789E+03  0.12386074949E+03 0.  0.
         25    2    3    3    0    0  0.80112085335E+01 -0.62078373976E+02 -0.11467675432E+03  0.17947320230E+03  0.12305270572E+03 0.  0.
          5    1    4    4  502    0  0.53402910865E+02  0.43067363073E+02 -0.47406824584E+02  0.83523443823E+02  0.47000000000E+01 0. -1.
         -5    1    4    4    0  502 -0.61414119398E+02  0.19011010903E+02 -0.99610697337E+02  0.11864861407E+03  0.47000000000E+01 0. -1.
          5    1    5    5  503    0  0.54465628293E+00  0.30272982306E+02 -0.70190110243E+02  0.76586498054E+02  0.47000000000E+01 0.  1.
         -5    1    5    5    0  503  0.74665522506E+01 -0.92351356282E+02 -0.44486644077E+02  0.10288670425E+03  0.47000000000E+01 0.  1.
<mgrwt>
<rscale>  0 0.27779347E+03</rscale>
<asrwt>0</asrwt>
<pdfrwt beam="1">  1        2 0.92269989E-02 0.27779347E+03</pdfrwt>
<pdfrwt beam="2">  1       -2 0.49487656E-01 0.27779347E+03</pdfrwt>
<totfact> 0.27720394E+03</totfact>
</mgrwt>
</event>
<event>
 9    1  0.7926126E-001  0.3046610E+03  0.7818608E-02  0.1082934E+00
         -2   -1    0    0    0  501 -0.00000000000E+00  0.00000000000E+00  0.41207529234E+02  0.41207529234E+02  0.00000000000E+00 0. -1.
          2   -1    0    0  501    0  0.00000000000E+00 -0.00000000000E+00 -0.56311524057E+03  0.56311524057E+03  0.00000000000E+00 0. -1.
         35    2    1    2    0    0  0.00000000000E+00 -0.71054273576E-14 -0.52190771133E+03  0.60432276980E+03  0.30466104272E+03 0.  0.
         25    2    3    3    0    0  0.69200558761E+02 -0.48582734828E+02 -0.20593843137E+03  0.25408202582E+03  0.12246648061E+03 0.  0.
         25    2    3    3    0    0 -0.69200558761E+02  0.48582734828E+02 -0.31596927996E+03  0.35024074398E+03  0.12523175879E+03 0.  0.
          5    1    4    4  502    0  0.14081081604E+02 -0.79271262083E+02 -0.82467629307E+02  0.11534821080E+03  0.47000000000E+01 0. -1.
         -5    1    4    4    0  502  0.55119477157E+02  0.30688527255E+02 -0.12347080206E+03  0.13873381502E+03  0.47000000000E+01 0. -1.
          5    1    5    5  503    0 -0.66967903549E+02  0.64457655421E+02 -0.31982892433E+03  0.33309476172E+03  0.47000000000E+01 0. -1.
         -5    1    5    5    0  503 -0.22326552119E+01 -0.15874920593E+02  0.38596443659E+01  0.17145982263E+02  0.47000000000E+01 0. -1.
<mgrwt>
<rscale>  0 0.30466104E+03</rscale>
<asrwt>0</asrwt>
<pdfrwt beam="1">  1        2 0.86633108E-01 0.30466104E+03</pdfrwt>
<pdfrwt beam="2">  1       -2 0.63396203E-02 0.30466104E+03</pdfrwt>
<totfact> 0.73821836E+03</totfact>
</mgrwt>
</event>
<event>
 9    1  0.7926126E-001  0.2747134E+03  0.7818608E-02  0.1098612E+00
          1   -1    0    0  501    0  0.00000000000E+00  0.00000000000E+00  0.65792205285E+03  0.65792205285E+03  0.00000000000E+00 0.  1.
         -1   -1    0    0    0  501 -0.00000000000E+00 -0.00000000000E+00 -0.28676436289E+02  0.28676436289E+02  0.00000000000E+00 0.  1.
         35    2    1    2    0    0  0.00000000000E+00  0.35527136788E-14  0.62924561656E+03  0.68659848914E+03  0.27471337668E+03 0.  0.
         25    2    3    3    0    0  0.49021539589E+02  0.20066729664E+02  0.36527200517E+03  0.38975278873E+03  0.12521107610E+03 0.  0.
         25    2    3    3    0    0 -0.49021539589E+02 -0.20066729664E+02  0.26397361139E+03  0.29684570041E+03  0.12501806812E+03 0.  0.
          5    1    4    4  502    0  0.11691231843E+02  0.34407776397E+02  0.19241164498E+02  0.41387104149E+02  0.47000000000E+01 0. -1.
         -5    1    4    4    0  502  0.37330307746E+02 -0.14341046733E+02  0.34603084067E+03  0.34836568458E+03  0.47000000000E+01 0. -1.
          5    1    5    5  503    0 -0.32900384534E+02  0.30708535810E+02  0.24467184154E+02  0.51441059228E+02  0.47000000000E+01 0. -1.
         -5    1    5    5    0  503 -0.16121155055E+02 -0.50775265475E+02  0.23950642724E+03  0.24540464118E+03  0.47000000000E+01 0. -1.
<mgrwt>
<rscale>  0 0.27471338E+03</rscale>
<asrwt>0</asrwt>
<pdfrwt beam="1">  1        1 0.10121877E+00 0.27471338E+03</pdfrwt>
<pdfrwt beam="2">  1       -1 0.44117599E-02 0.27471338E+03</pdfrwt>
<totfact> 0.65325642E+03</totfact>
</mgrwt>
</event>
<event>
 9    1  0.7926126E-001  0.2772275E+03  0.7818608E-02  0.1097213E+00
         -2   -1    0    0    0  501 -0.00000000000E+00  0.00000000000E+00  0.86584997417E+01  0.86584997417E+01  0.00000000000E+00 0. -1.
          2   -1    0    0  501    0  0.00000000000E+00 -0.00000000000E+00 -0.22190642145E+04  0.22190642145E+04  0.00000000000E+00 0. -1.
         35    2    1    2    0    0  0.00000000000E+00  0.00000000000E+00 -0.22104057147E+04  0.22277227142E+04  0.27722746565E+03 0.  0.
         25    2    3    3    0    0  0.51957658000E+02  0.25255134412E+02 -0.96893212768E+03  0.97867448051E+03  0.12504739385E+03 0.  0.
         25    2    3    3    0    0 -0.51957658000E+02 -0.25255134412E+02 -0.12414735870E+04  0.12490482337E+04  0.12460899943E+03 0.  0.
          5    1    4    4  502    0  0.33338730787E+02  0.22955488211E+02 -0.95228498325E+03  0.95315644295E+03  0.47000000000E+01 0.  1.
         -5    1    4    4    0  502  0.18618927213E+02  0.22996462012E+01 -0.16647144427E+02  0.25518037558E+02  0.47000000000E+01 0.  1.
          5    1    5    5  503    0 -0.62049625200E+02 -0.14676828717E+02 -0.27049449684E+03  0.27794770751E+03  0.47000000000E+01 0.  1.
         -5    1    5    5    0  503  0.10091967200E+02 -0.10578305695E+02 -0.97097909019E+03  0.97110052618E+03  0.47000000000E+01 0.  1.
<mgrwt>
<rscale>  0 0.27722747E+03</rscale>
<asrwt>0</asrwt>
<pdfrwt beam="1">  1        2 0.34139527E+00 0.27722747E+03</pdfrwt>
<pdfrwt beam="2">  1       -2 0.13320739E-02 0.27722747E+03</pdfrwt>
<totfact> 0.79845699E+03</totfact>
</mgrwt>
</event>
<event>
 9    1  0.7926126E-001  0.2753207E+03  0.7818608E-02  0.1098272E+00
         -2   -1    0    0    0  501 -0.00000000000E+00  0.00000000000E+00  0.95832196370E+01  0.95832196370E+01  0.00000000000E+00 0.  1.
          2   -1    0    0  501    0  0.00000000000E+00 -0.00000000000E+00 -0.19774538629E+04  0.19774538629E+04  0.00000000000E+00 0.  1.
         35    2    1    2    0    0  0.00000000000E+00  0.71054273576E-14 -0.19678706432E+04  0.19870370825E+04  0.27532071981E+03 0.  0.
         25    2    3    3    0    0  0.41453429042E+01  0.52829003996E+02 -0.86733949234E+03  0.87785382196E+03  0.12466535298E+03 0.  0.
         25    2    3    3    0    0 -0.41453429042E+01 -0.52829003996E+02 -0.11005311509E+04  0.11091832605E+04  0.12771297449E+03 0.  0.
          5    1    4    4  502    0 -0.39878734326E+02 -0.23978026713E+02 -0.30941910263E+03  0.31293374744E+03  0.47000000000E+01 0.  1.
         -5    1    4    4    0  502  0.44024077230E+02  0.76807030709E+02 -0.55792038971E+03  0.56492007452E+03  0.47000000000E+01 0.  1.
          5    1    5    5  503    0  0.49455134147E+02 -0.65917656328E+02 -0.69698673950E+03  0.70185721678E+03  0.47000000000E+01 0. -1.
         -5    1    5    5    0  503 -0.53600477051E+02  0.13088652333E+02 -0.40354441139E+03  0.40732604376E+03  0.47000000000E+01 0. -1.
<mgrwt>
<rscale>  0 0.27532072E+03</rscale>
<asrwt>0</asrwt>
<pdfrwt beam="1">  1        2 0.30422382E+00 0.27532072E+03</pdfrwt>
<pdfrwt beam="2">  1       -2 0.14743408E-02 0.27532072E+03</pdfrwt>
<totfact> 0.92386342E+03</totfact>
</mgrwt>
</event>
<event>
 9    1  0.7926126E-001  0.2857758E+03  0.7818608E-02  0.1092576E+00
          1   -1    0    0  501    0  0.00000000000E+00  0.00000000000E+00  0.39185681505E+02  0.39185681505E+02  0.00000000000E+00 0.  1.
         -1   -1    0    0    0  501 -0.00000000000E+00 -0.00000000000E+00 -0.52103082524E+03  0.52103082524E+03  0.00000000000E+00 0.  1.
         35    2    1    2    0    0  0.35527136788E-14  0.00000000000E+00 -0.48184514374E+03  0.56021650675E+03  0.28577577205E+03 0.  0.
         25    2    3    3    0    0 -0.22271098597E+02  0.60679062395E+02 -0.21040613939E+03  0.25510341196E+03  0.12895370042E+03 0.  0.
         25    2    3    3    0    0  0.22271098597E+02 -0.60679062395E+02 -0.27143900435E+03  0.30511309479E+03  0.12343790782E+03 0.  0.
          5    1    4    4  502    0 -0.10896948981E+02 -0.25421430465E+01 -0.18573650229E+03  0.18613259863E+03  0.47000000000E+01 0.  1.
         -5    1    4    4    0  502 -0.11374149616E+02  0.63221205441E+02 -0.24669637102E+02  0.68970813332E+02  0.47000000000E+01 0.  1.
          5    1    5    5  503    0  0.60990095617E+02  0.22124210289E+01 -0.16030561181E+03  0.17159448053E+03  0.47000000000E+01 0.  1.
         -5    1    5    5    0  503 -0.38718997021E+02 -0.62891483424E+02 -0.11113339254E+03  0.13351861426E+03  0.47000000000E+01 0.  1.
<mgrwt>
<rscale>  0 0.28577577E+03</rscale>
<asrwt>0</asrwt>
<pdfrwt beam="1">  1        1 0.60285665E-02 0.28577577E+03</pdfrwt>
<pdfrwt beam="2">  1       -1 0.80158587E-01 0.28577577E+03</pdfrwt>
<totfact> 0.20843037E+03</totfact>
</mgrwt>
</event>
<event>
 9    1  0.7926126E-001  0.2740747E+03  0.7818608E-02  0.1098970E+00
          2   -1    0    0  501    0  0.00000000000E+00  0.00000000000E+00  0.16413385022E+03  0.16413385022E+03  0.00000000000E+00 0. -1.
         -2   -1    0    0    0  501 -0.00000000000E+00 -0.00000000000E+00 -0.11441413643E+03  0.11441413643E+03  0.00000000000E+00 0. -1.
         35    2    1    2    0    0 -0.71054273576E-14  0.71054273576E-14  0.49719713789E+02  0.27854798664E+03  0.27407468129E+03 0.  0.
         25    2    3    3    0    0 -0.47911260145E+02  0.28984405881E+02  0.27642241764E+02  0.13980970055E+03  0.12508826565E+03 0.  0.
         25    2    3    3    0    0  0.47911260145E+02 -0.28984405881E+02  0.22077472025E+02  0.13873828610E+03  0.12500125049E+03 0.  0.
          5    1    4    4  502    0 -0.44019295119E+02  0.68699616832E+02 -0.12887776424E+02  0.82737660571E+02  0.47000000000E+01 0. -1.
         -5    1    4    4    0  502 -0.38919650255E+01 -0.39715210951E+02  0.40530018188E+02  0.57072039975E+02  0.47000000000E+01 0. -1.
          5    1    5    5  503    0  0.81822295136E+02  0.10286860579E+02  0.11911895626E+01  0.82608815598E+02  0.47000000000E+01 0.  1.
         -5    1    5    5    0  503 -0.33911034991E+02 -0.39271266460E+02  0.20886282463E+02  0.56129470500E+02  0.47000000000E+01 0.  1.
<mgrwt>
<rscale>  0 0.27407468E+03</rscale>
<asrwt>0</asrwt>
<pdfrwt beam="1">  1        2 0.25251362E-01 0.27407468E+03</pdfrwt>
<pdfrwt beam="2">  1       -2 0.17602175E-01 0.27407468E+03</pdfrwt>
<totfact> 0.55220961E+03</totfact>
</mgrwt>
</event>
<event>
 9    1  0.7926126E-001  0.2809671E+03  0.7818608E-02  0.1095162E+00
         -1   -1    0    0    0  501 -0.00000000000E+00  0.00000000000E+00  0.64395149207E+02  0.64395149207E+02  0.00000000000E+00 0.  1.
          1   -1    0    0  501    0  0.00000000000E+00 -0.00000000000E+00 -0.30647702088E+03  0.30647702088E+03  0.00000000000E+00 0.  1.
         35    2    1    2    0    0  0.35527136788E-14 -0.71054273576E-14 -0.24208187167E+03  0.37087217009E+03  0.28096714034E+03 0.  0.
         25    2    3    3    0    0 -0.11308294025E+02  0.57191744856E+02 -0.87345816171E+02  0.16359461253E+03  0.12543975626E+03 0.  0.
         25    2    3    3    0    0  0.11308294025E+02 -0.57191744856E+02 -0.15473605550E+03  0.20727755756E+03  0.12498786262E+03 0.  0.
          5    1    4    4  502    0 -0.27087751735E+01  0.21405201118E+02  0.31850680471E+02  0.38756624522E+02  0.47000000000E+01 0. -1.
         -5    1    4    4    0  502 -0.85995188518E+01  0.35786543737E+02 -0.11919649664E+03  0.12483798800E+03  0.47000000000E+01 0. -1.
          5    1    5    5  503    0  0.32395015739E+02  0.32209722918E+02 -0.49997994173E+02  0.67888089651E+02  0.47000000000E+01 0. -1.
         -5    1    5    5    0  503 -0.21086721714E+02 -0.89401467774E+02 -0.10473806133E+03  0.13938946791E+03  0.47000000000E+01 0. -1.
<mgrwt>
<rscale>  0 0.28096714E+03</rscale>
<asrwt>0</asrwt>
<pdfrwt beam="1">  1        1 0.47150312E-01 0.28096714E+03</pdfrwt>
<pdfrwt beam="2">  1       -1 0.99069458E-02 0.28096714E+03</pdfrwt>
<totfact> 0.52453965E+03</totfact>
</mgrwt>
</event>
<event>
 9    1  0.7926126E-001  0.2761220E+03  0.7818608E-02  0.1097826E+00
         -2   -1    0    0    0  501 -0.00000000000E+00  0.00000000000E+00  0.11484746916E+03  0.11484746916E+03  0.00000000000E+00 0. -1.
          2   -1    0    0  501    0  0.00000000000E+00 -0.00000000000E+00 -0.16596661572E+03  0.16596661572E+03  0.00000000000E+00 0. -1.
         35    2    1    2    0    0  0.71054273576E-14  0.35527136788E-14 -0.51119146567E+02  0.28081408488E+03  0.27612204389E+03 0.  0.
         25    2    3    3    0    0  0.42447434807E+02  0.28116942014E+02 -0.48368726556E+02  0.14309598735E+03  0.12467790798E+03 0.  0.
         25    2    3    3    0    0 -0.42447434807E+02 -0.28116942014E+02 -0.27504200112E+01  0.13771809753E+03  0.12793108468E+03 0.  0.
          5    1    4    4  502    0 -0.14874917038E+02  0.19698908133E+02 -0.75044595092E+02  0.79139695419E+02  0.47000000000E+01 0.  1.
         -5    1    4    4    0  502  0.57322351845E+02  0.84180338818E+01  0.26675868536E+02  0.63956291931E+02  0.47000000000E+01 0.  1.
          5    1    5    5  503    0 -0.55641831263E+02  0.31924583642E+02  0.26389804240E+02  0.69524845881E+02  0.47000000000E+01 0. -1.
         -5    1    5    5    0  503  0.13194396456E+02 -0.60041525656E+02 -0.29140224252E+02  0.68193251649E+02  0.47000000000E+01 0. -1.
<mgrwt>
<rscale>  0 0.27612204E+03</rscale>
<asrwt>0</asrwt>
<pdfrwt beam="1">  1        2 0.25533325E-01 0.27612204E+03</pdfrwt>
<pdfrwt beam="2">  1       -2 0.17668842E-01 0.27612204E+03</pdfrwt>
<totfact> 0.54209486E+03</totfact>
</mgrwt>
</event>
<event>
 9    1  0.7926126E-001  0.2700447E+03  0.7818608E-02  0.1101254E+00
         -4   -1    0    0    0  501 -0.00000000000E+00  0.00000000000E+00  0.81030759204E+02  0.81030759204E+02  0.00000000000E+00 0. -1.
          4   -1    0    0  501    0  0.00000000000E+00 -0.00000000000E+00 -0.22498907573E+03  0.22498907573E+03  0.00000000000E+00 0. -1.
         35    2    1    2    0    0 -0.17763568394E-14 -0.71054273576E-14 -0.14395831653E+03  0.30601983494E+03  0.27004470459E+03 0.  0.
         25    2    3    3    0    0 -0.11362061691E+02 -0.44839775287E+02 -0.93575735158E+02  0.16350745415E+03  0.12585137050E+03 0.  0.
         25    2    3    3    0    0  0.11362061691E+02  0.44839775287E+02 -0.50382581372E+02  0.14251238079E+03  0.12502668627E+03 0.  0.
          5    1    4    4  502    0 -0.11638180518E+02  0.98456322044E+01 -0.10603101317E+03  0.10722429517E+03  0.47000000000E+01 0. -1.
         -5    1    4    4    0  502  0.27611882781E+00 -0.54685407492E+02  0.12455278016E+02  0.56283158979E+02  0.47000000000E+01 0. -1.
          5    1    5    5  503    0 -0.33932817894E+02 -0.20367816613E+02  0.11789206905E+02  0.41561514449E+02  0.47000000000E+01 0.  1.
         -5    1    5    5    0  503  0.45294879585E+02  0.65207591900E+02 -0.62171788277E+02  0.10095086634E+03  0.47000000000E+01 0.  1.
<mgrwt>
<rscale>  0 0.27004470E+03</rscale>
<asrwt>0</asrwt>
<pdfrwt beam="1">  1        4 0.34613705E-01 0.27004470E+03</pdfrwt>
<pdfrwt beam="2">  1       -4 0.12466270E-01 0.27004470E+03</pdfrwt>
<totfact> 0.78615971E+02</totfact>
</mgrwt>
</event>
<event>
 9    1  0.7926126E-001  0.2772447E+03  0.7818608E-02  0.1097203E+00
          1   -1    0    0  501    0  0.00000000000E+00  0.00000000000E+00  0.13347005702E+04  0.13347005702E+04  0.00000000000E+00 0.  1.
         -1   -1    0    0    0  501 -0.00000000000E+00 -0.00000000000E+00 -0.14397351521E+02  0.14397351521E+02  0.00000000000E+00 0.  1.
         35    2    1    2    0    0  0.71054273576E-14  0.71054273576E-14  0.13203032187E+04  0.13490979217E+04  0.27724468099E+03 0.  0.
         25    2    3    3    0    0  0.41733425940E+02  0.33799474839E+02  0.78206320682E+03  0.79395665256E+03  0.12593737864E+03 0.  0.
         25    2    3    3    0    0 -0.41733425940E+02 -0.33799474839E+02  0.53824001188E+03  0.55514126918E+03  0.12488168409E+03 0.  0.
          5    1    4    4  502    0 -0.14100507340E+02 -0.39283227255E+02  0.32549819822E+03  0.32819683620E+03  0.47000000000E+01 0. -1.
         -5    1    4    4    0  502  0.55833933280E+02  0.73082702094E+02  0.45656500861E+03  0.46575981636E+03  0.47000000000E+01 0. -1.
          5    1    5    5  503    0 -0.77060019854E+02 -0.14381311489E+00  0.22010661666E+03  0.23325368173E+03  0.47000000000E+01 0. -1.
         -5    1    5    5    0  503  0.35326593914E+02 -0.33655661724E+02  0.31813339522E+03  0.32188758745E+03  0.47000000000E+01 0. -1.
<mgrwt>
<rscale>  0 0.27724468E+03</rscale>
<asrwt>0</asrwt>
<pdfrwt beam="1">  1        1 0.20533845E+00 0.27724468E+03</pdfrwt>
<pdfrwt beam="2">  1       -1 0.22149782E-02 0.27724468E+03</pdfrwt>
<totfact> 0.54550685E+03</totfact>
</mgrwt>
</event>
<event>
 9    1  0.7926126E-001  0.2745173E+03  0.7818608E-02  0.1098722E+00
          2   -1    0    0  501    0  0.00000000000E+00  0.00000000000E+00  0.14551705564E+04  0.14551705564E+04  0.00000000000E+00 0. -1.
         -2   -1    0    0    0  501 -0.00000000000E+00 -0.00000000000E+00 -0.12946896328E+02  0.12946896328E+02  0.00000000000E+00 0. -1.
         35    2    1    2    0    0  0.00000000000E+00  0.00000000000E+00  0.14422236601E+04  0.14681174527E+04  0.27451733886E+03 0.  0.
         25    2    3    3    0    0 -0.11789685198E+02  0.61367903871E+01  0.10183510263E+04  0.10261215432E+04  0.12533934692E+03 0.  0.
         25    2    3    3    0    0  0.11789685198E+02 -0.61367903871E+01  0.42387263380E+03  0.44199590951E+03  0.12456210283E+03 0.  0.
          5    1    4    4  502    0 -0.53795312580E+02 -0.90300064184E+01  0.85378056719E+03  0.85553423285E+03  0.47000000000E+01 0. -1.
         -5    1    4    4    0  502  0.42005627383E+02  0.15166796806E+02  0.16457045908E+03  0.17058731037E+03  0.47000000000E+01 0. -1.
          5    1    5    5  503    0  0.11649871493E+02  0.19993366641E+01  0.43037850960E+03  0.43056645059E+03  0.47000000000E+01 0.  1.
         -5    1    5    5    0  503  0.13981370477E+00 -0.81361270513E+01 -0.65058757936E+01  0.11429458916E+02  0.47000000000E+01 0.  1.
<mgrwt>
<rscale>  0 0.27451734E+03</rscale>
<asrwt>0</asrwt>
<pdfrwt beam="1">  1        2 0.22387226E+00 0.27451734E+03</pdfrwt>
<pdfrwt beam="2">  1       -2 0.19918314E-02 0.27451734E+03</pdfrwt>
<totfact> 0.11216307E+04</totfact>
</mgrwt>
</event>
<event>
 9    1  0.7926126E-001  0.2718209E+03  0.7818608E-02  0.1100242E+00
          3   -1    0    0  501    0  0.00000000000E+00  0.00000000000E+00  0.92803715109E+02  0.92803715109E+02  0.00000000000E+00 0. -1.
         -3   -1    0    0    0  501 -0.00000000000E+00 -0.00000000000E+00 -0.19903995234E+03  0.19903995234E+03  0.00000000000E+00 0. -1.
         35    2    1    2    0    0 -0.35527136788E-14  0.00000000000E+00 -0.10623623723E+03  0.29184366745E+03  0.27182087508E+03 0.  0.
         25    2    3    3    0    0  0.31493159588E+02  0.28638702262E+02 -0.21888153681E+02  0.13566629429E+03  0.12694194644E+03 0.  0.
         25    2    3    3    0    0 -0.31493159588E+02 -0.28638702262E+02 -0.84348083554E+02  0.15617737316E+03  0.12435746186E+03 0.  0.
          5    1    4    4  502    0  0.43681904802E+02  0.23299045803E+02 -0.69808868508E+02  0.85710690493E+02  0.47000000000E+01 0. -1.
         -5    1    4    4    0  502 -0.12188745214E+02  0.53396564589E+01  0.47920714827E+02  0.49955603795E+02  0.47000000000E+01 0. -1.
          5    1    5    5  503    0 -0.76423022243E+02 -0.23082836739E+02 -0.75153484287E+02  0.10974257096E+03  0.47000000000E+01 0. -1.
         -5    1    5    5    0  503  0.44929862656E+02 -0.55558655235E+01 -0.91945992668E+01  0.46434802203E+02  0.47000000000E+01 0. -1.
<mgrwt>
<rscale>  0 0.27182088E+03</rscale>
<asrwt>0</asrwt>
<pdfrwt beam="1">  1        3 0.14277495E-01 0.27182088E+03</pdfrwt>
<pdfrwt beam="2">  1       -3 0.30621531E-01 0.27182088E+03</pdfrwt>
<totfact> 0.10605819E+03</totfact>
</mgrwt>
</event>
<event>
 9    1  0.7926126E-001  0.2653383E+03  0.7818608E-02  0.1103978E+00
          2   -1    0    0  501    0  0.00000000000E+00  0.00000000000E+00  0.19056589441E+04  0.19056589441E+04  0.00000000000E+00 0.  1.
         -2   -1    0    0    0  501 -0.00000000000E+00 -0.00000000000E+00 -0.92362298492E+01  0.92362298492E+01  0.00000000000E+00 0.  1.
         35    2    1    2    0    0 -0.71054273576E-14 -0.35527136788E-14  0.18964227142E+04  0.19148951739E+04  0.26533830497E+03 0.  0.
         25    2    3    3    0    0  0.35506016346E+02  0.17867551519E+02  0.78920457372E+03  0.79997635421E+03  0.12465304456E+03 0.  0.
         25    2    3    3    0    0 -0.35506016346E+02 -0.17867551519E+02  0.11072181405E+04  0.11149188197E+04  0.12462759444E+03 0.  0.
          5    1    4    4  502    0 -0.22940872206E+02 -0.31003003555E+02  0.11332829233E+03  0.11980342937E+03  0.47000000000E+01 0. -1.
         -5    1    4    4    0  502  0.58446888553E+02  0.48870555074E+02  0.67587628139E+03  0.68017292484E+03  0.47000000000E+01 0. -1.
          5    1    5    5  503    0 -0.75308187433E+02 -0.51839954524E+01  0.91686049680E+03  0.91997470481E+03  0.47000000000E+01 0. -1.
         -5    1    5    5    0  503  0.39802171087E+02 -0.12683556067E+02  0.19035764369E+03  0.19494411488E+03  0.47000000000E+01 0. -1.
<mgrwt>
<rscale>  0 0.26533830E+03</rscale>
<asrwt>0</asrwt>
<pdfrwt beam="1">  1        2 0.29317799E+00 0.26533830E+03</pdfrwt>
<pdfrwt beam="2">  1       -2 0.14209600E-02 0.26533830E+03</pdfrwt>
<totfact> 0.10629307E+04</totfact>
</mgrwt>
</event>
<event>
 9    1  0.7926126E-001  0.2746567E+03  0.7818608E-02  0.1098644E+00
          2   -1    0    0  501    0  0.00000000000E+00  0.00000000000E+00  0.69117916121E+03  0.69117916121E+03  0.00000000000E+00 0. -1.
         -2   -1    0    0    0  501 -0.00000000000E+00 -0.00000000000E+00 -0.27285367373E+02  0.27285367373E+02  0.00000000000E+00 0. -1.
         35    2    1    2    0    0 -0.35527136788E-14  0.00000000000E+00  0.66389379384E+03  0.71846452859E+03  0.27465671180E+03 0.  0.
         25    2    3    3    0    0  0.26952328460E+02  0.33185826882E+02  0.23964780099E+03  0.27407520499E+03  0.12593022813E+03 0.  0.
         25    2    3    3    0    0 -0.26952328460E+02 -0.33185826882E+02  0.42424599285E+03  0.44438932360E+03  0.12517779899E+03 0.  0.
          5    1    4    4  502    0 -0.49204060645E+01  0.36124872484E+02  0.23890387254E+03  0.24171546728E+03  0.47000000000E+01 0.  1.
         -5    1    4    4    0  502  0.31872734525E+02 -0.29390456017E+01  0.74392844689E+00  0.32359737710E+02  0.47000000000E+01 0.  1.
          5    1    5    5  503    0  0.11266672246E+02  0.26202773957E+02  0.30005811443E+03  0.30144731762E+03  0.47000000000E+01 0. -1.
         -5    1    5    5    0  503 -0.38219000706E+02 -0.59388600839E+02  0.12418787843E+03  0.14294200598E+03  0.47000000000E+01 0. -1.
<mgrwt>
<rscale>  0 0.27465671E+03</rscale>
<asrwt>0</asrwt>
<pdfrwt beam="1">  1        2 0.10633524E+00 0.27465671E+03</pdfrwt>
<pdfrwt beam="2">  1       -2 0.41977493E-02 0.27465671E+03</pdfrwt>
<totfact> 0.10838114E+04</totfact>
</mgrwt>
</event>
<event>
 9    1  0.7926126E-001  0.2750044E+03  0.7818608E-02  0.1098449E+00
          4   -1    0    0  501    0  0.00000000000E+00  0.00000000000E+00  0.23430269434E+03  0.23430269434E+03  0.00000000000E+00 0.  1.
         -4   -1    0    0    0  501 -0.00000000000E+00 -0.00000000000E+00 -0.80694162088E+02  0.80694162088E+02  0.00000000000E+00 0.  1.
         35    2    1    2    0    0  0.00000000000E+00  0.00000000000E+00  0.15360853225E+03  0.31499685642E+03  0.27500443338E+03 0.  0.
         25    2    3    3    0    0  0.13116231487E+02 -0.52415904335E+02  0.96216727177E+02  0.16632068381E+03  0.12444054290E+03 0.  0.
         25    2    3    3    0    0 -0.13116231487E+02  0.52415904335E+02  0.57391805071E+02  0.14867617262E+03  0.12606078875E+03 0.  0.
          5    1    4    4  502    0  0.22417626330E+02  0.29948912746E+02  0.69565924191E+02  0.79126450404E+02  0.47000000000E+01 0. -1.
         -5    1    4    4    0  502 -0.93013948428E+01 -0.82364817081E+02  0.26650802986E+02  0.87194233403E+02  0.47000000000E+01 0. -1.
          5    1    5    5  503    0 -0.49864865125E+01  0.50921317088E+02 -0.30845414059E+02  0.59928083151E+02  0.47000000000E+01 0. -1.
         -5    1    5    5    0  503 -0.81297449743E+01  0.14945872474E+01  0.88237219130E+02  0.88748089467E+02  0.47000000000E+01 0. -1.
<mgrwt>
<rscale>  0 0.27500443E+03</rscale>
<asrwt>0</asrwt>
<pdfrwt beam="1">  1        4 0.36046568E-01 0.27500443E+03</pdfrwt>
<pdfrwt beam="2">  1       -4 0.12414487E-01 0.27500443E+03</pdfrwt>
<totfact> 0.73348470E+02</totfact>
</mgrwt>
</event>
<event>
 9    1  0.7926126E-001  0.2761083E+03  0.7818608E-02  0.1097834E+00
          4   -1    0    0  501    0  0.00000000000E+00  0.00000000000E+00  0.51708509355E+03  0.51708509355E+03  0.00000000000E+00 0.  1.
         -4   -1    0    0    0  501 -0.00000000000E+00 -0.00000000000E+00 -0.36858446469E+02  0.36858446469E+02  0.00000000000E+00 0.  1.
         35    2    1    2    0    0 -0.71054273576E-14  0.88817841970E-15  0.48022664708E+03  0.55394354002E+03  0.27610833555E+03 0.  0.
         25    2    3    3    0    0 -0.25357451181E+02  0.41878871126E+01  0.34600848592E+03  0.36884302269E+03  0.12515096617E+03 0.  0.
         25    2    3    3    0    0  0.25357451181E+02 -0.41878871126E+01  0.13421816116E+03  0.18510051732E+03  0.12484850019E+03 0.  0.
          5    1    4    4  502    0 -0.64654147444E+02 -0.73278042237E-01  0.30453489632E+03  0.31135792463E+03  0.47000000000E+01 0. -1.
         -5    1    4    4    0  502  0.39296696263E+02  0.42611651549E+01  0.41473589599E+02  0.57485098068E+02  0.47000000000E+01 0. -1.
          5    1    5    5  503    0  0.30918670967E+02 -0.61725545797E+02  0.66953481999E+02  0.96285336215E+02  0.47000000000E+01 0.  1.
         -5    1    5    5    0  503 -0.55612197859E+01  0.57537658684E+02  0.67264679162E+02  0.88815181107E+02  0.47000000000E+01 0.  1.
<mgrwt>
<rscale>  0 0.27610834E+03</rscale>
<asrwt>0</asrwt>
<pdfrwt beam="1">  1        4 0.79551548E-01 0.27610834E+03</pdfrwt>
<pdfrwt beam="2">  1       -4 0.56705306E-02 0.27610834E+03</pdfrwt>
<totfact> 0.52479322E+02</totfact>
</mgrwt>
</event>
<event>
 9    1  0.7926126E-001  0.2717511E+03  0.7818608E-02  0.1100282E+00
         -4   -1    0    0    0  501 -0.00000000000E+00  0.00000000000E+00  0.35361880305E+03  0.35361880305E+03  0.00000000000E+00 0.  1.
          4   -1    0    0  501    0  0.00000000000E+00 -0.00000000000E+00 -0.52209244321E+02  0.52209244321E+02  0.00000000000E+00 0.  1.
         35    2    1    2    0    0  0.00000000000E+00 -0.71054273576E-14  0.30140955873E+03  0.40582804737E+03  0.27175113972E+03 0.  0.
         25    2    3    3    0    0  0.19272058860E+02 -0.48287620533E+02  0.16911415696E+03  0.21703847392E+03  0.12570996194E+03 0.  0.
         25    2    3    3    0    0 -0.19272058860E+02  0.48287620533E+02  0.13229540177E+03  0.18878957345E+03  0.12424300046E+03 0.  0.
          5    1    4    4  502    0  0.46538261895E+02 -0.63048274493E+02  0.16825381891E+03  0.18566726236E+03  0.47000000000E+01 0.  1.
         -5    1    4    4    0  502 -0.27266203035E+02  0.14760653960E+02  0.86033805240E+00  0.31371211562E+02  0.47000000000E+01 0.  1.
          5    1    5    5  503    0  0.30836900790E+02  0.28330597411E+02  0.12767786824E+03  0.13445172085E+03  0.47000000000E+01 0.  1.
         -5    1    5    5    0  503 -0.50108959650E+02  0.19957023122E+02  0.46175335272E+01  0.54337852598E+02  0.47000000000E+01 0.  1.
<mgrwt>
<rscale>  0 0.27175114E+03</rscale>
<asrwt>0</asrwt>
<pdfrwt beam="1">  1        4 0.80321917E-02 0.27175114E+03</pdfrwt>
<pdfrwt beam="2">  1       -4 0.54402891E-01 0.27175114E+03</pdfrwt>
<totfact> 0.66875066E+02</totfact>
</mgrwt>
</event>
<event>
 9    1  0.7926126E-001  0.2690412E+03  0.7818608E-02  0.1101830E+00
         -3   -1    0    0    0  501 -0.00000000000E+00  0.00000000000E+00  0.62677119544E+02  0.62677119544E+02  0.00000000000E+00 0.  1.
          3   -1    0    0  501    0  0.00000000000E+00 -0.00000000000E+00 -0.28871451342E+03  0.28871451342E+03  0.00000000000E+00 0.  1.
         35    2    1    2    0    0  0.35527136788E-14  0.00000000000E+00 -0.22603739388E+03  0.35139163297E+03  0.26904121671E+03 0.  0.
         25    2    3    3    0    0  0.49979997910E+01 -0.11592976060E+02 -0.17244582471E+03  0.21317990010E+03  0.12469454780E+03 0.  0.
         25    2    3    3    0    0 -0.49979997910E+01  0.11592976060E+02 -0.53591569170E+02  0.13821173287E+03  0.12677164400E+03 0.  0.
          5    1    4    4  502    0 -0.56588963365E+02 -0.18471055594E+02 -0.59684717128E+02  0.84426572406E+02  0.47000000000E+01 0. -1.
         -5    1    4    4    0  502  0.61586963156E+02  0.68780795342E+01 -0.11276110758E+03  0.12875332769E+03  0.47000000000E+01 0. -1.
          5    1    5    5  503    0  0.45224856574E+01  0.30298081472E+02  0.35172611400E+02  0.46878878081E+02  0.47000000000E+01 0. -1.
         -5    1    5    5    0  503 -0.95204854484E+01 -0.18705105412E+02 -0.88764180571E+02  0.91332854790E+02  0.47000000000E+01 0. -1.
<mgrwt>
<rscale>  0 0.26904122E+03</rscale>
<asrwt>0</asrwt>
<pdfrwt beam="1">  1        3 0.44417618E-01 0.26904122E+03</pdfrwt>
<pdfrwt beam="2">  1       -3 0.96426337E-02 0.26904122E+03</pdfrwt>
<totfact> 0.10062631E+03</totfact>
</mgrwt>
</event>
<event>
 9    1  0.7926126E-001  0.2752823E+03  0.7818608E-02  0.1098294E+00
          3   -1    0    0  501    0  0.00000000000E+00  0.00000000000E+00  0.31434773951E+04  0.31434773951E+04  0.00000000000E+00 0.  1.
         -3   -1    0    0    0  501 -0.00000000000E+00 -0.00000000000E+00 -0.60267939986E+01  0.60267939986E+01  0.00000000000E+00 0.  1.
         35    2    1    2    0    0 -0.35527136788E-14  0.00000000000E+00  0.31374506011E+04  0.31495041891E+04  0.27528233288E+03 0.  0.
         25    2    3    3    0    0  0.12756515584E+02  0.22585046972E+02  0.89777424011E+03  0.90679640627E+03  0.12493327495E+03 0.  0.
         25    2    3    3    0    0 -0.12756515584E+02 -0.22585046972E+02  0.22396763610E+04  0.22427077828E+04  0.11364499164E+03 0.  0.
          5    1    4    4  502    0 -0.50100873083E+02 -0.53848120201E+01  0.54504229172E+03  0.54738677683E+03  0.47000000000E+01 0. -1.
         -5    1    4    4    0  502  0.62857388667E+02  0.27969858992E+02  0.35273194839E+03  0.35940962944E+03  0.47000000000E+01 0. -1.
          5    1    5    5  503    0  0.18249904138E+02  0.38093812757E+02  0.54461359050E+03  0.54626939373E+03  0.47000000000E+01 0. -1.
         -5    1    5    5    0  503 -0.31006419722E+02 -0.60678859729E+02  0.16950627705E+04  0.16964383891E+04  0.47000000000E+01 0. -1.
<mgrwt>
<rscale>  0 0.27528233E+03</rscale>
<asrwt>0</asrwt>
<pdfrwt beam="1">  1        3 0.48361060E+00 0.27528233E+03</pdfrwt>
<pdfrwt beam="2">  1       -3 0.92720159E-03 0.27528233E+03</pdfrwt>
<totfact> 0.39743529E+01</totfact>
</mgrwt>
</event>
<event>
 8    1  0.7926126E-001  0.4167564E+03  0.7818608E-02  0.1038127E+00
          2   -1    0    0  501    0  0.00000000000E+00  0.00000000000E+00  0.26269747042E+03  0.26269747042E+03  0.00000000000E+00 0. -1.
         -2   -1    0    0    0  501 -0.00000000000E+00 -0.00000000000E+00 -0.16529080575E+03  0.16529080575E+03  0.00000000000E+00 0. -1.
         25    2    1    2    0    0 -0.14681146841E+03  0.44502637486E+02 -0.17740581006E+02  0.19884525298E+03  0.12526218271E+03 0.  0.
         25    2    1    2    0    0  0.14681146841E+03 -0.44502637486E+02  0.11514724568E+03  0.22914302319E+03  0.12535367920E+03 0.  0.
          5    1    3    3  502    0 -0.15329883777E+03  0.64933020700E+02  0.58148658455E+01  0.16665153316E+03  0.47000000000E+01 0.  1.
         -5    1    3    3    0  502  0.64873693608E+01 -0.20430383214E+02 -0.23555446852E+02  0.32193719820E+02  0.47000000000E+01 0.  1.
          5    1    4    4  503    0  0.55667454695E+02 -0.39148514670E+02 -0.15239858129E+02  0.69898605057E+02  0.47000000000E+01 0. -1.
         -5    1    4    4    0  503  0.91144013718E+02 -0.53541228153E+01  0.13038710380E+03  0.15924441813E+03  0.47000000000E+01 0. -1.
<mgrwt>
<rscale>  0 0.41675641E+03</rscale>
<asrwt>0</asrwt>
<pdfrwt beam="1">  1        2 0.40414995E-01 0.41675641E+03</pdfrwt>
<pdfrwt beam="2">  1       -2 0.25429355E-01 0.41675641E+03</pdfrwt>
<totfact> 0.17546333E+03</totfact>
</mgrwt>
</event>
<event>
 9    1  0.7926126E-001  0.2763995E+03  0.7818608E-02  0.1097672E+00
         -2   -1    0    0    0  501 -0.00000000000E+00  0.00000000000E+00  0.23787074542E+02  0.23787074542E+02  0.00000000000E+00 0. -1.
          2   -1    0    0  501    0  0.00000000000E+00 -0.00000000000E+00 -0.80292220674E+03  0.80292220674E+03  0.00000000000E+00 0. -1.
         35    2    1    2    0    0 -0.71054273576E-14 -0.71054273576E-14 -0.77913513220E+03  0.82670928129E+03  0.27639949626E+03 0.  0.
         25    2    3    3    0    0  0.44725247590E+02 -0.36746415272E+02 -0.41828940310E+03  0.44052864118E+03  0.12549427137E+03 0.  0.
         25    2    3    3    0    0 -0.44725247590E+02  0.36746415272E+02 -0.36084572910E+03  0.38618064010E+03  0.12480064012E+03 0.  0.
          5    1    4    4  502    0  0.19521699609E+02  0.44793254539E+02 -0.20395973663E+03  0.20978368996E+03  0.47000000000E+01 0.  1.
         -5    1    4    4    0  502  0.25203547981E+02 -0.81539669811E+02 -0.21432966647E+03  0.23074495122E+03  0.47000000000E+01 0.  1.
          5    1    5    5  503    0  0.75254353227E+01  0.11815942365E+02  0.51169606013E+01  0.15637197849E+02  0.47000000000E+01 0. -1.
         -5    1    5    5    0  503 -0.52250682913E+02  0.24930472907E+02 -0.36596268970E+03  0.37054344225E+03  0.47000000000E+01 0. -1.
<mgrwt>
<rscale>  0 0.27639950E+03</rscale>
<asrwt>0</asrwt>
<pdfrwt beam="1">  1        2 0.12352650E+00 0.27639950E+03</pdfrwt>
<pdfrwt beam="2">  1       -2 0.36595498E-02 0.27639950E+03</pdfrwt>
<totfact> 0.11063732E+04</totfact>
</mgrwt>
</event>
<event>
 9    1  0.7926126E-001  0.2748928E+03  0.7818608E-02  0.1098512E+00
          2   -1    0    0  501    0  0.00000000000E+00  0.00000000000E+00  0.17684827857E+04  0.17684827857E+04  0.00000000000E+00 0. -1.
         -2   -1    0    0    0  501 -0.00000000000E+00 -0.00000000000E+00 -0.10682325141E+02  0.10682325141E+02  0.00000000000E+00 0. -1.
         35    2    1    2    0    0  0.71054273576E-14  0.71054273576E-14  0.17578004606E+04  0.17791651109E+04  0.27489276544E+03 0.  0.
         25    2    3    3    0    0 -0.43282816810E+02 -0.34324345764E+02  0.99684186094E+03  0.10061370210E+04  0.12476556554E+03 0.  0.
         25    2    3    3    0    0  0.43282816810E+02  0.34324345764E+02  0.76095859964E+03  0.77302808987E+03  0.12434980667E+03 0.  0.
          5    1    4    4  502    0  0.98799368645E+01 -0.70400896333E+02  0.57693670646E+03  0.58131914868E+03  0.47000000000E+01 0.  1.
         -5    1    4    4    0  502 -0.53162753674E+02  0.36076550570E+02  0.41990515448E+03  0.42481787231E+03  0.47000000000E+01 0.  1.
          5    1    5    5  503    0  0.29265068298E+01 -0.39209142502E+02  0.42037957377E+03  0.42224044967E+03  0.47000000000E+01 0. -1.
         -5    1    5    5    0  503  0.40356309980E+02  0.73533488266E+02  0.34057902587E+03  0.35078764020E+03  0.47000000000E+01 0. -1.
<mgrwt>
<rscale>  0 0.27489277E+03</rscale>
<asrwt>0</asrwt>
<pdfrwt beam="1">  1        2 0.27207404E+00 0.27489277E+03</pdfrwt>
<pdfrwt beam="2">  1       -2 0.16434360E-02 0.27489277E+03</pdfrwt>
<totfact> 0.10146182E+04</totfact>
</mgrwt>
</event>
<event>
 9    1  0.7926126E-001  0.2731266E+03  0.7818608E-02  0.1099503E+00
         -2   -1    0    0    0  501 -0.00000000000E+00  0.00000000000E+00  0.13397400624E+03  0.13397400624E+03  0.00000000000E+00 0. -1.
          2   -1    0    0  501    0  0.00000000000E+00 -0.00000000000E+00 -0.13920260802E+03  0.13920260802E+03  0.00000000000E+00 0. -1.
         35    2    1    2    0    0 -0.71054273576E-14  0.35527136788E-14 -0.52286017779E+01  0.27317661425E+03  0.27312657194E+03 0.  0.
         25    2    3    3    0    0  0.47544532106E+02 -0.23186391590E+02  0.43701707177E+01  0.13723691293E+03  0.12655742013E+03 0.  0.
         25    2    3    3    0    0 -0.47544532106E+02  0.23186391590E+02 -0.95987724956E+01  0.13593970133E+03  0.12485741738E+03 0.  0.
          5    1    4    4  502    0  0.73083398868E+02 -0.45229573964E+01 -0.39201413783E+02  0.83189429475E+02  0.47000000000E+01 0. -1.
         -5    1    4    4    0  502 -0.25538866762E+02 -0.18663434194E+02  0.43571584501E+02  0.54047483451E+02  0.47000000000E+01 0. -1.
          5    1    5    5  503    0 -0.85936563652E+02  0.36427339384E+02  0.18834736536E+01  0.93475566326E+02  0.47000000000E+01 0.  1.
         -5    1    5    5    0  503  0.38392031547E+02 -0.13240947793E+02 -0.11482246149E+02  0.42464135001E+02  0.47000000000E+01 0.  1.
<mgrwt>
<rscale>  0 0.27312657E+03</rscale>
<asrwt>0</asrwt>
<pdfrwt beam="1">  1        2 0.21415786E-01 0.27312657E+03</pdfrwt>
<pdfrwt beam="2">  1       -2 0.20611386E-01 0.27312657E+03</pdfrwt>
<totfact> 0.50830439E+03</totfact>
</mgrwt>
</event>
<event>
 9    1  0.7926126E-001  0.2753311E+03  0.7818608E-02  0.1098267E+00
          2   -1    0    0  501    0  0.00000000000E+00  0.00000000000E+00  0.35629639529E+03  0.35629639529E+03  0.00000000000E+00 0. -1.
         -2   -1    0    0    0  501 -0.00000000000E+00 -0.00000000000E+00 -0.53191105191E+02  0.53191105191E+02  0.00000000000E+00 0. -1.
         35    2    1    2    0    0 -0.35527136788E-14  0.00000000000E+00  0.30310529010E+03  0.40948750049E+03  0.27533106647E+03 0.  0.
         25    2    3    3    0    0 -0.24433377812E+02 -0.11038249039E+02  0.76363651517E+02  0.14909298128E+03  0.12521372489E+03 0.  0.
         25    2    3    3    0    0  0.24433377812E+02  0.11038249039E+02  0.22674163859E+03  0.26039451920E+03  0.12519865043E+03 0.  0.
          5    1    4    4  502    0 -0.20656580882E+02  0.41375007742E+02  0.83784208334E+02  0.95814764862E+02  0.47000000000E+01 0.  1.
         -5    1    4    4    0  502 -0.37767969300E+01 -0.52413256780E+02 -0.74205568167E+01  0.53278216420E+02  0.47000000000E+01 0.  1.
          5    1    5    5  503    0  0.58448512379E+01  0.64879416960E+02  0.15819527301E+03  0.17114711634E+03  0.47000000000E+01 0.  1.
         -5    1    5    5    0  503  0.18588526574E+02 -0.53841167921E+02  0.68546365578E+02  0.89247402860E+02  0.47000000000E+01 0.  1.
<mgrwt>
<rscale>  0 0.27533107E+03</rscale>
<asrwt>0</asrwt>
<pdfrwt beam="1">  1        2 0.54814828E-01 0.27533107E+03</pdfrwt>
<pdfrwt beam="2">  1       -2 0.81832472E-02 0.27533107E+03</pdfrwt>
<totfact> 0.82115879E+03</totfact>
</mgrwt>
</event>
<event>
 9    1  0.7926126E-001  0.2801238E+03  0.7818608E-02  0.1095621E+00
         -2   -1    0    0    0  501 -0.00000000000E+00  0.00000000000E+00  0.32764591760E+02  0.32764591760E+02  0.00000000000E+00 0. -1.
          2   -1    0    0  501    0  0.00000000000E+00 -0.00000000000E+00 -0.59873602363E+03  0.59873602363E+03  0.00000000000E+00 0. -1.
         35    2    1    2    0    0 -0.17763568394E-14 -0.71054273576E-14 -0.56597143187E+03  0.63150061539E+03  0.28012383966E+03 0.  0.
         25    2    3    3    0    0  0.70714182792E+01  0.61587700005E+02 -0.25106853340E+03  0.28724388411E+03  0.12502236099E+03 0.  0.
         25    2    3    3    0    0 -0.70714182792E+01 -0.61587700005E+02 -0.31490289846E+03  0.34425673127E+03  0.12452233462E+03 0.  0.
          5    1    4    4  502    0  0.43380791059E+02  0.53626017985E+02 -0.23755922434E+03  0.24741487002E+03  0.47000000000E+01 0.  1.
         -5    1    4    4    0  502 -0.36309372780E+02  0.79616820203E+01 -0.13509309063E+02  0.39829014093E+02  0.47000000000E+01 0.  1.
          5    1    5    5  503    0 -0.21823997979E+02 -0.72781326089E+02 -0.87207452039E+02  0.11576112476E+03  0.47000000000E+01 0.  1.
         -5    1    5    5    0  503  0.14752579700E+02  0.11193626084E+02 -0.22769544643E+03  0.22849560651E+03  0.47000000000E+01 0.  1.
<mgrwt>
<rscale>  0 0.28012384E+03</rscale>
<asrwt>0</asrwt>
<pdfrwt beam="1">  1        2 0.92113239E-01 0.28012384E+03</pdfrwt>
<pdfrwt beam="2">  1       -2 0.50407062E-02 0.28012384E+03</pdfrwt>
<totfact> 0.97447984E+03</totfact>
</mgrwt>
</event>
<event>
 9    1  0.7926126E-001  0.2709678E+03  0.7818608E-02  0.1100727E+00
          2   -1    0    0  501    0  0.00000000000E+00  0.00000000000E+00  0.44629236939E+03  0.44629236939E+03  0.00000000000E+00 0. -1.
         -2   -1    0    0    0  501 -0.00000000000E+00 -0.00000000000E+00 -0.41129738803E+02  0.41129738803E+02  0.00000000000E+00 0. -1.
         35    2    1    2    0    0 -0.71054273576E-14  0.35527136788E-14  0.40516263059E+03  0.48742210819E+03  0.27096781051E+03 0.  0.
         25    2    3    3    0    0 -0.21778024643E+02  0.54846342787E+01  0.29009718251E+03  0.31664826208E+03  0.12492150740E+03 0.  0.
         25    2    3    3    0    0  0.21778024643E+02 -0.54846342787E+01  0.11506544808E+03  0.17077384611E+03  0.12417441606E+03 0.  0.
          5    1    4    4  502    0 -0.65371744239E+02 -0.22048848940E+02  0.21161591216E+03  0.22262749373E+03  0.47000000000E+01 0.  1.
         -5    1    4    4    0  502  0.43593719596E+02  0.27533483219E+02  0.78481270346E+02  0.94020768352E+02  0.47000000000E+01 0.  1.
          5    1    5    5  503    0 -0.40180473669E+02 -0.38251170689E+02  0.45386328422E+02  0.71830573790E+02  0.47000000000E+01 0. -1.
         -5    1    5    5    0  503  0.61958498313E+02  0.32766536411E+02  0.69679119656E+02  0.98943272321E+02  0.47000000000E+01 0. -1.
<mgrwt>
<rscale>  0 0.27096781E+03</rscale>
<asrwt>0</asrwt>
<pdfrwt beam="1">  1        2 0.68660361E-01 0.27096781E+03</pdfrwt>
<pdfrwt beam="2">  1       -2 0.63276524E-02 0.27096781E+03</pdfrwt>
<totfact> 0.95725169E+03</totfact>
</mgrwt>
</event>
<event>
 9    1  0.7926126E-001  0.2749078E+03  0.7818608E-02  0.1098503E+00
         -1   -1    0    0    0  501 -0.00000000000E+00  0.00000000000E+00  0.10967990489E+02  0.10967990489E+02  0.00000000000E+00 0. -1.
          1   -1    0    0  501    0  0.00000000000E+00 -0.00000000000E+00 -0.17226099410E+04  0.17226099410E+04  0.00000000000E+00 0. -1.
         35    2    1    2    0    0 -0.35527136788E-14  0.00000000000E+00 -0.17116419505E+04  0.17335779315E+04  0.27490776235E+03 0.  0.
         25    2    3    3    0    0  0.22712741936E+02  0.15029506365E+02 -0.54254771027E+03  0.55738984481E+03  0.12483455641E+03 0.  0.
         25    2    3    3    0    0 -0.22712741936E+02 -0.15029506365E+02 -0.11690942402E+04  0.11761880867E+04  0.12607663528E+03 0.  0.
          5    1    4    4  502    0 -0.28174883910E+02 -0.17441632364E+02 -0.44529783515E+02  0.55704813461E+02  0.47000000000E+01 0. -1.
         -5    1    4    4    0  502  0.50887625845E+02  0.32471138729E+02 -0.49801792675E+03  0.50168503135E+03  0.47000000000E+01 0. -1.
          5    1    5    5  503    0  0.31137094780E+02  0.21559675781E+02 -0.14253105546E+03  0.14755178772E+03  0.47000000000E+01 0. -1.
         -5    1    5    5    0  503 -0.53849836716E+02 -0.36589182146E+02 -0.10265631848E+04  0.10286362990E+04  0.47000000000E+01 0. -1.
<mgrwt>
<rscale>  0 0.27490776E+03</rscale>
<asrwt>0</asrwt>
<pdfrwt beam="1">  1        1 0.26501684E+00 0.27490776E+03</pdfrwt>
<pdfrwt beam="2">  1       -1 0.16873836E-02 0.27490776E+03</pdfrwt>
<totfact> 0.44923493E+03</totfact>
</mgrwt>
</event>
<event>
 9    1  0.7926126E-001  0.2730527E+03  0.7818608E-02  0.1099545E+00
          2   -1    0    0  501    0  0.00000000000E+00  0.00000000000E+00  0.45961150243E+04  0.45961150243E+04  0.00000000000E+00 0.  1.
         -2   -1    0    0    0  501 -0.00000000000E+00 -0.00000000000E+00 -0.40554780671E+01  0.40554780671E+01  0.00000000000E+00 0.  1.
         35    2    1    2    0    0  0.00000000000E+00 -0.35527136788E-14  0.45920595463E+04  0.46001705024E+04  0.27305269583E+03 0.  0.
         25    2    3    3    0    0 -0.48028650415E+02  0.14269742934E+02  0.27805972482E+04  0.27838394873E+04  0.12462286060E+03 0.  0.
         25    2    3    3    0    0  0.48028650415E+02 -0.14269742934E+02  0.18114622980E+04  0.18163310151E+04  0.12309476988E+03 0.  0.
          5    1    4    4  502    0 -0.50721231923E+02 -0.41666440555E+02  0.20613013491E+04  0.20623515891E+04  0.47000000000E+01 0.  1.
         -5    1    4    4    0  502  0.26925815079E+01  0.55936183489E+02  0.71929589919E+03  0.72148789817E+03  0.47000000000E+01 0.  1.
          5    1    5    5  503    0  0.22837176424E+02 -0.12877563149E+02  0.17432048683E+04  0.17434083489E+04  0.47000000000E+01 0. -1.
         -5    1    5    5    0  503  0.25191473991E+02 -0.13921797855E+01  0.68257429732E+02  0.72922666161E+02  0.47000000000E+01 0. -1.
<mgrwt>
<rscale>  0 0.27305270E+03</rscale>
<asrwt>0</asrwt>
<pdfrwt beam="1">  1        2 0.70709045E+00 0.27305270E+03</pdfrwt>
<pdfrwt beam="2">  1       -2 0.62392338E-03 0.27305270E+03</pdfrwt>
<totfact> 0.58159652E+02</totfact>
</mgrwt>
</event>
<event>
 9    1  0.7926126E-001  0.2739757E+03  0.7818608E-02  0.1099026E+00
          2   -1    0    0  501    0  0.00000000000E+00  0.00000000000E+00  0.76319407914E+01  0.76319407914E+01  0.00000000000E+00 0.  1.
         -2   -1    0    0    0  501 -0.00000000000E+00 -0.00000000000E+00 -0.24588325274E+04  0.24588325274E+04  0.00000000000E+00 0.  1.
         35    2    1    2    0    0  0.14210854715E-13  0.71054273576E-14 -0.24512005866E+04  0.24664644682E+04  0.27397565049E+03 0.  0.
         25    2    3    3    0    0  0.51084108961E+02 -0.18027052140E+02 -0.10795390352E+04  0.10881324693E+04  0.12527242887E+03 0.  0.
         25    2    3    3    0    0 -0.51084108961E+02  0.18027052140E+02 -0.13716615514E+04  0.13783319989E+04  0.12413350374E+03 0.  0.
          5    1    4    4  502    0  0.31482615048E+02 -0.71818307596E+02 -0.66815579150E+03  0.67275796248E+03  0.47000000000E+01 0.  1.
         -5    1    4    4    0  502  0.19601493913E+02  0.53791255456E+02 -0.41138324374E+03  0.41537450687E+03  0.47000000000E+01 0.  1.
          5    1    5    5  503    0 -0.26738534624E+02  0.70758344914E+02 -0.87097841422E+03  0.87426951260E+03  0.47000000000E+01 0.  1.
         -5    1    5    5    0  503 -0.24345574337E+02 -0.52731292774E+02 -0.50068313718E+03  0.50406248629E+03  0.47000000000E+01 0.  1.
<mgrwt>
<rscale>  0 0.27397565E+03</rscale>
<asrwt>0</asrwt>
<pdfrwt beam="1">  1        2 0.11741440E-02 0.27397565E+03</pdfrwt>
<pdfrwt beam="2">  1       -2 0.37828217E+00 0.27397565E+03</pdfrwt>
<totfact> 0.14245352E+02</totfact>
</mgrwt>
</event>
<event>
 9    1  0.7926126E-001  0.2844561E+03  0.7818608E-02  0.1093280E+00
          2   -1    0    0  501    0  0.00000000000E+00  0.00000000000E+00  0.55712043602E+03  0.55712043602E+03  0.00000000000E+00 0. -1.
         -2   -1    0    0    0  501 -0.00000000000E+00 -0.00000000000E+00 -0.36309591937E+02  0.36309591937E+02  0.00000000000E+00 0. -1.
         35    2    1    2    0    0  0.00000000000E+00  0.71054273576E-14  0.52081084408E+03  0.59343002796E+03  0.28445608231E+03 0.  0.
         25    2    3    3    0    0  0.44356005973E+01 -0.59521211976E+02  0.30496452739E+03  0.33705541595E+03  0.13053942403E+03 0.  0.
         25    2    3    3    0    0 -0.44356005973E+01  0.59521211976E+02  0.21584631670E+03  0.25637461201E+03  0.12480328531E+03 0.  0.
          5    1    4    4  502    0  0.31527622240E+02 -0.60560457914E+02  0.30167828378E+03  0.30934355809E+03  0.47000000000E+01 0.  1.
         -5    1    4    4    0  502 -0.27092021643E+02  0.10392459374E+01  0.32862436063E+01  0.27711857856E+02  0.47000000000E+01 0.  1.
          5    1    5    5  503    0  0.56960446069E+02  0.28470531256E+02  0.13994365161E+03  0.15382255749E+03  0.47000000000E+01 0. -1.
         -5    1    5    5    0  503 -0.61396046666E+02  0.31050680721E+02  0.75902665086E+02  0.10255205452E+03  0.47000000000E+01 0. -1.
<mgrwt>
<rscale>  0 0.28445608E+03</rscale>
<asrwt>0</asrwt>
<pdfrwt beam="1">  1        2 0.85710830E-01 0.28445608E+03</pdfrwt>
<pdfrwt beam="2">  1       -2 0.55860915E-02 0.28445608E+03</pdfrwt>
<totfact> 0.90573802E+03</totfact>
</mgrwt>
</event>
<event>
 9    1  0.7926126E-001  0.2775149E+03  0.7818608E-02  0.1097054E+00
          1   -1    0    0  501    0  0.00000000000E+00  0.00000000000E+00  0.11407699634E+03  0.11407699634E+03  0.00000000000E+00 0.  1.
         -1   -1    0    0    0  501 -0.00000000000E+00 -0.00000000000E+00 -0.16877751848E+03  0.16877751848E+03  0.00000000000E+00 0.  1.
         35    2    1    2    0    0 -0.53290705182E-14  0.00000000000E+00 -0.54700522144E+02  0.28285451482E+03  0.27751491749E+03 0.  0.
         25    2    3    3    0    0 -0.14303478426E+02 -0.50334540965E+02 -0.66004774496E+02  0.15045145375E+03  0.12466296231E+03 0.  0.
         25    2    3    3    0    0  0.14303478426E+02  0.50334540965E+02  0.11304252352E+02  0.13240306106E+03  0.12109760092E+03 0.  0.
          5    1    4    4  502    0  0.25061210616E+01 -0.81307799903E+02 -0.78130280785E+02  0.11288786358E+03  0.47000000000E+01 0. -1.
         -5    1    4    4    0  502 -0.16809599487E+02  0.30973258937E+02  0.12125506289E+02  0.37563590176E+02  0.47000000000E+01 0. -1.
          5    1    5    5  503    0 -0.43970221773E+01  0.65865598162E+02  0.52408649384E+02  0.84417814207E+02  0.47000000000E+01 0. -1.
         -5    1    5    5    0  503  0.18700500603E+02 -0.15531057197E+02 -0.41104397031E+02  0.47985246855E+02  0.47000000000E+01 0. -1.
<mgrwt>
<rscale>  0 0.27751492E+03</rscale>
<asrwt>0</asrwt>
<pdfrwt beam="1">  1        1 0.17550307E-01 0.27751492E+03</pdfrwt>
<pdfrwt beam="2">  1       -1 0.25965772E-01 0.27751492E+03</pdfrwt>
<totfact> 0.39362977E+03</totfact>
</mgrwt>
</event>
<event>
 9    1  0.7926126E-001  0.2760696E+03  0.7818608E-02  0.1097855E+00
         -2   -1    0    0    0  501 -0.00000000000E+00  0.00000000000E+00  0.16895149552E+02  0.16895149552E+02  0.00000000000E+00 0. -1.
          2   -1    0    0  501    0  0.00000000000E+00 -0.00000000000E+00 -0.11277559502E+04  0.11277559502E+04  0.00000000000E+00 0. -1.
         35    2    1    2    0    0  0.00000000000E+00  0.00000000000E+00 -0.11108608007E+04  0.11446510998E+04  0.27606959585E+03 0.  0.
         25    2    3    3    0    0 -0.14652643307E+02  0.12390052018E+02 -0.32522014698E+03  0.34888299200E+03  0.12483182591E+03 0.  0.
         25    2    3    3    0    0  0.14652643307E+02 -0.12390052018E+02 -0.78564065371E+03  0.79576810780E+03  0.12508969292E+03 0.  0.
          5    1    4    4  502    0  0.24070513493E+02 -0.16571038470E+02 -0.12034741043E+02  0.31951743736E+02  0.47000000000E+01 0. -1.
         -5    1    4    4    0  502 -0.38723156800E+02  0.28961090487E+02 -0.31318540594E+03  0.31693124827E+03  0.47000000000E+01 0. -1.
          5    1    5    5  503    0 -0.43729964086E+02 -0.23656935083E+02 -0.56515819214E+03  0.56736040793E+03  0.47000000000E+01 0. -1.
         -5    1    5    5    0  503  0.58382607393E+02  0.11266883065E+02 -0.22048246157E+03  0.22840769987E+03  0.47000000000E+01 0. -1.
<mgrwt>
<rscale>  0 0.27606960E+03</rscale>
<asrwt>0</asrwt>
<pdfrwt beam="1">  1        2 0.17350091E+00 0.27606960E+03</pdfrwt>
<pdfrwt beam="2">  1       -2 0.25992538E-02 0.27606960E+03</pdfrwt>
<totfact> 0.11521356E+04</totfact>
</mgrwt>
</event>
<event>
 9    1  0.7926126E-001  0.2767042E+03  0.7818608E-02  0.1097503E+00
         -1   -1    0    0    0  501 -0.00000000000E+00  0.00000000000E+00  0.10008835926E+02  0.10008835926E+02  0.00000000000E+00 0. -1.
          1   -1    0    0  501    0  0.00000000000E+00 -0.00000000000E+00 -0.19124400182E+04  0.19124400182E+04  0.00000000000E+00 0. -1.
         35    2    1    2    0    0  0.71054273576E-14  0.00000000000E+00 -0.19024311823E+04  0.19224488542E+04  0.27670416232E+03 0.  0.
         25    2    3    3    0    0  0.36702522536E+02  0.18534132160E+02 -0.62649611483E+03  0.63995304918E+03  0.12390292186E+03 0.  0.
         25    2    3    3    0    0 -0.36702522536E+02 -0.18534132160E+02 -0.12759350675E+04  0.12824958050E+04  0.12286009992E+03 0.  0.
          5    1    4    4  502    0 -0.38711811710E+02 -0.20305089681E+02 -0.26386413927E+03  0.26750191592E+03  0.47000000000E+01 0. -1.
         -5    1    4    4    0  502  0.75414334246E+02  0.38839221841E+02 -0.36263197556E+03  0.37245113326E+03  0.47000000000E+01 0. -1.
          5    1    5    5  503    0 -0.77912517184E+02 -0.27524136323E+02 -0.98649364713E+03  0.98995946596E+03  0.47000000000E+01 0.  1.
         -5    1    5    5    0  503  0.41209994648E+02  0.89900041627E+01 -0.28944142034E+03  0.29253633901E+03  0.47000000000E+01 0.  1.
<mgrwt>
<rscale>  0 0.27670416E+03</rscale>
<asrwt>0</asrwt>
<pdfrwt beam="1">  1        1 0.29422197E+00 0.27670416E+03</pdfrwt>
<pdfrwt beam="2">  1       -1 0.15398187E-02 0.27670416E+03</pdfrwt>
<totfact> 0.38635238E+03</totfact>
</mgrwt>
</event>
<event>
 9    1  0.7926126E-001  0.2763048E+03  0.7818608E-02  0.1097724E+00
         -3   -1    0    0    0  501 -0.00000000000E+00  0.00000000000E+00  0.69344476030E+03  0.69344476030E+03  0.00000000000E+00 0.  1.
          3   -1    0    0  501    0  0.00000000000E+00 -0.00000000000E+00 -0.27523589698E+02  0.27523589698E+02  0.00000000000E+00 0.  1.
         35    2    1    2    0    0  0.28865798640E-14  0.14210854715E-13  0.66592117060E+03  0.72096835000E+03  0.27630482486E+03 0.  0.
         25    2    3    3    0    0  0.16364010776E+01  0.37036984028E+02  0.45945880098E+03  0.47743969785E+03  0.12438592884E+03 0.  0.
         25    2    3    3    0    0 -0.16364010776E+01 -0.37036984028E+02  0.20646236962E+03  0.24352865215E+03  0.12371369509E+03 0.  0.
          5    1    4    4  502    0  0.52332279913E+02  0.54752032084E+02  0.26772837799E+03  0.27827509217E+03  0.47000000000E+01 0.  1.
         -5    1    4    4    0  502 -0.50695878835E+02 -0.17715048057E+02  0.19173042299E+03  0.19916460569E+03  0.47000000000E+01 0.  1.
          5    1    5    5  503    0 -0.30441881077E+01  0.41389866223E+02  0.11816084017E+03  0.12532542542E+03  0.47000000000E+01 0.  1.
         -5    1    5    5    0  503  0.14077870301E+01 -0.78426850251E+02  0.88301529448E+02  0.11820322672E+03  0.47000000000E+01 0.  1.
<mgrwt>
<rscale>  0 0.27630482E+03</rscale>
<asrwt>0</asrwt>
<pdfrwt beam="1">  1        3 0.42343989E-02 0.27630482E+03</pdfrwt>
<pdfrwt beam="2">  1       -3 0.10668380E+00 0.27630482E+03</pdfrwt>
<totfact> 0.58704252E+02</totfact>
</mgrwt>
</event>
<event>
 9    1  0.7926126E-001  0.2862501E+03  0.7818608E-02  0.1092323E+00
          2   -1    0    0  501    0  0.00000000000E+00  0.00000000000E+00  0.97575270871E+03  0.97575270871E+03  0.00000000000E+00 0.  1.
         -2   -1    0    0    0  501 -0.00000000000E+00 -0.00000000000E+00 -0.20993829232E+02  0.20993829232E+02  0.00000000000E+00 0.  1.
         35    2    1    2    0    0  0.00000000000E+00  0.00000000000E+00  0.95475887948E+03  0.99674653794E+03  0.28625014054E+03 0.  0.
         25    2    3    3    0    0  0.19701807505E+02  0.66917179529E+02  0.45285142253E+03  0.47490795370E+03  0.12488828394E+03 0.  0.
         25    2    3    3    0    0 -0.19701807505E+02 -0.66917179529E+02  0.50190745695E+03  0.52183858424E+03  0.12465288817E+03 0.  0.
          5    1    4    4  502    0  0.13061225751E+02  0.56348393442E+02  0.45720855842E+03  0.46087687396E+03  0.47000000000E+01 0.  1.
         -5    1    4    4    0  502  0.66405817544E+01  0.10568786087E+02 -0.43571358917E+01  0.14031079736E+02  0.47000000000E+01 0.  1.
          5    1    5    5  503    0 -0.25127232774E+02  0.33283044172E+02  0.13025733556E+03  0.13685102237E+03  0.47000000000E+01 0.  1.
         -5    1    5    5    0  503  0.54254252687E+01 -0.10020022370E+03  0.37165012139E+03  0.38498756187E+03  0.47000000000E+01 0.  1.
<mgrwt>
<rscale>  0 0.28625014E+03</rscale>
<asrwt>0</asrwt>
<pdfrwt beam="1">  1        2 0.15011577E+00 0.28625014E+03</pdfrwt>
<pdfrwt beam="2">  1       -2 0.32298206E-02 0.28625014E+03</pdfrwt>
<totfact> 0.10299459E+04</totfact>
</mgrwt>
</event>
<event>
 9    1  0.7926126E-001  0.2750595E+03  0.7818608E-02  0.1098418E+00
          3   -1    0    0  501    0  0.00000000000E+00  0.00000000000E+00  0.20647045759E+03  0.20647045759E+03  0.00000000000E+00 0.  1.
         -3   -1    0    0    0  501 -0.00000000000E+00 -0.00000000000E+00 -0.91608451900E+02  0.91608451900E+02  0.00000000000E+00 0.  1.
         35    2    1    2    0    0  0.35527136788E-14  0.00000000000E+00  0.11486200569E+03  0.29807890949E+03  0.27505954979E+03 0.  0.
         25    2    3    3    0    0 -0.25550541935E+02  0.23255918049E+02  0.14505507259E+02  0.13030622668E+03  0.12480238401E+03 0.  0.
         25    2    3    3    0    0  0.25550541935E+02 -0.23255918049E+02  0.10035649843E+03  0.16777268281E+03  0.12993297658E+03 0.  0.
          5    1    4    4  502    0  0.75671632852E+01  0.14531614855E+02  0.66066338814E+02  0.68229619043E+02  0.47000000000E+01 0.  1.
         -5    1    4    4    0  502 -0.33117705220E+02  0.87243031938E+01 -0.51560831555E+02  0.62076607638E+02  0.47000000000E+01 0.  1.
          5    1    5    5  503    0  0.21026747377E+02 -0.44112261144E+02 -0.14235907517E+02  0.51115230130E+02  0.47000000000E+01 0. -1.
         -5    1    5    5    0  503  0.45237945574E+01  0.20856343095E+02  0.11459240595E+03  0.11665745268E+03  0.47000000000E+01 0. -1.
<mgrwt>
<rscale>  0 0.27505955E+03</rscale>
<asrwt>0</asrwt>
<pdfrwt beam="1">  1        3 0.31764686E-01 0.27505955E+03</pdfrwt>
<pdfrwt beam="2">  1       -3 0.14093608E-01 0.27505955E+03</pdfrwt>
<totfact> 0.10138139E+03</totfact>
</mgrwt>
</event>
<event>
 9    1  0.7926126E-001  0.2799594E+03  0.7818608E-02  0.1095711E+00
         -2   -1    0    0    0  501 -0.00000000000E+00  0.00000000000E+00  0.15557566573E+02  0.15557566573E+02  0.00000000000E+00 0.  1.
          2   -1    0    0  501    0  0.00000000000E+00 -0.00000000000E+00 -0.12594722175E+04  0.12594722175E+04  0.00000000000E+00 0.  1.
         35    2    1    2    0    0  0.00000000000E+00  0.00000000000E+00 -0.12439146510E+04  0.12750297841E+04  0.27995944614E+03 0.  0.
         25    2    3    3    0    0 -0.49128503353E+02 -0.31286670983E+02 -0.53417139683E+03  0.55188389792E+03  0.12587410366E+03 0.  0.
         25    2    3    3    0    0  0.49128503353E+02  0.31286670983E+02 -0.70974325415E+03  0.72314588620E+03  0.12574585599E+03 0.  0.
          5    1    4    4  502    0 -0.35938268851E+02 -0.79800667485E+02 -0.36213085825E+03  0.37258630436E+03  0.47000000000E+01 0. -1.
         -5    1    4    4    0  502 -0.13190234502E+02  0.48513996502E+02 -0.17204053858E+03  0.17929759356E+03  0.47000000000E+01 0. -1.
          5    1    5    5  503    0  0.24694720306E+02  0.44165097685E+02 -0.94774072020E+02  0.10753882923E+03  0.47000000000E+01 0. -1.
         -5    1    5    5    0  503  0.24433783047E+02 -0.12878426701E+02 -0.61496918213E+03  0.61560705697E+03  0.47000000000E+01 0. -1.
<mgrwt>
<rscale>  0 0.27995945E+03</rscale>
<asrwt>0</asrwt>
<pdfrwt beam="1">  1        2 0.19376499E+00 0.27995945E+03</pdfrwt>
<pdfrwt beam="2">  1       -2 0.23934714E-02 0.27995945E+03</pdfrwt>
<totfact> 0.10955213E+04</totfact>
</mgrwt>
</event>
<event>
 9    1  0.7926126E-001  0.2763864E+03  0.7818608E-02  0.1097679E+00
          2   -1    0    0  501    0  0.00000000000E+00  0.00000000000E+00  0.13857277522E+04  0.13857277522E+04  0.00000000000E+00 0.  1.
         -2   -1    0    0    0  501 -0.00000000000E+00 -0.00000000000E+00 -0.13781465057E+02  0.13781465057E+02  0.00000000000E+00 0.  1.
         35    2    1    2    0    0  0.00000000000E+00  0.00000000000E+00  0.13719462871E+04  0.13995092172E+04  0.27638638602E+03 0.  0.
         25    2    3    3    0    0  0.14418616002E+02 -0.17561197087E+02  0.96155666248E+03  0.96972377722E+03  0.12351800197E+03 0.  0.
         25    2    3    3    0    0 -0.14418616002E+02  0.17561197087E+02  0.41038962463E+03  0.42978544001E+03  0.12561683131E+03 0.  0.
          5    1    4    4  502    0  0.53587259698E+02 -0.34353701951E+02  0.80106765516E+03  0.80360640203E+03  0.47000000000E+01 0. -1.
         -5    1    4    4    0  502 -0.39168643695E+02  0.16792504864E+02  0.16048900732E+03  0.16611737519E+03  0.47000000000E+01 0. -1.
          5    1    5    5  503    0 -0.12876539583E+02  0.31978609719E+01  0.41394456458E+03  0.41418380477E+03  0.47000000000E+01 0. -1.
         -5    1    5    5    0  503 -0.15420764193E+01  0.14363336115E+02 -0.35549399516E+01  0.15601635238E+02  0.47000000000E+01 0. -1.
<mgrwt>
<rscale>  0 0.27638639E+03</rscale>
<asrwt>0</asrwt>
<pdfrwt beam="1">  1        2 0.21318878E+00 0.27638639E+03</pdfrwt>
<pdfrwt beam="2">  1       -2 0.21202265E-02 0.27638639E+03</pdfrwt>
<totfact> 0.11157401E+04</totfact>
</mgrwt>
</event>
<event>
 9    1  0.7926126E-001  0.2746697E+03  0.7818608E-02  0.1098636E+00
          1   -1    0    0  501    0  0.00000000000E+00  0.00000000000E+00  0.61401958112E+02  0.61401958112E+02  0.00000000000E+00 0. -1.
         -1   -1    0    0    0  501 -0.00000000000E+00 -0.00000000000E+00 -0.30717036758E+03  0.30717036758E+03  0.00000000000E+00 0. -1.
         35    2    1    2    0    0  0.88817841970E-15  0.00000000000E+00 -0.24576840947E+03  0.36857232570E+03  0.27466970742E+03 0.  0.
         25    2    3    3    0    0 -0.58707757287E+01 -0.14309923223E+02 -0.19513391168E+03  0.23230594946E+03  0.12509824442E+03 0.  0.
         25    2    3    3    0    0  0.58707757287E+01  0.14309923223E+02 -0.50634497795E+02  0.13626637624E+03  0.12556047553E+03 0.  0.
          5    1    4    4  502    0 -0.71256320783E+01 -0.68734380103E+02 -0.87488623414E+02  0.11158646364E+03  0.47000000000E+01 0. -1.
         -5    1    4    4    0  502  0.12548563496E+01  0.54424456880E+02 -0.10764528826E+03  0.12071948582E+03  0.47000000000E+01 0. -1.
          5    1    5    5  503    0 -0.12690690099E+02 -0.53938847052E+02 -0.21214666354E+02  0.59519785827E+02  0.47000000000E+01 0.  1.
         -5    1    5    5    0  503  0.18561465827E+02  0.68248770274E+02 -0.29419831441E+02  0.76746590411E+02  0.47000000000E+01 0.  1.
<mgrwt>
<rscale>  0 0.27466971E+03</rscale>
<asrwt>0</asrwt>
<pdfrwt beam="1">  1        1 0.94464552E-02 0.27466971E+03</pdfrwt>
<pdfrwt beam="2">  1       -1 0.47256979E-01 0.27466971E+03</pdfrwt>
<totfact> 0.31487394E+03</totfact>
</mgrwt>
</event>
<event>
 9    1  0.7926126E-001  0.2760041E+03  0.7818608E-02  0.1097892E+00
         -1   -1    0    0    0  501 -0.00000000000E+00  0.00000000000E+00  0.26051301093E+03  0.26051301093E+03  0.00000000000E+00 0.  1.
          1   -1    0    0  501    0  0.00000000000E+00 -0.00000000000E+00 -0.73104110535E+02  0.73104110535E+02  0.00000000000E+00 0.  1.
         35    2    1    2    0    0  0.71054273576E-14  0.00000000000E+00  0.18740890040E+03  0.33361712147E+03  0.27600414451E+03 0.  0.
         25    2    3    3    0    0 -0.60863042264E+02  0.14360747411E+02  0.92435491928E+02  0.16457784870E+03  0.12095870011E+03 0.  0.
         25    2    3    3    0    0  0.60863042264E+02 -0.14360747411E+02  0.94973408471E+02  0.16903927277E+03  0.12507512320E+03 0.  0.
          5    1    4    4  502    0  0.30555206643E+02 -0.19095179722E+02  0.12173312238E+02  0.38321352696E+02  0.47000000000E+01 0. -1.
         -5    1    4    4    0  502 -0.91418248907E+02  0.33455927133E+02  0.80262179689E+02  0.12625649600E+03  0.47000000000E+01 0. -1.
          5    1    5    5  503    0 -0.19315988181E+02  0.27381664370E+02  0.65709519648E+02  0.73910039341E+02  0.47000000000E+01 0.  1.
         -5    1    5    5    0  503  0.80179030445E+02 -0.41742411781E+02  0.29263888823E+02  0.95129233432E+02  0.47000000000E+01 0.  1.
<mgrwt>
<rscale>  0 0.27600414E+03</rscale>
<asrwt>0</asrwt>
<pdfrwt beam="1">  1        1 0.11246786E-01 0.27600414E+03</pdfrwt>
<pdfrwt beam="2">  1       -1 0.40078924E-01 0.27600414E+03</pdfrwt>
<totfact> 0.33532361E+03</totfact>
</mgrwt>
</event>
<event>
 9    1  0.7926126E-001  0.2745833E+03  0.7818608E-02  0.1098685E+00
         -1   -1    0    0    0  501 -0.00000000000E+00  0.00000000000E+00  0.48584541454E+02  0.48584541454E+02  0.00000000000E+00 0.  1.
          1   -1    0    0  501    0  0.00000000000E+00 -0.00000000000E+00 -0.38796287709E+03  0.38796287709E+03  0.00000000000E+00 0.  1.
         35    2    1    2    0    0  0.00000000000E+00  0.14210854715E-13 -0.33937833564E+03  0.43654741854E+03  0.27458330965E+03 0.  0.
         25    2    3    3    0    0 -0.30332495387E+02  0.45162318383E+02 -0.14965763005E+03  0.20256353979E+03  0.12519938556E+03 0.  0.
         25    2    3    3    0    0  0.30332495387E+02 -0.45162318383E+02 -0.18972070559E+03  0.23398387875E+03  0.12567742083E+03 0.  0.
          5    1    4    4  502    0 -0.51981998783E+02  0.59614216995E+01 -0.14850283880E+03  0.15752095060E+03  0.47000000000E+01 0.  1.
         -5    1    4    4    0  502  0.21649503396E+02  0.39200896684E+02 -0.11547912419E+01  0.45042589190E+02  0.47000000000E+01 0.  1.
          5    1    5    5  503    0  0.13595464429E+02 -0.86792615546E+02 -0.97531848665E+02  0.13134818716E+03  0.47000000000E+01 0. -1.
         -5    1    5    5    0  503  0.16737030958E+02  0.41630297162E+02 -0.92188856924E+02  0.10263569159E+03  0.47000000000E+01 0. -1.
<mgrwt>
<rscale>  0 0.27458331E+03</rscale>
<asrwt>0</asrwt>
<pdfrwt beam="1">  1        1 0.59686595E-01 0.27458331E+03</pdfrwt>
<pdfrwt beam="2">  1       -1 0.74745450E-02 0.27458331E+03</pdfrwt>
<totfact> 0.59881440E+03</totfact>
</mgrwt>
</event>
<event>
 9    1  0.7926126E-001  0.2758891E+03  0.7818608E-02  0.1097956E+00
         -1   -1    0    0    0  501 -0.00000000000E+00  0.00000000000E+00  0.85279972412E+02  0.85279972412E+02  0.00000000000E+00 0.  1.
          1   -1    0    0  501    0  0.00000000000E+00 -0.00000000000E+00 -0.22313204880E+03  0.22313204880E+03  0.00000000000E+00 0.  1.
         35    2    1    2    0    0  0.35527136788E-14  0.00000000000E+00 -0.13785207639E+03  0.30841202121E+03  0.27588907166E+03 0.  0.
         25    2    3    3    0    0 -0.14791128316E+02 -0.38075196053E+02 -0.11381289780E+03  0.17467390189E+03  0.12605196653E+03 0.  0.
         25    2    3    3    0    0  0.14791128316E+02  0.38075196053E+02 -0.24039178591E+02  0.13373811932E+03  0.12505800422E+03 0.  0.
          5    1    4    4  502    0 -0.51504884873E+01 -0.40318429036E+02 -0.14022837471E+03  0.14607597450E+03  0.47000000000E+01 0. -1.
         -5    1    4    4    0  502 -0.96406398289E+01  0.22432329835E+01  0.26415476915E+02  0.28597927393E+02  0.47000000000E+01 0. -1.
          5    1    5    5  503    0  0.32217224391E+02  0.77615729069E+02 -0.31047430372E+02  0.89711670807E+02  0.47000000000E+01 0. -1.
         -5    1    5    5    0  503 -0.17426096074E+02 -0.39540533016E+02  0.70082517814E+01  0.44026448512E+02  0.47000000000E+01 0. -1.
<mgrwt>
<rscale>  0 0.27588907E+03</rscale>
<asrwt>0</asrwt>
<pdfrwt beam="1">  1        1 0.34328007E-01 0.27588907E+03</pdfrwt>
<pdfrwt beam="2">  1       -1 0.13119996E-01 0.27588907E+03</pdfrwt>
<totfact> 0.50423483E+03</totfact>
</mgrwt>
</event>
<event>
 9    1  0.7926126E-001  0.2750112E+03  0.7818608E-02  0.1098445E+00
          1   -1    0    0  501    0  0.00000000000E+00  0.00000000000E+00  0.26566905292E+04  0.26566905292E+04  0.00000000000E+00 0.  1.
         -1   -1    0    0    0  501 -0.00000000000E+00 -0.00000000000E+00 -0.71170464000E+01  0.71170464000E+01  0.00000000000E+00 0.  1.
         35    2    1    2    0    0 -0.71054273576E-14 -0.35527136788E-14  0.26495734828E+04  0.26638075756E+04  0.27501119807E+03 0.  0.
         25    2    3    3    0    0  0.51187920543E+02  0.27401269647E+02  0.14312322567E+04  0.14377796886E+04  0.12415163163E+03 0.  0.
         25    2    3    3    0    0 -0.51187920543E+02 -0.27401269647E+02  0.12183412261E+04  0.12260278869E+04  0.12416925392E+03 0.  0.
          5    1    4    4  502    0  0.13084185126E+02 -0.49631455335E+01  0.12392894407E+04  0.12393773584E+04  0.47000000000E+01 0.  1.
         -5    1    4    4    0  502  0.38103735417E+02  0.32364415180E+02  0.19194281600E+03  0.19840233022E+03  0.47000000000E+01 0.  1.
          5    1    5    5  503    0 -0.58195448798E+01 -0.21162481835E+02  0.33689248446E+02  0.40481763807E+02  0.47000000000E+01 0.  1.
         -5    1    5    5    0  503 -0.45368375663E+02 -0.62387878117E+01  0.11846519776E+04  0.11855461231E+04  0.47000000000E+01 0.  1.
<mgrwt>
<rscale>  0 0.27501120E+03</rscale>
<asrwt>0</asrwt>
<pdfrwt beam="1">  1        1 0.40872083E+00 0.27501120E+03</pdfrwt>
<pdfrwt beam="2">  1       -1 0.10949323E-02 0.27501120E+03</pdfrwt>
<totfact> 0.20540406E+03</totfact>
</mgrwt>
</event>
<event>
 9    1  0.7926126E-001  0.2783029E+03  0.7818608E-02  0.1096620E+00
         -1   -1    0    0    0  501 -0.00000000000E+00  0.00000000000E+00  0.24983384750E+03  0.24983384750E+03  0.00000000000E+00 0.  1.
          1   -1    0    0  501    0  0.00000000000E+00 -0.00000000000E+00 -0.77503988034E+02  0.77503988034E+02  0.00000000000E+00 0.  1.
         35    2    1    2    0    0 -0.35527136788E-14 -0.71054273576E-14  0.17232985947E+03  0.32733783554E+03  0.27830285322E+03 0.  0.
         25    2    3    3    0    0 -0.28380176118E+02 -0.27676297150E+02  0.29431796103E+02  0.13438536376E+03  0.12498713353E+03 0.  0.
         25    2    3    3    0    0  0.28380176118E+02  0.27676297150E+02  0.14289806337E+03  0.19295247178E+03  0.12344791628E+03 0.  0.
          5    1    4    4  502    0 -0.30632731559E+02  0.77382289280E+01 -0.43014654341E+02  0.53577933123E+02  0.47000000000E+01 0.  1.
         -5    1    4    4    0  502  0.22525554405E+01 -0.35414526078E+02  0.72446450444E+02  0.80807430632E+02  0.47000000000E+01 0.  1.
          5    1    5    5  503    0  0.60737616302E+02 -0.96633200109E+01  0.27892602305E+02  0.67694350215E+02  0.47000000000E+01 0.  1.
         -5    1    5    5    0  503 -0.32357440184E+02  0.37339617161E+02  0.11500546106E+03  0.12525812157E+03  0.47000000000E+01 0.  1.
<mgrwt>
<rscale>  0 0.27830285E+03</rscale>
<asrwt>0</asrwt>
<pdfrwt beam="1">  1        1 0.11923691E-01 0.27830285E+03</pdfrwt>
<pdfrwt beam="2">  1       -1 0.38435976E-01 0.27830285E+03</pdfrwt>
<totfact> 0.33411207E+03</totfact>
</mgrwt>
</event>
<event>
 9    1  0.7926126E-001  0.2766279E+03  0.7818608E-02  0.1097545E+00
         -1   -1    0    0    0  501 -0.00000000000E+00  0.00000000000E+00  0.79998557597E+01  0.79998557597E+01  0.00000000000E+00 0. -1.
          1   -1    0    0  501    0  0.00000000000E+00 -0.00000000000E+00 -0.23913874751E+04  0.23913874751E+04  0.00000000000E+00 0. -1.
         35    2    1    2    0    0  0.00000000000E+00 -0.71054273576E-14 -0.23833876194E+04  0.23993873309E+04  0.27662794412E+03 0.  0.
         25    2    3    3    0    0  0.19557487946E+02 -0.46886784774E+02 -0.93768782312E+03  0.94746552891E+03  0.12590317281E+03 0.  0.
         25    2    3    3    0    0 -0.19557487946E+02  0.46886784774E+02 -0.14456997962E+04  0.14519218020E+04  0.12429059605E+03 0.  0.
          5    1    4    4  502    0 -0.35820405609E+02 -0.56020738439E+02 -0.70128199855E+03  0.70444301124E+03  0.47000000000E+01 0. -1.
         -5    1    4    4    0  502  0.55377893555E+02  0.91339536657E+01 -0.23640582457E+03  0.24302251767E+03  0.47000000000E+01 0. -1.
          5    1    5    5  503    0  0.31370587440E+02  0.69134679987E+02 -0.96611755739E+03  0.96910729150E+03  0.47000000000E+01 0.  1.
         -5    1    5    5    0  503 -0.50928075386E+02 -0.22247895213E+02 -0.47958223884E+03  0.48281451047E+03  0.47000000000E+01 0.  1.
<mgrwt>
<rscale>  0 0.27662794E+03</rscale>
<asrwt>0</asrwt>
<pdfrwt beam="1">  1        1 0.36790596E+00 0.27662794E+03</pdfrwt>
<pdfrwt beam="2">  1       -1 0.12307464E-02 0.27662794E+03</pdfrwt>
<totfact> 0.26048391E+03</totfact>
</mgrwt>
</event>
<event>
 9    1  0.7926126E-001  0.2763904E+03  0.7818608E-02  0.1097677E+00
         -2   -1    0    0    0  501 -0.00000000000E+00  0.00000000000E+00  0.73222407482E+01  0.73222407482E+01  0.00000000000E+00 0. -1.
          2   -1    0    0  501    0  0.00000000000E+00 -0.00000000000E+00 -0.26082059788E+04  0.26082059788E+04  0.00000000000E+00 0. -1.
         35    2    1    2    0    0  0.71054273576E-14  0.35527136788E-14 -0.26008837381E+04  0.26155282196E+04  0.27639039128E+03 0.  0.
         25    2    3    3    0    0  0.26772538454E+02 -0.37254898085E+01 -0.80731229431E+03  0.81731922609E+03  0.12460709737E+03 0.  0.
         25    2    3    3    0    0 -0.26772538454E+02  0.37254898085E+01 -0.17935714438E+04  0.17982089935E+04  0.12619988997E+03 0.  0.
          5    1    4    4  502    0  0.38057091559E+01 -0.59513416462E+02 -0.53670844050E+03  0.54003182338E+03  0.47000000000E+01 0.  1.
         -5    1    4    4    0  502  0.22966829298E+02  0.55787926653E+02 -0.27060385380E+03  0.27728740271E+03  0.47000000000E+01 0.  1.
          5    1    5    5  503    0  0.47344811015E+02 -0.18452847044E+02 -0.79281427652E+03  0.79445491109E+03  0.47000000000E+01 0.  1.
         -5    1    5    5    0  503 -0.74117349469E+02  0.22178336853E+02 -0.10007571673E+04  0.10037540824E+04  0.47000000000E+01 0.  1.
<mgrwt>
<rscale>  0 0.27639039E+03</rscale>
<asrwt>0</asrwt>
<pdfrwt beam="1">  1        2 0.40126254E+00 0.27639039E+03</pdfrwt>
<pdfrwt beam="2">  1       -2 0.11264984E-02 0.27639039E+03</pdfrwt>
<totfact> 0.62656409E+03</totfact>
</mgrwt>
</event>
<event>
 9    1  0.7926126E-001  0.2644866E+03  0.7818608E-02  0.1104477E+00
          2   -1    0    0  501    0  0.00000000000E+00  0.00000000000E+00  0.57938420664E+02  0.57938420664E+02  0.00000000000E+00 0.  1.
         -2   -1    0    0    0  501 -0.00000000000E+00 -0.00000000000E+00 -0.30184278222E+03  0.30184278222E+03  0.00000000000E+00 0.  1.
         35    2    1    2    0    0  0.00000000000E+00 -0.35527136788E-14 -0.24390436156E+03  0.35978120289E+03  0.26448662795E+03 0.  0.
         25    2    3    3    0    0  0.34887642009E+02  0.26348569846E+02 -0.11897256392E+03  0.17784001636E+03  0.12474456202E+03 0.  0.
         25    2    3    3    0    0 -0.34887642009E+02 -0.26348569846E+02 -0.12493179764E+03  0.18194118653E+03  0.12483287467E+03 0.  0.
          5    1    4    4  502    0 -0.23327035657E+02 -0.33105572118E+02 -0.12531047930E+02  0.42652627821E+02  0.47000000000E+01 0. -1.
         -5    1    4    4    0  502  0.58214677666E+02  0.59454141963E+02 -0.10644151599E+03  0.13518738854E+03  0.47000000000E+01 0. -1.
          5    1    5    5  503    0 -0.66230996864E+02  0.18167069681E+01 -0.20951591695E+02  0.69648435477E+02  0.47000000000E+01 0.  1.
         -5    1    5    5    0  503  0.31343354855E+02 -0.28165276814E+02 -0.10398020594E+03  0.11229275105E+03  0.47000000000E+01 0.  1.
<mgrwt>
<rscale>  0 0.26448663E+03</rscale>
<asrwt>0</asrwt>
<pdfrwt beam="1">  1        2 0.89136031E-02 0.26448663E+03</pdfrwt>
<pdfrwt beam="2">  1       -2 0.46437351E-01 0.26448663E+03</pdfrwt>
<totfact> 0.32780421E+03</totfact>
</mgrwt>
</event>
<event>
 9    1  0.7926126E-001  0.2898909E+03  0.7818608E-02  0.1090406E+00
          1   -1    0    0  501    0  0.00000000000E+00  0.00000000000E+00  0.34509263495E+04  0.34509263495E+04  0.00000000000E+00 0. -1.
         -1   -1    0    0    0  501 -0.00000000000E+00 -0.00000000000E+00 -0.60879837315E+01  0.60879837315E+01  0.00000000000E+00 0. -1.
         35    2    1    2    0    0  0.00000000000E+00 -0.17763568394E-14  0.34448383658E+04  0.34570143332E+04  0.28989089999E+03 0.  0.
         25    2    3    3    0    0 -0.56889781685E+02  0.10343631673E+02  0.11746284136E+04  0.11825823198E+04  0.12411927804E+03 0.  0.
         25    2    3    3    0    0  0.56889781685E+02 -0.10343631673E+02  0.22702099522E+04  0.22744320134E+04  0.12587421755E+03 0.  0.
          5    1    4    4  502    0  0.13553762438E+01  0.16056321517E+02  0.95774950868E+03  0.95789657787E+03  0.47000000000E+01 0.  1.
         -5    1    4    4    0  502 -0.58245157929E+02 -0.57126898444E+01  0.21687890490E+03  0.22468574195E+03  0.47000000000E+01 0.  1.
          5    1    5    5  503    0  0.33757126688E+02  0.38690802465E+02  0.18492861625E+04  0.18500048440E+04  0.47000000000E+01 0. -1.
         -5    1    5    5    0  503  0.23132654997E+02 -0.49034434138E+02  0.42092378967E+03  0.42442716945E+03  0.47000000000E+01 0. -1.
<mgrwt>
<rscale>  0 0.28989090E+03</rscale>
<asrwt>0</asrwt>
<pdfrwt beam="1">  1        1 0.53091018E+00 0.28989090E+03</pdfrwt>
<pdfrwt beam="2">  1       -1 0.93661564E-03 0.28989090E+03</pdfrwt>
<totfact> 0.70467642E+02</totfact>
</mgrwt>
</event>
<event>
 9    1  0.7926126E-001  0.2733949E+03  0.7818608E-02  0.1099352E+00
          1   -1    0    0  501    0  0.00000000000E+00  0.00000000000E+00  0.10615349881E+03  0.10615349881E+03  0.00000000000E+00 0. -1.
         -1   -1    0    0    0  501 -0.00000000000E+00 -0.00000000000E+00 -0.17602999088E+03  0.17602999088E+03  0.00000000000E+00 0. -1.
         35    2    1    2    0    0 -0.71054273576E-14  0.35527136788E-14 -0.69876492074E+02  0.28218348969E+03  0.27339494822E+03 0.  0.
         25    2    3    3    0    0 -0.16498835991E+02  0.21653187078E+02 -0.83232739973E+02  0.15261467971E+03  0.12498991704E+03 0.  0.
         25    2    3    3    0    0  0.16498835991E+02 -0.21653187078E+02  0.13356247899E+02  0.12956880998E+03  0.12597069128E+03 0.  0.
          5    1    4    4  502    0 -0.50584566972E+01 -0.18578806877E+02 -0.10386522841E+03  0.10573947097E+03  0.47000000000E+01 0. -1.
         -5    1    4    4    0  502 -0.11440379294E+02  0.40231993955E+02  0.20632488433E+02  0.46875208745E+02  0.47000000000E+01 0. -1.
          5    1    5    5  503    0 -0.55087482800E+02 -0.10035903989E+02  0.67187260641E+01  0.56591354552E+02  0.47000000000E+01 0.  1.
         -5    1    5    5    0  503  0.71586318792E+02 -0.11617283089E+02  0.66375218351E+01  0.72977455427E+02  0.47000000000E+01 0.  1.
<mgrwt>
<rscale>  0 0.27339495E+03</rscale>
<asrwt>0</asrwt>
<pdfrwt beam="1">  1        1 0.16331307E-01 0.27339495E+03</pdfrwt>
<pdfrwt beam="2">  1       -1 0.27081537E-01 0.27339495E+03</pdfrwt>
<totfact> 0.40272809E+03</totfact>
</mgrwt>
</event>
<event>
 9    1  0.7926126E-001  0.2808874E+03  0.7818608E-02  0.1095205E+00
         -2   -1    0    0    0  501 -0.00000000000E+00  0.00000000000E+00  0.22938340490E+02  0.22938340490E+02  0.00000000000E+00 0.  1.
          2   -1    0    0  501    0  0.00000000000E+00 -0.00000000000E+00 -0.85988954740E+03  0.85988954740E+03  0.00000000000E+00 0.  1.
         35    2    1    2    0    0 -0.14210854715E-13 -0.14210854715E-13 -0.83695120691E+03  0.88282788789E+03  0.28088744523E+03 0.  0.
         25    2    3    3    0    0 -0.50077088804E+02 -0.39351261084E+02 -0.36067277403E+03  0.38622766125E+03  0.12259983612E+03 0.  0.
         25    2    3    3    0    0  0.50077088804E+02  0.39351261084E+02 -0.47627843288E+03  0.49660022664E+03  0.12535710152E+03 0.  0.
          5    1    4    4  502    0  0.34140633549E+02 -0.13733780896E+02 -0.44193862691E+02  0.57700841384E+02  0.47000000000E+01 0.  1.
         -5    1    4    4    0  502 -0.84217722353E+02 -0.25617480188E+02 -0.31647891134E+03  0.32852681987E+03  0.47000000000E+01 0.  1.
          5    1    5    5  503    0  0.85494342216E+02  0.34140259914E+01 -0.35427592632E+03  0.36449205766E+03  0.47000000000E+01 0. -1.
         -5    1    5    5    0  503 -0.35417253412E+02  0.35937235092E+02 -0.12200250656E+03  0.13210816898E+03  0.47000000000E+01 0. -1.
<mgrwt>
<rscale>  0 0.28088745E+03</rscale>
<asrwt>0</asrwt>
<pdfrwt beam="1">  1        2 0.13229067E+00 0.28088745E+03</pdfrwt>
<pdfrwt beam="2">  1       -2 0.35289763E-02 0.28088745E+03</pdfrwt>
<totfact> 0.10697270E+04</totfact>
</mgrwt>
</event>
<event>
 9    1  0.7926126E-001  0.2776052E+03  0.7818608E-02  0.1097004E+00
          1   -1    0    0  501    0  0.00000000000E+00  0.00000000000E+00  0.25112239122E+04  0.25112239122E+04  0.00000000000E+00 0. -1.
         -1   -1    0    0    0  501 -0.00000000000E+00 -0.00000000000E+00 -0.76720213749E+01  0.76720213749E+01  0.00000000000E+00 0. -1.
         35    2    1    2    0    0  0.00000000000E+00  0.00000000000E+00  0.25035518909E+04  0.25188959336E+04  0.27760521272E+03 0.  0.
         25    2    3    3    0    0 -0.38643540460E+02 -0.35345109871E+02  0.15458420360E+04  0.15518095810E+04  0.12547021770E+03 0.  0.
         25    2    3    3    0    0  0.38643540460E+02  0.35345109871E+02  0.95770985487E+03  0.96708635258E+03  0.12371437758E+03 0.  0.
          5    1    4    4  502    0 -0.48364392889E+02  0.20505788476E+02  0.12126573377E+04  0.12138037364E+04  0.47000000000E+01 0.  1.
         -5    1    4    4    0  502  0.97208524291E+01 -0.55850898348E+02  0.33318469830E+03  0.33800584463E+03  0.47000000000E+01 0.  1.
          5    1    5    5  503    0  0.22908856599E+02 -0.17561463984E+02  0.78844127693E+03  0.78898349659E+03  0.47000000000E+01 0.  1.
         -5    1    5    5    0  503  0.15734683861E+02  0.52906573856E+02  0.16926857794E+03  0.17810285599E+03  0.47000000000E+01 0.  1.
<mgrwt>
<rscale>  0 0.27760521E+03</rscale>
<asrwt>0</asrwt>
<pdfrwt beam="1">  1        1 0.38634148E+00 0.27760521E+03</pdfrwt>
<pdfrwt beam="2">  1       -1 0.11803130E-02 0.27760521E+03</pdfrwt>
<totfact> 0.23050977E+03</totfact>
</mgrwt>
</event>
<event>
 9    1  0.7926126E-001  0.2733945E+03  0.7818608E-02  0.1099352E+00
         -2   -1    0    0    0  501 -0.00000000000E+00  0.00000000000E+00  0.60783908877E+02  0.60783908877E+02  0.00000000000E+00 0. -1.
          2   -1    0    0  501    0  0.00000000000E+00 -0.00000000000E+00 -0.30741906634E+03  0.30741906634E+03  0.00000000000E+00 0. -1.
         35    2    1    2    0    0 -0.71054273576E-14  0.00000000000E+00 -0.24663515746E+03  0.36820297522E+03  0.27339445872E+03 0.  0.
         25    2    3    3    0    0  0.27788970274E+02  0.27550807468E+02 -0.17639058672E+03  0.22069342608E+03  0.12673071991E+03 0.  0.
         25    2    3    3    0    0 -0.27788970274E+02 -0.27550807468E+02 -0.70244570743E+02  0.14750954914E+03  0.12366686503E+03 0.  0.
          5    1    4    4  502    0 -0.30274365327E+02  0.24191660656E+02 -0.46519157705E+01  0.39312898158E+02  0.47000000000E+01 0. -1.
         -5    1    4    4    0  502  0.58063335601E+02  0.33591468125E+01 -0.17173867095E+03  0.18138052792E+03  0.47000000000E+01 0. -1.
          5    1    5    5  503    0 -0.42557892558E+02 -0.47501199648E+02  0.87753307058E+01  0.64549474173E+02  0.47000000000E+01 0.  1.
         -5    1    5    5    0  503  0.14768922283E+02  0.19950392180E+02 -0.79019901449E+02  0.82960074967E+02  0.47000000000E+01 0.  1.
<mgrwt>
<rscale>  0 0.27339446E+03</rscale>
<asrwt>0</asrwt>
<pdfrwt beam="1">  1        2 0.47295242E-01 0.27339446E+03</pdfrwt>
<pdfrwt beam="2">  1       -2 0.93513704E-02 0.27339446E+03</pdfrwt>
<totfact> 0.78022005E+03</totfact>
</mgrwt>
</event>
<event>
 9    1  0.7926126E-001  0.2780723E+03  0.7818608E-02  0.1096746E+00
          2   -1    0    0  501    0  0.00000000000E+00  0.00000000000E+00  0.18075358937E+04  0.18075358937E+04  0.00000000000E+00 0.  1.
         -2   -1    0    0    0  501 -0.00000000000E+00 -0.00000000000E+00 -0.10694699450E+02  0.10694699450E+02  0.00000000000E+00 0.  1.
         35    2    1    2    0    0  0.14210854715E-13  0.71054273576E-14  0.17968411942E+04  0.18182305931E+04  0.27807231525E+03 0.  0.
         25    2    3    3    0    0 -0.46647129217E+02 -0.37082051061E+02  0.94994340315E+03  0.96005465898E+03  0.12554459716E+03 0.  0.
         25    2    3    3    0    0  0.46647129217E+02  0.37082051061E+02  0.84689779106E+03  0.85817593412E+03  0.12521594240E+03 0.  0.
          5    1    4    4  502    0 -0.55375209497E+02 -0.64628886991E+02  0.38363808215E+03  0.39299309782E+03  0.47000000000E+01 0.  1.
         -5    1    4    4    0  502  0.87280802791E+01  0.27546835930E+02  0.56630532100E+03  0.56706156117E+03  0.47000000000E+01 0.  1.
          5    1    5    5  503    0  0.20848543138E+02 -0.27873918482E+02  0.61320802959E+03  0.61421315082E+03  0.47000000000E+01 0.  1.
         -5    1    5    5    0  503  0.25798586080E+02  0.64955969542E+02  0.23368976146E+03  0.24396278330E+03  0.47000000000E+01 0.  1.
<mgrwt>
<rscale>  0 0.27807232E+03</rscale>
<asrwt>0</asrwt>
<pdfrwt beam="1">  1        2 0.27808220E+00 0.27807232E+03</pdfrwt>
<pdfrwt beam="2">  1       -2 0.16453398E-02 0.27807232E+03</pdfrwt>
<totfact> 0.96632188E+03</totfact>
</mgrwt>
</event>
<event>
 9    1  0.7926126E-001  0.2747190E+03  0.7818608E-02  0.1098609E+00
         -2   -1    0    0    0  501 -0.00000000000E+00  0.00000000000E+00  0.83423720842E+02  0.83423720842E+02  0.00000000000E+00 0. -1.
          2   -1    0    0  501    0  0.00000000000E+00 -0.00000000000E+00 -0.22616631721E+03  0.22616631721E+03  0.00000000000E+00 0. -1.
         35    2    1    2    0    0  0.71054273576E-14  0.00000000000E+00 -0.14274259637E+03  0.30959003805E+03  0.27471902526E+03 0.  0.
         25    2    3    3    0    0 -0.20195894170E+02  0.23950642486E+02 -0.18122737633E+02  0.13009834040E+03  0.12496254294E+03 0.  0.
         25    2    3    3    0    0  0.20195894170E+02 -0.23950642486E+02 -0.12461985873E+03  0.17949169765E+03  0.12532219643E+03 0.  0.
          5    1    4    4  502    0  0.46745939276E+02 -0.38986014527E+01  0.16059261188E+02  0.49803331234E+02  0.47000000000E+01 0.  1.
         -5    1    4    4    0  502 -0.66941833446E+02  0.27849243939E+02 -0.34181998820E+02  0.80295009162E+02  0.47000000000E+01 0.  1.
          5    1    5    5  503    0  0.17092997750E+02  0.32344800030E+02 -0.11666747370E+03  0.12235908663E+03  0.47000000000E+01 0.  1.
         -5    1    5    5    0  503  0.31028964198E+01 -0.56295442516E+02 -0.79523850286E+01  0.57132611020E+02  0.47000000000E+01 0.  1.
<mgrwt>
<rscale>  0 0.27471903E+03</rscale>
<asrwt>0</asrwt>
<pdfrwt beam="1">  1        2 0.34794818E-01 0.27471903E+03</pdfrwt>
<pdfrwt beam="2">  1       -2 0.12834418E-01 0.27471903E+03</pdfrwt>
<totfact> 0.65436670E+03</totfact>
</mgrwt>
</event>
<event>
 9    1  0.7926126E-001  0.2756680E+03  0.7818608E-02  0.1098079E+00
          2   -1    0    0  501    0  0.00000000000E+00  0.00000000000E+00  0.10654851144E+04  0.10654851144E+04  0.00000000000E+00 0. -1.
         -2   -1    0    0    0  501 -0.00000000000E+00 -0.00000000000E+00 -0.17830575754E+02  0.17830575754E+02  0.00000000000E+00 0. -1.
         35    2    1    2    0    0 -0.71054273576E-14 -0.71054273576E-14  0.10476545387E+04  0.10833156902E+04  0.27566801082E+03 0.  0.
         25    2    3    3    0    0  0.44533371170E+02 -0.37141653428E+02  0.54615838188E+03  0.56314176588E+03  0.12440637772E+03 0.  0.
         25    2    3    3    0    0 -0.44533371170E+02  0.37141653428E+02  0.50149615677E+03  0.52017392428E+03  0.12537859735E+03 0.  0.
          5    1    4    4  502    0  0.57042775048E+02 -0.75037754599E+02  0.32772076007E+03  0.34103889717E+03  0.47000000000E+01 0. -1.
         -5    1    4    4    0  502 -0.12509403879E+02  0.37896101171E+02  0.21843762181E+03  0.22210286872E+03  0.47000000000E+01 0. -1.
          5    1    5    5  503    0 -0.23949767589E+02 -0.33846289087E+02  0.33945255349E+03  0.34200773197E+03  0.47000000000E+01 0.  1.
         -5    1    5    5    0  503 -0.20583603581E+02  0.70987942515E+02  0.16204360328E+03  0.17816619231E+03  0.47000000000E+01 0.  1.
<mgrwt>
<rscale>  0 0.27566801E+03</rscale>
<asrwt>0</asrwt>
<pdfrwt beam="1">  1        2 0.16392074E+00 0.27566801E+03</pdfrwt>
<pdfrwt beam="2">  1       -2 0.27431663E-02 0.27566801E+03</pdfrwt>
<totfact> 0.11572195E+04</totfact>
</mgrwt>
</event>
<event>
 9    1  0.7926126E-001  0.2780430E+03  0.7818608E-02  0.1096763E+00
         -2   -1    0    0    0  501 -0.00000000000E+00  0.00000000000E+00  0.96118547351E+02  0.96118547351E+02  0.00000000000E+00 0. -1.
          2   -1    0    0  501    0  0.00000000000E+00 -0.00000000000E+00 -0.20107437541E+03  0.20107437541E+03  0.00000000000E+00 0. -1.
         35    2    1    2    0    0 -0.17763568394E-14 -0.14210854715E-13 -0.10495582806E+03  0.29719292276E+03  0.27804299577E+03 0.  0.
         25    2    3    3    0    0 -0.15969337896E+02 -0.53095118311E+02 -0.26658743186E+02  0.13922627978E+03  0.12489658543E+03 0.  0.
         25    2    3    3    0    0  0.15969337896E+02  0.53095118311E+02 -0.78297084873E+02  0.15796664298E+03  0.12549468297E+03 0.  0.
          5    1    4    4  502    0 -0.42761594543E+02  0.27268126725E+02 -0.24241065979E+01  0.50990891301E+02  0.47000000000E+01 0. -1.
         -5    1    4    4    0  502  0.26792256647E+02 -0.80363245036E+02 -0.24234636588E+02  0.88235388476E+02  0.47000000000E+01 0. -1.
          5    1    5    5  503    0  0.30232827787E+02 -0.35517981917E+02 -0.32930129687E+02  0.57289042204E+02  0.47000000000E+01 0.  1.
         -5    1    5    5    0  503 -0.14263489890E+02  0.88613100229E+02 -0.45366955186E+02  0.10067760078E+03  0.47000000000E+01 0.  1.
<mgrwt>
<rscale>  0 0.27804300E+03</rscale>
<asrwt>0</asrwt>
<pdfrwt beam="1">  1        2 0.30934519E-01 0.27804300E+03</pdfrwt>
<pdfrwt beam="2">  1       -2 0.14787469E-01 0.27804300E+03</pdfrwt>
<totfact> 0.59014923E+03</totfact>
</mgrwt>
</event>
<event>
 9    1  0.7926126E-001  0.2626898E+03  0.7818608E-02  0.1105538E+00
         -1   -1    0    0    0  501 -0.00000000000E+00  0.00000000000E+00  0.93732053962E+02  0.93732053962E+02  0.00000000000E+00 0. -1.
          1   -1    0    0  501    0  0.00000000000E+00 -0.00000000000E+00 -0.18405098659E+03  0.18405098659E+03  0.00000000000E+00 0. -1.
         35    2    1    2    0    0  0.00000000000E+00  0.00000000000E+00 -0.90318932631E+02  0.27778304056E+03  0.26268975623E+03 0.  0.
         25    2    3    3    0    0 -0.13355000760E+02 -0.33023266266E+02 -0.65291495371E+02  0.14498831237E+03  0.12445778078E+03 0.  0.
         25    2    3    3    0    0  0.13355000760E+02  0.33023266266E+02 -0.25027437260E+02  0.13279472818E+03  0.12545586896E+03 0.  0.
          5    1    4    4  502    0  0.51591154905E+02 -0.23412355083E+02 -0.73974844488E+01  0.57328861939E+02  0.47000000000E+01 0.  1.
         -5    1    4    4    0  502 -0.64946155666E+02 -0.96109111835E+01 -0.57894010922E+02  0.87659450433E+02  0.47000000000E+01 0.  1.
          5    1    5    5  503    0  0.19978444772E+02  0.52226833883E+02 -0.66115737025E+02  0.86718862512E+02  0.47000000000E+01 0. -1.
         -5    1    5    5    0  503 -0.66234440114E+01 -0.19203567617E+02  0.41088299766E+02  0.46075865672E+02  0.47000000000E+01 0. -1.
<mgrwt>
<rscale>  0 0.26268976E+03</rscale>
<asrwt>0</asrwt>
<pdfrwt beam="1">  1        1 0.28315537E-01 0.26268976E+03</pdfrwt>
<pdfrwt beam="2">  1       -1 0.14420316E-01 0.26268976E+03</pdfrwt>
<totfact> 0.55280652E+03</totfact>
</mgrwt>
</event>
<event>
 9    1  0.7926126E-001  0.2738147E+03  0.7818608E-02  0.1099116E+00
         -1   -1    0    0    0  501 -0.00000000000E+00  0.00000000000E+00  0.10439304629E+03  0.10439304629E+03  0.00000000000E+00 0. -1.
          1   -1    0    0  501    0  0.00000000000E+00 -0.00000000000E+00 -0.17954860360E+03  0.17954860360E+03  0.00000000000E+00 0. -1.
         35    2    1    2    0    0 -0.71054273576E-14  0.35527136788E-14 -0.75155557313E+02  0.28394164989E+03  0.27381472339E+03 0.  0.
         25    2    3    3    0    0 -0.41554724502E+02 -0.98723672325E+01 -0.74095971441E+02  0.15198486964E+03  0.12563808679E+03 0.  0.
         25    2    3    3    0    0  0.41554724502E+02  0.98723672325E+01 -0.10595858717E+01  0.13195678025E+03  0.12484874997E+03 0.  0.
          5    1    4    4  502    0 -0.59992135500E+02 -0.31446886315E+02  0.47420380472E+01  0.68062764457E+02  0.47000000000E+01 0. -1.
         -5    1    4    4    0  502  0.18437410997E+02  0.21574519083E+02 -0.78838009488E+02  0.83922105181E+02  0.47000000000E+01 0. -1.
          5    1    5    5  503    0  0.50192288696E+02  0.57431014140E+02  0.20047509550E+02  0.79003669971E+02  0.47000000000E+01 0. -1.
         -5    1    5    5    0  503 -0.86375641940E+01 -0.47558646908E+02 -0.21107095421E+02  0.52953110277E+02  0.47000000000E+01 0. -1.
<mgrwt>
<rscale>  0 0.27381472E+03</rscale>
<asrwt>0</asrwt>
<pdfrwt beam="1">  1        1 0.27622862E-01 0.27381472E+03</pdfrwt>
<pdfrwt beam="2">  1       -1 0.16060469E-01 0.27381472E+03</pdfrwt>
<totfact> 0.48140316E+03</totfact>
</mgrwt>
</event>
<event>
 9    1  0.7926126E-001  0.2788187E+03  0.7818608E-02  0.1096336E+00
          3   -1    0    0  501    0  0.00000000000E+00  0.00000000000E+00  0.13284781613E+04  0.13284781613E+04  0.00000000000E+00 0. -1.
         -3   -1    0    0    0  501 -0.00000000000E+00 -0.00000000000E+00 -0.14629495638E+02  0.14629495638E+02  0.00000000000E+00 0. -1.
         35    2    1    2    0    0  0.71054273576E-14  0.00000000000E+00  0.13138486657E+04  0.13431076570E+04  0.27881868995E+03 0.  0.
         25    2    3    3    0    0  0.32183120736E+02  0.64900298387E+02  0.69902664390E+03  0.71168896164E+03  0.11231708345E+03 0.  0.
         25    2    3    3    0    0 -0.32183120736E+02 -0.64900298387E+02  0.61482202177E+03  0.63141869532E+03  0.12424028473E+03 0.  0.
          5    1    4    4  502    0 -0.12478817359E+02 -0.13876523031E+02  0.24796776465E+02  0.31388674664E+02  0.47000000000E+01 0.  1.
         -5    1    4    4    0  502  0.44661938094E+02  0.78776821418E+02  0.67422986744E+03  0.68030028697E+03  0.47000000000E+01 0.  1.
          5    1    5    5  503    0  0.31926304898E+01 -0.89079443363E+02  0.51513034585E+03  0.52280656398E+03  0.47000000000E+01 0.  1.
         -5    1    5    5    0  503 -0.35375751226E+02  0.24179144976E+02  0.99691675922E+02  0.10861213134E+03  0.47000000000E+01 0.  1.
<mgrwt>
<rscale>  0 0.27881869E+03</rscale>
<asrwt>0</asrwt>
<pdfrwt beam="1">  1        3 0.20438116E+00 0.27881869E+03</pdfrwt>
<pdfrwt beam="2">  1       -3 0.22506927E-02 0.27881869E+03</pdfrwt>
<totfact> 0.30413681E+02</totfact>
</mgrwt>
</event>
<event>
 9    1  0.7926126E-001  0.2875854E+03  0.7818608E-02  0.1091617E+00
         -2   -1    0    0    0  501 -0.00000000000E+00  0.00000000000E+00  0.65205486305E+02  0.65205486305E+02  0.00000000000E+00 0.  1.
          2   -1    0    0  501    0  0.00000000000E+00 -0.00000000000E+00 -0.31709513103E+03  0.31709513103E+03  0.00000000000E+00 0.  1.
         35    2    1    2    0    0  0.71054273576E-14  0.00000000000E+00 -0.25188964472E+03  0.38230061733E+03  0.28758541148E+03 0.  0.
         25    2    3    3    0    0 -0.48270149162E+02 -0.25318019873E+02 -0.18545239596E+03  0.23016899142E+03  0.12495664855E+03 0.  0.
         25    2    3    3    0    0  0.48270149162E+02  0.25318019873E+02 -0.66437248763E+02  0.15213162591E+03  0.12553531036E+03 0.  0.
          5    1    4    4  502    0 -0.52124660792E+02  0.37490844474E+01 -0.19260475628E+03  0.19962394155E+03  0.47000000000E+01 0.  1.
         -5    1    4    4    0  502  0.38545116292E+01 -0.29067104320E+02  0.71523603265E+01  0.30545049872E+02  0.47000000000E+01 0.  1.
          5    1    5    5  503    0  0.12404845603E+02 -0.47379140230E+02 -0.33682150986E+01  0.49316305582E+02  0.47000000000E+01 0.  1.
         -5    1    5    5    0  503  0.35865303560E+02  0.72697160102E+02 -0.63069033665E+02  0.10281532033E+03  0.47000000000E+01 0.  1.
<mgrwt>
<rscale>  0 0.28758541E+03</rscale>
<asrwt>0</asrwt>
<pdfrwt beam="1">  1        2 0.48783867E-01 0.28758541E+03</pdfrwt>
<pdfrwt beam="2">  1       -2 0.10031613E-01 0.28758541E+03</pdfrwt>
<totfact> 0.67631649E+03</totfact>
</mgrwt>
</event>
<event>
 9    1  0.7926126E-001  0.2751250E+03  0.7818608E-02  0.1098382E+00
         -2   -1    0    0    0  501 -0.00000000000E+00  0.00000000000E+00  0.46524851449E+03  0.46524851449E+03  0.00000000000E+00 0.  1.
          2   -1    0    0  501    0  0.00000000000E+00 -0.00000000000E+00 -0.40673828209E+02  0.40673828209E+02  0.00000000000E+00 0.  1.
         35    2    1    2    0    0  0.00000000000E+00 -0.35527136788E-14  0.42457468628E+03  0.50592234269E+03  0.27512497635E+03 0.  0.
         25    2    3    3    0    0 -0.52227781888E+02 -0.46032922416E+01  0.25458140965E+03  0.28816373690E+03  0.12440945956E+03 0.  0.
         25    2    3    3    0    0  0.52227781888E+02  0.46032922416E+01  0.16999327663E+03  0.21775860579E+03  0.12558727960E+03 0.  0.
          5    1    4    4  502    0  0.23701844946E+02 -0.39832491752E+02  0.12913521219E+03  0.13728218341E+03  0.47000000000E+01 0. -1.
         -5    1    4    4    0  502 -0.75929626834E+02  0.35229199511E+02  0.12544619745E+03  0.15088155349E+03  0.47000000000E+01 0. -1.
          5    1    5    5  503    0  0.56176457192E+02  0.20061833809E+02  0.18556535339E+03  0.19497400313E+03  0.47000000000E+01 0. -1.
         -5    1    5    5    0  503 -0.39486753033E+01 -0.15458541567E+02 -0.15572076756E+02  0.22784602664E+02  0.47000000000E+01 0. -1.
<mgrwt>
<rscale>  0 0.27512498E+03</rscale>
<asrwt>0</asrwt>
<pdfrwt beam="1">  1        2 0.62575123E-02 0.27512498E+03</pdfrwt>
<pdfrwt beam="2">  1       -2 0.71576691E-01 0.27512498E+03</pdfrwt>
<totfact> 0.21205754E+03</totfact>
</mgrwt>
</event>
<event>
 9    1  0.7926126E-001  0.2763863E+03  0.7818608E-02  0.1097679E+00
         -1   -1    0    0    0  501 -0.00000000000E+00  0.00000000000E+00  0.28970544938E+03  0.28970544938E+03  0.00000000000E+00 0. -1.
          1   -1    0    0  501    0  0.00000000000E+00 -0.00000000000E+00 -0.65919891724E+02  0.65919891724E+02  0.00000000000E+00 0. -1.
         35    2    1    2    0    0  0.00000000000E+00  0.00000000000E+00  0.22378555765E+03  0.35562534110E+03  0.27638633725E+03 0.  0.
         25    2    3    3    0    0 -0.29370866594E+02  0.10614858451E+02  0.44676150371E+02  0.13514253435E+03  0.12366172873E+03 0.  0.
         25    2    3    3    0    0  0.29370866594E+02 -0.10614858451E+02  0.17910940728E+03  0.22048280676E+03  0.12472836595E+03 0.  0.
          5    1    4    4  502    0  0.15648796882E+02 -0.15187764269E+02 -0.34067946064E+02  0.40721836604E+02  0.47000000000E+01 0.  1.
         -5    1    4    4    0  502 -0.45019663476E+02  0.25802622720E+02  0.78744096435E+02  0.94420697742E+02  0.47000000000E+01 0.  1.
          5    1    5    5  503    0  0.19321603510E+02  0.17347693693E+02 -0.10574324696E+02  0.28428386895E+02  0.47000000000E+01 0.  1.
         -5    1    5    5    0  503  0.10049263083E+02 -0.27962552144E+02  0.18968373198E+03  0.19205441986E+03  0.47000000000E+01 0.  1.
<mgrwt>
<rscale>  0 0.27638634E+03</rscale>
<asrwt>0</asrwt>
<pdfrwt beam="1">  1        1 0.10141522E-01 0.27638634E+03</pdfrwt>
<pdfrwt beam="2">  1       -1 0.44570068E-01 0.27638634E+03</pdfrwt>
<totfact> 0.31839055E+03</totfact>
</mgrwt>
</event>
<event>
 9    1  0.7926126E-001  0.2743917E+03  0.7818608E-02  0.1098792E+00
          1   -1    0    0  501    0  0.00000000000E+00  0.00000000000E+00  0.96927764904E+03  0.96927764904E+03  0.00000000000E+00 0. -1.
         -1   -1    0    0    0  501 -0.00000000000E+00 -0.00000000000E+00 -0.19419305219E+02  0.19419305219E+02  0.00000000000E+00 0. -1.
         35    2    1    2    0    0  0.00000000000E+00  0.35527136788E-14  0.94985834382E+03  0.98869695426E+03  0.27439167996E+03 0.  0.
         25    2    3    3    0    0 -0.41581852358E+02  0.27036965642E+02  0.57720952343E+03  0.59247193817E+03  0.12406496533E+03 0.  0.
         25    2    3    3    0    0  0.41581852358E+02 -0.27036965642E+02  0.37264882039E+03  0.39622501609E+03  0.12516817519E+03 0.  0.
          5    1    4    4  502    0 -0.26148463669E+02  0.63342194708E+02  0.17034285239E+03  0.18367022933E+03  0.47000000000E+01 0. -1.
         -5    1    4    4    0  502 -0.15433388689E+02 -0.36305229065E+02  0.40686667104E+03  0.40880170883E+03  0.47000000000E+01 0. -1.
          5    1    5    5  503    0  0.96899371275E+01 -0.50821741643E+02  0.34163377530E+03  0.34556109551E+03  0.47000000000E+01 0.  1.
         -5    1    5    5    0  503  0.31891915231E+02  0.23784776001E+02  0.31015045092E+02  0.50663920580E+02  0.47000000000E+01 0.  1.
<mgrwt>
<rscale>  0 0.27439168E+03</rscale>
<asrwt>0</asrwt>
<pdfrwt beam="1">  1        1 0.14911960E+00 0.27439168E+03</pdfrwt>
<pdfrwt beam="2">  1       -1 0.29875862E-02 0.27439168E+03</pdfrwt>
<totfact> 0.63975426E+03</totfact>
</mgrwt>
</event>
<event>
 9    1  0.7926126E-001  0.2772303E+03  0.7818608E-02  0.1097211E+00
          2   -1    0    0  501    0  0.00000000000E+00  0.00000000000E+00  0.49055033794E+02  0.49055033794E+02  0.00000000000E+00 0.  1.
         -2   -1    0    0    0  501 -0.00000000000E+00 -0.00000000000E+00 -0.39168576165E+03  0.39168576165E+03  0.00000000000E+00 0.  1.
         35    2    1    2    0    0  0.71054273576E-14 -0.71054273576E-14 -0.34263072785E+03  0.44074079544E+03  0.27723028892E+03 0.  0.
         25    2    3    3    0    0 -0.26944526253E+02 -0.41129327399E+02 -0.22456546547E+03  0.26203119707E+03  0.12575003334E+03 0.  0.
         25    2    3    3    0    0  0.26944526253E+02  0.41129327399E+02 -0.11806526238E+03  0.17870959837E+03  0.12482021192E+03 0.  0.
          5    1    4    4  502    0  0.45924219200E+02 -0.39315262956E+02 -0.83722624350E+02  0.10337452122E+03  0.47000000000E+01 0.  1.
         -5    1    4    4    0  502 -0.72868745453E+02 -0.18140644434E+01 -0.14084284113E+03  0.15865667584E+03  0.47000000000E+01 0.  1.
          5    1    5    5  503    0 -0.27177209384E+02 -0.32487799697E+02 -0.39749142405E+02  0.58276428863E+02  0.47000000000E+01 0.  1.
         -5    1    5    5    0  503  0.54121735637E+02  0.73617127097E+02 -0.78316119973E+02  0.12043316951E+03  0.47000000000E+01 0.  1.
<mgrwt>
<rscale>  0 0.27723029E+03</rscale>
<asrwt>0</asrwt>
<pdfrwt beam="1">  1        2 0.75469287E-02 0.27723029E+03</pdfrwt>
<pdfrwt beam="2">  1       -2 0.60259345E-01 0.27723029E+03</pdfrwt>
<totfact> 0.23961683E+03</totfact>
</mgrwt>
</event>
<event>
 9    1  0.7926126E-001  0.2809302E+03  0.7818608E-02  0.1095182E+00
         -1   -1    0    0    0  501 -0.00000000000E+00  0.00000000000E+00  0.58251525377E+03  0.58251525377E+03  0.00000000000E+00 0.  1.
          1   -1    0    0  501    0  0.00000000000E+00 -0.00000000000E+00 -0.33871112897E+02  0.33871112897E+02  0.00000000000E+00 0.  1.
         35    2    1    2    0    0  0.00000000000E+00  0.00000000000E+00  0.54864414088E+03  0.61638636667E+03  0.28093016873E+03 0.  0.
         25    2    3    3    0    0  0.42862295387E+02 -0.44010484408E+02  0.31779168270E+03  0.34723734597E+03  0.12573035329E+03 0.  0.
         25    2    3    3    0    0 -0.42862295387E+02  0.44010484408E+02  0.23085245817E+03  0.26914902070E+03  0.12399289816E+03 0.  0.
          5    1    4    4  502    0 -0.36056805702E+02  0.16081952357E+02  0.10922122633E+03  0.11623290717E+03  0.47000000000E+01 0.  1.
         -5    1    4    4    0  502  0.78919101089E+02 -0.60092436764E+02  0.20857045638E+03  0.23100443880E+03  0.47000000000E+01 0.  1.
          5    1    5    5  503    0 -0.46751789038E+02 -0.28218696271E+02  0.49526897244E+02  0.73871700590E+02  0.47000000000E+01 0. -1.
         -5    1    5    5    0  503  0.38894936515E+01  0.72229180679E+02  0.18132556093E+03  0.19527732011E+03  0.47000000000E+01 0. -1.
<mgrwt>
<rscale>  0 0.28093017E+03</rscale>
<asrwt>0</asrwt>
<pdfrwt beam="1">  1        1 0.52109409E-02 0.28093017E+03</pdfrwt>
<pdfrwt beam="2">  1       -1 0.89617724E-01 0.28093017E+03</pdfrwt>
<totfact> 0.20136781E+03</totfact>
</mgrwt>
</event>
<event>
 9    1  0.7926126E-001  0.2857732E+03  0.7818608E-02  0.1092577E+00
         -1   -1    0    0    0  501 -0.00000000000E+00  0.00000000000E+00  0.33084980708E+02  0.33084980708E+02  0.00000000000E+00 0. -1.
          1   -1    0    0  501    0  0.00000000000E+00 -0.00000000000E+00 -0.61709530396E+03  0.61709530396E+03  0.00000000000E+00 0. -1.
         35    2    1    2    0    0  0.00000000000E+00  0.00000000000E+00 -0.58401032325E+03  0.65018028467E+03  0.28577324036E+03 0.  0.
         25    2    3    3    0    0  0.18941293283E+02 -0.29327255434E+02 -0.41864647667E+03  0.43937649913E+03  0.12871664637E+03 0.  0.
         25    2    3    3    0    0 -0.18941293283E+02  0.29327255434E+02 -0.16536384658E+03  0.21080378554E+03  0.12599275273E+03 0.  0.
          5    1    4    4  502    0 -0.54003711228E+02 -0.16608639929E+02 -0.22415264475E+03  0.23121147440E+03  0.47000000000E+01 0. -1.
         -5    1    4    4    0  502  0.72945004511E+02 -0.12718615505E+02 -0.19449383192E+03  0.20816502472E+03  0.47000000000E+01 0. -1.
          5    1    5    5  503    0  0.38380809800E+02  0.55315236297E+02 -0.90262220153E+02  0.11270412732E+03  0.47000000000E+01 0.  1.
         -5    1    5    5    0  503 -0.57322103083E+02 -0.25987980863E+02 -0.75101626427E+02  0.98099658221E+02  0.47000000000E+01 0.  1.
<mgrwt>
<rscale>  0 0.28577324E+03</rscale>
<asrwt>0</asrwt>
<pdfrwt beam="1">  1        1 0.94937735E-01 0.28577324E+03</pdfrwt>
<pdfrwt beam="2">  1       -1 0.50899972E-02 0.28577324E+03</pdfrwt>
<totfact> 0.57807227E+03</totfact>
</mgrwt>
</event>
<event>
 9    1  0.7926126E-001  0.2759644E+03  0.7818608E-02  0.1097914E+00
          3   -1    0    0  501    0  0.00000000000E+00  0.00000000000E+00  0.11285624948E+03  0.11285624948E+03  0.00000000000E+00 0.  1.
         -3   -1    0    0    0  501 -0.00000000000E+00 -0.00000000000E+00 -0.16870209882E+03  0.16870209882E+03  0.00000000000E+00 0.  1.
         35    2    1    2    0    0 -0.71054273576E-14 -0.17763568394E-14 -0.55845849339E+02  0.28155834831E+03  0.27596439012E+03 0.  0.
         25    2    3    3    0    0 -0.56327564252E+02  0.15611850963E+02 -0.47368387028E+02  0.14567672020E+03  0.12474541407E+03 0.  0.
         25    2    3    3    0    0  0.56327564252E+02 -0.15611850963E+02 -0.84774623117E+01  0.13588162811E+03  0.12237411943E+03 0.  0.
          5    1    4    4  502    0  0.16115218245E+02 -0.19530926343E+02  0.26035390651E+02  0.36620880782E+02  0.47000000000E+01 0. -1.
         -5    1    4    4    0  502 -0.72442782497E+02  0.35142777307E+02 -0.73403777679E+02  0.10905583941E+03  0.47000000000E+01 0. -1.
          5    1    5    5  503    0 -0.19187818102E+02 -0.17094388994E+02 -0.44861270187E+02  0.51913524841E+02  0.47000000000E+01 0.  1.
         -5    1    5    5    0  503  0.75515382354E+02  0.14825380312E+01  0.36383807875E+02  0.83968103269E+02  0.47000000000E+01 0.  1.
<mgrwt>
<rscale>  0 0.27596439E+03</rscale>
<asrwt>0</asrwt>
<pdfrwt beam="1">  1        3 0.17362500E-01 0.27596439E+03</pdfrwt>
<pdfrwt beam="2">  1       -3 0.25954169E-01 0.27596439E+03</pdfrwt>
<totfact> 0.10277895E+03</totfact>
</mgrwt>
</event>
<event>
 9    1  0.7926126E-001  0.2785062E+03  0.7818608E-02  0.1096508E+00
          1   -1    0    0  501    0  0.00000000000E+00  0.00000000000E+00  0.31001275452E+03  0.31001275452E+03  0.00000000000E+00 0.  1.
         -1   -1    0    0    0  501 -0.00000000000E+00 -0.00000000000E+00 -0.62550392477E+02  0.62550392477E+02  0.00000000000E+00 0.  1.
         35    2    1    2    0    0  0.00000000000E+00 -0.35527136788E-14  0.24746236205E+03  0.37256314700E+03  0.27850615410E+03 0.  0.
         25    2    3    3    0    0  0.43526499475E+02 -0.28829590120E+02  0.16664684976E+03  0.21487931940E+03  0.12520482398E+03 0.  0.
         25    2    3    3    0    0 -0.43526499475E+02  0.28829590120E+02  0.80815512287E+02  0.15768382760E+03  0.12492934418E+03 0.  0.
          5    1    4    4  502    0  0.87522119570E+02 -0.22331195655E+02  0.11985531040E+03  0.15015388488E+03  0.47000000000E+01 0. -1.
         -5    1    4    4    0  502 -0.43995620094E+02 -0.64983944652E+01  0.46791539363E+02  0.64725434522E+02  0.47000000000E+01 0. -1.
          5    1    5    5  503    0  0.41605893258E+02  0.22934465185E+02  0.42906744839E+02  0.64188151553E+02  0.47000000000E+01 0. -1.
         -5    1    5    5    0  503 -0.85132392733E+02  0.58951249346E+01  0.37908767448E+02  0.93495676049E+02  0.47000000000E+01 0. -1.
<mgrwt>
<rscale>  0 0.27850615E+03</rscale>
<asrwt>0</asrwt>
<pdfrwt beam="1">  1        1 0.47694269E-01 0.27850615E+03</pdfrwt>
<pdfrwt beam="2">  1       -1 0.96231375E-02 0.27850615E+03</pdfrwt>
<totfact> 0.54059712E+03</totfact>
</mgrwt>
</event>
<event>
 9    1  0.7926126E-001  0.2862139E+03  0.7818608E-02  0.1092343E+00
          2   -1    0    0  501    0  0.00000000000E+00  0.00000000000E+00  0.92771351149E+03  0.92771351149E+03  0.00000000000E+00 0. -1.
         -2   -1    0    0    0  501 -0.00000000000E+00 -0.00000000000E+00 -0.22075354115E+02  0.22075354115E+02  0.00000000000E+00 0. -1.
         35    2    1    2    0    0  0.71054273576E-14  0.00000000000E+00  0.90563815737E+03  0.94978886560E+03  0.28621393595E+03 0.  0.
         25    2    3    3    0    0  0.25102749318E+02  0.60557118338E+02  0.37075297103E+03  0.39661283198E+03  0.12468624766E+03 0.  0.
         25    2    3    3    0    0 -0.25102749318E+02 -0.60557118338E+02  0.53488518634E+03  0.55317603362E+03  0.12491696844E+03 0.  0.
          5    1    4    4  502    0 -0.47484633175E+02  0.12966455667E+02  0.18554704404E+03  0.19202269374E+03  0.47000000000E+01 0. -1.
         -5    1    4    4    0  502  0.72587382493E+02  0.47590662671E+02  0.18520592700E+03  0.20459013824E+03  0.47000000000E+01 0. -1.
          5    1    5    5  503    0 -0.42585439340E+02 -0.24802025013E+02  0.49198117587E+03  0.49446559789E+03  0.47000000000E+01 0.  1.
         -5    1    5    5    0  503  0.17482690023E+02 -0.35755093325E+02  0.42904010466E+02  0.58710435727E+02  0.47000000000E+01 0.  1.
<mgrwt>
<rscale>  0 0.28621394E+03</rscale>
<asrwt>0</asrwt>
<pdfrwt beam="1">  1        2 0.14272513E+00 0.28621394E+03</pdfrwt>
<pdfrwt beam="2">  1       -2 0.33962090E-02 0.28621394E+03</pdfrwt>
<totfact> 0.10242300E+04</totfact>
</mgrwt>
</event>
<event>
 9    1  0.7926126E-001  0.2705835E+03  0.7818608E-02  0.1100946E+00
         -1   -1    0    0    0  501 -0.00000000000E+00  0.00000000000E+00  0.34516835643E+03  0.34516835643E+03  0.00000000000E+00 0.  1.
          1   -1    0    0  501    0  0.00000000000E+00 -0.00000000000E+00 -0.53028771828E+02  0.53028771828E+02  0.00000000000E+00 0.  1.
         35    2    1    2    0    0  0.14210854715E-13  0.00000000000E+00  0.29213958461E+03  0.39819712826E+03  0.27058347337E+03 0.  0.
         25    2    3    3    0    0 -0.47014204779E+02  0.19535243704E+02  0.15251214798E+03  0.20425942589E+03  0.12597617468E+03 0.  0.
         25    2    3    3    0    0  0.47014204779E+02 -0.19535243704E+02  0.13962743663E+03  0.19393770237E+03  0.12459554625E+03 0.  0.
          5    1    4    4  502    0  0.16119261000E+02 -0.42111142421E+02  0.69760329939E+02  0.83197190604E+02  0.47000000000E+01 0.  1.
         -5    1    4    4    0  502 -0.63133465779E+02  0.61646386125E+02  0.82751818041E+02  0.12106223529E+03  0.47000000000E+01 0.  1.
          5    1    5    5  503    0  0.18405157563E+02  0.40209880785E+02  0.62045991555E+01  0.44901797161E+02  0.47000000000E+01 0.  1.
         -5    1    5    5    0  503  0.28609047217E+02 -0.59745124489E+02  0.13342283747E+03  0.14903590521E+03  0.47000000000E+01 0.  1.
<mgrwt>
<rscale>  0 0.27058347E+03</rscale>
<asrwt>0</asrwt>
<pdfrwt beam="1">  1        1 0.81582728E-02 0.27058347E+03</pdfrwt>
<pdfrwt beam="2">  1       -1 0.53102823E-01 0.27058347E+03</pdfrwt>
<totfact> 0.30933507E+03</totfact>
</mgrwt>
</event>
<event>
 9    1  0.7926126E-001  0.2762820E+03  0.7818608E-02  0.1097737E+00
          2   -1    0    0  501    0  0.00000000000E+00  0.00000000000E+00  0.29623496177E+04  0.29623496177E+04  0.00000000000E+00 0. -1.
         -2   -1    0    0    0  501 -0.00000000000E+00 -0.00000000000E+00 -0.64418251189E+01  0.64418251189E+01  0.00000000000E+00 0. -1.
         35    2    1    2    0    0  0.14210854715E-13  0.17763568394E-14  0.29559077925E+04  0.29687914428E+04  0.27628201663E+03 0.  0.
         25    2    3    3    0    0 -0.45461697638E+02 -0.91349674541E+01  0.10667995494E+04  0.10750162451E+04  0.12429173417E+03 0.  0.
         25    2    3    3    0    0  0.45461697638E+02  0.91349674541E+01  0.18891082432E+04  0.18937751976E+04  0.12451638935E+03 0.  0.
          5    1    4    4  502    0  0.40177814413E+02 -0.11031334102E+01  0.20746424063E+03  0.21137401641E+03  0.47000000000E+01 0. -1.
         -5    1    4    4    0  502 -0.85639512051E+02 -0.80318340439E+01  0.85933530874E+03  0.86364222872E+03  0.47000000000E+01 0. -1.
          5    1    5    5  503    0  0.56399608848E+02  0.10034664222E+02  0.35519491962E+03  0.35981541280E+03  0.47000000000E+01 0.  1.
         -5    1    5    5    0  503 -0.10937911210E+02 -0.89969676828E+00  0.15339133235E+04  0.15339597848E+04  0.47000000000E+01 0.  1.
<mgrwt>
<rscale>  0 0.27628202E+03</rscale>
<asrwt>0</asrwt>
<pdfrwt beam="1">  1        2 0.45574501E+00 0.27628202E+03</pdfrwt>
<pdfrwt beam="2">  1       -2 0.99105238E-03 0.27628202E+03</pdfrwt>
<totfact> 0.47370424E+03</totfact>
</mgrwt>
</event>
<event>
 9    1  0.7926126E-001  0.2736229E+03  0.7818608E-02  0.1099224E+00
          2   -1    0    0  501    0  0.00000000000E+00  0.00000000000E+00  0.57389978506E+02  0.57389978506E+02  0.00000000000E+00 0. -1.
         -2   -1    0    0    0  501 -0.00000000000E+00 -0.00000000000E+00 -0.32614350566E+03  0.32614350566E+03  0.00000000000E+00 0. -1.
         35    2    1    2    0    0  0.35527136788E-14  0.14210854715E-13 -0.26875352716E+03  0.38353348417E+03  0.27362287024E+03 0.  0.
         25    2    3    3    0    0 -0.67666583765E+01  0.37590985584E+02 -0.19463932055E+03  0.23443456389E+03  0.12496491418E+03 0.  0.
         25    2    3    3    0    0  0.67666583765E+01 -0.37590985584E+02 -0.74114206604E+02  0.14909892028E+03  0.12360704893E+03 0.  0.
          5    1    4    4  502    0 -0.35261698898E+02  0.54431834730E+02 -0.18983071244E+03  0.20065891813E+03  0.47000000000E+01 0. -1.
         -5    1    4    4    0  502  0.28495040522E+02 -0.16840849145E+02 -0.48086081159E+01  0.33775645757E+02  0.47000000000E+01 0. -1.
          5    1    5    5  503    0  0.56189622457E+02 -0.46388857874E+02 -0.65216516540E+02  0.97900377100E+02  0.47000000000E+01 0. -1.
         -5    1    5    5    0  503 -0.49422964080E+02  0.87978722895E+01 -0.88976900639E+01  0.51198543180E+02  0.47000000000E+01 0. -1.
<mgrwt>
<rscale>  0 0.27362287E+03</rscale>
<asrwt>0</asrwt>
<pdfrwt beam="1">  1        2 0.88292274E-02 0.27362287E+03</pdfrwt>
<pdfrwt beam="2">  1       -2 0.50175924E-01 0.27362287E+03</pdfrwt>
<totfact> 0.28489276E+03</totfact>
</mgrwt>
</event>
<event>
 9    1  0.7926126E-001  0.2714915E+03  0.7818608E-02  0.1100429E+00
         -2   -1    0    0    0  501 -0.00000000000E+00  0.00000000000E+00  0.53118001554E+03  0.53118001554E+03  0.00000000000E+00 0. -1.
          2   -1    0    0  501    0  0.00000000000E+00 -0.00000000000E+00 -0.34690523792E+02  0.34690523792E+02  0.00000000000E+00 0. -1.
         35    2    1    2    0    0  0.71054273576E-14  0.00000000000E+00  0.49648949175E+03  0.56587053933E+03  0.27149153185E+03 0.  0.
         25    2    3    3    0    0 -0.33237063309E+02 -0.17753089115E+02  0.17268385844E+03  0.21658493316E+03  0.12517764878E+03 0.  0.
         25    2    3    3    0    0  0.33237063309E+02  0.17753089115E+02  0.32380563330E+03  0.34928560617E+03  0.12542117832E+03 0.  0.
          5    1    4    4  502    0 -0.38404071052E+02 -0.60045133227E+02  0.15412818930E+03  0.16987607081E+03  0.47000000000E+01 0. -1.
         -5    1    4    4    0  502  0.51670077433E+01  0.42292044112E+02  0.18555669143E+02  0.46708862344E+02  0.47000000000E+01 0. -1.
          5    1    5    5  503    0  0.13617248151E+01 -0.41774425711E+02  0.41904503543E+02  0.59371999757E+02  0.47000000000E+01 0.  1.
         -5    1    5    5    0  503  0.31875338494E+02  0.59527514826E+02  0.28190112976E+03  0.28991360642E+03  0.47000000000E+01 0.  1.
<mgrwt>
<rscale>  0 0.27149153E+03</rscale>
<asrwt>0</asrwt>
<pdfrwt beam="1">  1        2 0.53370041E-02 0.27149153E+03</pdfrwt>
<pdfrwt beam="2">  1       -2 0.81719996E-01 0.27149153E+03</pdfrwt>
<totfact> 0.19541231E+03</totfact>
</mgrwt>
</event>
<event>
 9    1  0.7926126E-001  0.2770949E+03  0.7818608E-02  0.1097286E+00
          3   -1    0    0  501    0  0.00000000000E+00  0.00000000000E+00  0.15947154976E+03  0.15947154976E+03  0.00000000000E+00 0. -1.
         -3   -1    0    0    0  501 -0.00000000000E+00 -0.00000000000E+00 -0.12036880602E+03  0.12036880602E+03  0.00000000000E+00 0. -1.
         35    2    1    2    0    0  0.71054273576E-14  0.00000000000E+00  0.39102743744E+02  0.27984035578E+03  0.27709492986E+03 0.  0.
         25    2    3    3    0    0  0.26874465753E+02 -0.18747433009E+02 -0.31546294859E+02  0.13277324744E+03  0.12473918134E+03 0.  0.
         25    2    3    3    0    0 -0.26874465753E+02  0.18747433009E+02  0.70649038603E+02  0.14706710834E+03  0.12475473757E+03 0.  0.
          5    1    4    4  502    0 -0.32155267212E+01  0.41945367962E+02 -0.46875041529E+02  0.63159425456E+02  0.47000000000E+01 0. -1.
         -5    1    4    4    0  502  0.30089992474E+02 -0.60692800971E+02  0.15328746670E+02  0.69613821985E+02  0.47000000000E+01 0. -1.
          5    1    5    5  503    0 -0.68592606632E+02 -0.18803253761E+02  0.50040752428E+02  0.87090039271E+02  0.47000000000E+01 0. -1.
         -5    1    5    5    0  503  0.41718140879E+02  0.37550686770E+02  0.20608286175E+02  0.59977069071E+02  0.47000000000E+01 0. -1.
<mgrwt>
<rscale>  0 0.27709493E+03</rscale>
<asrwt>0</asrwt>
<pdfrwt beam="1">  1        3 0.24534085E-01 0.27709493E+03</pdfrwt>
<pdfrwt beam="2">  1       -3 0.18518278E-01 0.27709493E+03</pdfrwt>
<totfact> 0.10175841E+03</totfact>
</mgrwt>
</event>
<event>
 9    1  0.7926126E-001  0.2822711E+03  0.7818608E-02  0.1094455E+00
         -2   -1    0    0    0  501 -0.00000000000E+00  0.00000000000E+00  0.75238488333E+01  0.75238488333E+01  0.00000000000E+00 0. -1.
          2   -1    0    0  501    0  0.00000000000E+00 -0.00000000000E+00 -0.26474811608E+04  0.26474811608E+04  0.00000000000E+00 0. -1.
         35    2    1    2    0    0  0.00000000000E+00  0.00000000000E+00 -0.26399573120E+04  0.26550050096E+04  0.28227113237E+03 0.  0.
         25    2    3    3    0    0 -0.65517733660E+02 -0.14257238909E+02 -0.13812472198E+04  0.13885016725E+04  0.12488863125E+03 0.  0.
         25    2    3    3    0    0  0.65517733660E+02  0.14257238909E+02 -0.12587100922E+04  0.12665033371E+04  0.12322241844E+03 0.  0.
          5    1    4    4  502    0 -0.97450196800E+02 -0.90561741329E+01 -0.74509660535E+03  0.75151154112E+03  0.47000000000E+01 0. -1.
         -5    1    4    4    0  502  0.31932463141E+02 -0.52010647761E+01 -0.63615061441E+03  0.63699013139E+03  0.47000000000E+01 0. -1.
          5    1    5    5  503    0  0.72556399307E+02  0.48791664943E+02 -0.11160237984E+04  0.11194535570E+04  0.47000000000E+01 0.  1.
         -5    1    5    5    0  503 -0.70386656478E+01 -0.34534426034E+02 -0.14268629383E+03  0.14704978015E+03  0.47000000000E+01 0.  1.
<mgrwt>
<rscale>  0 0.28227113E+03</rscale>
<asrwt>0</asrwt>
<pdfrwt beam="1">  1        2 0.40730405E+00 0.28227113E+03</pdfrwt>
<pdfrwt beam="2">  1       -2 0.11575173E-02 0.28227113E+03</pdfrwt>
<totfact> 0.57252061E+03</totfact>
</mgrwt>
</event>
<event>
 9    1  0.7926126E-001  0.2780012E+03  0.7818608E-02  0.1096786E+00
          1   -1    0    0  501    0  0.00000000000E+00  0.00000000000E+00  0.23230480832E+03  0.23230480832E+03  0.00000000000E+00 0.  1.
         -1   -1    0    0    0  501 -0.00000000000E+00 -0.00000000000E+00 -0.83171592369E+02  0.83171592369E+02  0.00000000000E+00 0.  1.
         35    2    1    2    0    0  0.71054273576E-14 -0.35527136788E-14  0.14913321595E+03  0.31547640069E+03  0.27800115700E+03 0.  0.
         25    2    3    3    0    0 -0.24145736984E+02 -0.18676648764E+02  0.16678163075E+02  0.13072449898E+03  0.12601150616E+03 0.  0.
         25    2    3    3    0    0  0.24145736984E+02  0.18676648764E+02  0.13245505287E+03  0.18475190171E+03  0.12512829548E+03 0.  0.
          5    1    4    4  502    0  0.31993974537E+02 -0.44217275144E+02 -0.20575713555E+02  0.58516936148E+02  0.47000000000E+01 0.  1.
         -5    1    4    4    0  502 -0.56139711521E+02  0.25540626380E+02  0.37253876630E+02  0.72207562828E+02  0.47000000000E+01 0.  1.
          5    1    5    5  503    0  0.40148152758E+02 -0.10228004621E+02 -0.61846497437E+01  0.42152415599E+02  0.47000000000E+01 0. -1.
         -5    1    5    5    0  503 -0.16002415774E+02  0.28904653385E+02  0.13863970262E+03  0.14259948611E+03  0.47000000000E+01 0. -1.
<mgrwt>
<rscale>  0 0.27800116E+03</rscale>
<asrwt>0</asrwt>
<pdfrwt beam="1">  1        1 0.35739201E-01 0.27800116E+03</pdfrwt>
<pdfrwt beam="2">  1       -1 0.12795630E-01 0.27800116E+03</pdfrwt>
<totfact> 0.49867816E+03</totfact>
</mgrwt>
</event>
<event>
 9    1  0.7926126E-001  0.2627820E+03  0.7818608E-02  0.1105483E+00
          4   -1    0    0  501    0  0.00000000000E+00  0.00000000000E+00  0.88208474619E+02  0.88208474619E+02  0.00000000000E+00 0.  1.
         -4   -1    0    0    0  501 -0.00000000000E+00 -0.00000000000E+00 -0.19571362097E+03  0.19571362097E+03  0.00000000000E+00 0.  1.
         35    2    1    2    0    0  0.00000000000E+00  0.71054273576E-14 -0.10750514636E+03  0.28392209559E+03  0.26278203872E+03 0.  0.
         25    2    3    3    0    0  0.32740738588E+02 -0.25499014699E+01 -0.30357274957E+02  0.13180266438E+03  0.12398354824E+03 0.  0.
         25    2    3    3    0    0 -0.32740738588E+02  0.25499014699E+01 -0.77147871399E+02  0.15211943122E+03  0.12692544793E+03 0.  0.
          5    1    4    4  502    0  0.13872192750E+02  0.48131063460E+02 -0.52918985575E+02  0.73017436519E+02  0.47000000000E+01 0. -1.
         -5    1    4    4    0  502  0.18868545838E+02 -0.50680964930E+02  0.22561710618E+02  0.58785227857E+02  0.47000000000E+01 0. -1.
          5    1    5    5  503    0 -0.42593372985E+02 -0.29361744541E+02 -0.99091775517E+02  0.11188197996E+03  0.47000000000E+01 0. -1.
         -5    1    5    5    0  503  0.98526343967E+01  0.31911646011E+02  0.21943904119E+02  0.40237451257E+02  0.47000000000E+01 0. -1.
<mgrwt>
<rscale>  0 0.26278204E+03</rscale>
<asrwt>0</asrwt>
<pdfrwt beam="1">  1        4 0.13570535E-01 0.26278204E+03</pdfrwt>
<pdfrwt beam="2">  1       -4 0.30109788E-01 0.26278204E+03</pdfrwt>
<totfact> 0.88380511E+02</totfact>
</mgrwt>
</event>
<event>
 9    1  0.7926126E-001  0.2773807E+03  0.7818608E-02  0.1097128E+00
         -1   -1    0    0    0  501 -0.00000000000E+00  0.00000000000E+00  0.25988033320E+02  0.25988033320E+02  0.00000000000E+00 0.  1.
          1   -1    0    0  501    0  0.00000000000E+00 -0.00000000000E+00 -0.74014870737E+03  0.74014870737E+03  0.00000000000E+00 0.  1.
         35    2    1    2    0    0  0.71054273576E-14 -0.35527136788E-14 -0.71416067405E+03  0.76613674070E+03  0.27738067178E+03 0.  0.
         25    2    3    3    0    0 -0.50009901431E+02  0.12793222406E+02 -0.27450387143E+03  0.30622287415E+03  0.12552058175E+03 0.  0.
         25    2    3    3    0    0  0.50009901431E+02 -0.12793222406E+02 -0.43965680262E+03  0.45991386654E+03  0.12473172717E+03 0.  0.
          5    1    4    4  502    0 -0.47641578193E+02 -0.36605147631E+02 -0.56421276789E+02  0.82553663034E+02  0.47000000000E+01 0.  1.
         -5    1    4    4    0  502 -0.23683232381E+01  0.49398370037E+02 -0.21808259464E+03  0.22366921112E+03  0.47000000000E+01 0.  1.
          5    1    5    5  503    0 -0.22897261230E+02  0.13783461720E+02 -0.21580959027E+02  0.34671258722E+02  0.47000000000E+01 0. -1.
         -5    1    5    5    0  503  0.72907162661E+02 -0.26576684126E+02 -0.41807584360E+03  0.42524260782E+03  0.47000000000E+01 0. -1.
<mgrwt>
<rscale>  0 0.27738067E+03</rscale>
<asrwt>0</asrwt>
<pdfrwt beam="1">  1        1 0.11386904E+00 0.27738067E+03</pdfrwt>
<pdfrwt beam="2">  1       -1 0.39981588E-02 0.27738067E+03</pdfrwt>
<totfact> 0.63720066E+03</totfact>
</mgrwt>
</event>
<event>
 9    1  0.7926126E-001  0.2733149E+03  0.7818608E-02  0.1099397E+00
          2   -1    0    0  501    0  0.00000000000E+00  0.00000000000E+00  0.76573094549E+01  0.76573094549E+01  0.00000000000E+00 0. -1.
         -2   -1    0    0    0  501 -0.00000000000E+00 -0.00000000000E+00 -0.24388800571E+04  0.24388800571E+04  0.00000000000E+00 0. -1.
         35    2    1    2    0    0  0.00000000000E+00  0.00000000000E+00 -0.24312227477E+04  0.24465373666E+04  0.27331490498E+03 0.  0.
         25    2    3    3    0    0  0.45920386066E+02  0.29257903876E+02 -0.12270084734E+04  0.12346538398E+04  0.12591903566E+03 0.  0.
         25    2    3    3    0    0 -0.45920386066E+02 -0.29257903876E+02 -0.12042142743E+04  0.12118835268E+04  0.12475959814E+03 0.  0.
          5    1    4    4  502    0  0.31803749229E+02  0.51261416899E+02 -0.11720737202E+04  0.11736345713E+04  0.47000000000E+01 0.  1.
         -5    1    4    4    0  502  0.14116636837E+02 -0.22003513023E+02 -0.54934753181E+02  0.61019268498E+02  0.47000000000E+01 0.  1.
          5    1    5    5  503    0 -0.53593073346E+02  0.34267413905E+02 -0.39367839538E+03  0.39881228937E+03  0.47000000000E+01 0.  1.
         -5    1    5    5    0  503  0.76726872796E+01 -0.63525317781E+02 -0.81053587890E+03  0.81307123742E+03  0.47000000000E+01 0.  1.
<mgrwt>
<rscale>  0 0.27331490E+03</rscale>
<asrwt>0</asrwt>
<pdfrwt beam="1">  1        2 0.11780474E-02 0.27331490E+03</pdfrwt>
<pdfrwt beam="2">  1       -2 0.37521237E+00 0.27331490E+03</pdfrwt>
<totfact> 0.14818247E+02</totfact>
</mgrwt>
</event>
<event>
 9    1  0.7926126E-001  0.2732160E+03  0.7818608E-02  0.1099453E+00
         -2   -1    0    0    0  501 -0.00000000000E+00  0.00000000000E+00  0.14858609763E+02  0.14858609763E+02  0.00000000000E+00 0. -1.
          2   -1    0    0  501    0  0.00000000000E+00 -0.00000000000E+00 -0.12559547788E+04  0.12559547788E+04  0.00000000000E+00 0. -1.
         35    2    1    2    0    0 -0.35527136788E-14  0.71054273576E-14 -0.12410961691E+04  0.12708133886E+04  0.27321597273E+03 0.  0.
         25    2    3    3    0    0  0.13088594610E+02 -0.46903677517E+02 -0.54858737156E+03  0.56474541631E+03  0.12497205581E+03 0.  0.
         25    2    3    3    0    0 -0.13088594610E+02  0.46903677517E+02 -0.69250879751E+03  0.70606797228E+03  0.12881102665E+03 0.  0.
          5    1    4    4  502    0  0.32957955132E+02 -0.42511450082E+02 -0.53911615222E+03  0.54181340495E+03  0.47000000000E+01 0. -1.
         -5    1    4    4    0  502 -0.19869360522E+02 -0.43922274354E+01 -0.94712193400E+01  0.22932011363E+02  0.47000000000E+01 0. -1.
          5    1    5    5  503    0 -0.18326276352E+02 -0.26837204148E+02 -0.47804952264E+03  0.47917588005E+03  0.47000000000E+01 0.  1.
         -5    1    5    5    0  503  0.52376817416E+01  0.73740881665E+02 -0.21445927487E+03  0.22689209223E+03  0.47000000000E+01 0.  1.
<mgrwt>
<rscale>  0 0.27321597E+03</rscale>
<asrwt>0</asrwt>
<pdfrwt beam="1">  1        2 0.19322379E+00 0.27321597E+03</pdfrwt>
<pdfrwt beam="2">  1       -2 0.22859402E-02 0.27321597E+03</pdfrwt>
<totfact> 0.11770890E+04</totfact>
</mgrwt>
</event>
<event>
 9    1  0.7926126E-001  0.2697953E+03  0.7818608E-02  0.1101397E+00
         -1   -1    0    0    0  501 -0.00000000000E+00  0.00000000000E+00  0.10009295146E+02  0.10009295146E+02  0.00000000000E+00 0.  1.
          1   -1    0    0  501    0  0.00000000000E+00 -0.00000000000E+00 -0.18180475831E+04  0.18180475831E+04  0.00000000000E+00 0.  1.
         35    2    1    2    0    0 -0.71054273576E-14  0.44408920985E-14 -0.18080382879E+04  0.18280568782E+04  0.26979529165E+03 0.  0.
         25    2    3    3    0    0  0.40628551509E+02  0.79608892709E+01 -0.11003385441E+04  0.11082217593E+04  0.12528567870E+03 0.  0.
         25    2    3    3    0    0 -0.40628551509E+02 -0.79608892709E+01 -0.70769974383E+03  0.71983511888E+03  0.12493844886E+03 0.  0.
          5    1    4    4  502    0 -0.88319313731E+01  0.36976710235E+02 -0.11514638890E+03  0.12135098264E+03  0.47000000000E+01 0. -1.
         -5    1    4    4    0  502  0.49460482882E+02 -0.29015820964E+02 -0.98519215520E+03  0.98687077669E+03  0.47000000000E+01 0. -1.
          5    1    5    5  503    0 -0.68063669553E+02  0.57574121944E+01 -0.65580880103E+03  0.65937325122E+03  0.47000000000E+01 0. -1.
         -5    1    5    5    0  503  0.27435118043E+02 -0.13718301465E+02 -0.51890942798E+02  0.60461867666E+02  0.47000000000E+01 0. -1.
<mgrwt>
<rscale>  0 0.26979529E+03</rscale>
<asrwt>0</asrwt>
<pdfrwt beam="1">  1        1 0.27969992E+00 0.26979529E+03</pdfrwt>
<pdfrwt beam="2">  1       -1 0.15398899E-02 0.26979529E+03</pdfrwt>
<totfact> 0.44487147E+03</totfact>
</mgrwt>
</event>
<event>
 9    1  0.7926126E-001  0.2743213E+03  0.7818608E-02  0.1098832E+00
          2   -1    0    0  501    0  0.00000000000E+00  0.00000000000E+00  0.75345433207E+02  0.75345433207E+02  0.00000000000E+00 0. -1.
         -2   -1    0    0    0  501 -0.00000000000E+00 -0.00000000000E+00 -0.24969056567E+03  0.24969056567E+03  0.00000000000E+00 0. -1.
         35    2    1    2    0    0  0.71054273576E-14 -0.71054273576E-14 -0.17434513246E+03  0.32503599887E+03  0.27432129949E+03 0.  0.
         25    2    3    3    0    0 -0.40721678077E+02  0.37142688375E+02 -0.64173000058E+02  0.14973383136E+03  0.12354841947E+03 0.  0.
         25    2    3    3    0    0  0.40721678077E+02 -0.37142688375E+02 -0.11017213240E+03  0.17530216751E+03  0.12472015399E+03 0.  0.
          5    1    4    4  502    0 -0.17110746163E+02  0.35939305201E+02 -0.99327346784E+02  0.10710939787E+03  0.47000000000E+01 0. -1.
         -5    1    4    4    0  502 -0.23610931914E+02  0.12033831742E+01  0.35154346726E+02  0.42624433493E+02  0.47000000000E+01 0. -1.
          5    1    5    5  503    0 -0.35273492655E+02 -0.22165097903E+02 -0.17353168917E+01  0.41959649354E+02  0.47000000000E+01 0.  1.
         -5    1    5    5    0  503  0.75995170733E+02 -0.14977590472E+02 -0.10843681551E+03  0.13334251816E+03  0.47000000000E+01 0.  1.
<mgrwt>
<rscale>  0 0.27432130E+03</rscale>
<asrwt>0</asrwt>
<pdfrwt beam="1">  1        2 0.11591605E-01 0.27432130E+03</pdfrwt>
<pdfrwt beam="2">  1       -2 0.38413933E-01 0.27432130E+03</pdfrwt>
<totfact> 0.34170802E+03</totfact>
</mgrwt>
</event>
<event>
 9    1  0.7926126E-001  0.2771681E+03  0.7818608E-02  0.1097246E+00
          1   -1    0    0  501    0  0.00000000000E+00  0.00000000000E+00  0.67237938201E+03  0.67237938201E+03  0.00000000000E+00 0. -1.
         -1   -1    0    0    0  501 -0.00000000000E+00 -0.00000000000E+00 -0.28563538259E+02  0.28563538259E+02  0.00000000000E+00 0. -1.
         35    2    1    2    0    0  0.71054273576E-14 -0.71054273576E-14  0.64381584375E+03  0.70094292027E+03  0.27716806600E+03 0.  0.
         25    2    3    3    0    0 -0.25994254159E+02 -0.37773822335E+02  0.22488488840E+03  0.26132642267E+03  0.12496288750E+03 0.  0.
         25    2    3    3    0    0  0.25994254159E+02  0.37773822335E+02  0.41893095535E+03  0.43961649760E+03  0.12512776154E+03 0.  0.
          5    1    4    4  502    0  0.35551137159E+02 -0.56874393930E+02  0.13258234763E+03  0.14865647965E+03  0.47000000000E+01 0. -1.
         -5    1    4    4    0  502 -0.61545391318E+02  0.19100571595E+02  0.92302540768E+02  0.11266994302E+03  0.47000000000E+01 0. -1.
          5    1    5    5  503    0  0.79288430368E+01 -0.25543531215E+02  0.31710427115E+03  0.31826490117E+03  0.47000000000E+01 0. -1.
         -5    1    5    5    0  503  0.18065411122E+02  0.63317353550E+02  0.10182668420E+03  0.12135159643E+03  0.47000000000E+01 0. -1.
<mgrwt>
<rscale>  0 0.27716807E+03</rscale>
<asrwt>0</asrwt>
<pdfrwt beam="1">  1        1 0.10344297E+00 0.27716807E+03</pdfrwt>
<pdfrwt beam="2">  1       -1 0.43943910E-02 0.27716807E+03</pdfrwt>
<totfact> 0.63709681E+03</totfact>
</mgrwt>
</event>
<event>
 9    1  0.7926126E-001  0.2769226E+03  0.7818608E-02  0.1097382E+00
         -1   -1    0    0    0  501 -0.00000000000E+00  0.00000000000E+00  0.14689350534E+03  0.14689350534E+03  0.00000000000E+00 0.  1.
          1   -1    0    0  501    0  0.00000000000E+00 -0.00000000000E+00 -0.13051314303E+03  0.13051314303E+03  0.00000000000E+00 0.  1.
         35    2    1    2    0    0  0.35527136788E-14  0.00000000000E+00  0.16380362309E+02  0.27740664837E+03  0.27692261065E+03 0.  0.
         25    2    3    3    0    0 -0.29339359141E+02  0.25689773830E+02 -0.40893983797E+02  0.13666283114E+03  0.12443331158E+03 0.  0.
         25    2    3    3    0    0  0.29339359141E+02 -0.25689773830E+02  0.57274346106E+02  0.14074381722E+03  0.12250595451E+03 0.  0.
          5    1    4    4  502    0 -0.11451019118E+01  0.10061720175E+01 -0.81245158786E+02  0.81395266857E+02  0.47000000000E+01 0.  1.
         -5    1    4    4    0  502 -0.28194257229E+02  0.24683601812E+02  0.40351174989E+02  0.55267564286E+02  0.47000000000E+01 0.  1.
          5    1    5    5  503    0  0.41304417310E+02  0.29608336099E+02  0.65865261926E+02  0.83324853342E+02  0.47000000000E+01 0.  1.
         -5    1    5    5    0  503 -0.11965058168E+02 -0.55298109929E+02 -0.85909158201E+01  0.57418963883E+02  0.47000000000E+01 0.  1.
<mgrwt>
<rscale>  0 0.27692261E+03</rscale>
<asrwt>0</asrwt>
<pdfrwt beam="1">  1        1 0.20078945E-01 0.27692261E+03</pdfrwt>
<pdfrwt beam="2">  1       -1 0.22599001E-01 0.27692261E+03</pdfrwt>
<totfact> 0.41630416E+03</totfact>
</mgrwt>
</event>
<event>
 9    1  0.7926126E-001  0.2728530E+03  0.7818608E-02  0.1099658E+00
          2   -1    0    0  501    0  0.00000000000E+00  0.00000000000E+00  0.13582594333E+03  0.13582594333E+03  0.00000000000E+00 0.  1.
         -2   -1    0    0    0  501 -0.00000000000E+00 -0.00000000000E+00 -0.13702972925E+03  0.13702972925E+03  0.00000000000E+00 0.  1.
         35    2    1    2    0    0  0.17763568394E-14  0.00000000000E+00 -0.12037859128E+01  0.27285567258E+03  0.27285301713E+03 0.  0.
         25    2    3    3    0    0 -0.30613621723E+01  0.33443462648E+01 -0.55775282630E+02  0.13700165594E+03  0.12505204911E+03 0.  0.
         25    2    3    3    0    0  0.30613621723E+01 -0.33443462648E+01  0.54571496717E+02  0.13585401665E+03  0.12432903520E+03 0.  0.
          5    1    4    4  502    0 -0.15882927525E+02 -0.55514735934E+02 -0.51274549692E+01  0.58159557142E+02  0.47000000000E+01 0. -1.
         -5    1    4    4    0  502  0.12821565353E+02  0.58859082198E+02 -0.50647827661E+02  0.78842098793E+02  0.47000000000E+01 0. -1.
          5    1    5    5  503    0 -0.29851745916E+02  0.46624916630E+02  0.51496660812E+02  0.75756225222E+02  0.47000000000E+01 0. -1.
         -5    1    5    5    0  503  0.32913108089E+02 -0.49969262895E+02  0.30748359050E+01  0.60097791425E+02  0.47000000000E+01 0. -1.
<mgrwt>
<rscale>  0 0.27285302E+03</rscale>
<asrwt>0</asrwt>
<pdfrwt beam="1">  1        2 0.20896299E-01 0.27285302E+03</pdfrwt>
<pdfrwt beam="2">  1       -2 0.21081497E-01 0.27285302E+03</pdfrwt>
<totfact> 0.50280124E+03</totfact>
</mgrwt>
</event>
<event>
 9    1  0.7926126E-001  0.2746821E+03  0.7818608E-02  0.1098629E+00
          1   -1    0    0  501    0  0.00000000000E+00  0.00000000000E+00  0.14507514728E+04  0.14507514728E+04  0.00000000000E+00 0. -1.
         -1   -1    0    0    0  501 -0.00000000000E+00 -0.00000000000E+00 -0.13001930066E+02  0.13001930066E+02  0.00000000000E+00 0. -1.
         35    2    1    2    0    0 -0.71054273576E-14  0.00000000000E+00  0.14377495427E+04  0.14637534028E+04  0.27468213769E+03 0.  0.
         25    2    3    3    0    0  0.11475654910E+02 -0.62457593525E+00  0.10153857758E+04  0.10231253902E+04  0.12508081287E+03 0.  0.
         25    2    3    3    0    0 -0.11475654910E+02  0.62457593525E+00  0.42236376695E+03  0.44062801262E+03  0.12501925101E+03 0.  0.
          5    1    4    4  502    0  0.33490433322E+02  0.50202872602E+02  0.72104387679E+03  0.72358019583E+03  0.47000000000E+01 0. -1.
         -5    1    4    4    0  502 -0.22014778412E+02 -0.50827448537E+02  0.29434189898E+03  0.29954519440E+03  0.47000000000E+01 0. -1.
          5    1    5    5  503    0 -0.49792341463E+02 -0.43548828671E+02  0.20315104662E+03  0.21370122950E+03  0.47000000000E+01 0.  1.
         -5    1    5    5    0  503  0.38316686554E+02  0.44173404606E+02  0.21921272033E+03  0.22692678312E+03  0.47000000000E+01 0.  1.
<mgrwt>
<rscale>  0 0.27468214E+03</rscale>
<asrwt>0</asrwt>
<pdfrwt beam="1">  1        1 0.22319241E+00 0.27468214E+03</pdfrwt>
<pdfrwt beam="2">  1       -1 0.20002981E-02 0.27468214E+03</pdfrwt>
<totfact> 0.52905303E+03</totfact>
</mgrwt>
</event>
<event>
 9    1  0.7926126E-001  0.2720507E+03  0.7818608E-02  0.1100112E+00
         -2   -1    0    0    0  501 -0.00000000000E+00  0.00000000000E+00  0.17039884465E+02  0.17039884465E+02  0.00000000000E+00 0. -1.
          2   -1    0    0  501    0  0.00000000000E+00 -0.00000000000E+00 -0.10858582475E+04  0.10858582475E+04  0.00000000000E+00 0. -1.
         35    2    1    2    0    0 -0.71054273576E-14  0.71054273576E-14 -0.10688183631E+04  0.11028981320E+04  0.27205072383E+03 0.  0.
         25    2    3    3    0    0  0.34540118156E+02 -0.21524304343E+02 -0.44596857036E+03  0.46684214292E+03  0.13189884465E+03 0.  0.
         25    2    3    3    0    0 -0.34540118156E+02  0.21524304343E+02 -0.62284979273E+03  0.63605598909E+03  0.12234803441E+03 0.  0.
          5    1    4    4  502    0 -0.82744705153E+01  0.27152933552E+02 -0.17940605874E+02  0.33907285381E+02  0.47000000000E+01 0.  1.
         -5    1    4    4    0  502  0.42814588671E+02 -0.48677237895E+02 -0.42802796448E+03  0.43293485754E+03  0.47000000000E+01 0.  1.
          5    1    5    5  503    0 -0.95104096436E+01  0.71710965791E+02 -0.33436440117E+03  0.34213236222E+03  0.47000000000E+01 0. -1.
         -5    1    5    5    0  503 -0.25029708512E+02 -0.50186661449E+02 -0.28848539156E+03  0.29392362688E+03  0.47000000000E+01 0. -1.
<mgrwt>
<rscale>  0 0.27205072E+03</rscale>
<asrwt>0</asrwt>
<pdfrwt beam="1">  1        2 0.16705513E+00 0.27205072E+03</pdfrwt>
<pdfrwt beam="2">  1       -2 0.26215204E-02 0.27205072E+03</pdfrwt>
<totfact> 0.12032947E+04</totfact>
</mgrwt>
</event>
<event>
 9    1  0.7926126E-001  0.2720482E+03  0.7818608E-02  0.1100113E+00
         -3   -1    0    0    0  501 -0.00000000000E+00  0.00000000000E+00  0.41190425643E+03  0.41190425643E+03  0.00000000000E+00 0.  1.
          3   -1    0    0  501    0  0.00000000000E+00 -0.00000000000E+00 -0.44919562269E+02  0.44919562269E+02  0.00000000000E+00 0.  1.
         35    2    1    2    0    0  0.00000000000E+00  0.00000000000E+00  0.36698469416E+03  0.45682381869E+03  0.27204822290E+03 0.  0.
         25    2    3    3    0    0 -0.25853589836E+02 -0.43673966507E+02  0.20303138827E+03  0.24341472900E+03  0.12431074859E+03 0.  0.
         25    2    3    3    0    0  0.25853589836E+02  0.43673966507E+02  0.16395330589E+03  0.21340908969E+03  0.12683426033E+03 0.  0.
          5    1    4    4  502    0  0.46801797811E+01  0.70438910827E+01 -0.14773055912E+02  0.17659378963E+02  0.47000000000E+01 0.  1.
         -5    1    4    4    0  502 -0.30533769617E+02 -0.50717857589E+02  0.21780444418E+03  0.22575535004E+03  0.47000000000E+01 0.  1.
          5    1    5    5  503    0  0.55892797937E+02  0.47147231980E+02  0.35610353450E+02  0.81468114115E+02  0.47000000000E+01 0. -1.
         -5    1    5    5    0  503 -0.30039208101E+02 -0.34732654735E+01  0.12834295244E+03  0.13194097558E+03  0.47000000000E+01 0. -1.
<mgrwt>
<rscale>  0 0.27204822E+03</rscale>
<asrwt>0</asrwt>
<pdfrwt beam="1">  1        3 0.69107021E-02 0.27204822E+03</pdfrwt>
<pdfrwt beam="2">  1       -3 0.63369883E-01 0.27204822E+03</pdfrwt>
<totfact> 0.84445889E+02</totfact>
</mgrwt>
</event>
<event>
 9    1  0.7926126E-001  0.2998189E+03  0.7818608E-02  0.1085331E+00
          2   -1    0    0  501    0  0.00000000000E+00  0.00000000000E+00  0.18800157740E+04  0.18800157740E+04  0.00000000000E+00 0. -1.
         -2   -1    0    0    0  501 -0.00000000000E+00 -0.00000000000E+00 -0.11953537767E+02  0.11953537767E+02  0.00000000000E+00 0. -1.
         35    2    1    2    0    0  0.00000000000E+00  0.71054273576E-14  0.18680622363E+04  0.18919693118E+04  0.29981887571E+03 0.  0.
         25    2    3    3    0    0 -0.36323539930E+02  0.55361439249E+02  0.12741289067E+04  0.12818690096E+04  0.12409431201E+03 0.  0.
         25    2    3    3    0    0  0.36323539930E+02 -0.55361439249E+02  0.59393332952E+03  0.61010030220E+03  0.12280590505E+03 0.  0.
          5    1    4    4  502    0  0.28894502688E+02  0.63677312082E+02  0.49184636461E+03  0.49681448121E+03  0.47000000000E+01 0. -1.
         -5    1    4    4    0  502 -0.65218042618E+02 -0.83158728326E+01  0.78228254213E+03  0.78505452839E+03  0.47000000000E+01 0. -1.
          5    1    5    5  503    0 -0.17437096020E+02 -0.66237751350E+01  0.10043556974E+02  0.21699994271E+02  0.47000000000E+01 0. -1.
         -5    1    5    5    0  503  0.53760635951E+02 -0.48737664114E+02  0.58388977255E+03  0.58840030792E+03  0.47000000000E+01 0. -1.
<mgrwt>
<rscale>  0 0.29981888E+03</rscale>
<asrwt>0</asrwt>
<pdfrwt beam="1">  1        2 0.28923296E+00 0.29981888E+03</pdfrwt>
<pdfrwt beam="2">  1       -2 0.18390073E-02 0.29981888E+03</pdfrwt>
<totfact> 0.75219257E+03</totfact>
</mgrwt>
</event>
<event>
 9    1  0.7926126E-001  0.2761652E+03  0.7818608E-02  0.1097802E+00
          4   -1    0    0  501    0  0.00000000000E+00  0.00000000000E+00  0.19222909811E+02  0.19222909811E+02  0.00000000000E+00 0.  1.
         -4   -1    0    0    0  501 -0.00000000000E+00 -0.00000000000E+00 -0.99187952182E+03  0.99187952182E+03  0.00000000000E+00 0.  1.
         35    2    1    2    0    0  0.00000000000E+00  0.00000000000E+00 -0.97265661201E+03  0.10111024316E+04  0.27616524467E+03 0.  0.
         25    2    3    3    0    0 -0.43647720466E+02  0.18344900500E+02 -0.61908583602E+03  0.63337490944E+03  0.12511932175E+03 0.  0.
         25    2    3    3    0    0  0.43647720466E+02 -0.18344900500E+02 -0.35357077599E+03  0.37772752218E+03  0.12419391494E+03 0.  0.
          5    1    4    4  502    0 -0.74344507811E+02  0.40303809497E+02 -0.29049993638E+03  0.30259511883E+03  0.47000000000E+01 0. -1.
         -5    1    4    4    0  502  0.30696787345E+02 -0.21958908997E+02 -0.32858589964E+03  0.33077979062E+03  0.47000000000E+01 0. -1.
          5    1    5    5  503    0  0.58399575778E+02  0.21184982977E+02 -0.82651149276E+02  0.10350177019E+03  0.47000000000E+01 0.  1.
         -5    1    5    5    0  503 -0.14751855312E+02 -0.39529883477E+02 -0.27091962671E+03  0.27422575200E+03  0.47000000000E+01 0.  1.
<mgrwt>
<rscale>  0 0.27616524E+03</rscale>
<asrwt>0</asrwt>
<pdfrwt beam="1">  1        4 0.29573706E-02 0.27616524E+03</pdfrwt>
<pdfrwt beam="2">  1       -4 0.15259686E+00 0.27616524E+03</pdfrwt>
<totfact> 0.31251111E+02</totfact>
</mgrwt>
</event>
<event>
 9    1  0.7926126E-001  0.2747790E+03  0.7818608E-02  0.1098575E+00
          2   -1    0    0  501    0  0.00000000000E+00  0.00000000000E+00  0.32578642056E+03  0.32578642056E+03  0.00000000000E+00 0.  1.
         -2   -1    0    0    0  501 -0.00000000000E+00 -0.00000000000E+00 -0.57939417824E+02  0.57939417824E+02  0.00000000000E+00 0.  1.
         35    2    1    2    0    0  0.00000000000E+00  0.00000000000E+00  0.26784700273E+03  0.38372583838E+03  0.27477900605E+03 0.  0.
         25    2    3    3    0    0 -0.22962922481E+01  0.56430634462E+02  0.14337119185E+03  0.19837717758E+03  0.12493404848E+03 0.  0.
         25    2    3    3    0    0  0.22962922481E+01 -0.56430634462E+02  0.12447581088E+03  0.18534866080E+03  0.12518070578E+03 0.  0.
          5    1    4    4  502    0 -0.21281572847E+02  0.88469660031E+02  0.66405081519E+02  0.11274533667E+03  0.47000000000E+01 0. -1.
         -5    1    4    4    0  502  0.18985280599E+02 -0.32039025569E+02  0.76966110334E+02  0.85631840916E+02  0.47000000000E+01 0. -1.
          5    1    5    5  503    0  0.42971711237E+02 -0.60748742606E+02  0.12338288889E+03  0.14416103831E+03  0.47000000000E+01 0. -1.
         -5    1    5    5    0  503 -0.40675418989E+02  0.43181081436E+01  0.10929219906E+01  0.41187622490E+02  0.47000000000E+01 0. -1.
<mgrwt>
<rscale>  0 0.27477901E+03</rscale>
<asrwt>0</asrwt>
<pdfrwt beam="1">  1        2 0.50120986E-01 0.27477901E+03</pdfrwt>
<pdfrwt beam="2">  1       -2 0.89137568E-02 0.27477901E+03</pdfrwt>
<totfact> 0.79073127E+03</totfact>
</mgrwt>
</event>
<event>
 9    1  0.7926126E-001  0.2769022E+03  0.7818608E-02  0.1097393E+00
          2   -1    0    0  501    0  0.00000000000E+00  0.00000000000E+00  0.75189232890E+03  0.75189232890E+03  0.00000000000E+00 0. -1.
         -2   -1    0    0    0  501 -0.00000000000E+00 -0.00000000000E+00 -0.25493944681E+02  0.25493944681E+02  0.00000000000E+00 0. -1.
         35    2    1    2    0    0 -0.71054273576E-14  0.00000000000E+00  0.72639838422E+03  0.77738627358E+03  0.27690215917E+03 0.  0.
         25    2    3    3    0    0 -0.17026307622E+02 -0.58988940531E+01  0.20308898122E+03  0.23908010119E+03  0.12485779267E+03 0.  0.
         25    2    3    3    0    0  0.17026307622E+02  0.58988940531E+01  0.52330940300E+03  0.53830617239E+03  0.12488439399E+03 0.  0.
          5    1    4    4  502    0 -0.65929372681E+02  0.15905122539E+02  0.14376042850E+03  0.15902454498E+03  0.47000000000E+01 0.  1.
         -5    1    4    4    0  502  0.48903065060E+02 -0.21804016592E+02  0.59328552726E+02  0.80055556211E+02  0.47000000000E+01 0.  1.
          5    1    5    5  503    0 -0.12035129579E+02 -0.70402247210E+01  0.72335983723E+00  0.14731678708E+02  0.47000000000E+01 0. -1.
         -5    1    5    5    0  503  0.29061437200E+02  0.12939118774E+02  0.52258604316E+03  0.52357449368E+03  0.47000000000E+01 0. -1.
<mgrwt>
<rscale>  0 0.27690216E+03</rscale>
<asrwt>0</asrwt>
<pdfrwt beam="1">  1        2 0.11567573E+00 0.27690216E+03</pdfrwt>
<pdfrwt beam="2">  1       -2 0.39221459E-02 0.27690216E+03</pdfrwt>
<totfact> 0.10830714E+04</totfact>
</mgrwt>
</event>
<event>
 9    1  0.7926126E-001  0.2792401E+03  0.7818608E-02  0.1096105E+00
         -2   -1    0    0    0  501 -0.00000000000E+00  0.00000000000E+00  0.11688837718E+04  0.11688837718E+04  0.00000000000E+00 0. -1.
          2   -1    0    0  501    0  0.00000000000E+00 -0.00000000000E+00 -0.16677237079E+02  0.16677237079E+02  0.00000000000E+00 0. -1.
         35    2    1    2    0    0  0.00000000000E+00 -0.17763568394E-14  0.11522065347E+04  0.11855610088E+04  0.27924005285E+03 0.  0.
         25    2    3    3    0    0  0.93550269141E+01  0.46911378220E+01  0.83888387101E+03  0.84800626124E+03  0.12360803679E+03 0.  0.
         25    2    3    3    0    0 -0.93550269141E+01 -0.46911378220E+01  0.31332266367E+03  0.33755474759E+03  0.12515028068E+03 0.  0.
          5    1    4    4  502    0 -0.53355436929E+02 -0.75750835334E+01  0.25869431987E+03  0.26428966244E+03  0.47000000000E+01 0.  1.
         -5    1    4    4    0  502  0.62710463843E+02  0.12266221355E+02  0.58018955114E+03  0.58371659880E+03  0.47000000000E+01 0.  1.
          5    1    5    5  503    0  0.38422583380E+02  0.40294058480E+02  0.10296263073E+03  0.11714648688E+03  0.47000000000E+01 0.  1.
         -5    1    5    5    0  503 -0.47777610294E+02 -0.44985196302E+02  0.21036003294E+03  0.22040826071E+03  0.47000000000E+01 0.  1.
<mgrwt>
<rscale>  0 0.27924005E+03</rscale>
<asrwt>0</asrwt>
<pdfrwt beam="1">  1        2 0.25657297E-02 0.27924005E+03</pdfrwt>
<pdfrwt beam="2">  1       -2 0.17982821E+00 0.27924005E+03</pdfrwt>
<totfact> 0.75789872E+02</totfact>
</mgrwt>
</event>
<event>
 9    1  0.7926126E-001  0.2781595E+03  0.7818608E-02  0.1096698E+00
          1   -1    0    0  501    0  0.00000000000E+00  0.00000000000E+00  0.12226825652E+04  0.12226825652E+04  0.00000000000E+00 0. -1.
         -1   -1    0    0    0  501 -0.00000000000E+00 -0.00000000000E+00 -0.15820282290E+02  0.15820282290E+02  0.00000000000E+00 0. -1.
         35    2    1    2    0    0  0.00000000000E+00  0.71054273576E-14  0.12068622829E+04  0.12385028475E+04  0.27815954654E+03 0.  0.
         25    2    3    3    0    0  0.12874087573E+02 -0.47511426098E+02  0.42400388271E+03  0.44454496814E+03  0.12416866918E+03 0.  0.
         25    2    3    3    0    0 -0.12874087573E+02  0.47511426098E+02  0.78285840023E+03  0.79395787938E+03  0.12279560936E+03 0.  0.
          5    1    4    4  502    0  0.56262733170E+02 -0.17085494156E+01  0.10401940610E+03  0.11836613169E+03  0.47000000000E+01 0.  1.
         -5    1    4    4    0  502 -0.43388645598E+02 -0.45802876683E+02  0.31998447661E+03  0.32617883645E+03  0.47000000000E+01 0.  1.
          5    1    5    5  503    0  0.47503650367E+02  0.90850212808E+01  0.16666185507E+03  0.17360126251E+03  0.47000000000E+01 0.  1.
         -5    1    5    5    0  503 -0.60377737939E+02  0.38426404817E+02  0.61619654516E+03  0.62035661687E+03  0.47000000000E+01 0.  1.
<mgrwt>
<rscale>  0 0.27815955E+03</rscale>
<asrwt>0</asrwt>
<pdfrwt beam="1">  1        1 0.18810494E+00 0.27815955E+03</pdfrwt>
<pdfrwt beam="2">  1       -1 0.24338905E-02 0.27815955E+03</pdfrwt>
<totfact> 0.56721712E+03</totfact>
</mgrwt>
</event>
<event>
 9    1  0.7926126E-001  0.2812612E+03  0.7818608E-02  0.1095002E+00
          1   -1    0    0  501    0  0.00000000000E+00  0.00000000000E+00  0.52568313295E+02  0.52568313295E+02  0.00000000000E+00 0.  1.
         -1   -1    0    0    0  501 -0.00000000000E+00 -0.00000000000E+00 -0.37621446626E+03  0.37621446626E+03  0.00000000000E+00 0.  1.
         35    2    1    2    0    0  0.71054273576E-14 -0.71054273576E-14 -0.32364615296E+03  0.42878277955E+03  0.28126115927E+03 0.  0.
         25    2    3    3    0    0 -0.49599883375E+02  0.41488187494E+02 -0.17200135585E+03  0.22185295063E+03  0.12430948136E+03 0.  0.
         25    2    3    3    0    0  0.49599883375E+02 -0.41488187494E+02 -0.15164479711E+03  0.20692982892E+03  0.12506954655E+03 0.  0.
          5    1    4    4  502    0  0.10866510643E+02  0.29431558427E+02 -0.15430886202E+03  0.15753606756E+03  0.47000000000E+01 0. -1.
         -5    1    4    4    0  502 -0.60466394018E+02  0.12056629068E+02 -0.17692493834E+02  0.64316883072E+02  0.47000000000E+01 0. -1.
          5    1    5    5  503    0 -0.25520178170E+02  0.27061737003E+02 -0.54955156402E+02  0.66526508390E+02  0.47000000000E+01 0.  1.
         -5    1    5    5    0  503  0.75120061545E+02 -0.68549924497E+02 -0.96689640706E+02  0.14040332053E+03  0.47000000000E+01 0.  1.
<mgrwt>
<rscale>  0 0.28126116E+03</rscale>
<asrwt>0</asrwt>
<pdfrwt beam="1">  1        1 0.80874328E-02 0.28126116E+03</pdfrwt>
<pdfrwt beam="2">  1       -1 0.57879149E-01 0.28126116E+03</pdfrwt>
<totfact> 0.26627636E+03</totfact>
</mgrwt>
</event>
<event>
 9    1  0.7926126E-001  0.2765951E+03  0.7818608E-02  0.1097563E+00
         -1   -1    0    0    0  501 -0.00000000000E+00  0.00000000000E+00  0.34621719793E+02  0.34621719793E+02  0.00000000000E+00 0.  1.
          1   -1    0    0  501    0  0.00000000000E+00 -0.00000000000E+00 -0.55243374526E+03  0.55243374526E+03  0.00000000000E+00 0.  1.
         35    2    1    2    0    0 -0.88817841970E-15 -0.71054273576E-14 -0.51781202546E+03  0.58705546505E+03  0.27659505659E+03 0.  0.
         25    2    3    3    0    0  0.55180939819E+01 -0.57570174573E+02 -0.28733762420E+03  0.31842057294E+03  0.12443462795E+03 0.  0.
         25    2    3    3    0    0 -0.55180939819E+01  0.57570174573E+02 -0.23047440126E+03  0.26863489211E+03  0.12530555158E+03 0.  0.
          5    1    4    4  502    0 -0.38882638681E+01 -0.71269837452E+02 -0.29191762735E+03  0.30055365492E+03  0.47000000000E+01 0.  1.
         -5    1    4    4    0  502  0.94063578500E+01  0.13699662879E+02  0.45800031492E+01  0.17866918029E+02  0.47000000000E+01 0.  1.
          5    1    5    5  503    0  0.45695893712E+02  0.52185588240E+02 -0.19194687026E+03  0.20414980119E+03  0.47000000000E+01 0.  1.
         -5    1    5    5    0  503 -0.51213987694E+02  0.53845863329E+01 -0.38527531005E+02  0.64485090919E+02  0.47000000000E+01 0.  1.
<mgrwt>
<rscale>  0 0.27659506E+03</rscale>
<asrwt>0</asrwt>
<pdfrwt beam="1">  1        1 0.84989810E-01 0.27659506E+03</pdfrwt>
<pdfrwt beam="2">  1       -1 0.53264182E-02 0.27659506E+03</pdfrwt>
<totfact> 0.62854562E+03</totfact>
</mgrwt>
</event>
<event>
 9    1  0.7926126E-001  0.2758566E+03  0.7818608E-02  0.1097974E+00
         -2   -1    0    0    0  501 -0.00000000000E+00  0.00000000000E+00  0.15937572658E+02  0.15937572658E+02  0.00000000000E+00 0.  1.
          2   -1    0    0  501    0  0.00000000000E+00 -0.00000000000E+00 -0.11936705657E+04  0.11936705657E+04  0.00000000000E+00 0.  1.
         35    2    1    2    0    0  0.71054273576E-14 -0.35527136788E-14 -0.11777329930E+04  0.12096081383E+04  0.27585656686E+03 0.  0.
         25    2    3    3    0    0  0.46194490815E+02  0.16638142446E+02 -0.44948110102E+03  0.46902874710E+03  0.12467536513E+03 0.  0.
         25    2    3    3    0    0 -0.46194490815E+02 -0.16638142446E+02 -0.72825189198E+03  0.74057939121E+03  0.12528470676E+03 0.  0.
          5    1    4    4  502    0  0.68174687689E+02 -0.10436439979E+02 -0.41144448820E+03  0.41721141426E+03  0.47000000000E+01 0. -1.
         -5    1    4    4    0  502 -0.21980196875E+02  0.27074582425E+02 -0.38036612822E+02  0.51817332844E+02  0.47000000000E+01 0. -1.
          5    1    5    5  503    0  0.40800507448E+01 -0.20163325143E+02 -0.15875360783E+02  0.26406884990E+02  0.47000000000E+01 0.  1.
         -5    1    5    5    0  503 -0.50274541560E+02  0.35251826969E+01 -0.71237653120E+03  0.71417250622E+03  0.47000000000E+01 0.  1.
<mgrwt>
<rscale>  0 0.27585657E+03</rscale>
<asrwt>0</asrwt>
<pdfrwt beam="1">  1        2 0.18364166E+00 0.27585657E+03</pdfrwt>
<pdfrwt beam="2">  1       -2 0.24519338E-02 0.27585657E+03</pdfrwt>
<totfact> 0.11510311E+04</totfact>
</mgrwt>
</event>
<event>
 9    1  0.7926126E-001  0.2779469E+03  0.7818608E-02  0.1096816E+00
         -2   -1    0    0    0  501 -0.00000000000E+00  0.00000000000E+00  0.16151056004E+02  0.16151056004E+02  0.00000000000E+00 0.  1.
          2   -1    0    0  501    0  0.00000000000E+00 -0.00000000000E+00 -0.11958116213E+04  0.11958116213E+04  0.00000000000E+00 0.  1.
         35    2    1    2    0    0  0.00000000000E+00  0.35527136788E-14 -0.11796605653E+04  0.12119626773E+04  0.27794690476E+03 0.  0.
         25    2    3    3    0    0 -0.37292456488E+02  0.14611952887E+02 -0.79017967513E+03  0.80103042359E+03  0.12514625068E+03 0.  0.
         25    2    3    3    0    0  0.37292456488E+02 -0.14611952887E+02 -0.38948089019E+03  0.41093225373E+03  0.12476264207E+03 0.  0.
          5    1    4    4  502    0  0.35543118989E+02  0.82077558464E+01 -0.92960062699E+02  0.99971715102E+02  0.47000000000E+01 0. -1.
         -5    1    4    4    0  502 -0.72835575478E+02  0.64041970407E+01 -0.69721961243E+03  0.70105870849E+03  0.47000000000E+01 0. -1.
          5    1    5    5  503    0 -0.27228892645E+02 -0.36120434885E+02 -0.64766403451E+02  0.79138330959E+02  0.47000000000E+01 0.  1.
         -5    1    5    5    0  503  0.64521349133E+02  0.21508481998E+02 -0.32471448674E+03  0.33179392277E+03  0.47000000000E+01 0.  1.
<mgrwt>
<rscale>  0 0.27794690E+03</rscale>
<asrwt>0</asrwt>
<pdfrwt beam="1">  1        2 0.18397107E+00 0.27794690E+03</pdfrwt>
<pdfrwt beam="2">  1       -2 0.24847771E-02 0.27794690E+03</pdfrwt>
<totfact> 0.11256588E+04</totfact>
</mgrwt>
</event>
<event>
 9    1  0.7926126E-001  0.2748330E+03  0.7818608E-02  0.1098545E+00
          2   -1    0    0  501    0  0.00000000000E+00  0.00000000000E+00  0.19479023192E+04  0.19479023192E+04  0.00000000000E+00 0. -1.
         -2   -1    0    0    0  501 -0.00000000000E+00 -0.00000000000E+00 -0.96941658245E+01  0.96941658245E+01  0.00000000000E+00 0. -1.
         35    2    1    2    0    0  0.00000000000E+00  0.00000000000E+00  0.19382081534E+04  0.19575964851E+04  0.27483295357E+03 0.  0.
         25    2    3    3    0    0  0.35304688786E+02  0.32688646031E+02  0.12028310258E+04  0.12102940051E+04  0.12527622957E+03 0.  0.
         25    2    3    3    0    0 -0.35304688786E+02 -0.32688646031E+02  0.73537712765E+03  0.74730247993E+03  0.12396171993E+03 0.  0.
          5    1    4    4  502    0  0.77115277789E+02  0.37634442521E+02  0.62030585553E+03  0.62623043820E+03  0.47000000000E+01 0.  1.
         -5    1    4    4    0  502 -0.41810589003E+02 -0.49457964898E+01  0.58252517024E+03  0.58406356693E+03  0.47000000000E+01 0.  1.
          5    1    5    5  503    0 -0.79020681848E+01 -0.22361524782E+02  0.70291870161E+03  0.70333439525E+03  0.47000000000E+01 0.  1.
         -5    1    5    5    0  503 -0.27402620601E+02 -0.10327121250E+02  0.32458426042E+02  0.43968084678E+02  0.47000000000E+01 0.  1.
<mgrwt>
<rscale>  0 0.27483295E+03</rscale>
<asrwt>0</asrwt>
<pdfrwt beam="1">  1        2 0.29967697E+00 0.27483295E+03</pdfrwt>
<pdfrwt beam="2">  1       -2 0.14914117E-02 0.27483295E+03</pdfrwt>
<totfact> 0.94149993E+03</totfact>
</mgrwt>
</event>
<event>
 9    1  0.7926126E-001  0.2749932E+03  0.7818608E-02  0.1098455E+00
          2   -1    0    0  501    0  0.00000000000E+00  0.00000000000E+00  0.39401531973E+03  0.39401531973E+03  0.00000000000E+00 0. -1.
         -2   -1    0    0    0  501 -0.00000000000E+00 -0.00000000000E+00 -0.47981164623E+02  0.47981164623E+02  0.00000000000E+00 0. -1.
         35    2    1    2    0    0  0.71054273576E-14  0.00000000000E+00  0.34603415511E+03  0.44199648435E+03  0.27499319206E+03 0.  0.
         25    2    3    3    0    0  0.33910839988E+02  0.86121885147E+01  0.10046327686E+03  0.16428627274E+03  0.12519183102E+03 0.  0.
         25    2    3    3    0    0 -0.33910839988E+02 -0.86121885147E+01  0.24557087825E+03  0.27771021161E+03  0.12487509972E+03 0.  0.
          5    1    4    4  502    0  0.62756264163E+02  0.41335938955E+02  0.29523165171E+02  0.80874692103E+02  0.47000000000E+01 0.  1.
         -5    1    4    4    0  502 -0.28845424175E+02 -0.32723750440E+02  0.70940111689E+02  0.83411580642E+02  0.47000000000E+01 0.  1.
          5    1    5    5  503    0  0.11995199952E+02  0.50048234615E+02  0.70670303280E+02  0.87550513280E+02  0.47000000000E+01 0.  1.
         -5    1    5    5    0  503 -0.45906039940E+02 -0.58660423129E+02  0.17490057497E+03  0.19015969833E+03  0.47000000000E+01 0.  1.
<mgrwt>
<rscale>  0 0.27499319E+03</rscale>
<asrwt>0</asrwt>
<pdfrwt beam="1">  1        2 0.60617739E-01 0.27499319E+03</pdfrwt>
<pdfrwt beam="2">  1       -2 0.73817179E-02 0.27499319E+03</pdfrwt>
<totfact> 0.86477378E+03</totfact>
</mgrwt>
</event>
<event>
 9    1  0.7926126E-001  0.2735198E+03  0.7818608E-02  0.1099282E+00
         -1   -1    0    0    0  501 -0.00000000000E+00  0.00000000000E+00  0.76575130348E+01  0.76575130348E+01  0.00000000000E+00 0. -1.
          1   -1    0    0  501    0  0.00000000000E+00 -0.00000000000E+00 -0.24424732377E+04  0.24424732377E+04  0.00000000000E+00 0. -1.
         35    2    1    2    0    0 -0.71054273576E-14 -0.71054273576E-14 -0.24348157247E+04  0.24501307507E+04  0.27351980297E+03 0.  0.
         25    2    3    3    0    0 -0.17126347964E+02  0.45060220816E+02 -0.14578653351E+04  0.14640324764E+04  0.12528376351E+03 0.  0.
         25    2    3    3    0    0  0.17126347964E+02 -0.45060220816E+02 -0.97695038959E+03  0.98609827435E+03  0.12503602546E+03 0.  0.
          5    1    4    4  502    0 -0.35020491537E+02 -0.28484119968E+02 -0.27336623358E+03  0.27710822359E+03  0.47000000000E+01 0.  1.
         -5    1    4    4    0  502  0.17894143573E+02  0.73544340784E+02 -0.11844991015E+04  0.11869242528E+04  0.47000000000E+01 0.  1.
          5    1    5    5  503    0 -0.15751984674E+02 -0.58885714581E+02 -0.88865060721E+03  0.89075116845E+03  0.47000000000E+01 0. -1.
         -5    1    5    5    0  503  0.32878332639E+02  0.13825493766E+02 -0.88299782383E+02  0.95347105902E+02  0.47000000000E+01 0. -1.
<mgrwt>
<rscale>  0 0.27351980E+03</rscale>
<asrwt>0</asrwt>
<pdfrwt beam="1">  1        1 0.37576592E+00 0.27351980E+03</pdfrwt>
<pdfrwt beam="2">  1       -1 0.11780764E-02 0.27351980E+03</pdfrwt>
<totfact> 0.25682589E+03</totfact>
</mgrwt>
</event>
<event>
 9    1  0.7926126E-001  0.2792899E+03  0.7818608E-02  0.1096077E+00
         -2   -1    0    0    0  501 -0.00000000000E+00  0.00000000000E+00  0.12372796841E+02  0.12372796841E+02  0.00000000000E+00 0. -1.
          2   -1    0    0  501    0  0.00000000000E+00 -0.00000000000E+00 -0.15760957481E+04  0.15760957481E+04  0.00000000000E+00 0. -1.
         35    2    1    2    0    0 -0.14210854715E-13  0.00000000000E+00 -0.15637229513E+04  0.15884685449E+04  0.27928990310E+03 0.  0.
         25    2    3    3    0    0  0.51245952640E+02 -0.14684182357E+02 -0.97530596231E+03  0.98467739200E+03  0.12460366496E+03 0.  0.
         25    2    3    3    0    0 -0.51245952640E+02  0.14684182357E+02 -0.58841698895E+03  0.60379115294E+03  0.12444850588E+03 0.  0.
          5    1    4    4  502    0  0.40263882948E+02 -0.18382709236E+02 -0.10208263590E+03  0.11136453125E+03  0.47000000000E+01 0.  1.
         -5    1    4    4    0  502  0.10982069692E+02  0.36985268794E+01 -0.87322332641E+03  0.87331286075E+03  0.47000000000E+01 0.  1.
          5    1    5    5  503    0  0.40241110380E+02 -0.52492878004E+01 -0.20971927081E+03  0.21366133140E+03  0.47000000000E+01 0.  1.
         -5    1    5    5    0  503 -0.91487063019E+02  0.19933470157E+02 -0.37869771813E+03  0.39012982154E+03  0.47000000000E+01 0.  1.
<mgrwt>
<rscale>  0 0.27928990E+03</rscale>
<asrwt>0</asrwt>
<pdfrwt beam="1">  1        2 0.24247609E+00 0.27928990E+03</pdfrwt>
<pdfrwt beam="2">  1       -2 0.19035086E-02 0.27928990E+03</pdfrwt>
<totfact> 0.10335226E+04</totfact>
</mgrwt>
</event>
<event>
 9    1  0.7926126E-001  0.2689919E+03  0.7818608E-02  0.1101858E+00
          2   -1    0    0  501    0  0.00000000000E+00  0.00000000000E+00  0.10442941824E+04  0.10442941824E+04  0.00000000000E+00 0. -1.
         -2   -1    0    0    0  501 -0.00000000000E+00 -0.00000000000E+00 -0.17321895582E+02  0.17321895582E+02  0.00000000000E+00 0. -1.
         35    2    1    2    0    0  0.00000000000E+00  0.00000000000E+00  0.10269722868E+04  0.10616160780E+04  0.26899185701E+03 0.  0.
         25    2    3    3    0    0 -0.15340136728E+02  0.38694559941E+02  0.65443022267E+03  0.66756404359E+03  0.12502098697E+03 0.  0.
         25    2    3    3    0    0  0.15340136728E+02 -0.38694559941E+02  0.37254206412E+03  0.39405203436E+03  0.12147768307E+03 0.  0.
          5    1    4    4  502    0 -0.23495374217E+02 -0.14627460993E+02  0.31138444295E+02  0.41924789061E+02  0.47000000000E+01 0.  1.
         -5    1    4    4    0  502  0.81552374893E+01  0.53322020935E+02  0.62329177838E+03  0.62563925453E+03  0.47000000000E+01 0.  1.
          5    1    5    5  503    0  0.24322064370E+02 -0.17591918731E+02  0.36914776374E+03  0.37039600415E+03  0.47000000000E+01 0. -1.
         -5    1    5    5    0  503 -0.89819276422E+01 -0.21102641211E+02  0.33943003800E+01  0.23656030210E+02  0.47000000000E+01 0. -1.
<mgrwt>
<rscale>  0 0.26899186E+03</rscale>
<asrwt>0</asrwt>
<pdfrwt beam="1">  1        2 0.16066059E+00 0.26899186E+03</pdfrwt>
<pdfrwt beam="2">  1       -2 0.26649078E-02 0.26899186E+03</pdfrwt>
<totfact> 0.12427592E+04</totfact>
</mgrwt>
</event>
<event>
 9    1  0.7926126E-001  0.2737725E+03  0.7818608E-02  0.1099140E+00
          1   -1    0    0  501    0  0.00000000000E+00  0.00000000000E+00  0.21668374364E+04  0.21668374364E+04  0.00000000000E+00 0. -1.
         -1   -1    0    0    0  501 -0.00000000000E+00 -0.00000000000E+00 -0.86475555687E+01  0.86475555687E+01  0.00000000000E+00 0. -1.
         35    2    1    2    0    0 -0.53290705182E-14  0.00000000000E+00  0.21581898808E+04  0.21754849919E+04  0.27377251242E+03 0.  0.
         25    2    3    3    0    0  0.53444486956E+01 -0.58554596476E+02  0.98931890528E+03  0.99878071034E+03  0.12391048024E+03 0.  0.
         25    2    3    3    0    0 -0.53444486956E+01  0.58554596476E+02  0.11688709755E+04  0.11767042816E+04  0.12213273518E+03 0.  0.
          5    1    4    4  502    0  0.60643439065E+02 -0.13011137607E+02  0.35456460516E+03  0.35997925723E+03  0.47000000000E+01 0.  1.
         -5    1    4    4    0  502 -0.55298990370E+02 -0.45543458869E+02  0.63475430012E+03  0.63880145311E+03  0.47000000000E+01 0.  1.
          5    1    5    5  503    0  0.68181067684E+01 -0.22226952290E+02  0.55832616365E+02  0.60662138424E+02  0.47000000000E+01 0.  1.
         -5    1    5    5    0  503 -0.12162555464E+02  0.80781548766E+02  0.11130383592E+04  0.11160421432E+04  0.47000000000E+01 0.  1.
<mgrwt>
<rscale>  0 0.27377251E+03</rscale>
<asrwt>0</asrwt>
<pdfrwt beam="1">  1        1 0.33335917E+00 0.27377251E+03</pdfrwt>
<pdfrwt beam="2">  1       -1 0.13303949E-02 0.27377251E+03</pdfrwt>
<totfact> 0.32657537E+03</totfact>
</mgrwt>
</event>
<event>
 9    1  0.7926126E-001  0.2717757E+03  0.7818608E-02  0.1100268E+00
          4   -1    0    0  501    0  0.00000000000E+00  0.00000000000E+00  0.95550038965E+02  0.95550038965E+02  0.00000000000E+00 0. -1.
         -4   -1    0    0    0  501 -0.00000000000E+00 -0.00000000000E+00 -0.19325487862E+03  0.19325487862E+03  0.00000000000E+00 0. -1.
         35    2    1    2    0    0  0.00000000000E+00 -0.71054273576E-14 -0.97704839656E+02  0.28880491759E+03  0.27177572506E+03 0.  0.
         25    2    3    3    0    0  0.33461530178E+02 -0.38308480643E+02 -0.34051105646E+02  0.13919353544E+03  0.12501259465E+03 0.  0.
         25    2    3    3    0    0 -0.33461530178E+02  0.38308480643E+02 -0.63653734010E+02  0.14961138215E+03  0.12547730521E+03 0.  0.
          5    1    4    4  502    0  0.50662858539E+02 -0.27014899947E+02 -0.74138397848E+02  0.93888881610E+02  0.47000000000E+01 0. -1.
         -5    1    4    4    0  502 -0.17201328361E+02 -0.11293580696E+02  0.40087292202E+02  0.45304653827E+02  0.47000000000E+01 0. -1.
          5    1    5    5  503    0 -0.56822219021E+02  0.34218259408E+02 -0.91258849435E+02  0.11291555009E+03  0.47000000000E+01 0.  1.
         -5    1    5    5    0  503  0.23360688843E+02  0.40902212356E+01  0.27605115425E+02  0.36695832061E+02  0.47000000000E+01 0.  1.
<mgrwt>
<rscale>  0 0.27177573E+03</rscale>
<asrwt>0</asrwt>
<pdfrwt beam="1">  1        4 0.14700006E-01 0.27177573E+03</pdfrwt>
<pdfrwt beam="2">  1       -4 0.29731520E-01 0.27177573E+03</pdfrwt>
<totfact> 0.79088619E+02</totfact>
</mgrwt>
</event>
<event>
 9    1  0.7926126E-001  0.2829825E+03  0.7818608E-02  0.1094071E+00
         -1   -1    0    0    0  501 -0.00000000000E+00  0.00000000000E+00  0.14014462651E+02  0.14014462651E+02  0.00000000000E+00 0.  1.
          1   -1    0    0  501    0  0.00000000000E+00 -0.00000000000E+00 -0.14285084781E+04  0.14285084781E+04  0.00000000000E+00 0.  1.
         35    2    1    2    0    0 -0.71054273576E-14  0.00000000000E+00 -0.14144940155E+04  0.14425229408E+04  0.28298253454E+03 0.  0.
         25    2    3    3    0    0  0.47151596847E+02 -0.20600540898E+02 -0.92783200652E+03  0.93786554277E+03  0.12677495268E+03 0.  0.
         25    2    3    3    0    0 -0.47151596847E+02  0.20600540898E+02 -0.48666200894E+03  0.50465739799E+03  0.12325389661E+03 0.  0.
          5    1    4    4  502    0 -0.25153814237E+02 -0.29755562893E+02 -0.62956646701E+03  0.63078850201E+03  0.47000000000E+01 0. -1.
         -5    1    4    4    0  502  0.72305411084E+02  0.91550219951E+01 -0.29826553951E+03  0.30707704075E+03  0.47000000000E+01 0. -1.
          5    1    5    5  503    0 -0.18332335825E+01 -0.49059817977E+02 -0.21192769056E+03  0.21759058461E+03  0.47000000000E+01 0.  1.
         -5    1    5    5    0  503 -0.45318363264E+02  0.69660358875E+02 -0.27473431838E+03  0.28706681337E+03  0.47000000000E+01 0.  1.
<mgrwt>
<rscale>  0 0.28298253E+03</rscale>
<asrwt>0</asrwt>
<pdfrwt beam="1">  1        1 0.21977050E+00 0.28298253E+03</pdfrwt>
<pdfrwt beam="2">  1       -1 0.21560715E-02 0.28298253E+03</pdfrwt>
<totfact> 0.49067697E+03</totfact>
</mgrwt>
</event>
<event>
 9    1  0.7926126E-001  0.2761359E+03  0.7818608E-02  0.1097818E+00
         -2   -1    0    0    0  501 -0.00000000000E+00  0.00000000000E+00  0.40923056792E+03  0.40923056792E+03  0.00000000000E+00 0. -1.
          2   -1    0    0  501    0  0.00000000000E+00 -0.00000000000E+00 -0.46581946715E+02  0.46581946715E+02  0.00000000000E+00 0. -1.
         35    2    1    2    0    0 -0.71054273576E-14 -0.71054273576E-14  0.36264862120E+03  0.45581251463E+03  0.27613588328E+03 0.  0.
         25    2    3    3    0    0 -0.35037917872E+02 -0.32397505631E+02  0.23901670680E+03  0.27357086288E+03  0.12423677727E+03 0.  0.
         25    2    3    3    0    0  0.35037917872E+02  0.32397505631E+02  0.12363191440E+03  0.18224165175E+03  0.12509962156E+03 0.  0.
          5    1    4    4  502    0  0.15764413297E+02  0.22806944968E+02  0.16740425650E+03  0.16974966439E+03  0.47000000000E+01 0. -1.
         -5    1    4    4    0  502 -0.50802331169E+02 -0.55204450599E+02  0.71612450295E+02  0.10382119849E+03  0.47000000000E+01 0. -1.
          5    1    5    5  503    0 -0.24954988335E+02  0.44231749332E+02  0.83783672928E+01  0.51686421140E+02  0.47000000000E+01 0. -1.
         -5    1    5    5    0  503  0.59992906206E+02 -0.11834243700E+02  0.11525354711E+03  0.13055523061E+03  0.47000000000E+01 0. -1.
<mgrwt>
<rscale>  0 0.27613588E+03</rscale>
<asrwt>0</asrwt>
<pdfrwt beam="1">  1        2 0.71664536E-02 0.27613588E+03</pdfrwt>
<pdfrwt beam="2">  1       -2 0.62958546E-01 0.27613588E+03</pdfrwt>
<totfact> 0.23368057E+03</totfact>
</mgrwt>
</event>
<event>
 9    1  0.7926126E-001  0.2741502E+03  0.7818608E-02  0.1098928E+00
          2   -1    0    0  501    0  0.00000000000E+00  0.00000000000E+00  0.61567507004E+03  0.61567507004E+03  0.00000000000E+00 0.  1.
         -2   -1    0    0    0  501 -0.00000000000E+00 -0.00000000000E+00 -0.30518674842E+02  0.30518674842E+02  0.00000000000E+00 0.  1.
         35    2    1    2    0    0  0.00000000000E+00  0.71054273576E-14  0.58515639520E+03  0.64619374488E+03  0.27415023086E+03 0.  0.
         25    2    3    3    0    0 -0.34532991102E+02 -0.38829317341E+02  0.25370855466E+03  0.28709711840E+03  0.12392127067E+03 0.  0.
         25    2    3    3    0    0  0.34532991102E+02  0.38829317341E+02  0.33144784053E+03  0.35909662648E+03  0.12803309258E+03 0.  0.
          5    1    4    4  502    0 -0.34840116947E+02  0.27282168283E+02  0.29729078901E+02  0.53516900017E+02  0.47000000000E+01 0.  1.
         -5    1    4    4    0  502  0.30712584583E+00 -0.66111485624E+02  0.22397947576E+03  0.23358021838E+03  0.47000000000E+01 0.  1.
          5    1    5    5  503    0  0.89230638497E+01  0.13699873428E+02 -0.72348826498E+01  0.18486241570E+02  0.47000000000E+01 0.  1.
         -5    1    5    5    0  503  0.25609927252E+02  0.25129443912E+02  0.33868272318E+03  0.34061038491E+03  0.47000000000E+01 0.  1.
<mgrwt>
<rscale>  0 0.27415023E+03</rscale>
<asrwt>0</asrwt>
<pdfrwt beam="1">  1        2 0.94719232E-01 0.27415023E+03</pdfrwt>
<pdfrwt beam="2">  1       -2 0.46951812E-02 0.27415023E+03</pdfrwt>
<totfact> 0.10498254E+04</totfact>
</mgrwt>
</event>
<event>
 9    1  0.7926126E-001  0.2727531E+03  0.7818608E-02  0.1099714E+00
          2   -1    0    0  501    0  0.00000000000E+00  0.00000000000E+00  0.26973227432E+04  0.26973227432E+04  0.00000000000E+00 0.  1.
         -2   -1    0    0    0  501 -0.00000000000E+00 -0.00000000000E+00 -0.68951931665E+01  0.68951931665E+01  0.00000000000E+00 0.  1.
         35    2    1    2    0    0  0.00000000000E+00  0.00000000000E+00  0.26904275501E+04  0.27042179364E+04  0.27275308502E+03 0.  0.
         25    2    3    3    0    0 -0.26245358474E+02  0.53872562074E+02  0.15624127633E+04  0.15685470829E+04  0.12496094024E+03 0.  0.
         25    2    3    3    0    0  0.26245358474E+02 -0.53872562074E+02  0.11280147868E+04  0.11356708535E+04  0.11721713409E+03 0.  0.
          5    1    4    4  502    0  0.44245053767E+02  0.90631626318E+01  0.30583303204E+03  0.30918554168E+03  0.47000000000E+01 0.  1.
         -5    1    4    4    0  502 -0.70490412241E+02  0.44809399442E+02  0.12565797313E+04  0.12593615412E+04  0.47000000000E+01 0.  1.
          5    1    5    5  503    0  0.42314312948E+02  0.25188907994E+02  0.51029687393E+03  0.51268896196E+03  0.47000000000E+01 0. -1.
         -5    1    5    5    0  503 -0.16068954474E+02 -0.79061470067E+02  0.61771791283E+03  0.62298189153E+03  0.47000000000E+01 0. -1.
<mgrwt>
<rscale>  0 0.27275309E+03</rscale>
<asrwt>0</asrwt>
<pdfrwt beam="1">  1        2 0.41497189E+00 0.27275309E+03</pdfrwt>
<pdfrwt beam="2">  1       -2 0.10608011E-02 0.27275309E+03</pdfrwt>
<totfact> 0.60973149E+03</totfact>
</mgrwt>
</event>
<event>
 9    1  0.7926126E-001  0.2756694E+03  0.7818608E-02  0.1098078E+00
          2   -1    0    0  501    0  0.00000000000E+00  0.00000000000E+00  0.33911773307E+03  0.33911773307E+03  0.00000000000E+00 0. -1.
         -2   -1    0    0    0  501 -0.00000000000E+00 -0.00000000000E+00 -0.56023022958E+02  0.56023022958E+02  0.00000000000E+00 0. -1.
         35    2    1    2    0    0  0.00000000000E+00  0.00000000000E+00  0.28309471011E+03  0.39514075603E+03  0.27566937113E+03 0.  0.
         25    2    3    3    0    0 -0.19237337619E+02 -0.47963953366E+02  0.18115278493E+03  0.22618853934E+03  0.12519707609E+03 0.  0.
         25    2    3    3    0    0  0.19237337619E+02  0.47963953366E+02  0.10194192518E+03  0.16895221668E+03  0.12442700443E+03 0.  0.
          5    1    4    4  502    0 -0.36212983624E+02  0.19619492936E+01 -0.91379356026E+00  0.36580793412E+02  0.47000000000E+01 0. -1.
         -5    1    4    4    0  502  0.16975646005E+02 -0.49925902660E+02  0.18206657849E+03  0.18960774593E+03  0.47000000000E+01 0. -1.
          5    1    5    5  503    0  0.50551546532E+02  0.53764976386E+02  0.13943775210E+02  0.75250584115E+02  0.47000000000E+01 0. -1.
         -5    1    5    5    0  503 -0.31314208913E+02 -0.58010230201E+01  0.87998149969E+02  0.93701632568E+02  0.47000000000E+01 0. -1.
<mgrwt>
<rscale>  0 0.27566937E+03</rscale>
<asrwt>0</asrwt>
<pdfrwt beam="1">  1        2 0.52171958E-01 0.27566937E+03</pdfrwt>
<pdfrwt beam="2">  1       -2 0.86189268E-02 0.27566937E+03</pdfrwt>
<totfact> 0.79852914E+03</totfact>
</mgrwt>
</event>
<event>
 9    1  0.7926126E-001  0.2750535E+03  0.7818608E-02  0.1098422E+00
         -2   -1    0    0    0  501 -0.00000000000E+00  0.00000000000E+00  0.70808038856E+02  0.70808038856E+02  0.00000000000E+00 0. -1.
          2   -1    0    0  501    0  0.00000000000E+00 -0.00000000000E+00 -0.26711096298E+03  0.26711096298E+03  0.00000000000E+00 0. -1.
         35    2    1    2    0    0  0.00000000000E+00  0.14210854715E-13 -0.19630292412E+03  0.33791900183E+03  0.27505347440E+03 0.  0.
         25    2    3    3    0    0 -0.21822330468E+02 -0.53409696576E+02 -0.71890533275E+02  0.15226277519E+03  0.12118949682E+03 0.  0.
         25    2    3    3    0    0  0.21822330468E+02  0.53409696576E+02 -0.12441239085E+03  0.18565622664E+03  0.12514384403E+03 0.  0.
          5    1    4    4  502    0 -0.93888644253E+01 -0.50213311931E+01  0.33538575993E+02  0.35500572133E+02  0.47000000000E+01 0.  1.
         -5    1    4    4    0  502 -0.12433466042E+02 -0.48388365383E+02 -0.10542910927E+03  0.11676220306E+03  0.47000000000E+01 0.  1.
          5    1    5    5  503    0 -0.10317775800E+02  0.80516313224E+02 -0.11734564506E+03  0.14276352338E+03  0.47000000000E+01 0. -1.
         -5    1    5    5    0  503  0.32140106268E+02 -0.27106616647E+02 -0.70667457832E+01  0.42892703260E+02  0.47000000000E+01 0. -1.
<mgrwt>
<rscale>  0 0.27505347E+03</rscale>
<asrwt>0</asrwt>
<pdfrwt beam="1">  1        2 0.41093993E-01 0.27505347E+03</pdfrwt>
<pdfrwt beam="2">  1       -2 0.10893545E-01 0.27505347E+03</pdfrwt>
<totfact> 0.71207361E+03</totfact>
</mgrwt>
</event>
<event>
 9    1  0.7926126E-001  0.2752072E+03  0.7818608E-02  0.1098336E+00
         -1   -1    0    0    0  501 -0.00000000000E+00  0.00000000000E+00  0.64486287020E+02  0.64486287020E+02  0.00000000000E+00 0.  1.
          1   -1    0    0  501    0  0.00000000000E+00 -0.00000000000E+00 -0.29362440836E+03  0.29362440836E+03  0.00000000000E+00 0.  1.
         35    2    1    2    0    0  0.00000000000E+00  0.00000000000E+00 -0.22913812134E+03  0.35811069538E+03  0.27520717922E+03 0.  0.
         25    2    3    3    0    0  0.47535213454E+02  0.34315410644E+02 -0.98776318586E+02  0.16815078540E+03  0.12280383379E+03 0.  0.
         25    2    3    3    0    0 -0.47535213454E+02 -0.34315410644E+02 -0.13036180275E+03  0.18995990997E+03  0.12511364376E+03 0.  0.
          5    1    4    4  502    0  0.65627320232E+02 -0.20851266036E+02 -0.23374130141E+02  0.72870847504E+02  0.47000000000E+01 0.  1.
         -5    1    4    4    0  502 -0.18092106778E+02  0.55166676680E+02 -0.75402188446E+02  0.95279937899E+02  0.47000000000E+01 0.  1.
          5    1    5    5  503    0 -0.33207540048E+02 -0.52668192275E+02 -0.14782976244E+03  0.16047556778E+03  0.47000000000E+01 0. -1.
         -5    1    5    5    0  503 -0.14327673405E+02  0.18352781631E+02  0.17467959685E+02  0.29484342190E+02  0.47000000000E+01 0. -1.
<mgrwt>
<rscale>  0 0.27520718E+03</rscale>
<asrwt>0</asrwt>
<pdfrwt beam="1">  1        1 0.45172986E-01 0.27520718E+03</pdfrwt>
<pdfrwt beam="2">  1       -1 0.99209673E-02 0.27520718E+03</pdfrwt>
<totfact> 0.55201407E+03</totfact>
</mgrwt>
</event>
<event>
 9    1  0.7926126E-001  0.2964895E+03  0.7818608E-02  0.1087009E+00
          1   -1    0    0  501    0  0.00000000000E+00  0.00000000000E+00  0.72215038725E+02  0.72215038725E+02  0.00000000000E+00 0. -1.
         -1   -1    0    0    0  501 -0.00000000000E+00 -0.00000000000E+00 -0.30432045278E+03  0.30432045278E+03  0.00000000000E+00 0. -1.
         35    2    1    2    0    0  0.00000000000E+00 -0.35527136788E-14 -0.23210541405E+03  0.37653549150E+03  0.29648954978E+03 0.  0.
         25    2    3    3    0    0  0.41651021786E+02 -0.13546704181E+02 -0.28093274870E+02  0.13333612961E+03  0.12276388132E+03 0.  0.
         25    2    3    3    0    0 -0.41651021786E+02  0.13546704181E+02 -0.20401213918E+03  0.24319936189E+03  0.12492660198E+03 0.  0.
          5    1    4    4  502    0  0.67853241419E+02  0.33121585411E+02 -0.24371249305E+02  0.79480498136E+02  0.47000000000E+01 0. -1.
         -5    1    4    4    0  502 -0.26202219633E+02 -0.46668289591E+02 -0.37220255646E+01  0.53855631474E+02  0.47000000000E+01 0. -1.
          5    1    5    5  503    0 -0.55306877467E+02  0.12648852612E+02 -0.21663936942E+03  0.22399453241E+03  0.47000000000E+01 0.  1.
         -5    1    5    5    0  503  0.13655855681E+02  0.89785156914E+00  0.12627230239E+02  0.19204829480E+02  0.47000000000E+01 0.  1.
<mgrwt>
<rscale>  0 0.29648955E+03</rscale>
<asrwt>0</asrwt>
<pdfrwt beam="1">  1        1 0.11110006E-01 0.29648955E+03</pdfrwt>
<pdfrwt beam="2">  1       -1 0.46818531E-01 0.29648955E+03</pdfrwt>
<totfact> 0.25800913E+03</totfact>
</mgrwt>
</event>
<event>
 9    1  0.7926126E-001  0.2806574E+03  0.7818608E-02  0.1095330E+00
         -1   -1    0    0    0  501 -0.00000000000E+00  0.00000000000E+00  0.69121919499E+02  0.69121919499E+02  0.00000000000E+00 0. -1.
          1   -1    0    0  501    0  0.00000000000E+00 -0.00000000000E+00 -0.28488990923E+03  0.28488990923E+03  0.00000000000E+00 0. -1.
         35    2    1    2    0    0 -0.35527136788E-14  0.00000000000E+00 -0.21576798973E+03  0.35401182872E+03  0.28065735245E+03 0.  0.
         25    2    3    3    0    0 -0.10189746911E-01 -0.44960928383E+02 -0.16554018099E+03  0.21205695679E+03  0.12467203461E+03 0.  0.
         25    2    3    3    0    0  0.10189746911E-01  0.44960928383E+02 -0.50227808737E+02  0.14195487194E+03  0.12492744979E+03 0.  0.
          5    1    4    4  502    0  0.20181411892E+02 -0.56095881033E+02 -0.17631112196E+03  0.18617663382E+03  0.47000000000E+01 0.  1.
         -5    1    4    4    0  502 -0.20191601639E+02  0.11134952650E+02  0.10770940971E+02  0.25880322963E+02  0.47000000000E+01 0.  1.
          5    1    5    5  503    0  0.56248458444E+02  0.31755679956E+02  0.74788116212E+00  0.64768523320E+02  0.47000000000E+01 0.  1.
         -5    1    5    5    0  503 -0.56238268698E+02  0.13205248426E+02 -0.50975689899E+02  0.77186348617E+02  0.47000000000E+01 0.  1.
<mgrwt>
<rscale>  0 0.28065735E+03</rscale>
<asrwt>0</asrwt>
<pdfrwt beam="1">  1        1 0.43829217E-01 0.28065735E+03</pdfrwt>
<pdfrwt beam="2">  1       -1 0.10634141E-01 0.28065735E+03</pdfrwt>
<totfact> 0.51526290E+03</totfact>
</mgrwt>
</event>
<event>
 9    1  0.7926126E-001  0.2733122E+03  0.7818608E-02  0.1099399E+00
         -2   -1    0    0    0  501 -0.00000000000E+00  0.00000000000E+00  0.29987170523E+02  0.29987170523E+02  0.00000000000E+00 0.  1.
          2   -1    0    0  501    0  0.00000000000E+00 -0.00000000000E+00 -0.62276272983E+03  0.62276272983E+03  0.00000000000E+00 0.  1.
         35    2    1    2    0    0  0.26645352591E-14  0.71054273576E-14 -0.59277555931E+03  0.65274990036E+03  0.27331221835E+03 0.  0.
         25    2    3    3    0    0  0.47291066760E+01 -0.34583229392E+02 -0.20586333311E+03  0.24456274594E+03  0.12732973170E+03 0.  0.
         25    2    3    3    0    0 -0.47291066760E+01  0.34583229392E+02 -0.38691222620E+03  0.40818715442E+03  0.12528893824E+03 0.  0.
          5    1    4    4  502    0  0.33924562468E+02 -0.67692999665E+02 -0.17429616148E+03  0.19009066271E+03  0.47000000000E+01 0.  1.
         -5    1    4    4    0  502 -0.29195455791E+02  0.33109770272E+02 -0.31567171627E+02  0.54472083225E+02  0.47000000000E+01 0.  1.
          5    1    5    5  503    0  0.97597143017E+00 -0.47451180588E+02 -0.14221122350E+03  0.14999563043E+03  0.47000000000E+01 0.  1.
         -5    1    5    5    0  503 -0.57050781062E+01  0.82034409980E+02 -0.24470100270E+03  0.25819152399E+03  0.47000000000E+01 0.  1.
<mgrwt>
<rscale>  0 0.27331222E+03</rscale>
<asrwt>0</asrwt>
<pdfrwt beam="1">  1        2 0.95809647E-01 0.27331222E+03</pdfrwt>
<pdfrwt beam="2">  1       -2 0.46134110E-02 0.27331222E+03</pdfrwt>
<totfact> 0.10636565E+04</totfact>
</mgrwt>
</event>
<event>
 9    1  0.7926126E-001  0.2752729E+03  0.7818608E-02  0.1098299E+00
         -2   -1    0    0    0  501 -0.00000000000E+00  0.00000000000E+00  0.72670679381E+01  0.72670679381E+01  0.00000000000E+00 0. -1.
          2   -1    0    0  501    0  0.00000000000E+00 -0.00000000000E+00 -0.26067998645E+04  0.26067998645E+04  0.00000000000E+00 0. -1.
         35    2    1    2    0    0  0.00000000000E+00  0.00000000000E+00 -0.25995327966E+04  0.26140669325E+04  0.27527289526E+03 0.  0.
         25    2    3    3    0    0 -0.29490715787E+02 -0.36965986984E+02 -0.91844603494E+03  0.92746030104E+03  0.12001376754E+03 0.  0.
         25    2    3    3    0    0  0.29490715787E+02  0.36965986984E+02 -0.16810867616E+04  0.16866066314E+04  0.12787901494E+03 0.  0.
          5    1    4    4  502    0 -0.58297667549E+02 -0.40951051944E+02 -0.84936185784E+03  0.85235747328E+03  0.47000000000E+01 0.  1.
         -5    1    4    4    0  502  0.28806951762E+02  0.39850649603E+01 -0.69084177098E+02  0.75102827762E+02  0.47000000000E+01 0.  1.
          5    1    5    5  503    0  0.49027422997E+02  0.75133728283E+02 -0.94628200907E+03  0.95053695142E+03  0.47000000000E+01 0. -1.
         -5    1    5    5    0  503 -0.19536707211E+02 -0.38167741300E+02 -0.73480475257E+03  0.73606968000E+03  0.47000000000E+01 0. -1.
<mgrwt>
<rscale>  0 0.27527290E+03</rscale>
<asrwt>0</asrwt>
<pdfrwt beam="1">  1        2 0.40104626E+00 0.27527290E+03</pdfrwt>
<pdfrwt beam="2">  1       -2 0.11180101E-02 0.27527290E+03</pdfrwt>
<totfact> 0.63466355E+03</totfact>
</mgrwt>
</event>
<event>
 9    1  0.7926126E-001  0.2793185E+03  0.7818608E-02  0.1096062E+00
          2   -1    0    0  501    0  0.00000000000E+00  0.00000000000E+00  0.16326178252E+03  0.16326178252E+03  0.00000000000E+00 0.  1.
         -2   -1    0    0    0  501 -0.00000000000E+00 -0.00000000000E+00 -0.11946888201E+03  0.11946888201E+03  0.00000000000E+00 0.  1.
         35    2    1    2    0    0  0.00000000000E+00  0.00000000000E+00  0.43792900511E+02  0.28273066454E+03  0.27931847510E+03 0.  0.
         25    2    3    3    0    0 -0.49567051129E+02 -0.33734877267E+02  0.44317509274E+02  0.14455394453E+03  0.12384210410E+03 0.  0.
         25    2    3    3    0    0  0.49567051129E+02  0.33734877267E+02 -0.52460876343E+00  0.13817672001E+03  0.12448934186E+03 0.  0.
          5    1    4    4  502    0 -0.76058941988E+02 -0.85380893467E+01  0.66527889488E+02  0.10151803636E+03  0.47000000000E+01 0. -1.
         -5    1    4    4    0  502  0.26491890859E+02 -0.25196787920E+02 -0.22210380214E+02  0.43035908170E+02  0.47000000000E+01 0. -1.
          5    1    5    5  503    0  0.11658591178E+02 -0.33902031842E+01  0.57765054882E+02  0.59214084401E+02  0.47000000000E+01 0. -1.
         -5    1    5    5    0  503  0.37908459951E+02  0.37125080451E+02 -0.58289663646E+02  0.78962635609E+02  0.47000000000E+01 0. -1.
<mgrwt>
<rscale>  0 0.27931848E+03</rscale>
<asrwt>0</asrwt>
<pdfrwt beam="1">  1        2 0.25117197E-01 0.27931848E+03</pdfrwt>
<pdfrwt beam="2">  1       -2 0.18379828E-01 0.27931848E+03</pdfrwt>
<totfact> 0.51677450E+03</totfact>
</mgrwt>
</event>
<event>
 9    1  0.7926126E-001  0.2711898E+03  0.7818608E-02  0.1100601E+00
          2   -1    0    0  501    0  0.00000000000E+00  0.00000000000E+00  0.35007088078E+03  0.35007088078E+03  0.00000000000E+00 0. -1.
         -2   -1    0    0    0  501 -0.00000000000E+00 -0.00000000000E+00 -0.52520720138E+02  0.52520720138E+02  0.00000000000E+00 0. -1.
         35    2    1    2    0    0  0.00000000000E+00  0.71054273576E-14  0.29755016064E+03  0.40259160092E+03  0.27118978416E+03 0.  0.
         25    2    3    3    0    0 -0.29770415380E+02  0.28500677962E+02  0.20104930449E+03  0.24042343096E+03  0.12523592553E+03 0.  0.
         25    2    3    3    0    0  0.29770415380E+02 -0.28500677962E+02  0.96500856153E+02  0.16216816996E+03  0.12364276701E+03 0.  0.
          5    1    4    4  502    0  0.38528942951E+01  0.68466776840E+02  0.64938402446E+02  0.94560194784E+02  0.47000000000E+01 0.  1.
         -5    1    4    4    0  502 -0.33623309675E+02 -0.39966098878E+02  0.13611090204E+03  0.14586323618E+03  0.47000000000E+01 0.  1.
          5    1    5    5  503    0 -0.45549054150E+02 -0.16194075947E+02  0.15990889712E+02  0.51134753188E+02  0.47000000000E+01 0.  1.
         -5    1    5    5    0  503  0.75319469530E+02 -0.12306602014E+02  0.80509966441E+02  0.11103341677E+03  0.47000000000E+01 0.  1.
<mgrwt>
<rscale>  0 0.27118978E+03</rscale>
<asrwt>0</asrwt>
<pdfrwt beam="1">  1        2 0.53857057E-01 0.27118978E+03</pdfrwt>
<pdfrwt beam="2">  1       -2 0.80801110E-02 0.27118978E+03</pdfrwt>
<totfact> 0.85319724E+03</totfact>
</mgrwt>
</event>
<event>
 9    1  0.7926126E-001  0.3167662E+03  0.7818608E-02  0.1077147E+00
         -3   -1    0    0    0  501 -0.00000000000E+00  0.00000000000E+00  0.33571358911E+03  0.33571358911E+03  0.00000000000E+00 0. -1.
          3   -1    0    0  501    0  0.00000000000E+00 -0.00000000000E+00 -0.74722045417E+02  0.74722045417E+02  0.00000000000E+00 0. -1.
         35    2    1    2    0    0 -0.14210854715E-13  0.00000000000E+00  0.26099154370E+03  0.41043563453E+03  0.31676619802E+03 0.  0.
         25    2    3    3    0    0  0.56805872657E+02  0.53522147774E+02  0.55521898277E+02  0.15713427534E+03  0.12456713783E+03 0.  0.
         25    2    3    3    0    0 -0.56805872657E+02 -0.53522147774E+02  0.20546964542E+03  0.25330135919E+03  0.12590582158E+03 0.  0.
          5    1    4    4  502    0  0.91684272608E+02  0.58783923915E+02  0.53653649243E+02  0.12150045116E+03  0.47000000000E+01 0. -1.
         -5    1    4    4    0  502 -0.34878399951E+02 -0.52617761408E+01  0.18682490342E+01  0.35633824181E+02  0.47000000000E+01 0. -1.
          5    1    5    5  503    0 -0.33617873193E+02 -0.67272395173E+02  0.39473221284E+02  0.85064456437E+02  0.47000000000E+01 0. -1.
         -5    1    5    5    0  503 -0.23187999464E+02  0.13750247399E+02  0.16599642413E+03  0.16823690275E+03  0.47000000000E+01 0. -1.
<mgrwt>
<rscale>  0 0.31676620E+03</rscale>
<asrwt>0</asrwt>
<pdfrwt beam="1">  1        3 0.11495699E-01 0.31676620E+03</pdfrwt>
<pdfrwt beam="2">  1       -3 0.51648244E-01 0.31676620E+03</pdfrwt>
<totfact> 0.56231081E+02</totfact>
</mgrwt>
</event>
<event>
 9    1  0.7926126E-001  0.2632536E+03  0.7818608E-02  0.1105204E+00
          2   -1    0    0  501    0  0.00000000000E+00  0.00000000000E+00  0.64361249073E+03  0.64361249073E+03  0.00000000000E+00 0.  1.
         -2   -1    0    0    0  501 -0.00000000000E+00 -0.00000000000E+00 -0.26919323096E+02  0.26919323096E+02  0.00000000000E+00 0.  1.
         35    2    1    2    0    0  0.35527136788E-14 -0.71054273576E-14  0.61669316764E+03  0.67053181383E+03  0.26325358563E+03 0.  0.
         25    2    3    3    0    0 -0.30644691465E+02 -0.20343420174E+02  0.35990434244E+03  0.38286231684E+03  0.12529751033E+03 0.  0.
         25    2    3    3    0    0  0.30644691465E+02  0.20343420174E+02  0.25678882520E+03  0.28766949698E+03  0.12433940199E+03 0.  0.
          5    1    4    4  502    0 -0.54398000689E+02 -0.49129716220E+02  0.31876650703E+03  0.32711931691E+03  0.47000000000E+01 0. -1.
         -5    1    4    4    0  502  0.23753309224E+02  0.28786296046E+02  0.41137835410E+02  0.55742999931E+02  0.47000000000E+01 0. -1.
          5    1    5    5  503    0  0.33383329552E+02 -0.49267817119E+02  0.11161408110E+03  0.12657629160E+03  0.47000000000E+01 0. -1.
         -5    1    5    5    0  503 -0.27386380866E+01  0.69611237294E+02  0.14517474410E+03  0.16109320538E+03  0.47000000000E+01 0. -1.
<mgrwt>
<rscale>  0 0.26325359E+03</rscale>
<asrwt>0</asrwt>
<pdfrwt beam="1">  1        2 0.99017295E-01 0.26325359E+03</pdfrwt>
<pdfrwt beam="2">  1       -2 0.41414348E-02 0.26325359E+03</pdfrwt>
<totfact> 0.12024644E+04</totfact>
</mgrwt>
</event>
<event>
 9    1  0.7926126E-001  0.2759745E+03  0.7818608E-02  0.1097908E+00
          1   -1    0    0  501    0  0.00000000000E+00  0.00000000000E+00  0.71570401199E+02  0.71570401199E+02  0.00000000000E+00 0.  1.
         -1   -1    0    0    0  501 -0.00000000000E+00 -0.00000000000E+00 -0.26603848341E+03  0.26603848341E+03  0.00000000000E+00 0.  1.
         35    2    1    2    0    0  0.00000000000E+00  0.35527136788E-14 -0.19446808221E+03  0.33760888461E+03  0.27597449877E+03 0.  0.
         25    2    3    3    0    0  0.42642138593E+02  0.83627062146E+01 -0.48913219726E+02  0.14077246143E+03  0.12464387669E+03 0.  0.
         25    2    3    3    0    0 -0.42642138593E+02 -0.83627062146E+01 -0.14555486249E+03  0.19683642318E+03  0.12518016080E+03 0.  0.
          5    1    4    4  502    0  0.84748649810E+02 -0.10262386779E+02 -0.27802392774E+02  0.89903911322E+02  0.47000000000E+01 0. -1.
         -5    1    4    4    0  502 -0.42106511217E+02  0.18625092993E+02 -0.21110826952E+02  0.50868550112E+02  0.47000000000E+01 0. -1.
          5    1    5    5  503    0  0.18063294416E+02 -0.24850030954E+02 -0.12748616978E+03  0.13121973986E+03  0.47000000000E+01 0.  1.
         -5    1    5    5    0  503 -0.60705433009E+02  0.16487324739E+02 -0.18068692710E+02  0.65616683322E+02  0.47000000000E+01 0.  1.
<mgrwt>
<rscale>  0 0.27597450E+03</rscale>
<asrwt>0</asrwt>
<pdfrwt beam="1">  1        1 0.11010831E-01 0.27597450E+03</pdfrwt>
<pdfrwt beam="2">  1       -1 0.40928998E-01 0.27597450E+03</pdfrwt>
<totfact> 0.33231237E+03</totfact>
</mgrwt>
</event>
<event>
 9    1  0.7926126E-001  0.2733615E+03  0.7818608E-02  0.1099371E+00
         -2   -1    0    0    0  501 -0.00000000000E+00  0.00000000000E+00  0.41881464436E+02  0.41881464436E+02  0.00000000000E+00 0.  1.
          2   -1    0    0  501    0  0.00000000000E+00 -0.00000000000E+00 -0.44605956111E+03  0.44605956111E+03  0.00000000000E+00 0.  1.
         35    2    1    2    0    0 -0.35527136788E-14  0.00000000000E+00 -0.40417809667E+03  0.48794102554E+03  0.27336150164E+03 0.  0.
         25    2    3    3    0    0  0.10425189003E+02 -0.37434637738E+02 -0.26958459270E+03  0.30037414217E+03  0.12664413132E+03 0.  0.
         25    2    3    3    0    0 -0.10425189003E+02  0.37434637738E+02 -0.13459350397E+03  0.18756688337E+03  0.12472324466E+03 0.  0.
          5    1    4    4  502    0 -0.26302071941E+02  0.12791658106E+02 -0.21630229594E+03  0.21832131993E+03  0.47000000000E+01 0. -1.
         -5    1    4    4    0  502  0.36727260943E+02 -0.50226295844E+02 -0.53282296757E+02  0.82052822245E+02  0.47000000000E+01 0. -1.
          5    1    5    5  503    0  0.20846637952E+02  0.64563828356E+02 -0.12859603658E+03  0.14547199342E+03  0.47000000000E+01 0. -1.
         -5    1    5    5    0  503 -0.31271826955E+02 -0.27129190618E+02 -0.59974673914E+01  0.42094889948E+02  0.47000000000E+01 0. -1.
<mgrwt>
<rscale>  0 0.27336150E+03</rscale>
<asrwt>0</asrwt>
<pdfrwt beam="1">  1        2 0.68624548E-01 0.27336150E+03</pdfrwt>
<pdfrwt beam="2">  1       -2 0.64433022E-02 0.27336150E+03</pdfrwt>
<totfact> 0.93178432E+03</totfact>
</mgrwt>
</event>
<event>
 9    1  0.7926126E-001  0.2773310E+03  0.7818608E-02  0.1097156E+00
         -1   -1    0    0    0  501 -0.00000000000E+00  0.00000000000E+00  0.39024266689E+02  0.39024266689E+02  0.00000000000E+00 0. -1.
          1   -1    0    0  501    0  0.00000000000E+00 -0.00000000000E+00 -0.49272224834E+03  0.49272224834E+03  0.00000000000E+00 0. -1.
         35    2    1    2    0    0  0.35527136788E-14 -0.71054273576E-14 -0.45369798165E+03  0.53174651502E+03  0.27733102548E+03 0.  0.
         25    2    3    3    0    0  0.93644725956E+01 -0.31905994520E+02 -0.32368114423E+03  0.34853931876E+03  0.12491792410E+03 0.  0.
         25    2    3    3    0    0 -0.93644725956E+01  0.31905994520E+02 -0.13001683742E+03  0.18320719626E+03  0.12471893568E+03 0.  0.
          5    1    4    4  502    0 -0.55370031181E+02  0.60429670116E+00 -0.16324031355E+03  0.17244041143E+03  0.47000000000E+01 0. -1.
         -5    1    4    4    0  502  0.64734503776E+02 -0.32510291221E+02 -0.16044083068E+03  0.17609890733E+03  0.47000000000E+01 0. -1.
          5    1    5    5  503    0 -0.14401954773E+02  0.56479250902E+02 -0.14305776557E+03  0.15454752140E+03  0.47000000000E+01 0. -1.
         -5    1    5    5    0  503  0.50374821770E+01 -0.24573256382E+02  0.13040928147E+02  0.28659674856E+02  0.47000000000E+01 0. -1.
<mgrwt>
<rscale>  0 0.27733103E+03</rscale>
<asrwt>0</asrwt>
<pdfrwt beam="1">  1        1 0.75803419E-01 0.27733103E+03</pdfrwt>
<pdfrwt beam="2">  1       -1 0.60037337E-02 0.27733103E+03</pdfrwt>
<totfact> 0.61201689E+03</totfact>
</mgrwt>
</event>
<event>
 9    1  0.7926126E-001  0.2733069E+03  0.7818608E-02  0.1099402E+00
         -2   -1    0    0    0  501 -0.00000000000E+00  0.00000000000E+00  0.80027876836E+02  0.80027876836E+02  0.00000000000E+00 0. -1.
          2   -1    0    0  501    0  0.00000000000E+00 -0.00000000000E+00 -0.23334573352E+03  0.23334573352E+03  0.00000000000E+00 0. -1.
         35    2    1    2    0    0 -0.71054273576E-14  0.00000000000E+00 -0.15331785669E+03  0.31337361036E+03  0.27330688702E+03 0.  0.
         25    2    3    3    0    0  0.45267321208E+01 -0.57551528168E+02 -0.86433392844E+02  0.16263002892E+03  0.12508047493E+03 0.  0.
         25    2    3    3    0    0 -0.45267321208E+01  0.57551528168E+02 -0.66884463843E+02  0.15074358144E+03  0.12213691557E+03 0.  0.
          5    1    4    4  502    0  0.24221550555E+02  0.26877352101E+01  0.24441309371E+02  0.34833533206E+02  0.47000000000E+01 0.  1.
         -5    1    4    4    0  502 -0.19694818434E+02 -0.60239263378E+02 -0.11087470221E+03  0.12779649571E+03  0.47000000000E+01 0.  1.
          5    1    5    5  503    0  0.55603899977E+02  0.36837156796E+02 -0.53376970269E+02  0.85556769274E+02  0.47000000000E+01 0.  1.
         -5    1    5    5    0  503 -0.60130632098E+02  0.20714371373E+02 -0.13507493574E+02  0.65186812167E+02  0.47000000000E+01 0.  1.
<mgrwt>
<rscale>  0 0.27330689E+03</rscale>
<asrwt>0</asrwt>
<pdfrwt beam="1">  1        2 0.35899343E-01 0.27330689E+03</pdfrwt>
<pdfrwt beam="2">  1       -2 0.12311981E-01 0.27330689E+03</pdfrwt>
<totfact> 0.67651692E+03</totfact>
</mgrwt>
</event>
<event>
 9    1  0.7926126E-001  0.2766020E+03  0.7818608E-02  0.1097559E+00
         -2   -1    0    0    0  501 -0.00000000000E+00  0.00000000000E+00  0.40886418551E+02  0.40886418551E+02  0.00000000000E+00 0.  1.
          2   -1    0    0  501    0  0.00000000000E+00 -0.00000000000E+00 -0.46781207503E+03  0.46781207503E+03  0.00000000000E+00 0.  1.
         35    2    1    2    0    0 -0.35527136788E-14  0.00000000000E+00 -0.42692565648E+03  0.50869849358E+03  0.27660195446E+03 0.  0.
         25    2    3    3    0    0  0.31969876344E+01 -0.30201482457E+02 -0.12342831170E+03  0.17869007664E+03  0.12559158048E+03 0.  0.
         25    2    3    3    0    0 -0.31969876344E+01  0.30201482457E+02 -0.30349734478E+03  0.33000841694E+03  0.12598637502E+03 0.  0.
          5    1    4    4  502    0 -0.57433677487E+02  0.84507003782E+00 -0.36762643158E+02  0.68358784257E+02  0.47000000000E+01 0.  1.
         -5    1    4    4    0  502  0.60630665122E+02 -0.31046552494E+02 -0.86665668542E+02  0.11033129238E+03  0.47000000000E+01 0.  1.
          5    1    5    5  503    0  0.11097966357E+02  0.52341007220E+02 -0.29784473576E+03  0.30264884357E+03  0.47000000000E+01 0.  1.
         -5    1    5    5    0  503 -0.14294953992E+02 -0.22139524763E+02 -0.56526090190E+01  0.27359573372E+02  0.47000000000E+01 0.  1.
<mgrwt>
<rscale>  0 0.27660195E+03</rscale>
<asrwt>0</asrwt>
<pdfrwt beam="1">  1        2 0.71971083E-01 0.27660195E+03</pdfrwt>
<pdfrwt beam="2">  1       -2 0.62902187E-02 0.27660195E+03</pdfrwt>
<totfact> 0.91785818E+03</totfact>
</mgrwt>
</event>
<event>
 9    1  0.7926126E-001  0.2766336E+03  0.7818608E-02  0.1097542E+00
         -2   -1    0    0    0  501 -0.00000000000E+00  0.00000000000E+00  0.45887411710E+02  0.45887411710E+02  0.00000000000E+00 0. -1.
          2   -1    0    0  501    0  0.00000000000E+00 -0.00000000000E+00 -0.41692344502E+03  0.41692344502E+03  0.00000000000E+00 0. -1.
         35    2    1    2    0    0  0.00000000000E+00  0.71054273576E-14 -0.37103603330E+03  0.46281085673E+03  0.27663360442E+03 0.  0.
         25    2    3    3    0    0  0.10444727798E+02  0.46383682163E+02 -0.12392237143E+03  0.18200552933E+03  0.12453401245E+03 0.  0.
         25    2    3    3    0    0 -0.10444727798E+02 -0.46383682163E+02 -0.24711366187E+03  0.28080532739E+03  0.12460309667E+03 0.  0.
          5    1    4    4  502    0  0.37666917857E+02  0.22663872747E+02  0.81944060682E+01  0.44963164029E+02  0.47000000000E+01 0. -1.
         -5    1    4    4    0  502 -0.27222190059E+02  0.23719809416E+02 -0.13211677750E+03  0.13704236530E+03  0.47000000000E+01 0. -1.
          5    1    5    5  503    0 -0.67124747888E+02 -0.27092082776E+02 -0.12005037738E+03  0.14026366542E+03  0.47000000000E+01 0. -1.
         -5    1    5    5    0  503  0.56680020090E+02 -0.19291599387E+02 -0.12706328450E+03  0.14054166198E+03  0.47000000000E+01 0. -1.
<mgrwt>
<rscale>  0 0.27663360E+03</rscale>
<asrwt>0</asrwt>
<pdfrwt beam="1">  1        2 0.64142066E-01 0.27663360E+03</pdfrwt>
<pdfrwt beam="2">  1       -2 0.70596020E-02 0.27663360E+03</pdfrwt>
<totfact> 0.87167836E+03</totfact>
</mgrwt>
</event>
<event>
 9    1  0.7926126E-001  0.2674933E+03  0.7818608E-02  0.1102723E+00
          2   -1    0    0  501    0  0.00000000000E+00  0.00000000000E+00  0.65086598069E+02  0.65086598069E+02  0.00000000000E+00 0. -1.
         -2   -1    0    0    0  501 -0.00000000000E+00 -0.00000000000E+00 -0.27483634139E+03  0.27483634139E+03  0.00000000000E+00 0. -1.
         35    2    1    2    0    0 -0.71054273576E-14  0.35527136788E-14 -0.20974974333E+03  0.33992293946E+03  0.26749327085E+03 0.  0.
         25    2    3    3    0    0  0.26138275067E+00  0.83630347096E+01 -0.16853048780E+03  0.20853794164E+03  0.12253790889E+03 0.  0.
         25    2    3    3    0    0 -0.26138275067E+00 -0.83630347096E+01 -0.41219255527E+02  0.13138499782E+03  0.12447080764E+03 0.  0.
          5    1    4    4  502    0  0.27018857778E+02 -0.38959152069E+02 -0.13804075852E+03  0.14603141860E+03  0.47000000000E+01 0.  1.
         -5    1    4    4    0  502 -0.26757475027E+02  0.47322186779E+02 -0.30489729280E+02  0.62506523043E+02  0.47000000000E+01 0.  1.
          5    1    5    5  503    0  0.50517889653E+02  0.74860447696E+01  0.15406953523E+02  0.53549624258E+02  0.47000000000E+01 0. -1.
         -5    1    5    5    0  503 -0.50779272404E+02 -0.15849079479E+02 -0.56626209050E+02  0.77835373562E+02  0.47000000000E+01 0. -1.
<mgrwt>
<rscale>  0 0.26749327E+03</rscale>
<asrwt>0</asrwt>
<pdfrwt beam="1">  1        2 0.10013323E-01 0.26749327E+03</pdfrwt>
<pdfrwt beam="2">  1       -2 0.42282514E-01 0.26749327E+03</pdfrwt>
<totfact> 0.34034328E+03</totfact>
</mgrwt>
</event>
<event>
 9    1  0.7926126E-001  0.2719298E+03  0.7818608E-02  0.1100180E+00
          2   -1    0    0  501    0  0.00000000000E+00  0.00000000000E+00  0.22834202191E+04  0.22834202191E+04  0.00000000000E+00 0.  1.
         -2   -1    0    0    0  501 -0.00000000000E+00 -0.00000000000E+00 -0.80959518571E+01  0.80959518571E+01  0.00000000000E+00 0.  1.
         35    2    1    2    0    0 -0.71054273576E-14 -0.35527136788E-14  0.22753242672E+04  0.22915161709E+04  0.27192984509E+03 0.  0.
         25    2    3    3    0    0  0.44608162655E+02  0.27581958545E+02  0.11678822811E+04  0.11757603407E+04  0.12535032313E+03 0.  0.
         25    2    3    3    0    0 -0.44608162655E+02 -0.27581958545E+02  0.11074419861E+04  0.11157558303E+04  0.12542993102E+03 0.  0.
          5    1    4    4  502    0 -0.52578452621E+01  0.52267927264E+02  0.21995956667E+03  0.22619434592E+03  0.47000000000E+01 0.  1.
         -5    1    4    4    0  502  0.49866007917E+02 -0.24685968719E+02  0.94792271446E+03  0.94956599475E+03  0.47000000000E+01 0.  1.
          5    1    5    5  503    0 -0.80537588390E+02 -0.47933712990E+02  0.71937713970E+03  0.72547191752E+03  0.47000000000E+01 0.  1.
         -5    1    5    5    0  503  0.35929425735E+02  0.20351754445E+02  0.38806484639E+03  0.39028391274E+03  0.47000000000E+01 0.  1.
<mgrwt>
<rscale>  0 0.27192985E+03</rscale>
<asrwt>0</asrwt>
<pdfrwt beam="1">  1        2 0.35129491E+00 0.27192985E+03</pdfrwt>
<pdfrwt beam="2">  1       -2 0.12455329E-02 0.27192985E+03</pdfrwt>
<totfact> 0.81361229E+03</totfact>
</mgrwt>
</event>
<event>
 9    1  0.7926126E-001  0.2747408E+03  0.7818608E-02  0.1098597E+00
          2   -1    0    0  501    0  0.00000000000E+00  0.00000000000E+00  0.12326016773E+03  0.12326016773E+03  0.00000000000E+00 0.  1.
         -2   -1    0    0    0  501 -0.00000000000E+00 -0.00000000000E+00 -0.15309587069E+03  0.15309587069E+03  0.00000000000E+00 0.  1.
         35    2    1    2    0    0  0.00000000000E+00  0.00000000000E+00 -0.29835702966E+02  0.27635603842E+03  0.27474077018E+03 0.  0.
         25    2    3    3    0    0 -0.15628065166E+02  0.15681984578E+02 -0.67262276576E+02  0.14353238650E+03  0.12484859255E+03 0.  0.
         25    2    3    3    0    0  0.15628065166E+02 -0.15681984578E+02  0.37426573609E+02  0.13282365192E+03  0.12550383674E+03 0.  0.
          5    1    4    4  502    0  0.41396516095E+02 -0.26319544889E+02 -0.50583887706E+02  0.70620179011E+02  0.47000000000E+01 0.  1.
         -5    1    4    4    0  502 -0.57024581262E+02  0.42001529467E+02 -0.16678388869E+02  0.72912207489E+02  0.47000000000E+01 0.  1.
          5    1    5    5  503    0 -0.45960800304E+02  0.37202952521E+00 -0.16714203210E+02  0.49132353490E+02  0.47000000000E+01 0. -1.
         -5    1    5    5    0  503  0.61588865471E+02 -0.16054014103E+02  0.54140776819E+02  0.83691298433E+02  0.47000000000E+01 0. -1.
<mgrwt>
<rscale>  0 0.27474077E+03</rscale>
<asrwt>0</asrwt>
<pdfrwt beam="1">  1        2 0.18963103E-01 0.27474077E+03</pdfrwt>
<pdfrwt beam="2">  1       -2 0.23553211E-01 0.27474077E+03</pdfrwt>
<totfact> 0.46369360E+03</totfact>
</mgrwt>
</event>
<event>
 9    1  0.7926126E-001  0.2756245E+03  0.7818608E-02  0.1098103E+00
         -1   -1    0    0    0  501 -0.00000000000E+00  0.00000000000E+00  0.72379287267E+02  0.72379287267E+02  0.00000000000E+00 0. -1.
          1   -1    0    0  501    0  0.00000000000E+00 -0.00000000000E+00 -0.26239845247E+03  0.26239845247E+03  0.00000000000E+00 0. -1.
         35    2    1    2    0    0  0.35527136788E-14  0.00000000000E+00 -0.19001916521E+03  0.33477773974E+03  0.27562447620E+03 0.  0.
         25    2    3    3    0    0  0.97204324332E+01 -0.51498403402E+02 -0.61939122477E+02  0.14867377875E+03  0.12458276460E+03 0.  0.
         25    2    3    3    0    0 -0.97204324332E+01  0.51498403402E+02 -0.12808004273E+03  0.18610396099E+03  0.12443317319E+03 0.  0.
          5    1    4    4  502    0  0.30127479276E+01  0.35065495912E+02  0.88015144796E+01  0.36581720993E+02  0.47000000000E+01 0.  1.
         -5    1    4    4    0  502  0.67076845056E+01 -0.86563899315E+02 -0.70740636957E+02  0.11209205776E+03  0.47000000000E+01 0.  1.
          5    1    5    5  503    0 -0.70993949601E+01 -0.16176774202E+02 -0.11565090456E+03  0.11708676765E+03  0.47000000000E+01 0.  1.
         -5    1    5    5    0  503 -0.26210374732E+01  0.67675177605E+02 -0.12429138171E+02  0.69017193343E+02  0.47000000000E+01 0.  1.
<mgrwt>
<rscale>  0 0.27562448E+03</rscale>
<asrwt>0</asrwt>
<pdfrwt beam="1">  1        1 0.40368992E-01 0.27562448E+03</pdfrwt>
<pdfrwt beam="2">  1       -1 0.11135275E-01 0.27562448E+03</pdfrwt>
<totfact> 0.53155494E+03</totfact>
</mgrwt>
</event>
<event>
 9    1  0.7926126E-001  0.2814981E+03  0.7818608E-02  0.1094874E+00
         -3   -1    0    0    0  501 -0.00000000000E+00  0.00000000000E+00  0.34911833458E+03  0.34911833458E+03  0.00000000000E+00 0. -1.
          3   -1    0    0  501    0  0.00000000000E+00 -0.00000000000E+00 -0.56743777214E+02  0.56743777214E+02  0.00000000000E+00 0. -1.
         35    2    1    2    0    0  0.00000000000E+00 -0.71054273576E-14  0.29237455737E+03  0.40586211179E+03  0.28149808524E+03 0.  0.
         25    2    3    3    0    0  0.37506908610E+02  0.47902538119E+02  0.17199031782E+03  0.22129529591E+03  0.12525780303E+03 0.  0.
         25    2    3    3    0    0 -0.37506908610E+02 -0.47902538119E+02  0.12038423955E+03  0.18456681588E+03  0.12598064550E+03 0.  0.
          5    1    4    4  502    0  0.78142865824E+02  0.39202641201E+02  0.73571144328E+02  0.11435889923E+03  0.47000000000E+01 0. -1.
         -5    1    4    4    0  502 -0.40635957214E+02  0.86998969171E+01  0.98419173487E+02  0.10693639668E+03  0.47000000000E+01 0. -1.
          5    1    5    5  503    0 -0.35910676347E+02 -0.71409688026E+01  0.13578331904E+03  0.14071165495E+03  0.47000000000E+01 0. -1.
         -5    1    5    5    0  503 -0.15962322632E+01 -0.40761569316E+02 -0.15399079488E+02  0.43855160923E+02  0.47000000000E+01 0. -1.
<mgrwt>
<rscale>  0 0.28149809E+03</rscale>
<asrwt>0</asrwt>
<pdfrwt beam="1">  1        3 0.87298121E-02 0.28149809E+03</pdfrwt>
<pdfrwt beam="2">  1       -3 0.53710512E-01 0.28149809E+03</pdfrwt>
<totfact> 0.81371067E+02</totfact>
</mgrwt>
</event>
<event>
 9    1  0.7926126E-001  0.2651472E+03  0.7818608E-02  0.1104090E+00
          2   -1    0    0  501    0  0.00000000000E+00  0.00000000000E+00  0.11504175635E+04  0.11504175635E+04  0.00000000000E+00 0. -1.
         -2   -1    0    0    0  501 -0.00000000000E+00 -0.00000000000E+00 -0.15277718718E+02  0.15277718718E+02  0.00000000000E+00 0. -1.
         35    2    1    2    0    0  0.00000000000E+00 -0.71054273576E-14  0.11351398448E+04  0.11656952822E+04  0.26514717380E+03 0.  0.
         25    2    3    3    0    0  0.11826395625E+02  0.41278174043E+02  0.52553468064E+03  0.54179372353E+03  0.12453909835E+03 0.  0.
         25    2    3    3    0    0 -0.11826395625E+02 -0.41278174043E+02  0.60960516416E+03  0.62390155870E+03  0.12566203681E+03 0.  0.
          5    1    4    4  502    0 -0.20093574916E+02 -0.39334496348E+02  0.20047149451E+03  0.20533354442E+03  0.47000000000E+01 0. -1.
         -5    1    4    4    0  502  0.31919970541E+02  0.80612670391E+02  0.32506318613E+03  0.33646017911E+03  0.47000000000E+01 0. -1.
          5    1    5    5  503    0 -0.32763424853E+02 -0.20158596343E+02  0.58125905982E+03  0.58254956496E+03  0.47000000000E+01 0. -1.
         -5    1    5    5    0  503  0.20937029228E+02 -0.21119577700E+02  0.28346104342E+02  0.41351993742E+02  0.47000000000E+01 0. -1.
<mgrwt>
<rscale>  0 0.26514717E+03</rscale>
<asrwt>0</asrwt>
<pdfrwt beam="1">  1        2 0.17698725E+00 0.26514717E+03</pdfrwt>
<pdfrwt beam="2">  1       -2 0.23504192E-02 0.26514717E+03</pdfrwt>
<totfact> 0.12956450E+04</totfact>
</mgrwt>
</event>
<event>
 9    1  0.7926126E-001  0.2713616E+03  0.7818608E-02  0.1100503E+00
          3   -1    0    0  501    0  0.00000000000E+00  0.00000000000E+00  0.10646576701E+03  0.10646576701E+03  0.00000000000E+00 0.  1.
         -3   -1    0    0    0  501 -0.00000000000E+00 -0.00000000000E+00 -0.17291269430E+03  0.17291269430E+03  0.00000000000E+00 0.  1.
         35    2    1    2    0    0 -0.35527136788E-14  0.71054273576E-14 -0.66446927297E+02  0.27937846131E+03  0.27136162311E+03 0.  0.
         25    2    3    3    0    0  0.26820240784E+02 -0.42975223652E+02 -0.50657855994E+02  0.14299961714E+03  0.12375975503E+03 0.  0.
         25    2    3    3    0    0 -0.26820240784E+02  0.42975223652E+02 -0.15789071303E+02  0.13637884417E+03  0.12563319307E+03 0.  0.
          5    1    4    4  502    0  0.20606271413E+02  0.42109173593E+02 -0.27174991376E+02  0.54390909888E+02  0.47000000000E+01 0. -1.
         -5    1    4    4    0  502  0.62139693715E+01 -0.85084397244E+02 -0.23482864618E+02  0.88608707249E+02  0.47000000000E+01 0. -1.
          5    1    5    5  503    0 -0.42631941510E+02  0.68819874597E+02  0.25450139151E+02  0.84990923982E+02  0.47000000000E+01 0. -1.
         -5    1    5    5    0  503  0.15811700726E+02 -0.25844650946E+02 -0.41239210454E+02  0.51387920188E+02  0.47000000000E+01 0. -1.
<mgrwt>
<rscale>  0 0.27136162E+03</rscale>
<asrwt>0</asrwt>
<pdfrwt beam="1">  1        3 0.16379349E-01 0.27136162E+03</pdfrwt>
<pdfrwt beam="2">  1       -3 0.26601953E-01 0.27136162E+03</pdfrwt>
<totfact> 0.10856234E+03</totfact>
</mgrwt>
</event>
<event>
 9    1  0.7926126E-001  0.2783485E+03  0.7818608E-02  0.1096594E+00
         -2   -1    0    0    0  501 -0.00000000000E+00  0.00000000000E+00  0.32675885703E+02  0.32675885703E+02  0.00000000000E+00 0.  1.
          2   -1    0    0  501    0  0.00000000000E+00 -0.00000000000E+00 -0.59277555977E+03  0.59277555977E+03  0.00000000000E+00 0.  1.
         35    2    1    2    0    0 -0.71054273576E-14  0.00000000000E+00 -0.56009967407E+03  0.62545144547E+03  0.27834846102E+03 0.  0.
         25    2    3    3    0    0  0.43243717670E+02  0.38853888926E+02 -0.32946342946E+03  0.35697596921E+03  0.12452328072E+03 0.  0.
         25    2    3    3    0    0 -0.43243717670E+02 -0.38853888926E+02 -0.23063624461E+03  0.26847547626E+03  0.12452453663E+03 0.  0.
          5    1    4    4  502    0 -0.27177393487E+02  0.12782779072E+02 -0.15498944675E+02  0.34122096119E+02  0.47000000000E+01 0. -1.
         -5    1    4    4    0  502  0.70421111157E+02  0.26071109853E+02 -0.31396448478E+03  0.32285387309E+03  0.47000000000E+01 0. -1.
          5    1    5    5  503    0  0.39926520881E+02 -0.23612412963E+02 -0.46746465617E+02  0.66022686732E+02  0.47000000000E+01 0. -1.
         -5    1    5    5    0  503 -0.83170238551E+02 -0.15241475963E+02 -0.18388977899E+03  0.20245278953E+03  0.47000000000E+01 0. -1.
<mgrwt>
<rscale>  0 0.27834846E+03</rscale>
<asrwt>0</asrwt>
<pdfrwt beam="1">  1        2 0.91196236E-01 0.27834846E+03</pdfrwt>
<pdfrwt beam="2">  1       -2 0.50270595E-02 0.27834846E+03</pdfrwt>
<totfact> 0.98969831E+03</totfact>
</mgrwt>
</event>
<event>
 9    1  0.7926126E-001  0.2890939E+03  0.7818608E-02  0.1090823E+00
         -3   -1    0    0    0  501 -0.00000000000E+00  0.00000000000E+00  0.23997740228E+03  0.23997740228E+03  0.00000000000E+00 0. -1.
          3   -1    0    0  501    0  0.00000000000E+00 -0.00000000000E+00 -0.87065761428E+02  0.87065761428E+02  0.00000000000E+00 0. -1.
         35    2    1    2    0    0 -0.71054273576E-14  0.14210854715E-13  0.15291164086E+03  0.32704316371E+03  0.28909386196E+03 0.  0.
         25    2    3    3    0    0 -0.49355865507E+02 -0.51964229431E+02  0.61143845467E+02  0.15656284065E+03  0.12504827321E+03 0.  0.
         25    2    3    3    0    0  0.49355865507E+02  0.51964229431E+02  0.91767795390E+02  0.17048032306E+03  0.12452280787E+03 0.  0.
          5    1    4    4  502    0 -0.78931400013E+02 -0.39214142228E+01  0.91461782923E+01  0.79694955768E+02  0.47000000000E+01 0.  1.
         -5    1    4    4    0  502  0.29575534506E+02 -0.48042815208E+02  0.51997667175E+02  0.76867884881E+02  0.47000000000E+01 0.  1.
          5    1    5    5  503    0 -0.33067137615E+02  0.44340521763E+02  0.15033922680E+02  0.57511966507E+02  0.47000000000E+01 0. -1.
         -5    1    5    5    0  503  0.82423003122E+02  0.76237076671E+01  0.76733872710E+02  0.11296835656E+03  0.47000000000E+01 0. -1.
<mgrwt>
<rscale>  0 0.28909386E+03</rscale>
<asrwt>0</asrwt>
<pdfrwt beam="1">  1        3 0.13394733E-01 0.28909386E+03</pdfrwt>
<pdfrwt beam="2">  1       -3 0.36919600E-01 0.28909386E+03</pdfrwt>
<totfact> 0.83487773E+02</totfact>
</mgrwt>
</event>
<event>
 9    1  0.7926126E-001  0.2733106E+03  0.7818608E-02  0.1099400E+00
         -2   -1    0    0    0  501 -0.00000000000E+00  0.00000000000E+00  0.64794080763E+02  0.64794080763E+02  0.00000000000E+00 0.  1.
          2   -1    0    0  501    0  0.00000000000E+00 -0.00000000000E+00 -0.28821576965E+03  0.28821576965E+03  0.00000000000E+00 0.  1.
         35    2    1    2    0    0 -0.71054273576E-14  0.71054273576E-14 -0.22342168889E+03  0.35300985041E+03  0.27331063540E+03 0.  0.
         25    2    3    3    0    0 -0.45805999676E+02  0.15451614644E+02 -0.78521717474E+02  0.15630225922E+03  0.12620536487E+03 0.  0.
         25    2    3    3    0    0  0.45805999676E+02 -0.15451614644E+02 -0.14489997141E+03  0.19670759119E+03  0.12393922993E+03 0.  0.
          5    1    4    4  502    0  0.20814267997E+02 -0.40162774518E+02 -0.42422156157E+02  0.62193340016E+02  0.47000000000E+01 0.  1.
         -5    1    4    4    0  502 -0.66620267673E+02  0.55614389162E+02 -0.36099561317E+02  0.94108919205E+02  0.47000000000E+01 0.  1.
          5    1    5    5  503    0  0.51104771924E+02 -0.59723732920E+02 -0.54393479433E+02  0.95704558889E+02  0.47000000000E+01 0. -1.
         -5    1    5    5    0  503 -0.52987722487E+01  0.44272118277E+02 -0.90506491981E+02  0.10100303230E+03  0.47000000000E+01 0. -1.
<mgrwt>
<rscale>  0 0.27331064E+03</rscale>
<asrwt>0</asrwt>
<pdfrwt beam="1">  1        2 0.44340888E-01 0.27331064E+03</pdfrwt>
<pdfrwt beam="2">  1       -2 0.99683200E-02 0.27331064E+03</pdfrwt>
<totfact> 0.75572014E+03</totfact>
</mgrwt>
</event>
<event>
 9    1  0.7926126E-001  0.2745601E+03  0.7818608E-02  0.1098698E+00
         -1   -1    0    0    0  501 -0.00000000000E+00  0.00000000000E+00  0.50921070856E+02  0.50921070856E+02  0.00000000000E+00 0. -1.
          1   -1    0    0  501    0  0.00000000000E+00 -0.00000000000E+00 -0.37009839500E+03  0.37009839500E+03  0.00000000000E+00 0. -1.
         35    2    1    2    0    0  0.35527136788E-14 -0.71054273576E-14 -0.31917732414E+03  0.42101946585E+03  0.27456005970E+03 0.  0.
         25    2    3    3    0    0  0.26895161886E+02 -0.32319704831E+02 -0.21604693981E+03  0.25299378446E+03  0.12474638962E+03 0.  0.
         25    2    3    3    0    0 -0.26895161886E+02  0.32319704831E+02 -0.10313038433E+03  0.16802568139E+03  0.12581271947E+03 0.  0.
          5    1    4    4  502    0  0.16437492312E+01 -0.42221865290E+01  0.16294869277E+02  0.17553960675E+02  0.47000000000E+01 0. -1.
         -5    1    4    4    0  502  0.25251412655E+02 -0.28097518302E+02 -0.23234180908E+03  0.23543982378E+03  0.47000000000E+01 0. -1.
          5    1    5    5  503    0 -0.27071745900E+02  0.75277078206E+02 -0.35223286257E+02  0.87534495052E+02  0.47000000000E+01 0. -1.
         -5    1    5    5    0  503  0.17658401354E+00 -0.42957373375E+02 -0.67907098077E+02  0.80491186340E+02  0.47000000000E+01 0. -1.
<mgrwt>
<rscale>  0 0.27456006E+03</rscale>
<asrwt>0</asrwt>
<pdfrwt beam="1">  1        1 0.56938214E-01 0.27456006E+03</pdfrwt>
<pdfrwt beam="2">  1       -1 0.78340111E-02 0.27456006E+03</pdfrwt>
<totfact> 0.59198935E+03</totfact>
</mgrwt>
</event>
<event>
 9    1  0.7926126E-001  0.2677887E+03  0.7818608E-02  0.1102552E+00
          2   -1    0    0  501    0  0.00000000000E+00  0.00000000000E+00  0.24053298014E+04  0.24053298014E+04  0.00000000000E+00 0.  1.
         -2   -1    0    0    0  501 -0.00000000000E+00 -0.00000000000E+00 -0.74533199907E+01  0.74533199907E+01  0.00000000000E+00 0.  1.
         35    2    1    2    0    0  0.35527136788E-14  0.00000000000E+00  0.23978764814E+04  0.24127831214E+04  0.26778866812E+03 0.  0.
         25    2    3    3    0    0  0.18844265761E+02 -0.46889122934E+02  0.12011501083E+04  0.12085360282E+04  0.12346680807E+03 0.  0.
         25    2    3    3    0    0 -0.18844265761E+02  0.46889122934E+02  0.11967263731E+04  0.12042470932E+04  0.12451246144E+03 0.  0.
          5    1    4    4  502    0  0.24029750780E+02  0.38610662786E+02  0.51977493638E+03  0.52178183822E+03  0.47000000000E+01 0. -1.
         -5    1    4    4    0  502 -0.51854850190E+01 -0.85499785720E+02  0.68137517188E+03  0.68675418999E+03  0.47000000000E+01 0. -1.
          5    1    5    5  503    0 -0.45085703818E+02 -0.68038087047E+01  0.17964884997E+03  0.18540445463E+03  0.47000000000E+01 0.  1.
         -5    1    5    5    0  503  0.26241438057E+02  0.53692931639E+02  0.10170775232E+04  0.10188426385E+04  0.47000000000E+01 0.  1.
<mgrwt>
<rscale>  0 0.26778867E+03</rscale>
<asrwt>0</asrwt>
<pdfrwt beam="1">  1        2 0.37005012E+00 0.26778867E+03</pdfrwt>
<pdfrwt beam="2">  1       -2 0.11466665E-02 0.26778867E+03</pdfrwt>
<totfact> 0.78900922E+03</totfact>
</mgrwt>
</event>
<event>
 9    1  0.7926126E-001  0.2751303E+03  0.7818608E-02  0.1098379E+00
         -1   -1    0    0    0  501 -0.00000000000E+00  0.00000000000E+00  0.54478134329E+02  0.54478134329E+02  0.00000000000E+00 0. -1.
          1   -1    0    0  501    0  0.00000000000E+00 -0.00000000000E+00 -0.34737194252E+03  0.34737194252E+03  0.00000000000E+00 0. -1.
         35    2    1    2    0    0  0.71054273576E-14  0.00000000000E+00 -0.29289380819E+03  0.40185007685E+03  0.27513033527E+03 0.  0.
         25    2    3    3    0    0  0.26316841050E+02  0.51062718033E+02 -0.11709127417E+03  0.17881420256E+03  0.12232814580E+03 0.  0.
         25    2    3    3    0    0 -0.26316841050E+02 -0.51062718033E+02 -0.17580253402E+03  0.22303587429E+03  0.12465349155E+03 0.  0.
          5    1    4    4  502    0  0.30806012354E+02  0.88824854447E+02 -0.66063229398E+02  0.11500132801E+03  0.47000000000E+01 0. -1.
         -5    1    4    4    0  502 -0.44891713034E+01 -0.37762136414E+02 -0.51028044770E+02  0.63812874552E+02  0.47000000000E+01 0. -1.
          5    1    5    5  503    0  0.39560707310E+02 -0.54413118645E+02 -0.63050226242E+02  0.92321493016E+02  0.47000000000E+01 0.  1.
         -5    1    5    5    0  503 -0.65877548360E+02  0.33504006120E+01 -0.11275230778E+03  0.13071438127E+03  0.47000000000E+01 0.  1.
<mgrwt>
<rscale>  0 0.27513034E+03</rscale>
<asrwt>0</asrwt>
<pdfrwt beam="1">  1        1 0.53441836E-01 0.27513034E+03</pdfrwt>
<pdfrwt beam="2">  1       -1 0.83812516E-02 0.27513034E+03</pdfrwt>
<totfact> 0.57875334E+03</totfact>
</mgrwt>
</event>
<event>
 9    1  0.7926126E-001  0.2753658E+03  0.7818608E-02  0.1098247E+00
          1   -1    0    0  501    0  0.00000000000E+00  0.00000000000E+00  0.61115625062E+03  0.61115625062E+03  0.00000000000E+00 0.  1.
         -1   -1    0    0    0  501 -0.00000000000E+00 -0.00000000000E+00 -0.31017578467E+02  0.31017578467E+02  0.00000000000E+00 0.  1.
         35    2    1    2    0    0 -0.71054273576E-14  0.71054273576E-14  0.58013867216E+03  0.64217382909E+03  0.27536584363E+03 0.  0.
         25    2    3    3    0    0  0.20397400590E+02 -0.52579472557E+02  0.25567321993E+03  0.28990105590E+03  0.12447157079E+03 0.  0.
         25    2    3    3    0    0 -0.20397400590E+02  0.52579472557E+02  0.32446545222E+03  0.35227277319E+03  0.12505047845E+03 0.  0.
          5    1    4    4  502    0  0.69285728170E+02 -0.50560954130E+02  0.14053650698E+03  0.16471041863E+03  0.47000000000E+01 0.  1.
         -5    1    4    4    0  502 -0.48888327580E+02 -0.20185184275E+01  0.11513671296E+03  0.12519063727E+03  0.47000000000E+01 0.  1.
          5    1    5    5  503    0 -0.45802298506E+01  0.30025697105E+02  0.44682235870E+01  0.31057624090E+02  0.47000000000E+01 0. -1.
         -5    1    5    5    0  503 -0.15817170739E+02  0.22553775453E+02  0.31999722864E+03  0.32121514910E+03  0.47000000000E+01 0. -1.
<mgrwt>
<rscale>  0 0.27536584E+03</rscale>
<asrwt>0</asrwt>
<pdfrwt beam="1">  1        1 0.94024030E-01 0.27536584E+03</pdfrwt>
<pdfrwt beam="2">  1       -1 0.47719356E-02 0.27536584E+03</pdfrwt>
<totfact> 0.64478449E+03</totfact>
</mgrwt>
</event>
<event>
 9    1  0.7926126E-001  0.2760019E+03  0.7818608E-02  0.1097893E+00
          1   -1    0    0  501    0  0.00000000000E+00  0.00000000000E+00  0.41914647797E+03  0.41914647797E+03  0.00000000000E+00 0.  1.
         -1   -1    0    0    0  501 -0.00000000000E+00 -0.00000000000E+00 -0.45435826740E+02  0.45435826740E+02  0.00000000000E+00 0.  1.
         35    2    1    2    0    0  0.14210854715E-13  0.00000000000E+00  0.37371065123E+03  0.46458230471E+03  0.27600193298E+03 0.  0.
         25    2    3    3    0    0 -0.29311707642E+02 -0.42147260145E+01  0.10070965342E+03  0.16303495656E+03  0.12474382809E+03 0.  0.
         25    2    3    3    0    0  0.29311707642E+02  0.42147260145E+01  0.27300099781E+03  0.30154734816E+03  0.12459662217E+03 0.  0.
          5    1    4    4  502    0 -0.62526376776E+02  0.36865486507E+02  0.42315626937E+02  0.84150544688E+02  0.47000000000E+01 0.  1.
         -5    1    4    4    0  502  0.33214669134E+02 -0.41080212522E+02  0.58394026485E+02  0.78884411867E+02  0.47000000000E+01 0.  1.
          5    1    5    5  503    0 -0.19411700496E+02 -0.49284906780E+02  0.14484684080E+03  0.15430007596E+03  0.47000000000E+01 0. -1.
         -5    1    5    5    0  503  0.48723408138E+02  0.53499632795E+02  0.12815415701E+03  0.14724727219E+03  0.47000000000E+01 0. -1.
<mgrwt>
<rscale>  0 0.27600193E+03</rscale>
<asrwt>0</asrwt>
<pdfrwt beam="1">  1        1 0.64484071E-01 0.27600193E+03</pdfrwt>
<pdfrwt beam="2">  1       -1 0.69901274E-02 0.27600193E+03</pdfrwt>
<totfact> 0.60046423E+03</totfact>
</mgrwt>
</event>
<event>
 9    1  0.7926126E-001  0.2764906E+03  0.7818608E-02  0.1097621E+00
          1   -1    0    0  501    0  0.00000000000E+00  0.00000000000E+00  0.57843136764E+03  0.57843136764E+03  0.00000000000E+00 0. -1.
         -1   -1    0    0    0  501 -0.00000000000E+00 -0.00000000000E+00 -0.33040685880E+02  0.33040685880E+02  0.00000000000E+00 0. -1.
         35    2    1    2    0    0  0.00000000000E+00  0.00000000000E+00  0.54539068176E+03  0.61147205352E+03  0.27649064448E+03 0.  0.
         25    2    3    3    0    0 -0.19905441013E+02 -0.23926938772E+02  0.16063977705E+03  0.20551193720E+03  0.12434344929E+03 0.  0.
         25    2    3    3    0    0  0.19905441013E+02  0.23926938772E+02  0.38475090472E+03  0.40596011632E+03  0.12570454401E+03 0.  0.
          5    1    4    4  502    0 -0.59851708411E+02 -0.22226644034E+02  0.15115366505E+03  0.16415167122E+03  0.47000000000E+01 0. -1.
         -5    1    4    4    0  502  0.39946267398E+02 -0.17002947371E+01  0.94861119921E+01  0.41360265980E+02  0.47000000000E+01 0. -1.
          5    1    5    5  503    0 -0.45579958785E+02 -0.93055147139E+01  0.22868771612E+03  0.23341869409E+03  0.47000000000E+01 0.  1.
         -5    1    5    5    0  503  0.65485399799E+02  0.33232453485E+02  0.15606318860E+03  0.17254142223E+03  0.47000000000E+01 0.  1.
<mgrwt>
<rscale>  0 0.27649064E+03</rscale>
<asrwt>0</asrwt>
<pdfrwt beam="1">  1        1 0.88989434E-01 0.27649064E+03</pdfrwt>
<pdfrwt beam="2">  1       -1 0.50831829E-02 0.27649064E+03</pdfrwt>
<totfact> 0.63312154E+03</totfact>
</mgrwt>
</event>
<event>
 9    1  0.7926126E-001  0.2774998E+03  0.7818608E-02  0.1097062E+00
          1   -1    0    0  501    0  0.00000000000E+00  0.00000000000E+00  0.98795616990E+03  0.98795616990E+03  0.00000000000E+00 0. -1.
         -1   -1    0    0    0  501 -0.00000000000E+00 -0.00000000000E+00 -0.19486226870E+02  0.19486226870E+02  0.00000000000E+00 0. -1.
         35    2    1    2    0    0 -0.71054273576E-14  0.00000000000E+00  0.96846994303E+03  0.10074423968E+04  0.27749982389E+03 0.  0.
         25    2    3    3    0    0  0.18269779397E+02  0.26018714776E+02  0.28510387100E+03  0.31319912025E+03  0.12569293262E+03 0.  0.
         25    2    3    3    0    0 -0.18269779397E+02 -0.26018714776E+02  0.68336607203E+03  0.69424327652E+03  0.11821074499E+03 0.  0.
          5    1    4    4  502    0 -0.26759536060E+02  0.61424835549E+02  0.19579304746E+03  0.20699297241E+03  0.47000000000E+01 0.  1.
         -5    1    4    4    0  502  0.45029315457E+02 -0.35406120773E+02  0.89310823536E+02  0.10620614784E+03  0.47000000000E+01 0.  1.
          5    1    5    5  503    0 -0.40470308484E+02  0.35976197854E+02  0.24683028870E+03  0.25274377164E+03  0.47000000000E+01 0.  1.
         -5    1    5    5    0  503  0.22200529087E+02 -0.61994912630E+02  0.43653578333E+03  0.44149950488E+03  0.47000000000E+01 0.  1.
<mgrwt>
<rscale>  0 0.27749982E+03</rscale>
<asrwt>0</asrwt>
<pdfrwt beam="1">  1        1 0.15199322E+00 0.27749982E+03</pdfrwt>
<pdfrwt beam="2">  1       -1 0.29978818E-02 0.27749982E+03</pdfrwt>
<totfact> 0.61630556E+03</totfact>
</mgrwt>
</event>
<event>
 9    1  0.7926126E-001  0.2755739E+03  0.7818608E-02  0.1098131E+00
          2   -1    0    0  501    0  0.00000000000E+00  0.00000000000E+00  0.61839997148E+02  0.61839997148E+02  0.00000000000E+00 0. -1.
         -2   -1    0    0    0  501 -0.00000000000E+00 -0.00000000000E+00 -0.30700587077E+03  0.30700587077E+03  0.00000000000E+00 0. -1.
         35    2    1    2    0    0  0.00000000000E+00 -0.71054273576E-14 -0.24516587362E+03  0.36884586791E+03  0.27557388971E+03 0.  0.
         25    2    3    3    0    0  0.29170116562E+02  0.44466378753E+02 -0.14875090762E+03  0.20148668390E+03  0.12506756866E+03 0.  0.
         25    2    3    3    0    0 -0.29170116562E+02 -0.44466378753E+02 -0.96414965998E+02  0.16735918402E+03  0.12603609113E+03 0.  0.
          5    1    4    4  502    0 -0.44953112578E+02  0.36888190520E+02 -0.86209925827E+02  0.10409496742E+03  0.47000000000E+01 0.  1.
         -5    1    4    4    0  502  0.74123229141E+02  0.75781882325E+01 -0.62540981794E+02  0.97391716480E+02  0.47000000000E+01 0.  1.
          5    1    5    5  503    0  0.30283324182E+02  0.27384473424E+02 -0.44279362351E+02  0.60413086649E+02  0.47000000000E+01 0. -1.
         -5    1    5    5    0  503 -0.59453440744E+02 -0.71850852177E+02 -0.52135603647E+02  0.10694609737E+03  0.47000000000E+01 0. -1.
<mgrwt>
<rscale>  0 0.27557389E+03</rscale>
<asrwt>0</asrwt>
<pdfrwt beam="1">  1        2 0.95138458E-02 0.27557389E+03</pdfrwt>
<pdfrwt beam="2">  1       -2 0.47231672E-01 0.27557389E+03</pdfrwt>
<totfact> 0.29256290E+03</totfact>
</mgrwt>
</event>
<event>
 9    1  0.7926126E-001  0.2754576E+03  0.7818608E-02  0.1098196E+00
         -2   -1    0    0    0  501 -0.00000000000E+00  0.00000000000E+00  0.46536742616E+01  0.46536742616E+01  0.00000000000E+00 0.  1.
          2   -1    0    0  501    0  0.00000000000E+00 -0.00000000000E+00 -0.40761829975E+04  0.40761829975E+04  0.00000000000E+00 0.  1.
         35    2    1    2    0    0 -0.35527136788E-14  0.71054273576E-14 -0.40715293233E+04  0.40808366718E+04  0.27545764031E+03 0.  0.
         25    2    3    3    0    0  0.24635503889E+02  0.37055376489E+02 -0.26002152713E+04  0.26036181665E+04  0.12541168589E+03 0.  0.
         25    2    3    3    0    0 -0.24635503889E+02 -0.37055376489E+02 -0.14713140519E+04  0.14772185052E+04  0.12421539283E+03 0.  0.
          5    1    4    4  502    0 -0.12244168788E+00  0.61642072851E+02 -0.61678857020E+03  0.61987901277E+03  0.47000000000E+01 0. -1.
         -5    1    4    4    0  502  0.24757945577E+02 -0.24586696362E+02 -0.19834267011E+04  0.19837391538E+04  0.47000000000E+01 0. -1.
          5    1    5    5  503    0 -0.40719748224E+02 -0.61260667806E+02 -0.49472758617E+03  0.50018840634E+03  0.47000000000E+01 0.  1.
         -5    1    5    5    0  503  0.16084244335E+02  0.24205291317E+02 -0.97658646577E+03  0.97703009891E+03  0.47000000000E+01 0.  1.
<mgrwt>
<rscale>  0 0.27545764E+03</rscale>
<asrwt>0</asrwt>
<pdfrwt beam="1">  1        2 0.62710272E+00 0.27545764E+03</pdfrwt>
<pdfrwt beam="2">  1       -2 0.71595258E-03 0.27545764E+03</pdfrwt>
<totfact> 0.13505998E+03</totfact>
</mgrwt>
</event>
<event>
 9    1  0.7926126E-001  0.2777231E+03  0.7818608E-02  0.1096939E+00
          1   -1    0    0  501    0  0.00000000000E+00  0.00000000000E+00  0.43258084564E+03  0.43258084564E+03  0.00000000000E+00 0. -1.
         -1   -1    0    0    0  501 -0.00000000000E+00 -0.00000000000E+00 -0.44575563538E+02  0.44575563538E+02  0.00000000000E+00 0. -1.
         35    2    1    2    0    0  0.00000000000E+00  0.00000000000E+00  0.38800528210E+03  0.47715640918E+03  0.27772313530E+03 0.  0.
         25    2    3    3    0    0  0.15815631733E+02 -0.54945019734E+02  0.16274407772E+03  0.21457147257E+03  0.12761736797E+03 0.  0.
         25    2    3    3    0    0 -0.15815631733E+02  0.54945019734E+02  0.22526120439E+03  0.26258493661E+03  0.12222581287E+03 0.  0.
          5    1    4    4  502    0  0.56775660495E+02 -0.30038874124E+02  0.25758756342E+02  0.69364350437E+02  0.47000000000E+01 0. -1.
         -5    1    4    4    0  502 -0.40960028762E+02 -0.24906145609E+02  0.13698532137E+03  0.14520712213E+03  0.47000000000E+01 0. -1.
          5    1    5    5  503    0 -0.51252297607E+02  0.10364865096E+02  0.18596776248E+03  0.19323645391E+03  0.47000000000E+01 0. -1.
         -5    1    5    5    0  503  0.35436665874E+02  0.44580154638E+02  0.39293441907E+02  0.69348482700E+02  0.47000000000E+01 0. -1.
<mgrwt>
<rscale>  0 0.27772314E+03</rscale>
<asrwt>0</asrwt>
<pdfrwt beam="1">  1        1 0.66550896E-01 0.27772314E+03</pdfrwt>
<pdfrwt beam="2">  1       -1 0.68577793E-02 0.27772314E+03</pdfrwt>
<totfact> 0.59353989E+03</totfact>
</mgrwt>
</event>
<event>
 9    1  0.7926126E-001  0.2765737E+03  0.7818608E-02  0.1097575E+00
         -2   -1    0    0    0  501 -0.00000000000E+00  0.00000000000E+00  0.27719193187E+02  0.27719193187E+02  0.00000000000E+00 0.  1.
          2   -1    0    0  501    0  0.00000000000E+00 -0.00000000000E+00 -0.68989220827E+03  0.68989220827E+03  0.00000000000E+00 0.  1.
         35    2    1    2    0    0  0.00000000000E+00  0.35527136788E-14 -0.66217301508E+03  0.71761140146E+03  0.27657371820E+03 0.  0.
         25    2    3    3    0    0 -0.28107567156E+02 -0.23098213067E+02 -0.20767542181E+03  0.24509956006E+03  0.12498460201E+03 0.  0.
         25    2    3    3    0    0  0.28107567156E+02  0.23098213067E+02 -0.45449759327E+03  0.47251184139E+03  0.12399925479E+03 0.  0.
          5    1    4    4  502    0 -0.67024397759E+02 -0.35779363418E+02 -0.77798498721E+02  0.10884451821E+03  0.47000000000E+01 0. -1.
         -5    1    4    4    0  502  0.38916830603E+02  0.12681150351E+02 -0.12987692309E+03  0.13625504185E+03  0.47000000000E+01 0. -1.
          5    1    5    5  503    0 -0.44768677435E+01 -0.18424685335E+01  0.66763288730E+01  0.94921231719E+01  0.47000000000E+01 0.  1.
         -5    1    5    5    0  503  0.32584434900E+02  0.24940681600E+02 -0.46117392214E+03  0.46301971822E+03  0.47000000000E+01 0.  1.
<mgrwt>
<rscale>  0 0.27657372E+03</rscale>
<asrwt>0</asrwt>
<pdfrwt beam="1">  1        2 0.10613727E+00 0.27657372E+03</pdfrwt>
<pdfrwt beam="2">  1       -2 0.42644908E-02 0.27657372E+03</pdfrwt>
<totfact> 0.10609900E+04</totfact>
</mgrwt>
</event>
<event>
 9    1  0.7926126E-001  0.2760422E+03  0.7818608E-02  0.1097870E+00
          2   -1    0    0  501    0  0.00000000000E+00  0.00000000000E+00  0.66584629268E+03  0.66584629268E+03  0.00000000000E+00 0. -1.
         -2   -1    0    0    0  501 -0.00000000000E+00 -0.00000000000E+00 -0.28609952413E+02  0.28609952413E+02  0.00000000000E+00 0. -1.
         35    2    1    2    0    0 -0.35527136788E-14  0.35527136788E-14  0.63723634026E+03  0.69445624509E+03  0.27604224856E+03 0.  0.
         25    2    3    3    0    0 -0.18073999687E+02  0.22731453206E+02  0.18969779126E+03  0.22869866435E+03  0.12439629670E+03 0.  0.
         25    2    3    3    0    0  0.18073999687E+02 -0.22731453206E+02  0.44753854900E+03  0.46575758075E+03  0.12568207013E+03 0.  0.
          5    1    4    4  502    0 -0.38398072100E+02 -0.31956163645E+02  0.29646149434E+02  0.58280292657E+02  0.47000000000E+01 0. -1.
         -5    1    4    4    0  502  0.20324072413E+02  0.54687616851E+02  0.16005164183E+03  0.17041837169E+03  0.47000000000E+01 0. -1.
          5    1    5    5  503    0  0.14593205052E+02  0.16439496129E+02  0.71457680451E+01  0.23587510840E+02  0.47000000000E+01 0. -1.
         -5    1    5    5    0  503  0.34807946356E+01 -0.39170949335E+02  0.44039278095E+03  0.44217006991E+03  0.47000000000E+01 0. -1.
<mgrwt>
<rscale>  0 0.27604225E+03</rscale>
<asrwt>0</asrwt>
<pdfrwt beam="1">  1        2 0.10243788E+00 0.27604225E+03</pdfrwt>
<pdfrwt beam="2">  1       -2 0.44015317E-02 0.27604225E+03</pdfrwt>
<totfact> 0.10554927E+04</totfact>
</mgrwt>
</event>
<event>
 9    1  0.7926126E-001  0.2713264E+03  0.7818608E-02  0.1100523E+00
         -2   -1    0    0    0  501 -0.00000000000E+00  0.00000000000E+00  0.34806649399E+03  0.34806649399E+03  0.00000000000E+00 0.  1.
          2   -1    0    0  501    0  0.00000000000E+00 -0.00000000000E+00 -0.52876411464E+02  0.52876411464E+02  0.00000000000E+00 0.  1.
         35    2    1    2    0    0  0.00000000000E+00  0.00000000000E+00  0.29519008252E+03  0.40094290545E+03  0.27132642446E+03 0.  0.
         25    2    3    3    0    0  0.41684628270E+02 -0.16103437658E+01  0.99485648721E+02  0.16474350581E+03  0.12451034883E+03 0.  0.
         25    2    3    3    0    0 -0.41684628270E+02  0.16103437658E+01  0.19570443380E+03  0.23619939964E+03  0.12549792643E+03 0.  0.
          5    1    4    4  502    0 -0.40037884003E+02  0.20192363524E+01  0.63520372604E+02  0.75259798077E+02  0.47000000000E+01 0. -1.
         -5    1    4    4    0  502  0.81722512273E+02 -0.36295801182E+01  0.35965276117E+02  0.89483707736E+02  0.47000000000E+01 0. -1.
          5    1    5    5  503    0 -0.85821660895E+02  0.64723279784E+01  0.14455616421E+03  0.16830277217E+03  0.47000000000E+01 0. -1.
         -5    1    5    5    0  503  0.44137032625E+02 -0.48619842126E+01  0.51148269591E+02  0.67896627469E+02  0.47000000000E+01 0. -1.
<mgrwt>
<rscale>  0 0.27132642E+03</rscale>
<asrwt>0</asrwt>
<pdfrwt beam="1">  1        2 0.81348327E-02 0.27132642E+03</pdfrwt>
<pdfrwt beam="2">  1       -2 0.53548690E-01 0.27132642E+03</pdfrwt>
<totfact> 0.27717397E+03</totfact>
</mgrwt>
</event>
<event>
 9    1  0.7926126E-001  0.2696669E+03  0.7818608E-02  0.1101470E+00
          1   -1    0    0  501    0  0.00000000000E+00  0.00000000000E+00  0.14174201128E+04  0.14174201128E+04  0.00000000000E+00 0.  1.
         -1   -1    0    0    0  501 -0.00000000000E+00 -0.00000000000E+00 -0.12826159031E+02  0.12826159031E+02  0.00000000000E+00 0.  1.
         35    2    1    2    0    0 -0.71054273576E-14 -0.35527136788E-14  0.14045939538E+04  0.14302462718E+04  0.26966687435E+03 0.  0.
         25    2    3    3    0    0 -0.48473517204E+02 -0.13204006508E+02  0.76666443907E+03  0.77840355648E+03  0.12495481965E+03 0.  0.
         25    2    3    3    0    0  0.48473517204E+02  0.13204006508E+02  0.63792951471E+03  0.65184271535E+03  0.12418064329E+03 0.  0.
          5    1    4    4  502    0 -0.51895928844E+02  0.21324053185E+00  0.76090539210E+03  0.76268757603E+03  0.47000000000E+01 0. -1.
         -5    1    4    4    0  502  0.34224116402E+01 -0.13417247040E+02  0.57590469645E+01  0.15715980450E+02  0.47000000000E+01 0. -1.
          5    1    5    5  503    0  0.82780565870E+01  0.65265166197E+02  0.37597078307E+03  0.38171217934E+03  0.47000000000E+01 0.  1.
         -5    1    5    5    0  503  0.40195460617E+02 -0.52061159689E+02  0.26195873164E+03  0.27013053601E+03  0.47000000000E+01 0.  1.
<mgrwt>
<rscale>  0 0.26966687E+03</rscale>
<asrwt>0</asrwt>
<pdfrwt beam="1">  1        1 0.21806451E+00 0.26966687E+03</pdfrwt>
<pdfrwt beam="2">  1       -1 0.19732564E-02 0.26966687E+03</pdfrwt>
<totfact> 0.56796925E+03</totfact>
</mgrwt>
</event>
<event>
 9    1  0.7926126E-001  0.2743791E+03  0.7818608E-02  0.1098799E+00
          1   -1    0    0  501    0  0.00000000000E+00  0.00000000000E+00  0.15783988316E+04  0.15783988316E+04  0.00000000000E+00 0. -1.
         -1   -1    0    0    0  501 -0.00000000000E+00 -0.00000000000E+00 -0.11924087730E+02  0.11924087730E+02  0.00000000000E+00 0. -1.
         35    2    1    2    0    0 -0.14210854715E-13  0.00000000000E+00  0.15664747439E+04  0.15903229194E+04  0.27437905271E+03 0.  0.
         25    2    3    3    0    0  0.43454916057E+02  0.38468554395E+02  0.97901734440E+03  0.98863817532E+03  0.12474903472E+03 0.  0.
         25    2    3    3    0    0 -0.43454916057E+02 -0.38468554395E+02  0.58745739949E+03  0.60168474403E+03  0.11640522141E+03 0.  0.
          5    1    4    4  502    0  0.49066714125E+02  0.70855816936E+02  0.42774588672E+03  0.43636764641E+03  0.47000000000E+01 0. -1.
         -5    1    4    4    0  502 -0.56117980678E+01 -0.32387262541E+02  0.55127145768E+03  0.55227052891E+03  0.47000000000E+01 0. -1.
          5    1    5    5  503    0 -0.44820361474E+02 -0.40916710121E+02  0.59166116617E+03  0.59478405117E+03  0.47000000000E+01 0.  1.
         -5    1    5    5    0  503  0.13654454175E+01  0.24481557263E+01 -0.42037666792E+01  0.69006928595E+01  0.47000000000E+01 0.  1.
<mgrwt>
<rscale>  0 0.27437905E+03</rscale>
<asrwt>0</asrwt>
<pdfrwt beam="1">  1        1 0.24283042E+00 0.27437905E+03</pdfrwt>
<pdfrwt beam="2">  1       -1 0.18344763E-02 0.27437905E+03</pdfrwt>
<totfact> 0.49419486E+03</totfact>
</mgrwt>
</event>
<event>
 9    1  0.7926126E-001  0.2747010E+03  0.7818608E-02  0.1098619E+00
         -2   -1    0    0    0  501 -0.00000000000E+00  0.00000000000E+00  0.44714694623E+01  0.44714694623E+01  0.00000000000E+00 0. -1.
          2   -1    0    0  501    0  0.00000000000E+00 -0.00000000000E+00 -0.42190056963E+04  0.42190056963E+04  0.00000000000E+00 0. -1.
         35    2    1    2    0    0 -0.71054273576E-14  0.71054273576E-14 -0.42145342268E+04  0.42234771657E+04  0.27470096565E+03 0.  0.
         25    2    3    3    0    0  0.51646717966E+02  0.43821647645E+01 -0.16856725931E+04  0.16909999488E+04  0.12370185418E+03 0.  0.
         25    2    3    3    0    0 -0.51646717966E+02 -0.43821647645E+01 -0.25288616337E+04  0.25324772169E+04  0.12495241177E+03 0.  0.
          5    1    4    4  502    0  0.50804592363E+02 -0.52227621035E+02 -0.73061582124E+03  0.73425499607E+03  0.47000000000E+01 0. -1.
         -5    1    4    4    0  502  0.84212560247E+00  0.56609785800E+02 -0.95505677190E+03  0.95674495273E+03  0.47000000000E+01 0. -1.
          5    1    5    5  503    0 -0.31409051670E+02 -0.64184486345E+02 -0.14334558896E+04  0.14352435522E+04  0.47000000000E+01 0. -1.
         -5    1    5    5    0  503 -0.20237666295E+02  0.59802321580E+02 -0.10954057441E+04  0.10972336647E+04  0.47000000000E+01 0. -1.
<mgrwt>
<rscale>  0 0.27470097E+03</rscale>
<asrwt>0</asrwt>
<pdfrwt beam="1">  1        2 0.64908074E+00 0.27470097E+03</pdfrwt>
<pdfrwt beam="2">  1       -2 0.68791527E-03 0.27470097E+03</pdfrwt>
<totfact> 0.10974061E+03</totfact>
</mgrwt>
</event>
<event>
 9    1  0.7926126E-001  0.2749440E+03  0.7818608E-02  0.1098483E+00
         -1   -1    0    0    0  501 -0.00000000000E+00  0.00000000000E+00  0.17543025854E+03  0.17543025854E+03  0.00000000000E+00 0.  1.
          1   -1    0    0  501    0  0.00000000000E+00 -0.00000000000E+00 -0.10772688467E+03  0.10772688467E+03  0.00000000000E+00 0.  1.
         35    2    1    2    0    0 -0.71054273576E-14  0.71054273576E-14  0.67703373871E+02  0.28315714320E+03  0.27494403233E+03 0.  0.
         25    2    3    3    0    0  0.24278562863E+02  0.32581624061E+02 -0.46682771390E+01  0.13280762174E+03  0.12635292137E+03 0.  0.
         25    2    3    3    0    0 -0.24278562863E+02 -0.32581624061E+02  0.72371651010E+02  0.15034952147E+03  0.12536471551E+03 0.  0.
          5    1    4    4  502    0  0.50697805419E+02 -0.11396089882E+00 -0.49612665815E+02  0.71089992760E+02  0.47000000000E+01 0.  1.
         -5    1    4    4    0  502 -0.26419242555E+02  0.32695584960E+02  0.44944388676E+02  0.61717628977E+02  0.47000000000E+01 0.  1.
          5    1    5    5  503    0 -0.16538897067E+02 -0.70336547656E+02  0.82951591283E+02  0.11010822653E+03  0.47000000000E+01 0.  1.
         -5    1    5    5    0  503 -0.77396657969E+01  0.37754923595E+02 -0.10579940274E+02  0.40241294941E+02  0.47000000000E+01 0.  1.
<mgrwt>
<rscale>  0 0.27494403E+03</rscale>
<asrwt>0</asrwt>
<pdfrwt beam="1">  1        1 0.16573367E-01 0.27494403E+03</pdfrwt>
<pdfrwt beam="2">  1       -1 0.26989271E-01 0.27494403E+03</pdfrwt>
<totfact> 0.39740863E+03</totfact>
</mgrwt>
</event>
<event>
 9    1  0.7926126E-001  0.2729520E+03  0.7818608E-02  0.1099602E+00
         -3   -1    0    0    0  501 -0.00000000000E+00  0.00000000000E+00  0.10428658973E+03  0.10428658973E+03  0.00000000000E+00 0. -1.
          3   -1    0    0  501    0  0.00000000000E+00 -0.00000000000E+00 -0.17860102741E+03  0.17860102741E+03  0.00000000000E+00 0. -1.
         35    2    1    2    0    0  0.00000000000E+00 -0.14210854715E-13 -0.74314437674E+02  0.28288761714E+03  0.27295195234E+03 0.  0.
         25    2    3    3    0    0 -0.10935290293E+02 -0.48249213432E+02 -0.56777592627E+02  0.14717998363E+03  0.12645428180E+03 0.  0.
         25    2    3    3    0    0  0.10935290293E+02  0.48249213432E+02 -0.17536845048E+02  0.13570763352E+03  0.12514572981E+03 0.  0.
          5    1    4    4  502    0 -0.54229607141E+02 -0.55045907648E+02 -0.27620332531E+01  0.77463675792E+02  0.47000000000E+01 0.  1.
         -5    1    4    4    0  502  0.43294316848E+02  0.67966942157E+01 -0.54015559373E+02  0.69716307834E+02  0.47000000000E+01 0.  1.
          5    1    5    5  503    0  0.53904712243E+02  0.16807754655E+02 -0.47935701739E+02  0.74216845256E+02  0.47000000000E+01 0.  1.
         -5    1    5    5    0  503 -0.42969421950E+02  0.31441458777E+02  0.30398856691E+02  0.61490788261E+02  0.47000000000E+01 0.  1.
<mgrwt>
<rscale>  0 0.27295195E+03</rscale>
<asrwt>0</asrwt>
<pdfrwt beam="1">  1        3 0.27477081E-01 0.27295195E+03</pdfrwt>
<pdfrwt beam="2">  1       -3 0.16044091E-01 0.27295195E+03</pdfrwt>
<totfact> 0.10610273E+03</totfact>
</mgrwt>
</event>
<event>
 9    1  0.7926126E-001  0.2757578E+03  0.7818608E-02  0.1098029E+00
         -1   -1    0    0    0  501 -0.00000000000E+00  0.00000000000E+00  0.10857043673E+03  0.10857043673E+03  0.00000000000E+00 0.  1.
          1   -1    0    0  501    0  0.00000000000E+00 -0.00000000000E+00 -0.17509914628E+03  0.17509914628E+03  0.00000000000E+00 0.  1.
         35    2    1    2    0    0  0.00000000000E+00 -0.55511151231E-15 -0.66528709552E+02  0.28366958302E+03  0.27575779796E+03 0.  0.
         25    2    3    3    0    0 -0.23203661764E+02 -0.37520079763E+00  0.20179488701E+02  0.12911793743E+03  0.12540207058E+03 0.  0.
         25    2    3    3    0    0  0.23203661764E+02  0.37520079763E+00 -0.86708198253E+02  0.15455164559E+03  0.12581474006E+03 0.  0.
          5    1    4    4  502    0 -0.23052593372E+02  0.88417211852E+00 -0.51839139142E+02  0.56934964376E+02  0.47000000000E+01 0.  1.
         -5    1    4    4    0  502 -0.15106839129E+00 -0.12593729162E+01  0.72018627843E+02  0.72182973049E+02  0.47000000000E+01 0.  1.
          5    1    5    5  503    0 -0.11859095445E+02 -0.46926872994E+02  0.11970863519E+01  0.48644553338E+02  0.47000000000E+01 0. -1.
         -5    1    5    5    0  503  0.35062757208E+02  0.47302073792E+02 -0.87905284605E+02  0.10590709225E+03  0.47000000000E+01 0. -1.
<mgrwt>
<rscale>  0 0.27575780E+03</rscale>
<asrwt>0</asrwt>
<pdfrwt beam="1">  1        1 0.26938330E-01 0.27575780E+03</pdfrwt>
<pdfrwt beam="2">  1       -1 0.16703144E-01 0.27575780E+03</pdfrwt>
<totfact> 0.46686679E+03</totfact>
</mgrwt>
</event>
<event>
 9    1  0.7926126E-001  0.2635661E+03  0.7818608E-02  0.1105019E+00
         -3   -1    0    0    0  501 -0.00000000000E+00  0.00000000000E+00  0.40447187050E+02  0.40447187050E+02  0.00000000000E+00 0.  1.
          3   -1    0    0  501    0  0.00000000000E+00 -0.00000000000E+00 -0.42936898282E+03  0.42936898282E+03  0.00000000000E+00 0.  1.
         35    2    1    2    0    0  0.00000000000E+00 -0.35527136788E-14 -0.38892179577E+03  0.46981616987E+03  0.26356606429E+03 0.  0.
         25    2    3    3    0    0  0.22571246705E+02 -0.30329830393E+02 -0.22212249825E+03  0.25792045014E+03  0.12551969799E+03 0.  0.
         25    2    3    3    0    0 -0.22571246705E+02  0.30329830393E+02 -0.16679929752E+03  0.21189571973E+03  0.12509368728E+03 0.  0.
          5    1    4    4  502    0  0.54878856720E+02  0.11532559288E+02 -0.18439856370E+03  0.19279421447E+03  0.47000000000E+01 0.  1.
         -5    1    4    4    0  502 -0.32307610015E+02 -0.41862389680E+02 -0.37723934550E+02  0.65126235670E+02  0.47000000000E+01 0.  1.
          5    1    5    5  503    0 -0.57000242688E+02  0.58257938213E+02 -0.79922929491E+02  0.11424876231E+03  0.47000000000E+01 0.  1.
         -5    1    5    5    0  503  0.34428995983E+02 -0.27928107820E+02 -0.86876368026E+02  0.97646957414E+02  0.47000000000E+01 0.  1.
<mgrwt>
<rscale>  0 0.26356606E+03</rscale>
<asrwt>0</asrwt>
<pdfrwt beam="1">  1        3 0.66056762E-01 0.26356606E+03</pdfrwt>
<pdfrwt beam="2">  1       -3 0.62226446E-02 0.26356606E+03</pdfrwt>
<totfact> 0.91488548E+02</totfact>
</mgrwt>
</event>
<event>
 9    1  0.7926126E-001  0.2705921E+03  0.7818608E-02  0.1100941E+00
          1   -1    0    0  501    0  0.00000000000E+00  0.00000000000E+00  0.28323796453E+04  0.28323796453E+04  0.00000000000E+00 0. -1.
         -1   -1    0    0    0  501 -0.00000000000E+00 -0.00000000000E+00 -0.64627716556E+01  0.64627716556E+01  0.00000000000E+00 0. -1.
         35    2    1    2    0    0  0.14210854715E-13 -0.35527136788E-14  0.28259168736E+04  0.28388424169E+04  0.27059211289E+03 0.  0.
         25    2    3    3    0    0  0.41133365770E+02 -0.23314212476E+02  0.16881195323E+04  0.16931462550E+04  0.12149559347E+03 0.  0.
         25    2    3    3    0    0 -0.41133365770E+02  0.23314212476E+02  0.11377973413E+04  0.11456961619E+04  0.12570361668E+03 0.  0.
          5    1    4    4  502    0 -0.21220816813E+02 -0.28521151409E+02  0.17049888187E+03  0.17422898112E+03  0.47000000000E+01 0. -1.
         -5    1    4    4    0  502  0.62354182583E+02  0.52069389333E+01  0.15176206505E+04  0.15189172739E+04  0.47000000000E+01 0. -1.
          5    1    5    5  503    0 -0.66517429419E+02  0.26018432225E+02  0.10796277115E+04  0.10819979726E+04  0.47000000000E+01 0.  1.
         -5    1    5    5    0  503  0.25384063649E+02 -0.27042197486E+01  0.58169629803E+02  0.63698189324E+02  0.47000000000E+01 0.  1.
<mgrwt>
<rscale>  0 0.27059211E+03</rscale>
<asrwt>0</asrwt>
<pdfrwt beam="1">  1        1 0.43574972E+00 0.27059211E+03</pdfrwt>
<pdfrwt beam="2">  1       -1 0.99427483E-03 0.27059211E+03</pdfrwt>
<totfact> 0.17945846E+03</totfact>
</mgrwt>
</event>
<event>
 9    1  0.7926126E-001  0.2749184E+03  0.7818608E-02  0.1098497E+00
          1   -1    0    0  501    0  0.00000000000E+00  0.00000000000E+00  0.90970444239E+03  0.90970444239E+03  0.00000000000E+00 0.  1.
         -1   -1    0    0    0  501 -0.00000000000E+00 -0.00000000000E+00 -0.20770518985E+02  0.20770518985E+02  0.00000000000E+00 0.  1.
         35    2    1    2    0    0 -0.71054273576E-14 -0.14210854715E-13  0.88893392340E+03  0.93047496138E+03  0.27491841256E+03 0.  0.
         25    2    3    3    0    0  0.31346494416E+02  0.41518278493E+02  0.48113675724E+03  0.50097212253E+03  0.12951493435E+03 0.  0.
         25    2    3    3    0    0 -0.31346494416E+02 -0.41518278493E+02  0.40779716616E+03  0.42950283885E+03  0.12436956897E+03 0.  0.
          5    1    4    4  502    0  0.51556253232E+02  0.60764621939E+01  0.43917393429E+03  0.44225649255E+03  0.47000000000E+01 0.  1.
         -5    1    4    4    0  502 -0.20209758815E+02  0.35441816299E+02  0.41962822951E+02  0.58715629980E+02  0.47000000000E+01 0.  1.
          5    1    5    5  503    0 -0.16912282705E+02 -0.78776529818E+02  0.34932132859E+03  0.35852370572E+03  0.47000000000E+01 0. -1.
         -5    1    5    5    0  503 -0.14434211711E+02  0.37258251325E+02  0.58475837573E+02  0.70979133126E+02  0.47000000000E+01 0. -1.
<mgrwt>
<rscale>  0 0.27491841E+03</rscale>
<asrwt>0</asrwt>
<pdfrwt beam="1">  1        1 0.13995450E+00 0.27491841E+03</pdfrwt>
<pdfrwt beam="2">  1       -1 0.31954652E-02 0.27491841E+03</pdfrwt>
<totfact> 0.64381087E+03</totfact>
</mgrwt>
</event>
<event>
 9    1  0.7926126E-001  0.2793807E+03  0.7818608E-02  0.1096028E+00
         -1   -1    0    0    0  501 -0.00000000000E+00  0.00000000000E+00  0.96181479260E+01  0.96181479260E+01  0.00000000000E+00 0. -1.
          1   -1    0    0  501    0  0.00000000000E+00 -0.00000000000E+00 -0.20288094829E+04  0.20288094829E+04  0.00000000000E+00 0. -1.
         35    2    1    2    0    0 -0.71054273576E-14  0.00000000000E+00 -0.20191913349E+04  0.20384276308E+04  0.27938067020E+03 0.  0.
         25    2    3    3    0    0 -0.34527246910E+02 -0.36861704921E+02 -0.72953988955E+03  0.74181135387E+03  0.12451794331E+03 0.  0.
         25    2    3    3    0    0  0.34527246910E+02  0.36861704921E+02 -0.12896514454E+04  0.12966162769E+04  0.12434630245E+03 0.  0.
          5    1    4    4  502    0 -0.65705009099E+02  0.20118459119E+02 -0.34734368170E+03  0.35410679721E+03  0.47000000000E+01 0.  1.
         -5    1    4    4    0  502  0.31177762190E+02 -0.56980164041E+02 -0.38219620786E+03  0.38770455665E+03  0.47000000000E+01 0.  1.
          5    1    5    5  503    0  0.18799550312E+02 -0.28568334272E+02 -0.11599309018E+03  0.12102090640E+03  0.47000000000E+01 0. -1.
         -5    1    5    5    0  503  0.15727696598E+02  0.65430039193E+02 -0.11736583552E+04  0.11755953705E+04  0.47000000000E+01 0. -1.
<mgrwt>
<rscale>  0 0.27938067E+03</rscale>
<asrwt>0</asrwt>
<pdfrwt beam="1">  1        1 0.31212476E+00 0.27938067E+03</pdfrwt>
<pdfrwt beam="2">  1       -1 0.14797140E-02 0.27938067E+03</pdfrwt>
<totfact> 0.34400991E+03</totfact>
</mgrwt>
</event>
<event>
 9    1  0.7926126E-001  0.2766788E+03  0.7818608E-02  0.1097517E+00
         -1   -1    0    0    0  501 -0.00000000000E+00  0.00000000000E+00  0.87034472730E+02  0.87034472730E+02  0.00000000000E+00 0.  1.
          1   -1    0    0  501    0  0.00000000000E+00 -0.00000000000E+00 -0.21988752343E+03  0.21988752343E+03  0.00000000000E+00 0.  1.
         35    2    1    2    0    0 -0.71054273576E-14  0.71054273576E-14 -0.13285305070E+03  0.30692199616E+03  0.27667883665E+03 0.  0.
         25    2    3    3    0    0 -0.34456271229E+02 -0.47386204790E+02 -0.54848137543E+02  0.14866940248E+03  0.12514625848E+03 0.  0.
         25    2    3    3    0    0  0.34456271229E+02  0.47386204790E+02 -0.78004913160E+02  0.15825259368E+03  0.12460509580E+03 0.  0.
          5    1    4    4  502    0 -0.74318630084E+02 -0.51758234826E+02 -0.14960442939E+02  0.91913429393E+02  0.47000000000E+01 0.  1.
         -5    1    4    4    0  502  0.39862358855E+02  0.43720300363E+01 -0.39887694604E+02  0.56755973086E+02  0.47000000000E+01 0.  1.
          5    1    5    5  503    0  0.57312844996E+01  0.38547472082E+01  0.33786525393E+02  0.34804108898E+02  0.47000000000E+01 0.  1.
         -5    1    5    5    0  503  0.28724986729E+02  0.43531457582E+02 -0.11179143855E+03  0.12344848479E+03  0.47000000000E+01 0.  1.
<mgrwt>
<rscale>  0 0.27667884E+03</rscale>
<asrwt>0</asrwt>
<pdfrwt beam="1">  1        1 0.33828849E-01 0.27667884E+03</pdfrwt>
<pdfrwt beam="2">  1       -1 0.13389919E-01 0.27667884E+03</pdfrwt>
<totfact> 0.49746289E+03</totfact>
</mgrwt>
</event>
<event>
 9    1  0.7926126E-001  0.2789242E+03  0.7818608E-02  0.1096278E+00
          1   -1    0    0  501    0  0.00000000000E+00  0.00000000000E+00  0.10998398383E+04  0.10998398383E+04  0.00000000000E+00 0.  1.
         -1   -1    0    0    0  501 -0.00000000000E+00 -0.00000000000E+00 -0.17684098375E+02  0.17684098375E+02  0.00000000000E+00 0.  1.
         35    2    1    2    0    0 -0.88817841970E-15  0.00000000000E+00  0.10821557399E+04  0.11175239366E+04  0.27892418968E+03 0.  0.
         25    2    3    3    0    0 -0.31934390158E+01 -0.34675566185E+02  0.74580584875E+03  0.75709922376E+03  0.12553994444E+03 0.  0.
         25    2    3    3    0    0  0.31934390158E+01  0.34675566185E+02  0.33634989115E+03  0.36042471288E+03  0.12474827229E+03 0.  0.
          5    1    4    4  502    0  0.45925367629E+01  0.47200150592E+02  0.25131949202E+03  0.25579781602E+03  0.47000000000E+01 0. -1.
         -5    1    4    4    0  502 -0.77859757787E+01 -0.81875716777E+02  0.49448635673E+03  0.50130140775E+03  0.47000000000E+01 0. -1.
          5    1    5    5  503    0 -0.24622318485E+02 -0.27108845818E+02  0.23832865239E+03  0.24117169120E+03  0.47000000000E+01 0.  1.
         -5    1    5    5    0  503  0.27815757501E+02  0.61784412003E+02  0.98021238759E+02  0.11925302168E+03  0.47000000000E+01 0.  1.
<mgrwt>
<rscale>  0 0.27892419E+03</rscale>
<asrwt>0</asrwt>
<pdfrwt beam="1">  1        1 0.16920608E+00 0.27892419E+03</pdfrwt>
<pdfrwt beam="2">  1       -1 0.27206314E-02 0.27892419E+03</pdfrwt>
<totfact> 0.58830053E+03</totfact>
</mgrwt>
</event>
<event>
 9    1  0.7926126E-001  0.2668502E+03  0.7818608E-02  0.1103096E+00
         -1   -1    0    0    0  501 -0.00000000000E+00  0.00000000000E+00  0.13373166917E+03  0.13373166917E+03  0.00000000000E+00 0.  1.
          1   -1    0    0  501    0  0.00000000000E+00 -0.00000000000E+00 -0.13311921202E+03  0.13311921202E+03  0.00000000000E+00 0.  1.
         35    2    1    2    0    0  0.00000000000E+00  0.53290705182E-14  0.61245714783E+00  0.26685088119E+03  0.26685017836E+03 0.  0.
         25    2    3    3    0    0  0.47680982318E+02  0.14107685695E+02  0.44612818635E+01  0.13362950056E+03  0.12395336830E+03 0.  0.
         25    2    3    3    0    0 -0.47680982318E+02 -0.14107685695E+02 -0.38488247156E+01  0.13322138064E+03  0.12353388174E+03 0.  0.
          5    1    4    4  502    0  0.18351215966E+02 -0.51056080735E+02 -0.19908448583E+02  0.57982125112E+02  0.47000000000E+01 0. -1.
         -5    1    4    4    0  502  0.29329766352E+02  0.65163766430E+02  0.24369730446E+02  0.75647375445E+02  0.47000000000E+01 0. -1.
          5    1    5    5  503    0 -0.88375741189E+02 -0.12987632898E+02  0.99028584387E+01  0.89995037887E+02  0.47000000000E+01 0.  1.
         -5    1    5    5    0  503  0.40694758872E+02 -0.11200527968E+01 -0.13751683154E+02  0.43226342749E+02  0.47000000000E+01 0.  1.
<mgrwt>
<rscale>  0 0.26685018E+03</rscale>
<asrwt>0</asrwt>
<pdfrwt beam="1">  1        1 0.20479879E-01 0.26685018E+03</pdfrwt>
<pdfrwt beam="2">  1       -1 0.20574103E-01 0.26685018E+03</pdfrwt>
<totfact> 0.47271665E+03</totfact>
</mgrwt>
</event>
<event>
 9    1  0.7926126E-001  0.2750657E+03  0.7818608E-02  0.1098415E+00
          1   -1    0    0  501    0  0.00000000000E+00  0.00000000000E+00  0.12138929050E+04  0.12138929050E+04  0.00000000000E+00 0.  1.
         -1   -1    0    0    0  501 -0.00000000000E+00 -0.00000000000E+00 -0.15582335922E+02  0.15582335922E+02  0.00000000000E+00 0.  1.
         35    2    1    2    0    0  0.00000000000E+00  0.00000000000E+00  0.11983105691E+04  0.12294752410E+04  0.27506571593E+03 0.  0.
         25    2    3    3    0    0  0.30659943744E+02 -0.40125524168E+02  0.67480692363E+03  0.68822455832E+03  0.12545345212E+03 0.  0.
         25    2    3    3    0    0 -0.30659943744E+02  0.40125524168E+02  0.52350364548E+03  0.54125068264E+03  0.12785204256E+03 0.  0.
          5    1    4    4  502    0  0.68490575743E+02 -0.61226979028E+01  0.21964883892E+03  0.23020892431E+03  0.47000000000E+01 0.  1.
         -5    1    4    4    0  502 -0.37830631999E+02 -0.34002826265E+02  0.45515808472E+03  0.45801563401E+03  0.47000000000E+01 0.  1.
          5    1    5    5  503    0  0.36903969222E+02 -0.19829137918E+02  0.10629481211E+03  0.11434935390E+03  0.47000000000E+01 0.  1.
         -5    1    5    5    0  503 -0.67563912966E+02  0.59954662087E+02  0.41720883337E+03  0.42690132874E+03  0.47000000000E+01 0.  1.
<mgrwt>
<rscale>  0 0.27506572E+03</rscale>
<asrwt>0</asrwt>
<pdfrwt beam="1">  1        1 0.18675268E+00 0.27506572E+03</pdfrwt>
<pdfrwt beam="2">  1       -1 0.23972834E-02 0.27506572E+03</pdfrwt>
<totfact> 0.58811525E+03</totfact>
</mgrwt>
</event>
<event>
 9    1  0.7926126E-001  0.2694972E+03  0.7818608E-02  0.1101568E+00
          1   -1    0    0  501    0  0.00000000000E+00  0.00000000000E+00  0.39986902822E+03  0.39986902822E+03  0.00000000000E+00 0. -1.
         -1   -1    0    0    0  501 -0.00000000000E+00 -0.00000000000E+00 -0.45407834033E+02  0.45407834033E+02  0.00000000000E+00 0. -1.
         35    2    1    2    0    0 -0.35527136788E-14 -0.71054273576E-14  0.35446119419E+03  0.44527686225E+03  0.26949720940E+03 0.  0.
         25    2    3    3    0    0  0.11402620963E+02  0.34090354531E+02  0.23458610268E+03  0.26812917284E+03  0.12478157604E+03 0.  0.
         25    2    3    3    0    0 -0.11402620963E+02 -0.34090354531E+02  0.11987509151E+03  0.17714768941E+03  0.12537581212E+03 0.  0.
          5    1    4    4  502    0  0.55357411930E+02 -0.24884343873E+01  0.18197441932E+03  0.19028246017E+03  0.47000000000E+01 0. -1.
         -5    1    4    4    0  502 -0.43954790966E+02  0.36578788918E+02  0.52611683363E+02  0.77846712672E+02  0.47000000000E+01 0. -1.
          5    1    5    5  503    0  0.30369677424E+02 -0.66357152738E+02  0.91189498175E+02  0.11688970700E+03  0.47000000000E+01 0.  1.
         -5    1    5    5    0  503 -0.41772298387E+02  0.32266798207E+02  0.28685593332E+02  0.60257982408E+02  0.47000000000E+01 0.  1.
<mgrwt>
<rscale>  0 0.26949721E+03</rscale>
<asrwt>0</asrwt>
<pdfrwt beam="1">  1        1 0.61518310E-01 0.26949721E+03</pdfrwt>
<pdfrwt beam="2">  1       -1 0.69858209E-02 0.26949721E+03</pdfrwt>
<totfact> 0.63805306E+03</totfact>
</mgrwt>
</event>
<event>
 9    1  0.7926126E-001  0.2678700E+03  0.7818608E-02  0.1102505E+00
          1   -1    0    0  501    0  0.00000000000E+00  0.00000000000E+00  0.37036692937E+03  0.37036692937E+03  0.00000000000E+00 0.  1.
         -1   -1    0    0    0  501 -0.00000000000E+00 -0.00000000000E+00 -0.48434642317E+02  0.48434642317E+02  0.00000000000E+00 0.  1.
         35    2    1    2    0    0  0.35527136788E-14  0.00000000000E+00  0.32193228705E+03  0.41880157169E+03  0.26787004125E+03 0.  0.
         25    2    3    3    0    0  0.18034705168E+02 -0.40320899217E+02  0.13121507504E+03  0.18644839164E+03  0.12487826601E+03 0.  0.
         25    2    3    3    0    0 -0.18034705168E+02  0.40320899217E+02  0.19071721201E+03  0.23235318005E+03  0.12515558245E+03 0.  0.
          5    1    4    4  502    0 -0.27034741743E+02  0.34929342692E+02  0.39287736303E+02  0.59300526691E+02  0.47000000000E+01 0.  1.
         -5    1    4    4    0  502  0.45069446911E+02 -0.75250241909E+02  0.91927338740E+02  0.12714786494E+03  0.47000000000E+01 0.  1.
          5    1    5    5  503    0 -0.12929624403E+02  0.63798625240E+02  0.19662082973E+03  0.20716969000E+03  0.47000000000E+01 0.  1.
         -5    1    5    5    0  503 -0.51050807656E+01 -0.23477726023E+02 -0.59036177259E+01  0.25183490050E+02  0.47000000000E+01 0.  1.
<mgrwt>
<rscale>  0 0.26787004E+03</rscale>
<asrwt>0</asrwt>
<pdfrwt beam="1">  1        1 0.56979526E-01 0.26787004E+03</pdfrwt>
<pdfrwt beam="2">  1       -1 0.74514837E-02 0.26787004E+03</pdfrwt>
<totfact> 0.63779882E+03</totfact>
</mgrwt>
</event>
<event>
 9    1  0.7926126E-001  0.2692527E+03  0.7818608E-02  0.1101708E+00
          1   -1    0    0  501    0  0.00000000000E+00  0.00000000000E+00  0.23444707587E+04  0.23444707587E+04  0.00000000000E+00 0. -1.
         -1   -1    0    0    0  501 -0.00000000000E+00 -0.00000000000E+00 -0.77306398577E+01  0.77306398577E+01  0.00000000000E+00 0. -1.
         35    2    1    2    0    0  0.00000000000E+00  0.71054273576E-14  0.23367401188E+04  0.23522013985E+04  0.26925273698E+03 0.  0.
         25    2    3    3    0    0  0.39146438402E+02  0.26073738898E+02  0.13154097810E+04  0.13220532259E+04  0.12373179289E+03 0.  0.
         25    2    3    3    0    0 -0.39146438402E+02 -0.26073738898E+02  0.10213303378E+04  0.10301481727E+04  0.12600521896E+03 0.  0.
          5    1    4    4  502    0 -0.11172439569E+02 -0.17772776169E+02  0.96913537519E+03  0.96937410757E+03  0.47000000000E+01 0.  1.
         -5    1    4    4    0  502  0.50318877971E+02  0.43846515068E+02  0.34627440580E+03  0.35267911829E+03  0.47000000000E+01 0.  1.
          5    1    5    5  503    0 -0.33212914243E+02  0.72525387387E+01  0.95422280764E+03  0.95483975285E+03  0.47000000000E+01 0. -1.
         -5    1    5    5    0  503 -0.59335241589E+01 -0.33326277637E+02  0.67107530196E+02  0.75308419842E+02  0.47000000000E+01 0. -1.
<mgrwt>
<rscale>  0 0.26925274E+03</rscale>
<asrwt>0</asrwt>
<pdfrwt beam="1">  1        1 0.36068724E+00 0.26925274E+03</pdfrwt>
<pdfrwt beam="2">  1       -1 0.11893311E-02 0.26925274E+03</pdfrwt>
<totfact> 0.29404467E+03</totfact>
</mgrwt>
</event>
<event>
 9    1  0.7926126E-001  0.2813679E+03  0.7818608E-02  0.1094944E+00
          1   -1    0    0  501    0  0.00000000000E+00  0.00000000000E+00  0.14384507933E+04  0.14384507933E+04  0.00000000000E+00 0. -1.
         -1   -1    0    0    0  501 -0.00000000000E+00 -0.00000000000E+00 -0.13759226534E+02  0.13759226534E+02  0.00000000000E+00 0. -1.
         35    2    1    2    0    0  0.00000000000E+00 -0.71054273576E-14  0.14246915668E+04  0.14522100199E+04  0.28136787537E+03 0.  0.
         25    2    3    3    0    0 -0.14237914648E+02  0.38370994683E+02  0.96224248416E+03  0.97118154215E+03  0.12493173348E+03 0.  0.
         25    2    3    3    0    0  0.14237914648E+02 -0.38370994683E+02  0.46244908265E+03  0.48102847773E+03  0.12591342621E+03 0.  0.
          5    1    4    4  502    0  0.32543802833E+02 -0.32167874631E+02  0.29239860397E+03  0.29599477168E+03  0.47000000000E+01 0.  1.
         -5    1    4    4    0  502 -0.46781717482E+02  0.70538869313E+02  0.66984388020E+03  0.67518677046E+03  0.47000000000E+01 0.  1.
          5    1    5    5  503    0 -0.35195131055E+02 -0.27206671753E+02  0.38961071394E+03  0.39217024193E+03  0.47000000000E+01 0.  1.
         -5    1    5    5    0  503  0.49433045703E+02 -0.11164322930E+02  0.72838368711E+02  0.88858235805E+02  0.47000000000E+01 0.  1.
<mgrwt>
<rscale>  0 0.28136788E+03</rscale>
<asrwt>0</asrwt>
<pdfrwt beam="1">  1        1 0.22130000E+00 0.28136788E+03</pdfrwt>
<pdfrwt beam="2">  1       -1 0.21168052E-02 0.28136788E+03</pdfrwt>
<totfact> 0.49638625E+03</totfact>
</mgrwt>
</event>
<event>
 9    1  0.7926126E-001  0.3121945E+03  0.7818608E-02  0.1079299E+00
          2   -1    0    0  501    0  0.00000000000E+00  0.00000000000E+00  0.32332641078E+03  0.32332641078E+03  0.00000000000E+00 0.  1.
         -2   -1    0    0    0  501 -0.00000000000E+00 -0.00000000000E+00 -0.75361469511E+02  0.75361469511E+02  0.00000000000E+00 0.  1.
         35    2    1    2    0    0  0.00000000000E+00 -0.17763568394E-14  0.24796494126E+03  0.39868788029E+03  0.31219451275E+03 0.  0.
         25    2    3    3    0    0 -0.90766295418E+02 -0.14335176797E+02  0.82941684598E+02  0.17536594386E+03  0.12421704208E+03 0.  0.
         25    2    3    3    0    0  0.90766295418E+02  0.14335176797E+02  0.16502325667E+03  0.22332193643E+03  0.11914694445E+03 0.  0.
          5    1    4    4  502    0  0.71531421805E+01  0.12832102871E+02  0.71329724013E+02  0.72978420338E+02  0.47000000000E+01 0. -1.
         -5    1    4    4    0  502 -0.97919437598E+02 -0.27167279668E+02  0.11611960585E+02  0.10238752352E+03  0.47000000000E+01 0. -1.
          5    1    5    5  503    0  0.47663443248E+02 -0.52281173036E+02  0.81426622427E+02  0.10796994821E+03  0.47000000000E+01 0.  1.
         -5    1    5    5    0  503  0.43102852170E+02  0.66616349833E+02  0.83596634238E+02  0.11535198822E+03  0.47000000000E+01 0.  1.
<mgrwt>
<rscale>  0 0.31219451E+03</rscale>
<asrwt>0</asrwt>
<pdfrwt beam="1">  1        2 0.49742524E-01 0.31219451E+03</pdfrwt>
<pdfrwt beam="2">  1       -2 0.11594072E-01 0.31219451E+03</pdfrwt>
<totfact> 0.52643267E+03</totfact>
</mgrwt>
</event>
<event>
 9    1  0.7926126E-001  0.2741843E+03  0.7818608E-02  0.1098908E+00
         -1   -1    0    0    0  501 -0.00000000000E+00  0.00000000000E+00  0.76185879453E+01  0.76185879453E+01  0.00000000000E+00 0.  1.
          1   -1    0    0  501    0  0.00000000000E+00 -0.00000000000E+00 -0.24668957825E+04  0.24668957825E+04  0.00000000000E+00 0.  1.
         35    2    1    2    0    0  0.00000000000E+00  0.00000000000E+00 -0.24592771945E+04  0.24745143704E+04  0.27418433559E+03 0.  0.
         25    2    3    3    0    0  0.42287164515E+02 -0.34126878178E+02 -0.11079811456E+04  0.11164230246E+04  0.12579865966E+03 0.  0.
         25    2    3    3    0    0 -0.42287164515E+02  0.34126878178E+02 -0.13512960489E+04  0.13580913458E+04  0.12433118523E+03 0.  0.
          5    1    4    4  502    0  0.43895877531E+01 -0.74863247624E+02 -0.79106936044E+03  0.79462984927E+03  0.47000000000E+01 0.  1.
         -5    1    4    4    0  502  0.37897576762E+02  0.40736369446E+02 -0.31691178517E+03  0.32179317535E+03  0.47000000000E+01 0.  1.
          5    1    5    5  503    0 -0.54780301609E+01 -0.14239969027E+02 -0.10763352736E+04  0.10764536667E+04  0.47000000000E+01 0.  1.
         -5    1    5    5    0  503 -0.36809134354E+02  0.48366847205E+02 -0.27496077536E+03  0.28163767906E+03  0.47000000000E+01 0.  1.
<mgrwt>
<rscale>  0 0.27418434E+03</rscale>
<asrwt>0</asrwt>
<pdfrwt beam="1">  1        1 0.37952253E+00 0.27418434E+03</pdfrwt>
<pdfrwt beam="2">  1       -1 0.11720901E-02 0.27418434E+03</pdfrwt>
<totfact> 0.24925668E+03</totfact>
</mgrwt>
</event>
<event>
 9    1  0.7926126E-001  0.2779526E+03  0.7818608E-02  0.1096812E+00
          1   -1    0    0  501    0  0.00000000000E+00  0.00000000000E+00  0.52891703823E+03  0.52891703823E+03  0.00000000000E+00 0.  1.
         -1   -1    0    0    0  501 -0.00000000000E+00 -0.00000000000E+00 -0.36516900709E+02  0.36516900709E+02  0.00000000000E+00 0.  1.
         35    2    1    2    0    0  0.00000000000E+00 -0.71054273576E-14  0.49240013753E+03  0.56543393894E+03  0.27795259285E+03 0.  0.
         25    2    3    3    0    0 -0.12666242225E+02 -0.57701057385E+02  0.26124014153E+03  0.29627115669E+03  0.12665046792E+03 0.  0.
         25    2    3    3    0    0  0.12666242225E+02  0.57701057385E+02  0.23115999599E+03  0.26916278225E+03  0.12459459815E+03 0.  0.
          5    1    4    4  502    0 -0.67805985185E+02 -0.48852282194E+02  0.15534767953E+03  0.17646299510E+03  0.47000000000E+01 0. -1.
         -5    1    4    4    0  502  0.55139742960E+02 -0.88487751909E+01  0.10589246200E+03  0.11980816159E+03  0.47000000000E+01 0. -1.
          5    1    5    5  503    0 -0.49413300586E+02  0.47678113251E+02  0.15945403071E+03  0.17367370171E+03  0.47000000000E+01 0. -1.
         -5    1    5    5    0  503  0.62079542811E+02  0.10022944134E+02  0.71705965285E+02  0.95489080539E+02  0.47000000000E+01 0. -1.
<mgrwt>
<rscale>  0 0.27795259E+03</rscale>
<asrwt>0</asrwt>
<pdfrwt beam="1">  1        1 0.81371847E-01 0.27795259E+03</pdfrwt>
<pdfrwt beam="2">  1       -1 0.56179851E-02 0.27795259E+03</pdfrwt>
<totfact> 0.61539147E+03</totfact>
</mgrwt>
</event>
<event>
 9    1  0.7926126E-001  0.2757518E+03  0.7818608E-02  0.1098032E+00
         -1   -1    0    0    0  501 -0.00000000000E+00  0.00000000000E+00  0.55761889678E+03  0.55761889678E+03  0.00000000000E+00 0.  1.
          1   -1    0    0  501    0  0.00000000000E+00 -0.00000000000E+00 -0.34090971482E+02  0.34090971482E+02  0.00000000000E+00 0.  1.
         35    2    1    2    0    0  0.17763568394E-14  0.71054273576E-14  0.52352792529E+03  0.59170986826E+03  0.27575184430E+03 0.  0.
         25    2    3    3    0    0  0.83092523030E+01 -0.55353982347E+02  0.29871508852E+03  0.32849615248E+03  0.12468324285E+03 0.  0.
         25    2    3    3    0    0 -0.83092523030E+01  0.55353982347E+02  0.22481283678E+03  0.26321371578E+03  0.12493014673E+03 0.  0.
          5    1    4    4  502    0  0.54993284473E+02 -0.40346859158E+02  0.84522987553E+02  0.10871226152E+03  0.47000000000E+01 0.  1.
         -5    1    4    4    0  502 -0.46684032170E+02 -0.15007123188E+02  0.21419210096E+03  0.21978389095E+03  0.47000000000E+01 0.  1.
          5    1    5    5  503    0  0.13784670711E+02  0.66380457524E+02  0.44670200216E+02  0.81325881951E+02  0.47000000000E+01 0. -1.
         -5    1    5    5    0  503 -0.22093923014E+02 -0.11026475177E+02  0.18014263656E+03  0.18188783383E+03  0.47000000000E+01 0. -1.
<mgrwt>
<rscale>  0 0.27575184E+03</rscale>
<asrwt>0</asrwt>
<pdfrwt beam="1">  1        1 0.52447652E-02 0.27575184E+03</pdfrwt>
<pdfrwt beam="2">  1       -1 0.85787516E-01 0.27575184E+03</pdfrwt>
<totfact> 0.21896997E+03</totfact>
</mgrwt>
</event>
<event>
 9    1  0.7926126E-001  0.3096998E+03  0.7818608E-02  0.1080490E+00
         -2   -1    0    0    0  501 -0.00000000000E+00  0.00000000000E+00  0.61263673665E+02  0.61263673665E+02  0.00000000000E+00 0. -1.
          2   -1    0    0  501    0  0.00000000000E+00 -0.00000000000E+00 -0.39139829275E+03  0.39139829275E+03  0.00000000000E+00 0. -1.
         35    2    1    2    0    0  0.28421709430E-13  0.00000000000E+00 -0.33013461908E+03  0.45266196641E+03  0.30969983713E+03 0.  0.
         25    2    3    3    0    0  0.89493103219E+02 -0.61252043961E+01 -0.19116906829E+03  0.24515282086E+03  0.12453015399E+03 0.  0.
         25    2    3    3    0    0 -0.89493103219E+02  0.61252043961E+01 -0.13896555079E+03  0.20750914555E+03  0.12530797073E+03 0.  0.
          5    1    4    4  502    0  0.10905793816E+02  0.44653009997E+02 -0.20684054989E+02  0.50623589080E+02  0.47000000000E+01 0.  1.
         -5    1    4    4    0  502  0.78587309403E+02 -0.50778214394E+02 -0.17048501331E+03  0.19452923178E+03  0.47000000000E+01 0.  1.
          5    1    5    5  503    0  0.19871857206E+02  0.35329536943E+02 -0.37530129195E+02  0.55440666363E+02  0.47000000000E+01 0.  1.
         -5    1    5    5    0  503 -0.10936496042E+03 -0.29204332547E+02 -0.10143542159E+03  0.15206847919E+03  0.47000000000E+01 0.  1.
<mgrwt>
<rscale>  0 0.30969984E+03</rscale>
<asrwt>0</asrwt>
<pdfrwt beam="1">  1        2 0.60215121E-01 0.30969984E+03</pdfrwt>
<pdfrwt beam="2">  1       -2 0.94251807E-02 0.30969984E+03</pdfrwt>
<totfact> 0.59588481E+03</totfact>
</mgrwt>
</event>
<event>
 9    1  0.7926126E-001  0.2758994E+03  0.7818608E-02  0.1097950E+00
          1   -1    0    0  501    0  0.00000000000E+00  0.00000000000E+00  0.86068647169E+03  0.86068647169E+03  0.00000000000E+00 0.  1.
         -1   -1    0    0    0  501 -0.00000000000E+00 -0.00000000000E+00 -0.22110402484E+02  0.22110402484E+02  0.00000000000E+00 0.  1.
         35    2    1    2    0    0  0.00000000000E+00  0.00000000000E+00  0.83857606920E+03  0.88279687417E+03  0.27589943314E+03 0.  0.
         25    2    3    3    0    0 -0.87729087446E+01  0.48256097614E+02  0.51696966233E+03  0.53389743363E+03  0.12402912153E+03 0.  0.
         25    2    3    3    0    0  0.87729087446E+01 -0.48256097614E+02  0.32160640687E+03  0.34889944054E+03  0.12607348564E+03 0.  0.
          5    1    4    4  502    0  0.33133848048E+02  0.40001000632E+02  0.45785372501E+03  0.46081455646E+03  0.47000000000E+01 0. -1.
         -5    1    4    4    0  502 -0.41906756792E+02  0.82550969820E+01  0.59115937317E+02  0.73082877173E+02  0.47000000000E+01 0. -1.
          5    1    5    5  503    0 -0.47851367615E+02  0.12491268882E+02  0.15353312434E+03  0.16137005748E+03  0.47000000000E+01 0. -1.
         -5    1    5    5    0  503  0.56624276359E+02 -0.60747366496E+02  0.16807328253E+03  0.18752938306E+03  0.47000000000E+01 0. -1.
<mgrwt>
<rscale>  0 0.27589943E+03</rscale>
<asrwt>0</asrwt>
<pdfrwt beam="1">  1        1 0.13241328E+00 0.27589943E+03</pdfrwt>
<pdfrwt beam="2">  1       -1 0.34016010E-02 0.27589943E+03</pdfrwt>
<totfact> 0.64190688E+03</totfact>
</mgrwt>
</event>
<event>
 9    1  0.7926126E-001  0.2764898E+03  0.7818608E-02  0.1097622E+00
          2   -1    0    0  501    0  0.00000000000E+00  0.00000000000E+00  0.17007583799E+03  0.17007583799E+03  0.00000000000E+00 0.  1.
         -2   -1    0    0    0  501 -0.00000000000E+00 -0.00000000000E+00 -0.11237138817E+03  0.11237138817E+03  0.00000000000E+00 0.  1.
         35    2    1    2    0    0  0.00000000000E+00  0.35527136788E-14  0.57704449826E+02  0.28244722616E+03  0.27648984074E+03 0.  0.
         25    2    3    3    0    0  0.55699684001E+01 -0.34371827387E+01 -0.31173785716E+02  0.12950402044E+03  0.12552548594E+03 0.  0.
         25    2    3    3    0    0 -0.55699684001E+01  0.34371827387E+01  0.88878235542E+02  0.15294320572E+03  0.12429579498E+03 0.  0.
          5    1    4    4  502    0 -0.15346084493E+02 -0.56429688322E+02  0.93837394538E+01  0.59413437870E+02  0.47000000000E+01 0. -1.
         -5    1    4    4    0  502  0.20916052893E+02  0.52992505583E+02 -0.40557525170E+02  0.70090582566E+02  0.47000000000E+01 0. -1.
          5    1    5    5  503    0  0.44952313375E+02 -0.23722105105E+02  0.50958568888E+01  0.51298211527E+02  0.47000000000E+01 0. -1.
         -5    1    5    5    0  503 -0.50522281775E+02  0.27159287844E+02  0.83782378653E+02  0.10164499419E+03  0.47000000000E+01 0. -1.
<mgrwt>
<rscale>  0 0.27648984E+03</rscale>
<asrwt>0</asrwt>
<pdfrwt beam="1">  1        2 0.26165514E-01 0.27648984E+03</pdfrwt>
<pdfrwt beam="2">  1       -2 0.17287906E-01 0.27648984E+03</pdfrwt>
<totfact> 0.54724014E+03</totfact>
</mgrwt>
</event>
<event>
 9    1  0.7926126E-001  0.2746327E+03  0.7818608E-02  0.1098657E+00
          4   -1    0    0  501    0  0.00000000000E+00  0.00000000000E+00  0.12099210396E+03  0.12099210396E+03  0.00000000000E+00 0. -1.
         -4   -1    0    0    0  501 -0.00000000000E+00 -0.00000000000E+00 -0.15584305792E+03  0.15584305792E+03  0.00000000000E+00 0. -1.
         35    2    1    2    0    0  0.00000000000E+00  0.14210854715E-13 -0.34850953964E+02  0.27683516188E+03  0.27463269627E+03 0.  0.
         25    2    3    3    0    0 -0.33446636777E+02  0.41275487696E+02 -0.65523404120E+01  0.13813824137E+03  0.12734558165E+03 0.  0.
         25    2    3    3    0    0  0.33446636777E+02 -0.41275487696E+02 -0.28298613552E+02  0.13869692051E+03  0.12495471513E+03 0.  0.
          5    1    4    4  502    0  0.17059887440E+02 -0.36419846045E+02  0.14469703015E+02  0.42998921507E+02  0.47000000000E+01 0. -1.
         -5    1    4    4    0  502 -0.50506524216E+02  0.77695333741E+02 -0.21022043427E+02  0.95139319860E+02  0.47000000000E+01 0. -1.
          5    1    5    5  503    0  0.17961198280E+02 -0.78804394225E+02  0.11352339894E+02  0.81753916199E+02  0.47000000000E+01 0. -1.
         -5    1    5    5    0  503  0.15485438497E+02  0.37528906529E+02 -0.39650953446E+02  0.56943004310E+02  0.47000000000E+01 0. -1.
<mgrwt>
<rscale>  0 0.27463270E+03</rscale>
<asrwt>0</asrwt>
<pdfrwt beam="1">  1        4 0.18614170E-01 0.27463270E+03</pdfrwt>
<pdfrwt beam="2">  1       -4 0.23975855E-01 0.27463270E+03</pdfrwt>
<totfact> 0.77970541E+02</totfact>
</mgrwt>
</event>
<event>
 9    1  0.7926126E-001  0.2760797E+03  0.7818608E-02  0.1097850E+00
         -1   -1    0    0    0  501 -0.00000000000E+00  0.00000000000E+00  0.31452093558E+02  0.31452093558E+02  0.00000000000E+00 0. -1.
          1   -1    0    0  501    0  0.00000000000E+00 -0.00000000000E+00 -0.60584205741E+03  0.60584205741E+03  0.00000000000E+00 0. -1.
         35    2    1    2    0    0  0.14210854715E-13  0.00000000000E+00 -0.57438996385E+03  0.63729415097E+03  0.27607970640E+03 0.  0.
         25    2    3    3    0    0  0.43639256538E+02 -0.23783005681E+02 -0.35863635353E+03  0.38300395875E+03  0.12490789517E+03 0.  0.
         25    2    3    3    0    0 -0.43639256538E+02  0.23783005681E+02 -0.21575361032E+03  0.25429019221E+03  0.12507543891E+03 0.  0.
          5    1    4    4  502    0 -0.38704360732E+02 -0.28514993781E+02 -0.17681624599E+03  0.18329540981E+03  0.47000000000E+01 0. -1.
         -5    1    4    4    0  502  0.82343617270E+02  0.47319881001E+01 -0.18182010754E+03  0.19970854894E+03  0.47000000000E+01 0. -1.
          5    1    5    5  503    0  0.26371815280E+02  0.16388120520E+02 -0.16350577875E+03  0.16649406242E+03  0.47000000000E+01 0.  1.
         -5    1    5    5    0  503 -0.70011071818E+02  0.73948851604E+01 -0.52247831571E+02  0.87796129798E+02  0.47000000000E+01 0.  1.
<mgrwt>
<rscale>  0 0.27607971E+03</rscale>
<asrwt>0</asrwt>
<pdfrwt beam="1">  1        1 0.93206469E-01 0.27607971E+03</pdfrwt>
<pdfrwt beam="2">  1       -1 0.48387837E-02 0.27607971E+03</pdfrwt>
<totfact> 0.63928766E+03</totfact>
</mgrwt>
</event>
<event>
 9    1  0.7926126E-001  0.2783572E+03  0.7818608E-02  0.1096590E+00
         -4   -1    0    0    0  501 -0.00000000000E+00  0.00000000000E+00  0.24225934014E+03  0.24225934014E+03  0.00000000000E+00 0. -1.
          4   -1    0    0  501    0  0.00000000000E+00 -0.00000000000E+00 -0.79958444507E+02  0.79958444507E+02  0.00000000000E+00 0. -1.
         35    2    1    2    0    0  0.71054273576E-14 -0.14210854715E-13  0.16230089563E+03  0.32221778465E+03  0.27835718065E+03 0.  0.
         25    2    3    3    0    0 -0.36671327845E+02  0.42614541682E+02  0.55082405842E+02  0.14809288899E+03  0.12544579263E+03 0.  0.
         25    2    3    3    0    0  0.36671327845E+02 -0.42614541682E+02  0.10721848979E+03  0.17412489565E+03  0.12515146537E+03 0.  0.
          5    1    4    4  502    0  0.19706130910E+02  0.29035370725E+01 -0.31339565607E+02  0.37430208327E+02  0.47000000000E+01 0. -1.
         -5    1    4    4    0  502 -0.56377458755E+02  0.39711004610E+02  0.86421971450E+02  0.11066268067E+03  0.47000000000E+01 0. -1.
          5    1    5    5  503    0  0.47962807803E+01 -0.52443311036E+02  0.12522479251E+03  0.13592881902E+03  0.47000000000E+01 0.  1.
         -5    1    5    5    0  503  0.31875047065E+02  0.98287693539E+01 -0.18006302720E+02  0.38196076632E+02  0.47000000000E+01 0.  1.
<mgrwt>
<rscale>  0 0.27835718E+03</rscale>
<asrwt>0</asrwt>
<pdfrwt beam="1">  1        4 0.12301299E-01 0.27835718E+03</pdfrwt>
<pdfrwt beam="2">  1       -4 0.37270667E-01 0.27835718E+03</pdfrwt>
<totfact> 0.69913398E+02</totfact>
</mgrwt>
</event>
<event>
 9    1  0.7926126E-001  0.2732268E+03  0.7818608E-02  0.1099447E+00
          1   -1    0    0  501    0  0.00000000000E+00  0.00000000000E+00  0.26858229445E+03  0.26858229445E+03  0.00000000000E+00 0. -1.
         -1   -1    0    0    0  501 -0.00000000000E+00 -0.00000000000E+00 -0.69487907667E+02  0.69487907667E+02  0.00000000000E+00 0. -1.
         35    2    1    2    0    0 -0.53290705182E-14  0.71054273576E-14  0.19909438678E+03  0.33807020211E+03  0.27322680452E+03 0.  0.
         25    2    3    3    0    0  0.60909108654E+01  0.31073658138E+02  0.86009833343E+02  0.16714634559E+03  0.13977674337E+03 0.  0.
         25    2    3    3    0    0 -0.60909108654E+01 -0.31073658138E+02  0.11308455344E+03  0.17092385652E+03  0.12419411048E+03 0.  0.
          5    1    4    4  502    0 -0.10791694310E+02  0.81430777754E+02  0.77730322299E+02  0.11318800836E+03  0.47000000000E+01 0.  1.
         -5    1    4    4    0  502  0.16882605175E+02 -0.50357119616E+02  0.82795110437E+01  0.53958337230E+02  0.47000000000E+01 0.  1.
          5    1    5    5  503    0  0.45065909070E+02  0.22774144788E+02  0.28166471231E+02  0.58008947006E+02  0.47000000000E+01 0. -1.
         -5    1    5    5    0  503 -0.51156819936E+02 -0.53847802925E+02  0.84918082207E+02  0.11291490952E+03  0.47000000000E+01 0. -1.
<mgrwt>
<rscale>  0 0.27322680E+03</rscale>
<asrwt>0</asrwt>
<pdfrwt beam="1">  1        1 0.41320352E-01 0.27322680E+03</pdfrwt>
<pdfrwt beam="2">  1       -1 0.10690447E-01 0.27322680E+03</pdfrwt>
<totfact> 0.54983435E+03</totfact>
</mgrwt>
</event>
<event>
 9    1  0.7926126E-001  0.2717863E+03  0.7818608E-02  0.1100262E+00
         -2   -1    0    0    0  501 -0.00000000000E+00  0.00000000000E+00  0.48995967730E+02  0.48995967730E+02  0.00000000000E+00 0. -1.
          2   -1    0    0  501    0  0.00000000000E+00 -0.00000000000E+00 -0.37690748309E+03  0.37690748309E+03  0.00000000000E+00 0. -1.
         35    2    1    2    0    0  0.00000000000E+00 -0.71054273576E-14 -0.32791151536E+03  0.42590345082E+03  0.27178629015E+03 0.  0.
         25    2    3    3    0    0  0.44093998902E+02 -0.29309465718E+02 -0.14608593827E+03  0.19963147089E+03  0.12533274628E+03 0.  0.
         25    2    3    3    0    0 -0.44093998902E+02  0.29309465718E+02 -0.18182557709E+03  0.22627197993E+03  0.12383514404E+03 0.  0.
          5    1    4    4  502    0  0.15161744526E+02 -0.27708409196E+02  0.15432797989E+02  0.35466825218E+02  0.47000000000E+01 0. -1.
         -5    1    4    4    0  502  0.28932254376E+02 -0.16010565218E+01 -0.16151873626E+03  0.16416464567E+03  0.47000000000E+01 0. -1.
          5    1    5    5  503    0  0.33310676647E+02  0.35502383248E+02 -0.11003204468E+03  0.12041246302E+03  0.47000000000E+01 0.  1.
         -5    1    5    5    0  503 -0.77404675549E+02 -0.61929175294E+01 -0.71793532409E+02  0.10585951691E+03  0.47000000000E+01 0.  1.
<mgrwt>
<rscale>  0 0.27178629E+03</rscale>
<asrwt>0</asrwt>
<pdfrwt beam="1">  1        2 0.57985767E-01 0.27178629E+03</pdfrwt>
<pdfrwt beam="2">  1       -2 0.75378411E-02 0.27178629E+03</pdfrwt>
<totfact> 0.87793019E+03</totfact>
</mgrwt>
</event>
<event>
 9    1  0.7926126E-001  0.2756497E+03  0.7818608E-02  0.1098089E+00
         -2   -1    0    0    0  501 -0.00000000000E+00  0.00000000000E+00  0.19633369801E+03  0.19633369801E+03  0.00000000000E+00 0. -1.
          2   -1    0    0  501    0  0.00000000000E+00 -0.00000000000E+00 -0.96752092311E+02  0.96752092311E+02  0.00000000000E+00 0. -1.
         35    2    1    2    0    0  0.14210854715E-13 -0.14210854715E-13  0.99581605698E+02  0.29308579032E+03  0.27564974931E+03 0.  0.
         25    2    3    3    0    0  0.25433823288E+02 -0.51668483130E+02  0.60889442363E+02  0.14987617619E+03  0.12425309848E+03 0.  0.
         25    2    3    3    0    0 -0.25433823288E+02  0.51668483130E+02  0.38692163335E+02  0.14320961413E+03  0.12528127777E+03 0.  0.
          5    1    4    4  502    0 -0.49881227585E+02 -0.20198283400E+02  0.33898678299E+02  0.63775527502E+02  0.47000000000E+01 0.  1.
         -5    1    4    4    0  502  0.75315050873E+02 -0.31470199730E+02  0.26990764064E+02  0.86100648684E+02  0.47000000000E+01 0.  1.
          5    1    5    5  503    0  0.88879210668E+01  0.53231176976E+02 -0.33097797343E+02  0.63483127933E+02  0.47000000000E+01 0.  1.
         -5    1    5    5    0  503 -0.34321744355E+02 -0.15626938466E+01  0.71789960678E+02  0.79726486200E+02  0.47000000000E+01 0.  1.
<mgrwt>
<rscale>  0 0.27564975E+03</rscale>
<asrwt>0</asrwt>
<pdfrwt beam="1">  1        2 0.14884937E-01 0.27564975E+03</pdfrwt>
<pdfrwt beam="2">  1       -2 0.30205184E-01 0.27564975E+03</pdfrwt>
<totfact> 0.39508888E+03</totfact>
</mgrwt>
</event>
<event>
 9    1  0.7926126E-001  0.2775721E+03  0.7818608E-02  0.1097022E+00
          2   -1    0    0  501    0  0.00000000000E+00  0.00000000000E+00  0.26272464762E+04  0.26272464762E+04  0.00000000000E+00 0.  1.
         -2   -1    0    0    0  501 -0.00000000000E+00 -0.00000000000E+00 -0.73314681152E+01  0.73314681152E+01  0.00000000000E+00 0.  1.
         35    2    1    2    0    0  0.00000000000E+00 -0.71054273576E-14  0.26199150081E+04  0.26345779443E+04  0.27757214393E+03 0.  0.
         25    2    3    3    0    0 -0.12050734489E+02 -0.48230685411E+02  0.16411117590E+04  0.16466407325E+04  0.12532548461E+03 0.  0.
         25    2    3    3    0    0  0.12050734489E+02  0.48230685411E+02  0.97880324907E+03  0.98793721183E+03  0.12446973491E+03 0.  0.
          5    1    4    4  502    0  0.83861979535E+00  0.14475625089E+02  0.25177071188E+02  0.29431648246E+02  0.47000000000E+01 0. -1.
         -5    1    4    4    0  502 -0.12889354285E+02 -0.62706310500E+02  0.16159346878E+04  0.16172090842E+04  0.47000000000E+01 0. -1.
          5    1    5    5  503    0  0.16376663105E+02  0.87226462483E+02  0.53022796693E+03  0.53762481133E+03  0.47000000000E+01 0.  1.
         -5    1    5    5    0  503 -0.43259286159E+01 -0.38995777072E+02  0.44857528215E+03  0.45031240050E+03  0.47000000000E+01 0.  1.
<mgrwt>
<rscale>  0 0.27757214E+03</rscale>
<asrwt>0</asrwt>
<pdfrwt beam="1">  1        2 0.40419101E+00 0.27757214E+03</pdfrwt>
<pdfrwt beam="2">  1       -2 0.11279203E-02 0.27757214E+03</pdfrwt>
<totfact> 0.61031296E+03</totfact>
</mgrwt>
</event>
<event>
 9    1  0.7926126E-001  0.2784223E+03  0.7818608E-02  0.1096554E+00
         -2   -1    0    0    0  501 -0.00000000000E+00  0.00000000000E+00  0.53751119990E+02  0.53751119990E+02  0.00000000000E+00 0. -1.
          2   -1    0    0  501    0  0.00000000000E+00 -0.00000000000E+00 -0.36054575083E+03  0.36054575083E+03  0.00000000000E+00 0. -1.
         35    2    1    2    0    0  0.00000000000E+00  0.00000000000E+00 -0.30679463084E+03  0.41429687082E+03  0.27842225425E+03 0.  0.
         25    2    3    3    0    0 -0.49131843393E+02 -0.41244726803E+01 -0.20675502488E+03  0.24621292774E+03  0.12426671383E+03 0.  0.
         25    2    3    3    0    0  0.49131843393E+02  0.41244726803E+01 -0.10003960597E+03  0.16808394308E+03  0.12575110278E+03 0.  0.
          5    1    4    4  502    0 -0.40874632093E+02 -0.33975795539E+02 -0.20213607006E+02  0.57059356283E+02  0.47000000000E+01 0. -1.
         -5    1    4    4    0  502 -0.82572113001E+01  0.29851322859E+02 -0.18654141787E+03  0.18915357146E+03  0.47000000000E+01 0. -1.
          5    1    5    5  503    0  0.17120670191E+02 -0.60259769047E+02 -0.51098935560E+02  0.80978690584E+02  0.47000000000E+01 0.  1.
         -5    1    5    5    0  503  0.32011173202E+02  0.64384241727E+02 -0.48940670406E+02  0.87105252496E+02  0.47000000000E+01 0.  1.
<mgrwt>
<rscale>  0 0.27842225E+03</rscale>
<asrwt>0</asrwt>
<pdfrwt beam="1">  1        2 0.55468576E-01 0.27842225E+03</pdfrwt>
<pdfrwt beam="2">  1       -2 0.82694032E-02 0.27842225E+03</pdfrwt>
<totfact> 0.79785808E+03</totfact>
</mgrwt>
</event>
<event>
 9    1  0.7926126E-001  0.2697914E+03  0.7818608E-02  0.1101399E+00
          2   -1    0    0  501    0  0.00000000000E+00  0.00000000000E+00  0.23278013401E+04  0.23278013401E+04  0.00000000000E+00 0.  1.
         -2   -1    0    0    0  501 -0.00000000000E+00 -0.00000000000E+00 -0.78171850681E+01  0.78171850681E+01  0.00000000000E+00 0.  1.
         35    2    1    2    0    0  0.00000000000E+00  0.35527136788E-14  0.23199841551E+04  0.23356185252E+04  0.26979142965E+03 0.  0.
         25    2    3    3    0    0 -0.41566445305E+02 -0.83867135556E+01  0.92955175521E+03  0.93879080809E+03  0.12435276193E+03 0.  0.
         25    2    3    3    0    0  0.41566445305E+02  0.83867135556E+01  0.13904323998E+04  0.13968277171E+04  0.12659899836E+03 0.  0.
          5    1    4    4  502    0  0.43993554272E+02  0.52877992242E+01  0.32798484289E+03  0.33099779577E+03  0.47000000000E+01 0. -1.
         -5    1    4    4    0  502 -0.85559999577E+02 -0.13674512780E+02  0.60156691231E+03  0.60779301231E+03  0.47000000000E+01 0. -1.
          5    1    5    5  503    0  0.71787270834E+02 -0.23253767333E+02  0.54115547401E+03  0.54641146310E+03  0.47000000000E+01 0. -1.
         -5    1    5    5    0  503 -0.30220825529E+02  0.31640480889E+02  0.84927692583E+03  0.85041625401E+03  0.47000000000E+01 0. -1.
<mgrwt>
<rscale>  0 0.26979143E+03</rscale>
<asrwt>0</asrwt>
<pdfrwt beam="1">  1        2 0.35812273E+00 0.26979143E+03</pdfrwt>
<pdfrwt beam="2">  1       -2 0.12026457E-02 0.26979143E+03</pdfrwt>
<totfact> 0.81054092E+03</totfact>
</mgrwt>
</event>
<event>
 9    1  0.7926126E-001  0.2750590E+03  0.7818608E-02  0.1098419E+00
          1   -1    0    0  501    0  0.00000000000E+00  0.00000000000E+00  0.11329784236E+04  0.11329784236E+04  0.00000000000E+00 0. -1.
         -1   -1    0    0    0  501 -0.00000000000E+00 -0.00000000000E+00 -0.16694370597E+02  0.16694370597E+02  0.00000000000E+00 0. -1.
         35    2    1    2    0    0  0.35527136788E-14  0.35527136788E-14  0.11162840530E+04  0.11496727942E+04  0.27505898773E+03 0.  0.
         25    2    3    3    0    0  0.58264486820E+01  0.12565246305E+02  0.79024946163E+03  0.80022262675E+03  0.12518070073E+03 0.  0.
         25    2    3    3    0    0 -0.58264486820E+01 -0.12565246305E+02  0.32603459141E+03  0.34945016749E+03  0.12500012736E+03 0.  0.
          5    1    4    4  502    0  0.16441613939E+02 -0.45878287963E+02  0.56858875868E+03  0.57069292134E+03  0.47000000000E+01 0. -1.
         -5    1    4    4    0  502 -0.10615165257E+02  0.58443534268E+02  0.22166070296E+03  0.22952970541E+03  0.47000000000E+01 0. -1.
          5    1    5    5  503    0 -0.53525732656E+02 -0.13124133999E+01  0.26804055071E+03  0.27337621204E+03  0.47000000000E+01 0.  1.
         -5    1    5    5    0  503  0.47699283974E+02 -0.11252832905E+02  0.57994040702E+02  0.76073955444E+02  0.47000000000E+01 0.  1.
<mgrwt>
<rscale>  0 0.27505899E+03</rscale>
<asrwt>0</asrwt>
<pdfrwt beam="1">  1        1 0.17430431E+00 0.27505899E+03</pdfrwt>
<pdfrwt beam="2">  1       -1 0.25683656E-02 0.27505899E+03</pdfrwt>
<totfact> 0.60607575E+03</totfact>
</mgrwt>
</event>
<event>
 9    1  0.7926126E-001  0.2752483E+03  0.7818608E-02  0.1098313E+00
         -1   -1    0    0    0  501 -0.00000000000E+00  0.00000000000E+00  0.19962495813E+03  0.19962495813E+03  0.00000000000E+00 0. -1.
          1   -1    0    0  501    0  0.00000000000E+00 -0.00000000000E+00 -0.94879986548E+02  0.94879986548E+02  0.00000000000E+00 0. -1.
         35    2    1    2    0    0  0.00000000000E+00  0.53290705182E-14  0.10474497158E+03  0.29450494468E+03  0.27524834853E+03 0.  0.
         25    2    3    3    0    0  0.35350814812E+02  0.14783246189E+02  0.10005503728E+03  0.16483361799E+03  0.12526326939E+03 0.  0.
         25    2    3    3    0    0 -0.35350814812E+02 -0.14783246189E+02  0.46899343010E+01  0.12967132669E+03  0.12379189394E+03 0.  0.
          5    1    4    4  502    0  0.76936239218E+02  0.29321431541E+02  0.83986434838E+02  0.11770617014E+03  0.47000000000E+01 0.  1.
         -5    1    4    4    0  502 -0.41585424406E+02 -0.14538185352E+02  0.16068602444E+02  0.47127447850E+02  0.47000000000E+01 0.  1.
          5    1    5    5  503    0  0.15012934512E+02  0.40401157159E+02 -0.23937291520E+02  0.49525000028E+02  0.47000000000E+01 0.  1.
         -5    1    5    5    0  503 -0.50363749325E+02 -0.55184403348E+02  0.28627225821E+02  0.80146326660E+02  0.47000000000E+01 0.  1.
<mgrwt>
<rscale>  0 0.27524835E+03</rscale>
<asrwt>0</asrwt>
<pdfrwt beam="1">  1        1 0.14596921E-01 0.27524835E+03</pdfrwt>
<pdfrwt beam="2">  1       -1 0.30711532E-01 0.27524835E+03</pdfrwt>
<totfact> 0.37713446E+03</totfact>
</mgrwt>
</event>
<event>
 9    1  0.7926126E-001  0.2770536E+03  0.7818608E-02  0.1097309E+00
         -1   -1    0    0    0  501 -0.00000000000E+00  0.00000000000E+00  0.20243882436E+03  0.20243882436E+03  0.00000000000E+00 0.  1.
          1   -1    0    0  501    0  0.00000000000E+00 -0.00000000000E+00 -0.94792466149E+02  0.94792466149E+02  0.00000000000E+00 0.  1.
         35    2    1    2    0    0  0.00000000000E+00 -0.35527136788E-14  0.10764635821E+03  0.29723129051E+03  0.27705360785E+03 0.  0.
         25    2    3    3    0    0 -0.47604583391E+02 -0.21819886667E+02  0.12472879556E+02  0.13566092698E+03  0.12452313267E+03 0.  0.
         25    2    3    3    0    0  0.47604583391E+02  0.21819886667E+02  0.95173478658E+02  0.16157036353E+03  0.11960220532E+03 0.  0.
          5    1    4    4  502    0 -0.70964248504E+02  0.73645410439E+01  0.46172307584E+02  0.85112472753E+02  0.47000000000E+01 0. -1.
         -5    1    4    4    0  502  0.23359665113E+02 -0.29184427711E+02 -0.33699428029E+02  0.50548454224E+02  0.47000000000E+01 0. -1.
          5    1    5    5  503    0  0.40034087628E+02 -0.27121721658E+02  0.10041302072E+03  0.11154900577E+03  0.47000000000E+01 0.  1.
         -5    1    5    5    0  503  0.75704957622E+01  0.48941608325E+02 -0.52395420627E+01  0.50021357764E+02  0.47000000000E+01 0.  1.
<mgrwt>
<rscale>  0 0.27705361E+03</rscale>
<asrwt>0</asrwt>
<pdfrwt beam="1">  1        1 0.14583456E-01 0.27705361E+03</pdfrwt>
<pdfrwt beam="2">  1       -1 0.31144434E-01 0.27705361E+03</pdfrwt>
<totfact> 0.36874073E+03</totfact>
</mgrwt>
</event>
<event>
 9    1  0.7926126E-001  0.2765248E+03  0.7818608E-02  0.1097602E+00
          2   -1    0    0  501    0  0.00000000000E+00  0.00000000000E+00  0.45962746458E+03  0.45962746458E+03  0.00000000000E+00 0.  1.
         -2   -1    0    0    0  501 -0.00000000000E+00 -0.00000000000E+00 -0.41591265195E+02  0.41591265195E+02  0.00000000000E+00 0.  1.
         35    2    1    2    0    0 -0.71054273576E-14 -0.71054273576E-14  0.41803619939E+03  0.50121872978E+03  0.27652477481E+03 0.  0.
         25    2    3    3    0    0  0.27081367861E+02  0.51497294758E+02  0.18876910940E+03  0.23405359508E+03  0.12554655253E+03 0.  0.
         25    2    3    3    0    0 -0.27081367861E+02 -0.51497294758E+02  0.22926708999E+03  0.26716513470E+03  0.12421126678E+03 0.  0.
          5    1    4    4  502    0  0.33403090989E+02  0.29528707490E+02  0.10023625022E+01  0.44842009146E+02  0.47000000000E+01 0.  1.
         -5    1    4    4    0  502 -0.63217231277E+01  0.21968587268E+02  0.18776674690E+03  0.18921158593E+03  0.47000000000E+01 0.  1.
          5    1    5    5  503    0 -0.72045270389E+02 -0.13808880069E+02  0.91624926997E+02  0.11746669060E+03  0.47000000000E+01 0. -1.
         -5    1    5    5    0  503  0.44963902528E+02 -0.37688414689E+02  0.13764216299E+03  0.14969844410E+03  0.47000000000E+01 0. -1.
<mgrwt>
<rscale>  0 0.27652477E+03</rscale>
<asrwt>0</asrwt>
<pdfrwt beam="1">  1        2 0.70711914E-01 0.27652477E+03</pdfrwt>
<pdfrwt beam="2">  1       -2 0.63986565E-02 0.27652477E+03</pdfrwt>
<totfact> 0.91163172E+03</totfact>
</mgrwt>
</event>
<event>
 9    1  0.7926126E-001  0.2746391E+03  0.7818608E-02  0.1098654E+00
         -3   -1    0    0    0  501 -0.00000000000E+00  0.00000000000E+00  0.48780750694E+03  0.48780750694E+03  0.00000000000E+00 0.  1.
          3   -1    0    0  501    0  0.00000000000E+00 -0.00000000000E+00 -0.38655932217E+02  0.38655932217E+02  0.00000000000E+00 0.  1.
         35    2    1    2    0    0  0.00000000000E+00 -0.35527136788E-14  0.44915157472E+03  0.52646343916E+03  0.27463906440E+03 0.  0.
         25    2    3    3    0    0  0.42248827155E+02  0.18296653852E+02  0.15937301796E+03  0.20766443744E+03  0.12492008960E+03 0.  0.
         25    2    3    3    0    0 -0.42248827155E+02 -0.18296653852E+02  0.28977855676E+03  0.31879900171E+03  0.12466539454E+03 0.  0.
          5    1    4    4  502    0  0.47939802569E+02 -0.24670357410E+01  0.14950268610E+01  0.48255943064E+02  0.47000000000E+01 0.  1.
         -5    1    4    4    0  502 -0.56909754142E+01  0.20763689593E+02  0.15787799110E+03  0.15940849438E+03  0.47000000000E+01 0.  1.
          5    1    5    5  503    0 -0.31933330648E+02 -0.65546283533E+02  0.10624619579E+03  0.12894338685E+03  0.47000000000E+01 0. -1.
         -5    1    5    5    0  503 -0.10315496507E+02  0.47249629680E+02  0.18353236097E+03  0.18985561487E+03  0.47000000000E+01 0. -1.
<mgrwt>
<rscale>  0 0.27463906E+03</rscale>
<asrwt>0</asrwt>
<pdfrwt beam="1">  1        3 0.59470668E-02 0.27463906E+03</pdfrwt>
<pdfrwt beam="2">  1       -3 0.75047304E-01 0.27463906E+03</pdfrwt>
<totfact> 0.75139392E+02</totfact>
</mgrwt>
</event>
<event>
 9    1  0.7926126E-001  0.2664340E+03  0.7818608E-02  0.1103338E+00
         -1   -1    0    0    0  501 -0.00000000000E+00  0.00000000000E+00  0.10557027076E+04  0.10557027076E+04  0.00000000000E+00 0. -1.
          1   -1    0    0  501    0  0.00000000000E+00 -0.00000000000E+00 -0.16810391392E+02  0.16810391392E+02  0.00000000000E+00 0. -1.
         35    2    1    2    0    0 -0.71054273576E-14  0.00000000000E+00  0.10388923162E+04  0.10725130990E+04  0.26643404969E+03 0.  0.
         25    2    3    3    0    0  0.66517358503E+01  0.61714048965E+01  0.69880698444E+03  0.70996057755E+03  0.12502195146E+03 0.  0.
         25    2    3    3    0    0 -0.66517358503E+01 -0.61714048965E+01  0.34008533178E+03  0.36255252145E+03  0.12531546629E+03 0.  0.
          5    1    4    4  502    0  0.50142510035E+02  0.42188467993E+02  0.45084443995E+03  0.45560612066E+03  0.47000000000E+01 0. -1.
         -5    1    4    4    0  502 -0.43490774185E+02 -0.36017063097E+02  0.24796254448E+03  0.25435445689E+03  0.47000000000E+01 0. -1.
          5    1    5    5  503    0  0.13925835330E+02  0.46545775475E+02  0.25900588126E+03  0.26356512408E+03  0.47000000000E+01 0.  1.
         -5    1    5    5    0  503 -0.20577571181E+02 -0.52717180371E+02  0.81079450525E+02  0.98987397377E+02  0.47000000000E+01 0.  1.
<mgrwt>
<rscale>  0 0.26643405E+03</rscale>
<asrwt>0</asrwt>
<pdfrwt beam="1">  1        1 0.25862149E-02 0.26643405E+03</pdfrwt>
<pdfrwt beam="2">  1       -1 0.16241575E+00 0.26643405E+03</pdfrwt>
<totfact> 0.12824378E+03</totfact>
</mgrwt>
</event>
<event>
 9    1  0.7926126E-001  0.2809638E+03  0.7818608E-02  0.1095164E+00
         -2   -1    0    0    0  501 -0.00000000000E+00  0.00000000000E+00  0.15533970792E+02  0.15533970792E+02  0.00000000000E+00 0. -1.
          2   -1    0    0  501    0  0.00000000000E+00 -0.00000000000E+00 -0.12704523166E+04  0.12704523166E+04  0.00000000000E+00 0. -1.
         35    2    1    2    0    0 -0.35527136788E-14  0.00000000000E+00 -0.12549183458E+04  0.12859862874E+04  0.28096383524E+03 0.  0.
         25    2    3    3    0    0  0.25140312543E+02 -0.97895465475E+00 -0.36076535326E+03  0.38309606707E+03  0.12640396680E+03 0.  0.
         25    2    3    3    0    0 -0.25140312543E+02  0.97895465475E+00 -0.89415299251E+03  0.90289022029E+03  0.12275252425E+03 0.  0.
          5    1    4    4  502    0  0.23978526736E+02 -0.30609095993E+02 -0.26052584166E+02  0.47039490258E+02  0.47000000000E+01 0.  1.
         -5    1    4    4    0  502  0.11617858066E+01  0.29630141338E+02 -0.33471276909E+03  0.33605657681E+03  0.47000000000E+01 0.  1.
          5    1    5    5  503    0  0.15185415007E+02 -0.16739054835E+02 -0.31252933512E+02  0.38853939810E+02  0.47000000000E+01 0. -1.
         -5    1    5    5    0  503 -0.40325727549E+02  0.17718009489E+02 -0.86290005900E+03  0.86403628048E+03  0.47000000000E+01 0. -1.
<mgrwt>
<rscale>  0 0.28096384E+03</rscale>
<asrwt>0</asrwt>
<pdfrwt beam="1">  1        2 0.19545425E+00 0.28096384E+03</pdfrwt>
<pdfrwt beam="2">  1       -2 0.23898411E-02 0.28096384E+03</pdfrwt>
<totfact> 0.10826740E+04</totfact>
</mgrwt>
</event>
<event>
 9    1  0.7926126E-001  0.2753519E+03  0.7818608E-02  0.1098255E+00
          2   -1    0    0  501    0  0.00000000000E+00  0.00000000000E+00  0.43690759615E+03  0.43690759615E+03  0.00000000000E+00 0.  1.
         -2   -1    0    0    0  501 -0.00000000000E+00 -0.00000000000E+00 -0.43383709189E+02  0.43383709189E+02  0.00000000000E+00 0.  1.
         35    2    1    2    0    0  0.71054273576E-14  0.71054273576E-14  0.39352388696E+03  0.48029130534E+03  0.27535193548E+03 0.  0.
         25    2    3    3    0    0  0.49321361592E+02  0.27240371204E+02  0.18553482405E+03  0.22977631964E+03  0.12328565041E+03 0.  0.
         25    2    3    3    0    0 -0.49321361592E+02 -0.27240371204E+02  0.20798906291E+03  0.25051498570E+03  0.12776413127E+03 0.  0.
          5    1    4    4  502    0  0.18524053396E+02 -0.30630366367E+02  0.35384872306E+01  0.36276311691E+02  0.47000000000E+01 0.  1.
         -5    1    4    4    0  502  0.30797308197E+02  0.57870737571E+02  0.18199633682E+03  0.19350000795E+03  0.47000000000E+01 0.  1.
          5    1    5    5  503    0 -0.63500413486E+02 -0.13371480562E+02  0.30496062883E+02  0.71855402418E+02  0.47000000000E+01 0.  1.
         -5    1    5    5    0  503  0.14179051894E+02 -0.13868890642E+02  0.17749300003E+03  0.17865958329E+03  0.47000000000E+01 0.  1.
<mgrwt>
<rscale>  0 0.27535194E+03</rscale>
<asrwt>0</asrwt>
<pdfrwt beam="1">  1        2 0.67216550E-01 0.27535194E+03</pdfrwt>
<pdfrwt beam="2">  1       -2 0.66744171E-02 0.27535194E+03</pdfrwt>
<totfact> 0.90306982E+03</totfact>
</mgrwt>
</event>
<event>
 9    1  0.7926126E-001  0.2735281E+03  0.7818608E-02  0.1099277E+00
          2   -1    0    0  501    0  0.00000000000E+00  0.00000000000E+00  0.54141890721E+02  0.54141890721E+02  0.00000000000E+00 0.  1.
         -2   -1    0    0    0  501 -0.00000000000E+00 -0.00000000000E+00 -0.34547007793E+03  0.34547007793E+03  0.00000000000E+00 0.  1.
         35    2    1    2    0    0 -0.71054273576E-14  0.14210854715E-13 -0.29132818721E+03  0.39961196865E+03  0.27352808416E+03 0.  0.
         25    2    3    3    0    0 -0.29640702362E+02  0.42462850823E+02 -0.12340432403E+03  0.18417138733E+03  0.12652591745E+03 0.  0.
         25    2    3    3    0    0  0.29640702362E+02 -0.42462850823E+02 -0.16792386318E+03  0.21544058132E+03  0.12463769622E+03 0.  0.
          5    1    4    4  502    0  0.17974515471E+02  0.74473874074E+02 -0.87182750578E+02  0.11615663186E+03  0.47000000000E+01 0.  1.
         -5    1    4    4    0  502 -0.47615217833E+02 -0.32011023251E+02 -0.36221573454E+02  0.68014755476E+02  0.47000000000E+01 0.  1.
          5    1    5    5  503    0  0.98485559107E+01 -0.28352498919E+02 -0.18362703077E+03  0.18612317072E+03  0.47000000000E+01 0. -1.
         -5    1    5    5    0  503  0.19792146452E+02 -0.14110351904E+02  0.15703167592E+02  0.29317410602E+02  0.47000000000E+01 0. -1.
<mgrwt>
<rscale>  0 0.27352808E+03</rscale>
<asrwt>0</asrwt>
<pdfrwt beam="1">  1        2 0.83295214E-02 0.27352808E+03</pdfrwt>
<pdfrwt beam="2">  1       -2 0.53149244E-01 0.27352808E+03</pdfrwt>
<totfact> 0.27315759E+03</totfact>
</mgrwt>
</event>
<event>
 9    1  0.7926126E-001  0.2760095E+03  0.7818608E-02  0.1097889E+00
         -1   -1    0    0    0  501 -0.00000000000E+00  0.00000000000E+00  0.19045808979E+02  0.19045808979E+02  0.00000000000E+00 0.  1.
          1   -1    0    0  501    0  0.00000000000E+00 -0.00000000000E+00 -0.99997357484E+03  0.99997357484E+03  0.00000000000E+00 0.  1.
         35    2    1    2    0    0  0.00000000000E+00  0.00000000000E+00 -0.98092776586E+03  0.10190193838E+04  0.27600946136E+03 0.  0.
         25    2    3    3    0    0  0.80829459998E+01 -0.46535360496E+02 -0.33103092558E+03  0.35570474365E+03  0.12129928760E+03 0.  0.
         25    2    3    3    0    0 -0.80829459998E+01  0.46535360496E+02 -0.64989684028E+03  0.66331464017E+03  0.12405456485E+03 0.  0.
          5    1    4    4  502    0 -0.55666397803E+02 -0.28100043878E+02 -0.18363940801E+03  0.19399454241E+03  0.47000000000E+01 0.  1.
         -5    1    4    4    0  502  0.63749343803E+02 -0.18435316618E+02 -0.14739151757E+03  0.16171020124E+03  0.47000000000E+01 0.  1.
          5    1    5    5  503    0  0.47551490313E+02  0.29760409044E+02 -0.15332551883E+03  0.16333288372E+03  0.47000000000E+01 0.  1.
         -5    1    5    5    0  503 -0.55634436312E+02  0.16774951453E+02 -0.49657132145E+03  0.49998175645E+03  0.47000000000E+01 0.  1.
<mgrwt>
<rscale>  0 0.27600946E+03</rscale>
<asrwt>0</asrwt>
<pdfrwt beam="1">  1        1 0.15384212E+00 0.27600946E+03</pdfrwt>
<pdfrwt beam="2">  1       -1 0.29301239E-02 0.27600946E+03</pdfrwt>
<totfact> 0.62427430E+03</totfact>
</mgrwt>
</event>
<event>
 9    1  0.7926126E-001  0.2747108E+03  0.7818608E-02  0.1098613E+00
          2   -1    0    0  501    0  0.00000000000E+00  0.00000000000E+00  0.21980171437E+03  0.21980171437E+03  0.00000000000E+00 0. -1.
         -2   -1    0    0    0  501 -0.00000000000E+00 -0.00000000000E+00 -0.85834177634E+02  0.85834177634E+02  0.00000000000E+00 0. -1.
         35    2    1    2    0    0 -0.71054273576E-14 -0.71054273576E-14  0.13396753673E+03  0.30563589200E+03  0.27471075258E+03 0.  0.
         25    2    3    3    0    0 -0.45508081549E+02  0.45326169932E+01  0.10443286733E+03  0.16929066214E+03  0.12514621211E+03 0.  0.
         25    2    3    3    0    0  0.45508081549E+02 -0.45326169932E+01  0.29534669406E+02  0.13634522986E+03  0.12500477953E+03 0.  0.
          5    1    4    4  502    0  0.11257188147E+02  0.48287727456E+02  0.78421670715E+02  0.92900362462E+02  0.47000000000E+01 0. -1.
         -5    1    4    4    0  502 -0.56765269696E+02 -0.43755110463E+02  0.26011196610E+02  0.76390299675E+02  0.47000000000E+01 0. -1.
          5    1    5    5  503    0 -0.31549437403E+02 -0.37066919034E+02  0.16193494506E+02  0.51513520084E+02  0.47000000000E+01 0.  1.
         -5    1    5    5    0  503  0.77057518952E+02  0.32534302041E+02  0.13341174900E+02  0.84831709779E+02  0.47000000000E+01 0.  1.
<mgrwt>
<rscale>  0 0.27471075E+03</rscale>
<asrwt>0</asrwt>
<pdfrwt beam="1">  1        2 0.33815648E-01 0.27471075E+03</pdfrwt>
<pdfrwt beam="2">  1       -2 0.13205258E-01 0.27471075E+03</pdfrwt>
<totfact> 0.64440594E+03</totfact>
</mgrwt>
</event>
<event>
 9    1  0.7926126E-001  0.2687853E+03  0.7818608E-02  0.1101977E+00
          1   -1    0    0  501    0  0.00000000000E+00  0.00000000000E+00  0.30154266388E+02  0.30154266388E+02  0.00000000000E+00 0. -1.
         -1   -1    0    0    0  501 -0.00000000000E+00 -0.00000000000E+00 -0.59896605539E+03  0.59896605539E+03  0.00000000000E+00 0. -1.
         35    2    1    2    0    0 -0.35527136788E-14  0.00000000000E+00 -0.56881178900E+03  0.62912032178E+03  0.26878528227E+03 0.  0.
         25    2    3    3    0    0  0.17961707376E+02  0.41748141167E+02 -0.33060536925E+03  0.35631057469E+03  0.12486707026E+03 0.  0.
         25    2    3    3    0    0 -0.17961707376E+02 -0.41748141167E+02 -0.23820641976E+03  0.27280974710E+03  0.12496931413E+03 0.  0.
          5    1    4    4  502    0 -0.27521880538E+02 -0.34139015261E+02 -0.11875738580E+03  0.12668201511E+03  0.47000000000E+01 0.  1.
         -5    1    4    4    0  502  0.45483587914E+02  0.75887156428E+02 -0.21184798345E+03  0.22962855957E+03  0.47000000000E+01 0.  1.
          5    1    5    5  503    0  0.22791115699E+02 -0.63521401069E+02 -0.66230134402E+02  0.94672720736E+02  0.47000000000E+01 0.  1.
         -5    1    5    5    0  503 -0.40752823075E+02  0.21773259902E+02 -0.17197628536E+03  0.17813702636E+03  0.47000000000E+01 0.  1.
<mgrwt>
<rscale>  0 0.26878528E+03</rscale>
<asrwt>0</asrwt>
<pdfrwt beam="1">  1        1 0.46391179E-02 0.26878528E+03</pdfrwt>
<pdfrwt beam="2">  1       -1 0.92148623E-01 0.26878528E+03</pdfrwt>
<totfact> 0.22259077E+03</totfact>
</mgrwt>
</event>
<event>
 9    1  0.7926126E-001  0.2827545E+03  0.7818608E-02  0.1094194E+00
          2   -1    0    0  501    0  0.00000000000E+00  0.00000000000E+00  0.16393839827E+04  0.16393839827E+04  0.00000000000E+00 0. -1.
         -2   -1    0    0    0  501 -0.00000000000E+00 -0.00000000000E+00 -0.12192100061E+02  0.12192100061E+02  0.00000000000E+00 0. -1.
         35    2    1    2    0    0  0.00000000000E+00  0.71054273576E-14  0.16271918827E+04  0.16515760828E+04  0.28275454766E+03 0.  0.
         25    2    3    3    0    0 -0.53988032772E+01 -0.61221949604E+02  0.66474410978E+03  0.67910556304E+03  0.12458876379E+03 0.  0.
         25    2    3    3    0    0  0.53988032772E+01  0.61221949604E+02  0.96244777288E+03  0.97247051975E+03  0.12496368301E+03 0.  0.
          5    1    4    4  502    0 -0.15912369372E+01 -0.65876813273E+02  0.66767077266E+03  0.67093117175E+03  0.47000000000E+01 0.  1.
         -5    1    4    4    0  502 -0.38075663400E+01  0.46548636695E+01 -0.29266628799E+01  0.81743912818E+01  0.47000000000E+01 0.  1.
          5    1    5    5  503    0 -0.10767825989E+02  0.84113739148E+02  0.38199277148E+03  0.39132037342E+03  0.47000000000E+01 0. -1.
         -5    1    5    5    0  503  0.16166629266E+02 -0.22891789545E+02  0.58045500140E+03  0.58115014633E+03  0.47000000000E+01 0. -1.
<mgrwt>
<rscale>  0 0.28275455E+03</rscale>
<asrwt>0</asrwt>
<pdfrwt beam="1">  1        2 0.25221275E+00 0.28275455E+03</pdfrwt>
<pdfrwt beam="2">  1       -2 0.18757090E-02 0.28275455E+03</pdfrwt>
<totfact> 0.97780687E+03</totfact>
</mgrwt>
</event>
<event>
 9    1  0.7926126E-001  0.2765394E+03  0.7818608E-02  0.1097594E+00
          2   -1    0    0  501    0  0.00000000000E+00  0.00000000000E+00  0.41867337361E+03  0.41867337361E+03  0.00000000000E+00 0.  1.
         -2   -1    0    0    0  501 -0.00000000000E+00 -0.00000000000E+00 -0.45664509405E+02  0.45664509405E+02  0.00000000000E+00 0.  1.
         35    2    1    2    0    0  0.00000000000E+00  0.00000000000E+00  0.37300886420E+03  0.46433788301E+03  0.27653943087E+03 0.  0.
         25    2    3    3    0    0 -0.56150379853E+02 -0.10719676986E+02  0.21363575087E+03  0.25394136071E+03  0.12481267563E+03 0.  0.
         25    2    3    3    0    0  0.56150379853E+02  0.10719676986E+02  0.15937311333E+03  0.21039652230E+03  0.12489647998E+03 0.  0.
          5    1    4    4  502    0 -0.97533106482E+01 -0.48198736264E+02  0.17705130857E+03  0.18381376747E+03  0.47000000000E+01 0. -1.
         -5    1    4    4    0  502 -0.46397069205E+02  0.37479059278E+02  0.36584442297E+02  0.70127593238E+02  0.47000000000E+01 0. -1.
          5    1    5    5  503    0  0.21455111934E+02  0.31548463460E+02 -0.70303517011E+01  0.39078679863E+02  0.47000000000E+01 0.  1.
         -5    1    5    5    0  503  0.34695267919E+02 -0.20828786474E+02  0.16640346504E+03  0.17131784244E+03  0.47000000000E+01 0.  1.
<mgrwt>
<rscale>  0 0.27653943E+03</rscale>
<asrwt>0</asrwt>
<pdfrwt beam="1">  1        2 0.64411286E-01 0.27653943E+03</pdfrwt>
<pdfrwt beam="2">  1       -2 0.70253094E-02 0.27653943E+03</pdfrwt>
<totfact> 0.87426133E+03</totfact>
</mgrwt>
</event>
<event>
 9    1  0.7926126E-001  0.2714176E+03  0.7818608E-02  0.1100471E+00
         -1   -1    0    0    0  501 -0.00000000000E+00  0.00000000000E+00  0.22558180574E+03  0.22558180574E+03  0.00000000000E+00 0. -1.
          1   -1    0    0  501    0  0.00000000000E+00 -0.00000000000E+00 -0.81641709505E+02  0.81641709505E+02  0.00000000000E+00 0. -1.
         35    2    1    2    0    0  0.00000000000E+00  0.00000000000E+00  0.14394009623E+03  0.30722351524E+03  0.27141764315E+03 0.  0.
         25    2    3    3    0    0 -0.43332347670E+01 -0.58089745168E+02  0.63511092909E+02  0.14759698406E+03  0.11982493632E+03 0.  0.
         25    2    3    3    0    0  0.43332347670E+01  0.58089745168E+02  0.80429003324E+02  0.15962653118E+03  0.12497443524E+03 0.  0.
          5    1    4    4  502    0  0.56358919957E+02 -0.14682971272E+02  0.29643407441E+02  0.65518998075E+02  0.47000000000E+01 0.  1.
         -5    1    4    4    0  502 -0.60692154724E+02 -0.43406773897E+02  0.33867685467E+02  0.82077985989E+02  0.47000000000E+01 0.  1.
          5    1    5    5  503    0  0.41627434901E+02  0.55734784884E+02  0.96187688501E+02  0.11879970960E+03  0.47000000000E+01 0. -1.
         -5    1    5    5    0  503 -0.37294200134E+02  0.23549602839E+01 -0.15758685177E+02  0.40826821577E+02  0.47000000000E+01 0. -1.
<mgrwt>
<rscale>  0 0.27141764E+03</rscale>
<asrwt>0</asrwt>
<pdfrwt beam="1">  1        1 0.12560263E-01 0.27141764E+03</pdfrwt>
<pdfrwt beam="2">  1       -1 0.34704893E-01 0.27141764E+03</pdfrwt>
<totfact> 0.37251093E+03</totfact>
</mgrwt>
</event>
<event>
 9    1  0.7926126E-001  0.2721822E+03  0.7818608E-02  0.1100037E+00
         -2   -1    0    0    0  501 -0.00000000000E+00  0.00000000000E+00  0.41959052007E+03  0.41959052007E+03  0.00000000000E+00 0.  1.
          2   -1    0    0  501    0  0.00000000000E+00 -0.00000000000E+00 -0.44140140625E+02  0.44140140625E+02  0.00000000000E+00 0.  1.
         35    2    1    2    0    0  0.14210854715E-13  0.35527136788E-14  0.37545037945E+03  0.46373066069E+03  0.27218217841E+03 0.  0.
         25    2    3    3    0    0 -0.42810623097E+02 -0.33771933626E+01  0.13293268386E+03  0.18748817972E+03  0.12504624829E+03 0.  0.
         25    2    3    3    0    0  0.42810623097E+02  0.33771933626E+01  0.24251769558E+03  0.27624248097E+03  0.12510363999E+03 0.  0.
          5    1    4    4  502    0  0.12226626204E+02 -0.23576687074E+02 -0.13152933832E+02  0.30007336271E+02  0.47000000000E+01 0.  1.
         -5    1    4    4    0  502 -0.55037249301E+02  0.20199493711E+02  0.14608561770E+03  0.15748084345E+03  0.47000000000E+01 0.  1.
          5    1    5    5  503    0  0.76042157517E+02 -0.21948640942E+02  0.20534834350E+03  0.22012311268E+03  0.47000000000E+01 0.  1.
         -5    1    5    5    0  503 -0.33231534419E+02  0.25325834305E+02  0.37169352084E+02  0.56119368292E+02  0.47000000000E+01 0.  1.
<mgrwt>
<rscale>  0 0.27218218E+03</rscale>
<asrwt>0</asrwt>
<pdfrwt beam="1">  1        2 0.67907912E-02 0.27218218E+03</pdfrwt>
<pdfrwt beam="2">  1       -2 0.64552385E-01 0.27218218E+03</pdfrwt>
<totfact> 0.23755613E+03</totfact>
</mgrwt>
</event>
<event>
 9    1  0.7926126E-001  0.2747654E+03  0.7818608E-02  0.1098583E+00
          1   -1    0    0  501    0  0.00000000000E+00  0.00000000000E+00  0.82403188127E+02  0.82403188127E+02  0.00000000000E+00 0.  1.
         -1   -1    0    0    0  501 -0.00000000000E+00 -0.00000000000E+00 -0.22904466247E+03  0.22904466247E+03  0.00000000000E+00 0.  1.
         35    2    1    2    0    0 -0.35527136788E-14  0.00000000000E+00 -0.14664147434E+03  0.31144785060E+03  0.27476543022E+03 0.  0.
         25    2    3    3    0    0 -0.10922458762E+02  0.21967793021E+01 -0.28640368631E+02  0.13902413753E+03  0.13558508088E+03 0.  0.
         25    2    3    3    0    0  0.10922458762E+02 -0.21967793021E+01 -0.11800110571E+03  0.17242371307E+03  0.12522599543E+03 0.  0.
          5    1    4    4  502    0 -0.44068800346E+02  0.56389615265E+02 -0.85367572717E+01  0.72227516214E+02  0.47000000000E+01 0.  1.
         -5    1    4    4    0  502  0.33146341584E+02 -0.54192835963E+02 -0.20103611359E+02  0.66796621320E+02  0.47000000000E+01 0.  1.
          5    1    5    5  503    0 -0.90224639527E+01  0.32272413188E+02 -0.12691194314E+03  0.13134551694E+03  0.47000000000E+01 0.  1.
         -5    1    5    5    0  503  0.19944922715E+02 -0.34469192490E+02  0.89108374280E+01  0.41078196123E+02  0.47000000000E+01 0.  1.
<mgrwt>
<rscale>  0 0.27476543E+03</rscale>
<asrwt>0</asrwt>
<pdfrwt beam="1">  1        1 0.12677414E-01 0.27476543E+03</pdfrwt>
<pdfrwt beam="2">  1       -1 0.35237639E-01 0.27476543E+03</pdfrwt>
<totfact> 0.35846978E+03</totfact>
</mgrwt>
</event>
<event>
 9    1  0.7926126E-001  0.2748636E+03  0.7818608E-02  0.1098528E+00
         -2   -1    0    0    0  501 -0.00000000000E+00  0.00000000000E+00  0.32020618889E+02  0.32020618889E+02  0.00000000000E+00 0. -1.
          2   -1    0    0  501    0  0.00000000000E+00 -0.00000000000E+00 -0.58985441286E+03  0.58985441286E+03  0.00000000000E+00 0. -1.
         35    2    1    2    0    0 -0.17763568394E-14  0.00000000000E+00 -0.55783379398E+03  0.62187503175E+03  0.27486362694E+03 0.  0.
         25    2    3    3    0    0  0.79084168792E+01 -0.59678122876E+02 -0.23602894589E+03  0.27130400996E+03  0.11946623421E+03 0.  0.
         25    2    3    3    0    0 -0.79084168792E+01  0.59678122876E+02 -0.32180484809E+03  0.35057102180E+03  0.12537009078E+03 0.  0.
          5    1    4    4  502    0  0.18275553440E+02  0.19851751337E+02 -0.65412232630E+01  0.28159642868E+02  0.47000000000E+01 0.  1.
         -5    1    4    4    0  502 -0.10367136561E+02 -0.79529874213E+02 -0.22948772262E+03  0.24314436709E+03  0.47000000000E+01 0.  1.
          5    1    5    5  503    0  0.25783162407E+02  0.53350776984E+02 -0.53274740207E+02  0.79820829440E+02  0.47000000000E+01 0. -1.
         -5    1    5    5    0  503 -0.33691579286E+02  0.63273458918E+01 -0.26853010788E+03  0.27075019235E+03  0.47000000000E+01 0. -1.
<mgrwt>
<rscale>  0 0.27486363E+03</rscale>
<asrwt>0</asrwt>
<pdfrwt beam="1">  1        2 0.90746836E-01 0.27486363E+03</pdfrwt>
<pdfrwt beam="2">  1       -2 0.49262489E-02 0.27486363E+03</pdfrwt>
<totfact> 0.10260053E+04</totfact>
</mgrwt>
</event>
<event>
 9    1  0.7926126E-001  0.2719111E+03  0.7818608E-02  0.1100191E+00
         -2   -1    0    0    0  501 -0.00000000000E+00  0.00000000000E+00  0.16802206673E+02  0.16802206673E+02  0.00000000000E+00 0. -1.
          2   -1    0    0  501    0  0.00000000000E+00 -0.00000000000E+00 -0.11000885055E+04  0.11000885055E+04  0.00000000000E+00 0. -1.
         35    2    1    2    0    0  0.00000000000E+00  0.00000000000E+00 -0.10832862989E+04  0.11168907122E+04  0.27191112099E+03 0.  0.
         25    2    3    3    0    0  0.46426130880E+02 -0.15409530997E+02 -0.62619291919E+03  0.64042858379E+03  0.12505342705E+03 0.  0.
         25    2    3    3    0    0 -0.46426130880E+02  0.15409530997E+02 -0.45709337969E+03  0.47646212843E+03  0.12525558991E+03 0.  0.
          5    1    4    4  502    0  0.30829464165E+02 -0.63710860647E+02 -0.48811195569E+03  0.49323919239E+03  0.47000000000E+01 0. -1.
         -5    1    4    4    0  502  0.15596666715E+02  0.48301329650E+02 -0.13808096350E+03  0.14718939139E+03  0.47000000000E+01 0. -1.
          5    1    5    5  503    0  0.27196125834E+02  0.26148566068E+02 -0.51161120814E+02  0.63741093893E+02  0.47000000000E+01 0. -1.
         -5    1    5    5    0  503 -0.73622256715E+02 -0.10739035071E+02 -0.40593225887E+03  0.41272103454E+03  0.47000000000E+01 0. -1.
<mgrwt>
<rscale>  0 0.27191112E+03</rscale>
<asrwt>0</asrwt>
<pdfrwt beam="1">  1        2 0.16924444E+00 0.27191112E+03</pdfrwt>
<pdfrwt beam="2">  1       -2 0.25849540E-02 0.27191112E+03</pdfrwt>
<totfact> 0.12051020E+04</totfact>
</mgrwt>
</event>
<event>
 9    1  0.7926126E-001  0.2767670E+03  0.7818608E-02  0.1097468E+00
          1   -1    0    0  501    0  0.00000000000E+00  0.00000000000E+00  0.16168201663E+03  0.16168201663E+03  0.00000000000E+00 0. -1.
         -1   -1    0    0    0  501 -0.00000000000E+00 -0.00000000000E+00 -0.11844227784E+03  0.11844227784E+03  0.00000000000E+00 0. -1.
         35    2    1    2    0    0 -0.71054273576E-14  0.00000000000E+00  0.43239738787E+02  0.28012429447E+03  0.27676695132E+03 0.  0.
         25    2    3    3    0    0  0.41501104676E+02 -0.27932366341E+02 -0.79794832853E+01  0.13564963346E+03  0.12583557576E+03 0.  0.
         25    2    3    3    0    0 -0.41501104676E+02  0.27932366341E+02  0.51219222072E+02  0.14447466101E+03  0.12548689249E+03 0.  0.
          5    1    4    4  502    0  0.80127014200E+02  0.64665928290E+01  0.89582234943E+01  0.81021571174E+02  0.47000000000E+01 0.  1.
         -5    1    4    4    0  502 -0.38625909523E+02 -0.34398959170E+02 -0.16937706780E+02  0.54628062288E+02  0.47000000000E+01 0.  1.
          5    1    5    5  503    0 -0.50593485410E+02 -0.15649980762E+02  0.76424306845E+02  0.93098804184E+02  0.47000000000E+01 0.  1.
         -5    1    5    5    0  503  0.90923807337E+01  0.43582347103E+02 -0.25205084773E+02  0.51375856828E+02  0.47000000000E+01 0.  1.
<mgrwt>
<rscale>  0 0.27676695E+03</rscale>
<asrwt>0</asrwt>
<pdfrwt beam="1">  1        1 0.24874157E-01 0.27676695E+03</pdfrwt>
<pdfrwt beam="2">  1       -1 0.18221889E-01 0.27676695E+03</pdfrwt>
<totfact> 0.44930776E+03</totfact>
</mgrwt>
</event>
<event>
 9    1  0.7926126E-001  0.2755261E+03  0.7818608E-02  0.1098158E+00
         -1   -1    0    0    0  501 -0.00000000000E+00  0.00000000000E+00  0.22475955152E+02  0.22475955152E+02  0.00000000000E+00 0. -1.
          1   -1    0    0  501    0  0.00000000000E+00 -0.00000000000E+00 -0.84439826204E+03  0.84439826204E+03  0.00000000000E+00 0. -1.
         35    2    1    2    0    0  0.35527136788E-14  0.00000000000E+00 -0.82192230689E+03  0.86687421719E+03  0.27552609654E+03 0.  0.
         25    2    3    3    0    0  0.82342409186E+01  0.45061908988E+02 -0.51606956703E+03  0.53312225171E+03  0.12567083548E+03 0.  0.
         25    2    3    3    0    0 -0.82342409186E+01 -0.45061908988E+02 -0.30585273986E+03  0.33375196549E+03  0.12548345556E+03 0.  0.
          5    1    4    4  502    0  0.10025199901E+02  0.87312168968E+02 -0.39814047190E+03  0.40775218559E+03  0.47000000000E+01 0. -1.
         -5    1    4    4    0  502 -0.17909589820E+01 -0.42250259981E+02 -0.11792909512E+03  0.12537006612E+03  0.47000000000E+01 0. -1.
          5    1    5    5  503    0  0.54603140944E+02 -0.26407731705E+02 -0.20102543271E+03  0.21002901202E+03  0.47000000000E+01 0.  1.
         -5    1    5    5    0  503 -0.62837381862E+02 -0.18654177282E+02 -0.10482730716E+03  0.12372295347E+03  0.47000000000E+01 0.  1.
<mgrwt>
<rscale>  0 0.27552610E+03</rscale>
<asrwt>0</asrwt>
<pdfrwt beam="1">  1        1 0.12990744E+00 0.27552610E+03</pdfrwt>
<pdfrwt beam="2">  1       -1 0.34578389E-02 0.27552610E+03</pdfrwt>
<totfact> 0.64575286E+03</totfact>
</mgrwt>
</event>
<event>
 9    1  0.7926126E-001  0.3150101E+03  0.7818608E-02  0.1077969E+00
         -1   -1    0    0    0  501 -0.00000000000E+00  0.00000000000E+00  0.14511728604E+03  0.14511728604E+03  0.00000000000E+00 0. -1.
          1   -1    0    0  501    0  0.00000000000E+00 -0.00000000000E+00 -0.17095024166E+03  0.17095024166E+03  0.00000000000E+00 0. -1.
         35    2    1    2    0    0  0.00000000000E+00 -0.14210854715E-13 -0.25832955616E+02  0.31606752770E+03  0.31501006408E+03 0.  0.
         25    2    3    3    0    0 -0.37852898912E+02 -0.68979729960E+02 -0.68327152830E+02  0.16258002516E+03  0.12479030277E+03 0.  0.
         25    2    3    3    0    0  0.37852898912E+02  0.68979729960E+02  0.42494197215E+02  0.15348750254E+03  0.12474618847E+03 0.  0.
          5    1    4    4  502    0 -0.56678793246E+02  0.76052353270E+00 -0.69970378332E+02  0.90172101250E+02  0.47000000000E+01 0. -1.
         -5    1    4    4    0  502  0.18825894335E+02 -0.69740253493E+02  0.16432255017E+01  0.72407923909E+02  0.47000000000E+01 0. -1.
          5    1    5    5  503    0  0.53127102384E+02 -0.12956891385E+02  0.43448256032E+02  0.70001507086E+02  0.47000000000E+01 0. -1.
         -5    1    5    5    0  503 -0.15274203472E+02  0.81936621345E+02 -0.95405881742E+00  0.83485995456E+02  0.47000000000E+01 0. -1.
<mgrwt>
<rscale>  0 0.31501006E+03</rscale>
<asrwt>0</asrwt>
<pdfrwt beam="1">  1        1 0.26300037E-01 0.31501006E+03</pdfrwt>
<pdfrwt beam="2">  1       -1 0.22325736E-01 0.31501006E+03</pdfrwt>
<totfact> 0.30148457E+03</totfact>
</mgrwt>
</event>
<event>
 9    1  0.7926126E-001  0.2777286E+03  0.7818608E-02  0.1096936E+00
         -1   -1    0    0    0  501 -0.00000000000E+00  0.00000000000E+00  0.15866055623E+02  0.15866055623E+02  0.00000000000E+00 0. -1.
          1   -1    0    0  501    0  0.00000000000E+00 -0.00000000000E+00 -0.12153800262E+04  0.12153800262E+04  0.00000000000E+00 0. -1.
         35    2    1    2    0    0  0.71054273576E-14 -0.71054273576E-14 -0.11995139705E+04  0.12312460818E+04  0.27772855164E+03 0.  0.
         25    2    3    3    0    0 -0.28814426300E+02  0.34292933826E+02 -0.86389810480E+03  0.87402905836E+03  0.12490229343E+03 0.  0.
         25    2    3    3    0    0  0.28814426300E+02 -0.34292933826E+02 -0.33561586573E+03  0.35721702342E+03  0.11384074849E+03 0.  0.
          5    1    4    4  502    0 -0.64714114022E+02 -0.13198484601E+02 -0.58954689258E+03  0.59325352515E+03  0.47000000000E+01 0. -1.
         -5    1    4    4    0  502  0.35899687721E+02  0.47491418427E+02 -0.27435121222E+03  0.28077553321E+03  0.47000000000E+01 0. -1.
          5    1    5    5  503    0  0.34706808649E+02 -0.63055929306E+02 -0.12344928042E+03  0.14297701781E+03  0.47000000000E+01 0.  1.
         -5    1    5    5    0  503 -0.58923823491E+01  0.28762995480E+02 -0.21216658532E+03  0.21424000561E+03  0.47000000000E+01 0.  1.
<mgrwt>
<rscale>  0 0.27772855E+03</rscale>
<asrwt>0</asrwt>
<pdfrwt beam="1">  1        1 0.18698159E+00 0.27772855E+03</pdfrwt>
<pdfrwt beam="2">  1       -1 0.24409311E-02 0.27772855E+03</pdfrwt>
<totfact> 0.57145685E+03</totfact>
</mgrwt>
</event>
<event>
 9    1  0.7926126E-001  0.2717284E+03  0.7818608E-02  0.1100294E+00
          2   -1    0    0  501    0  0.00000000000E+00  0.00000000000E+00  0.46464020574E+02  0.46464020574E+02  0.00000000000E+00 0. -1.
         -2   -1    0    0    0  501 -0.00000000000E+00 -0.00000000000E+00 -0.39727674103E+03  0.39727674103E+03  0.00000000000E+00 0. -1.
         35    2    1    2    0    0  0.71054273576E-14  0.10658141036E-13 -0.35081272046E+03  0.44374076161E+03  0.27172835457E+03 0.  0.
         25    2    3    3    0    0  0.38707696800E+02 -0.27765232047E+02 -0.22479173497E+03  0.26166107321E+03  0.12516388944E+03 0.  0.
         25    2    3    3    0    0 -0.38707696800E+02  0.27765232047E+02 -0.12602098549E+03  0.18207968840E+03  0.12248481637E+03 0.  0.
          5    1    4    4  502    0  0.13415032161E+02 -0.65444897541E+02 -0.19738763826E+03  0.20843936154E+03  0.47000000000E+01 0.  1.
         -5    1    4    4    0  502  0.25292664640E+02  0.37679665494E+02 -0.27404096712E+02  0.53221711669E+02  0.47000000000E+01 0.  1.
          5    1    5    5  503    0 -0.68233399500E+02 -0.22433463979E+02 -0.58229385629E+02  0.92584061610E+02  0.47000000000E+01 0.  1.
         -5    1    5    5    0  503  0.29525702699E+02  0.50198696026E+02 -0.67791599857E+02  0.89495626786E+02  0.47000000000E+01 0.  1.
<mgrwt>
<rscale>  0 0.27172835E+03</rscale>
<asrwt>0</asrwt>
<pdfrwt beam="1">  1        2 0.71483107E-02 0.27172835E+03</pdfrwt>
<pdfrwt beam="2">  1       -2 0.61119500E-01 0.27172835E+03</pdfrwt>
<totfact> 0.24927877E+03</totfact>
</mgrwt>
</event>
<event>
 9    1  0.7926126E-001  0.2744033E+03  0.7818608E-02  0.1098786E+00
         -3   -1    0    0    0  501 -0.00000000000E+00  0.00000000000E+00  0.95923387867E+03  0.95923387867E+03  0.00000000000E+00 0.  1.
          3   -1    0    0  501    0  0.00000000000E+00 -0.00000000000E+00 -0.19624293644E+02  0.19624293644E+02  0.00000000000E+00 0.  1.
         35    2    1    2    0    0  0.71054273576E-14  0.17763568394E-14  0.93960958503E+03  0.97885817232E+03  0.27440326024E+03 0.  0.
         25    2    3    3    0    0 -0.23334806632E+02  0.80880416146E+01  0.64829562945E+03  0.66059706039E+03  0.12446414508E+03 0.  0.
         25    2    3    3    0    0  0.23334806632E+02 -0.80880416146E+01  0.29131395558E+03  0.31826111193E+03  0.12576321018E+03 0.  0.
          5    1    4    4  502    0  0.48000260833E+02 -0.13169446661E+02  0.20090744726E+03  0.20703466312E+03  0.47000000000E+01 0.  1.
         -5    1    4    4    0  502 -0.71335067465E+02  0.21257488275E+02  0.44738818219E+03  0.45356239728E+03  0.47000000000E+01 0.  1.
          5    1    5    5  503    0  0.66481260761E+02 -0.29811602481E+02  0.22158775252E+03  0.23330604737E+03  0.47000000000E+01 0.  1.
         -5    1    5    5    0  503 -0.43146454128E+02  0.21723560866E+02  0.69726203057E+02  0.84955064553E+02  0.47000000000E+01 0.  1.
<mgrwt>
<rscale>  0 0.27440326E+03</rscale>
<asrwt>0</asrwt>
<pdfrwt beam="1">  1        3 0.30191228E-02 0.27440326E+03</pdfrwt>
<pdfrwt beam="2">  1       -3 0.14757441E+00 0.27440326E+03</pdfrwt>
<totfact> 0.45562012E+02</totfact>
</mgrwt>
</event>
<event>
 9    1  0.7926126E-001  0.2794466E+03  0.7818608E-02  0.1095992E+00
         -2   -1    0    0    0  501 -0.00000000000E+00  0.00000000000E+00  0.93442837581E+01  0.93442837581E+01  0.00000000000E+00 0. -1.
          2   -1    0    0  501    0  0.00000000000E+00 -0.00000000000E+00 -0.20892566617E+04  0.20892566617E+04  0.00000000000E+00 0. -1.
         35    2    1    2    0    0  0.00000000000E+00  0.00000000000E+00 -0.20799123779E+04  0.20986009454E+04  0.27944664671E+03 0.  0.
         25    2    3    3    0    0 -0.18979956404E+02  0.56742399181E+02 -0.11957021125E+04  0.12036669011E+04  0.12462153994E+03 0.  0.
         25    2    3    3    0    0  0.18979956404E+02 -0.56742399181E+02 -0.88421026535E+03  0.89493404432E+03  0.12449583018E+03 0.  0.
          5    1    4    4  502    0 -0.16424704313E+02  0.67903100569E+01 -0.21077147060E+02  0.27968113105E+02  0.47000000000E+01 0. -1.
         -5    1    4    4    0  502 -0.25552520911E+01  0.49952089124E+02 -0.11746249655E+04  0.11756987880E+04  0.47000000000E+01 0. -1.
          5    1    5    5  503    0 -0.48146401879E+02 -0.37075891191E+02 -0.27326014116E+03  0.27997480684E+03  0.47000000000E+01 0.  1.
         -5    1    5    5    0  503  0.67126358284E+02 -0.19666507990E+02 -0.61095012419E+03  0.61495923748E+03  0.47000000000E+01 0.  1.
<mgrwt>
<rscale>  0 0.27944665E+03</rscale>
<asrwt>0</asrwt>
<pdfrwt beam="1">  1        2 0.32142462E+00 0.27944665E+03</pdfrwt>
<pdfrwt beam="2">  1       -2 0.14375798E-02 0.27944665E+03</pdfrwt>
<totfact> 0.83708183E+03</totfact>
</mgrwt>
</event>
<event>
 9    1  0.7926126E-001  0.2730013E+03  0.7818608E-02  0.1099574E+00
          2   -1    0    0  501    0  0.00000000000E+00  0.00000000000E+00  0.69981824032E+03  0.69981824032E+03  0.00000000000E+00 0.  1.
         -2   -1    0    0    0  501 -0.00000000000E+00 -0.00000000000E+00 -0.26624675346E+02  0.26624675346E+02  0.00000000000E+00 0.  1.
         35    2    1    2    0    0 -0.71054273576E-14  0.00000000000E+00  0.67319356498E+03  0.72644291567E+03  0.27300134395E+03 0.  0.
         25    2    3    3    0    0  0.25443171900E+02  0.89949882233E+01  0.45937875646E+03  0.47695843313E+03  0.12542822743E+03 0.  0.
         25    2    3    3    0    0 -0.25443171900E+02 -0.89949882233E+01  0.21381480852E+03  0.24948448254E+03  0.12568798621E+03 0.  0.
          5    1    4    4  502    0  0.50065175812E+02 -0.28651757879E+02  0.10664722460E+03  0.12133905214E+03  0.47000000000E+01 0. -1.
         -5    1    4    4    0  502 -0.24622003912E+02  0.37646746102E+02  0.35273153186E+03  0.35561938099E+03  0.47000000000E+01 0. -1.
          5    1    5    5  503    0  0.10070029996E+02 -0.10037964366E+02  0.21311409686E+03  0.21363959023E+03  0.47000000000E+01 0. -1.
         -5    1    5    5    0  503 -0.35513201896E+02  0.10429761427E+01  0.70071165964E+00  0.35844892314E+02  0.47000000000E+01 0. -1.
<mgrwt>
<rscale>  0 0.27300134E+03</rscale>
<asrwt>0</asrwt>
<pdfrwt beam="1">  1        2 0.10766433E+00 0.27300134E+03</pdfrwt>
<pdfrwt beam="2">  1       -2 0.40961044E-02 0.27300134E+03</pdfrwt>
<totfact> 0.11075410E+04</totfact>
</mgrwt>
</event>
<event>
 9    1  0.7926126E-001  0.2757209E+03  0.7818608E-02  0.1098049E+00
          4   -1    0    0  501    0  0.00000000000E+00  0.00000000000E+00  0.21434567628E+03  0.21434567628E+03  0.00000000000E+00 0. -1.
         -4   -1    0    0    0  501 -0.00000000000E+00 -0.00000000000E+00 -0.88667524185E+02  0.88667524185E+02  0.00000000000E+00 0. -1.
         35    2    1    2    0    0  0.00000000000E+00  0.00000000000E+00  0.12567815210E+03  0.30301320047E+03  0.27572087651E+03 0.  0.
         25    2    3    3    0    0 -0.45967216773E+02 -0.34502988770E+02  0.62666095081E+02  0.15151939263E+03  0.12540991037E+03 0.  0.
         25    2    3    3    0    0  0.45967216773E+02  0.34502988770E+02  0.63012057018E+02  0.15149380784E+03  0.12520548403E+03 0.  0.
          5    1    4    4  502    0  0.28064734627E+02 -0.47629006523E+02  0.50860922213E+02  0.75266692503E+02  0.47000000000E+01 0. -1.
         -5    1    4    4    0  502 -0.74031951400E+02  0.13126017753E+02  0.11805172869E+02  0.76252700127E+02  0.47000000000E+01 0. -1.
          5    1    5    5  503    0 -0.37964504868E+02  0.62279783121E+01  0.47748754452E+02  0.61498982881E+02  0.47000000000E+01 0.  1.
         -5    1    5    5    0  503  0.83931721641E+02  0.28275010458E+02  0.15263302566E+02  0.89994824958E+02  0.47000000000E+01 0.  1.
<mgrwt>
<rscale>  0 0.27572088E+03</rscale>
<asrwt>0</asrwt>
<pdfrwt beam="1">  1        4 0.32976258E-01 0.27572088E+03</pdfrwt>
<pdfrwt beam="2">  1       -4 0.13641158E-01 0.27572088E+03</pdfrwt>
<totfact> 0.74058734E+02</totfact>
</mgrwt>
</event>
<event>
 9    1  0.7926126E-001  0.2751488E+03  0.7818608E-02  0.1098368E+00
         -2   -1    0    0    0  501 -0.00000000000E+00  0.00000000000E+00  0.69699572267E+02  0.69699572267E+02  0.00000000000E+00 0. -1.
          2   -1    0    0  501    0  0.00000000000E+00 -0.00000000000E+00 -0.27154714106E+03  0.27154714106E+03  0.00000000000E+00 0. -1.
         35    2    1    2    0    0  0.71054273576E-14  0.17763568394E-14 -0.20184756879E+03  0.34124671332E+03  0.27514882941E+03 0.  0.
         25    2    3    3    0    0 -0.42566422534E+02  0.10723751403E+02 -0.51461134050E+02  0.14175979532E+03  0.12458206966E+03 0.  0.
         25    2    3    3    0    0  0.42566422534E+02 -0.10723751403E+02 -0.15038643474E+03  0.19948691800E+03  0.12349919647E+03 0.  0.
          5    1    4    4  502    0 -0.12082576696E+02 -0.11839573867E+02 -0.87492247978E+02  0.89236470265E+02  0.47000000000E+01 0.  1.
         -5    1    4    4    0  502 -0.30483845839E+02  0.22563325269E+02  0.36031113929E+02  0.52523325059E+02  0.47000000000E+01 0.  1.
          5    1    5    5  503    0  0.12096450858E+02 -0.31676521527E+02  0.93281309206E+01  0.35479996701E+02  0.47000000000E+01 0.  1.
         -5    1    5    5    0  503  0.30469971676E+02  0.20952770125E+02 -0.15971456566E+03  0.16400692130E+03  0.47000000000E+01 0.  1.
<mgrwt>
<rscale>  0 0.27514883E+03</rscale>
<asrwt>0</asrwt>
<pdfrwt beam="1">  1        2 0.41776483E-01 0.27514883E+03</pdfrwt>
<pdfrwt beam="2">  1       -2 0.10723011E-01 0.27514883E+03</pdfrwt>
<totfact> 0.71745040E+03</totfact>
</mgrwt>
</event>
<event>
 9    1  0.7926126E-001  0.2753585E+03  0.7818608E-02  0.1098251E+00
          2   -1    0    0  501    0  0.00000000000E+00  0.00000000000E+00  0.34887717358E+03  0.34887717358E+03  0.00000000000E+00 0.  1.
         -2   -1    0    0    0  501 -0.00000000000E+00 -0.00000000000E+00 -0.54333107942E+02  0.54333107942E+02  0.00000000000E+00 0.  1.
         35    2    1    2    0    0  0.71054273576E-14  0.00000000000E+00  0.29454406564E+03  0.40321028152E+03  0.27535853813E+03 0.  0.
         25    2    3    3    0    0 -0.41781107578E+02 -0.18589484362E+02  0.94383813694E+02  0.16273616560E+03  0.12443281491E+03 0.  0.
         25    2    3    3    0    0  0.41781107578E+02  0.18589484362E+02  0.20016025194E+03  0.24047411592E+03  0.12518963252E+03 0.  0.
          5    1    4    4  502    0 -0.21529891270E+02  0.53005139335E+02  0.48874053464E+02  0.75391273474E+02  0.47000000000E+01 0.  1.
         -5    1    4    4    0  502 -0.20251216308E+02 -0.71594623697E+02  0.45509760230E+02  0.87344892125E+02  0.47000000000E+01 0.  1.
          5    1    5    5  503    0  0.11124264522E+02  0.93334201765E+01 -0.15878344810E+02  0.22024391643E+02  0.47000000000E+01 0. -1.
         -5    1    5    5    0  503  0.30656843056E+02  0.92560641855E+01  0.21603859675E+03  0.21844972428E+03  0.47000000000E+01 0. -1.
<mgrwt>
<rscale>  0 0.27535854E+03</rscale>
<asrwt>0</asrwt>
<pdfrwt beam="1">  1        2 0.53673410E-01 0.27535854E+03</pdfrwt>
<pdfrwt beam="2">  1       -2 0.83589399E-02 0.27535854E+03</pdfrwt>
<totfact> 0.81255023E+03</totfact>
</mgrwt>
</event>
<event>
 9    1  0.7926126E-001  0.2683379E+03  0.7818608E-02  0.1102235E+00
         -3   -1    0    0    0  501 -0.00000000000E+00  0.00000000000E+00  0.55704035103E+03  0.55704035103E+03  0.00000000000E+00 0. -1.
          3   -1    0    0  501    0  0.00000000000E+00 -0.00000000000E+00 -0.32315975869E+02  0.32315975869E+02  0.00000000000E+00 0. -1.
         35    2    1    2    0    0  0.71054273576E-14  0.00000000000E+00  0.52472437516E+03  0.58935632690E+03  0.26833786570E+03 0.  0.
         25    2    3    3    0    0  0.31619722659E+02 -0.35627269448E+02  0.29708719106E+03  0.32550115035E+03  0.12418168382E+03 0.  0.
         25    2    3    3    0    0 -0.31619722659E+02  0.35627269448E+02  0.22763718411E+03  0.26385517655E+03  0.12462647158E+03 0.  0.
          5    1    4    4  502    0  0.78297560484E+02 -0.29240466633E+02  0.21524729377E+03  0.23095237679E+03  0.47000000000E+01 0.  1.
         -5    1    4    4    0  502 -0.46677837826E+02 -0.63868028142E+01  0.81839897282E+02  0.94548773559E+02  0.47000000000E+01 0.  1.
          5    1    5    5  503    0 -0.95017656187E+01  0.23088751796E+02 -0.81295384148E+01  0.26674958373E+02  0.47000000000E+01 0.  1.
         -5    1    5    5    0  503 -0.22117957040E+02  0.12538517652E+02  0.23576672252E+03  0.23718021818E+03  0.47000000000E+01 0.  1.
<mgrwt>
<rscale>  0 0.26833787E+03</rscale>
<asrwt>0</asrwt>
<pdfrwt beam="1">  1        3 0.49716890E-02 0.26833787E+03</pdfrwt>
<pdfrwt beam="2">  1       -3 0.85698509E-01 0.26833787E+03</pdfrwt>
<totfact> 0.74659185E+02</totfact>
</mgrwt>
</event>
<event>
 9    1  0.7926126E-001  0.2989263E+03  0.7818608E-02  0.1085779E+00
         -1   -1    0    0    0  501 -0.00000000000E+00  0.00000000000E+00  0.25804648559E+02  0.25804648559E+02  0.00000000000E+00 0. -1.
          1   -1    0    0  501    0  0.00000000000E+00 -0.00000000000E+00 -0.86570550168E+03  0.86570550168E+03  0.00000000000E+00 0. -1.
         35    2    1    2    0    0 -0.14210854715E-13  0.17763568394E-14 -0.83990085312E+03  0.89151015024E+03  0.29892625329E+03 0.  0.
         25    2    3    3    0    0  0.51952427314E+02  0.58121096846E+01 -0.22708263726E+03  0.26374701657E+03  0.12354403782E+03 0.  0.
         25    2    3    3    0    0 -0.51952427314E+02 -0.58121096846E+01 -0.61281821586E+03  0.62776313367E+03  0.12572808350E+03 0.  0.
          5    1    4    4  502    0 -0.27013001920E+02  0.39409302994E+02 -0.88309704254E+02  0.10051611463E+03  0.47000000000E+01 0.  1.
         -5    1    4    4    0  502  0.78965429235E+02 -0.33597193310E+02 -0.13877293301E+03  0.16323090194E+03  0.47000000000E+01 0.  1.
          5    1    5    5  503    0 -0.67270351792E+02  0.40666422236E+01 -0.14941705776E+03  0.16397983095E+03  0.47000000000E+01 0.  1.
         -5    1    5    5    0  503  0.15317924478E+02 -0.98787519081E+01 -0.46340115811E+03  0.46378330272E+03  0.47000000000E+01 0.  1.
<mgrwt>
<rscale>  0 0.29892625E+03</rscale>
<asrwt>0</asrwt>
<pdfrwt beam="1">  1        1 0.13318547E+00 0.29892625E+03</pdfrwt>
<pdfrwt beam="2">  1       -1 0.39699456E-02 0.29892625E+03</pdfrwt>
<totfact> 0.50637058E+03</totfact>
</mgrwt>
</event>
<event>
 9    1  0.7926126E-001  0.2737875E+03  0.7818608E-02  0.1099131E+00
         -1   -1    0    0    0  501 -0.00000000000E+00  0.00000000000E+00  0.16021394360E+03  0.16021394360E+03  0.00000000000E+00 0.  1.
          1   -1    0    0  501    0  0.00000000000E+00 -0.00000000000E+00 -0.11696798504E+03  0.11696798504E+03  0.00000000000E+00 0.  1.
         35    2    1    2    0    0  0.26645352591E-14  0.00000000000E+00  0.43245958553E+02  0.27718192864E+03  0.27378752461E+03 0.  0.
         25    2    3    3    0    0 -0.66872451124E+00 -0.49353597336E+02  0.46167326962E+02  0.14324982248E+03  0.12630465074E+03 0.  0.
         25    2    3    3    0    0  0.66872451124E+00  0.49353597336E+02 -0.29213684091E+01  0.13393210616E+03  0.12447108060E+03 0.  0.
          5    1    4    4  502    0  0.15803822095E+02 -0.84256626318E+02  0.40788844889E+01  0.85951539661E+02  0.47000000000E+01 0.  1.
         -5    1    4    4    0  502 -0.16472546606E+02  0.34903028982E+02  0.42088442473E+02  0.57298282816E+02  0.47000000000E+01 0.  1.
          5    1    5    5  503    0 -0.24142450313E+01  0.14203886240E+02 -0.62619346787E+02  0.64427102647E+02  0.47000000000E+01 0.  1.
         -5    1    5    5    0  503  0.30829695425E+01  0.35149711096E+02  0.59697978378E+02  0.69505003516E+02  0.47000000000E+01 0.  1.
<mgrwt>
<rscale>  0 0.27378752E+03</rscale>
<asrwt>0</asrwt>
<pdfrwt beam="1">  1        1 0.17995075E-01 0.27378752E+03</pdfrwt>
<pdfrwt beam="2">  1       -1 0.24648299E-01 0.27378752E+03</pdfrwt>
<totfact> 0.41540071E+03</totfact>
</mgrwt>
</event>
<event>
 9    1  0.7926126E-001  0.2882230E+03  0.7818608E-02  0.1091281E+00
          2   -1    0    0  501    0  0.00000000000E+00  0.00000000000E+00  0.22640942149E+03  0.22640942149E+03  0.00000000000E+00 0.  1.
         -2   -1    0    0    0  501 -0.00000000000E+00 -0.00000000000E+00 -0.91728172183E+02  0.91728172183E+02  0.00000000000E+00 0.  1.
         35    2    1    2    0    0 -0.71054273576E-14  0.17763568394E-14  0.13468124931E+03  0.31813759367E+03  0.28822298589E+03 0.  0.
         25    2    3    3    0    0  0.42180768355E+02  0.76304374310E+01 -0.21659390840E+01  0.13256094072E+03  0.12542037680E+03 0.  0.
         25    2    3    3    0    0 -0.42180768355E+02 -0.76304374310E+01  0.13684718839E+03  0.18557665295E+03  0.11778837106E+03 0.  0.
          5    1    4    4  502    0  0.55992429175E+02 -0.28059750019E+02  0.40750705409E+02  0.74867961689E+02  0.47000000000E+01 0. -1.
         -5    1    4    4    0  502 -0.13811660820E+02  0.35690187450E+02 -0.42916644493E+02  0.57692979031E+02  0.47000000000E+01 0. -1.
          5    1    5    5  503    0 -0.26868010768E+02 -0.23013065422E+02  0.15364259603E+03  0.15773277559E+03  0.47000000000E+01 0. -1.
         -5    1    5    5    0  503 -0.15312757587E+02  0.15382627991E+02 -0.16795407635E+02  0.27843877360E+02  0.47000000000E+01 0. -1.
<mgrwt>
<rscale>  0 0.28822299E+03</rscale>
<asrwt>0</asrwt>
<pdfrwt beam="1">  1        2 0.34832219E-01 0.28822299E+03</pdfrwt>
<pdfrwt beam="2">  1       -2 0.14112027E-01 0.28822299E+03</pdfrwt>
<totfact> 0.56061842E+03</totfact>
</mgrwt>
</event>
<event>
 9    1  0.7926126E-001  0.2780331E+03  0.7818608E-02  0.1096768E+00
          1   -1    0    0  501    0  0.00000000000E+00  0.00000000000E+00  0.15217182993E+03  0.15217182993E+03  0.00000000000E+00 0. -1.
         -1   -1    0    0    0  501 -0.00000000000E+00 -0.00000000000E+00 -0.12699854529E+03  0.12699854529E+03  0.00000000000E+00 0. -1.
         35    2    1    2    0    0  0.17763568394E-14  0.71054273576E-14  0.25173284640E+02  0.27917037523E+03  0.27803309901E+03 0.  0.
         25    2    3    3    0    0  0.10656322197E+02  0.44598780453E+02 -0.32018587811E+02  0.13448249574E+03  0.12230185311E+03 0.  0.
         25    2    3    3    0    0 -0.10656322197E+02 -0.44598780453E+02  0.57191872451E+02  0.14468787949E+03  0.12474399295E+03 0.  0.
          5    1    4    4  502    0  0.19645610301E+02  0.40683947154E+02 -0.76348443294E+02  0.88838664745E+02  0.47000000000E+01 0. -1.
         -5    1    4    4    0  502 -0.89892881039E+01  0.39148332985E+01  0.44329855483E+02  0.45643830991E+02  0.47000000000E+01 0. -1.
          5    1    5    5  503    0 -0.10038654496E+02  0.27369036667E+02 -0.22559989726E+02  0.37160219168E+02  0.47000000000E+01 0. -1.
         -5    1    5    5    0  503 -0.61766770131E+00 -0.71967817119E+02  0.79751862176E+02  0.10752766032E+03  0.47000000000E+01 0. -1.
<mgrwt>
<rscale>  0 0.27803310E+03</rscale>
<asrwt>0</asrwt>
<pdfrwt beam="1">  1        1 0.23411051E-01 0.27803310E+03</pdfrwt>
<pdfrwt beam="2">  1       -1 0.19538238E-01 0.27803310E+03</pdfrwt>
<totfact> 0.43370155E+03</totfact>
</mgrwt>
</event>
<event>
 9    1  0.7926126E-001  0.2777150E+03  0.7818608E-02  0.1096944E+00
         -2   -1    0    0    0  501 -0.00000000000E+00  0.00000000000E+00  0.41200569403E+02  0.41200569403E+02  0.00000000000E+00 0.  1.
          2   -1    0    0  501    0  0.00000000000E+00 -0.00000000000E+00 -0.46798863964E+03  0.46798863964E+03  0.00000000000E+00 0.  1.
         35    2    1    2    0    0  0.00000000000E+00  0.00000000000E+00 -0.42678807024E+03  0.50918920904E+03  0.27771495046E+03 0.  0.
         25    2    3    3    0    0  0.40651799899E+02  0.34201976982E+02 -0.26325813595E+03  0.29632706269E+03  0.12522994002E+03 0.  0.
         25    2    3    3    0    0 -0.40651799899E+02 -0.34201976982E+02 -0.16352993429E+03  0.21286214635E+03  0.12548270747E+03 0.  0.
          5    1    4    4  502    0  0.80057719692E+02  0.47922511590E+02 -0.16809677857E+03  0.19231334474E+03  0.47000000000E+01 0. -1.
         -5    1    4    4    0  502 -0.39405919793E+02 -0.13720534608E+02 -0.95161357379E+02  0.10401371796E+03  0.47000000000E+01 0. -1.
          5    1    5    5  503    0 -0.77689705065E+02 -0.49482249746E+02 -0.13481859322E+03  0.16334725706E+03  0.47000000000E+01 0.  1.
         -5    1    5    5    0  503  0.37037905166E+02  0.15280272765E+02 -0.28711341072E+02  0.49514889286E+02  0.47000000000E+01 0.  1.
<mgrwt>
<rscale>  0 0.27771495E+03</rscale>
<asrwt>0</asrwt>
<pdfrwt beam="1">  1        2 0.71998253E-01 0.27771495E+03</pdfrwt>
<pdfrwt beam="2">  1       -2 0.63385491E-02 0.27771495E+03</pdfrwt>
<totfact> 0.90686734E+03</totfact>
</mgrwt>
</event>
<event>
 9    1  0.7926126E-001  0.2693605E+03  0.7818608E-02  0.1101646E+00
          4   -1    0    0  501    0  0.00000000000E+00  0.00000000000E+00  0.37772503505E+02  0.37772503505E+02  0.00000000000E+00 0.  1.
         -4   -1    0    0    0  501 -0.00000000000E+00 -0.00000000000E+00 -0.48021106876E+03  0.48021106876E+03  0.00000000000E+00 0.  1.
         35    2    1    2    0    0  0.71054273576E-14  0.53290705182E-14 -0.44243856525E+03  0.51798357226E+03  0.26936053369E+03 0.  0.
         25    2    3    3    0    0  0.46475403481E+02 -0.15676410048E+02 -0.24597340358E+03  0.28027537564E+03  0.12508260454E+03 0.  0.
         25    2    3    3    0    0 -0.46475403481E+02  0.15676410048E+02 -0.19646516167E+03  0.23770819663E+03  0.12450266677E+03 0.  0.
          5    1    4    4  502    0 -0.94596828524E+01  0.17791385308E+02 -0.19831453710E+03  0.19939098429E+03  0.47000000000E+01 0. -1.
         -5    1    4    4    0  502  0.55935086333E+02 -0.33467795357E+02 -0.47658866481E+02  0.80884391346E+02  0.47000000000E+01 0. -1.
          5    1    5    5  503    0  0.29234467907E+01  0.15708682410E+02 -0.18631603925E+03  0.18705898996E+03  0.47000000000E+01 0.  1.
         -5    1    5    5    0  503 -0.49398850271E+02 -0.32272362040E-01 -0.10149122421E+02  0.50649206663E+02  0.47000000000E+01 0.  1.
<mgrwt>
<rscale>  0 0.26936053E+03</rscale>
<asrwt>0</asrwt>
<pdfrwt beam="1">  1        4 0.58111547E-02 0.26936053E+03</pdfrwt>
<pdfrwt beam="2">  1       -4 0.73878622E-01 0.26936053E+03</pdfrwt>
<totfact> 0.59211748E+02</totfact>
</mgrwt>
</event>
<event>
 9    1  0.7926126E-001  0.2707673E+03  0.7818608E-02  0.1100841E+00
          1   -1    0    0  501    0  0.00000000000E+00  0.00000000000E+00  0.14386045674E+03  0.14386045674E+03  0.00000000000E+00 0.  1.
         -1   -1    0    0    0  501 -0.00000000000E+00 -0.00000000000E+00 -0.12740635201E+03  0.12740635201E+03  0.00000000000E+00 0.  1.
         35    2    1    2    0    0 -0.71054273576E-14  0.35527136788E-14  0.16454104738E+02  0.27126680875E+03  0.27076732441E+03 0.  0.
         25    2    3    3    0    0  0.17984933940E+02  0.11991202556E+02 -0.34658441732E+02  0.13365600536E+03  0.12726143720E+03 0.  0.
         25    2    3    3    0    0 -0.17984933940E+02 -0.11991202556E+02  0.51112546470E+02  0.13761080339E+03  0.12592455684E+03 0.  0.
          5    1    4    4  502    0  0.70000817935E+02  0.26309147484E+02 -0.20004956879E+02  0.77553684971E+02  0.47000000000E+01 0.  1.
         -5    1    4    4    0  502 -0.52015883995E+02 -0.14317944928E+02 -0.14653484853E+02  0.56102320389E+02  0.47000000000E+01 0.  1.
          5    1    5    5  503    0 -0.67209271710E+02 -0.27537948722E+02  0.14670113484E+02  0.74247741065E+02  0.47000000000E+01 0. -1.
         -5    1    5    5    0  503  0.49224337770E+02  0.15546746166E+02  0.36442432986E+02  0.63363062325E+02  0.47000000000E+01 0. -1.
<mgrwt>
<rscale>  0 0.27076732E+03</rscale>
<asrwt>0</asrwt>
<pdfrwt beam="1">  1        1 0.22132378E-01 0.27076732E+03</pdfrwt>
<pdfrwt beam="2">  1       -1 0.19600977E-01 0.27076732E+03</pdfrwt>
<totfact> 0.46320315E+03</totfact>
</mgrwt>
</event>
<event>
 9    1  0.7926126E-001  0.2733006E+03  0.7818608E-02  0.1099405E+00
         -1   -1    0    0    0  501 -0.00000000000E+00  0.00000000000E+00  0.23308888914E+03  0.23308888914E+03  0.00000000000E+00 0.  1.
          1   -1    0    0  501    0  0.00000000000E+00 -0.00000000000E+00 -0.80112383849E+02  0.80112383849E+02  0.00000000000E+00 0.  1.
         35    2    1    2    0    0  0.00000000000E+00  0.35527136788E-14  0.15297650530E+03  0.31320127299E+03  0.27330061513E+03 0.  0.
         25    2    3    3    0    0  0.52230164291E+02 -0.11298992283E+02  0.61804361741E+02  0.14927162364E+03  0.12492630310E+03 0.  0.
         25    2    3    3    0    0 -0.52230164291E+02  0.11298992283E+02  0.91172143555E+02  0.16392964935E+03  0.12531924389E+03 0.  0.
          5    1    4    4  502    0  0.84729317367E+02  0.10553474587E+02  0.68115203602E+02  0.10932613598E+03  0.47000000000E+01 0.  1.
         -5    1    4    4    0  502 -0.32499153077E+02 -0.21852466871E+02 -0.63108418610E+01  0.39945487655E+02  0.47000000000E+01 0.  1.
          5    1    5    5  503    0 -0.17128345090E+02  0.36052467045E+02 -0.19828803955E+02  0.44815533600E+02  0.47000000000E+01 0.  1.
         -5    1    5    5    0  503 -0.35101819201E+02 -0.24753474761E+02  0.11100094751E+03  0.11911411575E+03  0.47000000000E+01 0.  1.
<mgrwt>
<rscale>  0 0.27330062E+03</rscale>
<asrwt>0</asrwt>
<pdfrwt beam="1">  1        1 0.12324982E-01 0.27330062E+03</pdfrwt>
<pdfrwt beam="2">  1       -1 0.35859829E-01 0.27330062E+03</pdfrwt>
<totfact> 0.36090530E+03</totfact>
</mgrwt>
</event>
<event>
 9    1  0.7926126E-001  0.2737144E+03  0.7818608E-02  0.1099172E+00
          2   -1    0    0  501    0  0.00000000000E+00  0.00000000000E+00  0.86697143302E+03  0.86697143302E+03  0.00000000000E+00 0.  1.
         -2   -1    0    0    0  501 -0.00000000000E+00 -0.00000000000E+00 -0.21603816167E+02  0.21603816167E+02  0.00000000000E+00 0.  1.
         35    2    1    2    0    0  0.71054273576E-14  0.00000000000E+00  0.84536761685E+03  0.88857524918E+03  0.27371438735E+03 0.  0.
         25    2    3    3    0    0  0.22841824186E+02  0.48076766496E+02  0.44900360832E+03  0.46977441333E+03  0.12747797740E+03 0.  0.
         25    2    3    3    0    0 -0.22841824186E+02 -0.48076766496E+02  0.39636400853E+03  0.41880083586E+03  0.12432452875E+03 0.  0.
          5    1    4    4  502    0 -0.17552943314E+02  0.32977980962E+02  0.28973244030E+02  0.47509913881E+02  0.47000000000E+01 0. -1.
         -5    1    4    4    0  502  0.40394767500E+02  0.15098785534E+02  0.42003036429E+03  0.42226449945E+03  0.47000000000E+01 0. -1.
          5    1    5    5  503    0 -0.49158081522E+02  0.17233898131E+02  0.87184531713E+02  0.10166984211E+03  0.47000000000E+01 0. -1.
         -5    1    5    5    0  503  0.26316257336E+02 -0.65310664627E+02  0.30917947682E+03  0.31713099375E+03  0.47000000000E+01 0. -1.
<mgrwt>
<rscale>  0 0.27371439E+03</rscale>
<asrwt>0</asrwt>
<pdfrwt beam="1">  1        2 0.13338019E+00 0.27371439E+03</pdfrwt>
<pdfrwt beam="2">  1       -2 0.33236647E-02 0.27371439E+03</pdfrwt>
<totfact> 0.11565008E+04</totfact>
</mgrwt>
</event>
<event>
 9    1  0.7926126E-001  0.2792175E+03  0.7818608E-02  0.1096117E+00
         -2   -1    0    0    0  501 -0.00000000000E+00  0.00000000000E+00  0.32337478362E+02  0.32337478362E+02  0.00000000000E+00 0.  1.
          2   -1    0    0  501    0  0.00000000000E+00 -0.00000000000E+00 -0.60272501531E+03  0.60272501531E+03  0.00000000000E+00 0.  1.
         35    2    1    2    0    0  0.14210854715E-13 -0.35527136788E-14 -0.57038753695E+03  0.63506249368E+03  0.27921752911E+03 0.  0.
         25    2    3    3    0    0  0.35663387925E+02 -0.17399954513E+02 -0.38086546771E+03  0.40332055474E+03  0.12662673388E+03 0.  0.
         25    2    3    3    0    0 -0.35663387925E+02  0.17399954513E+02 -0.18952206924E+03  0.23174193893E+03  0.12732272332E+03 0.  0.
          5    1    4    4  502    0 -0.32821597781E+02 -0.24722377508E+02 -0.47949792321E+02  0.63322395834E+02  0.47000000000E+01 0. -1.
         -5    1    4    4    0  502  0.68484985705E+02  0.73224229955E+01 -0.33291567538E+03  0.33999815891E+03  0.47000000000E+01 0. -1.
          5    1    5    5  503    0 -0.81168817517E+02 -0.12342592385E+01 -0.94664743731E+02  0.12479344550E+03  0.47000000000E+01 0. -1.
         -5    1    5    5    0  503  0.45505429592E+02  0.18634213752E+02 -0.94857325514E+02  0.10694849344E+03  0.47000000000E+01 0. -1.
<mgrwt>
<rscale>  0 0.27921753E+03</rscale>
<asrwt>0</asrwt>
<pdfrwt beam="1">  1        2 0.92726925E-01 0.27921753E+03</pdfrwt>
<pdfrwt beam="2">  1       -2 0.49749967E-02 0.27921753E+03</pdfrwt>
<totfact> 0.98635356E+03</totfact>
</mgrwt>
</event>
<event>
 9    1  0.7926126E-001  0.2759405E+03  0.7818608E-02  0.1097927E+00
         -2   -1    0    0    0  501 -0.00000000000E+00  0.00000000000E+00  0.62694805949E+02  0.62694805949E+02  0.00000000000E+00 0.  1.
          2   -1    0    0  501    0  0.00000000000E+00 -0.00000000000E+00 -0.30362634692E+03  0.30362634692E+03  0.00000000000E+00 0.  1.
         35    2    1    2    0    0  0.71054273576E-14  0.00000000000E+00 -0.24093154097E+03  0.36632115287E+03  0.27594053636E+03 0.  0.
         25    2    3    3    0    0 -0.55746793745E+02 -0.85718498271E+01 -0.14385922932E+03  0.19881319625E+03  0.12510007002E+03 0.  0.
         25    2    3    3    0    0  0.55746793745E+02  0.85718498271E+01 -0.97072311654E+02  0.16750795663E+03  0.12431693457E+03 0.  0.
          5    1    4    4  502    0  0.35358145138E+02 -0.74747964327E+01 -0.78615512053E+02  0.86651945994E+02  0.47000000000E+01 0.  1.
         -5    1    4    4    0  502 -0.91104938884E+02 -0.10970533945E+01 -0.65243717269E+02  0.11216125025E+03  0.47000000000E+01 0.  1.
          5    1    5    5  503    0  0.63045573889E+02  0.57754707182E+02 -0.51663650340E+02  0.10000786647E+03  0.47000000000E+01 0.  1.
         -5    1    5    5    0  503 -0.72987801440E+01 -0.49182857355E+02 -0.45408661314E+02  0.67500090159E+02  0.47000000000E+01 0.  1.
<mgrwt>
<rscale>  0 0.27594054E+03</rscale>
<asrwt>0</asrwt>
<pdfrwt beam="1">  1        2 0.46711745E-01 0.27594054E+03</pdfrwt>
<pdfrwt beam="2">  1       -2 0.96453549E-02 0.27594054E+03</pdfrwt>
<totfact> 0.75316913E+03</totfact>
</mgrwt>
</event>
<event>
 9    1  0.7926126E-001  0.2744187E+03  0.7818608E-02  0.1098777E+00
         -1   -1    0    0    0  501 -0.00000000000E+00  0.00000000000E+00  0.99427534295E+02  0.99427534295E+02  0.00000000000E+00 0.  1.
          1   -1    0    0  501    0  0.00000000000E+00 -0.00000000000E+00 -0.18934801509E+03  0.18934801509E+03  0.00000000000E+00 0.  1.
         35    2    1    2    0    0  0.00000000000E+00  0.00000000000E+00 -0.89920480795E+02  0.28877554938E+03  0.27441870391E+03 0.  0.
         25    2    3    3    0    0  0.13089029119E+02 -0.46577202517E+02 -0.74167322953E+02  0.15342105877E+03  0.12528555783E+03 0.  0.
         25    2    3    3    0    0 -0.13089029119E+02  0.46577202517E+02 -0.15753157841E+02  0.13535449062E+03  0.12542694157E+03 0.  0.
          5    1    4    4  502    0 -0.19591533276E+02  0.31679409231E+01 -0.89487210688E+02  0.91781887661E+02  0.47000000000E+01 0.  1.
         -5    1    4    4    0  502  0.32680562396E+02 -0.49745143440E+02  0.15319887735E+02  0.61639171105E+02  0.47000000000E+01 0.  1.
          5    1    5    5  503    0  0.21406409257E+02 -0.32275270389E+02  0.17769593619E+02  0.42869288464E+02  0.47000000000E+01 0. -1.
         -5    1    5    5    0  503 -0.34495438376E+02  0.78852472906E+02 -0.33522751461E+02  0.92485202155E+02  0.47000000000E+01 0. -1.
<mgrwt>
<rscale>  0 0.27441870E+03</rscale>
<asrwt>0</asrwt>
<pdfrwt beam="1">  1        1 0.29130464E-01 0.27441870E+03</pdfrwt>
<pdfrwt beam="2">  1       -1 0.15296544E-01 0.27441870E+03</pdfrwt>
<totfact> 0.48646429E+03</totfact>
</mgrwt>
</event>
<event>
 9    1  0.7926126E-001  0.2800274E+03  0.7818608E-02  0.1095674E+00
          1   -1    0    0  501    0  0.00000000000E+00  0.00000000000E+00  0.50548655355E+03  0.50548655355E+03  0.00000000000E+00 0.  1.
         -1   -1    0    0    0  501 -0.00000000000E+00 -0.00000000000E+00 -0.38782108371E+02  0.38782108371E+02  0.00000000000E+00 0.  1.
         35    2    1    2    0    0 -0.71054273576E-14  0.00000000000E+00  0.46670444517E+03  0.54426866192E+03  0.28002738652E+03 0.  0.
         25    2    3    3    0    0 -0.51409503518E+02  0.25416956390E+02  0.17771984456E+03  0.22507052546E+03  0.12563215971E+03 0.  0.
         25    2    3    3    0    0  0.51409503518E+02 -0.25416956390E+02  0.28898460061E+03  0.31919813646E+03  0.12282667546E+03 0.  0.
          5    1    4    4  502    0  0.76203978050E+01  0.41907108748E+02  0.67437709218E+01  0.43380233662E+02  0.47000000000E+01 0.  1.
         -5    1    4    4    0  502 -0.59029901323E+02 -0.16490152358E+02  0.17097607364E+03  0.18169029179E+03  0.47000000000E+01 0.  1.
          5    1    5    5  503    0  0.80097455247E+02 -0.52441112280E+02  0.20625690026E+03  0.22744157821E+03  0.47000000000E+01 0. -1.
         -5    1    5    5    0  503 -0.28687951729E+02  0.27024155890E+02  0.82727700354E+02  0.91756558250E+02  0.47000000000E+01 0. -1.
<mgrwt>
<rscale>  0 0.28002739E+03</rscale>
<asrwt>0</asrwt>
<pdfrwt beam="1">  1        1 0.77767157E-01 0.28002739E+03</pdfrwt>
<pdfrwt beam="2">  1       -1 0.59664786E-02 0.28002739E+03</pdfrwt>
<totfact> 0.59732074E+03</totfact>
</mgrwt>
</event>
<event>
 9    1  0.7926126E-001  0.2765574E+03  0.7818608E-02  0.1097584E+00
          1   -1    0    0  501    0  0.00000000000E+00  0.00000000000E+00  0.10783578862E+04  0.10783578862E+04  0.00000000000E+00 0.  1.
         -1   -1    0    0    0  501 -0.00000000000E+00 -0.00000000000E+00 -0.17731585708E+02  0.17731585708E+02  0.00000000000E+00 0.  1.
         35    2    1    2    0    0  0.21316282073E-13  0.14210854715E-13  0.10606263005E+04  0.10960894719E+04  0.27655737404E+03 0.  0.
         25    2    3    3    0    0 -0.60583869142E+02 -0.29243795910E+02  0.47515637161E+03  0.49620441976E+03  0.12617307122E+03 0.  0.
         25    2    3    3    0    0  0.60583869142E+02  0.29243795910E+02  0.58546992891E+03  0.59988505218E+03  0.11207780054E+03 0.  0.
          5    1    4    4  502    0 -0.23581455540E+02 -0.71263320174E+02  0.36360397125E+03  0.37130106889E+03  0.47000000000E+01 0.  1.
         -5    1    4    4    0  502 -0.37002413602E+02  0.42019524264E+02  0.11155240036E+03  0.12490335087E+03  0.47000000000E+01 0.  1.
          5    1    5    5  503    0 -0.22747617290E+02  0.95673353339E+01  0.36815181434E+02  0.44569446730E+02  0.47000000000E+01 0. -1.
         -5    1    5    5    0  503  0.83331486432E+02  0.19676460576E+02  0.54865474747E+03  0.55531560545E+03  0.47000000000E+01 0. -1.
<mgrwt>
<rscale>  0 0.27655737E+03</rscale>
<asrwt>0</asrwt>
<pdfrwt beam="1">  1        1 0.16590116E+00 0.27655737E+03</pdfrwt>
<pdfrwt beam="2">  1       -1 0.27279371E-02 0.27655737E+03</pdfrwt>
<totfact> 0.60724660E+03</totfact>
</mgrwt>
</event>
<event>
 9    1  0.7926126E-001  0.2767096E+03  0.7818608E-02  0.1097500E+00
         -1   -1    0    0    0  501 -0.00000000000E+00  0.00000000000E+00  0.84233010071E+03  0.84233010071E+03  0.00000000000E+00 0. -1.
          1   -1    0    0  501    0  0.00000000000E+00 -0.00000000000E+00 -0.22725113898E+02  0.22725113898E+02  0.00000000000E+00 0. -1.
         35    2    1    2    0    0  0.00000000000E+00  0.71054273576E-14  0.81960498681E+03  0.86505521461E+03  0.27670957684E+03 0.  0.
         25    2    3    3    0    0  0.58337641272E+01  0.41170597246E+02  0.53774278291E+03  0.55419410803E+03  0.12741568945E+03 0.  0.
         25    2    3    3    0    0 -0.58337641272E+01 -0.41170597246E+02  0.28186220390E+03  0.31086110658E+03  0.12433533172E+03 0.  0.
          5    1    4    4  502    0  0.23454355524E+02 -0.26320586232E+02  0.49394525117E+02  0.60866979259E+02  0.47000000000E+01 0. -1.
         -5    1    4    4    0  502 -0.17620591397E+02  0.67491183477E+02  0.48834825779E+03  0.49332712877E+03  0.47000000000E+01 0. -1.
          5    1    5    5  503    0 -0.33385419884E+02  0.28446801054E+02  0.47677564535E+02  0.64954190866E+02  0.47000000000E+01 0. -1.
         -5    1    5    5    0  503  0.27551655757E+02 -0.69617398300E+02  0.23418463937E+03  0.24590691572E+03  0.47000000000E+01 0. -1.
<mgrwt>
<rscale>  0 0.27670958E+03</rscale>
<asrwt>0</asrwt>
<pdfrwt beam="1">  1        1 0.34961720E-02 0.27670958E+03</pdfrwt>
<pdfrwt beam="2">  1       -1 0.12958922E+00 0.27670958E+03</pdfrwt>
<totfact> 0.15068139E+03</totfact>
</mgrwt>
</event>
<event>
 9    1  0.7926126E-001  0.2684886E+03  0.7818608E-02  0.1102148E+00
         -1   -1    0    0    0  501 -0.00000000000E+00  0.00000000000E+00  0.34406347186E+03  0.34406347186E+03  0.00000000000E+00 0.  1.
          1   -1    0    0  501    0  0.00000000000E+00 -0.00000000000E+00 -0.52378499444E+02  0.52378499444E+02  0.00000000000E+00 0.  1.
         35    2    1    2    0    0  0.71054273576E-14 -0.71054273576E-14  0.29168497242E+03  0.39644197130E+03  0.26848857234E+03 0.  0.
         25    2    3    3    0    0  0.37444553954E+02 -0.29388287702E+02  0.14488556830E+03  0.19769053856E+03  0.12579330292E+03 0.  0.
         25    2    3    3    0    0 -0.37444553954E+02  0.29388287702E+02  0.14679940412E+03  0.19875143274E+03  0.12524496355E+03 0.  0.
          5    1    4    4  502    0  0.46020341697E+02 -0.74146593229E+02  0.10761182529E+03  0.13862894387E+03  0.47000000000E+01 0.  1.
         -5    1    4    4    0  502 -0.85757877432E+01  0.44758305526E+02  0.37273743012E+02  0.59061594688E+02  0.47000000000E+01 0.  1.
          5    1    5    5  503    0  0.30883103659E+02  0.40354259154E+02  0.21176457098E+02  0.55251829460E+02  0.47000000000E+01 0.  1.
         -5    1    5    5    0  503 -0.68327657613E+02 -0.10965971451E+02  0.12562294702E+03  0.14349960328E+03  0.47000000000E+01 0.  1.
<mgrwt>
<rscale>  0 0.26848857E+03</rscale>
<asrwt>0</asrwt>
<pdfrwt beam="1">  1        1 0.80582309E-02 0.26848857E+03</pdfrwt>
<pdfrwt beam="2">  1       -1 0.52932840E-01 0.26848857E+03</pdfrwt>
<totfact> 0.31638627E+03</totfact>
</mgrwt>
</event>
<event>
 9    1  0.7926126E-001  0.2730482E+03  0.7818608E-02  0.1099548E+00
          2   -1    0    0  501    0  0.00000000000E+00  0.00000000000E+00  0.68046036292E+03  0.68046036292E+03  0.00000000000E+00 0.  1.
         -2   -1    0    0    0  501 -0.00000000000E+00 -0.00000000000E+00 -0.27391504732E+02  0.27391504732E+02  0.00000000000E+00 0.  1.
         35    2    1    2    0    0  0.00000000000E+00  0.00000000000E+00  0.65306885819E+03  0.70785186765E+03  0.27304822468E+03 0.  0.
         25    2    3    3    0    0 -0.22547363927E+02 -0.38846072243E+02  0.40688836651E+03  0.42808338577E+03  0.12521917355E+03 0.  0.
         25    2    3    3    0    0  0.22547363927E+02  0.38846072243E+02  0.24618049168E+03  0.27976848188E+03  0.12509263776E+03 0.  0.
          5    1    4    4  502    0 -0.41236410074E+02 -0.24792062555E+02  0.47065989176E+02  0.67471365917E+02  0.47000000000E+01 0. -1.
         -5    1    4    4    0  502  0.18689046148E+02 -0.14054009688E+02  0.35982237733E+03  0.36061201985E+03  0.47000000000E+01 0. -1.
          5    1    5    5  503    0  0.54482822499E+02  0.51733947866E+02  0.79432937822E+02  0.10943701805E+03  0.47000000000E+01 0. -1.
         -5    1    5    5    0  503 -0.31935458572E+02 -0.12887875623E+02  0.16674755386E+03  0.17033146383E+03  0.47000000000E+01 0. -1.
<mgrwt>
<rscale>  0 0.27304822E+03</rscale>
<asrwt>0</asrwt>
<pdfrwt beam="1">  1        2 0.10468620E+00 0.27304822E+03</pdfrwt>
<pdfrwt beam="2">  1       -2 0.42140782E-02 0.27304822E+03</pdfrwt>
<totfact> 0.10977436E+04</totfact>
</mgrwt>
</event>
<event>
 9    1  0.7926126E-001  0.2942029E+03  0.7818608E-02  0.1088175E+00
         -2   -1    0    0    0  501 -0.00000000000E+00  0.00000000000E+00  0.45890081402E+02  0.45890081402E+02  0.00000000000E+00 0. -1.
          2   -1    0    0  501    0  0.00000000000E+00 -0.00000000000E+00 -0.47153623520E+03  0.47153623520E+03  0.00000000000E+00 0. -1.
         35    2    1    2    0    0  0.00000000000E+00  0.00000000000E+00 -0.42564615380E+03  0.51742631660E+03  0.29420289745E+03 0.  0.
         25    2    3    3    0    0  0.11217162865E+02  0.32514810756E+02 -0.92713563196E+02  0.15958118901E+03  0.12524900568E+03 0.  0.
         25    2    3    3    0    0 -0.11217162865E+02 -0.32514810756E+02 -0.33293259060E+03  0.35784512760E+03  0.12659379052E+03 0.  0.
          5    1    4    4  502    0  0.31651920022E+02 -0.28632313398E+02 -0.84020741331E+02  0.94356920178E+02  0.47000000000E+01 0.  1.
         -5    1    4    4    0  502 -0.20434757157E+02  0.61147124153E+02 -0.86928218645E+01  0.65224268829E+02  0.47000000000E+01 0.  1.
          5    1    5    5  503    0 -0.22694232390E+02  0.63445527727E+01 -0.31023646818E+03  0.31116561140E+03  0.47000000000E+01 0.  1.
         -5    1    5    5    0  503  0.11477069524E+02 -0.38859363528E+02 -0.22696122426E+02  0.46679516191E+02  0.47000000000E+01 0.  1.
<mgrwt>
<rscale>  0 0.29420290E+03</rscale>
<asrwt>0</asrwt>
<pdfrwt beam="1">  1        2 0.72544038E-01 0.29420290E+03</pdfrwt>
<pdfrwt beam="2">  1       -2 0.70600124E-02 0.29420290E+03</pdfrwt>
<totfact> 0.76276493E+03</totfact>
</mgrwt>
</event>
<event>
 9    1  0.7926126E-001  0.2735157E+03  0.7818608E-02  0.1099284E+00
         -2   -1    0    0    0  501 -0.00000000000E+00  0.00000000000E+00  0.21937616158E+02  0.21937616158E+02  0.00000000000E+00 0.  1.
          2   -1    0    0  501    0  0.00000000000E+00 -0.00000000000E+00 -0.85254074828E+03  0.85254074828E+03  0.00000000000E+00 0.  1.
         35    2    1    2    0    0 -0.71054273576E-14  0.00000000000E+00 -0.83060313212E+03  0.87447836444E+03  0.27351571578E+03 0.  0.
         25    2    3    3    0    0  0.29856705249E+02 -0.41451056146E+02 -0.34667585809E+03  0.37194642966E+03  0.12470117501E+03 0.  0.
         25    2    3    3    0    0 -0.29856705249E+02  0.41451056146E+02 -0.48392727403E+03  0.50253193477E+03  0.12547161439E+03 0.  0.
          5    1    4    4  502    0 -0.91031868360E+01 -0.65622273291E+02 -0.93970820505E+02  0.11507282854E+03  0.47000000000E+01 0.  1.
         -5    1    4    4    0  502  0.38959892085E+02  0.24171217145E+02 -0.25270503759E+03  0.25687360112E+03  0.47000000000E+01 0.  1.
          5    1    5    5  503    0  0.40914052578E+02  0.13534006457E+02 -0.75562218360E+02  0.87114108344E+02  0.47000000000E+01 0.  1.
         -5    1    5    5    0  503 -0.70770757827E+02  0.27917049689E+02 -0.40836505567E+03  0.41541782643E+03  0.47000000000E+01 0.  1.
<mgrwt>
<rscale>  0 0.27351572E+03</rscale>
<asrwt>0</asrwt>
<pdfrwt beam="1">  1        2 0.13116011E+00 0.27351572E+03</pdfrwt>
<pdfrwt beam="2">  1       -2 0.33750179E-02 0.27351572E+03</pdfrwt>
<totfact> 0.11554372E+04</totfact>
</mgrwt>
</event>
<event>
 9    1  0.7926126E-001  0.2752647E+03  0.7818608E-02  0.1098304E+00
         -2   -1    0    0    0  501 -0.00000000000E+00  0.00000000000E+00  0.74495737978E+01  0.74495737978E+01  0.00000000000E+00 0. -1.
          2   -1    0    0  501    0  0.00000000000E+00 -0.00000000000E+00 -0.25427841703E+04  0.25427841703E+04  0.00000000000E+00 0. -1.
         35    2    1    2    0    0  0.00000000000E+00  0.00000000000E+00 -0.25353345965E+04  0.25502337441E+04  0.27526466049E+03 0.  0.
         25    2    3    3    0    0 -0.14249346998E+02  0.45483747647E+02 -0.15852439124E+04  0.15908919244E+04  0.12516803978E+03 0.  0.
         25    2    3    3    0    0  0.14249346998E+02 -0.45483747647E+02 -0.95009068413E+03  0.95934181971E+03  0.12406693267E+03 0.  0.
          5    1    4    4  502    0  0.25441082584E+02 -0.14121099543E+02 -0.10975969026E+04  0.10979925795E+04  0.47000000000E+01 0. -1.
         -5    1    4    4    0  502 -0.39690429583E+02  0.59604847190E+02 -0.48764700978E+03  0.49289934485E+03  0.47000000000E+01 0. -1.
          5    1    5    5  503    0 -0.22529730716E+02 -0.53311048120E+02 -0.19907555070E+03  0.20737121668E+03  0.47000000000E+01 0. -1.
         -5    1    5    5    0  503  0.36779077715E+02  0.78273004735E+01 -0.75101513343E+03  0.75197060303E+03  0.47000000000E+01 0. -1.
<mgrwt>
<rscale>  0 0.27526466E+03</rscale>
<asrwt>0</asrwt>
<pdfrwt beam="1">  1        2 0.39119797E+00 0.27526466E+03</pdfrwt>
<pdfrwt beam="2">  1       -2 0.11460871E-02 0.27526466E+03</pdfrwt>
<totfact> 0.66418257E+03</totfact>
</mgrwt>
</event>
<event>
 9    1  0.7926126E-001  0.2759352E+03  0.7818608E-02  0.1097930E+00
          2   -1    0    0  501    0  0.00000000000E+00  0.00000000000E+00  0.31861799766E+03  0.31861799766E+03  0.00000000000E+00 0. -1.
         -2   -1    0    0    0  501 -0.00000000000E+00 -0.00000000000E+00 -0.59742550843E+02  0.59742550843E+02  0.00000000000E+00 0. -1.
         35    2    1    2    0    0  0.00000000000E+00  0.35527136788E-14  0.25887544682E+03  0.37836054850E+03  0.27593515126E+03 0.  0.
         25    2    3    3    0    0  0.60814842701E+02  0.25479152874E+02  0.13487370492E+03  0.19544060296E+03  0.12513385107E+03 0.  0.
         25    2    3    3    0    0 -0.60814842701E+02 -0.25479152874E+02  0.12400174190E+03  0.18291994554E+03  0.11719915596E+03 0.  0.
          5    1    4    4  502    0  0.16540837870E+02  0.44897442837E+02 -0.40715133017E+01  0.48249838459E+02  0.47000000000E+01 0.  1.
         -5    1    4    4    0  502  0.44274004832E+02 -0.19418289963E+02  0.13894521822E+03  0.14719076450E+03  0.47000000000E+01 0.  1.
          5    1    5    5  503    0 -0.11835828023E+02 -0.21726679689E+02 -0.19062097418E+02  0.31584632233E+02  0.47000000000E+01 0.  1.
         -5    1    5    5    0  503 -0.48979014678E+02 -0.37524731843E+01  0.14306383931E+03  0.15133531331E+03  0.47000000000E+01 0.  1.
<mgrwt>
<rscale>  0 0.27593515E+03</rscale>
<asrwt>0</asrwt>
<pdfrwt beam="1">  1        2 0.49018153E-01 0.27593515E+03</pdfrwt>
<pdfrwt beam="2">  1       -2 0.91911618E-02 0.27593515E+03</pdfrwt>
<totfact> 0.77181123E+03</totfact>
</mgrwt>
</event>
<event>
 9    1  0.7926126E-001  0.2761140E+03  0.7818608E-02  0.1097830E+00
         -2   -1    0    0    0  501 -0.00000000000E+00  0.00000000000E+00  0.34065550998E+02  0.34065550998E+02  0.00000000000E+00 0.  1.
          2   -1    0    0  501    0  0.00000000000E+00 -0.00000000000E+00 -0.55950189996E+03  0.55950189996E+03  0.00000000000E+00 0.  1.
         35    2    1    2    0    0  0.00000000000E+00  0.00000000000E+00 -0.52543634896E+03  0.59356745096E+03  0.27611403808E+03 0.  0.
         25    2    3    3    0    0 -0.25764433414E+02 -0.43849217652E+02 -0.30747654964E+03  0.33688764163E+03  0.12792534771E+03 0.  0.
         25    2    3    3    0    0  0.25764433414E+02  0.43849217652E+02 -0.21795979932E+03  0.25667980933E+03  0.12566419728E+03 0.  0.
          5    1    4    4  502    0 -0.66212567379E+02  0.36844024456E+01 -0.99258115993E+02  0.11946523549E+03  0.47000000000E+01 0.  1.
         -5    1    4    4    0  502  0.40448133965E+02 -0.47533620098E+02 -0.20821843365E+03  0.21742240614E+03  0.47000000000E+01 0.  1.
          5    1    5    5  503    0  0.26056575395E+02 -0.41925423091E+02 -0.75666125327E+02  0.90466229858E+02  0.47000000000E+01 0.  1.
         -5    1    5    5    0  503 -0.29214198130E+00  0.85774640744E+02 -0.14229367399E+03  0.16621357947E+03  0.47000000000E+01 0.  1.
<mgrwt>
<rscale>  0 0.27611404E+03</rscale>
<asrwt>0</asrwt>
<pdfrwt beam="1">  1        2 0.86077205E-01 0.27611404E+03</pdfrwt>
<pdfrwt beam="2">  1       -2 0.52408547E-02 0.27611404E+03</pdfrwt>
<totfact> 0.99245386E+03</totfact>
</mgrwt>
</event>
<event>
 9    1  0.7926126E-001  0.2648283E+03  0.7818608E-02  0.1104276E+00
          4   -1    0    0  501    0  0.00000000000E+00  0.00000000000E+00  0.40653276565E+03  0.40653276565E+03  0.00000000000E+00 0. -1.
         -4   -1    0    0    0  501 -0.00000000000E+00 -0.00000000000E+00 -0.43129394205E+02  0.43129394205E+02  0.00000000000E+00 0. -1.
         35    2    1    2    0    0 -0.14210854715E-13 -0.71054273576E-14  0.36340337144E+03  0.44966215985E+03  0.26482833615E+03 0.  0.
         25    2    3    3    0    0  0.34954709274E+02  0.19936594184E+02  0.20216354883E+03  0.24200858296E+03  0.12680202784E+03 0.  0.
         25    2    3    3    0    0 -0.34954709274E+02 -0.19936594184E+02  0.16123982261E+03  0.20765357689E+03  0.12450874713E+03 0.  0.
          5    1    4    4  502    0 -0.28947783639E+02  0.51057229216E+02  0.66794502389E+02  0.89041621628E+02  0.47000000000E+01 0.  1.
         -5    1    4    4    0  502  0.63902492913E+02 -0.31120635032E+02  0.13536904644E+03  0.15296696134E+03  0.47000000000E+01 0.  1.
          5    1    5    5  503    0 -0.71645807536E+02 -0.16795801974E+02  0.46783082088E+02  0.87326785530E+02  0.47000000000E+01 0. -1.
         -5    1    5    5    0  503  0.36691098261E+02 -0.31407922103E+01  0.11445674052E+03  0.12032679136E+03  0.47000000000E+01 0. -1.
<mgrwt>
<rscale>  0 0.26482834E+03</rscale>
<asrwt>0</asrwt>
<pdfrwt beam="1">  1        4 0.62543500E-01 0.26482834E+03</pdfrwt>
<pdfrwt beam="2">  1       -4 0.66352917E-02 0.26482834E+03</pdfrwt>
<totfact> 0.68178527E+02</totfact>
</mgrwt>
</event>
<event>
 9    1  0.7926126E-001  0.2671898E+03  0.7818608E-02  0.1102899E+00
          2   -1    0    0  501    0  0.00000000000E+00  0.00000000000E+00  0.13631950616E+04  0.13631950616E+04  0.00000000000E+00 0. -1.
         -2   -1    0    0    0  501 -0.00000000000E+00 -0.00000000000E+00 -0.13092477653E+02  0.13092477653E+02  0.00000000000E+00 0. -1.
         35    2    1    2    0    0  0.00000000000E+00  0.17763568394E-14  0.13501025839E+04  0.13762875392E+04  0.26718982675E+03 0.  0.
         25    2    3    3    0    0 -0.40820741169E+02  0.65697631153E+01  0.79130137363E+03  0.80217937421E+03  0.12499755917E+03 0.  0.
         25    2    3    3    0    0  0.40820741169E+02 -0.65697631153E+01  0.55880121027E+03  0.57410816500E+03  0.12502758824E+03 0.  0.
          5    1    4    4  502    0 -0.81012030557E+02 -0.12102118808E+01  0.36618421456E+03  0.37506983710E+03  0.47000000000E+01 0.  1.
         -5    1    4    4    0  502  0.40191289388E+02  0.77799749962E+01  0.42511715907E+03  0.42710953711E+03  0.47000000000E+01 0.  1.
          5    1    5    5  503    0  0.68594310568E+02  0.24399245894E+02  0.20033586544E+03  0.21320659376E+03  0.47000000000E+01 0.  1.
         -5    1    5    5    0  503 -0.27773569400E+02 -0.30969009009E+02  0.35846534483E+03  0.36090157124E+03  0.47000000000E+01 0.  1.
<mgrwt>
<rscale>  0 0.26718983E+03</rscale>
<asrwt>0</asrwt>
<pdfrwt beam="1">  1        2 0.20972221E+00 0.26718983E+03</pdfrwt>
<pdfrwt beam="2">  1       -2 0.20142284E-02 0.26718983E+03</pdfrwt>
<totfact> 0.12367274E+04</totfact>
</mgrwt>
</event>
<event>
 9    1  0.7926126E-001  0.2740127E+03  0.7818608E-02  0.1099005E+00
          1   -1    0    0  501    0  0.00000000000E+00  0.00000000000E+00  0.27638021082E+03  0.27638021082E+03  0.00000000000E+00 0.  1.
         -1   -1    0    0    0  501 -0.00000000000E+00 -0.00000000000E+00 -0.67916374223E+02  0.67916374223E+02  0.00000000000E+00 0.  1.
         35    2    1    2    0    0  0.71054273576E-14  0.35527136788E-14  0.20846383659E+03  0.34429658504E+03  0.27401271376E+03 0.  0.
         25    2    3    3    0    0  0.45229907958E+02  0.22738418576E+02  0.81074390026E+02  0.15776978406E+03  0.12552078629E+03 0.  0.
         25    2    3    3    0    0 -0.45229907958E+02 -0.22738418576E+02  0.12738944657E+03  0.18652680098E+03  0.12649662499E+03 0.  0.
          5    1    4    4  502    0  0.12063046685E+02 -0.11143469239E+02 -0.31330140031E+02  0.35684193649E+02  0.47000000000E+01 0. -1.
         -5    1    4    4    0  502  0.33166861273E+02  0.33881887815E+02  0.11240453006E+03  0.12208559041E+03  0.47000000000E+01 0. -1.
          5    1    5    5  503    0 -0.26078934423E+02 -0.14411202368E+02  0.15139097117E+03  0.15436680253E+03  0.47000000000E+01 0.  1.
         -5    1    5    5    0  503 -0.19150973535E+02 -0.83272162079E+01 -0.24001524597E+02  0.32159998447E+02  0.47000000000E+01 0.  1.
<mgrwt>
<rscale>  0 0.27401271E+03</rscale>
<asrwt>0</asrwt>
<pdfrwt beam="1">  1        1 0.42520032E-01 0.27401271E+03</pdfrwt>
<pdfrwt beam="2">  1       -1 0.10448673E-01 0.27401271E+03</pdfrwt>
<totfact> 0.54964080E+03</totfact>
</mgrwt>
</event>
<event>
 9    1  0.7926126E-001  0.2754999E+03  0.7818608E-02  0.1098172E+00
          2   -1    0    0  501    0  0.00000000000E+00  0.00000000000E+00  0.20699325315E+04  0.20699325315E+04  0.00000000000E+00 0. -1.
         -2   -1    0    0    0  501 -0.00000000000E+00 -0.00000000000E+00 -0.91669914005E+01  0.91669914005E+01  0.00000000000E+00 0. -1.
         35    2    1    2    0    0  0.35527136788E-14  0.00000000000E+00  0.20607655401E+04  0.20790995229E+04  0.27549993623E+03 0.  0.
         25    2    3    3    0    0  0.10348598494E+02 -0.70433013574E+01  0.14493745820E+04  0.14548250622E+04  0.12519017935E+03 0.  0.
         25    2    3    3    0    0 -0.10348598494E+02  0.70433013574E+01  0.61139095808E+03  0.62427446070E+03  0.12555077491E+03 0.  0.
          5    1    4    4  502    0 -0.29510551795E+02  0.37084645292E+02  0.10439531923E+04  0.10450389951E+04  0.47000000000E+01 0.  1.
         -5    1    4    4    0  502  0.39859150289E+02 -0.44127946650E+02  0.40542138971E+03  0.40978606708E+03  0.47000000000E+01 0.  1.
          5    1    5    5  503    0 -0.44642237644E+02 -0.27761933965E+02  0.49701974323E+03  0.49981433505E+03  0.47000000000E+01 0.  1.
         -5    1    5    5    0  503  0.34293639149E+02  0.34805235323E+02  0.11437121485E+03  0.12446012565E+03  0.47000000000E+01 0.  1.
<mgrwt>
<rscale>  0 0.27549994E+03</rscale>
<asrwt>0</asrwt>
<pdfrwt beam="1">  1        2 0.31845079E+00 0.27549994E+03</pdfrwt>
<pdfrwt beam="2">  1       -2 0.14103080E-02 0.27549994E+03</pdfrwt>
<totfact> 0.88124592E+03</totfact>
</mgrwt>
</event>
<event>
 9    1  0.7926126E-001  0.2777724E+03  0.7818608E-02  0.1096912E+00
         -2   -1    0    0    0  501 -0.00000000000E+00  0.00000000000E+00  0.29272105161E+03  0.29272105161E+03  0.00000000000E+00 0. -1.
          2   -1    0    0  501    0  0.00000000000E+00 -0.00000000000E+00 -0.65896796565E+02  0.65896796565E+02  0.00000000000E+00 0. -1.
         35    2    1    2    0    0 -0.71054273576E-14  0.00000000000E+00  0.22682425504E+03  0.35861784817E+03  0.27777242187E+03 0.  0.
         25    2    3    3    0    0 -0.56111808696E+02  0.12221220209E+02  0.97213325601E+02  0.16969455210E+03  0.12668037354E+03 0.  0.
         25    2    3    3    0    0  0.56111808696E+02 -0.12221220209E+02  0.12961092944E+03  0.18892329607E+03  0.12488044470E+03 0.  0.
          5    1    4    4  502    0  0.44076417441E+01 -0.44054740598E+02  0.69242188322E+02  0.82321431708E+02  0.47000000000E+01 0.  1.
         -5    1    4    4    0  502 -0.60519450440E+02  0.56275960807E+02  0.27971137279E+02  0.87373120392E+02  0.47000000000E+01 0.  1.
          5    1    5    5  503    0  0.37973157733E+02  0.19783990514E+02 -0.10209076947E+02  0.44268298375E+02  0.47000000000E+01 0.  1.
         -5    1    5    5    0  503  0.18138650963E+02 -0.32005210723E+02  0.13982000639E+03  0.14465499770E+03  0.47000000000E+01 0.  1.
<mgrwt>
<rscale>  0 0.27777242E+03</rscale>
<asrwt>0</asrwt>
<pdfrwt beam="1">  1        2 0.10137969E-01 0.27777242E+03</pdfrwt>
<pdfrwt beam="2">  1       -2 0.45034007E-01 0.27777242E+03</pdfrwt>
<totfact> 0.29688862E+03</totfact>
</mgrwt>
</event>
<event>
 9    1  0.7926126E-001  0.2746892E+03  0.7818608E-02  0.1098625E+00
          2   -1    0    0  501    0  0.00000000000E+00  0.00000000000E+00  0.20429007858E+04  0.20429007858E+04  0.00000000000E+00 0.  1.
         -2   -1    0    0    0  501 -0.00000000000E+00 -0.00000000000E+00 -0.92337027416E+01  0.92337027416E+01  0.00000000000E+00 0.  1.
         35    2    1    2    0    0  0.00000000000E+00  0.71054273576E-14  0.20336670830E+04  0.20521344885E+04  0.27468919590E+03 0.  0.
         25    2    3    3    0    0 -0.37599503950E+02  0.18669170168E+02  0.14471324949E+04  0.14531701610E+04  0.12549421668E+03 0.  0.
         25    2    3    3    0    0  0.37599503950E+02 -0.18669170168E+02  0.58653458814E+03  0.59896432753E+03  0.11389987685E+03 0.  0.
          5    1    4    4  502    0  0.12380317708E+01  0.94551965624E+01  0.13153991600E+04  0.13154421210E+04  0.47000000000E+01 0. -1.
         -5    1    4    4    0  502 -0.38837535721E+02  0.92139736052E+01  0.13173333491E+03  0.13772804005E+03  0.47000000000E+01 0. -1.
          5    1    5    5  503    0  0.14592449643E+02  0.46825059174E+02  0.18512744185E+03  0.19157188071E+03  0.47000000000E+01 0.  1.
         -5    1    5    5    0  503  0.23007054307E+02 -0.65494229341E+02  0.40140714630E+03  0.40739244682E+03  0.47000000000E+01 0.  1.
<mgrwt>
<rscale>  0 0.27468920E+03</rscale>
<asrwt>0</asrwt>
<pdfrwt beam="1">  1        2 0.31429207E+00 0.27468920E+03</pdfrwt>
<pdfrwt beam="2">  1       -2 0.14205713E-02 0.27468920E+03</pdfrwt>
<totfact> 0.90103336E+03</totfact>
</mgrwt>
</event>
<event>
 9    1  0.7926126E-001  0.2711492E+03  0.7818608E-02  0.1100624E+00
          2   -1    0    0  501    0  0.00000000000E+00  0.00000000000E+00  0.80243975336E+02  0.80243975336E+02  0.00000000000E+00 0. -1.
         -2   -1    0    0    0  501 -0.00000000000E+00 -0.00000000000E+00 -0.22905742409E+03  0.22905742409E+03  0.00000000000E+00 0. -1.
         35    2    1    2    0    0  0.00000000000E+00  0.71054273576E-14 -0.14881344875E+03  0.30930139942E+03  0.27114924517E+03 0.  0.
         25    2    3    3    0    0 -0.37155259504E+02  0.35797431729E+02 -0.65775765314E+02  0.15068618402E+03  0.12537107052E+03 0.  0.
         25    2    3    3    0    0  0.37155259504E+02 -0.35797431729E+02 -0.83037683436E+02  0.15861521541E+03  0.12490620585E+03 0.  0.
          5    1    4    4  502    0 -0.12123241737E+02 -0.45753407254E+02 -0.98511303865E+01  0.48574499847E+02  0.47000000000E+01 0. -1.
         -5    1    4    4    0  502 -0.25032017767E+02  0.81550838983E+02 -0.55924634928E+02  0.10211168417E+03  0.47000000000E+01 0. -1.
          5    1    5    5  503    0  0.33337693206E+02  0.16911337367E+02  0.20047724550E+02  0.42677820697E+02  0.47000000000E+01 0. -1.
         -5    1    5    5    0  503  0.38175662973E+01 -0.52708769096E+02 -0.10308540799E+03  0.11593739471E+03  0.47000000000E+01 0. -1.
<mgrwt>
<rscale>  0 0.27114925E+03</rscale>
<asrwt>0</asrwt>
<pdfrwt beam="1">  1        2 0.12345227E-01 0.27114925E+03</pdfrwt>
<pdfrwt beam="2">  1       -2 0.35239603E-01 0.27114925E+03</pdfrwt>
<totfact> 0.37207663E+03</totfact>
</mgrwt>
</event>
<event>
 9    1  0.7926126E-001  0.2749524E+03  0.7818608E-02  0.1098478E+00
          2   -1    0    0  501    0  0.00000000000E+00  0.00000000000E+00  0.43844552572E+02  0.43844552572E+02  0.00000000000E+00 0.  1.
         -2   -1    0    0    0  501 -0.00000000000E+00 -0.00000000000E+00 -0.43106162520E+03  0.43106162520E+03  0.00000000000E+00 0.  1.
         35    2    1    2    0    0  0.71054273576E-14  0.14210854715E-13 -0.38721707263E+03  0.47490617777E+03  0.27495238925E+03 0.  0.
         25    2    3    3    0    0  0.22178508801E+02 -0.30884062351E+02 -0.26069947570E+03  0.29169008542E+03  0.12519256263E+03 0.  0.
         25    2    3    3    0    0 -0.22178508801E+02  0.30884062351E+02 -0.12651759692E+03  0.18321609236E+03  0.12694771604E+03 0.  0.
          5    1    4    4  502    0  0.45133061637E+02  0.37292210409E+02 -0.11492487806E+03  0.12906401437E+03  0.47000000000E+01 0. -1.
         -5    1    4    4    0  502 -0.22954552835E+02 -0.68176272761E+02 -0.14577459765E+03  0.16262607104E+03  0.47000000000E+01 0. -1.
          5    1    5    5  503    0 -0.36235729235E+02  0.73809843025E+02 -0.10360109380E+03  0.13234877271E+03  0.47000000000E+01 0.  1.
         -5    1    5    5    0  503  0.14057220434E+02 -0.42925780674E+02 -0.22916503123E+02  0.50867319648E+02  0.47000000000E+01 0.  1.
<mgrwt>
<rscale>  0 0.27495239E+03</rscale>
<asrwt>0</asrwt>
<pdfrwt beam="1">  1        2 0.67453158E-02 0.27495239E+03</pdfrwt>
<pdfrwt beam="2">  1       -2 0.66317173E-01 0.27495239E+03</pdfrwt>
<totfact> 0.22643674E+03</totfact>
</mgrwt>
</event>
<event>
 9    1  0.7926126E-001  0.2773612E+03  0.7818608E-02  0.1097139E+00
          4   -1    0    0  501    0  0.00000000000E+00  0.00000000000E+00  0.19170434855E+03  0.19170434855E+03  0.00000000000E+00 0.  1.
         -4   -1    0    0    0  501 -0.00000000000E+00 -0.00000000000E+00 -0.10032277964E+03  0.10032277964E+03  0.00000000000E+00 0.  1.
         35    2    1    2    0    0  0.00000000000E+00  0.00000000000E+00  0.91381568907E+02  0.29202712819E+03  0.27736123101E+03 0.  0.
         25    2    3    3    0    0  0.53826501956E+02 -0.15812524815E+02  0.37104498645E+02  0.14195943359E+03  0.12501363410E+03 0.  0.
         25    2    3    3    0    0 -0.53826501956E+02  0.15812524815E+02  0.54277070262E+02  0.15006769461E+03  0.12816779765E+03 0.  0.
          5    1    4    4  502    0  0.90042242807E+01  0.48299150403E+02 -0.10232226463E+02  0.50405083503E+02  0.47000000000E+01 0.  1.
         -5    1    4    4    0  502  0.44822277676E+02 -0.64111675218E+02  0.47336725109E+02  0.91554350084E+02  0.47000000000E+01 0.  1.
          5    1    5    5  503    0 -0.68810094356E+02  0.40597785771E+01  0.87499040441E+02  0.11148759108E+03  0.47000000000E+01 0.  1.
         -5    1    5    5    0  503  0.14983592400E+02  0.11752746238E+02 -0.33221970179E+02  0.38580103524E+02  0.47000000000E+01 0.  1.
<mgrwt>
<rscale>  0 0.27736123E+03</rscale>
<asrwt>0</asrwt>
<pdfrwt beam="1">  1        4 0.29492977E-01 0.27736123E+03</pdfrwt>
<pdfrwt beam="2">  1       -4 0.15434274E-01 0.27736123E+03</pdfrwt>
<totfact> 0.73910906E+02</totfact>
</mgrwt>
</event>
<event>
 9    1  0.7926126E-001  0.2669228E+03  0.7818608E-02  0.1103054E+00
          2   -1    0    0  501    0  0.00000000000E+00  0.00000000000E+00  0.53118145345E+03  0.53118145345E+03  0.00000000000E+00 0.  1.
         -2   -1    0    0    0  501 -0.00000000000E+00 -0.00000000000E+00 -0.33532704530E+02  0.33532704530E+02  0.00000000000E+00 0.  1.
         35    2    1    2    0    0  0.00000000000E+00 -0.35527136788E-14  0.49764874892E+03  0.56471415798E+03  0.26692284076E+03 0.  0.
         25    2    3    3    0    0  0.43893297395E+02 -0.86188433426E+01  0.27767931738E+03  0.30714966105E+03  0.12342692156E+03 0.  0.
         25    2    3    3    0    0 -0.43893297395E+02  0.86188433426E+01  0.21996943154E+03  0.25756449693E+03  0.12630127968E+03 0.  0.
          5    1    4    4  502    0  0.64399318728E+02 -0.31228610824E+02  0.81554404606E+02  0.10860805356E+03  0.47000000000E+01 0.  1.
         -5    1    4    4    0  502 -0.20506021333E+02  0.22609767481E+02  0.19612491277E+03  0.19854160749E+03  0.47000000000E+01 0.  1.
          5    1    5    5  503    0 -0.54587416085E+02 -0.32440008445E+02  0.20101317224E+03  0.21085664693E+03  0.47000000000E+01 0.  1.
         -5    1    5    5    0  503  0.10694118690E+02  0.41058851788E+02  0.18956259308E+02  0.46707850001E+02  0.47000000000E+01 0.  1.
<mgrwt>
<rscale>  0 0.26692284E+03</rscale>
<asrwt>0</asrwt>
<pdfrwt beam="1">  1        2 0.81720217E-01 0.26692284E+03</pdfrwt>
<pdfrwt beam="2">  1       -2 0.51588780E-02 0.26692284E+03</pdfrwt>
<totfact> 0.10769269E+04</totfact>
</mgrwt>
</event>
<event>
 9    1  0.7926126E-001  0.2774714E+03  0.7818608E-02  0.1097078E+00
          1   -1    0    0  501    0  0.00000000000E+00  0.00000000000E+00  0.85922986424E+03  0.85922986424E+03  0.00000000000E+00 0. -1.
         -1   -1    0    0    0  501 -0.00000000000E+00 -0.00000000000E+00 -0.22400985762E+02  0.22400985762E+02  0.00000000000E+00 0. -1.
         35    2    1    2    0    0 -0.35527136788E-14 -0.71054273576E-14  0.83682887847E+03  0.88163085000E+03  0.27747141082E+03 0.  0.
         25    2    3    3    0    0  0.15001907449E+01  0.22970143464E+02  0.22719755866E+03  0.25890449231E+03  0.12199560407E+03 0.  0.
         25    2    3    3    0    0 -0.15001907449E+01 -0.22970143464E+02  0.60963131981E+03  0.62272635769E+03  0.12493155087E+03 0.  0.
          5    1    4    4  502    0  0.44348578808E+02  0.31811877301E+02  0.43331238681E+02  0.69846103866E+02  0.47000000000E+01 0.  1.
         -5    1    4    4    0  502 -0.42848388063E+02 -0.88417338369E+01  0.18386631998E+03  0.18905838844E+03  0.47000000000E+01 0.  1.
          5    1    5    5  503    0  0.17149829075E+02  0.41055906347E+02  0.11170219600E+03  0.12032944226E+03  0.47000000000E+01 0. -1.
         -5    1    5    5    0  503 -0.18650019820E+02 -0.64026049811E+02  0.49792912381E+03  0.50239691543E+03  0.47000000000E+01 0. -1.
<mgrwt>
<rscale>  0 0.27747141E+03</rscale>
<asrwt>0</asrwt>
<pdfrwt beam="1">  1        1 0.13218918E+00 0.27747141E+03</pdfrwt>
<pdfrwt beam="2">  1       -1 0.34463062E-02 0.27747141E+03</pdfrwt>
<totfact> 0.63139915E+03</totfact>
</mgrwt>
</event>
<event>
 9    1  0.7926126E-001  0.2701934E+03  0.7818608E-02  0.1101169E+00
          3   -1    0    0  501    0  0.00000000000E+00  0.00000000000E+00  0.97392270785E+02  0.97392270785E+02  0.00000000000E+00 0. -1.
         -3   -1    0    0    0  501 -0.00000000000E+00 -0.00000000000E+00 -0.18739795451E+03  0.18739795451E+03  0.00000000000E+00 0. -1.
         35    2    1    2    0    0  0.35527136788E-14  0.00000000000E+00 -0.90005683722E+02  0.28479022529E+03  0.27019335543E+03 0.  0.
         25    2    3    3    0    0 -0.62730814102E+01 -0.36881376302E+02 -0.79131946211E+02  0.15308388276E+03  0.12559149168E+03 0.  0.
         25    2    3    3    0    0  0.62730814102E+01  0.36881376302E+02 -0.10873737511E+02  0.13170634253E+03  0.12581230078E+03 0.  0.
          5    1    4    4  502    0 -0.27356089623E+02  0.22191046263E+02  0.16053113460E+02  0.38994751255E+02  0.47000000000E+01 0.  1.
         -5    1    4    4    0  502  0.21083008213E+02 -0.59072422565E+02 -0.95185059672E+02  0.11408913151E+03  0.47000000000E+01 0.  1.
          5    1    5    5  503    0  0.43152636445E+02  0.68920298610E+02 -0.13480127041E+02  0.82558836097E+02  0.47000000000E+01 0. -1.
         -5    1    5    5    0  503 -0.36879555035E+02 -0.32038922309E+02  0.26063895302E+01  0.49147506434E+02  0.47000000000E+01 0. -1.
<mgrwt>
<rscale>  0 0.27019336E+03</rscale>
<asrwt>0</asrwt>
<pdfrwt beam="1">  1        3 0.14983426E-01 0.27019336E+03</pdfrwt>
<pdfrwt beam="2">  1       -3 0.28830454E-01 0.27019336E+03</pdfrwt>
<totfact> 0.10913905E+03</totfact>
</mgrwt>
</event>
<event>
 9    1  0.7926126E-001  0.2735653E+03  0.7818608E-02  0.1099256E+00
          2   -1    0    0  501    0  0.00000000000E+00  0.00000000000E+00  0.10927288009E+04  0.10927288009E+04  0.00000000000E+00 0. -1.
         -2   -1    0    0    0  501 -0.00000000000E+00 -0.00000000000E+00 -0.17121804646E+02  0.17121804646E+02  0.00000000000E+00 0. -1.
         35    2    1    2    0    0 -0.35527136788E-14  0.17763568394E-14  0.10756069962E+04  0.11098506055E+04  0.27356526870E+03 0.  0.
         25    2    3    3    0    0 -0.78610821921E+01  0.16621828542E+01  0.76254160196E+03  0.77269058324E+03  0.12456517667E+03 0.  0.
         25    2    3    3    0    0  0.78610821921E+01 -0.16621828542E+01  0.31306539428E+03  0.33716002229E+03  0.12490948752E+03 0.  0.
          5    1    4    4  502    0  0.49942920321E+02 -0.30095071698E+02  0.38011359410E+03  0.38458866734E+03  0.47000000000E+01 0. -1.
         -5    1    4    4    0  502 -0.57804002513E+02  0.31757254552E+02  0.38242800786E+03  0.38810191590E+03  0.47000000000E+01 0. -1.
          5    1    5    5  503    0 -0.28157955349E+02  0.88406417976E+00  0.29523876488E+03  0.29661704318E+03  0.47000000000E+01 0.  1.
         -5    1    5    5    0  503  0.36019037541E+02 -0.25462470340E+01  0.17826629399E+02  0.40542979110E+02  0.47000000000E+01 0.  1.
<mgrwt>
<rscale>  0 0.27356527E+03</rscale>
<asrwt>0</asrwt>
<pdfrwt beam="1">  1        2 0.16811207E+00 0.27356527E+03</pdfrwt>
<pdfrwt beam="2">  1       -2 0.26341246E-02 0.27356527E+03</pdfrwt>
<totfact> 0.11838826E+04</totfact>
</mgrwt>
</event>
<event>
 9    1  0.7926126E-001  0.2694193E+03  0.7818608E-02  0.1101612E+00
          2   -1    0    0  501    0  0.00000000000E+00  0.00000000000E+00  0.20706412719E+04  0.20706412719E+04  0.00000000000E+00 0. -1.
         -2   -1    0    0    0  501 -0.00000000000E+00 -0.00000000000E+00 -0.87638000806E+01  0.87638000806E+01  0.00000000000E+00 0. -1.
         35    2    1    2    0    0  0.71054273576E-14  0.00000000000E+00  0.20618774718E+04  0.20794050719E+04  0.26941927285E+03 0.  0.
         25    2    3    3    0    0 -0.38489843593E+01 -0.33473262556E+02  0.73888626367E+03  0.75008609579E+03  0.12466341271E+03 0.  0.
         25    2    3    3    0    0  0.38489843593E+01  0.33473262556E+02  0.13229912081E+04  0.13293189761E+04  0.12509168492E+03 0.  0.
          5    1    4    4  502    0  0.35454198426E+02 -0.66219070625E+02  0.36422437384E+03  0.37191860668E+03  0.47000000000E+01 0.  1.
         -5    1    4    4    0  502 -0.39303182786E+02  0.32745808068E+02  0.37466188983E+03  0.37816748911E+03  0.47000000000E+01 0.  1.
          5    1    5    5  503    0 -0.43948861926E+02  0.56156065032E+02  0.93210062693E+03  0.93483617539E+03  0.47000000000E+01 0.  1.
         -5    1    5    5    0  503  0.47797846286E+02 -0.22682802476E+02  0.39089058118E+03  0.39448280076E+03  0.47000000000E+01 0.  1.
<mgrwt>
<rscale>  0 0.26941927E+03</rscale>
<asrwt>0</asrwt>
<pdfrwt beam="1">  1        2 0.31855981E+00 0.26941927E+03</pdfrwt>
<pdfrwt beam="2">  1       -2 0.13482786E-02 0.26941927E+03</pdfrwt>
<totfact> 0.94008412E+03</totfact>
</mgrwt>
</event>
<event>
 9    1  0.7926126E-001  0.2741192E+03  0.7818608E-02  0.1098945E+00
         -2   -1    0    0    0  501 -0.00000000000E+00  0.00000000000E+00  0.75097917917E+01  0.75097917917E+01  0.00000000000E+00 0.  1.
          2   -1    0    0  501    0  0.00000000000E+00 -0.00000000000E+00 -0.25014452337E+04  0.25014452337E+04  0.00000000000E+00 0.  1.
         35    2    1    2    0    0  0.00000000000E+00  0.00000000000E+00 -0.24939354419E+04  0.25089550255E+04  0.27411919220E+03 0.  0.
         25    2    3    3    0    0  0.68854142052E+00 -0.29936973227E+02 -0.17028090726E+04  0.17076342234E+04  0.12473654857E+03 0.  0.
         25    2    3    3    0    0 -0.68854142052E+00  0.29936973227E+02 -0.79112636925E+03  0.80132080208E+03  0.12384425414E+03 0.  0.
          5    1    4    4  502    0 -0.35942499060E+02 -0.29767852036E+02 -0.15389544670E+04  0.15396690975E+04  0.47000000000E+01 0.  1.
         -5    1    4    4    0  502  0.36631040480E+02 -0.16912119085E+00 -0.16385460567E+03  0.16796512593E+03  0.47000000000E+01 0.  1.
          5    1    5    5  503    0 -0.52814011570E+02 -0.17469453226E+02 -0.39904475323E+03  0.40293089568E+03  0.47000000000E+01 0. -1.
         -5    1    5    5    0  503  0.52125470149E+02  0.47406426453E+02 -0.39208161601E+03  0.39838990640E+03  0.47000000000E+01 0. -1.
<mgrwt>
<rscale>  0 0.27411919E+03</rscale>
<asrwt>0</asrwt>
<pdfrwt beam="1">  1        2 0.38483803E+00 0.27411919E+03</pdfrwt>
<pdfrwt beam="2">  1       -2 0.11553517E-02 0.27411919E+03</pdfrwt>
<totfact> 0.69171322E+03</totfact>
</mgrwt>
</event>
<event>
 9    1  0.7926126E-001  0.2775372E+03  0.7818608E-02  0.1097042E+00
         -2   -1    0    0    0  501 -0.00000000000E+00  0.00000000000E+00  0.28978311078E+02  0.28978311078E+02  0.00000000000E+00 0.  1.
          2   -1    0    0  501    0  0.00000000000E+00 -0.00000000000E+00 -0.66452173779E+03  0.66452173779E+03  0.00000000000E+00 0.  1.
         35    2    1    2    0    0  0.71054273576E-14  0.00000000000E+00 -0.63554342672E+03  0.69350004887E+03  0.27753715164E+03 0.  0.
         25    2    3    3    0    0 -0.58952555885E+02 -0.15842930737E+02 -0.30313930950E+03  0.33351945382E+03  0.12496152533E+03 0.  0.
         25    2    3    3    0    0  0.58952555885E+02  0.15842930737E+02 -0.33240411722E+03  0.35998059505E+03  0.12396422617E+03 0.  0.
          5    1    4    4  502    0  0.12873191599E+02  0.35022926988E+02 -0.16814524752E+03  0.17229985125E+03  0.47000000000E+01 0.  1.
         -5    1    4    4    0  502 -0.71825747484E+02 -0.50865857725E+02 -0.13499406197E+03  0.16121960257E+03  0.47000000000E+01 0.  1.
          5    1    5    5  503    0 -0.28923096759E+02  0.20110325352E+02 -0.18394230224E+03  0.18734415194E+03  0.47000000000E+01 0. -1.
         -5    1    5    5    0  503  0.87875652643E+02 -0.42673946145E+01 -0.14846181498E+03  0.17263644311E+03  0.47000000000E+01 0. -1.
<mgrwt>
<rscale>  0 0.27753715E+03</rscale>
<asrwt>0</asrwt>
<pdfrwt beam="1">  1        2 0.10223412E+00 0.27753715E+03</pdfrwt>
<pdfrwt beam="2">  1       -2 0.44582016E-02 0.27753715E+03</pdfrwt>
<totfact> 0.10379524E+04</totfact>
</mgrwt>
</event>
<event>
 9    1  0.7926126E-001  0.2751620E+03  0.7818608E-02  0.1098361E+00
          1   -1    0    0  501    0  0.00000000000E+00  0.00000000000E+00  0.18448594571E+04  0.18448594571E+04  0.00000000000E+00 0.  1.
         -1   -1    0    0    0  501 -0.00000000000E+00 -0.00000000000E+00 -0.10260147581E+02  0.10260147581E+02  0.00000000000E+00 0.  1.
         35    2    1    2    0    0  0.00000000000E+00  0.71054273576E-14  0.18345993095E+04  0.18551196047E+04  0.27516199080E+03 0.  0.
         25    2    3    3    0    0 -0.17480212426E+00 -0.52151318974E+02  0.79415825866E+03  0.80569600968E+03  0.12545489069E+03 0.  0.
         25    2    3    3    0    0  0.17480212426E+00  0.52151318974E+02  0.10404410508E+04  0.10494235950E+04  0.12669850352E+03 0.  0.
          5    1    4    4  502    0 -0.29517456865E+02 -0.37614560820E+02  0.10200926928E+03  0.11275689099E+03  0.47000000000E+01 0.  1.
         -5    1    4    4    0  502  0.29342654741E+02 -0.14536758154E+02  0.69214898937E+03  0.69293911869E+03  0.47000000000E+01 0.  1.
          5    1    5    5  503    0 -0.18350247107E+02  0.68306678206E+01  0.22109934269E+02  0.29905330380E+02  0.47000000000E+01 0. -1.
         -5    1    5    5    0  503  0.18525049231E+02  0.45320651154E+02  0.10183311166E+04  0.10195182646E+04  0.47000000000E+01 0. -1.
<mgrwt>
<rscale>  0 0.27516199E+03</rscale>
<asrwt>0</asrwt>
<pdfrwt beam="1">  1        1 0.28382427E+00 0.27516199E+03</pdfrwt>
<pdfrwt beam="2">  1       -1 0.15784857E-02 0.27516199E+03</pdfrwt>
<totfact> 0.41226776E+03</totfact>
</mgrwt>
</event>
<event>
 9    1  0.7926126E-001  0.2762424E+03  0.7818608E-02  0.1097759E+00
         -2   -1    0    0    0  501 -0.00000000000E+00  0.00000000000E+00  0.82948017948E+01  0.82948017948E+01  0.00000000000E+00 0.  1.
          2   -1    0    0  501    0  0.00000000000E+00 -0.00000000000E+00 -0.22999298677E+04  0.22999298677E+04  0.00000000000E+00 0.  1.
         35    2    1    2    0    0  0.88817841970E-15  0.00000000000E+00 -0.22916350659E+04  0.23082246695E+04  0.27624237470E+03 0.  0.
         25    2    3    3    0    0 -0.52678979363E+01 -0.11012430287E+02 -0.15778851138E+04  0.15831475995E+04  0.12839729395E+03 0.  0.
         25    2    3    3    0    0  0.52678979363E+01  0.11012430287E+02 -0.71374995216E+03  0.72507707005E+03  0.12707768855E+03 0.  0.
          5    1    4    4  502    0 -0.19346187334E+01 -0.52590925944E+02 -0.13725162767E+04  0.13735328784E+04  0.47000000000E+01 0. -1.
         -5    1    4    4    0  502 -0.33332792029E+01  0.41578495657E+02 -0.20536883710E+03  0.20961472111E+03  0.47000000000E+01 0. -1.
          5    1    5    5  503    0 -0.18080209544E+02  0.45615420732E+02 -0.62442651417E+03  0.62636907824E+03  0.47000000000E+01 0.  1.
         -5    1    5    5    0  503  0.23348107480E+02 -0.34602990445E+02 -0.89323437994E+02  0.98707991803E+02  0.47000000000E+01 0.  1.
<mgrwt>
<rscale>  0 0.27624237E+03</rscale>
<asrwt>0</asrwt>
<pdfrwt beam="1">  1        2 0.35383585E+00 0.27624237E+03</pdfrwt>
<pdfrwt beam="2">  1       -2 0.12761216E-02 0.27624237E+03</pdfrwt>
<totfact> 0.76950667E+03</totfact>
</mgrwt>
</event>
<event>
 9    1  0.7926126E-001  0.2750995E+03  0.7818608E-02  0.1098396E+00
         -2   -1    0    0    0  501 -0.00000000000E+00  0.00000000000E+00  0.83117395073E+01  0.83117395073E+01  0.00000000000E+00 0. -1.
          2   -1    0    0  501    0  0.00000000000E+00 -0.00000000000E+00 -0.22762896957E+04  0.22762896957E+04  0.00000000000E+00 0. -1.
         35    2    1    2    0    0 -0.71054273576E-14  0.00000000000E+00 -0.22679779562E+04  0.22846014352E+04  0.27509945106E+03 0.  0.
         25    2    3    3    0    0  0.47341784527E+02  0.27061791066E+02 -0.98503468778E+03  0.99445161149E+03  0.12516823226E+03 0.  0.
         25    2    3    3    0    0 -0.47341784527E+02 -0.27061791066E+02 -0.12829432684E+04  0.12901498237E+04  0.12477801318E+03 0.  0.
          5    1    4    4  502    0  0.73227852888E+02  0.56814392393E+02 -0.78862778928E+03  0.79406931287E+03  0.47000000000E+01 0.  1.
         -5    1    4    4    0  502 -0.25886068361E+02 -0.29752601327E+02 -0.19640689850E+03  0.20038229862E+03  0.47000000000E+01 0.  1.
          5    1    5    5  503    0 -0.18237036764E+02  0.50049870239E+02 -0.53339933441E+03  0.53607324031E+03  0.47000000000E+01 0.  1.
         -5    1    5    5    0  503 -0.29104747762E+02 -0.77111661306E+02 -0.74954393401E+03  0.75407658342E+03  0.47000000000E+01 0.  1.
<mgrwt>
<rscale>  0 0.27509945E+03</rscale>
<asrwt>0</asrwt>
<pdfrwt beam="1">  1        2 0.35019863E+00 0.27509945E+03</pdfrwt>
<pdfrwt beam="2">  1       -2 0.12787284E-02 0.27509945E+03</pdfrwt>
<totfact> 0.78992727E+03</totfact>
</mgrwt>
</event>
<event>
 9    1  0.7926126E-001  0.2750292E+03  0.7818608E-02  0.1098435E+00
         -2   -1    0    0    0  501 -0.00000000000E+00  0.00000000000E+00  0.16214667873E+02  0.16214667873E+02  0.00000000000E+00 0.  1.
          2   -1    0    0  501    0  0.00000000000E+00 -0.00000000000E+00 -0.11662443999E+04  0.11662443999E+04  0.00000000000E+00 0.  1.
         35    2    1    2    0    0  0.14210854715E-13  0.17763568394E-14 -0.11500297320E+04  0.11824590678E+04  0.27502920284E+03 0.  0.
         25    2    3    3    0    0 -0.56664776175E+02  0.14830390562E+01 -0.52441048358E+03  0.54179154676E+03  0.12376844746E+03 0.  0.
         25    2    3    3    0    0  0.56664776175E+02 -0.14830390562E+01 -0.62561924847E+03  0.64066752103E+03  0.12586632668E+03 0.  0.
          5    1    4    4  502    0 -0.79595148533E+02  0.33960830798E+02 -0.25271096083E+03  0.26715846500E+03  0.47000000000E+01 0. -1.
         -5    1    4    4    0  502  0.22930372358E+02 -0.32477791741E+02 -0.27169952276E+03  0.27463308176E+03  0.47000000000E+01 0. -1.
          5    1    5    5  503    0  0.79776594287E+02  0.88241634112E+01 -0.59612178060E+03  0.60151927497E+03  0.47000000000E+01 0. -1.
         -5    1    5    5    0  503 -0.23111818112E+02 -0.10307202467E+02 -0.29497467863E+02  0.39148246059E+02  0.47000000000E+01 0. -1.
<mgrwt>
<rscale>  0 0.27502920E+03</rscale>
<asrwt>0</asrwt>
<pdfrwt beam="1">  1        2 0.17942219E+00 0.27502920E+03</pdfrwt>
<pdfrwt beam="2">  1       -2 0.24945647E-02 0.27502920E+03</pdfrwt>
<totfact> 0.11632032E+04</totfact>
</mgrwt>
</event>
<event>
 9    1  0.7926126E-001  0.2739544E+03  0.7818608E-02  0.1099037E+00
          1   -1    0    0  501    0  0.00000000000E+00  0.00000000000E+00  0.28387439219E+02  0.28387439219E+02  0.00000000000E+00 0. -1.
         -1   -1    0    0    0  501 -0.00000000000E+00 -0.00000000000E+00 -0.66095282208E+03  0.66095282208E+03  0.00000000000E+00 0. -1.
         35    2    1    2    0    0  0.35527136788E-14 -0.71054273576E-14 -0.63256538286E+03  0.68934026130E+03  0.27395443463E+03 0.  0.
         25    2    3    3    0    0 -0.13496643854E+02  0.51838751359E+02 -0.31402324338E+03  0.34280341758E+03  0.12662610387E+03 0.  0.
         25    2    3    3    0    0  0.13496643854E+02 -0.51838751359E+02 -0.31854213948E+03  0.34653684373E+03  0.12549611108E+03 0.  0.
          5    1    4    4  502    0  0.12179623186E+02  0.52871118067E+02 -0.31187264640E+03  0.31659174961E+03  0.47000000000E+01 0. -1.
         -5    1    4    4    0  502 -0.25676267041E+02 -0.10323667078E+01 -0.21505969772E+01  0.26211667965E+02  0.47000000000E+01 0. -1.
          5    1    5    5  503    0  0.40795498248E+01  0.37310582148E+02 -0.45795413972E+02  0.59397240743E+02  0.47000000000E+01 0. -1.
         -5    1    5    5    0  503  0.94170940296E+01 -0.89149333507E+02 -0.27274672551E+03  0.28713960298E+03  0.47000000000E+01 0. -1.
<mgrwt>
<rscale>  0 0.27395443E+03</rscale>
<asrwt>0</asrwt>
<pdfrwt beam="1">  1        1 0.43672982E-02 0.27395443E+03</pdfrwt>
<pdfrwt beam="2">  1       -1 0.10168505E+00 0.27395443E+03</pdfrwt>
<totfact> 0.19496875E+03</totfact>
</mgrwt>
</event>
<event>
 9    1  0.7926126E-001  0.2746743E+03  0.7818608E-02  0.1098634E+00
         -1   -1    0    0    0  501 -0.00000000000E+00  0.00000000000E+00  0.46298228902E+03  0.46298228902E+03  0.00000000000E+00 0.  1.
          1   -1    0    0  501    0  0.00000000000E+00 -0.00000000000E+00 -0.40739115612E+02  0.40739115612E+02  0.00000000000E+00 0.  1.
         35    2    1    2    0    0  0.71054273576E-14  0.71054273576E-14  0.42224317341E+03  0.50372140463E+03  0.27467427254E+03 0.  0.
         25    2    3    3    0    0 -0.47289891511E+02  0.88743230002E+00  0.27127563161E+03  0.30202289020E+03  0.12405739207E+03 0.  0.
         25    2    3    3    0    0  0.47289891511E+02 -0.88743230002E+00  0.15096754180E+03  0.20169851442E+03  0.12511582901E+03 0.  0.
          5    1    4    4  502    0 -0.72161932190E+02  0.94047660900E+01  0.77497746756E+02  0.10641327377E+03  0.47000000000E+01 0. -1.
         -5    1    4    4    0  502  0.24872040679E+02 -0.85173337899E+01  0.19377788485E+03  0.19560961643E+03  0.47000000000E+01 0. -1.
          5    1    5    5  503    0  0.12970646827E+02 -0.37920033945E+02 -0.21439516553E+01  0.40408578077E+02  0.47000000000E+01 0. -1.
         -5    1    5    5    0  503  0.34319244684E+02  0.37032601645E+02  0.15311149345E+03  0.16128993635E+03  0.47000000000E+01 0. -1.
<mgrwt>
<rscale>  0 0.27467427E+03</rscale>
<asrwt>0</asrwt>
<pdfrwt beam="1">  1        1 0.62675566E-02 0.27467427E+03</pdfrwt>
<pdfrwt beam="2">  1       -1 0.71228041E-01 0.27467427E+03</pdfrwt>
<totfact> 0.25123642E+03</totfact>
</mgrwt>
</event>
<event>
 9    1  0.7926126E-001  0.2772474E+03  0.7818608E-02  0.1097202E+00
          1   -1    0    0  501    0  0.00000000000E+00  0.00000000000E+00  0.88274791019E+03  0.88274791019E+03  0.00000000000E+00 0. -1.
         -1   -1    0    0    0  501 -0.00000000000E+00 -0.00000000000E+00 -0.21768997081E+02  0.21768997081E+02  0.00000000000E+00 0. -1.
         35    2    1    2    0    0  0.35527136788E-14 -0.71054273576E-14  0.86097891311E+03  0.90451690727E+03  0.27724744673E+03 0.  0.
         25    2    3    3    0    0 -0.30895380539E+02 -0.31182315303E+02  0.30253185751E+03  0.33044915048E+03  0.12547611295E+03 0.  0.
         25    2    3    3    0    0  0.30895380539E+02  0.31182315303E+02  0.55844705561E+03  0.57406775679E+03  0.12555402880E+03 0.  0.
          5    1    4    4  502    0 -0.10306494581E+02  0.10033916751E+02 -0.75615359845E+01  0.16916564142E+02  0.47000000000E+01 0. -1.
         -5    1    4    4    0  502 -0.20588885957E+02 -0.41216232054E+02  0.31009339349E+03  0.31353258634E+03  0.47000000000E+01 0. -1.
          5    1    5    5  503    0  0.39156230054E+02 -0.36803456418E+02  0.14010024588E+03  0.15012619242E+03  0.47000000000E+01 0. -1.
         -5    1    5    5    0  503 -0.82608495152E+01  0.67985771721E+02  0.41834680973E+03  0.42394156437E+03  0.47000000000E+01 0. -1.
<mgrwt>
<rscale>  0 0.27724745E+03</rscale>
<asrwt>0</asrwt>
<pdfrwt beam="1">  1        1 0.13580734E+00 0.27724745E+03</pdfrwt>
<pdfrwt beam="2">  1       -1 0.33490772E-02 0.27724745E+03</pdfrwt>
<totfact> 0.63082972E+03</totfact>
</mgrwt>
</event>
<event>
 9    1  0.7926126E-001  0.2747392E+03  0.7818608E-02  0.1098597E+00
         -2   -1    0    0    0  501 -0.00000000000E+00  0.00000000000E+00  0.20429073130E+03  0.20429073130E+03  0.00000000000E+00 0. -1.
          2   -1    0    0  501    0  0.00000000000E+00 -0.00000000000E+00 -0.92370367871E+02  0.92370367871E+02  0.00000000000E+00 0. -1.
         35    2    1    2    0    0  0.00000000000E+00  0.00000000000E+00  0.11192036343E+03  0.29666109917E+03  0.27473922183E+03 0.  0.
         25    2    3    3    0    0  0.53658777059E+02  0.19887021902E+02  0.55340950529E+02  0.14846171006E+03  0.12531360881E+03 0.  0.
         25    2    3    3    0    0 -0.53658777059E+02 -0.19887021902E+02  0.56579412897E+02  0.14819938911E+03  0.12444706093E+03 0.  0.
          5    1    4    4  502    0 -0.40566869114E+02  0.11776889727E+02  0.23465603859E+02  0.48549877094E+02  0.47000000000E+01 0.  1.
         -5    1    4    4    0  502  0.94225646173E+02  0.81101321753E+01  0.31875346670E+02  0.99911832963E+02  0.47000000000E+01 0.  1.
          5    1    5    5  503    0 -0.77569157017E+02 -0.39388058822E+02  0.41975672477E+01  0.87224439630E+02  0.47000000000E+01 0. -1.
         -5    1    5    5    0  503  0.23910379958E+02  0.19501036920E+02  0.52381845650E+02  0.60974949482E+02  0.47000000000E+01 0. -1.
<mgrwt>
<rscale>  0 0.27473922E+03</rscale>
<asrwt>0</asrwt>
<pdfrwt beam="1">  1        2 0.14210826E-01 0.27473922E+03</pdfrwt>
<pdfrwt beam="2">  1       -2 0.31429343E-01 0.27473922E+03</pdfrwt>
<totfact> 0.38825990E+03</totfact>
</mgrwt>
</event>
<event>
 9    1  0.7926126E-001  0.2741953E+03  0.7818608E-02  0.1098902E+00
         -1   -1    0    0    0  501 -0.00000000000E+00  0.00000000000E+00  0.73105098255E+02  0.73105098255E+02  0.00000000000E+00 0.  1.
          1   -1    0    0  501    0  0.00000000000E+00 -0.00000000000E+00 -0.25710609026E+03  0.25710609026E+03  0.00000000000E+00 0.  1.
         35    2    1    2    0    0  0.71054273576E-14  0.00000000000E+00 -0.18400099200E+03  0.33021118851E+03  0.27419530259E+03 0.  0.
         25    2    3    3    0    0 -0.23690242466E+02  0.39260065749E+02 -0.12194925368E+03  0.18253803452E+03  0.12785121518E+03 0.  0.
         25    2    3    3    0    0  0.23690242466E+02 -0.39260065749E+02 -0.62051738323E+02  0.14767315399E+03  0.12591410497E+03 0.  0.
          5    1    4    4  502    0 -0.53173922073E+02  0.47510636125E+01 -0.12580438063E+03  0.13674381441E+03  0.47000000000E+01 0.  1.
         -5    1    4    4    0  502  0.29483679606E+02  0.34509002137E+02  0.38551269538E+01  0.45794220110E+02  0.47000000000E+01 0.  1.
          5    1    5    5  503    0  0.68411806328E+02  0.19763451207E+01 -0.51438279778E+02  0.85744199872E+02  0.47000000000E+01 0.  1.
         -5    1    5    5    0  503 -0.44721563862E+02 -0.41236410870E+02 -0.10613458545E+02  0.61928954117E+02  0.47000000000E+01 0.  1.
<mgrwt>
<rscale>  0 0.27419530E+03</rscale>
<asrwt>0</asrwt>
<pdfrwt beam="1">  1        1 0.39554784E-01 0.27419530E+03</pdfrwt>
<pdfrwt beam="2">  1       -1 0.11246938E-01 0.27419530E+03</pdfrwt>
<totfact> 0.53682492E+03</totfact>
</mgrwt>
</event>
<event>
 9    1  0.7926126E-001  0.3219764E+03  0.7818608E-02  0.1074743E+00
          2   -1    0    0  501    0  0.00000000000E+00  0.00000000000E+00  0.18062172882E+03  0.18062172882E+03  0.00000000000E+00 0.  1.
         -2   -1    0    0    0  501 -0.00000000000E+00 -0.00000000000E+00 -0.14348878588E+03  0.14348878588E+03  0.00000000000E+00 0.  1.
         35    2    1    2    0    0  0.00000000000E+00  0.00000000000E+00  0.37132942943E+02  0.32411051470E+03  0.32197635051E+03 0.  0.
         25    2    3    3    0    0  0.98861570170E+02 -0.11732193719E+02  0.70331590139E+00  0.15952628877E+03  0.12464705264E+03 0.  0.
         25    2    3    3    0    0 -0.98861570170E+02  0.11732193719E+02  0.36429627042E+02  0.16458422593E+03  0.12589517573E+03 0.  0.
          5    1    4    4  502    0 -0.15224967896E+02 -0.34684644064E+02  0.17255308920E+02  0.41888660366E+02  0.47000000000E+01 0.  1.
         -5    1    4    4    0  502  0.11408653807E+03  0.22952450345E+02 -0.16551993019E+02  0.11763762841E+03  0.47000000000E+01 0.  1.
          5    1    5    5  503    0 -0.43891330448E+02 -0.79299281056E+01 -0.45489768050E+02  0.63880682882E+02  0.47000000000E+01 0. -1.
         -5    1    5    5    0  503 -0.54970239721E+02  0.19662121824E+02  0.81919395092E+02  0.10070354305E+03  0.47000000000E+01 0. -1.
<mgrwt>
<rscale>  0 0.32197635E+03</rscale>
<asrwt>0</asrwt>
<pdfrwt beam="1">  1        2 0.27787958E-01 0.32197635E+03</pdfrwt>
<pdfrwt beam="2">  1       -2 0.22075198E-01 0.32197635E+03</pdfrwt>
<totfact> 0.33854332E+03</totfact>
</mgrwt>
</event>
<event>
 9    1  0.7926126E-001  0.2766784E+03  0.7818608E-02  0.1097517E+00
         -2   -1    0    0    0  501 -0.00000000000E+00  0.00000000000E+00  0.15451524400E+03  0.15451524400E+03  0.00000000000E+00 0.  1.
          2   -1    0    0  501    0  0.00000000000E+00 -0.00000000000E+00 -0.12385656813E+03  0.12385656813E+03  0.00000000000E+00 0.  1.
         35    2    1    2    0    0  0.71054273576E-14  0.00000000000E+00  0.30658675873E+02  0.27837181212E+03  0.27667835365E+03 0.  0.
         25    2    3    3    0    0  0.14376827195E+02  0.39178511907E+02 -0.23332020497E+02  0.13567211136E+03  0.12696806553E+03 0.  0.
         25    2    3    3    0    0 -0.14376827195E+02 -0.39178511907E+02  0.53990696371E+02  0.14269970076E+03  0.12532581676E+03 0.  0.
          5    1    4    4  502    0  0.33253456542E+02  0.57498672294E+02  0.32260153560E+02  0.73991196742E+02  0.47000000000E+01 0. -1.
         -5    1    4    4    0  502 -0.18876629346E+02 -0.18320160387E+02 -0.55592174057E+02  0.61680914621E+02  0.47000000000E+01 0. -1.
          5    1    5    5  503    0  0.38792862478E+02  0.19038579398E+02  0.46039600004E+02  0.63317362969E+02  0.47000000000E+01 0. -1.
         -5    1    5    5    0  503 -0.53169689674E+02 -0.58217091305E+02  0.79510963664E+01  0.79382337793E+02  0.47000000000E+01 0. -1.
<mgrwt>
<rscale>  0 0.27667835E+03</rscale>
<asrwt>0</asrwt>
<pdfrwt beam="1">  1        2 0.19054857E-01 0.27667835E+03</pdfrwt>
<pdfrwt beam="2">  1       -2 0.23771576E-01 0.27667835E+03</pdfrwt>
<totfact> 0.45384131E+03</totfact>
</mgrwt>
</event>
<event>
 9    1  0.7926126E-001  0.2752087E+03  0.7818608E-02  0.1098335E+00
          2   -1    0    0  501    0  0.00000000000E+00  0.00000000000E+00  0.39458775861E+03  0.39458775861E+03  0.00000000000E+00 0. -1.
         -2   -1    0    0    0  501 -0.00000000000E+00 -0.00000000000E+00 -0.47986685693E+02  0.47986685693E+02  0.00000000000E+00 0. -1.
         35    2    1    2    0    0  0.00000000000E+00  0.17763568394E-14  0.34660107292E+03  0.44257444431E+03  0.27520871171E+03 0.  0.
         25    2    3    3    0    0 -0.38923550645E+02  0.67855187664E+01  0.10576413244E+03  0.16854286003E+03  0.12513815524E+03 0.  0.
         25    2    3    3    0    0  0.38923550645E+02 -0.67855187664E+01  0.24083694048E+03  0.27403158428E+03  0.12461858296E+03 0.  0.
          5    1    4    4  502    0 -0.10472550136E+02 -0.98705101145E+01  0.12774655621E+03  0.12864048313E+03  0.47000000000E+01 0. -1.
         -5    1    4    4    0  502 -0.28451000510E+02  0.16656028881E+02 -0.21982423767E+02  0.39902376906E+02  0.47000000000E+01 0. -1.
          5    1    5    5  503    0  0.65812132901E+01 -0.60368558582E+02  0.74386393651E+02  0.96141046354E+02  0.47000000000E+01 0.  1.
         -5    1    5    5    0  503  0.32342337355E+02  0.53583039815E+02  0.16645054683E+03  0.17789053792E+03  0.47000000000E+01 0.  1.
<mgrwt>
<rscale>  0 0.27520871E+03</rscale>
<asrwt>0</asrwt>
<pdfrwt beam="1">  1        2 0.60705807E-01 0.27520871E+03</pdfrwt>
<pdfrwt beam="2">  1       -2 0.73825673E-02 0.27520871E+03</pdfrwt>
<totfact> 0.86328364E+03</totfact>
</mgrwt>
</event>
<event>
 9    1  0.7926126E-001  0.2787980E+03  0.7818608E-02  0.1096347E+00
         -2   -1    0    0    0  501 -0.00000000000E+00  0.00000000000E+00  0.11876479423E+03  0.11876479423E+03  0.00000000000E+00 0. -1.
          2   -1    0    0  501    0  0.00000000000E+00 -0.00000000000E+00 -0.16361816980E+03  0.16361816980E+03  0.00000000000E+00 0. -1.
         35    2    1    2    0    0 -0.71054273576E-14  0.00000000000E+00 -0.44853375572E+02  0.28238296403E+03  0.27879797897E+03 0.  0.
         25    2    3    3    0    0  0.55184888836E+02  0.23860073267E+02 -0.11222645567E+02  0.13989241818E+03  0.12581441030E+03 0.  0.
         25    2    3    3    0    0 -0.55184888836E+02 -0.23860073267E+02 -0.33630730006E+02  0.14249054586E+03  0.12473112926E+03 0.  0.
          5    1    4    4  502    0 -0.24332595847E+02  0.45236732757E+02  0.14358517268E+02  0.53541518743E+02  0.47000000000E+01 0. -1.
         -5    1    4    4    0  502  0.79517484683E+02 -0.21376659489E+02 -0.25581162835E+02  0.86350899435E+02  0.47000000000E+01 0. -1.
          5    1    5    5  503    0 -0.24993527411E+02 -0.37545357169E+02 -0.75993377961E+02  0.88495275305E+02  0.47000000000E+01 0.  1.
         -5    1    5    5    0  503 -0.30191361424E+02  0.13685283901E+02  0.42362647955E+02  0.53995270551E+02  0.47000000000E+01 0.  1.
<mgrwt>
<rscale>  0 0.27879798E+03</rscale>
<asrwt>0</asrwt>
<pdfrwt beam="1">  1        2 0.25172026E-01 0.27879798E+03</pdfrwt>
<pdfrwt beam="2">  1       -2 0.18271507E-01 0.27879798E+03</pdfrwt>
<totfact> 0.52066298E+03</totfact>
</mgrwt>
</event>
<event>
 9    1  0.7926126E-001  0.2698928E+03  0.7818608E-02  0.1101341E+00
         -2   -1    0    0    0  501 -0.00000000000E+00  0.00000000000E+00  0.59604547685E+02  0.59604547685E+02  0.00000000000E+00 0. -1.
          2   -1    0    0  501    0  0.00000000000E+00 -0.00000000000E+00 -0.30552257650E+03  0.30552257650E+03  0.00000000000E+00 0. -1.
         35    2    1    2    0    0  0.00000000000E+00  0.00000000000E+00 -0.24591802882E+03  0.36512712419E+03  0.26989283044E+03 0.  0.
         25    2    3    3    0    0  0.46810968696E+02 -0.20370692922E+02 -0.11223045417E+03  0.17493397733E+03  0.12409669480E+03 0.  0.
         25    2    3    3    0    0 -0.46810968696E+02  0.20370692922E+02 -0.13368757465E+03  0.19019314686E+03  0.12527902289E+03 0.  0.
          5    1    4    4  502    0 -0.64279714281E+01  0.45799124608E+02 -0.23758128178E+02  0.52205529267E+02  0.47000000000E+01 0. -1.
         -5    1    4    4    0  502  0.53238940124E+02 -0.66169817530E+02 -0.88472325997E+02  0.12272844807E+03  0.47000000000E+01 0. -1.
          5    1    5    5  503    0 -0.66477294467E+02  0.25963153976E+02 -0.19553250901E+02  0.74146717155E+02  0.47000000000E+01 0. -1.
         -5    1    5    5    0  503  0.19666325771E+02 -0.55924610536E+01 -0.11413432374E+03  0.11604642970E+03  0.47000000000E+01 0. -1.
<mgrwt>
<rscale>  0 0.26989283E+03</rscale>
<asrwt>0</asrwt>
<pdfrwt beam="1">  1        2 0.47003475E-01 0.26989283E+03</pdfrwt>
<pdfrwt beam="2">  1       -2 0.91699302E-02 0.26989283E+03</pdfrwt>
<totfact> 0.80970218E+03</totfact>
</mgrwt>
</event>
<event>
 9    1  0.7926126E-001  0.2738832E+03  0.7818608E-02  0.1099077E+00
         -2   -1    0    0    0  501 -0.00000000000E+00  0.00000000000E+00  0.29731964859E+03  0.29731964859E+03  0.00000000000E+00 0. -1.
          2   -1    0    0  501    0  0.00000000000E+00 -0.00000000000E+00 -0.63073537919E+02  0.63073537919E+02  0.00000000000E+00 0. -1.
         35    2    1    2    0    0  0.00000000000E+00  0.00000000000E+00  0.23424611067E+03  0.36039318651E+03  0.27388320233E+03 0.  0.
         25    2    3    3    0    0 -0.61814033010E+02 -0.25154265996E+02  0.13165578142E+03  0.19443783516E+03  0.12656664326E+03 0.  0.
         25    2    3    3    0    0  0.61814033010E+02  0.25154265996E+02  0.10259032924E+03  0.16595535134E+03  0.11208341184E+03 0.  0.
          5    1    4    4  502    0 -0.44528457508E+02 -0.16356769205E+02  0.15590637579E+03  0.16303133269E+03  0.47000000000E+01 0.  1.
         -5    1    4    4    0  502 -0.17285575502E+02 -0.87974967911E+01 -0.24250594368E+02  0.31406502470E+02  0.47000000000E+01 0.  1.
          5    1    5    5  503    0  0.72435338520E+02 -0.26058844132E+02  0.51846628337E+02  0.92930643460E+02  0.47000000000E+01 0.  1.
         -5    1    5    5    0  503 -0.10621305510E+02  0.51213110127E+02  0.50743700908E+02  0.73024707883E+02  0.47000000000E+01 0.  1.
<mgrwt>
<rscale>  0 0.27388320E+03</rscale>
<asrwt>0</asrwt>
<pdfrwt beam="1">  1        2 0.97036214E-02 0.27388320E+03</pdfrwt>
<pdfrwt beam="2">  1       -2 0.45741484E-01 0.27388320E+03</pdfrwt>
<totfact> 0.30395557E+03</totfact>
</mgrwt>
</event>
<event>
 9    1  0.7926126E-001  0.2744768E+03  0.7818608E-02  0.1098744E+00
         -2   -1    0    0    0  501 -0.00000000000E+00  0.00000000000E+00  0.25965358326E+02  0.25965358326E+02  0.00000000000E+00 0. -1.
          2   -1    0    0  501    0  0.00000000000E+00 -0.00000000000E+00 -0.72536588370E+03  0.72536588370E+03  0.00000000000E+00 0. -1.
         35    2    1    2    0    0  0.35527136788E-14 -0.35527136788E-14 -0.69940052538E+03  0.75133124203E+03  0.27447684848E+03 0.  0.
         25    2    3    3    0    0  0.25150607167E+02 -0.20974034002E+02 -0.44925777489E+03  0.46761486752E+03  0.12553347318E+03 0.  0.
         25    2    3    3    0    0 -0.25150607167E+02  0.20974034002E+02 -0.25014275049E+03  0.28371637451E+03  0.12981187310E+03 0.  0.
          5    1    4    4  502    0 -0.49600890044E+02 -0.17006318977E+02 -0.14541286748E+03  0.15464945912E+03  0.47000000000E+01 0.  1.
         -5    1    4    4    0  502  0.74751497212E+02 -0.39677150246E+01 -0.30384490741E+03  0.31296540840E+03  0.47000000000E+01 0.  1.
          5    1    5    5  503    0 -0.23696750492E+02  0.18933966035E+02 -0.26559980098E+03  0.26736749117E+03  0.47000000000E+01 0.  1.
         -5    1    5    5    0  503 -0.14538566751E+01  0.20400679662E+01  0.15457050489E+02  0.16348883337E+02  0.47000000000E+01 0.  1.
<mgrwt>
<rscale>  0 0.27447685E+03</rscale>
<asrwt>0</asrwt>
<pdfrwt beam="1">  1        2 0.11159474E+00 0.27447685E+03</pdfrwt>
<pdfrwt beam="2">  1       -2 0.39946711E-02 0.27447685E+03</pdfrwt>
<totfact> 0.11011058E+04</totfact>
</mgrwt>
</event>
<event>
 9    1  0.7926126E-001  0.2668008E+03  0.7818608E-02  0.1103125E+00
         -3   -1    0    0    0  501 -0.00000000000E+00  0.00000000000E+00  0.29395487558E+02  0.29395487558E+02  0.00000000000E+00 0.  1.
          3   -1    0    0  501    0  0.00000000000E+00 -0.00000000000E+00 -0.60538764100E+03  0.60538764100E+03  0.00000000000E+00 0.  1.
         35    2    1    2    0    0 -0.71054273576E-14  0.71054273576E-14 -0.57599215345E+03  0.63478312856E+03  0.26680078612E+03 0.  0.
         25    2    3    3    0    0  0.21260550565E+02 -0.40853138352E+02 -0.27633354797E+03  0.30698550671E+03  0.12553438442E+03 0.  0.
         25    2    3    3    0    0 -0.21260550565E+02  0.40853138352E+02 -0.29965860547E+03  0.32779762185E+03  0.12463952476E+03 0.  0.
          5    1    4    4  502    0 -0.43059747886E+02  0.17401747258E+02 -0.90229099697E+02  0.10158908961E+03  0.47000000000E+01 0. -1.
         -5    1    4    4    0  502  0.64320298450E+02 -0.58254885610E+02 -0.18610444828E+03  0.20539641710E+03  0.47000000000E+01 0. -1.
          5    1    5    5  503    0  0.28979789988E+02  0.68155813318E+01 -0.24228610008E+03  0.24415348588E+03  0.47000000000E+01 0.  1.
         -5    1    5    5    0  503 -0.50240340552E+02  0.34037557020E+02 -0.57372505394E+02  0.83644135968E+02  0.47000000000E+01 0.  1.
<mgrwt>
<rscale>  0 0.26680079E+03</rscale>
<asrwt>0</asrwt>
<pdfrwt beam="1">  1        3 0.93136564E-01 0.26680079E+03</pdfrwt>
<pdfrwt beam="2">  1       -3 0.45223825E-02 0.26680079E+03</pdfrwt>
<totfact> 0.72127444E+02</totfact>
</mgrwt>
</event>
<event>
 9    1  0.7926126E-001  0.2781038E+03  0.7818608E-02  0.1096729E+00
         -2   -1    0    0    0  501 -0.00000000000E+00  0.00000000000E+00  0.89494659153E+02  0.89494659153E+02  0.00000000000E+00 0.  1.
          2   -1    0    0  501    0  0.00000000000E+00 -0.00000000000E+00 -0.21605127607E+03  0.21605127607E+03  0.00000000000E+00 0.  1.
         35    2    1    2    0    0  0.00000000000E+00 -0.17763568394E-14 -0.12655661692E+03  0.30554593522E+03  0.27810383177E+03 0.  0.
         25    2    3    3    0    0 -0.40905804526E+02 -0.56666907100E+01 -0.12746452325E+02  0.13170378198E+03  0.12441068248E+03 0.  0.
         25    2    3    3    0    0  0.40905804526E+02  0.56666907100E+01 -0.11381016459E+03  0.17384215324E+03  0.12475153086E+03 0.  0.
          5    1    4    4  502    0 -0.58240987435E+02 -0.19589072537E+02 -0.55726345085E+02  0.83085858705E+02  0.47000000000E+01 0.  1.
         -5    1    4    4    0  502  0.17335182909E+02  0.13922381827E+02  0.42979892760E+02  0.48617923278E+02  0.47000000000E+01 0.  1.
          5    1    5    5  503    0  0.74847766939E+02  0.14641450907E+02 -0.28643972659E+02  0.81603477071E+02  0.47000000000E+01 0.  1.
         -5    1    5    5    0  503 -0.33941962413E+02 -0.89747601973E+01 -0.85166191934E+02  0.92238676170E+02  0.47000000000E+01 0.  1.
<mgrwt>
<rscale>  0 0.27810383E+03</rscale>
<asrwt>0</asrwt>
<pdfrwt beam="1">  1        2 0.33238658E-01 0.27810383E+03</pdfrwt>
<pdfrwt beam="2">  1       -2 0.13768409E-01 0.27810383E+03</pdfrwt>
<totfact> 0.61356046E+03</totfact>
</mgrwt>
</event>
<event>
 9    1  0.7926126E-001  0.2761784E+03  0.7818608E-02  0.1097795E+00
          2   -1    0    0  501    0  0.00000000000E+00  0.00000000000E+00  0.20820561897E+03  0.20820561897E+03  0.00000000000E+00 0.  1.
         -2   -1    0    0    0  501 -0.00000000000E+00 -0.00000000000E+00 -0.91585536216E+02  0.91585536216E+02  0.00000000000E+00 0.  1.
         35    2    1    2    0    0  0.00000000000E+00 -0.71054273576E-14  0.11662008275E+03  0.29979115519E+03  0.27617837176E+03 0.  0.
         25    2    3    3    0    0 -0.32780513716E+02 -0.34100751211E+02  0.22176688727E+02  0.13591337552E+03  0.12547197619E+03 0.  0.
         25    2    3    3    0    0  0.32780513716E+02  0.34100751211E+02  0.94443394028E+02  0.16387777967E+03  0.12529544557E+03 0.  0.
          5    1    4    4  502    0 -0.49546139604E+02 -0.10675620498E+01  0.63193179473E+02  0.80445183637E+02  0.47000000000E+01 0. -1.
         -5    1    4    4    0  502  0.16765625888E+02 -0.33033189162E+02 -0.41016490746E+02  0.55468191883E+02  0.47000000000E+01 0. -1.
          5    1    5    5  503    0  0.89490188397E+01 -0.41577669578E+02  0.32546915864E+01  0.42912359095E+02  0.47000000000E+01 0. -1.
         -5    1    5    5    0  503  0.23831494876E+02  0.75678420790E+02  0.91188702441E+02  0.12096542057E+03  0.47000000000E+01 0. -1.
<mgrwt>
<rscale>  0 0.27617837E+03</rscale>
<asrwt>0</asrwt>
<pdfrwt beam="1">  1        2 0.32031634E-01 0.27617837E+03</pdfrwt>
<pdfrwt beam="2">  1       -2 0.14090083E-01 0.27617837E+03</pdfrwt>
<totfact> 0.61493410E+03</totfact>
</mgrwt>
</event>
<event>
 9    1  0.7926126E-001  0.2753952E+03  0.7818608E-02  0.1098231E+00
         -2   -1    0    0    0  501 -0.00000000000E+00  0.00000000000E+00  0.20539216333E+02  0.20539216333E+02  0.00000000000E+00 0. -1.
          2   -1    0    0  501    0  0.00000000000E+00 -0.00000000000E+00 -0.92314293648E+03  0.92314293648E+03  0.00000000000E+00 0. -1.
         35    2    1    2    0    0  0.00000000000E+00 -0.71054273576E-14 -0.90260372015E+03  0.94368215282E+03  0.27539522493E+03 0.  0.
         25    2    3    3    0    0 -0.46184305848E+02 -0.36365091662E+02 -0.46094520336E+03  0.48116825049E+03  0.12488792890E+03 0.  0.
         25    2    3    3    0    0  0.46184305848E+02  0.36365091662E+02 -0.44165851679E+03  0.46251390233E+03  0.12410259622E+03 0.  0.
          5    1    4    4  502    0  0.23463038318E+02 -0.58333763111E+02 -0.17517370113E+03  0.18617534115E+03  0.47000000000E+01 0. -1.
         -5    1    4    4    0  502 -0.69647344166E+02  0.21968671449E+02 -0.28577150223E+03  0.29499290934E+03  0.47000000000E+01 0. -1.
          5    1    5    5  503    0 -0.12751436302E+02 -0.20692588356E+02 -0.28076684802E+03  0.28185616064E+03  0.47000000000E+01 0.  1.
         -5    1    5    5    0  503  0.58935742150E+02  0.57057680018E+02 -0.16089166877E+03  0.18065774169E+03  0.47000000000E+01 0.  1.
<mgrwt>
<rscale>  0 0.27539522E+03</rscale>
<asrwt>0</asrwt>
<pdfrwt beam="1">  1        2 0.14202198E+00 0.27539522E+03</pdfrwt>
<pdfrwt beam="2">  1       -2 0.31598797E-02 0.27539522E+03</pdfrwt>
<totfact> 0.11470501E+04</totfact>
</mgrwt>
</event>
<event>
 9    1  0.7926126E-001  0.2728910E+03  0.7818608E-02  0.1099636E+00
         -1   -1    0    0    0  501 -0.00000000000E+00  0.00000000000E+00  0.12960891246E+02  0.12960891246E+02  0.00000000000E+00 0.  1.
          1   -1    0    0  501    0  0.00000000000E+00 -0.00000000000E+00 -0.14364273218E+04  0.14364273218E+04  0.00000000000E+00 0.  1.
         35    2    1    2    0    0  0.00000000000E+00  0.00000000000E+00 -0.14234664305E+04  0.14493882130E+04  0.27289102806E+03 0.  0.
         25    2    3    3    0    0 -0.31061806180E+02 -0.43815609103E+02 -0.63436661156E+03  0.64871278620E+03  0.12458987804E+03 0.  0.
         25    2    3    3    0    0  0.31061806180E+02  0.43815609103E+02 -0.78909981896E+03  0.80067542682E+03  0.12457115002E+03 0.  0.
          5    1    4    4  502    0 -0.87611383410E+01 -0.69616954837E+02 -0.58077316426E+03  0.58501524448E+03  0.47000000000E+01 0. -1.
         -5    1    4    4    0  502 -0.22300667839E+02  0.25801345734E+02 -0.53593447298E+02  0.63697541719E+02  0.47000000000E+01 0. -1.
          5    1    5    5  503    0  0.73885590033E+02  0.25453083162E+01 -0.36918498608E+03  0.37654375968E+03  0.47000000000E+01 0. -1.
         -5    1    5    5    0  503 -0.42823783854E+02  0.41270300787E+02 -0.41991483289E+03  0.42413166714E+03  0.47000000000E+01 0. -1.
<mgrwt>
<rscale>  0 0.27289103E+03</rscale>
<asrwt>0</asrwt>
<pdfrwt beam="1">  1        1 0.22098888E+00 0.27289103E+03</pdfrwt>
<pdfrwt beam="2">  1       -1 0.19939828E-02 0.27289103E+03</pdfrwt>
<totfact> 0.54329849E+03</totfact>
</mgrwt>
</event>
<event>
 9    1  0.7926126E-001  0.2734080E+03  0.7818608E-02  0.1099345E+00
          2   -1    0    0  501    0  0.00000000000E+00  0.00000000000E+00  0.95038870709E+02  0.95038870709E+02  0.00000000000E+00 0.  1.
         -2   -1    0    0    0  501 -0.00000000000E+00 -0.00000000000E+00 -0.19663520249E+03  0.19663520249E+03  0.00000000000E+00 0.  1.
         35    2    1    2    0    0  0.00000000000E+00 -0.35527136788E-14 -0.10159633178E+03  0.29167407320E+03  0.27340802904E+03 0.  0.
         25    2    3    3    0    0 -0.52188438340E+02  0.20477757610E+02 -0.51504621589E+02  0.14614449111E+03  0.12474980795E+03 0.  0.
         25    2    3    3    0    0  0.52188438340E+02 -0.20477757610E+02 -0.50091710191E+02  0.14552958209E+03  0.12460621245E+03 0.  0.
          5    1    4    4  502    0 -0.36226365216E+02  0.16885441778E+02 -0.92977855022E+02  0.10131356871E+03  0.47000000000E+01 0. -1.
         -5    1    4    4    0  502 -0.15962073124E+02  0.35923158322E+01  0.41473233433E+02  0.44830922395E+02  0.47000000000E+01 0. -1.
          5    1    5    5  503    0  0.50002582707E+02  0.37788249945E+02 -0.59184037894E+02  0.86331051498E+02  0.47000000000E+01 0. -1.
         -5    1    5    5    0  503  0.21858556335E+01 -0.58266007555E+02  0.90923277035E+01  0.59198530593E+02  0.47000000000E+01 0. -1.
<mgrwt>
<rscale>  0 0.27340803E+03</rscale>
<asrwt>0</asrwt>
<pdfrwt beam="1">  1        2 0.14621365E-01 0.27340803E+03</pdfrwt>
<pdfrwt beam="2">  1       -2 0.30251570E-01 0.27340803E+03</pdfrwt>
<totfact> 0.40233115E+03</totfact>
</mgrwt>
</event>
<event>
 9    1  0.7926126E-001  0.2741205E+03  0.7818608E-02  0.1098944E+00
         -2   -1    0    0    0  501 -0.00000000000E+00  0.00000000000E+00  0.17150532448E+02  0.17150532448E+02  0.00000000000E+00 0. -1.
          2   -1    0    0  501    0  0.00000000000E+00 -0.00000000000E+00 -0.10953307818E+04  0.10953307818E+04  0.00000000000E+00 0. -1.
         35    2    1    2    0    0  0.35527136788E-14 -0.35527136788E-14 -0.10781802494E+04  0.11124813143E+04  0.27412045611E+03 0.  0.
         25    2    3    3    0    0 -0.90044041208E+01 -0.30914178903E+02 -0.35407382872E+03  0.37699483693E+03  0.12537968389E+03 0.  0.
         25    2    3    3    0    0  0.90044041208E+01  0.30914178903E+02 -0.72410642066E+03  0.73548647735E+03  0.12479376656E+03 0.  0.
          5    1    4    4  502    0 -0.38561585011E+02  0.51329309759E+01 -0.29476435808E+02  0.49033591413E+02  0.47000000000E+01 0. -1.
         -5    1    4    4    0  502  0.29557180890E+02 -0.36047109878E+02 -0.32459739292E+03  0.32796124552E+03  0.47000000000E+01 0. -1.
          5    1    5    5  503    0  0.56704288749E+02  0.51088341662E+02 -0.45928407260E+03  0.46560642646E+03  0.47000000000E+01 0.  1.
         -5    1    5    5    0  503 -0.47699884628E+02 -0.20174162759E+02 -0.26482234805E+03  0.26988005088E+03  0.47000000000E+01 0.  1.
<mgrwt>
<rscale>  0 0.27412046E+03</rscale>
<asrwt>0</asrwt>
<pdfrwt beam="1">  1        2 0.16851246E+00 0.27412046E+03</pdfrwt>
<pdfrwt beam="2">  1       -2 0.26385429E-02 0.27412046E+03</pdfrwt>
<totfact> 0.11768595E+04</totfact>
</mgrwt>
</event>
<event>
 9    1  0.7926126E-001  0.2735685E+03  0.7818608E-02  0.1099254E+00
          1   -1    0    0  501    0  0.00000000000E+00  0.00000000000E+00  0.45929297220E+03  0.45929297220E+03  0.00000000000E+00 0. -1.
         -1   -1    0    0    0  501 -0.00000000000E+00 -0.00000000000E+00 -0.40736382280E+02  0.40736382280E+02  0.00000000000E+00 0. -1.
         35    2    1    2    0    0 -0.10658141036E-13  0.17763568394E-14  0.41855658992E+03  0.50002935448E+03  0.27356852227E+03 0.  0.
         25    2    3    3    0    0 -0.13186161635E+02  0.28146495191E+01  0.11188474296E+03  0.16849290153E+03  0.12525919147E+03 0.  0.
         25    2    3    3    0    0  0.13186161635E+02 -0.28146495191E+01  0.30667184696E+03  0.33153645295E+03  0.12524775768E+03 0.  0.
          5    1    4    4  502    0 -0.37428229792E+02  0.42763997085E+02  0.10703585919E+03  0.12127818017E+03  0.47000000000E+01 0.  1.
         -5    1    4    4    0  502  0.24242068157E+02 -0.39949347566E+02  0.48488837661E+01  0.47214721362E+02  0.47000000000E+01 0.  1.
          5    1    5    5  503    0  0.65850242703E+02  0.15364827961E+02  0.13628266438E+03  0.15220836709E+03  0.47000000000E+01 0. -1.
         -5    1    5    5    0  503 -0.52664081069E+02 -0.18179477480E+02  0.17038918258E+03  0.17932808586E+03  0.47000000000E+01 0. -1.
<mgrwt>
<rscale>  0 0.27356852E+03</rscale>
<asrwt>0</asrwt>
<pdfrwt beam="1">  1        1 0.70660454E-01 0.27356852E+03</pdfrwt>
<pdfrwt beam="2">  1       -1 0.62671360E-02 0.27356852E+03</pdfrwt>
<totfact> 0.62890944E+03</totfact>
</mgrwt>
</event>
<event>
 9    1  0.7926126E-001  0.2760286E+03  0.7818608E-02  0.1097878E+00
          1   -1    0    0  501    0  0.00000000000E+00  0.00000000000E+00  0.16552519777E+04  0.16552519777E+04  0.00000000000E+00 0. -1.
         -1   -1    0    0    0  501 -0.00000000000E+00 -0.00000000000E+00 -0.11507584135E+02  0.11507584135E+02  0.00000000000E+00 0. -1.
         35    2    1    2    0    0  0.00000000000E+00  0.00000000000E+00  0.16437443936E+04  0.16667595619E+04  0.27602863183E+03 0.  0.
         25    2    3    3    0    0 -0.32185176212E+02 -0.15471130722E+02  0.51644325303E+03  0.53196441378E+03  0.12246331073E+03 0.  0.
         25    2    3    3    0    0  0.32185176212E+02  0.15471130722E+02  0.11273011406E+04  0.11347951481E+04  0.12520752830E+03 0.  0.
          5    1    4    4  502    0 -0.33618260119E+02 -0.62999026304E+02  0.39554831436E+03  0.40196968010E+03  0.47000000000E+01 0. -1.
         -5    1    4    4    0  502  0.14330839070E+01  0.47527895582E+02  0.12089493867E+03  0.12999473368E+03  0.47000000000E+01 0. -1.
          5    1    5    5  503    0 -0.57211747836E+01 -0.51913458764E+02  0.41755588268E+03  0.42083576868E+03  0.47000000000E+01 0.  1.
         -5    1    5    5    0  503  0.37906350996E+02  0.67384589486E+02  0.70974525790E+03  0.71395937942E+03  0.47000000000E+01 0.  1.
<mgrwt>
<rscale>  0 0.27602863E+03</rscale>
<asrwt>0</asrwt>
<pdfrwt beam="1">  1        1 0.25465396E+00 0.27602863E+03</pdfrwt>
<pdfrwt beam="2">  1       -1 0.17703989E-02 0.27602863E+03</pdfrwt>
<totfact> 0.46348954E+03</totfact>
</mgrwt>
</event>
<event>
 9    1  0.7926126E-001  0.2757616E+03  0.7818608E-02  0.1098027E+00
          2   -1    0    0  501    0  0.00000000000E+00  0.00000000000E+00  0.47215014830E+03  0.47215014830E+03  0.00000000000E+00 0. -1.
         -2   -1    0    0    0  501 -0.00000000000E+00 -0.00000000000E+00 -0.40264965978E+02  0.40264965978E+02  0.00000000000E+00 0. -1.
         35    2    1    2    0    0  0.17763568394E-14  0.00000000000E+00  0.43188518233E+03  0.51241511428E+03  0.27576156119E+03 0.  0.
         25    2    3    3    0    0 -0.61820615188E+01  0.10856162945E+02  0.31723532017E+03  0.34245919667E+03  0.12838994844E+03 0.  0.
         25    2    3    3    0    0  0.61820615188E+01 -0.10856162945E+02  0.11464986216E+03  0.16995591762E+03  0.12483728963E+03 0.  0.
          5    1    4    4  502    0 -0.47036052068E+02  0.22016754374E+02  0.28309693725E+03  0.28785950314E+03  0.47000000000E+01 0.  1.
         -5    1    4    4    0  502  0.40853990549E+02 -0.11160591429E+02  0.34138382911E+02  0.54599693522E+02  0.47000000000E+01 0.  1.
          5    1    5    5  503    0 -0.72750164984E+01 -0.47673989428E+01  0.13994264895E+03  0.14029144291E+03  0.47000000000E+01 0. -1.
         -5    1    5    5    0  503  0.13457078017E+02 -0.60887640024E+01 -0.25292786793E+02  0.29664474707E+02  0.47000000000E+01 0. -1.
<mgrwt>
<rscale>  0 0.27576156E+03</rscale>
<asrwt>0</asrwt>
<pdfrwt beam="1">  1        2 0.72638480E-01 0.27576156E+03</pdfrwt>
<pdfrwt beam="2">  1       -2 0.61946105E-02 0.27576156E+03</pdfrwt>
<totfact> 0.93006750E+03</totfact>
</mgrwt>
</event>
<event>
 9    1  0.7926126E-001  0.2678234E+03  0.7818608E-02  0.1102532E+00
         -2   -1    0    0    0  501 -0.00000000000E+00  0.00000000000E+00  0.79706331261E+02  0.79706331261E+02  0.00000000000E+00 0. -1.
          2   -1    0    0  501    0  0.00000000000E+00 -0.00000000000E+00 -0.22498022288E+03  0.22498022288E+03  0.00000000000E+00 0. -1.
         35    2    1    2    0    0  0.00000000000E+00  0.00000000000E+00 -0.14527389162E+03  0.30468655414E+03  0.26782343566E+03 0.  0.
         25    2    3    3    0    0  0.24851985426E+02  0.39985523782E+02 -0.66222300504E+02  0.14935028567E+03  0.12531421091E+03 0.  0.
         25    2    3    3    0    0 -0.24851985426E+02 -0.39985523782E+02 -0.79051591119E+02  0.15533626847E+03  0.12515485988E+03 0.  0.
          5    1    4    4  502    0 -0.47901424452E+02  0.60958116174E+01 -0.59710055543E+01  0.48881983298E+02  0.47000000000E+01 0.  1.
         -5    1    4    4    0  502  0.72753409877E+02  0.33889712165E+02 -0.60251294950E+02  0.10046830238E+03  0.47000000000E+01 0.  1.
          5    1    5    5  503    0 -0.29680624972E+02  0.34051358884E+02  0.18644474539E+01  0.45453280464E+02  0.47000000000E+01 0. -1.
         -5    1    5    5    0  503  0.48286395465E+01 -0.74036882666E+02 -0.80916038573E+02  0.10988298801E+03  0.47000000000E+01 0. -1.
<mgrwt>
<rscale>  0 0.26782344E+03</rscale>
<asrwt>0</asrwt>
<pdfrwt beam="1">  1        2 0.34612342E-01 0.26782344E+03</pdfrwt>
<pdfrwt beam="2">  1       -2 0.12262513E-01 0.26782344E+03</pdfrwt>
<totfact> 0.70790099E+03</totfact>
</mgrwt>
</event>
<event>
 9    1  0.7926126E-001  0.2743959E+03  0.7818608E-02  0.1098790E+00
         -2   -1    0    0    0  501 -0.00000000000E+00  0.00000000000E+00  0.62770816963E+02  0.62770816963E+02  0.00000000000E+00 0.  1.
          2   -1    0    0  501    0  0.00000000000E+00 -0.00000000000E+00 -0.29987302765E+03  0.29987302765E+03  0.00000000000E+00 0.  1.
         35    2    1    2    0    0  0.00000000000E+00 -0.35527136788E-14 -0.23710221069E+03  0.36264384462E+03  0.27439588139E+03 0.  0.
         25    2    3    3    0    0  0.51195068194E+02 -0.19189290275E+02 -0.90797238966E+02  0.16322089184E+03  0.12412798661E+03 0.  0.
         25    2    3    3    0    0 -0.51195068194E+02  0.19189290275E+02 -0.14630497172E+03  0.19942295277E+03  0.12399679622E+03 0.  0.
          5    1    4    4  502    0 -0.25064822952E+01 -0.27463472946E+02  0.23527690585E+02  0.36553618480E+02  0.47000000000E+01 0.  1.
         -5    1    4    4    0  502  0.53701550489E+02  0.82741826705E+01 -0.11432492955E+03  0.12666727336E+03  0.47000000000E+01 0.  1.
          5    1    5    5  503    0 -0.66899220648E+02 -0.36254929223E+02 -0.68517299359E+02  0.10250188256E+03  0.47000000000E+01 0. -1.
         -5    1    5    5    0  503  0.15704152454E+02  0.55444219498E+02 -0.77787672365E+02  0.96921070217E+02  0.47000000000E+01 0. -1.
<mgrwt>
<rscale>  0 0.27439588E+03</rscale>
<asrwt>0</asrwt>
<pdfrwt beam="1">  1        2 0.46134312E-01 0.27439588E+03</pdfrwt>
<pdfrwt beam="2">  1       -2 0.96570487E-02 0.27439588E+03</pdfrwt>
<totfact> 0.76168369E+03</totfact>
</mgrwt>
</event>
<event>
 9    1  0.7926126E-001  0.2696407E+03  0.7818608E-02  0.1101485E+00
          2   -1    0    0  501    0  0.00000000000E+00  0.00000000000E+00  0.12338029791E+04  0.12338029791E+04  0.00000000000E+00 0.  1.
         -2   -1    0    0    0  501 -0.00000000000E+00 -0.00000000000E+00 -0.14732116039E+02  0.14732116039E+02  0.00000000000E+00 0.  1.
         35    2    1    2    0    0  0.00000000000E+00  0.00000000000E+00  0.12190708631E+04  0.12485350952E+04  0.26964071397E+03 0.  0.
         25    2    3    3    0    0  0.19896140719E+02 -0.42822255763E+02  0.65052022174E+03  0.66463076375E+03  0.12778063714E+03 0.  0.
         25    2    3    3    0    0 -0.19896140719E+02  0.42822255763E+02  0.56855064134E+03  0.58390433140E+03  0.12435768759E+03 0.  0.
          5    1    4    4  502    0  0.12324397433E+02  0.13871471330E+02  0.53781201131E+03  0.53815254157E+03  0.47000000000E+01 0. -1.
         -5    1    4    4    0  502  0.75717432865E+01 -0.56693727093E+02  0.11270821043E+03  0.12647822219E+03  0.47000000000E+01 0. -1.
          5    1    5    5  503    0 -0.45220946595E+02 -0.20043434826E+02  0.11473376848E+03  0.12503039998E+03  0.47000000000E+01 0.  1.
         -5    1    5    5    0  503  0.25324805876E+02  0.62865690589E+02  0.45381687286E+03  0.45887393142E+03  0.47000000000E+01 0.  1.
<mgrwt>
<rscale>  0 0.26964071E+03</rscale>
<asrwt>0</asrwt>
<pdfrwt beam="1">  1        2 0.18981576E+00 0.26964071E+03</pdfrwt>
<pdfrwt beam="2">  1       -2 0.22664804E-02 0.26964071E+03</pdfrwt>
<totfact> 0.12261877E+04</totfact>
</mgrwt>
</event>
<event>
 9    1  0.7926126E-001  0.2777434E+03  0.7818608E-02  0.1096928E+00
         -1   -1    0    0    0  501 -0.00000000000E+00  0.00000000000E+00  0.18522828313E+03  0.18522828313E+03  0.00000000000E+00 0. -1.
          1   -1    0    0  501    0  0.00000000000E+00 -0.00000000000E+00 -0.10411666633E+03  0.10411666633E+03  0.00000000000E+00 0. -1.
         35    2    1    2    0    0  0.17763568394E-14  0.71054273576E-14  0.81111616793E+02  0.28934494946E+03  0.27774341648E+03 0.  0.
         25    2    3    3    0    0  0.11063994846E+02  0.54895042880E+02  0.27867351204E+02  0.14017901355E+03  0.12544994565E+03 0.  0.
         25    2    3    3    0    0 -0.11063994846E+02 -0.54895042880E+02  0.53244265589E+02  0.14916593591E+03  0.12759171957E+03 0.  0.
          5    1    4    4  502    0  0.19168240553E+02  0.78503275288E+02  0.58877965254E+02  0.10009440778E+03  0.47000000000E+01 0.  1.
         -5    1    4    4    0  502 -0.81042457072E+01 -0.23608232408E+02 -0.31010614049E+02  0.40084605769E+02  0.47000000000E+01 0.  1.
          5    1    5    5  503    0  0.91791551071E+01  0.21676480426E+02  0.64692795933E+02  0.69002713988E+02  0.47000000000E+01 0. -1.
         -5    1    5    5    0  503 -0.20243149953E+02 -0.76571523307E+02 -0.11448530344E+02  0.80163221920E+02  0.47000000000E+01 0. -1.
<mgrwt>
<rscale>  0 0.27774342E+03</rscale>
<asrwt>0</asrwt>
<pdfrwt beam="1">  1        1 0.16017949E-01 0.27774342E+03</pdfrwt>
<pdfrwt beam="2">  1       -1 0.28496659E-01 0.27774342E+03</pdfrwt>
<totfact> 0.37925849E+03</totfact>
</mgrwt>
</event>
<event>
 9    1  0.7926126E-001  0.2761746E+03  0.7818608E-02  0.1097797E+00
          1   -1    0    0  501    0  0.00000000000E+00  0.00000000000E+00  0.16576870140E+03  0.16576870140E+03  0.00000000000E+00 0.  1.
         -1   -1    0    0    0  501 -0.00000000000E+00 -0.00000000000E+00 -0.11502833925E+03  0.11502833925E+03  0.00000000000E+00 0.  1.
         35    2    1    2    0    0  0.00000000000E+00 -0.35527136788E-14  0.50740362145E+02  0.28079704065E+03  0.27617457104E+03 0.  0.
         25    2    3    3    0    0  0.46804556778E+02 -0.28440814279E+02  0.90698851473E+01  0.13801566587E+03  0.12635867503E+03 0.  0.
         25    2    3    3    0    0 -0.46804556778E+02  0.28440814279E+02  0.41670476998E+02  0.14278137478E+03  0.12510214179E+03 0.  0.
          5    1    4    4  502    0  0.34075937996E+02 -0.34891245393E+01  0.65935931631E+02  0.74451196233E+02  0.47000000000E+01 0. -1.
         -5    1    4    4    0  502  0.12728618782E+02 -0.24951689740E+02 -0.56866046484E+02  0.63564469633E+02  0.47000000000E+01 0. -1.
          5    1    5    5  503    0 -0.50229824915E+02  0.57498125092E+02 -0.15811971886E+02  0.78110038760E+02  0.47000000000E+01 0. -1.
         -5    1    5    5    0  503  0.34252681368E+01 -0.29057310813E+02  0.57482448884E+02  0.64671336025E+02  0.47000000000E+01 0. -1.
<mgrwt>
<rscale>  0 0.27617457E+03</rscale>
<asrwt>0</asrwt>
<pdfrwt beam="1">  1        1 0.25502877E-01 0.27617457E+03</pdfrwt>
<pdfrwt beam="2">  1       -1 0.17696667E-01 0.27617457E+03</pdfrwt>
<totfact> 0.45621382E+03</totfact>
</mgrwt>
</event>
<event>
 9    1  0.7926126E-001  0.2772418E+03  0.7818608E-02  0.1097205E+00
          1   -1    0    0  501    0  0.00000000000E+00  0.00000000000E+00  0.27118876791E+02  0.27118876791E+02  0.00000000000E+00 0.  1.
         -1   -1    0    0    0  501 -0.00000000000E+00 -0.00000000000E+00 -0.70857499511E+03  0.70857499511E+03  0.00000000000E+00 0.  1.
         35    2    1    2    0    0  0.71054273576E-14  0.35527136788E-14 -0.68145611832E+03  0.73569387190E+03  0.27724182938E+03 0.  0.
         25    2    3    3    0    0  0.13485103419E+02 -0.15793950978E+02 -0.48538394116E+03  0.50173629067E+03  0.12534128662E+03 0.  0.
         25    2    3    3    0    0 -0.13485103419E+02  0.15793950978E+02 -0.19607217716E+03  0.23395758124E+03  0.12593869247E+03 0.  0.
          5    1    4    4  502    0  0.39182277755E+02 -0.56712045671E+02 -0.18551471930E+03  0.19796289574E+03  0.47000000000E+01 0. -1.
         -5    1    4    4    0  502 -0.25697174336E+02  0.40918094693E+02 -0.29986922186E+03  0.30377339492E+03  0.47000000000E+01 0. -1.
          5    1    5    5  503    0  0.37579252202E+02  0.27950791702E+02 -0.21765928517E+02  0.51858389842E+02  0.47000000000E+01 0.  1.
         -5    1    5    5    0  503 -0.51064355621E+02 -0.12156840724E+02 -0.17430624864E+03  0.18209919140E+03  0.47000000000E+01 0.  1.
<mgrwt>
<rscale>  0 0.27724183E+03</rscale>
<asrwt>0</asrwt>
<pdfrwt beam="1">  1        1 0.41721354E-02 0.27724183E+03</pdfrwt>
<pdfrwt beam="2">  1       -1 0.10901153E+00 0.27724183E+03</pdfrwt>
<totfact> 0.17746474E+03</totfact>
</mgrwt>
</event>
<event>
 9    1  0.7926126E-001  0.2740552E+03  0.7818608E-02  0.1098981E+00
          1   -1    0    0  501    0  0.00000000000E+00  0.00000000000E+00  0.66525649402E+03  0.66525649402E+03  0.00000000000E+00 0.  1.
         -1   -1    0    0    0  501 -0.00000000000E+00 -0.00000000000E+00 -0.28224555682E+02  0.28224555682E+02  0.00000000000E+00 0.  1.
         35    2    1    2    0    0  0.00000000000E+00 -0.35527136788E-14  0.63703193833E+03  0.69348104970E+03  0.27405524230E+03 0.  0.
         25    2    3    3    0    0 -0.41239809365E+02  0.18527133569E+02  0.23068110077E+03  0.26632549860E+03  0.12518595927E+03 0.  0.
         25    2    3    3    0    0  0.41239809365E+02 -0.18527133569E+02  0.40635083756E+03  0.42715555110E+03  0.12368057685E+03 0.  0.
          5    1    4    4  502    0 -0.42820100613E+01  0.55096257547E+02  0.19589085936E+03  0.20359089368E+03  0.47000000000E+01 0.  1.
         -5    1    4    4    0  502 -0.36957799304E+02 -0.36569123978E+02  0.34790241410E+02  0.62734604926E+02  0.47000000000E+01 0.  1.
          5    1    5    5  503    0  0.33838638173E+01 -0.10018704580E+02  0.37963944261E+03  0.37981577292E+03  0.47000000000E+01 0.  1.
         -5    1    5    5    0  503  0.37855945548E+02 -0.85084289884E+01  0.26711394949E+02  0.47339778171E+02  0.47000000000E+01 0.  1.
<mgrwt>
<rscale>  0 0.27405524E+03</rscale>
<asrwt>0</asrwt>
<pdfrwt beam="1">  1        1 0.10234714E+00 0.27405524E+03</pdfrwt>
<pdfrwt beam="2">  1       -1 0.43422398E-02 0.27405524E+03</pdfrwt>
<totfact> 0.65833943E+03</totfact>
</mgrwt>
</event>
<event>
 9    1  0.7926126E-001  0.2783797E+03  0.7818608E-02  0.1096577E+00
          2   -1    0    0  501    0  0.00000000000E+00  0.00000000000E+00  0.19907361581E+04  0.19907361581E+04  0.00000000000E+00 0.  1.
         -2   -1    0    0    0  501 -0.00000000000E+00 -0.00000000000E+00 -0.97319864073E+01  0.97319864073E+01  0.00000000000E+00 0.  1.
         35    2    1    2    0    0 -0.14210854715E-13  0.00000000000E+00  0.19810041717E+04  0.20004681445E+04  0.27837972075E+03 0.  0.
         25    2    3    3    0    0  0.54849418399E+02  0.13368334862E+02  0.11284653798E+04  0.11368267727E+04  0.12551424827E+03 0.  0.
         25    2    3    3    0    0 -0.54849418399E+02 -0.13368334862E+02  0.85253879187E+03  0.86364137185E+03  0.12596371079E+03 0.  0.
          5    1    4    4  502    0  0.84638931854E+02  0.25028965324E+01  0.10251704405E+04  0.10286722196E+04  0.47000000000E+01 0.  1.
         -5    1    4    4    0  502 -0.29789513455E+02  0.10865438330E+02  0.10329493931E+03  0.10815455306E+03  0.47000000000E+01 0.  1.
          5    1    5    5  503    0 -0.62301162598E+02  0.23007654593E+02  0.77160724717E+03  0.77447441592E+03  0.47000000000E+01 0. -1.
         -5    1    5    5    0  503  0.74517441986E+01 -0.36375989455E+02  0.80931544705E+02  0.89166955924E+02  0.47000000000E+01 0. -1.
<mgrwt>
<rscale>  0 0.27837972E+03</rscale>
<asrwt>0</asrwt>
<pdfrwt beam="1">  1        2 0.30626678E+00 0.27837972E+03</pdfrwt>
<pdfrwt beam="2">  1       -2 0.14972303E-02 0.27837972E+03</pdfrwt>
<totfact> 0.88895321E+03</totfact>
</mgrwt>
</event>
<event>
 9    1  0.7926126E-001  0.2758919E+03  0.7818608E-02  0.1097954E+00
          1   -1    0    0  501    0  0.00000000000E+00  0.00000000000E+00  0.21775284259E+03  0.21775284259E+03  0.00000000000E+00 0. -1.
         -1   -1    0    0    0  501 -0.00000000000E+00 -0.00000000000E+00 -0.87388452917E+02  0.87388452917E+02  0.00000000000E+00 0. -1.
         35    2    1    2    0    0  0.00000000000E+00  0.71054273576E-14  0.13036438968E+03  0.30514129551E+03  0.27589189211E+03 0.  0.
         25    2    3    3    0    0 -0.30556276855E+02  0.41518776902E+02  0.10242398068E+03  0.16721926463E+03  0.12171325218E+03 0.  0.
         25    2    3    3    0    0  0.30556276855E+02 -0.41518776902E+02  0.27940408996E+02  0.13792203088E+03  0.12483719500E+03 0.  0.
          5    1    4    4  502    0  0.25611744338E+02  0.26012035692E+02 -0.12011925868E+02  0.38716454021E+02  0.47000000000E+01 0. -1.
         -5    1    4    4    0  502 -0.56168021193E+02  0.15506741210E+02  0.11443590655E+03  0.12850281061E+03  0.47000000000E+01 0. -1.
          5    1    5    5  503    0 -0.16486991485E+02  0.28736826065E+02 -0.21586186014E+02  0.39820591246E+02  0.47000000000E+01 0. -1.
         -5    1    5    5    0  503  0.47043268340E+02 -0.70255602967E+02  0.49526595010E+02  0.98101439631E+02  0.47000000000E+01 0. -1.
<mgrwt>
<rscale>  0 0.27589189E+03</rscale>
<asrwt>0</asrwt>
<pdfrwt beam="1">  1        1 0.33500437E-01 0.27589189E+03</pdfrwt>
<pdfrwt beam="2">  1       -1 0.13444377E-01 0.27589189E+03</pdfrwt>
<totfact> 0.50035145E+03</totfact>
</mgrwt>
</event>
<event>
 9    1  0.7926126E-001  0.2763761E+03  0.7818608E-02  0.1097685E+00
          1   -1    0    0  501    0  0.00000000000E+00  0.00000000000E+00  0.75470703962E+02  0.75470703962E+02  0.00000000000E+00 0. -1.
         -1   -1    0    0    0  501 -0.00000000000E+00 -0.00000000000E+00 -0.25302452740E+03  0.25302452740E+03  0.00000000000E+00 0. -1.
         35    2    1    2    0    0  0.00000000000E+00  0.71054273576E-14 -0.17755382344E+03  0.32849523136E+03  0.27637611476E+03 0.  0.
         25    2    3    3    0    0  0.23219336972E+02  0.59428098814E+02 -0.95751633764E+02  0.16986011587E+03  0.12495297938E+03 0.  0.
         25    2    3    3    0    0 -0.23219336972E+02 -0.59428098814E+02 -0.81802189677E+02  0.15863511550E+03  0.12001110405E+03 0.  0.
          5    1    4    4  502    0 -0.37365006181E+02  0.13635819428E+02 -0.83745053393E+02  0.92829969440E+02  0.47000000000E+01 0.  1.
         -5    1    4    4    0  502  0.60584343153E+02  0.45792279386E+02 -0.12006580371E+02  0.77030146429E+02  0.47000000000E+01 0.  1.
          5    1    5    5  503    0 -0.27495044555E+02 -0.50821370990E+02 -0.11226416960E+03  0.12634921052E+03  0.47000000000E+01 0. -1.
         -5    1    5    5    0  503  0.42757075830E+01 -0.86067278243E+01  0.30461979921E+02  0.32285904972E+02  0.47000000000E+01 0. -1.
<mgrwt>
<rscale>  0 0.27637611E+03</rscale>
<asrwt>0</asrwt>
<pdfrwt beam="1">  1        1 0.11610878E-01 0.27637611E+03</pdfrwt>
<pdfrwt beam="2">  1       -1 0.38926850E-01 0.27637611E+03</pdfrwt>
<totfact> 0.33842361E+03</totfact>
</mgrwt>
</event>
<event>
 9    1  0.7926126E-001  0.2744280E+03  0.7818608E-02  0.1098772E+00
         -2   -1    0    0    0  501 -0.00000000000E+00  0.00000000000E+00  0.16318878010E+02  0.16318878010E+02  0.00000000000E+00 0. -1.
          2   -1    0    0  501    0  0.00000000000E+00 -0.00000000000E+00 -0.11537364776E+04  0.11537364776E+04  0.00000000000E+00 0. -1.
         35    2    1    2    0    0  0.00000000000E+00 -0.71054273576E-14 -0.11374175996E+04  0.11700553556E+04  0.27442802215E+03 0.  0.
         25    2    3    3    0    0 -0.12305895231E+02  0.24992567682E+02 -0.71534897732E+03  0.72675866042E+03  0.12521153161E+03 0.  0.
         25    2    3    3    0    0  0.12305895231E+02 -0.24992567682E+02 -0.42206862231E+03  0.44329669523E+03  0.13264228046E+03 0.  0.
          5    1    4    4  502    0  0.13284070288E+02  0.60911021676E+02 -0.59881887871E+03  0.60207371524E+03  0.47000000000E+01 0. -1.
         -5    1    4    4    0  502 -0.25589965519E+02 -0.35918453994E+02 -0.11653009861E+03  0.12468494518E+03  0.47000000000E+01 0. -1.
          5    1    5    5  503    0 -0.10580932825E+02 -0.77339024673E+02 -0.24072063835E+03  0.25310431961E+03  0.47000000000E+01 0. -1.
         -5    1    5    5    0  503  0.22886828056E+02  0.52346456991E+02 -0.18134798395E+03  0.19019237561E+03  0.47000000000E+01 0. -1.
<mgrwt>
<rscale>  0 0.27442802E+03</rscale>
<asrwt>0</asrwt>
<pdfrwt beam="1">  1        2 0.17749792E+00 0.27442802E+03</pdfrwt>
<pdfrwt beam="2">  1       -2 0.25105967E-02 0.27442802E+03</pdfrwt>
<totfact> 0.11714027E+04</totfact>
</mgrwt>
</event>
<event>
 9    1  0.7926126E-001  0.2746982E+03  0.7818608E-02  0.1098620E+00
          2   -1    0    0  501    0  0.00000000000E+00  0.00000000000E+00  0.49828790766E+02  0.49828790766E+02  0.00000000000E+00 0.  1.
         -2   -1    0    0    0  501 -0.00000000000E+00 -0.00000000000E+00 -0.37859181235E+03  0.37859181235E+03  0.00000000000E+00 0.  1.
         35    2    1    2    0    0  0.00000000000E+00 -0.35527136788E-14 -0.32876302159E+03  0.42842060312E+03  0.27469817767E+03 0.  0.
         25    2    3    3    0    0 -0.41034435844E+02 -0.24965374159E+02 -0.12265691114E+03  0.18239478639E+03  0.12615881032E+03 0.  0.
         25    2    3    3    0    0  0.41034435844E+02  0.24965374159E+02 -0.20610611045E+03  0.24602581673E+03  0.12546664457E+03 0.  0.
          5    1    4    4  502    0 -0.26944801465E+02  0.63826864731E+00  0.21771419696E+02  0.34964473805E+02  0.47000000000E+01 0. -1.
         -5    1    4    4    0  502 -0.14089634379E+02 -0.25603642807E+02 -0.14442833083E+03  0.14743031258E+03  0.47000000000E+01 0. -1.
          5    1    5    5  503    0 -0.22229057488E+02 -0.24544932405E+02 -0.13354971345E+03  0.13767425564E+03  0.47000000000E+01 0.  1.
         -5    1    5    5    0  503  0.63263493332E+02  0.49510306564E+02 -0.72556397000E+02  0.10835156109E+03  0.47000000000E+01 0.  1.
<mgrwt>
<rscale>  0 0.27469818E+03</rscale>
<asrwt>0</asrwt>
<pdfrwt beam="1">  1        2 0.76659679E-02 0.27469818E+03</pdfrwt>
<pdfrwt beam="2">  1       -2 0.58244893E-01 0.27469818E+03</pdfrwt>
<totfact> 0.25189555E+03</totfact>
</mgrwt>
</event>
<event>
 9    1  0.7926126E-001  0.2744001E+03  0.7818608E-02  0.1098787E+00
          2   -1    0    0  501    0  0.00000000000E+00  0.00000000000E+00  0.21976668865E+04  0.21976668865E+04  0.00000000000E+00 0. -1.
         -2   -1    0    0    0  501 -0.00000000000E+00 -0.00000000000E+00 -0.85653806651E+01  0.85653806651E+01  0.00000000000E+00 0. -1.
         35    2    1    2    0    0  0.71054273576E-14  0.00000000000E+00  0.21891015059E+04  0.22062322672E+04  0.27440009809E+03 0.  0.
         25    2    3    3    0    0  0.11214664976E+02 -0.55439605307E+02  0.10174357206E+04  0.10266749988E+04  0.12524691284E+03 0.  0.
         25    2    3    3    0    0 -0.11214664976E+02  0.55439605307E+02  0.11716657853E+04  0.11795572683E+04  0.12391657833E+03 0.  0.
          5    1    4    4  502    0  0.35787111869E+02 -0.11613371089E+02  0.87030417186E+03  0.87112974310E+03  0.47000000000E+01 0. -1.
         -5    1    4    4    0  502 -0.24572446893E+02 -0.43826234217E+02  0.14713154872E+03  0.15554525573E+03  0.47000000000E+01 0. -1.
          5    1    5    5  503    0 -0.66893598532E+02  0.40615205025E+02  0.66882587886E+03  0.67340514896E+03  0.47000000000E+01 0.  1.
         -5    1    5    5    0  503  0.55678933555E+02  0.14824400281E+02  0.50283990641E+03  0.50615211939E+03  0.47000000000E+01 0.  1.
<mgrwt>
<rscale>  0 0.27440010E+03</rscale>
<asrwt>0</asrwt>
<pdfrwt beam="1">  1        2 0.33810215E+00 0.27440010E+03</pdfrwt>
<pdfrwt beam="2">  1       -2 0.13177526E-02 0.27440010E+03</pdfrwt>
<totfact> 0.83269013E+03</totfact>
</mgrwt>
</event>
<event>
 9    1  0.7926126E-001  0.2748992E+03  0.7818608E-02  0.1098508E+00
         -4   -1    0    0    0  501 -0.00000000000E+00  0.00000000000E+00  0.34647163320E+03  0.34647163320E+03  0.00000000000E+00 0.  1.
          4   -1    0    0  501    0  0.00000000000E+00 -0.00000000000E+00 -0.54527982624E+02  0.54527982624E+02  0.00000000000E+00 0.  1.
         35    2    1    2    0    0  0.00000000000E+00  0.00000000000E+00  0.29194365058E+03  0.40099961583E+03  0.27489924842E+03 0.  0.
         25    2    3    3    0    0 -0.25159189261E+02 -0.42610874265E+02  0.17675412633E+03  0.22358187777E+03  0.12766426079E+03 0.  0.
         25    2    3    3    0    0  0.25159189261E+02  0.42610874265E+02  0.11518952425E+03  0.17741773806E+03  0.12553786628E+03 0.  0.
          5    1    4    4  502    0  0.40551586253E+02 -0.26590501819E+02  0.19760733437E+02  0.52574352308E+02  0.47000000000E+01 0. -1.
         -5    1    4    4    0  502 -0.65710775514E+02 -0.16020372447E+02  0.15699339289E+03  0.17100752546E+03  0.47000000000E+01 0. -1.
          5    1    5    5  503    0  0.47119186553E+02  0.40870020237E+02  0.13412336014E+03  0.14799237153E+03  0.47000000000E+01 0.  1.
         -5    1    5    5    0  503 -0.21959997292E+02  0.17408540281E+01 -0.18933835890E+02  0.29425366529E+02  0.47000000000E+01 0.  1.
<mgrwt>
<rscale>  0 0.27489925E+03</rscale>
<asrwt>0</asrwt>
<pdfrwt beam="1">  1        4 0.83889206E-02 0.27489925E+03</pdfrwt>
<pdfrwt beam="2">  1       -4 0.53303327E-01 0.27489925E+03</pdfrwt>
<totfact> 0.64986899E+02</totfact>
</mgrwt>
</event>
<event>
 9    1  0.7926126E-001  0.2739211E+03  0.7818608E-02  0.1099056E+00
          2   -1    0    0  501    0  0.00000000000E+00  0.00000000000E+00  0.56714928606E+02  0.56714928606E+02  0.00000000000E+00 0.  1.
         -2   -1    0    0    0  501 -0.00000000000E+00 -0.00000000000E+00 -0.33074518398E+03  0.33074518398E+03  0.00000000000E+00 0.  1.
         35    2    1    2    0    0  0.71054273576E-14 -0.35527136788E-14 -0.27403025538E+03  0.38746011259E+03  0.27392107985E+03 0.  0.
         25    2    3    3    0    0 -0.48539577704E+02 -0.26934282187E+02 -0.13319188116E+03  0.19092494310E+03  0.12502284003E+03 0.  0.
         25    2    3    3    0    0  0.48539577704E+02  0.26934282187E+02 -0.14083837422E+03  0.19653516949E+03  0.12533586492E+03 0.  0.
          5    1    4    4  502    0  0.18188636238E+02 -0.58130532859E+02 -0.76242174662E+02  0.97698232000E+02  0.47000000000E+01 0.  1.
         -5    1    4    4    0  502 -0.66728213941E+02  0.31196250672E+02 -0.56949706497E+02  0.93226711097E+02  0.47000000000E+01 0.  1.
          5    1    5    5  503    0  0.25032359844E+02 -0.46578258724E+02 -0.88376150201E+02  0.10309503940E+03  0.47000000000E+01 0. -1.
         -5    1    5    5    0  503  0.23507217859E+02  0.73512540911E+02 -0.52462224017E+02  0.93440130091E+02  0.47000000000E+01 0. -1.
<mgrwt>
<rscale>  0 0.27392108E+03</rscale>
<asrwt>0</asrwt>
<pdfrwt beam="1">  1        2 0.87253737E-02 0.27392108E+03</pdfrwt>
<pdfrwt beam="2">  1       -2 0.50883874E-01 0.27392108E+03</pdfrwt>
<totfact> 0.28119208E+03</totfact>
</mgrwt>
</event>
<event>
 9    1  0.7926126E-001  0.2745852E+03  0.7818608E-02  0.1098684E+00
          1   -1    0    0  501    0  0.00000000000E+00  0.00000000000E+00  0.14716622983E+03  0.14716622983E+03  0.00000000000E+00 0.  1.
         -1   -1    0    0    0  501 -0.00000000000E+00 -0.00000000000E+00 -0.12808136445E+03  0.12808136445E+03  0.00000000000E+00 0.  1.
         35    2    1    2    0    0  0.35527136788E-14  0.00000000000E+00  0.19084865384E+02  0.27524759428E+03  0.27458515267E+03 0.  0.
         25    2    3    3    0    0  0.15819968582E+02 -0.52327709580E+02  0.24150384845E+02  0.13862554607E+03  0.12508133489E+03 0.  0.
         25    2    3    3    0    0 -0.15819968582E+02  0.52327709580E+02 -0.50655194612E+01  0.13662204821E+03  0.12510581111E+03 0.  0.
          5    1    4    4  502    0 -0.90824868549E+01  0.21043420444E+02 -0.34255013903E+02  0.41482684206E+02  0.47000000000E+01 0. -1.
         -5    1    4    4    0  502  0.24902455437E+02 -0.73371130024E+02  0.58405398748E+02  0.97142861862E+02  0.47000000000E+01 0. -1.
          5    1    5    5  503    0 -0.60380116685E+02  0.50812905604E+02 -0.30898102747E+02  0.84879282632E+02  0.47000000000E+01 0.  1.
         -5    1    5    5    0  503  0.44560148103E+02  0.15148039768E+01  0.25832583286E+02  0.51742765574E+02  0.47000000000E+01 0.  1.
<mgrwt>
<rscale>  0 0.27458515E+03</rscale>
<asrwt>0</asrwt>
<pdfrwt beam="1">  1        1 0.22640958E-01 0.27458515E+03</pdfrwt>
<pdfrwt beam="2">  1       -1 0.19704825E-01 0.27458515E+03</pdfrwt>
<totfact> 0.44628311E+03</totfact>
</mgrwt>
</event>
<event>
 9    1  0.7926126E-001  0.2737894E+03  0.7818608E-02  0.1099130E+00
         -2   -1    0    0    0  501 -0.00000000000E+00  0.00000000000E+00  0.43178059193E+02  0.43178059193E+02  0.00000000000E+00 0.  1.
          2   -1    0    0  501    0  0.00000000000E+00 -0.00000000000E+00 -0.43402040339E+03  0.43402040339E+03  0.00000000000E+00 0.  1.
         35    2    1    2    0    0  0.71054273576E-14  0.00000000000E+00 -0.39084234420E+03  0.47719846258E+03  0.27378939840E+03 0.  0.
         25    2    3    3    0    0 -0.50553151063E+01 -0.45971344459E+02 -0.12703460905E+03  0.18188726798E+03  0.12168099947E+03 0.  0.
         25    2    3    3    0    0  0.50553151063E+01  0.45971344459E+02 -0.26380773514E+03  0.29531119461E+03  0.12439959733E+03 0.  0.
          5    1    4    4  502    0  0.38078820599E+02  0.13391765436E+02 -0.71681283561E+01  0.41265094497E+02  0.47000000000E+01 0. -1.
         -5    1    4    4    0  502 -0.43134135705E+02 -0.59363109895E+02 -0.11986648070E+03  0.14062217348E+03  0.47000000000E+01 0. -1.
          5    1    5    5  503    0  0.46807697965E+02 -0.22569263768E+02 -0.11069780487E+03  0.12237820990E+03  0.47000000000E+01 0.  1.
         -5    1    5    5    0  503 -0.41752382859E+02  0.68540608227E+02 -0.15310993027E+03  0.17293298471E+03  0.47000000000E+01 0.  1.
<mgrwt>
<rscale>  0 0.27378940E+03</rscale>
<asrwt>0</asrwt>
<pdfrwt beam="1">  1        2 0.66772369E-01 0.27378940E+03</pdfrwt>
<pdfrwt beam="2">  1       -2 0.66427784E-02 0.27378940E+03</pdfrwt>
<totfact> 0.91615428E+03</totfact>
</mgrwt>
</event>
<event>
 9    1  0.7926126E-001  0.2767071E+03  0.7818608E-02  0.1097501E+00
         -2   -1    0    0    0  501 -0.00000000000E+00  0.00000000000E+00  0.20503117556E+02  0.20503117556E+02  0.00000000000E+00 0.  1.
          2   -1    0    0  501    0  0.00000000000E+00 -0.00000000000E+00 -0.93359948760E+03  0.93359948760E+03  0.00000000000E+00 0.  1.
         35    2    1    2    0    0  0.00000000000E+00  0.00000000000E+00 -0.91309637004E+03  0.95410260515E+03  0.27670706564E+03 0.  0.
         25    2    3    3    0    0 -0.29536226210E+02  0.31989946420E+02 -0.31975059136E+03  0.34608595052E+03  0.12505718349E+03 0.  0.
         25    2    3    3    0    0  0.29536226210E+02 -0.31989946420E+02 -0.59334577868E+03  0.60801665463E+03  0.12541648176E+03 0.  0.
          5    1    4    4  502    0  0.11369331962E+02 -0.77358504049E+01  0.57252012725E+01  0.15619635731E+02  0.47000000000E+01 0.  1.
         -5    1    4    4    0  502 -0.40905558172E+02  0.39725796824E+02 -0.32547579263E+03  0.33046631479E+03  0.47000000000E+01 0.  1.
          5    1    5    5  503    0  0.10126289446E+02  0.44443230095E+02 -0.12671905010E+03  0.13474995398E+03  0.47000000000E+01 0. -1.
         -5    1    5    5    0  503  0.19409936764E+02 -0.76433176515E+02 -0.46662672859E+03  0.47326670066E+03  0.47000000000E+01 0. -1.
<mgrwt>
<rscale>  0 0.27670707E+03</rscale>
<asrwt>0</asrwt>
<pdfrwt beam="1">  1        2 0.14363068E+00 0.27670707E+03</pdfrwt>
<pdfrwt beam="2">  1       -2 0.31543259E-02 0.27670707E+03</pdfrwt>
<totfact> 0.11327714E+04</totfact>
</mgrwt>
</event>
<event>
 9    1  0.7926126E-001  0.2786442E+03  0.7818608E-02  0.1096432E+00
          2   -1    0    0  501    0  0.00000000000E+00  0.00000000000E+00  0.10292868979E+03  0.10292868979E+03  0.00000000000E+00 0.  1.
         -2   -1    0    0    0  501 -0.00000000000E+00 -0.00000000000E+00 -0.18858345987E+03  0.18858345987E+03  0.00000000000E+00 0.  1.
         35    2    1    2    0    0 -0.71054273576E-14 -0.71054273576E-14 -0.85654770083E+02  0.29151214967E+03  0.27864420641E+03 0.  0.
         25    2    3    3    0    0 -0.33350191566E+02 -0.33229055547E+02 -0.87213658706E+02  0.15914359554E+03  0.12451528552E+03 0.  0.
         25    2    3    3    0    0  0.33350191566E+02  0.33229055547E+02  0.15588886225E+01  0.13236855412E+03  0.12370367244E+03 0.  0.
          5    1    4    4  502    0  0.26735717860E+02 -0.28762807582E+02 -0.90350447537E+02  0.98627537126E+02  0.47000000000E+01 0.  1.
         -5    1    4    4    0  502 -0.60085909425E+02 -0.44662479651E+01  0.31367888313E+01  0.60516058419E+02  0.47000000000E+01 0.  1.
          5    1    5    5  503    0 -0.35720741313E+01  0.74981374928E+02 -0.79491336372E+01  0.75632301467E+02  0.47000000000E+01 0.  1.
         -5    1    5    5    0  503  0.36922265697E+02 -0.41752319380E+02  0.95080222597E+01  0.56736252653E+02  0.47000000000E+01 0.  1.
<mgrwt>
<rscale>  0 0.27864421E+03</rscale>
<asrwt>0</asrwt>
<pdfrwt beam="1">  1        2 0.15835183E-01 0.27864421E+03</pdfrwt>
<pdfrwt beam="2">  1       -2 0.29012840E-01 0.27864421E+03</pdfrwt>
<totfact> 0.39515766E+03</totfact>
</mgrwt>
</event>
<event>
 9    1  0.7926126E-001  0.2707347E+03  0.7818608E-02  0.1100860E+00
         -2   -1    0    0    0  501 -0.00000000000E+00  0.00000000000E+00  0.54502745541E+02  0.54502745541E+02  0.00000000000E+00 0.  1.
          2   -1    0    0  501    0  0.00000000000E+00 -0.00000000000E+00 -0.33620918525E+03  0.33620918525E+03  0.00000000000E+00 0.  1.
         35    2    1    2    0    0  0.00000000000E+00  0.00000000000E+00 -0.28170643970E+03  0.39071193079E+03  0.27073473122E+03 0.  0.
         25    2    3    3    0    0  0.32829656566E+02  0.21421651733E+02 -0.17708449506E+03  0.22025597464E+03  0.12496840585E+03 0.  0.
         25    2    3    3    0    0 -0.32829656566E+02 -0.21421651733E+02 -0.10462194464E+03  0.17045595614E+03  0.12873541925E+03 0.  0.
          5    1    4    4  502    0 -0.17029900481E+02  0.76975030617E+01 -0.16605634978E+03  0.16717078204E+03  0.47000000000E+01 0.  1.
         -5    1    4    4    0  502  0.49859557047E+02  0.13724148671E+02 -0.11028145278E+02  0.53085192605E+02  0.47000000000E+01 0.  1.
          5    1    5    5  503    0 -0.45021217686E+02 -0.55972721408E+02 -0.11165938830E+03  0.13285241653E+03  0.47000000000E+01 0. -1.
         -5    1    5    5    0  503  0.12191561120E+02  0.34551069675E+02  0.70374436519E+01  0.37603539612E+02  0.47000000000E+01 0. -1.
<mgrwt>
<rscale>  0 0.27073473E+03</rscale>
<asrwt>0</asrwt>
<pdfrwt beam="1">  1        2 0.51724490E-01 0.27073473E+03</pdfrwt>
<pdfrwt beam="2">  1       -2 0.83850379E-02 0.27073473E+03</pdfrwt>
<totfact> 0.84093109E+03</totfact>
</mgrwt>
</event>
<event>
 9    1  0.7926126E-001  0.2717378E+03  0.7818608E-02  0.1100289E+00
          1   -1    0    0  501    0  0.00000000000E+00  0.00000000000E+00  0.67347139417E+02  0.67347139417E+02  0.00000000000E+00 0. -1.
         -1   -1    0    0    0  501 -0.00000000000E+00 -0.00000000000E+00 -0.27410756705E+03  0.27410756705E+03  0.00000000000E+00 0. -1.
         35    2    1    2    0    0  0.35527136788E-14  0.71054273576E-14 -0.20676042764E+03  0.34145470647E+03  0.27173781874E+03 0.  0.
         25    2    3    3    0    0 -0.45836796501E+01 -0.49756103367E+02 -0.10023195754E+03  0.16916198363E+03  0.12677796123E+03 0.  0.
         25    2    3    3    0    0  0.45836796501E+01  0.49756103367E+02 -0.10652847010E+03  0.17229272284E+03  0.12585621740E+03 0.  0.
          5    1    4    4  502    0 -0.24199264756E+02  0.17626291394E+02 -0.93751050936E+02  0.98527357189E+02  0.47000000000E+01 0. -1.
         -5    1    4    4    0  502  0.19615585106E+02 -0.67382394761E+02 -0.64809066010E+01  0.70634626446E+02  0.47000000000E+01 0. -1.
          5    1    5    5  503    0  0.48712872123E+02  0.58763870453E+02 -0.27610149841E+02  0.81305268927E+02  0.47000000000E+01 0.  1.
         -5    1    5    5    0  503 -0.44129192473E+02 -0.90077670859E+01 -0.78918320259E+02  0.90987453909E+02  0.47000000000E+01 0.  1.
<mgrwt>
<rscale>  0 0.27173782E+03</rscale>
<asrwt>0</asrwt>
<pdfrwt beam="1">  1        1 0.10361098E-01 0.27173782E+03</pdfrwt>
<pdfrwt beam="2">  1       -1 0.42170395E-01 0.27173782E+03</pdfrwt>
<totfact> 0.34161841E+03</totfact>
</mgrwt>
</event>
<event>
 9    1  0.7926126E-001  0.2803939E+03  0.7818608E-02  0.1095474E+00
         -1   -1    0    0    0  501 -0.00000000000E+00  0.00000000000E+00  0.31448504907E+03  0.31448504907E+03  0.00000000000E+00 0.  1.
          1   -1    0    0  501    0  0.00000000000E+00 -0.00000000000E+00 -0.62499601306E+02  0.62499601306E+02  0.00000000000E+00 0.  1.
         35    2    1    2    0    0 -0.35527136788E-14  0.00000000000E+00  0.25198544777E+03  0.37698465038E+03  0.28039393848E+03 0.  0.
         25    2    3    3    0    0 -0.14159044826E+02 -0.31545132065E+02  0.19770091763E+03  0.23607176372E+03  0.12429260190E+03 0.  0.
         25    2    3    3    0    0  0.14159044826E+02  0.31545132065E+02  0.54284530138E+02  0.14091288666E+03  0.12535572387E+03 0.  0.
          5    1    4    4  502    0  0.24976740390E+02 -0.18709704636E+02 -0.24679057410E+01  0.31655507686E+02  0.47000000000E+01 0.  1.
         -5    1    4    4    0  502 -0.39135785216E+02 -0.12835427429E+02  0.20016882337E+03  0.20441625603E+03  0.47000000000E+01 0.  1.
          5    1    5    5  503    0 -0.28833082404E+02  0.62621504418E+02  0.53932501520E+02  0.87656170214E+02  0.47000000000E+01 0.  1.
         -5    1    5    5    0  503  0.42992127230E+02 -0.31076372353E+02  0.35202861848E+00  0.53256716445E+02  0.47000000000E+01 0.  1.
<mgrwt>
<rscale>  0 0.28039394E+03</rscale>
<asrwt>0</asrwt>
<pdfrwt beam="1">  1        1 0.96153234E-02 0.28039394E+03</pdfrwt>
<pdfrwt beam="2">  1       -1 0.48382315E-01 0.28039394E+03</pdfrwt>
<totfact> 0.29461836E+03</totfact>
</mgrwt>
</event>
<event>
 9    1  0.7926126E-001  0.2729137E+03  0.7818608E-02  0.1099623E+00
         -2   -1    0    0    0  501 -0.00000000000E+00  0.00000000000E+00  0.19506406161E+03  0.19506406161E+03  0.00000000000E+00 0. -1.
          2   -1    0    0  501    0  0.00000000000E+00 -0.00000000000E+00 -0.95458258354E+02  0.95458258354E+02  0.00000000000E+00 0. -1.
         35    2    1    2    0    0  0.00000000000E+00  0.00000000000E+00  0.99605803254E+02  0.29052231996E+03  0.27291372694E+03 0.  0.
         25    2    3    3    0    0  0.32500965639E+02 -0.18238593673E+02  0.25339688552E+01  0.12839070693E+03  0.12283645046E+03 0.  0.
         25    2    3    3    0    0 -0.32500965639E+02  0.18238593673E+02  0.97071834399E+02  0.16213161303E+03  0.12439758777E+03 0.  0.
          5    1    4    4  502    0  0.57027237819E+02 -0.34969484743E+01 -0.44884212293E+02  0.72808083446E+02  0.47000000000E+01 0. -1.
         -5    1    4    4    0  502 -0.24526272180E+02 -0.14741645198E+02  0.47418181148E+02  0.55582623486E+02  0.47000000000E+01 0. -1.
          5    1    5    5  503    0  0.25998207803E+02 -0.18415141010E+02 -0.10807086405E+02  0.33969211706E+02  0.47000000000E+01 0.  1.
         -5    1    5    5    0  503 -0.58499173442E+02  0.36653734682E+02  0.10787892080E+03  0.12816240132E+03  0.47000000000E+01 0.  1.
<mgrwt>
<rscale>  0 0.27291373E+03</rscale>
<asrwt>0</asrwt>
<pdfrwt beam="1">  1        2 0.14685886E-01 0.27291373E+03</pdfrwt>
<pdfrwt beam="2">  1       -2 0.30009855E-01 0.27291373E+03</pdfrwt>
<totfact> 0.40608445E+03</totfact>
</mgrwt>
</event>
<event>
 9    1  0.7926126E-001  0.2757115E+03  0.7818608E-02  0.1098055E+00
         -2   -1    0    0    0  501 -0.00000000000E+00  0.00000000000E+00  0.15711198520E+02  0.15711198520E+02  0.00000000000E+00 0. -1.
          2   -1    0    0  501    0  0.00000000000E+00 -0.00000000000E+00 -0.12095964071E+04  0.12095964071E+04  0.00000000000E+00 0. -1.
         35    2    1    2    0    0  0.71054273576E-14  0.71054273576E-14 -0.11938852086E+04  0.12253076056E+04  0.27571151069E+03 0.  0.
         25    2    3    3    0    0  0.20284123585E+02  0.55088014929E+02 -0.62576482444E+03  0.64071839278E+03  0.12446810142E+03 0.  0.
         25    2    3    3    0    0 -0.20284123585E+02 -0.55088014929E+02 -0.56812038414E+03  0.58458921285E+03  0.12465007760E+03 0.  0.
          5    1    4    4  502    0 -0.42716278245E+02  0.42165080719E+02 -0.43956513879E+03  0.44366899339E+03  0.47000000000E+01 0.  1.
         -5    1    4    4    0  502  0.63000401830E+02  0.12922934210E+02 -0.18619968565E+03  0.19704939938E+03  0.47000000000E+01 0.  1.
          5    1    5    5  503    0  0.40047741668E+02 -0.64416486998E+02 -0.28829588946E+03  0.29814411832E+03  0.47000000000E+01 0.  1.
         -5    1    5    5    0  503 -0.60331865253E+02  0.93284720693E+01 -0.27982449468E+03  0.28644509453E+03  0.47000000000E+01 0.  1.
<mgrwt>
<rscale>  0 0.27571151E+03</rscale>
<asrwt>0</asrwt>
<pdfrwt beam="1">  1        2 0.18609172E+00 0.27571151E+03</pdfrwt>
<pdfrwt beam="2">  1       -2 0.24171080E-02 0.27571151E+03</pdfrwt>
<totfact> 0.11513890E+04</totfact>
</mgrwt>
</event>
<event>
 9    1  0.7926126E-001  0.2780660E+03  0.7818608E-02  0.1096750E+00
         -2   -1    0    0    0  501 -0.00000000000E+00  0.00000000000E+00  0.36665459692E+02  0.36665459692E+02  0.00000000000E+00 0.  1.
          2   -1    0    0  501    0  0.00000000000E+00 -0.00000000000E+00 -0.52720406166E+03  0.52720406166E+03  0.00000000000E+00 0.  1.
         35    2    1    2    0    0  0.00000000000E+00 -0.35527136788E-14 -0.49053860197E+03  0.56386952135E+03  0.27806603009E+03 0.  0.
         25    2    3    3    0    0 -0.27373196753E+02 -0.15402854547E+02 -0.14685407273E+03  0.19663246941E+03  0.12693175143E+03 0.  0.
         25    2    3    3    0    0  0.27373196753E+02  0.15402854547E+02 -0.34368452923E+03  0.36723705194E+03  0.12552870927E+03 0.  0.
          5    1    4    4  502    0  0.26778205213E+02 -0.44754683528E+02 -0.20969646461E+02  0.56408067196E+02  0.47000000000E+01 0. -1.
         -5    1    4    4    0  502 -0.54151401966E+02  0.29351828981E+02 -0.12588442627E+03  0.14022440222E+03  0.47000000000E+01 0. -1.
          5    1    5    5  503    0  0.73033550622E+02  0.71708928352E+01 -0.13840319174E+03  0.15672541180E+03  0.47000000000E+01 0. -1.
         -5    1    5    5    0  503 -0.45660353869E+02  0.82319617114E+01 -0.20528133750E+03  0.21051164014E+03  0.47000000000E+01 0. -1.
<mgrwt>
<rscale>  0 0.27806603E+03</rscale>
<asrwt>0</asrwt>
<pdfrwt beam="1">  1        2 0.81108317E-01 0.27806603E+03</pdfrwt>
<pdfrwt beam="2">  1       -2 0.56408399E-02 0.27806603E+03</pdfrwt>
<totfact> 0.94932016E+03</totfact>
</mgrwt>
</event>
<event>
 9    1  0.7926126E-001  0.2735635E+03  0.7818608E-02  0.1099257E+00
          2   -1    0    0  501    0  0.00000000000E+00  0.00000000000E+00  0.92116801631E+01  0.92116801631E+01  0.00000000000E+00 0.  1.
         -2   -1    0    0    0  501 -0.00000000000E+00 -0.00000000000E+00 -0.20310359730E+04  0.20310359730E+04  0.00000000000E+00 0.  1.
         35    2    1    2    0    0 -0.71054273576E-14  0.00000000000E+00 -0.20218242928E+04  0.20402476532E+04  0.27356354862E+03 0.  0.
         25    2    3    3    0    0 -0.10651852212E+02  0.15700485115E+02 -0.13940353935E+04  0.13997643414E+04  0.12508223716E+03 0.  0.
         25    2    3    3    0    0  0.10651852212E+02 -0.15700485115E+02 -0.62778889935E+03  0.64048331173E+03  0.12545916975E+03 0.  0.
          5    1    4    4  502    0  0.27130665994E+02  0.59605494094E+02 -0.59304630011E+03  0.59666983503E+03  0.47000000000E+01 0.  1.
         -5    1    4    4    0  502 -0.37782518206E+02 -0.43905008979E+02 -0.80098909337E+03  0.80309450639E+03  0.47000000000E+01 0.  1.
          5    1    5    5  503    0  0.55896812713E+02 -0.29797546737E+02 -0.19504187908E+03  0.20512379691E+03  0.47000000000E+01 0.  1.
         -5    1    5    5    0  503 -0.45244960501E+02  0.14097061622E+02 -0.43274702026E+03  0.43535951482E+03  0.47000000000E+01 0.  1.
<mgrwt>
<rscale>  0 0.27356355E+03</rscale>
<asrwt>0</asrwt>
<pdfrwt beam="1">  1        2 0.14171816E-02 0.27356355E+03</pdfrwt>
<pdfrwt beam="2">  1       -2 0.31246707E+00 0.27356355E+03</pdfrwt>
<totfact> 0.27363088E+02</totfact>
</mgrwt>
</event>
<event>
 9    1  0.7926126E-001  0.2755684E+03  0.7818608E-02  0.1098134E+00
          1   -1    0    0  501    0  0.00000000000E+00  0.00000000000E+00  0.15056819723E+03  0.15056819723E+03  0.00000000000E+00 0. -1.
         -1   -1    0    0    0  501 -0.00000000000E+00 -0.00000000000E+00 -0.12608561981E+03  0.12608561981E+03  0.00000000000E+00 0. -1.
         35    2    1    2    0    0  0.00000000000E+00  0.14210854715E-13  0.24482577426E+02  0.27665381704E+03  0.27556839058E+03 0.  0.
         25    2    3    3    0    0  0.22251598318E+02  0.52267712563E+02  0.24158436890E+02  0.13960224165E+03  0.12521225338E+03 0.  0.
         25    2    3    3    0    0 -0.22251598318E+02 -0.52267712563E+02  0.32414053616E+00  0.13705157539E+03  0.12472362184E+03 0.  0.
          5    1    4    4  502    0 -0.19167657223E+02 -0.34353347410E+02 -0.29364992169E+01  0.39727378334E+02  0.47000000000E+01 0. -1.
         -5    1    4    4    0  502  0.41419255541E+02  0.86621059973E+02  0.27094936107E+02  0.99874863319E+02  0.47000000000E+01 0. -1.
          5    1    5    5  503    0 -0.23427575995E+02 -0.92340352781E+02  0.88668868309E+01  0.95793025586E+02  0.47000000000E+01 0. -1.
         -5    1    5    5    0  503  0.11759776767E+01  0.40072640219E+02 -0.85427462947E+01  0.41258549803E+02  0.47000000000E+01 0. -1.
<mgrwt>
<rscale>  0 0.27556839E+03</rscale>
<asrwt>0</asrwt>
<pdfrwt beam="1">  1        1 0.23164338E-01 0.27556839E+03</pdfrwt>
<pdfrwt beam="2">  1       -1 0.19397788E-01 0.27556839E+03</pdfrwt>
<totfact> 0.44466526E+03</totfact>
</mgrwt>
</event>
<event>
 9    1  0.7926126E-001  0.2745147E+03  0.7818608E-02  0.1098723E+00
         -1   -1    0    0    0  501 -0.00000000000E+00  0.00000000000E+00  0.13104921948E+03  0.13104921948E+03  0.00000000000E+00 0. -1.
          1   -1    0    0  501    0  0.00000000000E+00 -0.00000000000E+00 -0.14375962499E+03  0.14375962499E+03  0.00000000000E+00 0. -1.
         35    2    1    2    0    0  0.00000000000E+00  0.14210854715E-13 -0.12710405509E+02  0.27480884447E+03  0.27451474749E+03 0.  0.
         25    2    3    3    0    0  0.72891203632E+01 -0.53427847065E+02  0.22585542198E+02  0.13436838175E+03  0.12098383851E+03 0.  0.
         25    2    3    3    0    0 -0.72891203632E+01  0.53427847065E+02 -0.35295947707E+02  0.14044046272E+03  0.12478002054E+03 0.  0.
          5    1    4    4  502    0 -0.32176690062E+02 -0.71916975115E+02  0.38394139027E+02  0.87770100858E+02  0.47000000000E+01 0. -1.
         -5    1    4    4    0  502  0.39465810425E+02  0.18489128050E+02 -0.15808596829E+02  0.46598280894E+02  0.47000000000E+01 0. -1.
          5    1    5    5  503    0 -0.24320084060E+02  0.79066887348E+02  0.12096735075E+02  0.83734462219E+02  0.47000000000E+01 0.  1.
         -5    1    5    5    0  503  0.17030963697E+02 -0.25639040283E+02 -0.47392682783E+02  0.56706000498E+02  0.47000000000E+01 0.  1.
<mgrwt>
<rscale>  0 0.27451475E+03</rscale>
<asrwt>0</asrwt>
<pdfrwt beam="1">  1        1 0.22116865E-01 0.27451475E+03</pdfrwt>
<pdfrwt beam="2">  1       -1 0.20161419E-01 0.27451475E+03</pdfrwt>
<totfact> 0.44305723E+03</totfact>
</mgrwt>
</event>
<event>
 9    1  0.7926126E-001  0.2761415E+03  0.7818608E-02  0.1097815E+00
         -2   -1    0    0    0  501 -0.00000000000E+00  0.00000000000E+00  0.48509481878E+03  0.48509481878E+03  0.00000000000E+00 0. -1.
          2   -1    0    0  501    0  0.00000000000E+00 -0.00000000000E+00 -0.39298569470E+02  0.39298569470E+02  0.00000000000E+00 0. -1.
         35    2    1    2    0    0 -0.71054273576E-14  0.00000000000E+00  0.44579624931E+03  0.52439338825E+03  0.27614150311E+03 0.  0.
         25    2    3    3    0    0  0.57626270061E+02  0.12090939467E+02  0.23677176683E+03  0.27363838565E+03  0.12389559601E+03 0.  0.
         25    2    3    3    0    0 -0.57626270061E+02 -0.12090939467E+02  0.20902448248E+03  0.25075500260E+03  0.12537886280E+03 0.  0.
          5    1    4    4  502    0  0.68378182611E+02 -0.33354741549E+02  0.82223525931E+02  0.11212008231E+03  0.47000000000E+01 0. -1.
         -5    1    4    4    0  502 -0.10751912550E+02  0.45445681016E+02  0.15454824090E+03  0.16151830333E+03  0.47000000000E+01 0. -1.
          5    1    5    5  503    0 -0.38680670982E+02  0.41959610874E+02  0.17463660340E+03  0.18378475589E+03  0.47000000000E+01 0. -1.
         -5    1    5    5    0  503 -0.18945599079E+02 -0.54050550341E+02  0.34387879078E+02  0.66970246708E+02  0.47000000000E+01 0. -1.
<mgrwt>
<rscale>  0 0.27614150E+03</rscale>
<asrwt>0</asrwt>
<pdfrwt beam="1">  1        2 0.60459341E-02 0.27614150E+03</pdfrwt>
<pdfrwt beam="2">  1       -2 0.74629968E-01 0.27614150E+03</pdfrwt>
<totfact> 0.20263513E+03</totfact>
</mgrwt>
</event>
<event>
 9    1  0.7926126E-001  0.2736784E+03  0.7818608E-02  0.1099193E+00
         -2   -1    0    0    0  501 -0.00000000000E+00  0.00000000000E+00  0.15151445439E+04  0.15151445439E+04  0.00000000000E+00 0.  1.
          2   -1    0    0  501    0  0.00000000000E+00 -0.00000000000E+00 -0.12358536108E+02  0.12358536108E+02  0.00000000000E+00 0.  1.
         35    2    1    2    0    0  0.00000000000E+00 -0.35527136788E-14  0.15027860078E+04  0.15275030800E+04  0.27367841387E+03 0.  0.
         25    2    3    3    0    0 -0.85007567327E+01  0.13954212514E+02  0.43784570701E+03  0.45508628932E+03  0.12299465299E+03 0.  0.
         25    2    3    3    0    0  0.85007567327E+01 -0.13954212514E+02  0.10649403008E+04  0.10724167907E+04  0.12535128966E+03 0.  0.
          5    1    4    4  502    0  0.44565111405E+02  0.39512215745E+02  0.28548542177E+03  0.29166981398E+03  0.47000000000E+01 0.  1.
         -5    1    4    4    0  502 -0.53065868138E+02 -0.25558003231E+02  0.15236028524E+03  0.16341647533E+03  0.47000000000E+01 0.  1.
          5    1    5    5  503    0  0.37886740712E+02  0.26740564332E+02  0.17661441398E+03  0.18266144675E+03  0.47000000000E+01 0.  1.
         -5    1    5    5    0  503 -0.29385983979E+02 -0.40694776845E+02  0.88832588677E+03  0.88975534391E+03  0.47000000000E+01 0.  1.
<mgrwt>
<rscale>  0 0.27367841E+03</rscale>
<asrwt>0</asrwt>
<pdfrwt beam="1">  1        2 0.19013144E-02 0.27367841E+03</pdfrwt>
<pdfrwt beam="2">  1       -2 0.23309901E+00 0.27367841E+03</pdfrwt>
<totfact> 0.53071184E+02</totfact>
</mgrwt>
</event>
<event>
 9    1  0.7926126E-001  0.2761166E+03  0.7818608E-02  0.1097829E+00
         -2   -1    0    0    0  501 -0.00000000000E+00  0.00000000000E+00  0.72652445495E+02  0.72652445495E+02  0.00000000000E+00 0.  1.
          2   -1    0    0  501    0  0.00000000000E+00 -0.00000000000E+00 -0.26234617647E+03  0.26234617647E+03  0.00000000000E+00 0.  1.
         35    2    1    2    0    0 -0.71054273576E-14  0.00000000000E+00 -0.18969373097E+03  0.33499862196E+03  0.27611657890E+03 0.  0.
         25    2    3    3    0    0 -0.58866711361E+02 -0.12458558283E+02 -0.11212022945E+03  0.17621093625E+03  0.12189685320E+03 0.  0.
         25    2    3    3    0    0  0.58866711361E+02  0.12458558283E+02 -0.77573501524E+02  0.15878768571E+03  0.12480134460E+03 0.  0.
          5    1    4    4  502    0 -0.13262087127E+02  0.44593284398E+02 -0.57777603954E+01  0.47115989681E+02  0.47000000000E+01 0.  1.
         -5    1    4    4    0  502 -0.45604624234E+02 -0.57051842681E+02 -0.10634246905E+03  0.12909494657E+03  0.47000000000E+01 0.  1.
          5    1    5    5  503    0  0.27190992325E+02 -0.52261184025E+02 -0.60526926475E+02  0.84594209304E+02  0.47000000000E+01 0.  1.
         -5    1    5    5    0  503  0.31675719037E+02  0.64719742308E+02 -0.17046575049E+02  0.74193476410E+02  0.47000000000E+01 0.  1.
<mgrwt>
<rscale>  0 0.27611658E+03</rscale>
<asrwt>0</asrwt>
<pdfrwt beam="1">  1        2 0.40360950E-01 0.27611658E+03</pdfrwt>
<pdfrwt beam="2">  1       -2 0.11177299E-01 0.27611658E+03</pdfrwt>
<totfact> 0.69680141E+03</totfact>
</mgrwt>
</event>
<event>
 9    1  0.7926126E-001  0.2878601E+03  0.7818608E-02  0.1091472E+00
         -1   -1    0    0    0  501 -0.00000000000E+00  0.00000000000E+00  0.54857679384E+02  0.54857679384E+02  0.00000000000E+00 0. -1.
          1   -1    0    0  501    0  0.00000000000E+00 -0.00000000000E+00 -0.37762905022E+03  0.37762905022E+03  0.00000000000E+00 0. -1.
         35    2    1    2    0    0 -0.71054273576E-14  0.00000000000E+00 -0.32277137084E+03  0.43248672961E+03  0.28786005880E+03 0.  0.
         25    2    3    3    0    0 -0.30228846460E+02 -0.34233293094E+02 -0.23985634082E+03  0.27475433491E+03  0.12598880428E+03 0.  0.
         25    2    3    3    0    0  0.30228846460E+02  0.34233293094E+02 -0.82915030014E+02  0.15773239470E+03  0.12617014156E+03 0.  0.
          5    1    4    4  502    0 -0.18554559363E+02 -0.66005693179E+02 -0.22870388053E+03  0.23880657063E+03  0.47000000000E+01 0.  1.
         -5    1    4    4    0  502 -0.11674287097E+02  0.31772400085E+02 -0.11152460296E+02  0.35947764285E+02  0.47000000000E+01 0.  1.
          5    1    5    5  503    0  0.46403712517E+02 -0.19778286393E+02  0.73602359336E+01  0.51193243900E+02  0.47000000000E+01 0. -1.
         -5    1    5    5    0  503 -0.16174866057E+02  0.54011579487E+02 -0.90275265948E+02  0.10653915080E+03  0.47000000000E+01 0. -1.
<mgrwt>
<rscale>  0 0.28786006E+03</rscale>
<asrwt>0</asrwt>
<pdfrwt beam="1">  1        1 0.58096777E-01 0.28786006E+03</pdfrwt>
<pdfrwt beam="2">  1       -1 0.84396429E-02 0.28786006E+03</pdfrwt>
<totfact> 0.51558500E+03</totfact>
</mgrwt>
</event>
<event>
 9    1  0.7926126E-001  0.2776652E+03  0.7818608E-02  0.1096971E+00
         -1   -1    0    0    0  501 -0.00000000000E+00  0.00000000000E+00  0.31572316791E+02  0.31572316791E+02  0.00000000000E+00 0.  1.
          1   -1    0    0  501    0  0.00000000000E+00 -0.00000000000E+00 -0.61048695315E+03  0.61048695315E+03  0.00000000000E+00 0.  1.
         35    2    1    2    0    0  0.71054273576E-14 -0.17763568394E-14 -0.57891463636E+03  0.64205926994E+03  0.27766517593E+03 0.  0.
         25    2    3    3    0    0 -0.59721618888E+02 -0.30638206012E+01 -0.26330279763E+03  0.29740826311E+03  0.12468862407E+03 0.  0.
         25    2    3    3    0    0  0.59721618888E+02  0.30638206012E+01 -0.31561183874E+03  0.34465100683E+03  0.12488965129E+03 0.  0.
          5    1    4    4  502    0  0.81857885125E+01 -0.28300524055E+02 -0.64892312253E+01  0.30530753630E+02  0.47000000000E+01 0.  1.
         -5    1    4    4    0  502 -0.67907407400E+02  0.25236703454E+02 -0.25681356640E+03  0.26687750948E+03  0.47000000000E+01 0.  1.
          5    1    5    5  503    0 -0.49229165974E+01  0.18374581384E+02  0.23993060449E+01  0.19740998413E+02  0.47000000000E+01 0. -1.
         -5    1    5    5    0  503  0.64644535485E+02 -0.15310760782E+02 -0.31801114478E+03  0.32491000842E+03  0.47000000000E+01 0. -1.
<mgrwt>
<rscale>  0 0.27766518E+03</rscale>
<asrwt>0</asrwt>
<pdfrwt beam="1">  1        1 0.93921069E-01 0.27766518E+03</pdfrwt>
<pdfrwt beam="2">  1       -1 0.48572796E-02 0.27766518E+03</pdfrwt>
<totfact> 0.62901552E+03</totfact>
</mgrwt>
</event>
<event>
 9    1  0.7926126E-001  0.2744772E+03  0.7818608E-02  0.1098744E+00
         -1   -1    0    0    0  501 -0.00000000000E+00  0.00000000000E+00  0.15181105881E+03  0.15181105881E+03  0.00000000000E+00 0. -1.
          1   -1    0    0  501    0  0.00000000000E+00 -0.00000000000E+00 -0.12406494222E+03  0.12406494222E+03  0.00000000000E+00 0. -1.
         35    2    1    2    0    0 -0.71054273576E-14  0.00000000000E+00  0.27746116581E+02  0.27587600103E+03  0.27447717748E+03 0.  0.
         25    2    3    3    0    0 -0.19517038937E+02  0.99014209779E+01 -0.39401726458E+02  0.13279004839E+03  0.12490695721E+03 0.  0.
         25    2    3    3    0    0  0.19517038937E+02 -0.99014209779E+01  0.67147843039E+02  0.14308595264E+03  0.12444197069E+03 0.  0.
          5    1    4    4  502    0  0.47896024769E+02 -0.19664462774E+02 -0.24784863997E+02  0.57594268536E+02  0.47000000000E+01 0.  1.
         -5    1    4    4    0  502 -0.67413063706E+02  0.29565883751E+02 -0.14616862460E+02  0.75195779858E+02  0.47000000000E+01 0.  1.
          5    1    5    5  503    0 -0.32354905818E+02 -0.49717149303E+02  0.21803800919E+02  0.63372948486E+02  0.47000000000E+01 0.  1.
         -5    1    5    5    0  503  0.51871944755E+02  0.39815728325E+02  0.45344042120E+02  0.79713004149E+02  0.47000000000E+01 0.  1.
<mgrwt>
<rscale>  0 0.27447718E+03</rscale>
<asrwt>0</asrwt>
<pdfrwt beam="1">  1        1 0.19086914E-01 0.27447718E+03</pdfrwt>
<pdfrwt beam="2">  1       -1 0.23355548E-01 0.27447718E+03</pdfrwt>
<totfact> 0.42083900E+03</totfact>
</mgrwt>
</event>
<event>
 9    1  0.7926126E-001  0.2762078E+03  0.7818608E-02  0.1097778E+00
         -2   -1    0    0    0  501 -0.00000000000E+00  0.00000000000E+00  0.17956733783E+02  0.17956733783E+02  0.00000000000E+00 0. -1.
          2   -1    0    0  501    0  0.00000000000E+00 -0.00000000000E+00 -0.10621467376E+04  0.10621467376E+04  0.00000000000E+00 0. -1.
         35    2    1    2    0    0  0.71054273576E-14 -0.71054273576E-14 -0.10441900038E+04  0.10801034714E+04  0.27620779283E+03 0.  0.
         25    2    3    3    0    0  0.46537079715E+02 -0.30206866334E+02 -0.56560772185E+03  0.58228641729E+03  0.12675654691E+03 0.  0.
         25    2    3    3    0    0 -0.46537079715E+02  0.30206866334E+02 -0.47858228199E+03  0.49781705411E+03  0.12531027160E+03 0.  0.
          5    1    4    4  502    0  0.22469283062E+02  0.37571372267E+01 -0.51938256358E+03  0.51990318532E+03  0.47000000000E+01 0. -1.
         -5    1    4    4    0  502  0.24067796652E+02 -0.33964003560E+02 -0.46225158270E+02  0.62383231967E+02  0.47000000000E+01 0. -1.
          5    1    5    5  503    0  0.97825044368E+01  0.64222670627E+02 -0.16537631560E+03  0.17774044159E+03  0.47000000000E+01 0. -1.
         -5    1    5    5    0  503 -0.56319584152E+02 -0.34015804294E+02 -0.31320596639E+03  0.32007661252E+03  0.47000000000E+01 0. -1.
<mgrwt>
<rscale>  0 0.27620779E+03</rscale>
<asrwt>0</asrwt>
<pdfrwt beam="1">  1        2 0.16340717E+00 0.27620779E+03</pdfrwt>
<pdfrwt beam="2">  1       -2 0.27625748E-02 0.27620779E+03</pdfrwt>
<totfact> 0.11504976E+04</totfact>
</mgrwt>
</event>
<event>
 9    1  0.7926126E-001  0.2725903E+03  0.7818608E-02  0.1099806E+00
         -2   -1    0    0    0  501 -0.00000000000E+00  0.00000000000E+00  0.11784412673E+02  0.11784412673E+02  0.00000000000E+00 0.  1.
          2   -1    0    0  501    0  0.00000000000E+00 -0.00000000000E+00 -0.15763507857E+04  0.15763507857E+04  0.00000000000E+00 0.  1.
         35    2    1    2    0    0 -0.71054273576E-14  0.00000000000E+00 -0.15645663731E+04  0.15881351984E+04  0.27259030193E+03 0.  0.
         25    2    3    3    0    0 -0.35255763502E+02  0.34260830439E+02 -0.92542876081E+03  0.93514589290E+03  0.12515061455E+03 0.  0.
         25    2    3    3    0    0  0.35255763502E+02 -0.34260830439E+02 -0.63913761226E+03  0.65298930551E+03  0.12442416302E+03 0.  0.
          5    1    4    4  502    0 -0.43616258520E+02  0.53322154669E+02 -0.89672561647E+03  0.89938009285E+03  0.47000000000E+01 0. -1.
         -5    1    4    4    0  502  0.83604950184E+01 -0.19061324230E+02 -0.28703144334E+02  0.35765800047E+02  0.47000000000E+01 0. -1.
          5    1    5    5  503    0 -0.19854845901E+02  0.20790668701E+02 -0.40789443814E+03  0.40893328243E+03  0.47000000000E+01 0. -1.
         -5    1    5    5    0  503  0.55110609402E+02 -0.55051499140E+02 -0.23124317412E+03  0.24405602308E+03  0.47000000000E+01 0. -1.
<mgrwt>
<rscale>  0 0.27259030E+03</rscale>
<asrwt>0</asrwt>
<pdfrwt beam="1">  1        2 0.24251550E+00 0.27259030E+03</pdfrwt>
<pdfrwt beam="2">  1       -2 0.18129866E-02 0.27259030E+03</pdfrwt>
<totfact> 0.11093455E+04</totfact>
</mgrwt>
</event>
<event>
 9    1  0.7926126E-001  0.2776305E+03  0.7818608E-02  0.1096990E+00
          2   -1    0    0  501    0  0.00000000000E+00  0.00000000000E+00  0.50652667290E+03  0.50652667290E+03  0.00000000000E+00 0. -1.
         -2   -1    0    0    0  501 -0.00000000000E+00 -0.00000000000E+00 -0.38042764241E+02  0.38042764241E+02  0.00000000000E+00 0. -1.
         35    2    1    2    0    0 -0.71054273576E-14 -0.53290705182E-14  0.46848390866E+03  0.54456943714E+03  0.27763050840E+03 0.  0.
         25    2    3    3    0    0 -0.37149471787E+02 -0.83462528440E+00  0.32927916461E+03  0.35390858503E+03  0.12428088532E+03 0.  0.
         25    2    3    3    0    0  0.37149471787E+02  0.83462528440E+00  0.13920474405E+03  0.19066085211E+03  0.12487121329E+03 0.  0.
          5    1    4    4  502    0 -0.62682837807E+02 -0.43061737666E+02  0.23983113226E+03  0.25164362382E+03  0.47000000000E+01 0.  1.
         -5    1    4    4    0  502  0.25533366020E+02  0.42227112382E+02  0.89448032353E+02  0.10226496121E+03  0.47000000000E+01 0.  1.
          5    1    5    5  503    0  0.67016921229E+02 -0.12526398925E+02  0.26648821357E+02  0.73351401355E+02  0.47000000000E+01 0. -1.
         -5    1    5    5    0  503 -0.29867449442E+02  0.13361024210E+02  0.11255592269E+03  0.11730945076E+03  0.47000000000E+01 0. -1.
<mgrwt>
<rscale>  0 0.27763051E+03</rscale>
<asrwt>0</asrwt>
<pdfrwt beam="1">  1        2 0.77927176E-01 0.27763051E+03</pdfrwt>
<pdfrwt beam="2">  1       -2 0.58527333E-02 0.27763051E+03</pdfrwt>
<totfact> 0.93849647E+03</totfact>
</mgrwt>
</event>
<event>
 9    1  0.7926126E-001  0.3262618E+03  0.7818608E-02  0.1072803E+00
         -4   -1    0    0    0  501 -0.00000000000E+00  0.00000000000E+00  0.21862386563E+03  0.21862386563E+03  0.00000000000E+00 0.  1.
          4   -1    0    0  501    0  0.00000000000E+00 -0.00000000000E+00 -0.12172361814E+03  0.12172361814E+03  0.00000000000E+00 0.  1.
         35    2    1    2    0    0  0.00000000000E+00 -0.71054273576E-14  0.96900247488E+02  0.34034748378E+03  0.32626178408E+03 0.  0.
         25    2    3    3    0    0  0.93684518470E+02 -0.41882085585E+02  0.24498305617E+02  0.16359248986E+03  0.12502574801E+03 0.  0.
         25    2    3    3    0    0 -0.93684518470E+02  0.41882085585E+02  0.72401941871E+02  0.17675499392E+03  0.12437599686E+03 0.  0.
          5    1    4    4  502    0  0.10962675532E+03 -0.35808826255E+01 -0.88714829834E+01  0.11014373070E+03  0.47000000000E+01 0.  1.
         -5    1    4    4    0  502 -0.15942236850E+02 -0.38301202959E+02  0.33369788601E+02  0.53448759155E+02  0.47000000000E+01 0.  1.
          5    1    5    5  503    0 -0.93072120177E+02  0.67341384689E+02  0.17829478216E+02  0.11634973975E+03  0.47000000000E+01 0. -1.
         -5    1    5    5    0  503 -0.61239829258E+00 -0.25459299104E+02  0.54572463655E+02  0.60405254174E+02  0.47000000000E+01 0. -1.
<mgrwt>
<rscale>  0 0.32626178E+03</rscale>
<asrwt>0</asrwt>
<pdfrwt beam="1">  1        4 0.18726711E-01 0.32626178E+03</pdfrwt>
<pdfrwt beam="2">  1       -4 0.33634441E-01 0.32626178E+03</pdfrwt>
<totfact> 0.41474962E+02</totfact>
</mgrwt>
</event>
<event>
 9    1  0.7926126E-001  0.2692795E+03  0.7818608E-02  0.1101693E+00
         -2   -1    0    0    0  501 -0.00000000000E+00  0.00000000000E+00  0.64832089138E+01  0.64832089138E+01  0.00000000000E+00 0.  1.
          2   -1    0    0  501    0  0.00000000000E+00 -0.00000000000E+00 -0.27961240028E+04  0.27961240028E+04  0.00000000000E+00 0.  1.
         35    2    1    2    0    0  0.14210854715E-13 -0.71054273576E-14 -0.27896407939E+04  0.28026072117E+04  0.26927945379E+03 0.  0.
         25    2    3    3    0    0 -0.38643784542E+02  0.10935951042E+02 -0.18155236026E+04  0.18203504117E+04  0.12624077274E+03 0.  0.
         25    2    3    3    0    0  0.38643784542E+02 -0.10935951042E+02 -0.97411719128E+03  0.98225680000E+03  0.11962935128E+03 0.  0.
          5    1    4    4  502    0  0.11843230763E+02 -0.47446146263E+02 -0.45825479360E+03  0.46088061878E+03  0.47000000000E+01 0.  1.
         -5    1    4    4    0  502 -0.50487015305E+02  0.58382097305E+02 -0.13572688090E+04  0.13594697929E+04  0.47000000000E+01 0.  1.
          5    1    5    5  503    0  0.72404499337E+02 -0.38684943882E+02 -0.62826776013E+03  0.63362560304E+03  0.47000000000E+01 0.  1.
         -5    1    5    5    0  503 -0.33760714795E+02  0.27748992840E+02 -0.34584943115E+03  0.34863119696E+03  0.47000000000E+01 0.  1.
<mgrwt>
<rscale>  0 0.26927945E+03</rscale>
<asrwt>0</asrwt>
<pdfrwt beam="1">  1        2 0.43017308E+00 0.26927945E+03</pdfrwt>
<pdfrwt beam="2">  1       -2 0.99741639E-03 0.26927945E+03</pdfrwt>
<totfact> 0.58619681E+03</totfact>
</mgrwt>
</event>
<event>
 9    1  0.7926126E-001  0.2758609E+03  0.7818608E-02  0.1097971E+00
         -1   -1    0    0    0  501 -0.00000000000E+00  0.00000000000E+00  0.23983885801E+02  0.23983885801E+02  0.00000000000E+00 0. -1.
          1   -1    0    0  501    0  0.00000000000E+00 -0.00000000000E+00 -0.79323312446E+03  0.79323312446E+03  0.00000000000E+00 0. -1.
         35    2    1    2    0    0  0.14210854715E-13 -0.35527136788E-14 -0.76924923866E+03  0.81721701026E+03  0.27586092634E+03 0.  0.
         25    2    3    3    0    0  0.58158867621E+02 -0.13777941437E+01 -0.31520705873E+03  0.34377518965E+03  0.12426398891E+03 0.  0.
         25    2    3    3    0    0 -0.58158867621E+02  0.13777941437E+01 -0.45404217992E+03  0.47344182061E+03  0.12086564507E+03 0.  0.
          5    1    4    4  502    0 -0.28490534154E+02 -0.22858064522E+02 -0.16430018635E+03  0.16837708539E+03  0.47000000000E+01 0. -1.
         -5    1    4    4    0  502  0.86649401775E+02  0.21480270379E+02 -0.15090687238E+03  0.17539810425E+03  0.47000000000E+01 0. -1.
          5    1    5    5  503    0 -0.35589453897E+02  0.47339377501E+02 -0.37130722361E+03  0.37603027830E+03  0.47000000000E+01 0.  1.
         -5    1    5    5    0  503 -0.22569413724E+02 -0.45961583358E+02 -0.82734956312E+02  0.97411542317E+02  0.47000000000E+01 0.  1.
<mgrwt>
<rscale>  0 0.27586093E+03</rscale>
<asrwt>0</asrwt>
<pdfrwt beam="1">  1        1 0.12203584E+00 0.27586093E+03</pdfrwt>
<pdfrwt beam="2">  1       -1 0.36898294E-02 0.27586093E+03</pdfrwt>
<totfact> 0.64641521E+03</totfact>
</mgrwt>
</event>
<event>
 9    1  0.7926126E-001  0.2770356E+03  0.7818608E-02  0.1097319E+00
         -2   -1    0    0    0  501 -0.00000000000E+00  0.00000000000E+00  0.11741216298E+02  0.11741216298E+02  0.00000000000E+00 0.  1.
          2   -1    0    0  501    0  0.00000000000E+00 -0.00000000000E+00 -0.16341735144E+04  0.16341735144E+04  0.00000000000E+00 0.  1.
         35    2    1    2    0    0 -0.35527136788E-14 -0.14210854715E-13 -0.16224322981E+04  0.16459147307E+04  0.27703562731E+03 0.  0.
         25    2    3    3    0    0  0.31709684508E+02  0.42332761562E+02 -0.10324714846E+04  0.10413688337E+04  0.12511640416E+03 0.  0.
         25    2    3    3    0    0 -0.31709684508E+02 -0.42332761562E+02 -0.58996081350E+03  0.60454589695E+03  0.12093144033E+03 0.  0.
          5    1    4    4  502    0 -0.19013016177E+02 -0.24870231801E+02 -0.59514579106E+03  0.59598710207E+03  0.47000000000E+01 0.  1.
         -5    1    4    4    0  502  0.50722700686E+02  0.67202993363E+02 -0.43732569352E+03  0.44538173165E+03  0.47000000000E+01 0.  1.
          5    1    5    5  503    0 -0.62120103281E+02 -0.40349875318E+02 -0.54497697281E+03  0.55000819136E+03  0.47000000000E+01 0. -1.
         -5    1    5    5    0  503  0.30410418773E+02 -0.19828862439E+01 -0.44983840688E+02  0.54537705589E+02  0.47000000000E+01 0. -1.
<mgrwt>
<rscale>  0 0.27703563E+03</rscale>
<asrwt>0</asrwt>
<pdfrwt beam="1">  1        2 0.25141128E+00 0.27703563E+03</pdfrwt>
<pdfrwt beam="2">  1       -2 0.18063412E-02 0.27703563E+03</pdfrwt>
<totfact> 0.10396992E+04</totfact>
</mgrwt>
</event>
<event>
 9    1  0.7926126E-001  0.2691670E+03  0.7818608E-02  0.1101757E+00
         -1   -1    0    0    0  501 -0.00000000000E+00  0.00000000000E+00  0.26757149822E+03  0.26757149822E+03  0.00000000000E+00 0.  1.
          1   -1    0    0  501    0  0.00000000000E+00 -0.00000000000E+00 -0.67692995363E+02  0.67692995363E+02  0.00000000000E+00 0.  1.
         35    2    1    2    0    0  0.17763568394E-14 -0.71054273576E-14  0.19987850286E+03  0.33526449359E+03  0.26916698303E+03 0.  0.
         25    2    3    3    0    0  0.64719529000E+01 -0.47503321242E+02  0.99520588980E+02  0.16690617564E+03  0.12511943148E+03 0.  0.
         25    2    3    3    0    0 -0.64719529000E+01  0.47503321242E+02  0.10035791388E+03  0.16835831795E+03  0.12638971730E+03 0.  0.
          5    1    4    4  502    0  0.28308157197E+01  0.39637930177E+02  0.87981726942E+01  0.40971659341E+02  0.47000000000E+01 0. -1.
         -5    1    4    4    0  502  0.36411371803E+01 -0.87141251419E+02  0.90722416286E+02  0.12593451630E+03  0.47000000000E+01 0. -1.
          5    1    5    5  503    0 -0.33045192754E+02 -0.27047975452E+02  0.33782062316E+01  0.43093851273E+02  0.47000000000E+01 0.  1.
         -5    1    5    5    0  503  0.26573239853E+02  0.74551296694E+02  0.96979707651E+02  0.12526446667E+03  0.47000000000E+01 0.  1.
<mgrwt>
<rscale>  0 0.26916698E+03</rscale>
<asrwt>0</asrwt>
<pdfrwt beam="1">  1        1 0.10414307E-01 0.26916698E+03</pdfrwt>
<pdfrwt beam="2">  1       -1 0.41164845E-01 0.26916698E+03</pdfrwt>
<totfact> 0.35413828E+03</totfact>
</mgrwt>
</event>
<event>
 9    1  0.7926126E-001  0.2715826E+03  0.7818608E-02  0.1100377E+00
         -2   -1    0    0    0  501 -0.00000000000E+00  0.00000000000E+00  0.68047947529E+02  0.68047947529E+02  0.00000000000E+00 0.  1.
          2   -1    0    0  501    0  0.00000000000E+00 -0.00000000000E+00 -0.27097467753E+03  0.27097467753E+03  0.00000000000E+00 0.  1.
         35    2    1    2    0    0  0.00000000000E+00  0.00000000000E+00 -0.20292673000E+03  0.33902262506E+03  0.27158255200E+03 0.  0.
         25    2    3    3    0    0 -0.10087550441E+02 -0.51679133480E+02 -0.10803188958E+03  0.17368551078E+03  0.12539248772E+03 0.  0.
         25    2    3    3    0    0  0.10087550441E+02  0.51679133480E+02 -0.94894840417E+02  0.16533711428E+03  0.12473507569E+03 0.  0.
          5    1    4    4  502    0 -0.10586529189E+02 -0.21179236116E+02 -0.13226191910E+03  0.13444679203E+03  0.47000000000E+01 0. -1.
         -5    1    4    4    0  502  0.49897874809E+00 -0.30499897363E+02  0.24230029517E+02  0.39238718753E+02  0.47000000000E+01 0. -1.
          5    1    5    5  503    0 -0.14363702891E+02  0.68286531584E+02 -0.11111622549E+03  0.13129459975E+03  0.47000000000E+01 0.  1.
         -5    1    5    5    0  503  0.24451253332E+02 -0.16607398105E+02  0.16221385075E+02  0.34042514523E+02  0.47000000000E+01 0.  1.
<mgrwt>
<rscale>  0 0.27158255E+03</rscale>
<asrwt>0</asrwt>
<pdfrwt beam="1">  1        2 0.41688412E-01 0.27158255E+03</pdfrwt>
<pdfrwt beam="2">  1       -2 0.10468915E-01 0.27158255E+03</pdfrwt>
<totfact> 0.74677900E+03</totfact>
</mgrwt>
</event>
<event>
 9    1  0.7926126E-001  0.2747377E+03  0.7818608E-02  0.1098598E+00
         -2   -1    0    0    0  501 -0.00000000000E+00  0.00000000000E+00  0.10656511030E+02  0.10656511030E+02  0.00000000000E+00 0. -1.
          2   -1    0    0  501    0  0.00000000000E+00 -0.00000000000E+00 -0.17707674318E+04  0.17707674318E+04  0.00000000000E+00 0. -1.
         35    2    1    2    0    0  0.00000000000E+00  0.71054273576E-14 -0.17601109208E+04  0.17814239429E+04  0.27473771251E+03 0.  0.
         25    2    3    3    0    0  0.47115815812E+01 -0.41454978256E+02 -0.57839271705E+03  0.59241647074E+03  0.12115455191E+03 0.  0.
         25    2    3    3    0    0 -0.47115815812E+01  0.41454978256E+02 -0.11817182038E+04  0.11890074721E+04  0.12466010368E+03 0.  0.
          5    1    4    4  502    0 -0.33009010818E+02 -0.67201925236E+01 -0.48142474908E+03  0.48262473497E+03  0.47000000000E+01 0.  1.
         -5    1    4    4    0  502  0.37720592399E+02 -0.34734785733E+02 -0.96967967972E+02  0.10979173577E+03  0.47000000000E+01 0.  1.
          5    1    5    5  503    0 -0.40836685296E+02  0.72660335430E+02 -0.74454004243E+03  0.74920566201E+03  0.47000000000E+01 0. -1.
         -5    1    5    5    0  503  0.36125103714E+02 -0.31205357174E+02 -0.43717816134E+03  0.43980181012E+03  0.47000000000E+01 0. -1.
<mgrwt>
<rscale>  0 0.27473771E+03</rscale>
<asrwt>0</asrwt>
<pdfrwt beam="1">  1        2 0.27242588E+00 0.27473771E+03</pdfrwt>
<pdfrwt beam="2">  1       -2 0.16394625E-02 0.27473771E+03</pdfrwt>
<totfact> 0.10154018E+04</totfact>
</mgrwt>
</event>
<event>
 9    1  0.7926126E-001  0.2759795E+03  0.7818608E-02  0.1097905E+00
          2   -1    0    0  501    0  0.00000000000E+00  0.00000000000E+00  0.28334586435E+03  0.28334586435E+03  0.00000000000E+00 0. -1.
         -2   -1    0    0    0  501 -0.00000000000E+00 -0.00000000000E+00 -0.67201151381E+02  0.67201151381E+02  0.00000000000E+00 0. -1.
         35    2    1    2    0    0  0.00000000000E+00  0.00000000000E+00  0.21614471297E+03  0.35054701573E+03  0.27597947984E+03 0.  0.
         25    2    3    3    0    0 -0.36149177133E+02 -0.32710123457E+02  0.63814392542E+02  0.14837664615E+03  0.12476633057E+03 0.  0.
         25    2    3    3    0    0  0.36149177133E+02  0.32710123457E+02  0.15233032042E+03  0.20217036958E+03  0.12365927636E+03 0.  0.
          5    1    4    4  502    0 -0.56068410649E+02 -0.35802782213E+02  0.91862545231E+02  0.11351794177E+03  0.47000000000E+01 0. -1.
         -5    1    4    4    0  502  0.19919233516E+02  0.30926587562E+01 -0.28048152689E+02  0.34858704384E+02  0.47000000000E+01 0. -1.
          5    1    5    5  503    0  0.28571573656E+02  0.26504884999E+02  0.17376295084E+03  0.17814178857E+03  0.47000000000E+01 0.  1.
         -5    1    5    5    0  503  0.75776034766E+01  0.62052384584E+01 -0.21432630414E+02  0.24028581008E+02  0.47000000000E+01 0.  1.
<mgrwt>
<rscale>  0 0.27597948E+03</rscale>
<asrwt>0</asrwt>
<pdfrwt beam="1">  1        2 0.43591671E-01 0.27597948E+03</pdfrwt>
<pdfrwt beam="2">  1       -2 0.10338639E-01 0.27597948E+03</pdfrwt>
<totfact> 0.72656240E+03</totfact>
</mgrwt>
</event>
<event>
 9    1  0.7926126E-001  0.2744858E+03  0.7818608E-02  0.1098739E+00
          1   -1    0    0  501    0  0.00000000000E+00  0.00000000000E+00  0.62839731651E+03  0.62839731651E+03  0.00000000000E+00 0. -1.
         -1   -1    0    0    0  501 -0.00000000000E+00 -0.00000000000E+00 -0.29974056570E+02  0.29974056570E+02  0.00000000000E+00 0. -1.
         35    2    1    2    0    0  0.14210854715E-13  0.00000000000E+00  0.59842325994E+03  0.65837137308E+03  0.27448582268E+03 0.  0.
         25    2    3    3    0    0  0.49636429777E+02 -0.83148366483E+01  0.26285470212E+03  0.29538489594E+03  0.12500692242E+03 0.  0.
         25    2    3    3    0    0 -0.49636429777E+02  0.83148366483E+01  0.33556855782E+03  0.36298647714E+03  0.12891863295E+03 0.  0.
          5    1    4    4  502    0  0.12525040288E+02 -0.64662017584E+02  0.14864315548E+03  0.16264971818E+03  0.47000000000E+01 0.  1.
         -5    1    4    4    0  502  0.37111389489E+02  0.56347180936E+02  0.11421154664E+03  0.13273517776E+03  0.47000000000E+01 0.  1.
          5    1    5    5  503    0  0.33284232936E+02 -0.19336190693E+02  0.44430955281E+02  0.58973962219E+02  0.47000000000E+01 0.  1.
         -5    1    5    5    0  503 -0.82920662713E+02  0.27651027341E+02  0.29113760254E+03  0.30401251493E+03  0.47000000000E+01 0.  1.
<mgrwt>
<rscale>  0 0.27448582E+03</rscale>
<asrwt>0</asrwt>
<pdfrwt beam="1">  1        1 0.96676501E-01 0.27448582E+03</pdfrwt>
<pdfrwt beam="2">  1       -1 0.46113938E-02 0.27448582E+03</pdfrwt>
<totfact> 0.65261167E+03</totfact>
</mgrwt>
</event>
<event>
 9    1  0.7926126E-001  0.2739302E+03  0.7818608E-02  0.1099051E+00
          2   -1    0    0  501    0  0.00000000000E+00  0.00000000000E+00  0.62271247802E+03  0.62271247802E+03  0.00000000000E+00 0.  1.
         -2   -1    0    0    0  501 -0.00000000000E+00 -0.00000000000E+00 -0.30125352394E+02  0.30125352394E+02  0.00000000000E+00 0.  1.
         35    2    1    2    0    0  0.88817841970E-15  0.00000000000E+00  0.59258712563E+03  0.65283783042E+03  0.27393015782E+03 0.  0.
         25    2    3    3    0    0  0.17129133573E+01 -0.50346157035E+02  0.23611406784E+03  0.27179742018E+03  0.12484516404E+03 0.  0.
         25    2    3    3    0    0 -0.17129133573E+01  0.50346157035E+02  0.35647305779E+03  0.38104041024E+03  0.12482421122E+03 0.  0.
          5    1    4    4  502    0 -0.15918170837E+02 -0.55800938348E+02  0.24424670405E+03  0.25108897889E+03  0.47000000000E+01 0. -1.
         -5    1    4    4    0  502  0.17631084194E+02  0.54547813124E+01 -0.81326362033E+01  0.20708441289E+02  0.47000000000E+01 0. -1.
          5    1    5    5  503    0  0.57137413244E+01  0.47877655484E+02  0.35802009495E+02  0.60239444042E+02  0.47000000000E+01 0. -1.
         -5    1    5    5    0  503 -0.74266546817E+01  0.24685015511E+01  0.32067104829E+03  0.32080096620E+03  0.47000000000E+01 0. -1.
<mgrwt>
<rscale>  0 0.27393016E+03</rscale>
<asrwt>0</asrwt>
<pdfrwt beam="1">  1        2 0.95801910E-01 0.27393016E+03</pdfrwt>
<pdfrwt beam="2">  1       -2 0.46346701E-02 0.27393016E+03</pdfrwt>
<totfact> 0.10564696E+04</totfact>
</mgrwt>
</event>
<event>
 9    1  0.7926126E-001  0.2749572E+03  0.7818608E-02  0.1098476E+00
          1   -1    0    0  501    0  0.00000000000E+00  0.00000000000E+00  0.70908015372E+03  0.70908015372E+03  0.00000000000E+00 0.  1.
         -1   -1    0    0    0  501 -0.00000000000E+00 -0.00000000000E+00 -0.26654757455E+02  0.26654757455E+02  0.00000000000E+00 0.  1.
         35    2    1    2    0    0  0.53290705182E-14  0.14210854715E-13  0.68242539626E+03  0.73573491117E+03  0.27495715676E+03 0.  0.
         25    2    3    3    0    0 -0.14108889837E+02  0.45691898274E+02  0.33068068494E+03  0.35809141037E+03  0.12881355693E+03 0.  0.
         25    2    3    3    0    0  0.14108889837E+02 -0.45691898274E+02  0.35174471132E+03  0.37764350080E+03  0.12885441946E+03 0.  0.
          5    1    4    4  502    0  0.52091120991E+02  0.40194178351E+02  0.11747561000E+03  0.13472811809E+03  0.47000000000E+01 0.  1.
         -5    1    4    4    0  502 -0.66200010828E+02  0.54977199236E+01  0.21320507494E+03  0.22336329228E+03  0.47000000000E+01 0.  1.
          5    1    5    5  503    0  0.24959525848E+02  0.41273877575E+02  0.10203229533E+03  0.11295658542E+03  0.47000000000E+01 0.  1.
         -5    1    5    5    0  503 -0.10850636011E+02 -0.86965775849E+02  0.24971241599E+03  0.26468691538E+03  0.47000000000E+01 0.  1.
<mgrwt>
<rscale>  0 0.27495716E+03</rscale>
<asrwt>0</asrwt>
<pdfrwt beam="1">  1        1 0.10908924E+00 0.27495716E+03</pdfrwt>
<pdfrwt beam="2">  1       -1 0.41007325E-02 0.27495716E+03</pdfrwt>
<totfact> 0.65363818E+03</totfact>
</mgrwt>
</event>
<event>
 9    1  0.7926126E-001  0.2742529E+03  0.7818608E-02  0.1098870E+00
          2   -1    0    0  501    0  0.00000000000E+00  0.00000000000E+00  0.92722139994E+03  0.92722139994E+03  0.00000000000E+00 0.  1.
         -2   -1    0    0    0  501 -0.00000000000E+00 -0.00000000000E+00 -0.20279585262E+02  0.20279585262E+02  0.00000000000E+00 0.  1.
         35    2    1    2    0    0  0.00000000000E+00 -0.35527136788E-14  0.90694181468E+03  0.94750098520E+03  0.27425291566E+03 0.  0.
         25    2    3    3    0    0 -0.38280760741E+02  0.16616566454E+02  0.52889997240E+03  0.54708734716E+03  0.13352100094E+03 0.  0.
         25    2    3    3    0    0  0.38280760741E+02 -0.16616566454E+02  0.37804184227E+03  0.40041363804E+03  0.12519552746E+03 0.  0.
          5    1    4    4  502    0 -0.98098841537E+01  0.58611246070E+02  0.11012766825E+03  0.12522661581E+03  0.47000000000E+01 0. -1.
         -5    1    4    4    0  502 -0.28470876587E+02 -0.41994679616E+02  0.41877230416E+03  0.42186073135E+03  0.47000000000E+01 0. -1.
          5    1    5    5  503    0  0.64104274224E+02 -0.10195343855E+02  0.89772280798E+02  0.11088036530E+03  0.47000000000E+01 0. -1.
         -5    1    5    5    0  503 -0.25823513483E+02 -0.64212225994E+01  0.28826956148E+03  0.28953327274E+03  0.47000000000E+01 0. -1.
<mgrwt>
<rscale>  0 0.27425292E+03</rscale>
<asrwt>0</asrwt>
<pdfrwt beam="1">  1        2 0.14264941E+00 0.27425292E+03</pdfrwt>
<pdfrwt beam="2">  1       -2 0.31199369E-02 0.27425292E+03</pdfrwt>
<totfact> 0.11618810E+04</totfact>
</mgrwt>
</event>
<event>
 9    1  0.7926126E-001  0.3087669E+03  0.7818608E-02  0.1080938E+00
         -2   -1    0    0    0  501 -0.00000000000E+00  0.00000000000E+00  0.10552265342E+03  0.10552265342E+03  0.00000000000E+00 0. -1.
          2   -1    0    0  501    0  0.00000000000E+00 -0.00000000000E+00 -0.22586852429E+03  0.22586852429E+03  0.00000000000E+00 0. -1.
         35    2    1    2    0    0  0.71054273576E-14 -0.71054273576E-14 -0.12034587087E+03  0.33139117771E+03  0.30876687651E+03 0.  0.
         25    2    3    3    0    0  0.38394734139E+02 -0.38996722785E+02 -0.13808458655E+03  0.19436614452E+03  0.12536325257E+03 0.  0.
         25    2    3    3    0    0 -0.38394734139E+02  0.38996722785E+02  0.17738715685E+02  0.13702503319E+03  0.12436357058E+03 0.  0.
          5    1    4    4  502    0  0.35495100748E+02 -0.54159501801E+02 -0.15676687482E+03  0.16967939431E+03  0.47000000000E+01 0.  1.
         -5    1    4    4    0  502  0.28996333906E+01  0.15162779017E+02  0.18682288265E+02  0.24686750214E+02  0.47000000000E+01 0.  1.
          5    1    5    5  503    0 -0.35265576455E+02 -0.29606780600E+02  0.43508460132E+02  0.63523998955E+02  0.47000000000E+01 0.  1.
         -5    1    5    5    0  503 -0.31291576842E+01  0.68603503385E+02 -0.25769744447E+02  0.73501034233E+02  0.47000000000E+01 0.  1.
<mgrwt>
<rscale>  0 0.30876688E+03</rscale>
<asrwt>0</asrwt>
<pdfrwt beam="1">  1        2 0.34749004E-01 0.30876688E+03</pdfrwt>
<pdfrwt beam="2">  1       -2 0.16234254E-01 0.30876688E+03</pdfrwt>
<totfact> 0.44653422E+03</totfact>
</mgrwt>
</event>
<event>
 9    1  0.7926126E-001  0.2788927E+03  0.7818608E-02  0.1096295E+00
          1   -1    0    0  501    0  0.00000000000E+00  0.00000000000E+00  0.28659215986E+03  0.28659215986E+03  0.00000000000E+00 0.  1.
         -1   -1    0    0    0  501 -0.00000000000E+00 -0.00000000000E+00 -0.67850004309E+02  0.67850004309E+02  0.00000000000E+00 0.  1.
         35    2    1    2    0    0  0.00000000000E+00  0.17763568394E-14  0.21874215555E+03  0.35444216417E+03  0.27889266237E+03 0.  0.
         25    2    3    3    0    0 -0.52925233929E+02 -0.14095433003E+02  0.74407353003E+02  0.15549541504E+03  0.12507041337E+03 0.  0.
         25    2    3    3    0    0  0.52925233929E+02  0.14095433003E+02  0.14433480255E+03  0.19894674913E+03  0.12548909173E+03 0.  0.
          5    1    4    4  502    0 -0.29276137766E+02  0.89850425238E+01 -0.31661654654E+02  0.44298686291E+02  0.47000000000E+01 0.  1.
         -5    1    4    4    0  502 -0.23649096162E+02 -0.23080475527E+02  0.10606900766E+03  0.11119672875E+03  0.47000000000E+01 0.  1.
          5    1    5    5  503    0  0.46764493050E+02 -0.46252474080E+02  0.37121820862E+02  0.75672509889E+02  0.47000000000E+01 0. -1.
         -5    1    5    5    0  503  0.61607408787E+01  0.60347907083E+02  0.10721298169E+03  0.12327423924E+03  0.47000000000E+01 0. -1.
<mgrwt>
<rscale>  0 0.27889266E+03</rscale>
<asrwt>0</asrwt>
<pdfrwt beam="1">  1        1 0.44091101E-01 0.27889266E+03</pdfrwt>
<pdfrwt beam="2">  1       -1 0.10438462E-01 0.27889266E+03</pdfrwt>
<totfact> 0.52625835E+03</totfact>
</mgrwt>
</event>
<event>
 9    1  0.7926126E-001  0.2752782E+03  0.7818608E-02  0.1098296E+00
         -1   -1    0    0    0  501 -0.00000000000E+00  0.00000000000E+00  0.14367791731E+03  0.14367791731E+03  0.00000000000E+00 0. -1.
          1   -1    0    0  501    0  0.00000000000E+00 -0.00000000000E+00 -0.13185407832E+03  0.13185407832E+03  0.00000000000E+00 0. -1.
         35    2    1    2    0    0  0.00000000000E+00  0.00000000000E+00  0.11823838984E+02  0.27553199563E+03  0.27527818193E+03 0.  0.
         25    2    3    3    0    0 -0.22459856500E+02  0.52500217252E+02  0.10227864581E+02  0.13788181916E+03  0.12508424711E+03 0.  0.
         25    2    3    3    0    0  0.22459856500E+02 -0.52500217252E+02  0.15959744036E+01  0.13765017647E+03  0.12523699926E+03 0.  0.
          5    1    4    4  502    0  0.44945745809E+02  0.32336213787E+02  0.31949190652E+02  0.64098296168E+02  0.47000000000E+01 0.  1.
         -5    1    4    4    0  502 -0.67405602309E+02  0.20164003465E+02 -0.21721326071E+02  0.73783522989E+02  0.47000000000E+01 0.  1.
          5    1    5    5  503    0 -0.47884818094E+02 -0.70849289039E+01  0.18620528689E+02  0.52076540881E+02  0.47000000000E+01 0. -1.
         -5    1    5    5    0  503  0.70344674594E+02 -0.45415288348E+02 -0.17024554285E+02  0.85573635590E+02  0.47000000000E+01 0. -1.
<mgrwt>
<rscale>  0 0.27527818E+03</rscale>
<asrwt>0</asrwt>
<pdfrwt beam="1">  1        1 0.20285243E-01 0.27527818E+03</pdfrwt>
<pdfrwt beam="2">  1       -1 0.22104295E-01 0.27527818E+03</pdfrwt>
<totfact> 0.42600504E+03</totfact>
</mgrwt>
</event>
<event>
 9    1  0.7926126E-001  0.2723329E+03  0.7818608E-02  0.1099952E+00
          1   -1    0    0  501    0  0.00000000000E+00  0.00000000000E+00  0.14359255224E+03  0.14359255224E+03  0.00000000000E+00 0.  1.
         -1   -1    0    0    0  501 -0.00000000000E+00 -0.00000000000E+00 -0.12912438027E+03  0.12912438027E+03  0.00000000000E+00 0.  1.
         35    2    1    2    0    0  0.71054273576E-14  0.00000000000E+00  0.14468171967E+02  0.27271693252E+03  0.27233287954E+03 0.  0.
         25    2    3    3    0    0 -0.44573739147E+02  0.27118137231E+02 -0.83454547904E+01  0.13562012599E+03  0.12490380446E+03 0.  0.
         25    2    3    3    0    0  0.44573739147E+02 -0.27118137231E+02  0.22813626757E+02  0.13709680653E+03  0.12471111100E+03 0.  0.
          5    1    4    4  502    0 -0.47942706397E+02  0.26786702143E+02  0.51536036726E+02  0.75459151796E+02  0.47000000000E+01 0.  1.
         -5    1    4    4    0  502  0.33689672501E+01  0.33143508777E+00 -0.59881491516E+02  0.60160974192E+02  0.47000000000E+01 0.  1.
          5    1    5    5  503    0  0.34209652510E+02  0.46085770782E+02 -0.53626012227E+01  0.57836373376E+02  0.47000000000E+01 0.  1.
         -5    1    5    5    0  503  0.10364086637E+02 -0.73203908013E+02  0.28176227980E+02  0.79260433152E+02  0.47000000000E+01 0.  1.
<mgrwt>
<rscale>  0 0.27233288E+03</rscale>
<asrwt>0</asrwt>
<pdfrwt beam="1">  1        1 0.22091162E-01 0.27233288E+03</pdfrwt>
<pdfrwt beam="2">  1       -1 0.19865289E-01 0.27233288E+03</pdfrwt>
<totfact> 0.45440704E+03</totfact>
</mgrwt>
</event>
<event>
 9    1  0.7926126E-001  0.2746878E+03  0.7818608E-02  0.1098626E+00
          3   -1    0    0  501    0  0.00000000000E+00  0.00000000000E+00  0.29667408043E+02  0.29667408043E+02  0.00000000000E+00 0. -1.
         -3   -1    0    0    0  501 -0.00000000000E+00 -0.00000000000E+00 -0.63582722021E+03  0.63582722021E+03  0.00000000000E+00 0. -1.
         35    2    1    2    0    0  0.00000000000E+00  0.35527136788E-14 -0.60615981217E+03  0.66549462825E+03  0.27468779068E+03 0.  0.
         25    2    3    3    0    0 -0.60600543843E+02 -0.96135811473E+01 -0.29403605841E+03  0.32549730956E+03  0.12540513558E+03 0.  0.
         25    2    3    3    0    0  0.60600543843E+02  0.96135811473E+01 -0.31212375376E+03  0.33999731869E+03  0.12005037360E+03 0.  0.
          5    1    4    4  502    0 -0.82868465423E+02  0.19862670718E+02 -0.26461586989E+03  0.27803840894E+03  0.47000000000E+01 0. -1.
         -5    1    4    4    0  502  0.22267921581E+02 -0.29476251865E+02 -0.29420188522E+02  0.47458900622E+02  0.47000000000E+01 0. -1.
          5    1    5    5  503    0  0.71899831148E+02  0.53121649035E+02 -0.21371618574E+03  0.23170712843E+03  0.47000000000E+01 0.  1.
         -5    1    5    5    0  503 -0.11299287305E+02 -0.43508067888E+02 -0.98407568015E+02  0.10829019026E+03  0.47000000000E+01 0.  1.
<mgrwt>
<rscale>  0 0.27468779E+03</rscale>
<asrwt>0</asrwt>
<pdfrwt beam="1">  1        3 0.45642166E-02 0.27468779E+03</pdfrwt>
<pdfrwt beam="2">  1       -3 0.97819573E-01 0.27468779E+03</pdfrwt>
<totfact> 0.63651449E+02</totfact>
</mgrwt>
</event>
<event>
 9    1  0.7926126E-001  0.2752479E+03  0.7818608E-02  0.1098313E+00
         -1   -1    0    0    0  501 -0.00000000000E+00  0.00000000000E+00  0.69512774219E+01  0.69512774219E+01  0.00000000000E+00 0. -1.
          1   -1    0    0  501    0  0.00000000000E+00 -0.00000000000E+00 -0.27247289402E+04  0.27247289402E+04  0.00000000000E+00 0. -1.
         35    2    1    2    0    0  0.35527136788E-14  0.00000000000E+00 -0.27177776628E+04  0.27316802177E+04  0.27524786475E+03 0.  0.
         25    2    3    3    0    0  0.11961333989E+02 -0.25011886019E+02 -0.86354167360E+03  0.87306146605E+03  0.12555251297E+03 0.  0.
         25    2    3    3    0    0 -0.11961333989E+02  0.25011886019E+02 -0.18542359892E+04  0.18586187516E+04  0.12451462630E+03 0.  0.
          5    1    4    4  502    0  0.13128437987E+02 -0.15058260793E+02 -0.86157443183E+03  0.86181883170E+03  0.47000000000E+01 0. -1.
         -5    1    4    4    0  502 -0.11671039976E+01 -0.99536252253E+01 -0.19672417693E+01  0.11242634346E+02  0.47000000000E+01 0. -1.
          5    1    5    5  503    0  0.29154609342E+02 -0.29389262169E+02 -0.12197986376E+04  0.12205099452E+04  0.47000000000E+01 0.  1.
         -5    1    5    5    0  503 -0.41115943331E+02  0.54401148188E+02 -0.63443735160E+03  0.63810880641E+03  0.47000000000E+01 0.  1.
<mgrwt>
<rscale>  0 0.27524786E+03</rscale>
<asrwt>0</asrwt>
<pdfrwt beam="1">  1        1 0.41918940E+00 0.27524786E+03</pdfrwt>
<pdfrwt beam="2">  1       -1 0.10694264E-02 0.27524786E+03</pdfrwt>
<totfact> 0.19116542E+03</totfact>
</mgrwt>
</event>
<event>
 9    1  0.7926126E-001  0.2744781E+03  0.7818608E-02  0.1098744E+00
          2   -1    0    0  501    0  0.00000000000E+00  0.00000000000E+00  0.19701056207E+04  0.19701056207E+04  0.00000000000E+00 0.  1.
         -2   -1    0    0    0  501 -0.00000000000E+00 -0.00000000000E+00 -0.95601773506E+01  0.95601773506E+01  0.00000000000E+00 0.  1.
         35    2    1    2    0    0 -0.71054273576E-14 -0.17763568394E-14  0.19605454433E+04  0.19796657980E+04  0.27447811667E+03 0.  0.
         25    2    3    3    0    0 -0.27634541182E+02 -0.66292742710E+00  0.13362216905E+04  0.13422308072E+04  0.12381852098E+03 0.  0.
         25    2    3    3    0    0  0.27634541182E+02  0.66292742710E+00  0.62432375278E+03  0.63743499084E+03  0.12561493511E+03 0.  0.
          5    1    4    4  502    0 -0.59978223564E+02  0.38956317536E+02  0.93345725339E+03  0.93620484718E+03  0.47000000000E+01 0. -1.
         -5    1    4    4    0  502  0.32343682381E+02 -0.39619244963E+02  0.40276443715E+03  0.40602596000E+03  0.47000000000E+01 0. -1.
          5    1    5    5  503    0  0.37089733582E+02 -0.11445201957E+02  0.52877298715E+02  0.65762753169E+02  0.47000000000E+01 0.  1.
         -5    1    5    5    0  503 -0.94551923991E+01  0.12108129384E+02  0.57144645407E+03  0.57167223768E+03  0.47000000000E+01 0.  1.
<mgrwt>
<rscale>  0 0.27447812E+03</rscale>
<asrwt>0</asrwt>
<pdfrwt beam="1">  1        2 0.30309285E+00 0.27447812E+03</pdfrwt>
<pdfrwt beam="2">  1       -2 0.14707981E-02 0.27447812E+03</pdfrwt>
<totfact> 0.93537725E+03</totfact>
</mgrwt>
</event>
<event>
 9    1  0.7926126E-001  0.2752968E+03  0.7818608E-02  0.1098286E+00
         -1   -1    0    0    0  501 -0.00000000000E+00  0.00000000000E+00  0.34409720277E+02  0.34409720277E+02  0.00000000000E+00 0.  1.
          1   -1    0    0  501    0  0.00000000000E+00 -0.00000000000E+00 -0.55063158788E+03  0.55063158788E+03  0.00000000000E+00 0.  1.
         35    2    1    2    0    0  0.00000000000E+00  0.00000000000E+00 -0.51622186761E+03  0.58504130816E+03  0.27529677742E+03 0.  0.
         25    2    3    3    0    0  0.43958063486E+02  0.25099449683E+02 -0.20524812621E+03  0.24586057086E+03  0.12553220014E+03 0.  0.
         25    2    3    3    0    0 -0.43958063486E+02 -0.25099449683E+02 -0.31097374140E+03  0.33918073730E+03  0.12560497998E+03 0.  0.
          5    1    4    4  502    0  0.78607007491E+02 -0.10918635800E+02 -0.89587532058E+02  0.11977601652E+03  0.47000000000E+01 0. -1.
         -5    1    4    4    0  502 -0.34648944004E+02  0.36018085483E+02 -0.11566059415E+03  0.12608455434E+03  0.47000000000E+01 0. -1.
          5    1    5    5  503    0  0.27580954055E+02 -0.23933526547E+02 -0.25367937594E+02  0.44711799084E+02  0.47000000000E+01 0. -1.
         -5    1    5    5    0  503 -0.71539017542E+02 -0.11659231363E+01 -0.28560580380E+03  0.29446893821E+03  0.47000000000E+01 0. -1.
<mgrwt>
<rscale>  0 0.27529678E+03</rscale>
<asrwt>0</asrwt>
<pdfrwt beam="1">  1        1 0.84712543E-01 0.27529678E+03</pdfrwt>
<pdfrwt beam="2">  1       -1 0.52938037E-02 0.27529678E+03</pdfrwt>
<totfact> 0.63710269E+03</totfact>
</mgrwt>
</event>
<event>
 9    1  0.7926126E-001  0.2759639E+03  0.7818608E-02  0.1097914E+00
          2   -1    0    0  501    0  0.00000000000E+00  0.00000000000E+00  0.11743342939E+04  0.11743342939E+04  0.00000000000E+00 0.  1.
         -2   -1    0    0    0  501 -0.00000000000E+00 -0.00000000000E+00 -0.16212608434E+02  0.16212608434E+02  0.00000000000E+00 0.  1.
         35    2    1    2    0    0  0.71054273576E-14  0.71054273576E-14  0.11581216855E+04  0.11905469023E+04  0.27596392574E+03 0.  0.
         25    2    3    3    0    0 -0.96977596414E+01 -0.11212321852E+02  0.73483475733E+03  0.74543697330E+03  0.12439613292E+03 0.  0.
         25    2    3    3    0    0  0.96977596414E+01  0.11212321852E+02  0.42328692813E+03  0.44510992902E+03  0.13686220328E+03 0.  0.
          5    1    4    4  502    0 -0.36103471408E+02  0.36036536983E+02  0.56041202025E+03  0.56274844743E+03  0.47000000000E+01 0. -1.
         -5    1    4    4    0  502  0.26405711766E+02 -0.47248858835E+02  0.17442273708E+03  0.18268852587E+03  0.47000000000E+01 0. -1.
          5    1    5    5  503    0  0.50697379236E+02  0.53766294478E+02  0.17853607580E+03  0.19328284726E+03  0.47000000000E+01 0.  1.
         -5    1    5    5    0  503 -0.40999619595E+02 -0.42553972626E+02  0.24475085232E+03  0.25182708176E+03  0.47000000000E+01 0.  1.
<mgrwt>
<rscale>  0 0.27596393E+03</rscale>
<asrwt>0</asrwt>
<pdfrwt beam="1">  1        2 0.18066675E+00 0.27596393E+03</pdfrwt>
<pdfrwt beam="2">  1       -2 0.24942484E-02 0.27596393E+03</pdfrwt>
<totfact> 0.11511704E+04</totfact>
</mgrwt>
</event>
<event>
 9    1  0.7926126E-001  0.2744729E+03  0.7818608E-02  0.1098747E+00
          2   -1    0    0  501    0  0.00000000000E+00  0.00000000000E+00  0.32830426902E+03  0.32830426902E+03  0.00000000000E+00 0. -1.
         -2   -1    0    0    0  501 -0.00000000000E+00 -0.00000000000E+00 -0.57367026452E+02  0.57367026452E+02  0.00000000000E+00 0. -1.
         35    2    1    2    0    0 -0.71054273576E-14  0.17763568394E-14  0.27093724257E+03  0.38567129547E+03  0.27447287432E+03 0.  0.
         25    2    3    3    0    0 -0.44776327458E+02  0.65560270182E+01  0.17431177116E+03  0.21962415298E+03  0.12570709613E+03 0.  0.
         25    2    3    3    0    0  0.44776327458E+02 -0.65560270182E+01  0.96625471407E+02  0.16604714249E+03  0.12722920582E+03 0.  0.
          5    1    4    4  502    0 -0.30356011417E+02 -0.41975370030E+02  0.15781962041E+03  0.16617021907E+03  0.47000000000E+01 0. -1.
         -5    1    4    4    0  502 -0.14420316041E+02  0.48531397048E+02  0.16492150745E+02  0.53453933909E+02  0.47000000000E+01 0. -1.
          5    1    5    5  503    0  0.73816203763E+02 -0.37675182013E+01  0.11080037802E+03  0.13327355290E+03  0.47000000000E+01 0.  1.
         -5    1    5    5    0  503 -0.29039876305E+02 -0.27885088169E+01 -0.14174906617E+02  0.32773589594E+02  0.47000000000E+01 0.  1.
<mgrwt>
<rscale>  0 0.27447287E+03</rscale>
<asrwt>0</asrwt>
<pdfrwt beam="1">  1        2 0.50508348E-01 0.27447287E+03</pdfrwt>
<pdfrwt beam="2">  1       -2 0.88256966E-02 0.27447287E+03</pdfrwt>
<totfact> 0.79652025E+03</totfact>
</mgrwt>
</event>
<event>
 9    1  0.7926126E-001  0.2703589E+03  0.7818608E-02  0.1101074E+00
         -1   -1    0    0    0  501 -0.00000000000E+00  0.00000000000E+00  0.68502680652E+03  0.68502680652E+03  0.00000000000E+00 0. -1.
          1   -1    0    0  501    0  0.00000000000E+00 -0.00000000000E+00 -0.26675569926E+02  0.26675569926E+02  0.00000000000E+00 0. -1.
         35    2    1    2    0    0  0.00000000000E+00  0.00000000000E+00  0.65835123660E+03  0.71170237645E+03  0.27035887615E+03 0.  0.
         25    2    3    3    0    0 -0.42216692356E+02  0.29697593592E+02  0.32215229769E+03  0.34927499896E+03  0.12468651014E+03 0.  0.
         25    2    3    3    0    0  0.42216692356E+02 -0.29697593592E+02  0.33619893890E+03  0.36242737749E+03  0.12513864812E+03 0.  0.
          5    1    4    4  502    0 -0.16813005024E+02 -0.20413476278E+02  0.52145339060E+01  0.27361807607E+02  0.47000000000E+01 0. -1.
         -5    1    4    4    0  502 -0.25403687332E+02  0.50111069869E+02  0.31693776379E+03  0.32191319135E+03  0.47000000000E+01 0. -1.
          5    1    5    5  503    0  0.85439873503E+02 -0.61261633891E+01  0.22056009020E+03  0.23665659774E+03  0.47000000000E+01 0.  1.
         -5    1    5    5    0  503 -0.43223181147E+02 -0.23571430202E+02  0.11563884870E+03  0.12577077975E+03  0.47000000000E+01 0.  1.
<mgrwt>
<rscale>  0 0.27035888E+03</rscale>
<asrwt>0</asrwt>
<pdfrwt beam="1">  1        1 0.41039344E-02 0.27035888E+03</pdfrwt>
<pdfrwt beam="2">  1       -1 0.10538873E+00 0.27035888E+03</pdfrwt>
<totfact> 0.19606398E+03</totfact>
</mgrwt>
</event>
<event>
 9    1  0.7926126E-001  0.2747383E+03  0.7818608E-02  0.1098598E+00
          1   -1    0    0  501    0  0.00000000000E+00  0.00000000000E+00  0.10356577702E+04  0.10356577702E+04  0.00000000000E+00 0.  1.
         -1   -1    0    0    0  501 -0.00000000000E+00 -0.00000000000E+00 -0.18220572310E+02  0.18220572310E+02  0.00000000000E+00 0.  1.
         35    2    1    2    0    0  0.35527136788E-14  0.00000000000E+00  0.10174371978E+04  0.10538783425E+04  0.27473825572E+03 0.  0.
         25    2    3    3    0    0 -0.16993175792E+02  0.34832515599E+02  0.36386164696E+03  0.38688986741E+03  0.12564393822E+03 0.  0.
         25    2    3    3    0    0  0.16993175792E+02 -0.34832515599E+02  0.65357555089E+03  0.66698847506E+03  0.12732066985E+03 0.  0.
          5    1    4    4  502    0  0.23179024555E+02  0.72377417588E+02  0.22018956172E+03  0.23298345616E+03  0.47000000000E+01 0. -1.
         -5    1    4    4    0  502 -0.40172200347E+02 -0.37544901989E+02  0.14367208524E+03  0.15390641125E+03  0.47000000000E+01 0. -1.
          5    1    5    5  503    0  0.62580605691E+02 -0.41531022115E+02  0.52415950062E+03  0.52953416330E+03  0.47000000000E+01 0.  1.
         -5    1    5    5    0  503 -0.45587429898E+02  0.66985065163E+01  0.12941605027E+03  0.13745431176E+03  0.47000000000E+01 0.  1.
<mgrwt>
<rscale>  0 0.27473826E+03</rscale>
<asrwt>0</asrwt>
<pdfrwt beam="1">  1        1 0.15933192E+00 0.27473826E+03</pdfrwt>
<pdfrwt beam="2">  1       -1 0.28031658E-02 0.27473826E+03</pdfrwt>
<totfact> 0.62685461E+03</totfact>
</mgrwt>
</event>
<event>
 9    1  0.7926126E-001  0.2754625E+03  0.7818608E-02  0.1098193E+00
         -1   -1    0    0    0  501 -0.00000000000E+00  0.00000000000E+00  0.46611465844E+03  0.46611465844E+03  0.00000000000E+00 0. -1.
          1   -1    0    0  501    0  0.00000000000E+00 -0.00000000000E+00 -0.40697917936E+02  0.40697917936E+02  0.00000000000E+00 0. -1.
         35    2    1    2    0    0  0.00000000000E+00  0.00000000000E+00  0.42541674051E+03  0.50681257638E+03  0.27546249195E+03 0.  0.
         25    2    3    3    0    0 -0.51761519957E+02 -0.86029972281E+01  0.17119238891E+03  0.21838703454E+03  0.12503118140E+03 0.  0.
         25    2    3    3    0    0  0.51761519957E+02  0.86029972281E+01  0.25422435159E+03  0.28842554184E+03  0.12572193816E+03 0.  0.
          5    1    4    4  502    0  0.29486363632E+02  0.52817570469E+01  0.11397219184E+03  0.11793681830E+03  0.47000000000E+01 0. -1.
         -5    1    4    4    0  502 -0.81247883589E+02 -0.13884754275E+02  0.57220197072E+02  0.10045021624E+03  0.47000000000E+01 0. -1.
          5    1    5    5  503    0  0.66102135056E+02  0.45132472304E+02  0.22615857305E+03  0.23995045839E+03  0.47000000000E+01 0. -1.
         -5    1    5    5    0  503 -0.14340615099E+02 -0.36529475076E+02  0.28065778539E+02  0.48475083453E+02  0.47000000000E+01 0. -1.
<mgrwt>
<rscale>  0 0.27546249E+03</rscale>
<asrwt>0</asrwt>
<pdfrwt beam="1">  1        1 0.62612185E-02 0.27546249E+03</pdfrwt>
<pdfrwt beam="2">  1       -1 0.71709943E-01 0.27546249E+03</pdfrwt>
<totfact> 0.24821678E+03</totfact>
</mgrwt>
</event>
<event>
 9    1  0.7926126E-001  0.3006490E+03  0.7818608E-02  0.1084917E+00
          2   -1    0    0  501    0  0.00000000000E+00  0.00000000000E+00  0.86877705050E+03  0.86877705050E+03  0.00000000000E+00 0.  1.
         -2   -1    0    0    0  501 -0.00000000000E+00 -0.00000000000E+00 -0.26010658030E+02  0.26010658030E+02  0.00000000000E+00 0.  1.
         35    2    1    2    0    0  0.00000000000E+00 -0.71054273576E-14  0.84276639247E+03  0.89478770853E+03  0.30064904966E+03 0.  0.
         25    2    3    3    0    0 -0.59552044870E+02 -0.45707037641E+02  0.54928676813E+03  0.56862337939E+03  0.12641603778E+03 0.  0.
         25    2    3    3    0    0  0.59552044870E+02  0.45707037641E+02  0.29347962434E+03  0.32616432914E+03  0.12090202795E+03 0.  0.
          5    1    4    4  502    0 -0.22153612118E+01 -0.24550158515E+02  0.45787957782E+03  0.45856669732E+03  0.47000000000E+01 0. -1.
         -5    1    4    4    0  502 -0.57336683658E+02 -0.21156879127E+02  0.91407190311E+02  0.11005668207E+03  0.47000000000E+01 0. -1.
          5    1    5    5  503    0  0.81304411915E+01  0.70275200815E+02  0.23022126051E+03  0.24089131723E+03  0.47000000000E+01 0.  1.
         -5    1    5    5    0  503  0.51421603678E+02 -0.24568163173E+02  0.63258363826E+02  0.85273011912E+02  0.47000000000E+01 0.  1.
<mgrwt>
<rscale>  0 0.30064905E+03</rscale>
<asrwt>0</asrwt>
<pdfrwt beam="1">  1        2 0.13365799E+00 0.30064905E+03</pdfrwt>
<pdfrwt beam="2">  1       -2 0.40016404E-02 0.30064905E+03</pdfrwt>
<totfact> 0.87539208E+03</totfact>
</mgrwt>
</event>
<event>
 9    1  0.7926126E-001  0.2716450E+03  0.7818608E-02  0.1100342E+00
         -2   -1    0    0    0  501 -0.00000000000E+00  0.00000000000E+00  0.44431736189E+02  0.44431736189E+02  0.00000000000E+00 0. -1.
          2   -1    0    0  501    0  0.00000000000E+00 -0.00000000000E+00 -0.41519299591E+03  0.41519299591E+03  0.00000000000E+00 0. -1.
         35    2    1    2    0    0 -0.35527136788E-14 -0.44408920985E-14 -0.37076125972E+03  0.45962473210E+03  0.27164495697E+03 0.  0.
         25    2    3    3    0    0 -0.31764532265E+02 -0.78758206614E+01 -0.25551775228E+03  0.28634864096E+03  0.12504082690E+03 0.  0.
         25    2    3    3    0    0  0.31764532265E+02  0.78758206614E+01 -0.11524350744E+03  0.17327609113E+03  0.12518995043E+03 0.  0.
          5    1    4    4  502    0 -0.69554800678E+01 -0.50942647985E+02 -0.21764627626E+03  0.22368621696E+03  0.47000000000E+01 0. -1.
         -5    1    4    4    0  502 -0.24809052197E+02  0.43066827324E+02 -0.37871476013E+02  0.62662424004E+02  0.47000000000E+01 0. -1.
          5    1    5    5  503    0  0.40187488309E+02  0.12177042440E+02 -0.14006580234E+03  0.14630049065E+03  0.47000000000E+01 0. -1.
         -5    1    5    5    0  503 -0.84229560433E+01 -0.43012217785E+01  0.24822294899E+02  0.26975600482E+02  0.47000000000E+01 0. -1.
<mgrwt>
<rscale>  0 0.27164496E+03</rscale>
<asrwt>0</asrwt>
<pdfrwt beam="1">  1        2 0.63875847E-01 0.27164496E+03</pdfrwt>
<pdfrwt beam="2">  1       -2 0.68356515E-02 0.27164496E+03</pdfrwt>
<totfact> 0.91978888E+03</totfact>
</mgrwt>
</event>
<event>
 9    1  0.7926126E-001  0.2760756E+03  0.7818608E-02  0.1097852E+00
          1   -1    0    0  501    0  0.00000000000E+00  0.00000000000E+00  0.22295079748E+02  0.22295079748E+02  0.00000000000E+00 0. -1.
         -1   -1    0    0    0  501 -0.00000000000E+00 -0.00000000000E+00 -0.85464726413E+03  0.85464726413E+03  0.00000000000E+00 0. -1.
         35    2    1    2    0    0  0.71054273576E-14  0.35527136788E-14 -0.83235218438E+03  0.87694234388E+03  0.27607556147E+03 0.  0.
         25    2    3    3    0    0 -0.18494466268E+02 -0.10707971251E+02 -0.58879805726E+03  0.60231741638E+03  0.12508561832E+03 0.  0.
         25    2    3    3    0    0  0.18494466268E+02  0.10707971251E+02 -0.24355412713E+03  0.27462492750E+03  0.12507410617E+03 0.  0.
          5    1    4    4  502    0  0.27469358452E+02  0.28052195368E+02 -0.73140296091E+02  0.83144959144E+02  0.47000000000E+01 0. -1.
         -5    1    4    4    0  502 -0.45963824720E+02 -0.38760166619E+02 -0.51565776117E+03  0.51917245723E+03  0.47000000000E+01 0. -1.
          5    1    5    5  503    0 -0.41723978358E+02 -0.12114743176E+02 -0.34060687596E+02  0.55406478067E+02  0.47000000000E+01 0.  1.
         -5    1    5    5    0  503  0.60218444626E+02  0.22822714427E+02 -0.20949343953E+03  0.21921844944E+03  0.47000000000E+01 0.  1.
<mgrwt>
<rscale>  0 0.27607556E+03</rscale>
<asrwt>0</asrwt>
<pdfrwt beam="1">  1        1 0.34300120E-02 0.27607556E+03</pdfrwt>
<pdfrwt beam="2">  1       -1 0.13148420E+00 0.27607556E+03</pdfrwt>
<totfact> 0.14932440E+03</totfact>
</mgrwt>
</event>
<event>
 9    1  0.7926126E-001  0.2752457E+03  0.7818608E-02  0.1098314E+00
         -2   -1    0    0    0  501 -0.00000000000E+00  0.00000000000E+00  0.62409379662E+02  0.62409379662E+02  0.00000000000E+00 0. -1.
          2   -1    0    0  501    0  0.00000000000E+00 -0.00000000000E+00 -0.30348072075E+03  0.30348072075E+03  0.00000000000E+00 0. -1.
         35    2    1    2    0    0 -0.35527136788E-14 -0.71054273576E-14 -0.24107134109E+03  0.36589010042E+03  0.27524566134E+03 0.  0.
         25    2    3    3    0    0  0.12616162322E+02  0.56540309682E+02 -0.11598472229E+03  0.17982143413E+03  0.12460866020E+03 0.  0.
         25    2    3    3    0    0 -0.12616162322E+02 -0.56540309682E+02 -0.12508661880E+03  0.18606866629E+03  0.12497564642E+03 0.  0.
          5    1    4    4  502    0 -0.13195387948E+02  0.43438502179E+02  0.13070917632E+02  0.47475895172E+02  0.47000000000E+01 0. -1.
         -5    1    4    4    0  502  0.25811550269E+02  0.13101807503E+02 -0.12905563992E+03  0.13234553896E+03  0.47000000000E+01 0. -1.
          5    1    5    5  503    0 -0.38623829256E+02 -0.64463238534E+02 -0.20688227057E+02  0.78085863301E+02  0.47000000000E+01 0.  1.
         -5    1    5    5    0  503  0.26007666935E+02  0.79229288518E+01 -0.10439839175E+03  0.10798280299E+03  0.47000000000E+01 0.  1.
<mgrwt>
<rscale>  0 0.27524566E+03</rscale>
<asrwt>0</asrwt>
<pdfrwt beam="1">  1        2 0.46689342E-01 0.27524566E+03</pdfrwt>
<pdfrwt beam="2">  1       -2 0.96014429E-02 0.27524566E+03</pdfrwt>
<totfact> 0.75895306E+03</totfact>
</mgrwt>
</event>
<event>
 9    1  0.7926126E-001  0.2749681E+03  0.7818608E-02  0.1098469E+00
         -2   -1    0    0    0  501 -0.00000000000E+00  0.00000000000E+00  0.90186565713E+01  0.90186565713E+01  0.00000000000E+00 0. -1.
          2   -1    0    0  501    0  0.00000000000E+00 -0.00000000000E+00 -0.20958631321E+04  0.20958631321E+04  0.00000000000E+00 0. -1.
         35    2    1    2    0    0  0.00000000000E+00 -0.71054273576E-14 -0.20868444756E+04  0.21048817887E+04  0.27496814222E+03 0.  0.
         25    2    3    3    0    0  0.19327924802E+02 -0.51173772456E+02 -0.11703085645E+04  0.11782384757E+04  0.12502578051E+03 0.  0.
         25    2    3    3    0    0 -0.19327924802E+02  0.51173772456E+02 -0.91653591108E+03  0.92664331304E+03  0.12504970860E+03 0.  0.
          5    1    4    4  502    0  0.21594282016E+02 -0.46468727551E+02 -0.11700778561E+04  0.11712087496E+04  0.47000000000E+01 0.  1.
         -5    1    4    4    0  502 -0.22663572146E+01 -0.47050449051E+01 -0.23070833688E+00  0.70297260914E+01  0.47000000000E+01 0.  1.
          5    1    5    5  503    0 -0.59944736840E+02  0.28030368949E+02 -0.76785652910E+03  0.77071707671E+03  0.47000000000E+01 0. -1.
         -5    1    5    5    0  503  0.40616812038E+02  0.23143403507E+02 -0.14867938199E+03  0.15592623633E+03  0.47000000000E+01 0. -1.
<mgrwt>
<rscale>  0 0.27496814E+03</rscale>
<asrwt>0</asrwt>
<pdfrwt beam="1">  1        2 0.32244068E+00 0.27496814E+03</pdfrwt>
<pdfrwt beam="2">  1       -2 0.13874848E-02 0.27496814E+03</pdfrwt>
<totfact> 0.87447937E+03</totfact>
</mgrwt>
</event>
<event>
 9    1  0.7926126E-001  0.2743454E+03  0.7818608E-02  0.1098818E+00
          2   -1    0    0  501    0  0.00000000000E+00  0.00000000000E+00  0.74212791320E+03  0.74212791320E+03  0.00000000000E+00 0. -1.
         -2   -1    0    0    0  501 -0.00000000000E+00 -0.00000000000E+00 -0.25354583524E+02  0.25354583524E+02  0.00000000000E+00 0. -1.
         35    2    1    2    0    0  0.00000000000E+00  0.17763568394E-14  0.71677332968E+03  0.76748249672E+03  0.27434536016E+03 0.  0.
         25    2    3    3    0    0  0.41809392859E+02  0.84748097549E+01  0.25145687498E+03  0.28388512712E+03  0.12466097102E+03 0.  0.
         25    2    3    3    0    0 -0.41809392859E+02 -0.84748097549E+01  0.46531645470E+03  0.48359736960E+03  0.12460804607E+03 0.  0.
          5    1    4    4  502    0  0.15051865857E+02  0.21582681549E+01  0.25524192119E+03  0.25573764901E+03  0.47000000000E+01 0. -1.
         -5    1    4    4    0  502  0.26757527002E+02  0.63165416000E+01 -0.37850462151E+01  0.28147478109E+02  0.47000000000E+01 0. -1.
          5    1    5    5  503    0 -0.24249672744E+02  0.48584310473E+02  0.34416118578E+03  0.34845013080E+03  0.47000000000E+01 0.  1.
         -5    1    5    5    0  503 -0.17559720115E+02 -0.57059120228E+02  0.12115526891E+03  0.13514723881E+03  0.47000000000E+01 0.  1.
<mgrwt>
<rscale>  0 0.27434536E+03</rscale>
<asrwt>0</asrwt>
<pdfrwt beam="1">  1        2 0.11417351E+00 0.27434536E+03</pdfrwt>
<pdfrwt beam="2">  1       -2 0.39007057E-02 0.27434536E+03</pdfrwt>
<totfact> 0.11095151E+04</totfact>
</mgrwt>
</event>
<event>
 9    1  0.7926126E-001  0.2739448E+03  0.7818608E-02  0.1099043E+00
          4   -1    0    0  501    0  0.00000000000E+00  0.00000000000E+00  0.22631390619E+02  0.22631390619E+02  0.00000000000E+00 0.  1.
         -4   -1    0    0    0  501 -0.00000000000E+00 -0.00000000000E+00 -0.82900060970E+03  0.82900060970E+03  0.00000000000E+00 0.  1.
         35    2    1    2    0    0  0.00000000000E+00 -0.14210854715E-13 -0.80636921908E+03  0.85163200032E+03  0.27394478729E+03 0.  0.
         25    2    3    3    0    0 -0.37299019018E+02  0.29299061735E+02 -0.48312531037E+03  0.50177753753E+03  0.12696842054E+03 0.  0.
         25    2    3    3    0    0  0.37299019018E+02 -0.29299061735E+02 -0.32324390871E+03  0.34985446278E+03  0.12514738820E+03 0.  0.
          5    1    4    4  502    0 -0.77467160398E+02  0.47611343612E+02 -0.31591070173E+03  0.32876992327E+03  0.47000000000E+01 0. -1.
         -5    1    4    4    0  502  0.40168141380E+02 -0.18312281877E+02 -0.16721460864E+03  0.17300761426E+03  0.47000000000E+01 0. -1.
          5    1    5    5  503    0 -0.10622598503E+02 -0.69659123224E+02 -0.18421979845E+03  0.19729231406E+03  0.47000000000E+01 0.  1.
         -5    1    5    5    0  503  0.47921617520E+02  0.40360061490E+02 -0.13902411026E+03  0.15256214872E+03  0.47000000000E+01 0.  1.
<mgrwt>
<rscale>  0 0.27394479E+03</rscale>
<asrwt>0</asrwt>
<pdfrwt beam="1">  1        4 0.34817523E-02 0.27394479E+03</pdfrwt>
<pdfrwt beam="2">  1       -4 0.12753856E+00 0.27394479E+03</pdfrwt>
<totfact> 0.37998885E+02</totfact>
</mgrwt>
</event>
<event>
 9    1  0.7926126E-001  0.2703479E+03  0.7818608E-02  0.1101081E+00
          1   -1    0    0  501    0  0.00000000000E+00  0.00000000000E+00  0.43833501557E+03  0.43833501557E+03  0.00000000000E+00 0. -1.
         -1   -1    0    0    0  501 -0.00000000000E+00 -0.00000000000E+00 -0.41685012483E+02  0.41685012483E+02  0.00000000000E+00 0. -1.
         35    2    1    2    0    0  0.00000000000E+00 -0.35527136788E-14  0.39665000309E+03  0.48002002805E+03  0.27034792839E+03 0.  0.
         25    2    3    3    0    0 -0.24138722881E+02 -0.22011452801E+02  0.13200361887E+03  0.18494941024E+03  0.12535608065E+03 0.  0.
         25    2    3    3    0    0  0.24138722881E+02  0.22011452801E+02  0.26464638422E+03  0.29507061781E+03  0.12633993359E+03 0.  0.
          5    1    4    4  502    0 -0.14745648683E+02  0.39889367115E+02  0.11064603977E+03  0.11863065321E+03  0.47000000000E+01 0.  1.
         -5    1    4    4    0  502 -0.93930741985E+01 -0.61900819917E+02  0.21357579101E+02  0.66318757032E+02  0.47000000000E+01 0.  1.
          5    1    5    5  503    0 -0.32624565993E+02  0.68943528115E+01  0.21613360767E+03  0.21874121873E+03  0.47000000000E+01 0. -1.
         -5    1    5    5    0  503  0.56763288874E+02  0.15117099990E+02  0.48512776545E+02  0.76329399081E+02  0.47000000000E+01 0. -1.
<mgrwt>
<rscale>  0 0.27034793E+03</rscale>
<asrwt>0</asrwt>
<pdfrwt beam="1">  1        1 0.67436153E-01 0.27034793E+03</pdfrwt>
<pdfrwt beam="2">  1       -1 0.64130792E-02 0.27034793E+03</pdfrwt>
<totfact> 0.64526034E+03</totfact>
</mgrwt>
</event>
<event>
 9    1  0.7926126E-001  0.2749791E+03  0.7818608E-02  0.1098463E+00
          2   -1    0    0  501    0  0.00000000000E+00  0.00000000000E+00  0.46380747956E+04  0.46380747956E+04  0.00000000000E+00 0.  1.
         -2   -1    0    0    0  501 -0.00000000000E+00 -0.00000000000E+00 -0.40756940396E+01  0.40756940396E+01  0.00000000000E+00 0.  1.
         35    2    1    2    0    0  0.00000000000E+00  0.00000000000E+00  0.46339991016E+04  0.46421504897E+04  0.27497908138E+03 0.  0.
         25    2    3    3    0    0 -0.12198306935E+02 -0.54663909064E+02  0.22396813708E+04  0.22439100464E+04  0.12578836311E+03 0.  0.
         25    2    3    3    0    0  0.12198306935E+02  0.54663909064E+02  0.23943177308E+04  0.23982404432E+04  0.12515145135E+03 0.  0.
          5    1    4    4  502    0  0.21261312061E+02 -0.87307753586E+02  0.15773464955E+04  0.15799109925E+04  0.47000000000E+01 0.  1.
         -5    1    4    4    0  502 -0.33459618996E+02  0.32643844522E+02  0.66233487521E+03  0.66399905393E+03  0.47000000000E+01 0.  1.
          5    1    5    5  503    0 -0.55105986843E+02  0.11771188491E+02  0.88157655238E+03  0.88338810178E+03  0.47000000000E+01 0.  1.
         -5    1    5    5    0  503  0.67304293777E+02  0.42892720573E+02  0.15127411785E+04  0.15148523415E+04  0.47000000000E+01 0.  1.
<mgrwt>
<rscale>  0 0.27497908E+03</rscale>
<asrwt>0</asrwt>
<pdfrwt beam="1">  1        2 0.71354575E+00 0.27497908E+03</pdfrwt>
<pdfrwt beam="2">  1       -2 0.62703356E-03 0.27497908E+03</pdfrwt>
<totfact> 0.52497429E+02</totfact>
</mgrwt>
</event>
<event>
 9    1  0.7926126E-001  0.2725195E+03  0.7818608E-02  0.1099846E+00
         -1   -1    0    0    0  501 -0.00000000000E+00  0.00000000000E+00  0.14438507750E+02  0.14438507750E+02  0.00000000000E+00 0. -1.
          1   -1    0    0  501    0  0.00000000000E+00 -0.00000000000E+00 -0.12859168781E+04  0.12859168781E+04  0.00000000000E+00 0. -1.
         35    2    1    2    0    0 -0.35527136788E-14 -0.71054273576E-14 -0.12714783704E+04  0.13003553859E+04  0.27251950984E+03 0.  0.
         25    2    3    3    0    0  0.26643921426E+02 -0.38723039737E+02 -0.49573888434E+03  0.51334846430E+03  0.12474065893E+03 0.  0.
         25    2    3    3    0    0 -0.26643921426E+02  0.38723039737E+02 -0.77573948604E+03  0.78700692158E+03  0.12409178888E+03 0.  0.
          5    1    4    4  502    0  0.41765706981E+01  0.32385005955E+02 -0.41548702922E+02  0.53052964743E+02  0.47000000000E+01 0. -1.
         -5    1    4    4    0  502  0.22467350728E+02 -0.71108045692E+02 -0.45419018142E+03  0.46029549955E+03  0.47000000000E+01 0. -1.
          5    1    5    5  503    0 -0.17936829051E+02 -0.43661809331E+02 -0.21574991946E+03  0.22090314887E+03  0.47000000000E+01 0. -1.
         -5    1    5    5    0  503 -0.87070923748E+01  0.82384849068E+02 -0.55998956657E+03  0.56610377272E+03  0.47000000000E+01 0. -1.
<mgrwt>
<rscale>  0 0.27251951E+03</rscale>
<asrwt>0</asrwt>
<pdfrwt beam="1">  1        1 0.19783339E+00 0.27251951E+03</pdfrwt>
<pdfrwt beam="2">  1       -1 0.22213086E-02 0.27251951E+03</pdfrwt>
<totfact> 0.58637258E+03</totfact>
</mgrwt>
</event>
<event>
 9    1  0.7926126E-001  0.2723608E+03  0.7818608E-02  0.1099936E+00
         -1   -1    0    0    0  501 -0.00000000000E+00  0.00000000000E+00  0.65064975632E+03  0.65064975632E+03  0.00000000000E+00 0.  1.
          1   -1    0    0  501    0  0.00000000000E+00 -0.00000000000E+00 -0.28502440747E+02  0.28502440747E+02  0.00000000000E+00 0.  1.
         35    2    1    2    0    0 -0.35527136788E-14 -0.35527136788E-14  0.62214731557E+03  0.67915219707E+03  0.27236083512E+03 0.  0.
         25    2    3    3    0    0 -0.21472648177E+02  0.14489261304E+02  0.43395759399E+03  0.45196458084E+03  0.12361947921E+03 0.  0.
         25    2    3    3    0    0  0.21472648177E+02 -0.14489261304E+02  0.18818972158E+03  0.22718761623E+03  0.12461070718E+03 0.  0.
          5    1    4    4  502    0  0.40628497660E+02  0.24255716414E+02  0.30201839429E+03  0.30573880207E+03  0.47000000000E+01 0.  1.
         -5    1    4    4    0  502 -0.62101145837E+02 -0.97664551097E+01  0.13193919970E+03  0.14622577877E+03  0.47000000000E+01 0.  1.
          5    1    5    5  503    0  0.71610198944E+01  0.54990849790E+02  0.72482411811E+02  0.91384155019E+02  0.47000000000E+01 0.  1.
         -5    1    5    5    0  503  0.14311628283E+02 -0.69480111094E+02  0.11570730977E+03  0.13580346121E+03  0.47000000000E+01 0.  1.
<mgrwt>
<rscale>  0 0.27236084E+03</rscale>
<asrwt>0</asrwt>
<pdfrwt beam="1">  1        1 0.43849914E-02 0.27236084E+03</pdfrwt>
<pdfrwt beam="2">  1       -1 0.10009995E+00 0.27236084E+03</pdfrwt>
<totfact> 0.20078968E+03</totfact>
</mgrwt>
</event>
<event>
 9    1  0.7926126E-001  0.2750484E+03  0.7818608E-02  0.1098425E+00
         -2   -1    0    0    0  501 -0.00000000000E+00  0.00000000000E+00  0.42497398353E+02  0.42497398353E+02  0.00000000000E+00 0. -1.
          2   -1    0    0  501    0  0.00000000000E+00 -0.00000000000E+00 -0.44503680891E+03  0.44503680891E+03  0.00000000000E+00 0. -1.
         35    2    1    2    0    0  0.00000000000E+00  0.00000000000E+00 -0.40253941056E+03  0.48753420726E+03  0.27504840701E+03 0.  0.
         25    2    3    3    0    0  0.37981197782E+01 -0.16642629874E+02 -0.10802265487E+03  0.16678142315E+03  0.12591960252E+03 0.  0.
         25    2    3    3    0    0 -0.37981197782E+01  0.16642629874E+02 -0.29451675569E+03  0.32075278411E+03  0.12590006471E+03 0.  0.
          5    1    4    4  502    0  0.39785526141E+02  0.23188722712E+02 -0.10267931064E+03  0.11263097169E+03  0.47000000000E+01 0. -1.
         -5    1    4    4    0  502 -0.35987406363E+02 -0.39831352586E+02 -0.53433442331E+01  0.54150451459E+02  0.47000000000E+01 0. -1.
          5    1    5    5  503    0  0.46526559960E+02 -0.14381240313E+02 -0.22072914085E+03  0.22608623239E+03  0.47000000000E+01 0.  1.
         -5    1    5    5    0  503 -0.50324679738E+02  0.31023870187E+02 -0.73787614833E+02  0.94666551722E+02  0.47000000000E+01 0.  1.
<mgrwt>
<rscale>  0 0.27504841E+03</rscale>
<asrwt>0</asrwt>
<pdfrwt beam="1">  1        2 0.68467200E-01 0.27504841E+03</pdfrwt>
<pdfrwt beam="2">  1       -2 0.65380614E-02 0.27504841E+03</pdfrwt>
<totfact> 0.91357131E+03</totfact>
</mgrwt>
</event>
<event>
 9    1  0.7926126E-001  0.2972395E+03  0.7818608E-02  0.1086629E+00
         -1   -1    0    0    0  501 -0.00000000000E+00  0.00000000000E+00  0.34282758843E+02  0.34282758843E+02  0.00000000000E+00 0. -1.
          1   -1    0    0  501    0  0.00000000000E+00 -0.00000000000E+00 -0.64428379573E+03  0.64428379573E+03  0.00000000000E+00 0. -1.
         35    2    1    2    0    0  0.71054273576E-14  0.00000000000E+00 -0.61000103689E+03  0.67856655458E+03  0.29723947245E+03 0.  0.
         25    2    3    3    0    0  0.28876430982E+02 -0.59930906689E+02 -0.19927683701E+03  0.24403254195E+03  0.12415740783E+03 0.  0.
         25    2    3    3    0    0 -0.28876430982E+02  0.59930906689E+02 -0.41072419988E+03  0.43453401263E+03  0.12529915370E+03 0.  0.
          5    1    4    4  502    0  0.38426030325E+02 -0.59319458457E+02 -0.21424772879E+03  0.22565357797E+03  0.47000000000E+01 0.  1.
         -5    1    4    4    0  502 -0.95495993429E+01 -0.61144823158E+00  0.14970891777E+02  0.18378963985E+02  0.47000000000E+01 0.  1.
          5    1    5    5  503    0 -0.73190471696E+02  0.86178227638E+01 -0.21998499738E+03  0.23204870413E+03  0.47000000000E+01 0. -1.
         -5    1    5    5    0  503  0.44314040714E+02  0.51313083925E+02 -0.19073920250E+03  0.20248530849E+03  0.47000000000E+01 0. -1.
<mgrwt>
<rscale>  0 0.29723947E+03</rscale>
<asrwt>0</asrwt>
<pdfrwt beam="1">  1        1 0.99120579E-01 0.29723947E+03</pdfrwt>
<pdfrwt beam="2">  1       -1 0.52742709E-02 0.29723947E+03</pdfrwt>
<totfact> 0.51608632E+03</totfact>
</mgrwt>
</event>
<event>
 9    1  0.7926126E-001  0.2888965E+03  0.7818608E-02  0.1090927E+00
          2   -1    0    0  501    0  0.00000000000E+00  0.00000000000E+00  0.10372481844E+04  0.10372481844E+04  0.00000000000E+00 0. -1.
         -2   -1    0    0    0  501 -0.00000000000E+00 -0.00000000000E+00 -0.20116017645E+02  0.20116017645E+02  0.00000000000E+00 0. -1.
         35    2    1    2    0    0  0.35527136788E-14 -0.71054273576E-14  0.10171321668E+04  0.10573642021E+04  0.28889654052E+03 0.  0.
         25    2    3    3    0    0 -0.23279077562E+02  0.45788210298E+02  0.32299537745E+03  0.35016379178E+03  0.12510072568E+03 0.  0.
         25    2    3    3    0    0  0.23279077562E+02 -0.45788210298E+02  0.69413678935E+03  0.70720041031E+03  0.12517213091E+03 0.  0.
          5    1    4    4  502    0 -0.16168436223E+02 -0.16585265452E+02  0.27549382286E+01  0.23794306980E+02  0.47000000000E+01 0. -1.
         -5    1    4    4    0  502 -0.71106413388E+01  0.62373475750E+02  0.32024043922E+03  0.32636948480E+03  0.47000000000E+01 0. -1.
          5    1    5    5  503    0  0.11499838236E+02 -0.70188890550E+02  0.20041556945E+03  0.21271393258E+03  0.47000000000E+01 0.  1.
         -5    1    5    5    0  503  0.11779239327E+02  0.24400680252E+02  0.49372121990E+03  0.49448647773E+03  0.47000000000E+01 0.  1.
<mgrwt>
<rscale>  0 0.28889654E+03</rscale>
<asrwt>0</asrwt>
<pdfrwt beam="1">  1        2 0.15957660E+00 0.28889654E+03</pdfrwt>
<pdfrwt beam="2">  1       -2 0.30947727E-02 0.28889654E+03</pdfrwt>
<totfact> 0.10068842E+04</totfact>
</mgrwt>
</event>
<event>
 9    1  0.7926126E-001  0.2753002E+03  0.7818608E-02  0.1098284E+00
         -2   -1    0    0    0  501 -0.00000000000E+00  0.00000000000E+00  0.74811388430E+02  0.74811388430E+02  0.00000000000E+00 0.  1.
          2   -1    0    0  501    0  0.00000000000E+00 -0.00000000000E+00 -0.25327092615E+03  0.25327092615E+03  0.00000000000E+00 0.  1.
         35    2    1    2    0    0  0.00000000000E+00 -0.71054273576E-14 -0.17845953772E+03  0.32808231458E+03  0.27530019712E+03 0.  0.
         25    2    3    3    0    0 -0.17363270645E+02  0.27191796191E+02 -0.30497448578E+02  0.13266472790E+03  0.12501583385E+03 0.  0.
         25    2    3    3    0    0  0.17363270645E+02 -0.27191796191E+02 -0.14796208914E+03  0.19541758667E+03  0.12350860865E+03 0.  0.
          5    1    4    4  502    0 -0.19573861299E+02  0.73572806491E+02  0.11324543096E+01  0.76285426878E+02  0.47000000000E+01 0. -1.
         -5    1    4    4    0  502  0.22105906540E+01 -0.46381010300E+02 -0.31629902888E+02  0.56379301026E+02  0.47000000000E+01 0. -1.
          5    1    5    5  503    0  0.22688877174E+01 -0.56388073798E+02 -0.15177717137E+03  0.16199741500E+03  0.47000000000E+01 0.  1.
         -5    1    5    5    0  503  0.15094382928E+02  0.29196277607E+02  0.38150822320E+01  0.33420171671E+02  0.47000000000E+01 0.  1.
<mgrwt>
<rscale>  0 0.27530020E+03</rscale>
<asrwt>0</asrwt>
<pdfrwt beam="1">  1        2 0.38964758E-01 0.27530020E+03</pdfrwt>
<pdfrwt beam="2">  1       -2 0.11509444E-01 0.27530020E+03</pdfrwt>
<totfact> 0.69043069E+03</totfact>
</mgrwt>
</event>
<event>
 9    1  0.7926126E-001  0.2709054E+03  0.7818608E-02  0.1100763E+00
          2   -1    0    0  501    0  0.00000000000E+00  0.00000000000E+00  0.60636579199E+03  0.60636579199E+03  0.00000000000E+00 0. -1.
         -2   -1    0    0    0  501 -0.00000000000E+00 -0.00000000000E+00 -0.30258039857E+02  0.30258039857E+02  0.00000000000E+00 0. -1.
         35    2    1    2    0    0 -0.71054273576E-14  0.00000000000E+00  0.57610775213E+03  0.63662383185E+03  0.27090544699E+03 0.  0.
         25    2    3    3    0    0 -0.14549392382E+01 -0.48582519010E+02  0.24434822035E+03  0.27869126476E+03  0.12490152228E+03 0.  0.
         25    2    3    3    0    0  0.14549392382E+01  0.48582519010E+02  0.33175953179E+03  0.35793256708E+03  0.12525556933E+03 0.  0.
          5    1    4    4  502    0 -0.40246440719E+02  0.21850817998E+02  0.13670787703E+03  0.14425105851E+03  0.47000000000E+01 0.  1.
         -5    1    4    4    0  502  0.38791501480E+02 -0.70433337008E+02  0.10764034331E+03  0.13444020625E+03  0.47000000000E+01 0.  1.
          5    1    5    5  503    0  0.62122383085E+02  0.34079450666E+02  0.19559744683E+03  0.20808904499E+03  0.47000000000E+01 0.  1.
         -5    1    5    5    0  503 -0.60667443847E+02  0.14503068344E+02  0.13616208495E+03  0.14984352209E+03  0.47000000000E+01 0.  1.
<mgrwt>
<rscale>  0 0.27090545E+03</rscale>
<asrwt>0</asrwt>
<pdfrwt beam="1">  1        2 0.93287036E-01 0.27090545E+03</pdfrwt>
<pdfrwt beam="2">  1       -2 0.46550835E-02 0.27090545E+03</pdfrwt>
<totfact> 0.10821285E+04</totfact>
</mgrwt>
</event>
<event>
 9    1  0.7926126E-001  0.2759958E+03  0.7818608E-02  0.1097896E+00
         -1   -1    0    0    0  501 -0.00000000000E+00  0.00000000000E+00  0.10147004659E+03  0.10147004659E+03  0.00000000000E+00 0.  1.
          1   -1    0    0  501    0  0.00000000000E+00 -0.00000000000E+00 -0.18767524208E+03  0.18767524208E+03  0.00000000000E+00 0.  1.
         35    2    1    2    0    0  0.71054273576E-14 -0.17763568394E-14 -0.86205195486E+02  0.28914528867E+03  0.27599576488E+03 0.  0.
         25    2    3    3    0    0  0.37606851162E+02  0.97917885517E+00 -0.88532722936E+02  0.15858637494E+03  0.12608077268E+03 0.  0.
         25    2    3    3    0    0 -0.37606851162E+02 -0.97917885517E+00  0.23275274494E+01  0.13055891373E+03  0.12499991410E+03 0.  0.
          5    1    4    4  502    0  0.27190118875E+02  0.81991896540E+01  0.28657794496E+02  0.40618819048E+02  0.47000000000E+01 0.  1.
         -5    1    4    4    0  502  0.10416732287E+02 -0.72200107988E+01 -0.11719051743E+03  0.11796755589E+03  0.47000000000E+01 0.  1.
          5    1    5    5  503    0  0.28666880569E+02  0.37239459986E+02 -0.19140512559E+02  0.50960932514E+02  0.47000000000E+01 0.  1.
         -5    1    5    5    0  503 -0.66273731731E+02 -0.38218638841E+02  0.21468040009E+02  0.79597981220E+02  0.47000000000E+01 0.  1.
<mgrwt>
<rscale>  0 0.27599576E+03</rscale>
<asrwt>0</asrwt>
<pdfrwt beam="1">  1        1 0.28873114E-01 0.27599576E+03</pdfrwt>
<pdfrwt beam="2">  1       -1 0.15610776E-01 0.27599576E+03</pdfrwt>
<totfact> 0.47638167E+03</totfact>
</mgrwt>
</event>
<event>
 9    1  0.7926126E-001  0.2747571E+03  0.7818608E-02  0.1098587E+00
          2   -1    0    0  501    0  0.00000000000E+00  0.00000000000E+00  0.56493203410E+03  0.56493203410E+03  0.00000000000E+00 0.  1.
         -2   -1    0    0    0  501 -0.00000000000E+00 -0.00000000000E+00 -0.33407309502E+02  0.33407309502E+02  0.00000000000E+00 0.  1.
         35    2    1    2    0    0 -0.71054273576E-14  0.71054273576E-14  0.53152472460E+03  0.59833934360E+03  0.27475705131E+03 0.  0.
         25    2    3    3    0    0  0.14666024418E+02  0.47290102173E+02  0.32980734355E+03  0.35602716838E+03  0.12462349188E+03 0.  0.
         25    2    3    3    0    0 -0.14666024418E+02 -0.47290102173E+02  0.20171738104E+03  0.24231217522E+03  0.12479520187E+03 0.  0.
          5    1    4    4  502    0 -0.37526963481E+02  0.60537644823E+02  0.24726094082E+03  0.25735800412E+03  0.47000000000E+01 0.  1.
         -5    1    4    4    0  502  0.52192987899E+02 -0.13247542650E+02  0.82546402736E+02  0.98669164265E+02  0.47000000000E+01 0.  1.
          5    1    5    5  503    0 -0.66107628127E+02 -0.20477828573E+02  0.71185318592E+02  0.99393156418E+02  0.47000000000E+01 0.  1.
         -5    1    5    5    0  503  0.51441603709E+02 -0.26812273600E+02  0.13053206245E+03  0.14291901880E+03  0.47000000000E+01 0.  1.
<mgrwt>
<rscale>  0 0.27475705E+03</rscale>
<asrwt>0</asrwt>
<pdfrwt beam="1">  1        2 0.86912614E-01 0.27475705E+03</pdfrwt>
<pdfrwt beam="2">  1       -2 0.51395865E-02 0.27475705E+03</pdfrwt>
<totfact> 0.10109548E+04</totfact>
</mgrwt>
</event>
<event>
 9    1  0.7926126E-001  0.2705967E+03  0.7818608E-02  0.1100939E+00
          2   -1    0    0  501    0  0.00000000000E+00  0.00000000000E+00  0.52707485693E+02  0.52707485693E+02  0.00000000000E+00 0. -1.
         -2   -1    0    0    0  501 -0.00000000000E+00 -0.00000000000E+00 -0.34730629543E+03  0.34730629543E+03  0.00000000000E+00 0. -1.
         35    2    1    2    0    0 -0.53290705182E-14  0.00000000000E+00 -0.29459880974E+03  0.40001378113E+03  0.27059668584E+03 0.  0.
         25    2    3    3    0    0  0.66951363268E+01  0.46146387578E+02 -0.14490641714E+03  0.20215577284E+03  0.13302170059E+03 0.  0.
         25    2    3    3    0    0 -0.66951363268E+01 -0.46146387578E+02 -0.14969239260E+03  0.19785800829E+03  0.12068829729E+03 0.  0.
          5    1    4    4  502    0  0.42218755069E+02  0.67593783389E+02 -0.13856214653E+03  0.15991529409E+03  0.47000000000E+01 0.  1.
         -5    1    4    4    0  502 -0.35523618742E+02 -0.21447395811E+02 -0.63442706115E+01  0.42240478752E+02  0.47000000000E+01 0.  1.
          5    1    5    5  503    0 -0.22649699691E+02  0.83224836323E+01  0.11323921356E+02  0.27066470490E+02  0.47000000000E+01 0.  1.
         -5    1    5    5    0  503  0.15954563364E+02 -0.54468871211E+02 -0.16101631396E+03  0.17079153780E+03  0.47000000000E+01 0.  1.
<mgrwt>
<rscale>  0 0.27059669E+03</rscale>
<asrwt>0</asrwt>
<pdfrwt beam="1">  1        2 0.81088436E-02 0.27059669E+03</pdfrwt>
<pdfrwt beam="2">  1       -2 0.53431740E-01 0.27059669E+03</pdfrwt>
<totfact> 0.27951198E+03</totfact>
</mgrwt>
</event>
<event>
 9    1  0.7926126E-001  0.2721768E+03  0.7818608E-02  0.1100040E+00
         -2   -1    0    0    0  501 -0.00000000000E+00  0.00000000000E+00  0.15329769281E+03  0.15329769281E+03  0.00000000000E+00 0.  1.
          2   -1    0    0  501    0  0.00000000000E+00 -0.00000000000E+00 -0.12081102069E+03  0.12081102069E+03  0.00000000000E+00 0.  1.
         35    2    1    2    0    0  0.17763568394E-14  0.00000000000E+00  0.32486672123E+02  0.27410871350E+03  0.27217678621E+03 0.  0.
         25    2    3    3    0    0 -0.11053355653E+02 -0.79531021341E+01 -0.38753355720E+02  0.13145919180E+03  0.12487701160E+03 0.  0.
         25    2    3    3    0    0  0.11053355653E+02  0.79531021341E+01  0.71240027843E+02  0.14264952169E+03  0.12283450642E+03 0.  0.
          5    1    4    4  502    0 -0.70056280233E+01  0.42999684207E+02  0.24338628790E+02  0.50124949051E+02  0.47000000000E+01 0. -1.
         -5    1    4    4    0  502 -0.40477276302E+01 -0.50952786342E+02 -0.63091984510E+02  0.81334242754E+02  0.47000000000E+01 0. -1.
          5    1    5    5  503    0 -0.22691136606E+02 -0.15126550146E+02 -0.25431333933E+02  0.37583812278E+02  0.47000000000E+01 0. -1.
         -5    1    5    5    0  503  0.33744492259E+02  0.23079652280E+02  0.96671361776E+02  0.10506570941E+03  0.47000000000E+01 0. -1.
<mgrwt>
<rscale>  0 0.27217679E+03</rscale>
<asrwt>0</asrwt>
<pdfrwt beam="1">  1        2 0.18586311E-01 0.27217679E+03</pdfrwt>
<pdfrwt beam="2">  1       -2 0.23584261E-01 0.27217679E+03</pdfrwt>
<totfact> 0.47331043E+03</totfact>
</mgrwt>
</event>
<event>
 9    1  0.7926126E-001  0.2755904E+03  0.7818608E-02  0.1098122E+00
         -3   -1    0    0    0  501 -0.00000000000E+00  0.00000000000E+00  0.91136271811E+03  0.91136271811E+03  0.00000000000E+00 0. -1.
          3   -1    0    0  501    0  0.00000000000E+00 -0.00000000000E+00 -0.20834201419E+02  0.20834201419E+02  0.00000000000E+00 0. -1.
         35    2    1    2    0    0  0.35527136788E-14  0.00000000000E+00  0.89052851669E+03  0.93219691953E+03  0.27559038035E+03 0.  0.
         25    2    3    3    0    0 -0.13561429288E+02 -0.49770252623E+02  0.53906788047E+03  0.55585414277E+03  0.12537407175E+03 0.  0.
         25    2    3    3    0    0  0.13561429288E+02  0.49770252623E+02  0.35146063622E+03  0.37634277676E+03  0.12429125632E+03 0.  0.
          5    1    4    4  502    0 -0.37161084558E+02 -0.66045385597E+02  0.17668400098E+03  0.19230773610E+03  0.47000000000E+01 0. -1.
         -5    1    4    4    0  502  0.23599655269E+02  0.16275132974E+02  0.36238387950E+03  0.36354640667E+03  0.47000000000E+01 0. -1.
          5    1    5    5  503    0 -0.17147680691E+02  0.30819306291E+01 -0.22761735358E+01  0.18188243880E+02  0.47000000000E+01 0. -1.
         -5    1    5    5    0  503  0.30709109979E+02  0.46688321994E+02  0.35373680975E+03  0.35815453288E+03  0.47000000000E+01 0. -1.
<mgrwt>
<rscale>  0 0.27559038E+03</rscale>
<asrwt>0</asrwt>
<pdfrwt beam="1">  1        3 0.32052625E-02 0.27559038E+03</pdfrwt>
<pdfrwt beam="2">  1       -3 0.14020962E+00 0.27559038E+03</pdfrwt>
<totfact> 0.47189336E+02</totfact>
</mgrwt>
</event>
<event>
 9    1  0.7926126E-001  0.2741127E+03  0.7818608E-02  0.1098949E+00
         -2   -1    0    0    0  501 -0.00000000000E+00  0.00000000000E+00  0.30441907243E+02  0.30441907243E+02  0.00000000000E+00 0.  1.
          2   -1    0    0  501    0  0.00000000000E+00 -0.00000000000E+00 -0.61705848471E+03  0.61705848471E+03  0.00000000000E+00 0.  1.
         35    2    1    2    0    0 -0.35527136788E-14  0.00000000000E+00 -0.58661657747E+03  0.64750039196E+03  0.27411265680E+03 0.  0.
         25    2    3    3    0    0 -0.22794208110E+02  0.16650900045E+02 -0.17306325047E+03  0.21516066481E+03  0.12468518205E+03 0.  0.
         25    2    3    3    0    0  0.22794208110E+02 -0.16650900045E+02 -0.41355332700E+03  0.43233972715E+03  0.12285950105E+03 0.  0.
          5    1    4    4  502    0 -0.31480048017E+01  0.51270667361E+02 -0.16679796498E+03  0.17459164466E+03  0.47000000000E+01 0.  1.
         -5    1    4    4    0  502 -0.19646203308E+02 -0.34619767317E+02 -0.62652854928E+01  0.40569020148E+02  0.47000000000E+01 0.  1.
          5    1    5    5  503    0 -0.83148101003E+00  0.43826587998E+02 -0.28346088442E+03  0.28686865317E+03  0.47000000000E+01 0. -1.
         -5    1    5    5    0  503  0.23625689120E+02 -0.60477488042E+02 -0.13009244258E+03  0.14547107398E+03  0.47000000000E+01 0. -1.
<mgrwt>
<rscale>  0 0.27411266E+03</rscale>
<asrwt>0</asrwt>
<pdfrwt beam="1">  1        2 0.94932066E-01 0.27411266E+03</pdfrwt>
<pdfrwt beam="2">  1       -2 0.46833708E-02 0.27411266E+03</pdfrwt>
<totfact> 0.10510708E+04</totfact>
</mgrwt>
</event>
<event>
 9    1  0.7926126E-001  0.2778238E+03  0.7818608E-02  0.1096884E+00
         -2   -1    0    0    0  501 -0.00000000000E+00  0.00000000000E+00  0.68801380632E+02  0.68801380632E+02  0.00000000000E+00 0.  1.
          2   -1    0    0  501    0  0.00000000000E+00 -0.00000000000E+00 -0.28046689943E+03  0.28046689943E+03  0.00000000000E+00 0.  1.
         35    2    1    2    0    0 -0.88817841970E-15  0.00000000000E+00 -0.21166551880E+03  0.34926828006E+03  0.27782375638E+03 0.  0.
         25    2    3    3    0    0 -0.22546425337E+01 -0.39145898714E+02 -0.41447006554E+02  0.13488803987E+03  0.12222701890E+03 0.  0.
         25    2    3    3    0    0  0.22546425337E+01  0.39145898714E+02 -0.17021851224E+03  0.21438024019E+03  0.12428620468E+03 0.  0.
          5    1    4    4  502    0  0.25382044450E+02 -0.35706024401E+02  0.33140503168E+02  0.55132125927E+02  0.47000000000E+01 0.  1.
         -5    1    4    4    0  502 -0.27636686984E+02 -0.34398743121E+01 -0.74587509722E+02  0.79755913946E+02  0.47000000000E+01 0.  1.
          5    1    5    5  503    0 -0.65668201436E+01  0.82395105319E+02 -0.87212337830E+02  0.12025039866E+03  0.47000000000E+01 0. -1.
         -5    1    5    5    0  503  0.88214626773E+01 -0.43249206606E+02 -0.83006174412E+02  0.94129841530E+02  0.47000000000E+01 0. -1.
<mgrwt>
<rscale>  0 0.27782376E+03</rscale>
<asrwt>0</asrwt>
<pdfrwt beam="1">  1        2 0.43148754E-01 0.27782376E+03</pdfrwt>
<pdfrwt beam="2">  1       -2 0.10584828E-01 0.27782376E+03</pdfrwt>
<totfact> 0.70769463E+03</totfact>
</mgrwt>
</event>
<event>
 9    1  0.7926126E-001  0.2729851E+03  0.7818608E-02  0.1099583E+00
          2   -1    0    0  501    0  0.00000000000E+00  0.00000000000E+00  0.90655417205E+02  0.90655417205E+02  0.00000000000E+00 0.  1.
         -2   -1    0    0    0  501 -0.00000000000E+00 -0.00000000000E+00 -0.20550579726E+03  0.20550579726E+03  0.00000000000E+00 0.  1.
         35    2    1    2    0    0  0.00000000000E+00  0.71054273576E-14 -0.11485038005E+03  0.29616121446E+03  0.27298508229E+03 0.  0.
         25    2    3    3    0    0  0.77514871975E+01  0.51910579281E+02 -0.59142821502E+02  0.14952768643E+03  0.12690887234E+03 0.  0.
         25    2    3    3    0    0 -0.77514871975E+01 -0.51910579281E+02 -0.55707558549E+02  0.14663352803E+03  0.12507304133E+03 0.  0.
          5    1    4    4  502    0 -0.55834619380E+02  0.13662189650E+02 -0.56857647784E+01  0.57953240362E+02  0.47000000000E+01 0. -1.
         -5    1    4    4    0  502  0.63586106578E+02  0.38248389632E+02 -0.53457056723E+02  0.91574446068E+02  0.47000000000E+01 0. -1.
          5    1    5    5  503    0 -0.49501090314E+02 -0.73233749635E+02 -0.36992064469E+02  0.95937703024E+02  0.47000000000E+01 0.  1.
         -5    1    5    5    0  503  0.41749603117E+02  0.21323170354E+02 -0.18715494081E+02  0.50695825006E+02  0.47000000000E+01 0.  1.
<mgrwt>
<rscale>  0 0.27298508E+03</rscale>
<asrwt>0</asrwt>
<pdfrwt beam="1">  1        2 0.13946987E-01 0.27298508E+03</pdfrwt>
<pdfrwt beam="2">  1       -2 0.31616276E-01 0.27298508E+03</pdfrwt>
<totfact> 0.39267862E+03</totfact>
</mgrwt>
</event>
<event>
 9    1  0.7926126E-001  0.2743723E+03  0.7818608E-02  0.1098803E+00
          4   -1    0    0  501    0  0.00000000000E+00  0.00000000000E+00  0.14424292820E+03  0.14424292820E+03  0.00000000000E+00 0.  1.
         -4   -1    0    0    0  501 -0.00000000000E+00 -0.00000000000E+00 -0.13047460453E+03  0.13047460453E+03  0.00000000000E+00 0.  1.
         35    2    1    2    0    0  0.14210854715E-13  0.10658141036E-13  0.13768323668E+02  0.27471753273E+03  0.27437229462E+03 0.  0.
         25    2    3    3    0    0 -0.46247526546E+02 -0.21222549673E+02 -0.19834543519E+02  0.13616438387E+03  0.12473211291E+03 0.  0.
         25    2    3    3    0    0  0.46247526546E+02  0.21222549673E+02  0.33602867187E+02  0.13855314886E+03  0.12441298988E+03 0.  0.
          5    1    4    4  502    0 -0.75900643939E+02 -0.39187243139E+01 -0.49270430501E+02  0.90696909938E+02  0.47000000000E+01 0.  1.
         -5    1    4    4    0  502  0.29653117394E+02 -0.17303825359E+02  0.29435886982E+02  0.45467473931E+02  0.47000000000E+01 0.  1.
          5    1    5    5  503    0  0.36086480854E+01 -0.50266677868E+02  0.73503413537E+01  0.51145662210E+02  0.47000000000E+01 0. -1.
         -5    1    5    5    0  503  0.42638878460E+02  0.71489227541E+02  0.26252525833E+02  0.87407486655E+02  0.47000000000E+01 0. -1.
<mgrwt>
<rscale>  0 0.27437229E+03</rscale>
<asrwt>0</asrwt>
<pdfrwt beam="1">  1        4 0.22191220E-01 0.27437229E+03</pdfrwt>
<pdfrwt beam="2">  1       -4 0.20073016E-01 0.27437229E+03</pdfrwt>
<totfact> 0.78449956E+02</totfact>
</mgrwt>
</event>
<event>
 9    1  0.7926126E-001  0.2752650E+03  0.7818608E-02  0.1098304E+00
          3   -1    0    0  501    0  0.00000000000E+00  0.00000000000E+00  0.31507666335E+03  0.31507666335E+03  0.00000000000E+00 0.  1.
         -3   -1    0    0    0  501 -0.00000000000E+00 -0.00000000000E+00 -0.60120940339E+02  0.60120940339E+02  0.00000000000E+00 0.  1.
         35    2    1    2    0    0  0.00000000000E+00  0.00000000000E+00  0.25495572301E+03  0.37519760369E+03  0.27526500162E+03 0.  0.
         25    2    3    3    0    0 -0.59904732026E+02  0.85099592574E+01  0.14919981165E+03  0.20376170420E+03  0.12488895858E+03 0.  0.
         25    2    3    3    0    0  0.59904732026E+02 -0.85099592574E+01  0.10575591136E+03  0.17143589949E+03  0.12060248140E+03 0.  0.
          5    1    4    4  502    0  0.15942538451E+02 -0.34221971014E+02  0.97045050935E+01  0.39262899172E+02  0.47000000000E+01 0. -1.
         -5    1    4    4    0  502 -0.75847270477E+02  0.42731930271E+02  0.13949530656E+03  0.16449880503E+03  0.47000000000E+01 0. -1.
          5    1    5    5  503    0  0.29043288361E+02  0.40948376181E+02  0.10083995647E+03  0.11274337644E+03  0.47000000000E+01 0.  1.
         -5    1    5    5    0  503  0.30861443665E+02 -0.49458335439E+02  0.49159548908E+01  0.58692523050E+02  0.47000000000E+01 0.  1.
<mgrwt>
<rscale>  0 0.27526500E+03</rscale>
<asrwt>0</asrwt>
<pdfrwt beam="1">  1        3 0.48473332E-01 0.27526500E+03</pdfrwt>
<pdfrwt beam="2">  1       -3 0.92493757E-02 0.27526500E+03</pdfrwt>
<totfact> 0.90839517E+02</totfact>
</mgrwt>
</event>
<event>
 9    1  0.7926126E-001  0.2715760E+03  0.7818608E-02  0.1100381E+00
         -3   -1    0    0    0  501 -0.00000000000E+00  0.00000000000E+00  0.55588979717E+03  0.55588979717E+03  0.00000000000E+00 0.  1.
          3   -1    0    0  501    0  0.00000000000E+00 -0.00000000000E+00 -0.33169138765E+02  0.33169138765E+02  0.00000000000E+00 0.  1.
         35    2    1    2    0    0 -0.71054273576E-14  0.71054273576E-14  0.52272065841E+03  0.58905893594E+03  0.27157603591E+03 0.  0.
         25    2    3    3    0    0  0.57281946656E+01 -0.44481952638E+02  0.19953808913E+03  0.23953299177E+03  0.12469622611E+03 0.  0.
         25    2    3    3    0    0 -0.57281946656E+01  0.44481952638E+02  0.32318256928E+03  0.34952594417E+03  0.12533936429E+03 0.  0.
          5    1    4    4  502    0 -0.57734827602E+02 -0.34388677113E+02  0.11442607988E+03  0.13278294013E+03  0.47000000000E+01 0. -1.
         -5    1    4    4    0  502  0.63463022268E+02 -0.10093275524E+02  0.85112009247E+02  0.10675005164E+03  0.47000000000E+01 0. -1.
          5    1    5    5  503    0  0.43989636039E+02  0.62698993773E+02  0.15186977922E+03  0.17015514021E+03  0.47000000000E+01 0. -1.
         -5    1    5    5    0  503 -0.49717830704E+02 -0.18217041135E+02  0.17131279006E+03  0.17937080396E+03  0.47000000000E+01 0. -1.
<mgrwt>
<rscale>  0 0.27157604E+03</rscale>
<asrwt>0</asrwt>
<pdfrwt beam="1">  1        3 0.51029448E-02 0.27157604E+03</pdfrwt>
<pdfrwt beam="2">  1       -3 0.85521500E-01 0.27157604E+03</pdfrwt>
<totfact> 0.72033168E+02</totfact>
</mgrwt>
</event>
<event>
 9    1  0.7926126E-001  0.2754822E+03  0.7818608E-02  0.1098182E+00
         -2   -1    0    0    0  501 -0.00000000000E+00  0.00000000000E+00  0.29488138566E+02  0.29488138566E+02  0.00000000000E+00 0. -1.
          2   -1    0    0  501    0  0.00000000000E+00 -0.00000000000E+00 -0.64339799939E+03  0.64339799939E+03  0.00000000000E+00 0. -1.
         35    2    1    2    0    0  0.53290705182E-14  0.00000000000E+00 -0.61390986083E+03  0.67288613796E+03  0.27548219078E+03 0.  0.
         25    2    3    3    0    0  0.42822939752E+01  0.31834117862E+02 -0.42383340474E+03  0.44288915448E+03  0.12443592359E+03 0.  0.
         25    2    3    3    0    0 -0.42822939752E+01 -0.31834117862E+02 -0.19007645609E+03  0.22999698348E+03  0.12545040514E+03 0.  0.
          5    1    4    4  502    0  0.59706962334E+02  0.29418755515E+02 -0.29650122044E+03  0.30391684430E+03  0.47000000000E+01 0. -1.
         -5    1    4    4    0  502 -0.55424668359E+02  0.24153623472E+01 -0.12733218430E+03  0.13897231018E+03  0.47000000000E+01 0. -1.
          5    1    5    5  503    0 -0.13972363998E+02 -0.79226326873E+02 -0.12617033435E+03  0.14970998997E+03  0.47000000000E+01 0.  1.
         -5    1    5    5    0  503  0.96900700232E+01  0.47392209010E+02 -0.63906121736E+02  0.80286993513E+02  0.47000000000E+01 0.  1.
<mgrwt>
<rscale>  0 0.27548219E+03</rscale>
<asrwt>0</asrwt>
<pdfrwt beam="1">  1        2 0.98984311E-01 0.27548219E+03</pdfrwt>
<pdfrwt beam="2">  1       -2 0.45366366E-02 0.27548219E+03</pdfrwt>
<totfact> 0.10502303E+04</totfact>
</mgrwt>
</event>
<event>
 9    1  0.7926126E-001  0.2750787E+03  0.7818608E-02  0.1098408E+00
          4   -1    0    0  501    0  0.00000000000E+00  0.00000000000E+00  0.38522373539E+03  0.38522373539E+03  0.00000000000E+00 0.  1.
         -4   -1    0    0    0  501 -0.00000000000E+00 -0.00000000000E+00 -0.49106727153E+02  0.49106727153E+02  0.00000000000E+00 0.  1.
         35    2    1    2    0    0  0.71054273576E-14  0.00000000000E+00  0.33611700824E+03  0.43433046255E+03  0.27507872958E+03 0.  0.
         25    2    3    3    0    0 -0.40376427667E+02  0.24536276103E+02  0.21827239750E+03  0.25623065137E+03  0.12561457891E+03 0.  0.
         25    2    3    3    0    0  0.40376427667E+02 -0.24536276103E+02  0.11784461074E+03  0.17809981118E+03  0.12489958248E+03 0.  0.
          5    1    4    4  502    0 -0.73861486107E+02  0.20983059856E+02  0.69666394624E+02  0.10378489520E+03  0.47000000000E+01 0.  1.
         -5    1    4    4    0  502  0.33485058439E+02  0.35532162465E+01  0.14860600288E+03  0.15244575618E+03  0.47000000000E+01 0.  1.
          5    1    5    5  503    0  0.42831366020E+02 -0.57750494341E+02  0.12446767754E+03  0.14381911647E+03  0.47000000000E+01 0. -1.
         -5    1    5    5    0  503 -0.24549383523E+01  0.33214218238E+02 -0.66230667996E+01  0.34280694702E+02  0.47000000000E+01 0. -1.
<mgrwt>
<rscale>  0 0.27507873E+03</rscale>
<asrwt>0</asrwt>
<pdfrwt beam="1">  1        4 0.59265188E-01 0.27507873E+03</pdfrwt>
<pdfrwt beam="2">  1       -4 0.75548813E-02 0.27507873E+03</pdfrwt>
<totfact> 0.61979849E+02</totfact>
</mgrwt>
</event>
<event>
 9    1  0.7926126E-001  0.2740855E+03  0.7818608E-02  0.1098964E+00
          2   -1    0    0  501    0  0.00000000000E+00  0.00000000000E+00  0.19828181176E+04  0.19828181176E+04  0.00000000000E+00 0.  1.
         -2   -1    0    0    0  501 -0.00000000000E+00 -0.00000000000E+00 -0.94717311439E+01  0.94717311439E+01  0.00000000000E+00 0.  1.
         35    2    1    2    0    0 -0.35527136788E-14  0.00000000000E+00  0.19733463865E+04  0.19922898488E+04  0.27408553495E+03 0.  0.
         25    2    3    3    0    0  0.31267947168E+02 -0.10228357832E+02  0.10242251842E+04  0.10331868891E+04  0.13174071504E+03 0.  0.
         25    2    3    3    0    0 -0.31267947168E+02  0.10228357832E+02  0.94912120227E+03  0.95910295968E+03  0.13403405103E+03 0.  0.
          5    1    4    4  502    0  0.51317374867E+02 -0.17915474153E+02  0.99561040946E+03  0.99710411422E+03  0.47000000000E+01 0.  1.
         -5    1    4    4    0  502 -0.20049427699E+02  0.76871163217E+01  0.28614774761E+02  0.36082774879E+02  0.47000000000E+01 0.  1.
          5    1    5    5  503    0 -0.50266314105E+02  0.62138206978E+02  0.46864310023E+03  0.47543275496E+03  0.47000000000E+01 0. -1.
         -5    1    5    5    0  503  0.18998366938E+02 -0.51909849146E+02  0.48047810204E+03  0.48367020472E+03  0.47000000000E+01 0. -1.
<mgrwt>
<rscale>  0 0.27408553E+03</rscale>
<asrwt>0</asrwt>
<pdfrwt beam="1">  1        2 0.30504861E+00 0.27408553E+03</pdfrwt>
<pdfrwt beam="2">  1       -2 0.14571910E-02 0.27408553E+03</pdfrwt>
<totfact> 0.93368383E+03</totfact>
</mgrwt>
</event>
<event>
 9    1  0.7926126E-001  0.2742129E+03  0.7818608E-02  0.1098892E+00
          2   -1    0    0  501    0  0.00000000000E+00  0.00000000000E+00  0.42846821130E+03  0.42846821130E+03  0.00000000000E+00 0. -1.
         -2   -1    0    0    0  501 -0.00000000000E+00 -0.00000000000E+00 -0.43872996322E+02  0.43872996322E+02  0.00000000000E+00 0. -1.
         35    2    1    2    0    0  0.00000000000E+00  0.71054273576E-14  0.38459521498E+03  0.47234120763E+03  0.27421294104E+03 0.  0.
         25    2    3    3    0    0  0.10625897192E+01  0.26666791902E+02  0.10946264180E+03  0.16899471018E+03  0.12595592575E+03 0.  0.
         25    2    3    3    0    0 -0.10625897192E+01 -0.26666791902E+02  0.27513257318E+03  0.30334649744E+03  0.12493565463E+03 0.  0.
          5    1    4    4  502    0 -0.13532233322E+02 -0.46515739800E+02  0.67609594472E+02  0.83306558280E+02  0.47000000000E+01 0. -1.
         -5    1    4    4    0  502  0.14594823041E+02  0.73182531702E+02  0.41853047329E+02  0.85688151903E+02  0.47000000000E+01 0. -1.
          5    1    5    5  503    0  0.12587091657E+02  0.47975143902E+02  0.13533194340E+03  0.14421121389E+03  0.47000000000E+01 0. -1.
         -5    1    5    5    0  503 -0.13649681376E+02 -0.74641935804E+02  0.13980062978E+03  0.15913528355E+03  0.47000000000E+01 0. -1.
<mgrwt>
<rscale>  0 0.27421294E+03</rscale>
<asrwt>0</asrwt>
<pdfrwt beam="1">  1        2 0.65918183E-01 0.27421294E+03</pdfrwt>
<pdfrwt beam="2">  1       -2 0.67496920E-02 0.27421294E+03</pdfrwt>
<totfact> 0.90658966E+03</totfact>
</mgrwt>
</event>
<event>
 9    1  0.7926126E-001  0.2750756E+03  0.7818608E-02  0.1098409E+00
          1   -1    0    0  501    0  0.00000000000E+00  0.00000000000E+00  0.11809657122E+04  0.11809657122E+04  0.00000000000E+00 0. -1.
         -1   -1    0    0    0  501 -0.00000000000E+00 -0.00000000000E+00 -0.16017944278E+02  0.16017944278E+02  0.00000000000E+00 0. -1.
         35    2    1    2    0    0  0.00000000000E+00 -0.35527136788E-14  0.11649477679E+04  0.11969836565E+04  0.27507557486E+03 0.  0.
         25    2    3    3    0    0  0.47884705833E+02 -0.18790500325E+02  0.71089329090E+03  0.72362496602E+03  0.12497116649E+03 0.  0.
         25    2    3    3    0    0 -0.47884705833E+02  0.18790500325E+02  0.45405447700E+03  0.47335869043E+03  0.12351904212E+03 0.  0.
          5    1    4    4  502    0  0.61758322781E+02 -0.62080889169E+02  0.51960240097E+03  0.52695054069E+03  0.47000000000E+01 0. -1.
         -5    1    4    4    0  502 -0.13873616949E+02  0.43290388844E+02  0.19129088992E+03  0.19667442533E+03  0.47000000000E+01 0. -1.
          5    1    5    5  503    0  0.47791167892E+01  0.72707931171E+01  0.38729883901E+03  0.38742507029E+03  0.47000000000E+01 0.  1.
         -5    1    5    5    0  503 -0.52663822622E+02  0.11519707208E+02  0.66755637996E+02  0.85933620147E+02  0.47000000000E+01 0.  1.
<mgrwt>
<rscale>  0 0.27507557E+03</rscale>
<asrwt>0</asrwt>
<pdfrwt beam="1">  1        1 0.18168696E+00 0.27507557E+03</pdfrwt>
<pdfrwt beam="2">  1       -1 0.24643001E-02 0.27507557E+03</pdfrwt>
<totfact> 0.59557804E+03</totfact>
</mgrwt>
</event>
<event>
 9    1  0.7926126E-001  0.2757984E+03  0.7818608E-02  0.1098006E+00
          2   -1    0    0  501    0  0.00000000000E+00  0.00000000000E+00  0.25182303514E+04  0.25182303514E+04  0.00000000000E+00 0.  1.
         -2   -1    0    0    0  501 -0.00000000000E+00 -0.00000000000E+00 -0.75514108918E+01  0.75514108918E+01  0.00000000000E+00 0.  1.
         35    2    1    2    0    0  0.00000000000E+00  0.00000000000E+00  0.25106789405E+04  0.25257817623E+04  0.27579841989E+03 0.  0.
         25    2    3    3    0    0  0.50516391963E+02 -0.42003896152E+01  0.11491348272E+04  0.11570225145E+04  0.12498279385E+03 0.  0.
         25    2    3    3    0    0 -0.50516391963E+02  0.42003896152E+01  0.13615441133E+04  0.13687592478E+04  0.13088146127E+03 0.  0.
          5    1    4    4  502    0  0.46308753758E+02  0.11883946918E+02  0.14523311113E+03  0.15297213941E+03  0.47000000000E+01 0. -1.
         -5    1    4    4    0  502  0.42076382049E+01 -0.16084336533E+02  0.10039017161E+04  0.10040503751E+04  0.47000000000E+01 0. -1.
          5    1    5    5  503    0 -0.35463192143E+02  0.55406600957E+02  0.37456681252E+03  0.38032869530E+03  0.47000000000E+01 0. -1.
         -5    1    5    5    0  503 -0.15053199820E+02 -0.51206211342E+02  0.98697730075E+03  0.98843055249E+03  0.47000000000E+01 0. -1.
<mgrwt>
<rscale>  0 0.27579842E+03</rscale>
<asrwt>0</asrwt>
<pdfrwt beam="1">  1        2 0.38741938E+00 0.27579842E+03</pdfrwt>
<pdfrwt beam="2">  1       -2 0.11617575E-02 0.27579842E+03</pdfrwt>
<totfact> 0.67175036E+03</totfact>
</mgrwt>
</event>
<event>
 9    1  0.7926126E-001  0.2733527E+03  0.7818608E-02  0.1099376E+00
          2   -1    0    0  501    0  0.00000000000E+00  0.00000000000E+00  0.10073306803E+04  0.10073306803E+04  0.00000000000E+00 0.  1.
         -2   -1    0    0    0  501 -0.00000000000E+00 -0.00000000000E+00 -0.18544476239E+02  0.18544476239E+02  0.00000000000E+00 0.  1.
         35    2    1    2    0    0  0.71054273576E-14  0.00000000000E+00  0.98878620402E+03  0.10258751565E+04  0.27335266499E+03 0.  0.
         25    2    3    3    0    0 -0.52753623655E+02 -0.31211618250E+01  0.47327690601E+03  0.49276185641E+03  0.12661173289E+03 0.  0.
         25    2    3    3    0    0  0.52753623655E+02  0.31211618250E+01  0.51550929801E+03  0.53311330009E+03  0.12516895758E+03 0.  0.
          5    1    4    4  502    0 -0.68314796113E+02 -0.41635924695E+02  0.40381370294E+03  0.41168927393E+03  0.47000000000E+01 0. -1.
         -5    1    4    4    0  502  0.15561172457E+02  0.38514762870E+02  0.69463203078E+02  0.81072582475E+02  0.47000000000E+01 0. -1.
          5    1    5    5  503    0  0.60732368826E+02 -0.49878073529E+02  0.36159046777E+03  0.37006215589E+03  0.47000000000E+01 0. -1.
         -5    1    5    5    0  503 -0.79787451710E+01  0.52999235354E+02  0.15391883024E+03  0.16305114420E+03  0.47000000000E+01 0. -1.
<mgrwt>
<rscale>  0 0.27335266E+03</rscale>
<asrwt>0</asrwt>
<pdfrwt beam="1">  1        2 0.15497391E+00 0.27335266E+03</pdfrwt>
<pdfrwt beam="2">  1       -2 0.28529971E-02 0.27335266E+03</pdfrwt>
<totfact> 0.11831348E+04</totfact>
</mgrwt>
</event>
<event>
 9    1  0.7926126E-001  0.2761836E+03  0.7818608E-02  0.1097792E+00
         -2   -1    0    0    0  501 -0.00000000000E+00  0.00000000000E+00  0.18383131487E+02  0.18383131487E+02  0.00000000000E+00 0.  1.
          2   -1    0    0  501    0  0.00000000000E+00 -0.00000000000E+00 -0.10373286735E+04  0.10373286735E+04  0.00000000000E+00 0.  1.
         35    2    1    2    0    0 -0.53290705182E-14  0.35527136788E-14 -0.10189455421E+04  0.10557118050E+04  0.27618363022E+03 0.  0.
         25    2    3    3    0    0  0.15438250622E+02  0.15418930424E+02 -0.72150948967E+03  0.73264027873E+03  0.12533854688E+03 0.  0.
         25    2    3    3    0    0 -0.15438250622E+02 -0.15418930424E+02 -0.29743605239E+03  0.32307152630E+03  0.12422126569E+03 0.  0.
          5    1    4    4  502    0  0.18839603207E+02  0.37902948668E+02 -0.69901418301E+03  0.70031027567E+03  0.47000000000E+01 0.  1.
         -5    1    4    4    0  502 -0.34013525854E+01 -0.22484018244E+02 -0.22495306664E+02  0.32330003057E+02  0.47000000000E+01 0.  1.
          5    1    5    5  503    0  0.75303855272E+01  0.52893440513E+02 -0.11646479541E+03  0.12822075232E+03  0.47000000000E+01 0. -1.
         -5    1    5    5    0  503 -0.22968636149E+02 -0.68312370937E+02 -0.18097125698E+03  0.19485077399E+03  0.47000000000E+01 0. -1.
<mgrwt>
<rscale>  0 0.27618363E+03</rscale>
<asrwt>0</asrwt>
<pdfrwt beam="1">  1        2 0.15958903E+00 0.27618363E+03</pdfrwt>
<pdfrwt beam="2">  1       -2 0.28281740E-02 0.27618363E+03</pdfrwt>
<totfact> 0.11498020E+04</totfact>
</mgrwt>
</event>
<event>
 9    1  0.7926126E-001  0.2752843E+03  0.7818608E-02  0.1098293E+00
          2   -1    0    0  501    0  0.00000000000E+00  0.00000000000E+00  0.33928927713E+03  0.33928927713E+03  0.00000000000E+00 0.  1.
         -2   -1    0    0    0  501 -0.00000000000E+00 -0.00000000000E+00 -0.55838374755E+02  0.55838374755E+02  0.00000000000E+00 0.  1.
         35    2    1    2    0    0 -0.17763568394E-14  0.14210854715E-13  0.28345090237E+03  0.39512765188E+03  0.27528430254E+03 0.  0.
         25    2    3    3    0    0  0.15048743452E+02 -0.55583270477E+02  0.11354626370E+03  0.17647332627E+03  0.12220522185E+03 0.  0.
         25    2    3    3    0    0 -0.15048743452E+02  0.55583270477E+02  0.16990463867E+03  0.21865432561E+03  0.12500465283E+03 0.  0.
          5    1    4    4  502    0 -0.15523441407E+02  0.34879443872E+02  0.42758890811E+02  0.57514916164E+02  0.47000000000E+01 0. -1.
         -5    1    4    4    0  502  0.30572184860E+02 -0.90462714349E+02  0.70787372892E+02  0.11895841011E+03  0.47000000000E+01 0. -1.
          5    1    5    5  503    0 -0.45125208397E+02  0.68793505304E+02  0.55052943304E+02  0.99104729308E+02  0.47000000000E+01 0. -1.
         -5    1    5    5    0  503  0.30076464945E+02 -0.13210234826E+02  0.11485169536E+03  0.11954959630E+03  0.47000000000E+01 0. -1.
<mgrwt>
<rscale>  0 0.27528430E+03</rscale>
<asrwt>0</asrwt>
<pdfrwt beam="1">  1        2 0.52198349E-01 0.27528430E+03</pdfrwt>
<pdfrwt beam="2">  1       -2 0.85905194E-02 0.27528430E+03</pdfrwt>
<totfact> 0.80219945E+03</totfact>
</mgrwt>
</event>
<event>
 9    1  0.7926126E-001  0.2759707E+03  0.7818608E-02  0.1097910E+00
          4   -1    0    0  501    0  0.00000000000E+00  0.00000000000E+00  0.69719184412E+02  0.69719184412E+02  0.00000000000E+00 0.  1.
         -4   -1    0    0    0  501 -0.00000000000E+00 -0.00000000000E+00 -0.27309499533E+03  0.27309499533E+03  0.00000000000E+00 0.  1.
         35    2    1    2    0    0 -0.35527136788E-14  0.71054273576E-14 -0.20337581092E+03  0.34281417975E+03  0.27597072556E+03 0.  0.
         25    2    3    3    0    0 -0.19675385439E+02 -0.59453606560E+02 -0.68199442636E+02  0.14836421161E+03  0.11592636968E+03 0.  0.
         25    2    3    3    0    0  0.19675385439E+02  0.59453606560E+02 -0.13517636829E+03  0.19444996813E+03  0.12496514490E+03 0.  0.
          5    1    4    4  502    0 -0.24922062812E+02 -0.91168245923E+02 -0.32404148231E+02  0.10002438254E+03  0.47000000000E+01 0. -1.
         -5    1    4    4    0  502  0.52466773731E+01  0.31714639363E+02 -0.35795294405E+02  0.48339829074E+02  0.47000000000E+01 0. -1.
          5    1    5    5  503    0  0.29853873987E+01  0.72447424630E+02 -0.17424442281E+02  0.74721101854E+02  0.47000000000E+01 0. -1.
         -5    1    5    5    0  503  0.16689998040E+02 -0.12993818070E+02 -0.11775192601E+03  0.11972886628E+03  0.47000000000E+01 0. -1.
<mgrwt>
<rscale>  0 0.27597073E+03</rscale>
<asrwt>0</asrwt>
<pdfrwt beam="1">  1        4 0.10726028E-01 0.27597073E+03</pdfrwt>
<pdfrwt beam="2">  1       -4 0.42014615E-01 0.27597073E+03</pdfrwt>
<totfact> 0.69686978E+02</totfact>
</mgrwt>
</event>
<event>
 9    1  0.7926126E-001  0.2687889E+03  0.7818608E-02  0.1101975E+00
          2   -1    0    0  501    0  0.00000000000E+00  0.00000000000E+00  0.68646171500E+03  0.68646171500E+03  0.00000000000E+00 0.  1.
         -2   -1    0    0    0  501 -0.00000000000E+00 -0.00000000000E+00 -0.26311543230E+02  0.26311543230E+02  0.00000000000E+00 0.  1.
         35    2    1    2    0    0 -0.35527136788E-14 -0.35527136788E-14  0.66015017177E+03  0.71277325823E+03  0.26878889181E+03 0.  0.
         25    2    3    3    0    0  0.29255926492E+02  0.13273009974E+02  0.42896325934E+03  0.44796045781E+03  0.12500804721E+03 0.  0.
         25    2    3    3    0    0 -0.29255926492E+02 -0.13273009974E+02  0.23118691243E+03  0.26481280043E+03  0.12508536589E+03 0.  0.
          5    1    4    4  502    0  0.55466581794E+02 -0.35620788292E+02  0.15674662206E+03  0.17010871754E+03  0.47000000000E+01 0.  1.
         -5    1    4    4    0  502 -0.26210655302E+02  0.48893798266E+02  0.27221663727E+03  0.27785174027E+03  0.47000000000E+01 0.  1.
          5    1    5    5  503    0 -0.15166241628E+01 -0.21283686401E+01  0.23432705615E+03  0.23438875686E+03  0.47000000000E+01 0. -1.
         -5    1    5    5    0  503 -0.27739302329E+02 -0.11144641334E+02 -0.31401437133E+01  0.30424043562E+02  0.47000000000E+01 0. -1.
<mgrwt>
<rscale>  0 0.26878889E+03</rscale>
<asrwt>0</asrwt>
<pdfrwt beam="1">  1        2 0.10560948E+00 0.26878889E+03</pdfrwt>
<pdfrwt beam="2">  1       -2 0.40479303E-02 0.26878889E+03</pdfrwt>
<totfact> 0.11533327E+04</totfact>
</mgrwt>
</event>
<event>
 9    1  0.7926126E-001  0.2725254E+03  0.7818608E-02  0.1099843E+00
         -2   -1    0    0    0  501 -0.00000000000E+00  0.00000000000E+00  0.27195229714E+02  0.27195229714E+02  0.00000000000E+00 0.  1.
          2   -1    0    0  501    0  0.00000000000E+00 -0.00000000000E+00 -0.68274912721E+03  0.68274912721E+03  0.00000000000E+00 0.  1.
         35    2    1    2    0    0 -0.35527136788E-14  0.17763568394E-14 -0.65555389750E+03  0.70994435693E+03  0.27252537021E+03 0.  0.
         25    2    3    3    0    0  0.24246664880E+02 -0.14255855057E+02 -0.45309834961E+03  0.47075619765E+03  0.12458793298E+03 0.  0.
         25    2    3    3    0    0 -0.24246664880E+02  0.14255855057E+02 -0.20245554789E+03  0.23918815928E+03  0.12422397718E+03 0.  0.
          5    1    4    4  502    0  0.48367753309E+02 -0.58704632193E+02 -0.29592104853E+03  0.30557655401E+03  0.47000000000E+01 0. -1.
         -5    1    4    4    0  502 -0.24121088429E+02  0.44448777136E+02 -0.15717730108E+03  0.16517964364E+03  0.47000000000E+01 0. -1.
          5    1    5    5  503    0 -0.61824745416E+02  0.23814820313E+02 -0.18470710341E+03  0.19628614027E+03  0.47000000000E+01 0. -1.
         -5    1    5    5    0  503  0.37578080536E+02 -0.95589652561E+01 -0.17748444480E+02  0.42902019009E+02  0.47000000000E+01 0. -1.
<mgrwt>
<rscale>  0 0.27252537E+03</rscale>
<asrwt>0</asrwt>
<pdfrwt beam="1">  1        2 0.10503833E+00 0.27252537E+03</pdfrwt>
<pdfrwt beam="2">  1       -2 0.41838815E-02 0.27252537E+03</pdfrwt>
<totfact> 0.11051514E+04</totfact>
</mgrwt>
</event>
<event>
 9    1  0.7926126E-001  0.2799768E+03  0.7818608E-02  0.1095702E+00
         -2   -1    0    0    0  501 -0.00000000000E+00  0.00000000000E+00  0.40114680987E+02  0.40114680987E+02  0.00000000000E+00 0. -1.
          2   -1    0    0  501    0  0.00000000000E+00 -0.00000000000E+00 -0.48851818826E+03  0.48851818826E+03  0.00000000000E+00 0. -1.
         35    2    1    2    0    0  0.00000000000E+00  0.00000000000E+00 -0.44840350727E+03  0.52863286924E+03  0.27997679388E+03 0.  0.
         25    2    3    3    0    0  0.31143551042E+02 -0.28525012250E+02 -0.31440476431E+03  0.34114936412E+03  0.12549476371E+03 0.  0.
         25    2    3    3    0    0 -0.31143551042E+02  0.28525012250E+02 -0.13399874296E+03  0.18748350513E+03  0.12414026134E+03 0.  0.
          5    1    4    4  502    0 -0.41665769821E+02  0.31212042130E+01 -0.18116143300E+03  0.18597670041E+03  0.47000000000E+01 0.  1.
         -5    1    4    4    0  502  0.72809320864E+02 -0.31646216463E+02 -0.13324333132E+03  0.15517266371E+03  0.47000000000E+01 0.  1.
          5    1    5    5  503    0  0.36548779016E+02  0.47206104059E+01 -0.10241225551E+03  0.10894245035E+03  0.47000000000E+01 0.  1.
         -5    1    5    5    0  503 -0.67692330059E+02  0.23804401844E+02 -0.31586487447E+02  0.78541054775E+02  0.47000000000E+01 0.  1.
<mgrwt>
<rscale>  0 0.27997679E+03</rscale>
<asrwt>0</asrwt>
<pdfrwt beam="1">  1        2 0.75156645E-01 0.27997679E+03</pdfrwt>
<pdfrwt beam="2">  1       -2 0.61714894E-02 0.27997679E+03</pdfrwt>
<totfact> 0.90116479E+03</totfact>
</mgrwt>
</event>
<event>
 9    1  0.7926126E-001  0.2698622E+03  0.7818608E-02  0.1101359E+00
          2   -1    0    0  501    0  0.00000000000E+00  0.00000000000E+00  0.11844423129E+04  0.11844423129E+04  0.00000000000E+00 0.  1.
         -2   -1    0    0    0  501 -0.00000000000E+00 -0.00000000000E+00 -0.15371285202E+02  0.15371285202E+02  0.00000000000E+00 0.  1.
         35    2    1    2    0    0  0.00000000000E+00  0.00000000000E+00  0.11690710277E+04  0.11998135981E+04  0.26986219148E+03 0.  0.
         25    2    3    3    0    0 -0.14613826083E+01 -0.31276284137E+02  0.76217718860E+03  0.77298319619E+03  0.12493443554E+03 0.  0.
         25    2    3    3    0    0  0.14613826083E+01  0.31276284137E+02  0.40689383914E+03  0.42683040195E+03  0.12506499955E+03 0.  0.
          5    1    4    4  502    0 -0.51095821844E+02 -0.38892348074E+02  0.59196375000E+03  0.59545492614E+03  0.47000000000E+01 0. -1.
         -5    1    4    4    0  502  0.49634439236E+02  0.76160639367E+01  0.17021343860E+03  0.17752827005E+03  0.47000000000E+01 0. -1.
          5    1    5    5  503    0 -0.66767560678E+01  0.36629313683E+02  0.41280339265E+03  0.41450574987E+03  0.47000000000E+01 0. -1.
         -5    1    5    5    0  503  0.81381386761E+01 -0.53530295457E+01 -0.59095535042E+01  0.12324652086E+02  0.47000000000E+01 0. -1.
<mgrwt>
<rscale>  0 0.26986219E+03</rscale>
<asrwt>0</asrwt>
<pdfrwt beam="1">  1        2 0.18222182E+00 0.26986219E+03</pdfrwt>
<pdfrwt beam="2">  1       -2 0.23648140E-02 0.26986219E+03</pdfrwt>
<totfact> 0.12282826E+04</totfact>
</mgrwt>
</event>
<event>
 9    1  0.7926126E-001  0.2761095E+03  0.7818608E-02  0.1097833E+00
          4   -1    0    0  501    0  0.00000000000E+00  0.00000000000E+00  0.44599807413E+02  0.44599807413E+02  0.00000000000E+00 0. -1.
         -4   -1    0    0    0  501 -0.00000000000E+00 -0.00000000000E+00 -0.42733609498E+03  0.42733609498E+03  0.00000000000E+00 0. -1.
         35    2    1    2    0    0 -0.35527136788E-14  0.71054273576E-14 -0.38273628757E+03  0.47193590239E+03  0.27610945320E+03 0.  0.
         25    2    3    3    0    0  0.43913602963E+01  0.32210672917E+02 -0.27645514918E+03  0.30520359272E+03  0.12515978590E+03 0.  0.
         25    2    3    3    0    0 -0.43913602963E+01 -0.32210672917E+02 -0.10628113839E+03  0.16673230967E+03  0.12428664939E+03 0.  0.
          5    1    4    4  502    0  0.22812446729E+02  0.20917361054E+02 -0.36656969415E+01  0.31519375839E+02  0.47000000000E+01 0. -1.
         -5    1    4    4    0  502 -0.18421086433E+02  0.11293311863E+02 -0.27278945224E+03  0.27368421688E+03  0.47000000000E+01 0. -1.
          5    1    5    5  503    0  0.39940002214E+02 -0.50235802027E+02 -0.99032241330E+02  0.11810298220E+03  0.47000000000E+01 0.  1.
         -5    1    5    5    0  503 -0.44331362511E+02  0.18025129110E+02 -0.72488970565E+01  0.48629327468E+02  0.47000000000E+01 0.  1.
<mgrwt>
<rscale>  0 0.27610945E+03</rscale>
<asrwt>0</asrwt>
<pdfrwt beam="1">  1        4 0.68615091E-02 0.27610945E+03</pdfrwt>
<pdfrwt beam="2">  1       -4 0.65744012E-01 0.27610945E+03</pdfrwt>
<totfact> 0.58287750E+02</totfact>
</mgrwt>
</event>
<event>
 9    1  0.7926126E-001  0.2744857E+03  0.7818608E-02  0.1098739E+00
         -2   -1    0    0    0  501 -0.00000000000E+00  0.00000000000E+00  0.49447009264E+02  0.49447009264E+02  0.00000000000E+00 0. -1.
          2   -1    0    0  501    0  0.00000000000E+00 -0.00000000000E+00 -0.38092503454E+03  0.38092503454E+03  0.00000000000E+00 0. -1.
         35    2    1    2    0    0  0.00000000000E+00  0.71054273576E-14 -0.33147802528E+03  0.43037204380E+03  0.27448572795E+03 0.  0.
         25    2    3    3    0    0  0.13009368499E+01  0.30436592908E+02 -0.24524452247E+03  0.27678696741E+03  0.12465179864E+03 0.  0.
         25    2    3    3    0    0 -0.13009368499E+01 -0.30436592908E+02 -0.86233502810E+02  0.15358507639E+03  0.12338589895E+03 0.  0.
          5    1    4    4  502    0 -0.30794017301E+02  0.18499097872E+02 -0.23891712434E+03  0.24164844387E+03  0.47000000000E+01 0. -1.
         -5    1    4    4    0  502  0.32094954151E+02  0.11937495036E+02 -0.63273981302E+01  0.35138523543E+02  0.47000000000E+01 0. -1.
          5    1    5    5  503    0 -0.26442449806E+02 -0.71312509950E+02 -0.67686095102E+02  0.10192239547E+03  0.47000000000E+01 0.  1.
         -5    1    5    5    0  503  0.25141512956E+02  0.40875917043E+02 -0.18547407708E+02  0.51662680926E+02  0.47000000000E+01 0.  1.
<mgrwt>
<rscale>  0 0.27448573E+03</rscale>
<asrwt>0</asrwt>
<pdfrwt beam="1">  1        2 0.58603854E-01 0.27448573E+03</pdfrwt>
<pdfrwt beam="2">  1       -2 0.76072318E-02 0.27448573E+03</pdfrwt>
<totfact> 0.85595667E+03</totfact>
</mgrwt>
</event>
<event>
 9    1  0.7926126E-001  0.2756483E+03  0.7818608E-02  0.1098090E+00
         -1   -1    0    0    0  501 -0.00000000000E+00  0.00000000000E+00  0.22403958513E+03  0.22403958513E+03  0.00000000000E+00 0. -1.
          1   -1    0    0  501    0  0.00000000000E+00 -0.00000000000E+00 -0.84786336479E+02  0.84786336479E+02  0.00000000000E+00 0. -1.
         35    2    1    2    0    0  0.35527136788E-14  0.71054273576E-14  0.13925324865E+03  0.30882592161E+03  0.27564829511E+03 0.  0.
         25    2    3    3    0    0 -0.58733615429E+01  0.26953189304E+02  0.99835401801E+01  0.12720190923E+03  0.12377271043E+03 0.  0.
         25    2    3    3    0    0  0.58733615429E+01 -0.26953189304E+02  0.12926970847E+03  0.18162401237E+03  0.12456184630E+03 0.  0.
          5    1    4    4  502    0  0.26486085820E+02  0.47816077283E+02  0.47995137188E+02  0.72893848729E+02  0.47000000000E+01 0. -1.
         -5    1    4    4    0  502 -0.32359447363E+02 -0.20862887979E+02 -0.38011597008E+02  0.54308060503E+02  0.47000000000E+01 0. -1.
          5    1    5    5  503    0 -0.24283039911E+02 -0.11267048054E+02 -0.16549699881E+02  0.31821297354E+02  0.47000000000E+01 0. -1.
         -5    1    5    5    0  503  0.30156401454E+02 -0.15686141250E+02  0.14581940835E+03  0.14980271502E+03  0.47000000000E+01 0. -1.
<mgrwt>
<rscale>  0 0.27564830E+03</rscale>
<asrwt>0</asrwt>
<pdfrwt beam="1">  1        1 0.13044052E-01 0.27564830E+03</pdfrwt>
<pdfrwt beam="2">  1       -1 0.34467628E-01 0.27564830E+03</pdfrwt>
<totfact> 0.35871958E+03</totfact>
</mgrwt>
</event>
<event>
 9    1  0.7926126E-001  0.2715884E+03  0.7818608E-02  0.1100374E+00
          1   -1    0    0  501    0  0.00000000000E+00  0.00000000000E+00  0.11492650836E+03  0.11492650836E+03  0.00000000000E+00 0.  1.
         -1   -1    0    0    0  501 -0.00000000000E+00 -0.00000000000E+00 -0.16045093142E+03  0.16045093142E+03  0.00000000000E+00 0.  1.
         35    2    1    2    0    0  0.00000000000E+00  0.00000000000E+00 -0.45524423062E+02  0.27537743977E+03  0.27158840410E+03 0.  0.
         25    2    3    3    0    0 -0.17162561123E+02 -0.19017778135E+02  0.25011568000E+02  0.12922808840E+03  0.12416960541E+03 0.  0.
         25    2    3    3    0    0  0.17162561123E+02  0.19017778135E+02 -0.70535991062E+02  0.14614935137E+03  0.12541163216E+03 0.  0.
          5    1    4    4  502    0  0.11912212708E+02 -0.66465323650E+02 -0.83187214259E+00  0.67692850957E+02  0.47000000000E+01 0.  1.
         -5    1    4    4    0  502 -0.29074773831E+02  0.47447545515E+02  0.25843440143E+02  0.61535237443E+02  0.47000000000E+01 0.  1.
          5    1    5    5  503    0 -0.28426069885E+02 -0.35856421581E+02 -0.57233835265E+02  0.73427013536E+02  0.47000000000E+01 0. -1.
         -5    1    5    5    0  503  0.45588631008E+02  0.54874199715E+02 -0.13302155797E+02  0.72722337837E+02  0.47000000000E+01 0. -1.
<mgrwt>
<rscale>  0 0.27158840E+03</rscale>
<asrwt>0</asrwt>
<pdfrwt beam="1">  1        1 0.17681001E-01 0.27158840E+03</pdfrwt>
<pdfrwt beam="2">  1       -1 0.24684759E-01 0.27158840E+03</pdfrwt>
<totfact> 0.42385569E+03</totfact>
</mgrwt>
</event>
<event>
 9    1  0.7926126E-001  0.2756172E+03  0.7818608E-02  0.1098107E+00
         -1   -1    0    0    0  501 -0.00000000000E+00  0.00000000000E+00  0.10684172341E+02  0.10684172341E+02  0.00000000000E+00 0. -1.
          1   -1    0    0  501    0  0.00000000000E+00 -0.00000000000E+00 -0.17775086507E+04  0.17775086507E+04  0.00000000000E+00 0. -1.
         35    2    1    2    0    0  0.00000000000E+00  0.00000000000E+00 -0.17668244783E+04  0.17881928230E+04  0.27561718931E+03 0.  0.
         25    2    3    3    0    0 -0.35844306880E+02 -0.41440795794E+02 -0.10029113310E+04  0.10121332912E+04  0.12482190301E+03 0.  0.
         25    2    3    3    0    0  0.35844306880E+02  0.41440795794E+02 -0.76391314735E+03  0.77605953180E+03  0.12531139739E+03 0.  0.
          5    1    4    4  502    0  0.22917028388E+02  0.22081548822E+02 -0.55403007103E+03  0.55496323716E+03  0.47000000000E+01 0.  1.
         -5    1    4    4    0  502 -0.58761335268E+02 -0.63522344616E+02 -0.44888125993E+03  0.45717005403E+03  0.47000000000E+01 0.  1.
          5    1    5    5  503    0 -0.24667257773E+02  0.55443476603E+02 -0.20961903621E+03  0.21827662047E+03  0.47000000000E+01 0. -1.
         -5    1    5    5    0  503  0.60511564652E+02 -0.14002680809E+02 -0.55429411114E+03  0.55778291133E+03  0.47000000000E+01 0. -1.
<mgrwt>
<rscale>  0 0.27561719E+03</rscale>
<asrwt>0</asrwt>
<pdfrwt beam="1">  1        1 0.27346277E+00 0.27561719E+03</pdfrwt>
<pdfrwt beam="2">  1       -1 0.16437194E-02 0.27561719E+03</pdfrwt>
<totfact> 0.42986176E+03</totfact>
</mgrwt>
</event>
<event>
 9    1  0.7926126E-001  0.2748192E+03  0.7818608E-02  0.1098553E+00
         -4   -1    0    0    0  501 -0.00000000000E+00  0.00000000000E+00  0.18086965326E+03  0.18086965326E+03  0.00000000000E+00 0. -1.
          4   -1    0    0  501    0  0.00000000000E+00 -0.00000000000E+00 -0.10439230857E+03  0.10439230857E+03  0.00000000000E+00 0. -1.
         35    2    1    2    0    0  0.00000000000E+00 -0.14210854715E-13  0.76477344690E+02  0.28526196182E+03  0.27481921805E+03 0.  0.
         25    2    3    3    0    0  0.32000541649E+02 -0.36249861105E+02 -0.87540330877E-01  0.13372280045E+03  0.12467434620E+03 0.  0.
         25    2    3    3    0    0 -0.32000541649E+02  0.36249861105E+02  0.76564885020E+02  0.15153916137E+03  0.12150657890E+03 0.  0.
          5    1    4    4  502    0  0.25762886665E+02 -0.67458174246E+02  0.39714626670E+02  0.82544976670E+02  0.47000000000E+01 0.  1.
         -5    1    4    4    0  502  0.62376549836E+01  0.31208313141E+02 -0.39802167001E+02  0.51177823779E+02  0.47000000000E+01 0.  1.
          5    1    5    5  503    0 -0.24392192875E+02  0.49577557257E+02 -0.15903510689E+02  0.57688169577E+02  0.47000000000E+01 0. -1.
         -5    1    5    5    0  503 -0.76083487735E+01 -0.13327696152E+02  0.92468395710E+02  0.93850991795E+02  0.47000000000E+01 0. -1.
<mgrwt>
<rscale>  0 0.27481922E+03</rscale>
<asrwt>0</asrwt>
<pdfrwt beam="1">  1        4 0.16060355E-01 0.27481922E+03</pdfrwt>
<pdfrwt beam="2">  1       -4 0.27826100E-01 0.27481922E+03</pdfrwt>
<totfact> 0.76822624E+02</totfact>
</mgrwt>
</event>
<event>
 9    1  0.7926126E-001  0.2764714E+03  0.7818608E-02  0.1097632E+00
         -2   -1    0    0    0  501 -0.00000000000E+00  0.00000000000E+00  0.10020535907E+02  0.10020535907E+02  0.00000000000E+00 0. -1.
          2   -1    0    0  501    0  0.00000000000E+00 -0.00000000000E+00 -0.19069951349E+04  0.19069951349E+04  0.00000000000E+00 0. -1.
         35    2    1    2    0    0  0.71054273576E-14  0.00000000000E+00 -0.18969745990E+04  0.19170156708E+04  0.27647143234E+03 0.  0.
         25    2    3    3    0    0 -0.49320561117E+02 -0.10237557909E+02 -0.11643354635E+04  0.11721592123E+04  0.12547040307E+03 0.  0.
         25    2    3    3    0    0  0.49320561117E+02  0.10237557909E+02 -0.73263913547E+03  0.74485645850E+03  0.12455406698E+03 0.  0.
          5    1    4    4  502    0 -0.74051090472E+02 -0.48689779205E+02 -0.81331137546E+03  0.81813919479E+03  0.47000000000E+01 0.  1.
         -5    1    4    4    0  502  0.24730529355E+02  0.38452221295E+02 -0.35102408806E+03  0.35402001752E+03  0.47000000000E+01 0.  1.
          5    1    5    5  503    0  0.75268642255E+02  0.46839360823E+02 -0.45568092453E+03  0.46424830556E+03  0.47000000000E+01 0.  1.
         -5    1    5    5    0  503 -0.25948081138E+02 -0.36601802914E+02 -0.27695821094E+03  0.28060815294E+03  0.47000000000E+01 0.  1.
<mgrwt>
<rscale>  0 0.27647143E+03</rscale>
<asrwt>0</asrwt>
<pdfrwt beam="1">  1        2 0.29338421E+00 0.27647143E+03</pdfrwt>
<pdfrwt beam="2">  1       -2 0.15416191E-02 0.27647143E+03</pdfrwt>
<totfact> 0.94252031E+03</totfact>
</mgrwt>
</event>
<event>
 9    1  0.7926126E-001  0.2737330E+03  0.7818608E-02  0.1099162E+00
          1   -1    0    0  501    0  0.00000000000E+00  0.00000000000E+00  0.12074724245E+04  0.12074724245E+04  0.00000000000E+00 0.  1.
         -1   -1    0    0    0  501 -0.00000000000E+00 -0.00000000000E+00 -0.15513756801E+02  0.15513756801E+02  0.00000000000E+00 0.  1.
         35    2    1    2    0    0  0.00000000000E+00  0.35527136788E-14  0.11919586677E+04  0.12229861813E+04  0.27373296139E+03 0.  0.
         25    2    3    3    0    0 -0.27158438166E+02  0.20158414194E+02  0.81718934311E+03  0.82634828344E+03  0.11793693497E+03 0.  0.
         25    2    3    3    0    0  0.27158438166E+02 -0.20158414194E+02  0.37476932457E+03  0.39663789784E+03  0.12540188570E+03 0.  0.
          5    1    4    4  502    0  0.92774756715E+01  0.22771490551E+02  0.74393656784E+03  0.74435765550E+03  0.47000000000E+01 0. -1.
         -5    1    4    4    0  502 -0.36435913837E+02 -0.26130763565E+01  0.73252775271E+02  0.81990627941E+02  0.47000000000E+01 0. -1.
          5    1    5    5  503    0 -0.47555997166E+02 -0.20231993467E+02  0.11247458556E+03  0.12386899864E+03  0.47000000000E+01 0. -1.
         -5    1    5    5    0  503  0.74714435331E+02  0.73579272773E-01  0.26229473900E+03  0.27276889920E+03  0.47000000000E+01 0. -1.
<mgrwt>
<rscale>  0 0.27373296E+03</rscale>
<asrwt>0</asrwt>
<pdfrwt beam="1">  1        1 0.18576491E+00 0.27373296E+03</pdfrwt>
<pdfrwt beam="2">  1       -1 0.23867328E-02 0.27373296E+03</pdfrwt>
<totfact> 0.59802610E+03</totfact>
</mgrwt>
</event>
<event>
 9    1  0.7926126E-001  0.2744154E+03  0.7818608E-02  0.1098779E+00
         -2   -1    0    0    0  501 -0.00000000000E+00  0.00000000000E+00  0.32999038515E+02  0.32999038515E+02  0.00000000000E+00 0.  1.
          2   -1    0    0  501    0  0.00000000000E+00 -0.00000000000E+00 -0.57050020558E+03  0.57050020558E+03  0.00000000000E+00 0.  1.
         35    2    1    2    0    0  0.71054273576E-14  0.35527136788E-14 -0.53750116706E+03  0.60349924409E+03  0.27441543875E+03 0.  0.
         25    2    3    3    0    0 -0.55972232162E+02  0.18943908891E+01 -0.25852640199E+03  0.29247805771E+03  0.12478395020E+03 0.  0.
         25    2    3    3    0    0  0.55972232162E+02 -0.18943908891E+01 -0.27897476508E+03  0.31102118638E+03  0.12558176356E+03 0.  0.
          5    1    4    4  502    0  0.11318759177E+02  0.30407303716E+02 -0.11369628183E+02  0.34699810858E+02  0.47000000000E+01 0. -1.
         -5    1    4    4    0  502 -0.67290991339E+02 -0.28512912827E+02 -0.24715677380E+03  0.25777824685E+03  0.47000000000E+01 0. -1.
          5    1    5    5  503    0  0.63437447925E+02 -0.41089892489E+02 -0.25071362672E+03  0.26190093869E+03  0.47000000000E+01 0. -1.
         -5    1    5    5    0  503 -0.74652157631E+01  0.39195501600E+02 -0.28261138355E+02  0.49120247690E+02  0.47000000000E+01 0. -1.
<mgrwt>
<rscale>  0 0.27441544E+03</rscale>
<asrwt>0</asrwt>
<pdfrwt beam="1">  1        2 0.87769258E-01 0.27441544E+03</pdfrwt>
<pdfrwt beam="2">  1       -2 0.50767754E-02 0.27441544E+03</pdfrwt>
<totfact> 0.10184776E+04</totfact>
</mgrwt>
</event>
<event>
 9    1  0.7926126E-001  0.2763568E+03  0.7818608E-02  0.1097696E+00
         -3   -1    0    0    0  501 -0.00000000000E+00  0.00000000000E+00  0.30511557612E+02  0.30511557612E+02  0.00000000000E+00 0. -1.
          3   -1    0    0  501    0  0.00000000000E+00 -0.00000000000E+00 -0.62577191469E+03  0.62577191469E+03  0.00000000000E+00 0. -1.
         35    2    1    2    0    0  0.71054273576E-14  0.00000000000E+00 -0.59526035708E+03  0.65628347230E+03  0.27635684053E+03 0.  0.
         25    2    3    3    0    0 -0.39181817915E+02 -0.38263918808E+02 -0.34003084247E+03  0.36684254879E+03  0.12630573792E+03 0.  0.
         25    2    3    3    0    0  0.39181817915E+02  0.38263918808E+02 -0.25522951461E+03  0.28944092352E+03  0.12503839707E+03 0.  0.
          5    1    4    4  502    0 -0.63225287434E+02 -0.71267525481E+02 -0.25849304906E+03  0.27553083960E+03  0.47000000000E+01 0.  1.
         -5    1    4    4    0  502  0.24043469519E+02  0.33003606673E+02 -0.81537793414E+02  0.91311709188E+02  0.47000000000E+01 0.  1.
          5    1    5    5  503    0 -0.34327872112E+02  0.27165466624E+02 -0.32894968991E+02  0.54959388329E+02  0.47000000000E+01 0. -1.
         -5    1    5    5    0  503  0.73509690027E+02  0.11098452184E+02 -0.22233454562E+03  0.23448153519E+03  0.47000000000E+01 0. -1.
<mgrwt>
<rscale>  0 0.27635684E+03</rscale>
<asrwt>0</asrwt>
<pdfrwt beam="1">  1        3 0.96272599E-01 0.27635684E+03</pdfrwt>
<pdfrwt beam="2">  1       -3 0.46940859E-02 0.27635684E+03</pdfrwt>
<totfact> 0.63286099E+02</totfact>
</mgrwt>
</event>
<event>
 9    1  0.7926126E-001  0.2666223E+03  0.7818608E-02  0.1103228E+00
          2   -1    0    0  501    0  0.00000000000E+00  0.00000000000E+00  0.51956625425E+02  0.51956625425E+02  0.00000000000E+00 0.  1.
         -2   -1    0    0    0  501 -0.00000000000E+00 -0.00000000000E+00 -0.34205186329E+03  0.34205186329E+03  0.00000000000E+00 0.  1.
         35    2    1    2    0    0  0.00000000000E+00 -0.71054273576E-14 -0.29009523786E+03  0.39400848871E+03  0.26662228367E+03 0.  0.
         25    2    3    3    0    0 -0.77171264888E+01  0.14605734887E+02 -0.83658428252E+02  0.15203689918E+03  0.12587138103E+03 0.  0.
         25    2    3    3    0    0  0.77171264888E+01 -0.14605734887E+02 -0.20643680961E+03  0.24197158953E+03  0.12514476516E+03 0.  0.
          5    1    4    4  502    0 -0.42127916998E+02 -0.41627673970E+02 -0.28229281705E+02  0.65776948670E+02  0.47000000000E+01 0.  1.
         -5    1    4    4    0  502  0.34410790509E+02  0.56233408857E+02 -0.55429146547E+02  0.86259950510E+02  0.47000000000E+01 0.  1.
          5    1    5    5  503    0  0.36035023225E+02  0.44576213750E+02 -0.12253120055E+03  0.13535710857E+03  0.47000000000E+01 0. -1.
         -5    1    5    5    0  503 -0.28317896736E+02 -0.59181948637E+02 -0.83905609058E+02  0.10661448096E+03  0.47000000000E+01 0. -1.
<mgrwt>
<rscale>  0 0.26662228E+03</rscale>
<asrwt>0</asrwt>
<pdfrwt beam="1">  1        2 0.79933272E-02 0.26662228E+03</pdfrwt>
<pdfrwt beam="2">  1       -2 0.52623362E-01 0.26662228E+03</pdfrwt>
<totfact> 0.29341042E+03</totfact>
</mgrwt>
</event>
<event>
 9    1  0.7926126E-001  0.2674763E+03  0.7818608E-02  0.1102733E+00
         -2   -1    0    0    0  501 -0.00000000000E+00  0.00000000000E+00  0.45986029387E+02  0.45986029387E+02  0.00000000000E+00 0. -1.
          2   -1    0    0  501    0  0.00000000000E+00 -0.00000000000E+00 -0.38894188415E+03  0.38894188415E+03  0.00000000000E+00 0. -1.
         35    2    1    2    0    0  0.00000000000E+00  0.00000000000E+00 -0.34295585477E+03  0.43492791354E+03  0.26747630111E+03 0.  0.
         25    2    3    3    0    0  0.44143013572E+02  0.13524039599E+02 -0.15299310334E+03  0.20276308086E+03  0.12479772431E+03 0.  0.
         25    2    3    3    0    0 -0.44143013572E+02 -0.13524039599E+02 -0.18996275142E+03  0.23216483268E+03  0.12523241318E+03 0.  0.
          5    1    4    4  502    0 -0.47127159589E+01  0.42076091719E+02 -0.13743877185E+03  0.14388923933E+03  0.47000000000E+01 0.  1.
         -5    1    4    4    0  502  0.48855729531E+02 -0.28552052120E+02 -0.15554331491E+02  0.58873841529E+02  0.47000000000E+01 0.  1.
          5    1    5    5  503    0  0.20966814227E+02 -0.25528312917E+02 -0.15217052246E+03  0.15578594277E+03  0.47000000000E+01 0. -1.
         -5    1    5    5    0  503 -0.65109827800E+02  0.12004273317E+02 -0.37792228961E+02  0.76378889909E+02  0.47000000000E+01 0. -1.
<mgrwt>
<rscale>  0 0.26747630E+03</rscale>
<asrwt>0</asrwt>
<pdfrwt beam="1">  1        2 0.59837211E-01 0.26747630E+03</pdfrwt>
<pdfrwt beam="2">  1       -2 0.70747740E-02 0.26747630E+03</pdfrwt>
<totfact> 0.93571057E+03</totfact>
</mgrwt>
</event>
<event>
 9    1  0.7926126E-001  0.3063123E+03  0.7818608E-02  0.1082127E+00
          2   -1    0    0  501    0  0.00000000000E+00  0.00000000000E+00  0.30655165714E+04  0.30655165714E+04  0.00000000000E+00 0. -1.
         -2   -1    0    0    0  501 -0.00000000000E+00 -0.00000000000E+00 -0.76518281220E+01  0.76518281220E+01  0.00000000000E+00 0. -1.
         35    2    1    2    0    0 -0.71054273576E-14  0.00000000000E+00  0.30578647433E+04  0.30731683995E+04  0.30631229756E+03 0.  0.
         25    2    3    3    0    0 -0.21951095986E+02  0.38422893998E+02  0.76356978608E+03  0.77506867657E+03  0.12543709891E+03 0.  0.
         25    2    3    3    0    0  0.21951095986E+02 -0.38422893998E+02  0.22942949572E+04  0.22980997229E+04  0.12455848677E+03 0.  0.
          5    1    4    4  502    0 -0.92147038351E+01 -0.12399682551E+00 -0.61060945523E-01  0.10345040861E+02  0.47000000000E+01 0.  1.
         -5    1    4    4    0  502 -0.12736392151E+02  0.38546890824E+02  0.76363084703E+03  0.76472363571E+03  0.47000000000E+01 0.  1.
          5    1    5    5  503    0  0.72872788027E+02 -0.24944236194E+02  0.11523494214E+04  0.11549302737E+04  0.47000000000E+01 0.  1.
         -5    1    5    5    0  503 -0.50921692041E+02 -0.13478657804E+02  0.11419455358E+04  0.11431694492E+04  0.47000000000E+01 0.  1.
<mgrwt>
<rscale>  0 0.30631230E+03</rscale>
<asrwt>0</asrwt>
<pdfrwt beam="1">  1        2 0.47161695E+00 0.30631230E+03</pdfrwt>
<pdfrwt beam="2">  1       -2 0.11772068E-02 0.30631230E+03</pdfrwt>
<totfact> 0.31923010E+03</totfact>
</mgrwt>
</event>
<event>
 9    1  0.7926126E-001  0.2722864E+03  0.7818608E-02  0.1099978E+00
          1   -1    0    0  501    0  0.00000000000E+00  0.00000000000E+00  0.15306884547E+03  0.15306884547E+03  0.00000000000E+00 0. -1.
         -1   -1    0    0    0  501 -0.00000000000E+00 -0.00000000000E+00 -0.12108907467E+03  0.12108907467E+03  0.00000000000E+00 0. -1.
         35    2    1    2    0    0  0.35527136788E-14  0.53290705182E-14  0.31979770804E+02  0.27415792015E+03  0.27228635559E+03 0.  0.
         25    2    3    3    0    0 -0.21313025499E+02  0.15558450091E+02 -0.35037738850E+02  0.13252403803E+03  0.12505465640E+03 0.  0.
         25    2    3    3    0    0  0.21313025499E+02 -0.15558450091E+02  0.67017509654E+02  0.14163388212E+03  0.12195285785E+03 0.  0.
          5    1    4    4  502    0 -0.60890070915E+02 -0.12868887725E+02 -0.51456802357E+02  0.80889440078E+02  0.47000000000E+01 0. -1.
         -5    1    4    4    0  502  0.39577045416E+02  0.28427337816E+02  0.16419063507E+02  0.51634597951E+02  0.47000000000E+01 0. -1.
          5    1    5    5  503    0 -0.13922493657E+02 -0.35424332493E+02  0.87876346714E+02  0.95880454077E+02  0.47000000000E+01 0.  1.
         -5    1    5    5    0  503  0.35235519156E+02  0.19865882402E+02 -0.20858837060E+02  0.45753428039E+02  0.47000000000E+01 0.  1.
<mgrwt>
<rscale>  0 0.27228636E+03</rscale>
<asrwt>0</asrwt>
<pdfrwt beam="1">  1        1 0.23549053E-01 0.27228636E+03</pdfrwt>
<pdfrwt beam="2">  1       -1 0.18629088E-01 0.27228636E+03</pdfrwt>
<totfact> 0.46467240E+03</totfact>
</mgrwt>
</event>
<event>
 9    1  0.7926126E-001  0.2807670E+03  0.7818608E-02  0.1095271E+00
         -2   -1    0    0    0  501 -0.00000000000E+00  0.00000000000E+00  0.13936912712E+02  0.13936912712E+02  0.00000000000E+00 0.  1.
          2   -1    0    0  501    0  0.00000000000E+00 -0.00000000000E+00 -0.14140521806E+04  0.14140521806E+04  0.00000000000E+00 0.  1.
         35    2    1    2    0    0  0.00000000000E+00  0.00000000000E+00 -0.14001152679E+04  0.14279890933E+04  0.28076696252E+03 0.  0.
         25    2    3    3    0    0  0.55275317914E+02 -0.15638249282E+02 -0.61157205905E+03  0.62751696463E+03  0.12828578207E+03 0.  0.
         25    2    3    3    0    0 -0.55275317914E+02  0.15638249282E+02 -0.78854320881E+03  0.80047212865E+03  0.12512122511E+03 0.  0.
          5    1    4    4  502    0  0.34968728571E+02 -0.63893371799E+01 -0.60153450379E+03  0.60260226091E+03  0.47000000000E+01 0.  1.
         -5    1    4    4    0  502  0.20306589343E+02 -0.92489121018E+01 -0.10037555257E+02  0.24914703718E+02  0.47000000000E+01 0.  1.
          5    1    5    5  503    0 -0.44905070856E+02  0.53295696647E+02 -0.22583662290E+03  0.23639197726E+03  0.47000000000E+01 0.  1.
         -5    1    5    5    0  503 -0.10370247058E+02 -0.37657447365E+02 -0.56270658590E+03  0.56408015138E+03  0.47000000000E+01 0.  1.
<mgrwt>
<rscale>  0 0.28076696E+03</rscale>
<asrwt>0</asrwt>
<pdfrwt beam="1">  1        2 0.21754659E+00 0.28076696E+03</pdfrwt>
<pdfrwt beam="2">  1       -2 0.21441395E-02 0.28076696E+03</pdfrwt>
<totfact> 0.10596017E+04</totfact>
</mgrwt>
</event>
<event>
 9    1  0.7926126E-001  0.2750975E+03  0.7818608E-02  0.1098397E+00
         -1   -1    0    0    0  501 -0.00000000000E+00  0.00000000000E+00  0.19228548856E+03  0.19228548856E+03  0.00000000000E+00 0.  1.
          1   -1    0    0  501    0  0.00000000000E+00 -0.00000000000E+00 -0.98393551917E+02  0.98393551917E+02  0.00000000000E+00 0.  1.
         35    2    1    2    0    0  0.71054273576E-14  0.71054273576E-14  0.93891936647E+02  0.29067904048E+03  0.27509745329E+03 0.  0.
         25    2    3    3    0    0 -0.35592813920E+02 -0.25085209402E+02  0.88307409471E+02  0.15841257577E+03  0.12409766098E+03 0.  0.
         25    2    3    3    0    0  0.35592813920E+02  0.25085209402E+02  0.55845271761E+01  0.13226646471E+03  0.12476824360E+03 0.  0.
          5    1    4    4  502    0 -0.51878134591E+02 -0.41566544190E+02 -0.36416377418E+00  0.66643387217E+02  0.47000000000E+01 0. -1.
         -5    1    4    4    0  502  0.16285320671E+02  0.16481334788E+02  0.88671573245E+02  0.91769188552E+02  0.47000000000E+01 0. -1.
          5    1    5    5  503    0  0.40157465896E+02  0.43706141890E+02  0.53750395483E+02  0.80212492298E+02  0.47000000000E+01 0.  1.
         -5    1    5    5    0  503 -0.45646519757E+01 -0.18620932488E+02 -0.48165868307E+02  0.52053972414E+02  0.47000000000E+01 0.  1.
<mgrwt>
<rscale>  0 0.27509745E+03</rscale>
<asrwt>0</asrwt>
<pdfrwt beam="1">  1        1 0.15137470E-01 0.27509745E+03</pdfrwt>
<pdfrwt beam="2">  1       -1 0.29582383E-01 0.27509745E+03</pdfrwt>
<totfact> 0.38322048E+03</totfact>
</mgrwt>
</event>
<event>
 9    1  0.7926126E-001  0.2763933E+03  0.7818608E-02  0.1097675E+00
         -1   -1    0    0    0  501 -0.00000000000E+00  0.00000000000E+00  0.15982786161E+02  0.15982786161E+02  0.00000000000E+00 0. -1.
          1   -1    0    0  501    0  0.00000000000E+00 -0.00000000000E+00 -0.11949304305E+04  0.11949304305E+04  0.00000000000E+00 0. -1.
         35    2    1    2    0    0  0.00000000000E+00  0.71054273576E-14 -0.11789476443E+04  0.12109132166E+04  0.27639332516E+03 0.  0.
         25    2    3    3    0    0 -0.97362504898E+01  0.35837835304E+02 -0.76066739814E+03  0.77178292741E+03  0.12511934877E+03 0.  0.
         25    2    3    3    0    0  0.97362504898E+01 -0.35837835304E+02 -0.41828024618E+03  0.43913028924E+03  0.12844415738E+03 0.  0.
          5    1    4    4  502    0 -0.10970934355E+02  0.77853701975E+02 -0.61736416127E+03  0.62236818519E+03  0.47000000000E+01 0.  1.
         -5    1    4    4    0  502  0.12346838655E+01 -0.42015866671E+02 -0.14330323687E+03  0.14941474222E+03  0.47000000000E+01 0.  1.
          5    1    5    5  503    0  0.55009772682E+02 -0.45546041976E+02 -0.34480800139E+03  0.35215786922E+03  0.47000000000E+01 0. -1.
         -5    1    5    5    0  503 -0.45273522193E+02  0.97082066727E+01 -0.73472244790E+02  0.86972420013E+02  0.47000000000E+01 0. -1.
<mgrwt>
<rscale>  0 0.27639333E+03</rscale>
<asrwt>0</asrwt>
<pdfrwt beam="1">  1        1 0.18383548E+00 0.27639333E+03</pdfrwt>
<pdfrwt beam="2">  1       -1 0.24588898E-02 0.27639333E+03</pdfrwt>
<totfact> 0.58421100E+03</totfact>
</mgrwt>
</event>
<event>
 9    1  0.7926126E-001  0.2735697E+03  0.7818608E-02  0.1099254E+00
          3   -1    0    0  501    0  0.00000000000E+00  0.00000000000E+00  0.53050955463E+03  0.53050955463E+03  0.00000000000E+00 0. -1.
         -3   -1    0    0    0  501 -0.00000000000E+00 -0.00000000000E+00 -0.35268160682E+02  0.35268160682E+02  0.00000000000E+00 0. -1.
         35    2    1    2    0    0  0.35527136788E-14  0.00000000000E+00  0.49524139395E+03  0.56577771532E+03  0.27356970751E+03 0.  0.
         25    2    3    3    0    0  0.11361379048E+02 -0.53139633266E+02  0.24568615898E+03  0.28147638932E+03  0.12615215999E+03 0.  0.
         25    2    3    3    0    0 -0.11361379048E+02  0.53139633266E+02  0.24955523497E+03  0.28430132600E+03  0.12488605649E+03 0.  0.
          5    1    4    4  502    0 -0.48493663448E+02 -0.11449130639E+01  0.47874950105E+02  0.68315789303E+02  0.47000000000E+01 0.  1.
         -5    1    4    4    0  502  0.59855042496E+02 -0.51994720202E+02  0.19781120888E+03  0.21316060001E+03  0.47000000000E+01 0.  1.
          5    1    5    5  503    0 -0.32624629095E+02  0.75324204014E+02  0.23685613608E+03  0.25072100298E+03  0.47000000000E+01 0. -1.
         -5    1    5    5    0  503  0.21263250047E+02 -0.22184570748E+02  0.12699098892E+02  0.33580323026E+02  0.47000000000E+01 0. -1.
<mgrwt>
<rscale>  0 0.27356971E+03</rscale>
<asrwt>0</asrwt>
<pdfrwt beam="1">  1        3 0.81616849E-01 0.27356971E+03</pdfrwt>
<pdfrwt beam="2">  1       -3 0.54258713E-02 0.27356971E+03</pdfrwt>
<totfact> 0.72562652E+02</totfact>
</mgrwt>
</event>
<event>
 9    1  0.7926126E-001  0.2730443E+03  0.7818608E-02  0.1099550E+00
          2   -1    0    0  501    0  0.00000000000E+00  0.00000000000E+00  0.89830811569E+03  0.89830811569E+03  0.00000000000E+00 0.  1.
         -2   -1    0    0    0  501 -0.00000000000E+00 -0.00000000000E+00 -0.20748224081E+02  0.20748224081E+02  0.00000000000E+00 0.  1.
         35    2    1    2    0    0  0.17763568394E-14 -0.71054273576E-14  0.87755989160E+03  0.91905633977E+03  0.27304430467E+03 0.  0.
         25    2    3    3    0    0  0.11380544266E+02  0.44673835112E+02  0.43973668442E+03  0.46139050658E+03  0.13186197180E+03 0.  0.
         25    2    3    3    0    0 -0.11380544266E+02 -0.44673835112E+02  0.43782320719E+03  0.45766583318E+03  0.12507432104E+03 0.  0.
          5    1    4    4  502    0 -0.19399941921E+02 -0.23249214913E+02  0.23810761803E+02  0.38806263905E+02  0.47000000000E+01 0. -1.
         -5    1    4    4    0  502  0.30780486187E+02  0.67923050025E+02  0.41592592262E+03  0.42258424268E+03  0.47000000000E+01 0. -1.
          5    1    5    5  503    0 -0.10596045632E+02 -0.51387735574E+02  0.44416220133E+03  0.44727522472E+03  0.47000000000E+01 0. -1.
         -5    1    5    5    0  503 -0.78449863405E+00  0.67139004626E+01 -0.63389941487E+01  0.10390608469E+02  0.47000000000E+01 0. -1.
<mgrwt>
<rscale>  0 0.27304430E+03</rscale>
<asrwt>0</asrwt>
<pdfrwt beam="1">  1        2 0.13820122E+00 0.27304430E+03</pdfrwt>
<pdfrwt beam="2">  1       -2 0.31920352E-02 0.27304430E+03</pdfrwt>
<totfact> 0.11717721E+04</totfact>
</mgrwt>
</event>
<event>
 9    1  0.7926126E-001  0.2756602E+03  0.7818608E-02  0.1098083E+00
          1   -1    0    0  501    0  0.00000000000E+00  0.00000000000E+00  0.91726255718E+03  0.91726255718E+03  0.00000000000E+00 0.  1.
         -1   -1    0    0    0  501 -0.00000000000E+00 -0.00000000000E+00 -0.20710683844E+02  0.20710683844E+02  0.00000000000E+00 0.  1.
         35    2    1    2    0    0 -0.35527136788E-14  0.00000000000E+00  0.89655187333E+03  0.93797324102E+03  0.27566018809E+03 0.  0.
         25    2    3    3    0    0  0.15429086201E+02  0.17355495794E+02  0.60815967462E+03  0.62129984996E+03  0.12496417001E+03 0.  0.
         25    2    3    3    0    0 -0.15429086201E+02 -0.17355495794E+02  0.28839219871E+03  0.31667339106E+03  0.12873502396E+03 0.  0.
          5    1    4    4  502    0 -0.22594707467E+01  0.60169808538E+02  0.16509444939E+03  0.17579470494E+03  0.47000000000E+01 0.  1.
         -5    1    4    4    0  502  0.17688556947E+02 -0.42814312744E+02  0.44306522524E+03  0.44550514502E+03  0.47000000000E+01 0.  1.
          5    1    5    5  503    0 -0.80366794897E+01 -0.10321798924E+02  0.30011489984E+03  0.30043663368E+03  0.47000000000E+01 0. -1.
         -5    1    5    5    0  503 -0.73924067109E+01 -0.70336968700E+01 -0.11722701129E+02  0.16236757385E+02  0.47000000000E+01 0. -1.
<mgrwt>
<rscale>  0 0.27566019E+03</rscale>
<asrwt>0</asrwt>
<pdfrwt beam="1">  1        1 0.14111729E+00 0.27566019E+03</pdfrwt>
<pdfrwt beam="2">  1       -1 0.31862598E-02 0.27566019E+03</pdfrwt>
<totfact> 0.63788184E+03</totfact>
</mgrwt>
</event>
<event>
 9    1  0.7926126E-001  0.2748295E+03  0.7818608E-02  0.1098547E+00
         -1   -1    0    0    0  501 -0.00000000000E+00  0.00000000000E+00  0.12120839981E+03  0.12120839981E+03  0.00000000000E+00 0. -1.
          1   -1    0    0  501    0  0.00000000000E+00 -0.00000000000E+00 -0.15578797032E+03  0.15578797032E+03  0.00000000000E+00 0. -1.
         35    2    1    2    0    0  0.00000000000E+00  0.00000000000E+00 -0.34579570507E+02  0.27699637012E+03  0.27482947871E+03 0.  0.
         25    2    3    3    0    0  0.13663895276E+02 -0.49125309105E+02 -0.41563674350E+02  0.14063795803E+03  0.12430405539E+03 0.  0.
         25    2    3    3    0    0 -0.13663895276E+02  0.49125309105E+02  0.69841038422E+01  0.13635841209E+03  0.12627288233E+03 0.  0.
          5    1    4    4  502    0  0.54366134794E+02 -0.68101680040E+01 -0.57556202955E+02  0.79604406281E+02  0.47000000000E+01 0.  1.
         -5    1    4    4    0  502 -0.40702239518E+02 -0.42315141101E+02  0.15992528605E+02  0.61033551752E+02  0.47000000000E+01 0.  1.
          5    1    5    5  503    0  0.39496495825E+02 -0.13661254964E+01  0.39449261499E+02  0.56037252914E+02  0.47000000000E+01 0.  1.
         -5    1    5    5    0  503 -0.53160391101E+02  0.50491434602E+02 -0.32465157656E+02  0.80321159179E+02  0.47000000000E+01 0.  1.
<mgrwt>
<rscale>  0 0.27482948E+03</rscale>
<asrwt>0</asrwt>
<pdfrwt beam="1">  1        1 0.23967380E-01 0.27482948E+03</pdfrwt>
<pdfrwt beam="2">  1       -1 0.18647446E-01 0.27482948E+03</pdfrwt>
<totfact> 0.45376015E+03</totfact>
</mgrwt>
</event>
<event>
 9    1  0.7926126E-001  0.2751214E+03  0.7818608E-02  0.1098384E+00
          2   -1    0    0  501    0  0.00000000000E+00  0.00000000000E+00  0.93379057751E+03  0.93379057751E+03  0.00000000000E+00 0.  1.
         -2   -1    0    0    0  501 -0.00000000000E+00 -0.00000000000E+00 -0.20264662630E+02  0.20264662630E+02  0.00000000000E+00 0.  1.
         35    2    1    2    0    0  0.71054273576E-14  0.00000000000E+00  0.91352591488E+03  0.95405524014E+03  0.27512143515E+03 0.  0.
         25    2    3    3    0    0 -0.44302385297E+02 -0.55936140520E+01  0.32096518414E+03  0.34726273887E+03  0.12481494507E+03 0.  0.
         25    2    3    3    0    0  0.44302385297E+02  0.55936140520E+01  0.59256073074E+03  0.60679250127E+03  0.12278000703E+03 0.  0.
          5    1    4    4  502    0 -0.70177534379E+02  0.27967239848E+01  0.88099777467E+02  0.11276687805E+03  0.47000000000E+01 0. -1.
         -5    1    4    4    0  502  0.25875149082E+02 -0.83903380368E+01  0.23286540667E+03  0.23449586081E+03  0.47000000000E+01 0. -1.
          5    1    5    5  503    0  0.29874654329E+02  0.14413503640E+02  0.33230131659E+02  0.47186605182E+02  0.47000000000E+01 0.  1.
         -5    1    5    5    0  503  0.14427730968E+02 -0.88198895881E+01  0.55933059908E+03  0.55960589609E+03  0.47000000000E+01 0.  1.
<mgrwt>
<rscale>  0 0.27512144E+03</rscale>
<asrwt>0</asrwt>
<pdfrwt beam="1">  1        2 0.14366006E+00 0.27512144E+03</pdfrwt>
<pdfrwt beam="2">  1       -2 0.31176411E-02 0.27512144E+03</pdfrwt>
<totfact> 0.11521619E+04</totfact>
</mgrwt>
</event>
<event>
 9    1  0.7926126E-001  0.2734042E+03  0.7818608E-02  0.1099347E+00
          1   -1    0    0  501    0  0.00000000000E+00  0.00000000000E+00  0.52346548524E+03  0.52346548524E+03  0.00000000000E+00 0. -1.
         -1   -1    0    0    0  501 -0.00000000000E+00 -0.00000000000E+00 -0.35699516027E+02  0.35699516027E+02  0.00000000000E+00 0. -1.
         35    2    1    2    0    0 -0.35527136788E-14  0.00000000000E+00  0.48776596921E+03  0.55916500127E+03  0.27340420246E+03 0.  0.
         25    2    3    3    0    0 -0.26914401846E+02 -0.42744791657E+02  0.27986544823E+03  0.31108072711E+03  0.12607556236E+03 0.  0.
         25    2    3    3    0    0  0.26914401846E+02  0.42744791657E+02  0.20790052099E+03  0.24808427416E+03  0.12558534237E+03 0.  0.
          5    1    4    4  502    0 -0.45756687509E+02  0.32751772065E+02  0.96045780938E+02  0.11141469859E+03  0.47000000000E+01 0. -1.
         -5    1    4    4    0  502  0.18842285663E+02 -0.75496563722E+02  0.18381966729E+03  0.19966602852E+03  0.47000000000E+01 0. -1.
          5    1    5    5  503    0  0.38902553690E+02  0.19788813221E+02  0.58037095921E+01  0.44280682665E+02  0.47000000000E+01 0.  1.
         -5    1    5    5    0  503 -0.11988151844E+02  0.22955978436E+02  0.20209681140E+03  0.20380359150E+03  0.47000000000E+01 0.  1.
<mgrwt>
<rscale>  0 0.27340420E+03</rscale>
<asrwt>0</asrwt>
<pdfrwt beam="1">  1        1 0.80533146E-01 0.27340420E+03</pdfrwt>
<pdfrwt beam="2">  1       -1 0.54922336E-02 0.27340420E+03</pdfrwt>
<totfact> 0.64530601E+03</totfact>
</mgrwt>
</event>
<event>
 9    1  0.7926126E-001  0.2752386E+03  0.7818608E-02  0.1098318E+00
         -1   -1    0    0    0  501 -0.00000000000E+00  0.00000000000E+00  0.15130145484E+02  0.15130145484E+02  0.00000000000E+00 0. -1.
          1   -1    0    0  501    0  0.00000000000E+00 -0.00000000000E+00 -0.12517441083E+04  0.12517441083E+04  0.00000000000E+00 0. -1.
         35    2    1    2    0    0  0.00000000000E+00 -0.14210854715E-13 -0.12366139628E+04  0.12668742538E+04  0.27523859080E+03 0.  0.
         25    2    3    3    0    0  0.21053903195E+02 -0.55101732042E+02 -0.59262337447E+03  0.60848952638E+03  0.12481014397E+03 0.  0.
         25    2    3    3    0    0 -0.21053903195E+02  0.55101732042E+02 -0.64399058833E+03  0.65838472738E+03  0.12356012172E+03 0.  0.
          5    1    4    4  502    0  0.83631231182E+01  0.11582687148E+02 -0.45218848636E+03  0.45243852363E+03  0.47000000000E+01 0. -1.
         -5    1    4    4    0  502  0.12690780077E+02 -0.66684419190E+02 -0.14043488811E+03  0.15605100275E+03  0.47000000000E+01 0. -1.
          5    1    5    5  503    0 -0.64685324018E+01 -0.28906757010E+02 -0.37424620399E+03  0.37544607298E+03  0.47000000000E+01 0. -1.
         -5    1    5    5    0  503 -0.14585370793E+02  0.84008489052E+02 -0.26974438433E+03  0.28293865440E+03  0.47000000000E+01 0. -1.
<mgrwt>
<rscale>  0 0.27523859E+03</rscale>
<asrwt>0</asrwt>
<pdfrwt beam="1">  1        1 0.19257602E+00 0.27523859E+03</pdfrwt>
<pdfrwt beam="2">  1       -1 0.23277147E-02 0.27523859E+03</pdfrwt>
<totfact> 0.57804677E+03</totfact>
</mgrwt>
</event>
<event>
 9    1  0.7926126E-001  0.2689022E+03  0.7818608E-02  0.1101910E+00
         -1   -1    0    0    0  501 -0.00000000000E+00  0.00000000000E+00  0.13736939268E+02  0.13736939268E+02  0.00000000000E+00 0. -1.
          1   -1    0    0  501    0  0.00000000000E+00 -0.00000000000E+00 -0.13159480012E+04  0.13159480012E+04  0.00000000000E+00 0. -1.
         35    2    1    2    0    0 -0.71054273576E-14  0.00000000000E+00 -0.13022110619E+04  0.13296849404E+04  0.26890219614E+03 0.  0.
         25    2    3    3    0    0  0.38823962619E+02 -0.30553212020E+02 -0.61555548586E+03  0.62987452959E+03  0.12406678854E+03 0.  0.
         25    2    3    3    0    0 -0.38823962619E+02  0.30553212020E+02 -0.68665557604E+03  0.69981041084E+03  0.12568982529E+03 0.  0.
          5    1    4    4  502    0  0.69205719718E+02 -0.64152014739E+01 -0.18722894196E+03  0.19976824862E+03  0.47000000000E+01 0. -1.
         -5    1    4    4    0  502 -0.30381757098E+02 -0.24138010546E+02 -0.42832654390E+03  0.43010628097E+03  0.47000000000E+01 0. -1.
          5    1    5    5  503    0  0.27191283470E+02 -0.32697551659E+02 -0.18640088175E+03  0.19124820129E+03  0.47000000000E+01 0. -1.
         -5    1    5    5    0  503 -0.66015246090E+02  0.63250763679E+02 -0.50025469429E+03  0.50856220955E+03  0.47000000000E+01 0. -1.
<mgrwt>
<rscale>  0 0.26890220E+03</rscale>
<asrwt>0</asrwt>
<pdfrwt beam="1">  1        1 0.20245365E+00 0.26890220E+03</pdfrwt>
<pdfrwt beam="2">  1       -1 0.21133741E-02 0.26890220E+03</pdfrwt>
<totfact> 0.60150820E+03</totfact>
</mgrwt>
</event>
<event>
 9    1  0.7926126E-001  0.2736247E+03  0.7818608E-02  0.1099223E+00
         -4   -1    0    0    0  501 -0.00000000000E+00  0.00000000000E+00  0.32494023839E+02  0.32494023839E+02  0.00000000000E+00 0.  1.
          4   -1    0    0  501    0  0.00000000000E+00 -0.00000000000E+00 -0.57603256779E+03  0.57603256779E+03  0.00000000000E+00 0.  1.
         35    2    1    2    0    0  0.00000000000E+00  0.71054273576E-14 -0.54353854395E+03  0.60852659163E+03  0.27362467717E+03 0.  0.
         25    2    3    3    0    0  0.51929826290E+02 -0.28942068665E+02 -0.28882893007E+03  0.31899072902E+03  0.12164943140E+03 0.  0.
         25    2    3    3    0    0 -0.51929826290E+02  0.28942068665E+02 -0.25470961388E+03  0.28953586261E+03  0.12417599661E+03 0.  0.
          5    1    4    4  502    0  0.59496445583E+02 -0.69375379751E+02 -0.16864216872E+03  0.19187246135E+03  0.47000000000E+01 0.  1.
         -5    1    4    4    0  502 -0.75666192937E+01  0.40433311086E+02 -0.12018676135E+03  0.12711826768E+03  0.47000000000E+01 0.  1.
          5    1    5    5  503    0  0.35976007065E+02  0.57762767666E+00 -0.12546878001E+03  0.13061053363E+03  0.47000000000E+01 0. -1.
         -5    1    5    5    0  503 -0.87905833355E+02  0.28364440989E+02 -0.12924083387E+03  0.15892532897E+03  0.47000000000E+01 0. -1.
<mgrwt>
<rscale>  0 0.27362468E+03</rscale>
<asrwt>0</asrwt>
<pdfrwt beam="1">  1        4 0.88620394E-01 0.27362468E+03</pdfrwt>
<pdfrwt beam="2">  1       -4 0.49990807E-02 0.27362468E+03</pdfrwt>
<totfact> 0.50438524E+02</totfact>
</mgrwt>
</event>
<event>
 9    1  0.7926126E-001  0.2759832E+03  0.7818608E-02  0.1097903E+00
         -3   -1    0    0    0  501 -0.00000000000E+00  0.00000000000E+00  0.74400608510E+02  0.74400608510E+02  0.00000000000E+00 0. -1.
          3   -1    0    0  501    0  0.00000000000E+00 -0.00000000000E+00 -0.25593452778E+03  0.25593452778E+03  0.00000000000E+00 0. -1.
         35    2    1    2    0    0  0.00000000000E+00  0.00000000000E+00 -0.18153391927E+03  0.33033513629E+03  0.27598322127E+03 0.  0.
         25    2    3    3    0    0 -0.27433060418E+02 -0.51270353201E+02 -0.79258504920E+02  0.15844592177E+03  0.12426575394E+03 0.  0.
         25    2    3    3    0    0  0.27433060418E+02  0.51270353201E+02 -0.10227541435E+03  0.17188921452E+03  0.12531727641E+03 0.  0.
          5    1    4    4  502    0  0.13085107631E+02  0.31633620869E+02  0.30730876602E+01  0.34690630994E+02  0.47000000000E+01 0.  1.
         -5    1    4    4    0  502 -0.40518168049E+02 -0.82903974070E+02 -0.82331592580E+02  0.12375529078E+03  0.47000000000E+01 0.  1.
          5    1    5    5  503    0 -0.11148645949E+02 -0.25421237451E+02  0.10526009926E+02  0.30056921083E+02  0.47000000000E+01 0. -1.
         -5    1    5    5    0  503  0.38581706367E+02  0.76691590652E+02 -0.11280142428E+03  0.14183229344E+03  0.47000000000E+01 0. -1.
<mgrwt>
<rscale>  0 0.27598322E+03</rscale>
<asrwt>0</asrwt>
<pdfrwt beam="1">  1        3 0.39374543E-01 0.27598322E+03</pdfrwt>
<pdfrwt beam="2">  1       -3 0.11446247E-01 0.27598322E+03</pdfrwt>
<totfact> 0.95865528E+02</totfact>
</mgrwt>
</event>
<event>
 9    1  0.7926126E-001  0.2723501E+03  0.7818608E-02  0.1099942E+00
         -2   -1    0    0    0  501 -0.00000000000E+00  0.00000000000E+00  0.24661281169E+02  0.24661281169E+02  0.00000000000E+00 0. -1.
          2   -1    0    0  501    0  0.00000000000E+00 -0.00000000000E+00 -0.75193343617E+03  0.75193343617E+03  0.00000000000E+00 0. -1.
         35    2    1    2    0    0  0.00000000000E+00  0.35527136788E-14 -0.72727215500E+03  0.77659471734E+03  0.27235008272E+03 0.  0.
         25    2    3    3    0    0 -0.33286636080E+02  0.13363599189E+02 -0.45987301453E+03  0.47810382893E+03  0.12575172291E+03 0.  0.
         25    2    3    3    0    0  0.33286636080E+02 -0.13363599189E+02 -0.26739914047E+03  0.29849088841E+03  0.12770248321E+03 0.  0.
          5    1    4    4  502    0 -0.45897633057E+02 -0.32819427074E+02 -0.99069288805E+02  0.11410749975E+03  0.47000000000E+01 0.  1.
         -5    1    4    4    0  502  0.12610996978E+02  0.46183026263E+02 -0.36080372573E+03  0.36399632918E+03  0.47000000000E+01 0.  1.
          5    1    5    5  503    0  0.71213409892E+02 -0.42906819400E+02 -0.15044384877E+03  0.17195286137E+03  0.47000000000E+01 0. -1.
         -5    1    5    5    0  503 -0.37926773812E+02  0.29543220211E+02 -0.11695529170E+03  0.12653802704E+03  0.47000000000E+01 0. -1.
<mgrwt>
<rscale>  0 0.27235008E+03</rscale>
<asrwt>0</asrwt>
<pdfrwt beam="1">  1        2 0.11568207E+00 0.27235008E+03</pdfrwt>
<pdfrwt beam="2">  1       -2 0.37940430E-02 0.27235008E+03</pdfrwt>
<totfact> 0.11377028E+04</totfact>
</mgrwt>
</event>
<event>
 9    1  0.7926126E-001  0.2598723E+03  0.7818608E-02  0.1107220E+00
         -3   -1    0    0    0  501 -0.00000000000E+00  0.00000000000E+00  0.23038064539E+02  0.23038064539E+02  0.00000000000E+00 0. -1.
          3   -1    0    0  501    0  0.00000000000E+00 -0.00000000000E+00 -0.73284813304E+03  0.73284813304E+03  0.00000000000E+00 0. -1.
         35    2    1    2    0    0  0.66613381478E-15 -0.71054273576E-14 -0.70981006850E+03  0.75588619758E+03  0.25987229622E+03 0.  0.
         25    2    3    3    0    0  0.15497941556E+01 -0.16848484223E+02 -0.35892451153E+03  0.38039389151E+03  0.12484564246E+03 0.  0.
         25    2    3    3    0    0 -0.15497941556E+01  0.16848484223E+02 -0.35088555697E+03  0.37549230607E+03  0.13261796462E+03 0.  0.
          5    1    4    4  502    0 -0.15312027718E+02 -0.24868574577E+01  0.40552589781E+01  0.16708613893E+02  0.47000000000E+01 0. -1.
         -5    1    4    4    0  502  0.16861821873E+02 -0.14361626765E+02 -0.36297977050E+03  0.36368527762E+03  0.47000000000E+01 0. -1.
          5    1    5    5  503    0 -0.22269880994E+01  0.71428445259E+02 -0.25698599616E+03  0.26677869947E+03  0.47000000000E+01 0.  1.
         -5    1    5    5    0  503  0.67719394379E+00 -0.54579961037E+02 -0.93899560810E+02  0.10871360659E+03  0.47000000000E+01 0.  1.
<mgrwt>
<rscale>  0 0.25987230E+03</rscale>
<asrwt>0</asrwt>
<pdfrwt beam="1">  1        3 0.11274586E+00 0.25987230E+03</pdfrwt>
<pdfrwt beam="2">  1       -3 0.35443178E-02 0.25987230E+03</pdfrwt>
<totfact> 0.68038693E+02</totfact>
</mgrwt>
</event>
<event>
 9    1  0.7926126E-001  0.2794271E+03  0.7818608E-02  0.1096002E+00
          1   -1    0    0  501    0  0.00000000000E+00  0.00000000000E+00  0.40392007120E+03  0.40392007120E+03  0.00000000000E+00 0. -1.
         -1   -1    0    0    0  501 -0.00000000000E+00 -0.00000000000E+00 -0.48326088907E+02  0.48326088907E+02  0.00000000000E+00 0. -1.
         35    2    1    2    0    0  0.00000000000E+00  0.71054273576E-14  0.35559398229E+03  0.45224616010E+03  0.27942710872E+03 0.  0.
         25    2    3    3    0    0 -0.25936640515E+02  0.28991797399E+02  0.25770580238E+03  0.28973128632E+03  0.12656501908E+03 0.  0.
         25    2    3    3    0    0  0.25936640515E+02 -0.28991797399E+02  0.97888179909E+02  0.16251487378E+03  0.12375683738E+03 0.  0.
          5    1    4    4  502    0 -0.47078698994E+02 -0.42920419927E+01  0.25042024132E+02  0.53703058536E+02  0.47000000000E+01 0.  1.
         -5    1    4    4    0  502  0.21142058480E+02  0.33283839392E+02  0.23266377825E+03  0.23602822778E+03  0.47000000000E+01 0.  1.
          5    1    5    5  503    0  0.70110314734E+02 -0.34945922170E+02  0.36616175308E+02  0.86599699784E+02  0.47000000000E+01 0. -1.
         -5    1    5    5    0  503 -0.44173674219E+02  0.59541247714E+01  0.61272004601E+02  0.75915174001E+02  0.47000000000E+01 0. -1.
<mgrwt>
<rscale>  0 0.27942711E+03</rscale>
<asrwt>0</asrwt>
<pdfrwt beam="1">  1        1 0.62141547E-01 0.27942711E+03</pdfrwt>
<pdfrwt beam="2">  1       -1 0.74347832E-02 0.27942711E+03</pdfrwt>
<totfact> 0.57361743E+03</totfact>
</mgrwt>
</event>
<event>
 9    1  0.7926126E-001  0.2749398E+03  0.7818608E-02  0.1098485E+00
          2   -1    0    0  501    0  0.00000000000E+00  0.00000000000E+00  0.63867925530E+03  0.63867925530E+03  0.00000000000E+00 0.  1.
         -2   -1    0    0    0  501 -0.00000000000E+00 -0.00000000000E+00 -0.29589139081E+02  0.29589139081E+02  0.00000000000E+00 0.  1.
         35    2    1    2    0    0 -0.10658141036E-13  0.71054273576E-14  0.60909011622E+03  0.66826839438E+03  0.27493977023E+03 0.  0.
         25    2    3    3    0    0 -0.31499028228E+02  0.26158654614E+02  0.34022575617E+03  0.36466057214E+03  0.12468882756E+03 0.  0.
         25    2    3    3    0    0  0.31499028228E+02 -0.26158654614E+02  0.26886436004E+03  0.30360782224E+03  0.13495629527E+03 0.  0.
          5    1    4    4  502    0  0.28322996515E+02 -0.22930304818E+02  0.38852491108E+02  0.53475200569E+02  0.47000000000E+01 0.  1.
         -5    1    4    4    0  502 -0.59822024743E+02  0.49088959432E+02  0.30137326507E+03  0.31118537157E+03  0.47000000000E+01 0.  1.
          5    1    5    5  503    0 -0.17384355182E+01 -0.74190174888E+02  0.98290196700E+02  0.12324876054E+03  0.47000000000E+01 0.  1.
         -5    1    5    5    0  503  0.33237463747E+02  0.48031520274E+02  0.17057416334E+03  0.18035906170E+03  0.47000000000E+01 0.  1.
<mgrwt>
<rscale>  0 0.27493977E+03</rscale>
<asrwt>0</asrwt>
<pdfrwt beam="1">  1        2 0.98258337E-01 0.27493977E+03</pdfrwt>
<pdfrwt beam="2">  1       -2 0.45521757E-02 0.27493977E+03</pdfrwt>
<totfact> 0.10538648E+04</totfact>
</mgrwt>
</event>
<event>
 9    1  0.7926126E-001  0.2732627E+03  0.7818608E-02  0.1099427E+00
          1   -1    0    0  501    0  0.00000000000E+00  0.00000000000E+00  0.46880512506E+03  0.46880512506E+03  0.00000000000E+00 0. -1.
         -1   -1    0    0    0  501 -0.00000000000E+00 -0.00000000000E+00 -0.39820664863E+02  0.39820664863E+02  0.00000000000E+00 0. -1.
         35    2    1    2    0    0  0.71054273576E-14  0.00000000000E+00  0.42898446020E+03  0.50862578993E+03  0.27326274368E+03 0.  0.
         25    2    3    3    0    0 -0.39667974905E+02  0.37594079061E+02  0.22044849836E+03  0.25945184700E+03  0.12542271512E+03 0.  0.
         25    2    3    3    0    0  0.39667974905E+02 -0.37594079061E+02  0.20853596184E+03  0.24917394293E+03  0.12495416536E+03 0.  0.
          5    1    4    4  502    0  0.39401765366E+02  0.31782878792E+02  0.49515428904E+02  0.70968430994E+02  0.47000000000E+01 0. -1.
         -5    1    4    4    0  502 -0.79069740270E+02  0.58112002687E+01  0.17093306946E+03  0.18848341601E+03  0.47000000000E+01 0. -1.
          5    1    5    5  503    0  0.32920488227E+02 -0.40844195098E+02  0.22467795829E+03  0.23076889253E+03  0.47000000000E+01 0.  1.
         -5    1    5    5    0  503  0.67474866777E+01  0.32501160372E+01 -0.16141996450E+02  0.18405050397E+02  0.47000000000E+01 0.  1.
<mgrwt>
<rscale>  0 0.27326274E+03</rscale>
<asrwt>0</asrwt>
<pdfrwt beam="1">  1        1 0.72123862E-01 0.27326274E+03</pdfrwt>
<pdfrwt beam="2">  1       -1 0.61262565E-02 0.27326274E+03</pdfrwt>
<totfact> 0.63360974E+03</totfact>
</mgrwt>
</event>
<event>
 9    1  0.7926126E-001  0.2753882E+03  0.7818608E-02  0.1098235E+00
          2   -1    0    0  501    0  0.00000000000E+00  0.00000000000E+00  0.25906602811E+04  0.25906602811E+04  0.00000000000E+00 0.  1.
         -2   -1    0    0    0  501 -0.00000000000E+00 -0.00000000000E+00 -0.73184698651E+01  0.73184698651E+01  0.00000000000E+00 0.  1.
         35    2    1    2    0    0  0.10658141036E-13  0.71054273576E-14  0.25833418112E+04  0.25979787509E+04  0.27538822922E+03 0.  0.
         25    2    3    3    0    0 -0.21197774005E+02 -0.38756209476E+02  0.94952783859E+03  0.95881090016E+03  0.12555411822E+03 0.  0.
         25    2    3    3    0    0  0.21197774005E+02  0.38756209476E+02  0.16338139726E+04  0.16391678508E+04  0.12478684436E+03 0.  0.
          5    1    4    4  502    0  0.14558111899E+02  0.34103950562E+02  0.53998172263E+03  0.54127383905E+03  0.47000000000E+01 0. -1.
         -5    1    4    4    0  502 -0.35755885904E+02 -0.72860160038E+02  0.40954611596E+03  0.41753706111E+03  0.47000000000E+01 0. -1.
          5    1    5    5  503    0  0.66844375737E+02 -0.69606937791E+01  0.88123645557E+03  0.88380789907E+03  0.47000000000E+01 0. -1.
         -5    1    5    5    0  503 -0.45646601732E+02  0.45716903255E+02  0.75257751703E+03  0.75535995170E+03  0.47000000000E+01 0. -1.
<mgrwt>
<rscale>  0 0.27538823E+03</rscale>
<asrwt>0</asrwt>
<pdfrwt beam="1">  1        2 0.39856239E+00 0.27538823E+03</pdfrwt>
<pdfrwt beam="2">  1       -2 0.11259205E-02 0.27538823E+03</pdfrwt>
<totfact> 0.64128131E+03</totfact>
</mgrwt>
</event>
<event>
 9    1  0.7926126E-001  0.2758523E+03  0.7818608E-02  0.1097976E+00
         -1   -1    0    0    0  501 -0.00000000000E+00  0.00000000000E+00  0.22264681740E+02  0.22264681740E+02  0.00000000000E+00 0.  1.
          1   -1    0    0  501    0  0.00000000000E+00 -0.00000000000E+00 -0.85443028930E+03  0.85443028930E+03  0.00000000000E+00 0.  1.
         35    2    1    2    0    0  0.00000000000E+00 -0.71054273576E-14 -0.83216560756E+03  0.87669497104E+03  0.27585226815E+03 0.  0.
         25    2    3    3    0    0 -0.54404799033E+02  0.26203716207E+02 -0.48190623574E+03  0.49993302153E+03  0.11854488213E+03 0.  0.
         25    2    3    3    0    0  0.54404799033E+02 -0.26203716207E+02 -0.35025937182E+03  0.37676194950E+03  0.12498568776E+03 0.  0.
          5    1    4    4  502    0 -0.70527162826E+02  0.17483175207E+02 -0.47377434083E+03  0.47933699851E+03  0.47000000000E+01 0. -1.
         -5    1    4    4    0  502  0.16122363793E+02  0.87205410002E+01 -0.81318949041E+01  0.20596023023E+02  0.47000000000E+01 0. -1.
          5    1    5    5  503    0  0.58243222268E+00  0.42727829834E+02 -0.18275198283E+03  0.18774020320E+03  0.47000000000E+01 0.  1.
         -5    1    5    5    0  503  0.53822366810E+02 -0.68931546041E+02 -0.16750738900E+03  0.18902174631E+03  0.47000000000E+01 0.  1.
<mgrwt>
<rscale>  0 0.27585227E+03</rscale>
<asrwt>0</asrwt>
<pdfrwt beam="1">  1        1 0.13145082E+00 0.27585227E+03</pdfrwt>
<pdfrwt beam="2">  1       -1 0.34253355E-02 0.27585227E+03</pdfrwt>
<totfact> 0.64274062E+03</totfact>
</mgrwt>
</event>
<event>
 9    1  0.7926126E-001  0.2773119E+03  0.7818608E-02  0.1097166E+00
          1   -1    0    0  501    0  0.00000000000E+00  0.00000000000E+00  0.44912465619E+03  0.44912465619E+03  0.00000000000E+00 0. -1.
         -1   -1    0    0    0  501 -0.00000000000E+00 -0.00000000000E+00 -0.42806553079E+02  0.42806553079E+02  0.00000000000E+00 0. -1.
         35    2    1    2    0    0 -0.71054273576E-14  0.00000000000E+00  0.40631810311E+03  0.49193120927E+03  0.27731194301E+03 0.  0.
         25    2    3    3    0    0 -0.55034335967E+02 -0.32606717450E+02  0.20145403926E+03  0.24417095063E+03  0.12224461968E+03 0.  0.
         25    2    3    3    0    0  0.55034335967E+02  0.32606717450E+02  0.20486406386E+03  0.24776025864E+03  0.12378968028E+03 0.  0.
          5    1    4    4  502    0  0.31869236254E+00 -0.92146838135E+01  0.17983855894E+03  0.18013608535E+03  0.47000000000E+01 0. -1.
         -5    1    4    4    0  502 -0.55353028329E+02 -0.23392033636E+02  0.21615480318E+02  0.64034865286E+02  0.47000000000E+01 0. -1.
          5    1    5    5  503    0 -0.39912619688E+01 -0.38120195613E+02  0.10469919717E+03  0.11159341994E+03  0.47000000000E+01 0. -1.
         -5    1    5    5    0  503  0.59025597935E+02  0.70726913063E+02  0.10016486668E+03  0.13616683870E+03  0.47000000000E+01 0. -1.
<mgrwt>
<rscale>  0 0.27731194E+03</rscale>
<asrwt>0</asrwt>
<pdfrwt beam="1">  1        1 0.69096098E-01 0.27731194E+03</pdfrwt>
<pdfrwt beam="2">  1       -1 0.65856239E-02 0.27731194E+03</pdfrwt>
<totfact> 0.60103660E+03</totfact>
</mgrwt>
</event>
<event>
 9    1  0.7926126E-001  0.2765619E+03  0.7818608E-02  0.1097582E+00
          2   -1    0    0  501    0  0.00000000000E+00  0.00000000000E+00  0.34697868360E+02  0.34697868360E+02  0.00000000000E+00 0.  1.
         -2   -1    0    0    0  501 -0.00000000000E+00 -0.00000000000E+00 -0.55108925495E+03  0.55108925495E+03  0.00000000000E+00 0.  1.
         35    2    1    2    0    0  0.00000000000E+00  0.71054273576E-14 -0.51639138659E+03  0.58578712331E+03  0.27656190933E+03 0.  0.
         25    2    3    3    0    0  0.50327635116E+02  0.19898404849E+02 -0.17036928932E+03  0.21412938656E+03  0.11788503753E+03 0.  0.
         25    2    3    3    0    0 -0.50327635116E+02 -0.19898404849E+02 -0.34602209727E+03  0.37165773675E+03  0.12437589846E+03 0.  0.
          5    1    4    4  502    0  0.10133655720E+01 -0.45181768441E+02 -0.81803262211E+02  0.93575011715E+02  0.47000000000E+01 0.  1.
         -5    1    4    4    0  502  0.49314269544E+02  0.65080173290E+02 -0.88566027113E+02  0.12055437485E+03  0.47000000000E+01 0.  1.
          5    1    5    5  503    0 -0.69913844731E+02  0.60341501440E+01 -0.32533081573E+03  0.33284619018E+03  0.47000000000E+01 0.  1.
         -5    1    5    5    0  503  0.19586209615E+02 -0.25932554993E+02 -0.20691281538E+02  0.38811546572E+02  0.47000000000E+01 0.  1.
<mgrwt>
<rscale>  0 0.27656191E+03</rscale>
<asrwt>0</asrwt>
<pdfrwt beam="1">  1        2 0.53381337E-02 0.27656191E+03</pdfrwt>
<pdfrwt beam="2">  1       -2 0.84782961E-01 0.27656191E+03</pdfrwt>
<totfact> 0.18009944E+03</totfact>
</mgrwt>
</event>
<event>
 9    1  0.7926126E-001  0.2809938E+03  0.7818608E-02  0.1095147E+00
         -2   -1    0    0    0  501 -0.00000000000E+00  0.00000000000E+00  0.20695892744E+02  0.20695892744E+02  0.00000000000E+00 0. -1.
          2   -1    0    0  501    0  0.00000000000E+00 -0.00000000000E+00 -0.95378221411E+03  0.95378221411E+03  0.00000000000E+00 0. -1.
         35    2    1    2    0    0  0.00000000000E+00  0.00000000000E+00 -0.93308632137E+03  0.97447810686E+03  0.28099376793E+03 0.  0.
         25    2    3    3    0    0 -0.33299820944E+02  0.40204393219E+02 -0.59802718275E+03  0.61308487174E+03  0.12454427866E+03 0.  0.
         25    2    3    3    0    0  0.33299820944E+02 -0.40204393219E+02 -0.33505913862E+03  0.36139323511E+03  0.12496068462E+03 0.  0.
          5    1    4    4  502    0 -0.14031716634E+02  0.19965741727E+02 -0.14303943750E+02  0.28674251886E+02  0.47000000000E+01 0. -1.
         -5    1    4    4    0  502 -0.19268104310E+02  0.20238651492E+02 -0.58372323900E+03  0.58441061986E+03  0.47000000000E+01 0. -1.
          5    1    5    5  503    0  0.77639300323E+02 -0.43656154098E+02 -0.24735066518E+03  0.26294136668E+03  0.47000000000E+01 0. -1.
         -5    1    5    5    0  503 -0.44339479379E+02  0.34517608788E+01 -0.87708473440E+02  0.98451868433E+02  0.47000000000E+01 0. -1.
<mgrwt>
<rscale>  0 0.28099377E+03</rscale>
<asrwt>0</asrwt>
<pdfrwt beam="1">  1        2 0.14673572E+00 0.28099377E+03</pdfrwt>
<pdfrwt beam="2">  1       -2 0.31839836E-02 0.28099377E+03</pdfrwt>
<totfact> 0.10853348E+04</totfact>
</mgrwt>
</event>
<event>
 9    1  0.7926126E-001  0.2782717E+03  0.7818608E-02  0.1096637E+00
         -2   -1    0    0    0  501 -0.00000000000E+00  0.00000000000E+00  0.79379627801E+01  0.79379627801E+01  0.00000000000E+00 0. -1.
          2   -1    0    0  501    0  0.00000000000E+00 -0.00000000000E+00 -0.24387590244E+04  0.24387590244E+04  0.00000000000E+00 0. -1.
         35    2    1    2    0    0 -0.71054273576E-14  0.71054273576E-14 -0.24308210616E+04  0.24466969872E+04  0.27827165407E+03 0.  0.
         25    2    3    3    0    0  0.54416594771E+02 -0.31331775867E+02 -0.11685739525E+04  0.11767730933E+04  0.12364054574E+03 0.  0.
         25    2    3    3    0    0 -0.54416594771E+02  0.31331775867E+02 -0.12622471091E+04  0.12699238939E+04  0.12448327577E+03 0.  0.
          5    1    4    4  502    0 -0.35602431125E+02  0.19522513265E+01 -0.18121054689E+03  0.18474495038E+03  0.47000000000E+01 0. -1.
         -5    1    4    4    0  502  0.90019025896E+02 -0.33284027194E+02 -0.98736340565E+03  0.99202814290E+03  0.47000000000E+01 0. -1.
          5    1    5    5  503    0 -0.76397445419E+02  0.33171216678E+02 -0.46932899144E+03  0.47668510727E+03  0.47000000000E+01 0. -1.
         -5    1    5    5    0  503  0.21980850648E+02 -0.18394408104E+01 -0.79291811762E+03  0.79323878661E+03  0.47000000000E+01 0. -1.
<mgrwt>
<rscale>  0 0.27827165E+03</rscale>
<asrwt>0</asrwt>
<pdfrwt beam="1">  1        2 0.37519457E+00 0.27827165E+03</pdfrwt>
<pdfrwt beam="2">  1       -2 0.12212222E-02 0.27827165E+03</pdfrwt>
<totfact> 0.69031712E+03</totfact>
</mgrwt>
</event>
<event>
 9    1  0.7926126E-001  0.2862411E+03  0.7818608E-02  0.1092328E+00
          3   -1    0    0  501    0  0.00000000000E+00  0.00000000000E+00  0.30192326820E+02  0.30192326820E+02  0.00000000000E+00 0. -1.
         -3   -1    0    0    0  501 -0.00000000000E+00 -0.00000000000E+00 -0.67843365306E+03  0.67843365306E+03  0.00000000000E+00 0. -1.
         35    2    1    2    0    0  0.00000000000E+00  0.00000000000E+00 -0.64824132624E+03  0.70862597988E+03  0.28624109124E+03 0.  0.
         25    2    3    3    0    0 -0.22965197167E+02  0.62138272187E+02 -0.31802290939E+03  0.34937404904E+03  0.12858884123E+03 0.  0.
         25    2    3    3    0    0  0.22965197167E+02 -0.62138272187E+02 -0.33021841685E+03  0.35925193084E+03  0.12501672623E+03 0.  0.
          5    1    4    4  502    0  0.16155684992E+01  0.12474362243E+02  0.99543502928E+01  0.16715228527E+02  0.47000000000E+01 0.  1.
         -5    1    4    4    0  502 -0.24580765666E+02  0.49663909944E+02 -0.32797725969E+03  0.33265882051E+03  0.47000000000E+01 0.  1.
          5    1    5    5  503    0 -0.30050942495E+02 -0.14703348818E+02 -0.16618181224E+02  0.37649721891E+02  0.47000000000E+01 0. -1.
         -5    1    5    5    0  503  0.53016139662E+02 -0.47434923369E+02 -0.31360023562E+03  0.32160220895E+03  0.47000000000E+01 0. -1.
<mgrwt>
<rscale>  0 0.28624109E+03</rscale>
<asrwt>0</asrwt>
<pdfrwt beam="1">  1        3 0.46449737E-02 0.28624109E+03</pdfrwt>
<pdfrwt beam="2">  1       -3 0.10437440E+00 0.28624109E+03</pdfrwt>
<totfact> 0.53503799E+02</totfact>
</mgrwt>
</event>
<event>
 9    1  0.7926126E-001  0.2762761E+03  0.7818608E-02  0.1097740E+00
          1   -1    0    0  501    0  0.00000000000E+00  0.00000000000E+00  0.15149265162E+04  0.15149265162E+04  0.00000000000E+00 0.  1.
         -1   -1    0    0    0  501 -0.00000000000E+00 -0.00000000000E+00 -0.12596073102E+02  0.12596073102E+02  0.00000000000E+00 0.  1.
         35    2    1    2    0    0  0.71054273576E-14  0.00000000000E+00  0.15023304431E+04  0.15275225893E+04  0.27627613101E+03 0.  0.
         25    2    3    3    0    0  0.43207938151E+02  0.43666278685E+02  0.85111995323E+03  0.86162248863E+03  0.11922444512E+03 0.  0.
         25    2    3    3    0    0 -0.43207938151E+02 -0.43666278685E+02  0.65121048987E+03  0.66590010068E+03  0.12479652297E+03 0.  0.
          5    1    4    4  502    0  0.80580558360E+01  0.41245904732E+02  0.78837832984E+03  0.78951164518E+03  0.47000000000E+01 0.  1.
         -5    1    4    4    0  502  0.35149882315E+02  0.24203739530E+01  0.62741623388E+02  0.72110843444E+02  0.47000000000E+01 0.  1.
          5    1    5    5  503    0 -0.19459400759E+02 -0.37965787760E+02  0.63446921751E+03  0.63591929306E+03  0.47000000000E+01 0. -1.
         -5    1    5    5    0  503 -0.23748537392E+02 -0.57004909254E+01  0.16741272366E+02  0.29980807619E+02  0.47000000000E+01 0. -1.
<mgrwt>
<rscale>  0 0.27627613E+03</rscale>
<asrwt>0</asrwt>
<pdfrwt beam="1">  1        1 0.23306547E+00 0.27627613E+03</pdfrwt>
<pdfrwt beam="2">  1       -1 0.19378586E-02 0.27627613E+03</pdfrwt>
<totfact> 0.50236536E+03</totfact>
</mgrwt>
</event>
<event>
 9    1  0.7926126E-001  0.2748823E+03  0.7818608E-02  0.1098517E+00
          2   -1    0    0  501    0  0.00000000000E+00  0.00000000000E+00  0.10538253736E+04  0.10538253736E+04  0.00000000000E+00 0. -1.
         -2   -1    0    0    0  501 -0.00000000000E+00 -0.00000000000E+00 -0.17925237997E+02  0.17925237997E+02  0.00000000000E+00 0. -1.
         35    2    1    2    0    0  0.14210854715E-13 -0.71054273576E-14  0.10359001356E+04  0.10717506116E+04  0.27488230666E+03 0.  0.
         25    2    3    3    0    0  0.36505503668E+02 -0.15823659078E+02  0.35742346913E+03  0.38070425318E+03  0.12490457202E+03 0.  0.
         25    2    3    3    0    0 -0.36505503668E+02  0.15823659078E+02  0.67847666645E+03  0.69104635840E+03  0.12502576758E+03 0.  0.
          5    1    4    4  502    0 -0.71017345713E+01 -0.64333163389E+02  0.19898091132E+03  0.20929568465E+03  0.47000000000E+01 0.  1.
         -5    1    4    4    0  502  0.43607238239E+02  0.48509504310E+02  0.15844255782E+03  0.17140856852E+03  0.47000000000E+01 0.  1.
          5    1    5    5  503    0 -0.16717734569E+02 -0.19374027322E+01  0.65509491107E+03  0.65532790929E+03  0.47000000000E+01 0.  1.
         -5    1    5    5    0  503 -0.19787769099E+02  0.17761061811E+02  0.23381755374E+02  0.35718449111E+02  0.47000000000E+01 0.  1.
<mgrwt>
<rscale>  0 0.27488231E+03</rscale>
<asrwt>0</asrwt>
<pdfrwt beam="1">  1        2 0.16212693E+00 0.27488231E+03</pdfrwt>
<pdfrwt beam="2">  1       -2 0.27577297E-02 0.27488231E+03</pdfrwt>
<totfact> 0.11666032E+04</totfact>
</mgrwt>
</event>
<event>
 9    1  0.7926126E-001  0.2765048E+03  0.7818608E-02  0.1097613E+00
         -2   -1    0    0    0  501 -0.00000000000E+00  0.00000000000E+00  0.52810969915E+02  0.52810969915E+02  0.00000000000E+00 0.  1.
          2   -1    0    0  501    0  0.00000000000E+00 -0.00000000000E+00 -0.36192721961E+03  0.36192721961E+03  0.00000000000E+00 0.  1.
         35    2    1    2    0    0  0.00000000000E+00 -0.17763568394E-14 -0.30911624969E+03  0.41473818952E+03  0.27650481013E+03 0.  0.
         25    2    3    3    0    0 -0.50237160495E+02  0.64525293309E+01 -0.19837597017E+03  0.24005588980E+03  0.12533314509E+03 0.  0.
         25    2    3    3    0    0  0.50237160495E+02 -0.64525293309E+01 -0.11074027952E+03  0.17468229972E+03  0.12524012495E+03 0.  0.
          5    1    4    4  502    0  0.30512092248E+02 -0.24642738236E+02 -0.26490054685E+02  0.47561174484E+02  0.47000000000E+01 0.  1.
         -5    1    4    4    0  502 -0.80749252742E+02  0.31095267567E+02 -0.17188591549E+03  0.19249471532E+03  0.47000000000E+01 0.  1.
          5    1    5    5  503    0  0.78723731437E+02 -0.14336586699E+02 -0.11914234161E+03  0.14359648733E+03  0.47000000000E+01 0. -1.
         -5    1    5    5    0  503 -0.28486570942E+02  0.78840573684E+01  0.84020620861E+01  0.31085812390E+02  0.47000000000E+01 0. -1.
<mgrwt>
<rscale>  0 0.27650481E+03</rscale>
<asrwt>0</asrwt>
<pdfrwt beam="1">  1        2 0.55681110E-01 0.27650481E+03</pdfrwt>
<pdfrwt beam="2">  1       -2 0.81247647E-02 0.27650481E+03</pdfrwt>
<totfact> 0.81660230E+03</totfact>
</mgrwt>
</event>
<event>
 9    1  0.7926126E-001  0.2752729E+03  0.7818608E-02  0.1098299E+00
         -2   -1    0    0    0  501 -0.00000000000E+00  0.00000000000E+00  0.13667121292E+02  0.13667121292E+02  0.00000000000E+00 0. -1.
          2   -1    0    0  501    0  0.00000000000E+00 -0.00000000000E+00 -0.13860847928E+04  0.13860847928E+04  0.00000000000E+00 0. -1.
         35    2    1    2    0    0  0.00000000000E+00 -0.71054273576E-14 -0.13724176715E+04  0.13997519141E+04  0.27527287542E+03 0.  0.
         25    2    3    3    0    0  0.51471886423E+01  0.54648194483E+02 -0.75817517127E+03  0.77042657879E+03  0.12535790471E+03 0.  0.
         25    2    3    3    0    0 -0.51471886423E+01 -0.54648194483E+02 -0.61424250028E+03  0.62932533534E+03  0.12547354238E+03 0.  0.
          5    1    4    4  502    0  0.43052057845E+01 -0.35814385283E+02 -0.10778743691E+03  0.11376039093E+03  0.47000000000E+01 0. -1.
         -5    1    4    4    0  502  0.84198285777E+00  0.90462579766E+02 -0.65038773436E+03  0.65666618786E+03  0.47000000000E+01 0. -1.
          5    1    5    5  503    0  0.11435085368E+02 -0.38517879691E+02 -0.60079946359E+03  0.60215984064E+03  0.47000000000E+01 0.  1.
         -5    1    5    5    0  503 -0.16582274010E+02 -0.16130314792E+02 -0.13443036690E+02  0.27165494696E+02  0.47000000000E+01 0.  1.
<mgrwt>
<rscale>  0 0.27527288E+03</rscale>
<asrwt>0</asrwt>
<pdfrwt beam="1">  1        2 0.21324376E+00 0.27527288E+03</pdfrwt>
<pdfrwt beam="2">  1       -2 0.21026346E-02 0.27527288E+03</pdfrwt>
<totfact> 0.11289100E+04</totfact>
</mgrwt>
</event>
<event>
 9    1  0.7926126E-001  0.2776492E+03  0.7818608E-02  0.1096980E+00
          2   -1    0    0  501    0  0.00000000000E+00  0.00000000000E+00  0.19721615127E+03  0.19721615127E+03  0.00000000000E+00 0.  1.
         -2   -1    0    0    0  501 -0.00000000000E+00 -0.00000000000E+00 -0.97721591807E+02  0.97721591807E+02  0.00000000000E+00 0.  1.
         35    2    1    2    0    0  0.00000000000E+00  0.88817841970E-15  0.99494559459E+02  0.29493774307E+03  0.27764924802E+03 0.  0.
         25    2    3    3    0    0  0.31213625367E+02 -0.18172429285E+01 -0.11554584541E+02  0.12524065320E+03  0.12072332008E+03 0.  0.
         25    2    3    3    0    0 -0.31213625367E+02  0.18172429285E+01  0.11104914400E+03  0.16969708987E+03  0.12444917496E+03 0.  0.
          5    1    4    4  502    0  0.74266622853E+02 -0.61836027346E+01  0.12185397338E+02  0.75659382241E+02  0.47000000000E+01 0.  1.
         -5    1    4    4    0  502 -0.43052997486E+02  0.43663598060E+01 -0.23739981879E+02  0.49581270961E+02  0.47000000000E+01 0.  1.
          5    1    5    5  503    0  0.27377434381E+02 -0.43353256582E+02  0.28900081372E+02  0.59045181623E+02  0.47000000000E+01 0. -1.
         -5    1    5    5    0  503 -0.58591059748E+02  0.45170499511E+02  0.82149062628E+02  0.11065190825E+03  0.47000000000E+01 0. -1.
<mgrwt>
<rscale>  0 0.27764925E+03</rscale>
<asrwt>0</asrwt>
<pdfrwt beam="1">  1        2 0.30340946E-01 0.27764925E+03</pdfrwt>
<pdfrwt beam="2">  1       -2 0.15034091E-01 0.27764925E+03</pdfrwt>
<totfact> 0.58654218E+03</totfact>
</mgrwt>
</event>
<event>
 9    1  0.7926126E-001  0.2745268E+03  0.7818608E-02  0.1098716E+00
          1   -1    0    0  501    0  0.00000000000E+00  0.00000000000E+00  0.96174324743E+03  0.96174324743E+03  0.00000000000E+00 0.  1.
         -1   -1    0    0    0  501 -0.00000000000E+00 -0.00000000000E+00 -0.19590714586E+02  0.19590714586E+02  0.00000000000E+00 0.  1.
         35    2    1    2    0    0  0.00000000000E+00  0.00000000000E+00  0.94215253284E+03  0.98133396201E+03  0.27452677440E+03 0.  0.
         25    2    3    3    0    0  0.40092402332E+02 -0.41996985252E+02  0.50376063420E+03  0.52202603875E+03  0.12395669028E+03 0.  0.
         25    2    3    3    0    0 -0.40092402332E+02  0.41996985252E+02  0.43839189864E+03  0.45930792327E+03  0.12411754141E+03 0.  0.
          5    1    4    4  502    0 -0.19093635250E+02  0.15609338261E+02  0.22518107636E+02  0.33724968784E+02  0.47000000000E+01 0.  1.
         -5    1    4    4    0  502  0.59186037581E+02 -0.57606323513E+02  0.48124252656E+03  0.48830106996E+03  0.47000000000E+01 0.  1.
          5    1    5    5  503    0 -0.53972170210E+02 -0.27146009449E+02  0.26940088789E+03  0.27613190576E+03  0.47000000000E+01 0. -1.
         -5    1    5    5    0  503  0.13879767878E+02  0.69142994701E+02  0.16899101075E+03  0.18317601750E+03  0.47000000000E+01 0. -1.
<mgrwt>
<rscale>  0 0.27452677E+03</rscale>
<asrwt>0</asrwt>
<pdfrwt beam="1">  1        1 0.14796046E+00 0.27452677E+03</pdfrwt>
<pdfrwt beam="2">  1       -1 0.30139568E-02 0.27452677E+03</pdfrwt>
<totfact> 0.63990178E+03</totfact>
</mgrwt>
</event>
<event>
 9    1  0.7926126E-001  0.2735758E+03  0.7818608E-02  0.1099250E+00
          2   -1    0    0  501    0  0.00000000000E+00  0.00000000000E+00  0.34091858306E+03  0.34091858306E+03  0.00000000000E+00 0. -1.
         -2   -1    0    0    0  501 -0.00000000000E+00 -0.00000000000E+00 -0.54883871475E+02  0.54883871475E+02  0.00000000000E+00 0. -1.
         35    2    1    2    0    0  0.00000000000E+00  0.00000000000E+00  0.28603471158E+03  0.39580245453E+03  0.27357581542E+03 0.  0.
         25    2    3    3    0    0  0.20005793480E+02 -0.48514280849E+02  0.19057116041E+03  0.23015974409E+03  0.11790790220E+03 0.  0.
         25    2    3    3    0    0 -0.20005793480E+02  0.48514280849E+02  0.95463551167E+02  0.16564271044E+03  0.12478121133E+03 0.  0.
          5    1    4    4  502    0  0.67751224626E+02 -0.37679355294E+02  0.95281251428E+02  0.12292505492E+03  0.47000000000E+01 0. -1.
         -5    1    4    4    0  502 -0.47745431146E+02 -0.10834925555E+02  0.95289908986E+02  0.10723468917E+03  0.47000000000E+01 0. -1.
          5    1    5    5  503    0  0.39703124286E+02  0.32081050235E+02  0.89642040517E+02  0.10326333953E+03  0.47000000000E+01 0. -1.
         -5    1    5    5    0  503 -0.59708917765E+02  0.16433230614E+02  0.58215106503E+01  0.62379370912E+02  0.47000000000E+01 0. -1.
<mgrwt>
<rscale>  0 0.27357582E+03</rscale>
<asrwt>0</asrwt>
<pdfrwt beam="1">  1        2 0.52449012E-01 0.27357582E+03</pdfrwt>
<pdfrwt beam="2">  1       -2 0.84436727E-02 0.27357582E+03</pdfrwt>
<totfact> 0.81975630E+03</totfact>
</mgrwt>
</event>
<event>
 9    1  0.7926126E-001  0.2859342E+03  0.7818608E-02  0.1092491E+00
          1   -1    0    0  501    0  0.00000000000E+00  0.00000000000E+00  0.15751869705E+04  0.15751869705E+04  0.00000000000E+00 0. -1.
         -1   -1    0    0    0  501 -0.00000000000E+00 -0.00000000000E+00 -0.12975980845E+02  0.12975980845E+02  0.00000000000E+00 0. -1.
         35    2    1    2    0    0  0.00000000000E+00 -0.35527136788E-14  0.15622109896E+04  0.15881629513E+04  0.28593422989E+03 0.  0.
         25    2    3    3    0    0  0.69800972706E+02 -0.11228033166E+02  0.92513699870E+03  0.93628812403E+03  0.12553382141E+03 0.  0.
         25    2    3    3    0    0 -0.69800972706E+02  0.11228033166E+02  0.63707399094E+03  0.65187482729E+03  0.11865612506E+03 0.  0.
          5    1    4    4  502    0 -0.17526612021E+02  0.11039097346E+01  0.20701946661E+02  0.27551067878E+02  0.47000000000E+01 0. -1.
         -5    1    4    4    0  502  0.87327584726E+02 -0.12331942900E+02  0.90443505203E+03  0.90873705615E+03  0.47000000000E+01 0. -1.
          5    1    5    5  503    0 -0.60632381343E+02  0.59251585877E+02  0.32250879013E+03  0.33349819461E+03  0.47000000000E+01 0.  1.
         -5    1    5    5    0  503 -0.91685913630E+01 -0.48023552711E+02  0.31456520081E+03  0.31837663269E+03  0.47000000000E+01 0.  1.
<mgrwt>
<rscale>  0 0.28593423E+03</rscale>
<asrwt>0</asrwt>
<pdfrwt beam="1">  1        1 0.24233631E+00 0.28593423E+03</pdfrwt>
<pdfrwt beam="2">  1       -1 0.19963060E-02 0.28593423E+03</pdfrwt>
<totfact> 0.43897149E+03</totfact>
</mgrwt>
</event>
<event>
 9    1  0.7926126E-001  0.2772929E+03  0.7818608E-02  0.1097177E+00
          1   -1    0    0  501    0  0.00000000000E+00  0.00000000000E+00  0.62028546224E+03  0.62028546224E+03  0.00000000000E+00 0. -1.
         -1   -1    0    0    0  501 -0.00000000000E+00 -0.00000000000E+00 -0.30990299252E+02  0.30990299252E+02  0.00000000000E+00 0. -1.
         35    2    1    2    0    0  0.71054273576E-14  0.14210854715E-13  0.58929516299E+03  0.65127576149E+03  0.27729285672E+03 0.  0.
         25    2    3    3    0    0  0.11665865174E+02  0.60203466980E+02  0.25842821368E+03  0.29366596049E+03  0.12527571544E+03 0.  0.
         25    2    3    3    0    0 -0.11665865174E+02 -0.60203466980E+02  0.33086694931E+03  0.35760980100E+03  0.12104247923E+03 0.  0.
          5    1    4    4  502    0  0.45352874552E+02  0.76072266930E+02  0.11397866983E+03  0.14441987468E+03  0.47000000000E+01 0.  1.
         -5    1    4    4    0  502 -0.33687009378E+02 -0.15868799950E+02  0.14444954385E+03  0.14924608581E+03  0.47000000000E+01 0.  1.
          5    1    5    5  503    0 -0.45500291487E+02 -0.67747893056E+02  0.12889369357E+03  0.15262938047E+03  0.47000000000E+01 0.  1.
         -5    1    5    5    0  503  0.33834426313E+02  0.75444260755E+01  0.20197325574E+03  0.20498042053E+03  0.47000000000E+01 0.  1.
<mgrwt>
<rscale>  0 0.27729286E+03</rscale>
<asrwt>0</asrwt>
<pdfrwt beam="1">  1        1 0.95428524E-01 0.27729286E+03</pdfrwt>
<pdfrwt beam="2">  1       -1 0.47677388E-02 0.27729286E+03</pdfrwt>
<totfact> 0.63250044E+03</totfact>
</mgrwt>
</event>
<event>
 9    1  0.7926126E-001  0.2782247E+03  0.7818608E-02  0.1096663E+00
          2   -1    0    0  501    0  0.00000000000E+00  0.00000000000E+00  0.18237002286E+02  0.18237002286E+02  0.00000000000E+00 0.  1.
         -2   -1    0    0    0  501 -0.00000000000E+00 -0.00000000000E+00 -0.10611524757E+04  0.10611524757E+04  0.00000000000E+00 0.  1.
         35    2    1    2    0    0  0.71054273576E-14  0.00000000000E+00 -0.10429154735E+04  0.10793894780E+04  0.27822465833E+03 0.  0.
         25    2    3    3    0    0 -0.15218174365E+02 -0.25683990095E+02 -0.61741771932E+03  0.63068444659E+03  0.12516777084E+03 0.  0.
         25    2    3    3    0    0  0.15218174365E+02  0.25683990095E+02 -0.42549775413E+03  0.44870503144E+03  0.13927169952E+03 0.  0.
          5    1    4    4  502    0  0.50021621333E+02  0.11638852607E+02 -0.20092826538E+03  0.20744127680E+03  0.47000000000E+01 0.  1.
         -5    1    4    4    0  502 -0.65239795698E+02 -0.37322842702E+02 -0.41648945394E+03  0.42324316979E+03  0.47000000000E+01 0.  1.
          5    1    5    5  503    0 -0.36745397625E+02 -0.13382448235E+02 -0.33428118723E+03  0.33659369617E+03  0.47000000000E+01 0. -1.
         -5    1    5    5    0  503  0.51963571990E+02  0.39066438330E+02 -0.91216566908E+02  0.11211133527E+03  0.47000000000E+01 0. -1.
<mgrwt>
<rscale>  0 0.27822466E+03</rscale>
<asrwt>0</asrwt>
<pdfrwt beam="1">  1        2 0.28056934E-02 0.27822466E+03</pdfrwt>
<pdfrwt beam="2">  1       -2 0.16325418E+00 0.27822466E+03</pdfrwt>
<totfact> 0.87196237E+02</totfact>
</mgrwt>
</event>
<event>
 9    1  0.7926126E-001  0.2778367E+03  0.7818608E-02  0.1096876E+00
         -2   -1    0    0    0  501 -0.00000000000E+00  0.00000000000E+00  0.15197425884E+03  0.15197425884E+03  0.00000000000E+00 0.  1.
          2   -1    0    0  501    0  0.00000000000E+00 -0.00000000000E+00 -0.12698409804E+03  0.12698409804E+03  0.00000000000E+00 0.  1.
         35    2    1    2    0    0  0.14210854715E-13  0.00000000000E+00  0.24990160797E+02  0.27895835688E+03  0.27783674476E+03 0.  0.
         25    2    3    3    0    0  0.58955762746E+02  0.20223735601E+02  0.32067603841E+02  0.13947487920E+03  0.12058245838E+03 0.  0.
         25    2    3    3    0    0 -0.58955762746E+02 -0.20223735601E+02 -0.70774430436E+01  0.13948347768E+03  0.12458237798E+03 0.  0.
          5    1    4    4  502    0  0.48339922881E+02  0.28421298040E+02  0.75278660937E+02  0.93986622021E+02  0.47000000000E+01 0. -1.
         -5    1    4    4    0  502  0.10615839866E+02 -0.81975624391E+01 -0.43211057097E+02  0.45488257182E+02  0.47000000000E+01 0. -1.
          5    1    5    5  503    0 -0.59836440525E+02 -0.67103797487E+02 -0.16225391189E+02  0.91480449119E+02  0.47000000000E+01 0.  1.
         -5    1    5    5    0  503  0.88067777836E+00  0.46880061885E+02  0.91479481456E+01  0.48003028561E+02  0.47000000000E+01 0.  1.
<mgrwt>
<rscale>  0 0.27783674E+03</rscale>
<asrwt>0</asrwt>
<pdfrwt beam="1">  1        2 0.19536015E-01 0.27783674E+03</pdfrwt>
<pdfrwt beam="2">  1       -2 0.23380655E-01 0.27783674E+03</pdfrwt>
<totfact> 0.45405626E+03</totfact>
</mgrwt>
</event>
<event>
 9    1  0.7926126E-001  0.2741672E+03  0.7818608E-02  0.1098918E+00
         -2   -1    0    0    0  501 -0.00000000000E+00  0.00000000000E+00  0.89496292351E+02  0.89496292351E+02  0.00000000000E+00 0.  1.
          2   -1    0    0  501    0  0.00000000000E+00 -0.00000000000E+00 -0.20997422623E+03  0.20997422623E+03  0.00000000000E+00 0.  1.
         35    2    1    2    0    0  0.71054273576E-14  0.71054273576E-14 -0.12047793388E+03  0.29947051858E+03  0.27416720983E+03 0.  0.
         25    2    3    3    0    0  0.32243636888E+02  0.45768526367E+02 -0.49475779404E+02  0.14615750860E+03  0.12561749260E+03 0.  0.
         25    2    3    3    0    0 -0.32243636888E+02 -0.45768526367E+02 -0.71002154474E+02  0.15331300998E+03  0.12381099694E+03 0.  0.
          5    1    4    4  502    0  0.75958674461E+02  0.22612694730E+02 -0.54370300827E+02  0.96225120425E+02  0.47000000000E+01 0.  1.
         -5    1    4    4    0  502 -0.43715037573E+02  0.23155831637E+02  0.48945214233E+01  0.49932388174E+02  0.47000000000E+01 0.  1.
          5    1    5    5  503    0  0.41846824580E+02 -0.44805223868E+02 -0.35723531462E+02  0.71112063066E+02  0.47000000000E+01 0.  1.
         -5    1    5    5    0  503 -0.74090461467E+02 -0.96330249840E+00 -0.35278623012E+02  0.82200946915E+02  0.47000000000E+01 0.  1.
<mgrwt>
<rscale>  0 0.27416721E+03</rscale>
<asrwt>0</asrwt>
<pdfrwt beam="1">  1        2 0.32303727E-01 0.27416721E+03</pdfrwt>
<pdfrwt beam="2">  1       -2 0.13768660E-01 0.27416721E+03</pdfrwt>
<totfact> 0.63260102E+03</totfact>
</mgrwt>
</event>
<event>
 9    1  0.7926126E-001  0.2803633E+03  0.7818608E-02  0.1095491E+00
          1   -1    0    0  501    0  0.00000000000E+00  0.00000000000E+00  0.24691428097E+04  0.24691428097E+04  0.00000000000E+00 0.  1.
         -1   -1    0    0    0  501 -0.00000000000E+00 -0.00000000000E+00 -0.79585889085E+01  0.79585889085E+01  0.00000000000E+00 0.  1.
         35    2    1    2    0    0 -0.71054273576E-14  0.35527136788E-14  0.24611842208E+04  0.24771013986E+04  0.28036328275E+03 0.  0.
         25    2    3    3    0    0  0.59269827077E+02 -0.19794111020E+02  0.10755761665E+04  0.10845721258E+04  0.12461094232E+03 0.  0.
         25    2    3    3    0    0 -0.59269827077E+02  0.19794111020E+02  0.13856080543E+04  0.13925292728E+04  0.12378762540E+03 0.  0.
          5    1    4    4  502    0  0.34677420683E+02  0.63972637406E+01  0.10012770517E+04  0.10019088146E+04  0.47000000000E+01 0. -1.
         -5    1    4    4    0  502  0.24592406393E+02 -0.26191374760E+02  0.74299114747E+02  0.82663311186E+02  0.47000000000E+01 0. -1.
          5    1    5    5  503    0 -0.56433376116E+02 -0.38548725028E+02  0.10157734314E+04  0.10180807847E+04  0.47000000000E+01 0.  1.
         -5    1    5    5    0  503 -0.28364509604E+01  0.58342836048E+02  0.36983462287E+03  0.37444848811E+03  0.47000000000E+01 0.  1.
<mgrwt>
<rscale>  0 0.28036328E+03</rscale>
<asrwt>0</asrwt>
<pdfrwt beam="1">  1        1 0.37986751E+00 0.28036328E+03</pdfrwt>
<pdfrwt beam="2">  1       -1 0.12244003E-02 0.28036328E+03</pdfrwt>
<totfact> 0.23306344E+03</totfact>
</mgrwt>
</event>
<event>
 9    1  0.7926126E-001  0.2754314E+03  0.7818608E-02  0.1098211E+00
         -1   -1    0    0    0  501 -0.00000000000E+00  0.00000000000E+00  0.25584853026E+02  0.25584853026E+02  0.00000000000E+00 0. -1.
          1   -1    0    0  501    0  0.00000000000E+00 -0.00000000000E+00 -0.74128289445E+03  0.74128289445E+03  0.00000000000E+00 0. -1.
         35    2    1    2    0    0  0.00000000000E+00 -0.14210854715E-13 -0.71569804142E+03  0.76686774747E+03  0.27543139912E+03 0.  0.
         25    2    3    3    0    0  0.26622357126E+01 -0.62482691804E+02 -0.39101486492E+03  0.41541959166E+03  0.12557722034E+03 0.  0.
         25    2    3    3    0    0 -0.26622357126E+01  0.62482691804E+02 -0.32468317650E+03  0.35144815582E+03  0.11910275753E+03 0.  0.
          5    1    4    4  502    0 -0.15920218466E+02  0.10807132931E+02 -0.28184688552E+03  0.28254203998E+03  0.47000000000E+01 0.  1.
         -5    1    4    4    0  502  0.18582454179E+02 -0.73289824735E+02 -0.10916797940E+03  0.13287755168E+03  0.47000000000E+01 0.  1.
          5    1    5    5  503    0  0.29687357076E+00  0.66468197719E+02 -0.69896419611E+02  0.96569710140E+02  0.47000000000E+01 0.  1.
         -5    1    5    5    0  503 -0.29591092834E+01 -0.39855059154E+01 -0.25478675689E+03  0.25487844568E+03  0.47000000000E+01 0.  1.
<mgrwt>
<rscale>  0 0.27543140E+03</rscale>
<asrwt>0</asrwt>
<pdfrwt beam="1">  1        1 0.11404353E+00 0.27543140E+03</pdfrwt>
<pdfrwt beam="2">  1       -1 0.39361308E-02 0.27543140E+03</pdfrwt>
<totfact> 0.65058219E+03</totfact>
</mgrwt>
</event>
<event>
 9    1  0.7926126E-001  0.2734768E+03  0.7818608E-02  0.1099306E+00
         -1   -1    0    0    0  501 -0.00000000000E+00  0.00000000000E+00  0.79558418315E+02  0.79558418315E+02  0.00000000000E+00 0. -1.
          1   -1    0    0  501    0  0.00000000000E+00 -0.00000000000E+00 -0.23501452198E+03  0.23501452198E+03  0.00000000000E+00 0. -1.
         35    2    1    2    0    0  0.71054273576E-14  0.00000000000E+00 -0.15545610366E+03  0.31457294029E+03  0.27347675331E+03 0.  0.
         25    2    3    3    0    0 -0.33769163183E+02 -0.43418045825E+02 -0.68304492337E+02  0.15282215217E+03  0.12515439838E+03 0.  0.
         25    2    3    3    0    0  0.33769163183E+02  0.43418045825E+02 -0.87151611327E+02  0.16175078812E+03  0.12466928658E+03 0.  0.
          5    1    4    4  502    0 -0.34933471172E+02  0.39395184084E+02 -0.35180582858E+02  0.63498750755E+02  0.47000000000E+01 0.  1.
         -5    1    4    4    0  502  0.11643079887E+01 -0.82813229910E+02 -0.33123909479E+02  0.89323401415E+02  0.47000000000E+01 0.  1.
          5    1    5    5  503    0  0.46259925450E+02 -0.22030294566E+02  0.61630805855E+00  0.51456626560E+02  0.47000000000E+01 0.  1.
         -5    1    5    5    0  503 -0.12490762267E+02  0.65448340391E+02 -0.87767919386E+02  0.11029416157E+03  0.47000000000E+01 0.  1.
<mgrwt>
<rscale>  0 0.27347675E+03</rscale>
<asrwt>0</asrwt>
<pdfrwt beam="1">  1        1 0.36156080E-01 0.27347675E+03</pdfrwt>
<pdfrwt beam="2">  1       -1 0.12239757E-01 0.27347675E+03</pdfrwt>
<totfact> 0.52659694E+03</totfact>
</mgrwt>
</event>
<event>
 9    1  0.7926126E-001  0.2762602E+03  0.7818608E-02  0.1097749E+00
          1   -1    0    0  501    0  0.00000000000E+00  0.00000000000E+00  0.90255025395E+03  0.90255025395E+03  0.00000000000E+00 0. -1.
         -1   -1    0    0    0  501 -0.00000000000E+00 -0.00000000000E+00 -0.21140019036E+02  0.21140019036E+02  0.00000000000E+00 0. -1.
         35    2    1    2    0    0  0.00000000000E+00  0.00000000000E+00  0.88141023491E+03  0.92369027299E+03  0.27626023637E+03 0.  0.
         25    2    3    3    0    0 -0.49309141200E+01  0.12132284092E+01  0.60679265330E+03  0.61953126473E+03  0.12488345782E+03 0.  0.
         25    2    3    3    0    0  0.49309141200E+01 -0.12132284092E+01  0.27461758161E+03  0.30415900826E+03  0.13066024773E+03 0.  0.
          5    1    4    4  502    0  0.39031661636E+02 -0.38794114795E+02  0.41566624782E+03  0.41931965555E+03  0.47000000000E+01 0. -1.
         -5    1    4    4    0  502 -0.43962575756E+02  0.40007343204E+02  0.19112640548E+03  0.20021160918E+03  0.47000000000E+01 0. -1.
          5    1    5    5  503    0  0.46729005015E+02  0.43253266653E+02  0.18437416395E+03  0.19511629178E+03  0.47000000000E+01 0. -1.
         -5    1    5    5    0  503 -0.41798090895E+02 -0.44466495062E+02  0.90243417662E+02  0.10904271648E+03  0.47000000000E+01 0. -1.
<mgrwt>
<rscale>  0 0.27626024E+03</rscale>
<asrwt>0</asrwt>
<pdfrwt beam="1">  1        1 0.13885386E+00 0.27626024E+03</pdfrwt>
<pdfrwt beam="2">  1       -1 0.32523113E-02 0.27626024E+03</pdfrwt>
<totfact> 0.63546062E+03</totfact>
</mgrwt>
</event>
<event>
 9    1  0.7926126E-001  0.2715936E+03  0.7818608E-02  0.1100371E+00
          2   -1    0    0  501    0  0.00000000000E+00  0.00000000000E+00  0.27494871960E+03  0.27494871960E+03  0.00000000000E+00 0. -1.
         -2   -1    0    0    0  501 -0.00000000000E+00 -0.00000000000E+00 -0.67069850638E+02  0.67069850638E+02  0.00000000000E+00 0. -1.
         35    2    1    2    0    0 -0.35527136788E-14  0.14210854715E-13  0.20787886896E+03  0.34201857024E+03  0.27159359018E+03 0.  0.
         25    2    3    3    0    0  0.19853261645E+02 -0.40052035635E+02  0.66453739715E+02  0.14759425247E+03  0.12397437753E+03 0.  0.
         25    2    3    3    0    0 -0.19853261645E+02  0.40052035635E+02  0.14142512924E+03  0.19442431777E+03  0.12570374139E+03 0.  0.
          5    1    4    4  502    0  0.99861011444E+00  0.11281364680E+01 -0.35548739225E+02  0.35889730768E+02  0.47000000000E+01 0.  1.
         -5    1    4    4    0  502  0.18854651531E+02 -0.41180172103E+02  0.10200247894E+03  0.11170452170E+03  0.47000000000E+01 0.  1.
          5    1    5    5  503    0  0.43646934324E+01  0.92758440566E+01  0.15292384598E+03  0.15333911602E+03  0.47000000000E+01 0. -1.
         -5    1    5    5    0  503 -0.24217955077E+02  0.30776191578E+02 -0.11498716735E+02  0.41085201749E+02  0.47000000000E+01 0. -1.
<mgrwt>
<rscale>  0 0.27159359E+03</rscale>
<asrwt>0</asrwt>
<pdfrwt beam="1">  1        2 0.42299802E-01 0.27159359E+03</pdfrwt>
<pdfrwt beam="2">  1       -2 0.10318439E-01 0.27159359E+03</pdfrwt>
<totfact> 0.75233819E+03</totfact>
</mgrwt>
</event>
<event>
 9    1  0.7926126E-001  0.2740108E+03  0.7818608E-02  0.1099006E+00
          2   -1    0    0  501    0  0.00000000000E+00  0.00000000000E+00  0.84225661460E+03  0.84225661460E+03  0.00000000000E+00 0.  1.
         -2   -1    0    0    0  501 -0.00000000000E+00 -0.00000000000E+00 -0.22285932942E+02  0.22285932942E+02  0.00000000000E+00 0.  1.
         35    2    1    2    0    0 -0.71054273576E-14 -0.14210854715E-13  0.81997068166E+03  0.86454254754E+03  0.27401076207E+03 0.  0.
         25    2    3    3    0    0 -0.15934917252E+02  0.60635648918E+02  0.34330390416E+03  0.36937124356E+03  0.12102454894E+03 0.  0.
         25    2    3    3    0    0  0.15934917252E+02 -0.60635648918E+02  0.47666677750E+03  0.49517130398E+03  0.11854450647E+03 0.  0.
          5    1    4    4  502    0  0.35925399450E+02  0.50915598292E+02  0.83907069514E+02  0.10462083344E+03  0.47000000000E+01 0. -1.
         -5    1    4    4    0  502 -0.51860316702E+02  0.97200506262E+01  0.25939683465E+03  0.26475041012E+03  0.47000000000E+01 0. -1.
          5    1    5    5  503    0 -0.39187465242E+02  0.78764197359E+01  0.22430137694E+03  0.22788350778E+03  0.47000000000E+01 0.  1.
         -5    1    5    5    0  503  0.55122382494E+02 -0.68512068654E+02  0.25236540055E+03  0.26728779620E+03  0.47000000000E+01 0.  1.
<mgrwt>
<rscale>  0 0.27401076E+03</rscale>
<asrwt>0</asrwt>
<pdfrwt beam="1">  1        2 0.12957792E+00 0.27401076E+03</pdfrwt>
<pdfrwt beam="2">  1       -2 0.34286057E-02 0.27401076E+03</pdfrwt>
<totfact> 0.11466117E+04</totfact>
</mgrwt>
</event>
<event>
 9    1  0.7926126E-001  0.2718805E+03  0.7818608E-02  0.1100208E+00
         -2   -1    0    0    0  501 -0.00000000000E+00  0.00000000000E+00  0.10835872507E+03  0.10835872507E+03  0.00000000000E+00 0. -1.
          2   -1    0    0  501    0  0.00000000000E+00 -0.00000000000E+00 -0.17054240951E+03  0.17054240951E+03  0.00000000000E+00 0. -1.
         35    2    1    2    0    0  0.00000000000E+00  0.00000000000E+00 -0.62183684447E+02  0.27890113458E+03  0.27188054777E+03 0.  0.
         25    2    3    3    0    0 -0.25870659195E+02 -0.40219430783E+01 -0.78548128546E+02  0.15031699870E+03  0.12545885607E+03 0.  0.
         25    2    3    3    0    0  0.25870659195E+02  0.40219430783E+01  0.16364444099E+02  0.12858413588E+03  0.12482234550E+03 0.  0.
          5    1    4    4  502    0 -0.22239081302E+02 -0.20797499642E+02 -0.10997076439E+03  0.11420495501E+03  0.47000000000E+01 0.  1.
         -5    1    4    4    0  502 -0.36315778929E+01  0.16775556563E+02  0.31422635845E+02  0.36112043690E+02  0.47000000000E+01 0.  1.
          5    1    5    5  503    0  0.41972558723E+02  0.21091242604E+02 -0.43449788340E+02  0.64160036683E+02  0.47000000000E+01 0.  1.
         -5    1    5    5    0  503 -0.16101899529E+02 -0.17069299526E+02  0.59814232439E+02  0.64424099195E+02  0.47000000000E+01 0.  1.
<mgrwt>
<rscale>  0 0.27188055E+03</rscale>
<asrwt>0</asrwt>
<pdfrwt beam="1">  1        2 0.26237294E-01 0.27188055E+03</pdfrwt>
<pdfrwt beam="2">  1       -2 0.16670573E-01 0.27188055E+03</pdfrwt>
<totfact> 0.57949068E+03</totfact>
</mgrwt>
</event>
<event>
 9    1  0.7926126E-001  0.2628832E+03  0.7818608E-02  0.1105423E+00
          1   -1    0    0  501    0  0.00000000000E+00  0.00000000000E+00  0.39624642492E+03  0.39624642492E+03  0.00000000000E+00 0.  1.
         -1   -1    0    0    0  501 -0.00000000000E+00 -0.00000000000E+00 -0.43601393083E+02  0.43601393083E+02  0.00000000000E+00 0.  1.
         35    2    1    2    0    0  0.71054273576E-14  0.00000000000E+00  0.35264503183E+03  0.43984781800E+03  0.26288321461E+03 0.  0.
         25    2    3    3    0    0 -0.12073482670E+02  0.33673019803E+02  0.20322132296E+03  0.24254953142E+03  0.12748226481E+03 0.  0.
         25    2    3    3    0    0  0.12073482670E+02 -0.33673019803E+02  0.14942370888E+03  0.19729828658E+03  0.12377208032E+03 0.  0.
          5    1    4    4  502    0 -0.16239524716E+02 -0.27934604080E+02  0.27917192166E+01  0.32771145300E+02  0.47000000000E+01 0.  1.
         -5    1    4    4    0  502  0.41660420457E+01  0.61607623883E+02  0.20042960374E+03  0.20977838612E+03  0.47000000000E+01 0.  1.
          5    1    5    5  503    0 -0.51803621678E+02 -0.37519724517E+02  0.65701679601E+02  0.91815824612E+02  0.47000000000E+01 0. -1.
         -5    1    5    5    0  503  0.63877104348E+02  0.38467047140E+01  0.83722029276E+02  0.10548246197E+03  0.47000000000E+01 0. -1.
<mgrwt>
<rscale>  0 0.26288321E+03</rscale>
<asrwt>0</asrwt>
<pdfrwt beam="1">  1        1 0.60960986E-01 0.26288321E+03</pdfrwt>
<pdfrwt beam="2">  1       -1 0.67079069E-02 0.26288321E+03</pdfrwt>
<totfact> 0.68591396E+03</totfact>
</mgrwt>
</event>
<event>
 9    1  0.7926126E-001  0.3216143E+03  0.7818608E-02  0.1074909E+00
          1   -1    0    0  501    0  0.00000000000E+00  0.00000000000E+00  0.30856058331E+03  0.30856058331E+03  0.00000000000E+00 0.  1.
         -1   -1    0    0    0  501 -0.00000000000E+00 -0.00000000000E+00 -0.83805050882E+02  0.83805050882E+02  0.00000000000E+00 0.  1.
         35    2    1    2    0    0 -0.14210854715E-13  0.35527136788E-14  0.22475553243E+03  0.39236563420E+03  0.32161427447E+03 0.  0.
         25    2    3    3    0    0 -0.94982086288E+02 -0.10714904846E+02  0.73514657280E+02  0.17395731883E+03  0.12538077221E+03 0.  0.
         25    2    3    3    0    0  0.94982086288E+02  0.10714904846E+02  0.15124087515E+03  0.21840831536E+03  0.12526764946E+03 0.  0.
          5    1    4    4  502    0 -0.73117221197E+02  0.51212015315E+02  0.57195395251E+02  0.10612352136E+03  0.47000000000E+01 0.  1.
         -5    1    4    4    0  502 -0.21864865091E+02 -0.61926920162E+02  0.16319262029E+02  0.67833797471E+02  0.47000000000E+01 0.  1.
          5    1    5    5  503    0  0.31198604414E+02  0.42025887436E+02  0.13570351548E+03  0.14552340790E+03  0.47000000000E+01 0.  1.
         -5    1    5    5    0  503  0.63783481873E+02 -0.31310982590E+02  0.15537359669E+02  0.72884907465E+02  0.47000000000E+01 0.  1.
<mgrwt>
<rscale>  0 0.32161427E+03</rscale>
<asrwt>0</asrwt>
<pdfrwt beam="1">  1        1 0.47470858E-01 0.32161427E+03</pdfrwt>
<pdfrwt beam="2">  1       -1 0.12893085E-01 0.32161427E+03</pdfrwt>
<totfact> 0.34592548E+03</totfact>
</mgrwt>
</event>
<event>
 9    1  0.7926126E-001  0.2753152E+03  0.7818608E-02  0.1098276E+00
         -2   -1    0    0    0  501 -0.00000000000E+00  0.00000000000E+00  0.16312020939E+02  0.16312020939E+02  0.00000000000E+00 0.  1.
          2   -1    0    0  501    0  0.00000000000E+00 -0.00000000000E+00 -0.11616963588E+04  0.11616963588E+04  0.00000000000E+00 0.  1.
         35    2    1    2    0    0 -0.35527136788E-14  0.71054273576E-14 -0.11453843379E+04  0.11780083798E+04  0.27531520358E+03 0.  0.
         25    2    3    3    0    0 -0.26681883373E+02  0.35822190726E+02 -0.48559382357E+03  0.50507592265E+03  0.13154913114E+03 0.  0.
         25    2    3    3    0    0  0.26681883373E+02 -0.35822190726E+02 -0.65979051432E+03  0.67293245712E+03  0.12457695135E+03 0.  0.
          5    1    4    4  502    0 -0.73440944739E+02  0.58365096027E+01 -0.18192120080E+03  0.19632893446E+03  0.47000000000E+01 0.  1.
         -5    1    4    4    0  502  0.46759061366E+02  0.29985681123E+02 -0.30367262277E+03  0.30874698819E+03  0.47000000000E+01 0.  1.
          5    1    5    5  503    0  0.47708435700E+02 -0.72924810635E+02 -0.49580811063E+03  0.50343012962E+03  0.47000000000E+01 0.  1.
         -5    1    5    5    0  503 -0.21026552327E+02  0.37102619910E+02 -0.16398240368E+03  0.16950232749E+03  0.47000000000E+01 0.  1.
<mgrwt>
<rscale>  0 0.27531520E+03</rscale>
<asrwt>0</asrwt>
<pdfrwt beam="1">  1        2 0.17872246E+00 0.27531520E+03</pdfrwt>
<pdfrwt beam="2">  1       -2 0.25095425E-02 0.27531520E+03</pdfrwt>
<totfact> 0.11599359E+04</totfact>
</mgrwt>
</event>
<event>
 9    1  0.7926126E-001  0.2707640E+03  0.7818608E-02  0.1100843E+00
          2   -1    0    0  501    0  0.00000000000E+00  0.00000000000E+00  0.22865290420E+04  0.22865290420E+04  0.00000000000E+00 0. -1.
         -2   -1    0    0    0  501 -0.00000000000E+00 -0.00000000000E+00 -0.80157678196E+01  0.80157678196E+01  0.00000000000E+00 0. -1.
         35    2    1    2    0    0  0.14210854715E-13 -0.71054273576E-14  0.22785132742E+04  0.22945448099E+04  0.27076399992E+03 0.  0.
         25    2    3    3    0    0 -0.44326593984E+02  0.21332899220E+02  0.12780321229E+04  0.12850808541E+04  0.12508698957E+03 0.  0.
         25    2    3    3    0    0  0.44326593984E+02 -0.21332899220E+02  0.10004811513E+04  0.10094639558E+04  0.12504001059E+03 0.  0.
          5    1    4    4  502    0  0.12145429392E+00  0.67819808103E+02  0.76416504750E+03  0.76718306221E+03  0.47000000000E+01 0.  1.
         -5    1    4    4    0  502 -0.44448048278E+02 -0.46486908884E+02  0.51386707537E+03  0.51789779189E+03  0.47000000000E+01 0.  1.
          5    1    5    5  503    0 -0.42284639180E+02 -0.82283153657E+01  0.23393262508E+03  0.23791229258E+03  0.47000000000E+01 0.  1.
         -5    1    5    5    0  503  0.86611233164E+02 -0.13104583854E+02  0.76654852626E+03  0.77155166317E+03  0.47000000000E+01 0.  1.
<mgrwt>
<rscale>  0 0.27076400E+03</rscale>
<asrwt>0</asrwt>
<pdfrwt beam="1">  1        2 0.35177318E+00 0.27076400E+03</pdfrwt>
<pdfrwt beam="2">  1       -2 0.12331969E-02 0.27076400E+03</pdfrwt>
<totfact> 0.82233285E+03</totfact>
</mgrwt>
</event>
<event>
 9    1  0.7926126E-001  0.2756385E+03  0.7818608E-02  0.1098095E+00
          2   -1    0    0  501    0  0.00000000000E+00  0.00000000000E+00  0.38701262720E+03  0.38701262720E+03  0.00000000000E+00 0. -1.
         -2   -1    0    0    0  501 -0.00000000000E+00 -0.00000000000E+00 -0.49078894965E+02  0.49078894965E+02  0.00000000000E+00 0. -1.
         35    2    1    2    0    0  0.00000000000E+00 -0.35527136788E-14  0.33793373224E+03  0.43609152217E+03  0.27563854651E+03 0.  0.
         25    2    3    3    0    0  0.24680296425E+02  0.31716699544E+02  0.24469177305E+03  0.27760432711E+03  0.12479997024E+03 0.  0.
         25    2    3    3    0    0 -0.24680296425E+02 -0.31716699544E+02  0.93241959183E+02  0.15848719505E+03  0.12169248942E+03 0.  0.
          5    1    4    4  502    0  0.61690663400E+02  0.10271415081E+02  0.21828494181E+03  0.22711593017E+03  0.47000000000E+01 0.  1.
         -5    1    4    4    0  502 -0.37010366975E+02  0.21445284463E+02  0.26406831247E+02  0.50488396943E+02  0.47000000000E+01 0.  1.
          5    1    5    5  503    0 -0.43766383226E+02 -0.17096457362E+02 -0.13385325791E+02  0.49081993659E+02  0.47000000000E+01 0. -1.
         -5    1    5    5    0  503  0.19086086801E+02 -0.14620242182E+02  0.10662728497E+03  0.10940520139E+03  0.47000000000E+01 0. -1.
<mgrwt>
<rscale>  0 0.27563855E+03</rscale>
<asrwt>0</asrwt>
<pdfrwt beam="1">  1        2 0.59540402E-01 0.27563855E+03</pdfrwt>
<pdfrwt beam="2">  1       -2 0.75505995E-02 0.27563855E+03</pdfrwt>
<totfact> 0.85136088E+03</totfact>
</mgrwt>
</event>
<event>
 9    1  0.7926126E-001  0.2788808E+03  0.7818608E-02  0.1096302E+00
         -2   -1    0    0    0  501 -0.00000000000E+00  0.00000000000E+00  0.14415697651E+03  0.14415697651E+03  0.00000000000E+00 0. -1.
          2   -1    0    0  501    0  0.00000000000E+00 -0.00000000000E+00 -0.13487817054E+03  0.13487817054E+03  0.00000000000E+00 0. -1.
         35    2    1    2    0    0  0.10658141036E-13  0.71054273576E-14  0.92788059660E+01  0.27903514704E+03  0.27888082947E+03 0.  0.
         25    2    3    3    0    0 -0.18957067150E+02 -0.41936401858E+02  0.45557869570E+02  0.14147261495E+03  0.12578135436E+03 0.  0.
         25    2    3    3    0    0  0.18957067150E+02  0.41936401858E+02 -0.36279063604E+02  0.13756253209E+03  0.12445580575E+03 0.  0.
          5    1    4    4  502    0 -0.70080185560E+02 -0.74530773687E+01  0.34650159247E+02  0.78673402788E+02  0.47000000000E+01 0.  1.
         -5    1    4    4    0  502  0.51123118409E+02 -0.34483324489E+02  0.10907710323E+02  0.62799212163E+02  0.47000000000E+01 0.  1.
          5    1    5    5  503    0  0.46256152874E+02  0.24797450533E+02 -0.71998060439E+02  0.89220826821E+02  0.47000000000E+01 0.  1.
         -5    1    5    5    0  503 -0.27299085723E+02  0.17138951325E+02  0.35718996835E+02  0.48341705273E+02  0.47000000000E+01 0.  1.
<mgrwt>
<rscale>  0 0.27888083E+03</rscale>
<asrwt>0</asrwt>
<pdfrwt beam="1">  1        2 0.20750488E-01 0.27888083E+03</pdfrwt>
<pdfrwt beam="2">  1       -2 0.22177996E-01 0.27888083E+03</pdfrwt>
<totfact> 0.46464691E+03</totfact>
</mgrwt>
</event>
<event>
 9    1  0.7926126E-001  0.2723370E+03  0.7818608E-02  0.1099949E+00
         -2   -1    0    0    0  501 -0.00000000000E+00  0.00000000000E+00  0.23137721553E+03  0.23137721553E+03  0.00000000000E+00 0. -1.
          2   -1    0    0  501    0  0.00000000000E+00 -0.00000000000E+00 -0.80136929555E+02  0.80136929555E+02  0.00000000000E+00 0. -1.
         35    2    1    2    0    0 -0.71054273576E-14  0.00000000000E+00  0.15124028598E+03  0.31151414508E+03  0.27233699434E+03 0.  0.
         25    2    3    3    0    0  0.25464233397E+02  0.33028065507E+02  0.40940567243E+02  0.14007354993E+03  0.12729960350E+03 0.  0.
         25    2    3    3    0    0 -0.25464233397E+02 -0.33028065507E+02  0.11029971873E+03  0.17144059515E+03  0.12444504578E+03 0.  0.
          5    1    4    4  502    0  0.59075895792E+02 -0.25742291299E+02  0.96031068261E+01  0.65321793344E+02  0.47000000000E+01 0.  1.
         -5    1    4    4    0  502 -0.33611662395E+02  0.58770356806E+02  0.31337460417E+02  0.74751756591E+02  0.47000000000E+01 0.  1.
          5    1    5    5  503    0 -0.75646071078E+02 -0.26588107490E+02  0.71046439548E+02  0.10723312036E+03  0.47000000000E+01 0. -1.
         -5    1    5    5    0  503  0.50181837681E+02 -0.64399580169E+01  0.39253279184E+02  0.64207474791E+02  0.47000000000E+01 0. -1.
<mgrwt>
<rscale>  0 0.27233699E+03</rscale>
<asrwt>0</asrwt>
<pdfrwt beam="1">  1        2 0.12328759E-01 0.27233699E+03</pdfrwt>
<pdfrwt beam="2">  1       -2 0.35596494E-01 0.27233699E+03</pdfrwt>
<totfact> 0.36578279E+03</totfact>
</mgrwt>
</event>
<event>
 9    1  0.7926126E-001  0.2788771E+03  0.7818608E-02  0.1096304E+00
         -2   -1    0    0    0  501 -0.00000000000E+00  0.00000000000E+00  0.24660548843E+03  0.24660548843E+03  0.00000000000E+00 0.  1.
          2   -1    0    0  501    0  0.00000000000E+00 -0.00000000000E+00 -0.78842962864E+02  0.78842962864E+02  0.00000000000E+00 0.  1.
         35    2    1    2    0    0  0.17763568394E-14 -0.71054273576E-14  0.16776252556E+03  0.32544845129E+03  0.27887708666E+03 0.  0.
         25    2    3    3    0    0  0.35518498090E+01  0.60274718110E+02  0.75894926391E+02  0.15902761505E+03  0.12603208011E+03 0.  0.
         25    2    3    3    0    0 -0.35518498090E+01 -0.60274718110E+02  0.91867599172E+02  0.16642083624E+03  0.12494231339E+03 0.  0.
          5    1    4    4  502    0 -0.16920002337E+02  0.22095304071E+02  0.10360964522E+03  0.10738499674E+03  0.47000000000E+01 0. -1.
         -5    1    4    4    0  502  0.20471852146E+02  0.38179414039E+02 -0.27714718831E+02  0.51642618316E+02  0.47000000000E+01 0. -1.
          5    1    5    5  503    0  0.11965003055E+01 -0.14801402766E+02 -0.31297696872E+02  0.34959247222E+02  0.47000000000E+01 0.  1.
         -5    1    5    5    0  503 -0.47483501145E+01 -0.45473315344E+02  0.12316529604E+03  0.13146158902E+03  0.47000000000E+01 0.  1.
<mgrwt>
<rscale>  0 0.27887709E+03</rscale>
<asrwt>0</asrwt>
<pdfrwt beam="1">  1        2 0.12129687E-01 0.27887709E+03</pdfrwt>
<pdfrwt beam="2">  1       -2 0.37939306E-01 0.27887709E+03</pdfrwt>
<totfact> 0.33118769E+03</totfact>
</mgrwt>
</event>
<event>
 9    1  0.7926126E-001  0.2775245E+03  0.7818608E-02  0.1097049E+00
          2   -1    0    0  501    0  0.00000000000E+00  0.00000000000E+00  0.34965279844E+02  0.34965279844E+02  0.00000000000E+00 0.  1.
         -2   -1    0    0    0  501 -0.00000000000E+00 -0.00000000000E+00 -0.55068804406E+03  0.55068804406E+03  0.00000000000E+00 0.  1.
         35    2    1    2    0    0  0.00000000000E+00  0.71054273576E-14 -0.51572276422E+03  0.58565332391E+03  0.27752449670E+03 0.  0.
         25    2    3    3    0    0 -0.18853647500E+02 -0.51164088065E+02 -0.30555121350E+03  0.33476082311E+03  0.12541945896E+03 0.  0.
         25    2    3    3    0    0  0.18853647500E+02  0.51164088065E+02 -0.21017155072E+03  0.25089250080E+03  0.12570498118E+03 0.  0.
          5    1    4    4  502    0  0.36824582693E+02  0.23119966009E+02 -0.10291251686E+03  0.11181976053E+03  0.47000000000E+01 0. -1.
         -5    1    4    4    0  502 -0.55678230193E+02 -0.74284054074E+02 -0.20263869664E+03  0.22294106258E+03  0.47000000000E+01 0. -1.
          5    1    5    5  503    0  0.72226209248E+02  0.38384071368E+02 -0.12733051259E+03  0.15141040808E+03  0.47000000000E+01 0.  1.
         -5    1    5    5    0  503 -0.53372561748E+02  0.12780016698E+02 -0.82841038127E+02  0.99482092722E+02  0.47000000000E+01 0.  1.
<mgrwt>
<rscale>  0 0.27752450E+03</rscale>
<asrwt>0</asrwt>
<pdfrwt beam="1">  1        2 0.53792743E-02 0.27752450E+03</pdfrwt>
<pdfrwt beam="2">  1       -2 0.84721230E-01 0.27752450E+03</pdfrwt>
<totfact> 0.17859632E+03</totfact>
</mgrwt>
</event>
<event>
 9    1  0.7926126E-001  0.2764392E+03  0.7818608E-02  0.1097650E+00
         -3   -1    0    0    0  501 -0.00000000000E+00  0.00000000000E+00  0.16251593879E+03  0.16251593879E+03  0.00000000000E+00 0.  1.
          3   -1    0    0  501    0  0.00000000000E+00 -0.00000000000E+00 -0.11755558464E+03  0.11755558464E+03  0.00000000000E+00 0.  1.
         35    2    1    2    0    0  0.00000000000E+00 -0.71054273576E-14  0.44960354142E+02  0.28007152343E+03  0.27643918823E+03 0.  0.
         25    2    3    3    0    0  0.33136066769E+02 -0.49298793071E+02  0.30957590777E+02  0.14085971020E+03  0.12391414613E+03 0.  0.
         25    2    3    3    0    0 -0.33136066769E+02  0.49298793071E+02  0.14002763365E+02  0.13921181323E+03  0.12512186716E+03 0.  0.
          5    1    4    4  502    0 -0.32468604603E+02 -0.49680633120E+02 -0.14037588383E+02  0.61167961219E+02  0.47000000000E+01 0.  1.
         -5    1    4    4    0  502  0.65604671372E+02  0.38184004974E+00  0.44995179160E+02  0.79691748978E+02  0.47000000000E+01 0.  1.
          5    1    5    5  503    0 -0.36655700578E+02  0.86068479083E+02  0.30468704083E+02  0.98497996960E+02  0.47000000000E+01 0. -1.
         -5    1    5    5    0  503  0.35196338094E+01 -0.36769686013E+02 -0.16465940718E+02  0.40713816271E+02  0.47000000000E+01 0. -1.
<mgrwt>
<rscale>  0 0.27643919E+03</rscale>
<asrwt>0</asrwt>
<pdfrwt beam="1">  1        3 0.18085475E-01 0.27643919E+03</pdfrwt>
<pdfrwt beam="2">  1       -3 0.25002452E-01 0.27643919E+03</pdfrwt>
<totfact> 0.10246033E+03</totfact>
</mgrwt>
</event>
<event>
 9    1  0.7926126E-001  0.2748995E+03  0.7818608E-02  0.1098508E+00
          2   -1    0    0  501    0  0.00000000000E+00  0.00000000000E+00  0.18806501552E+04  0.18806501552E+04  0.00000000000E+00 0. -1.
         -2   -1    0    0    0  501 -0.00000000000E+00 -0.00000000000E+00 -0.10045696345E+02  0.10045696345E+02  0.00000000000E+00 0. -1.
         35    2    1    2    0    0 -0.71054273576E-14  0.00000000000E+00  0.18706044588E+04  0.18906958515E+04  0.27489954813E+03 0.  0.
         25    2    3    3    0    0  0.50387429671E+02 -0.19546053259E+02  0.79983933989E+03  0.81134048482E+03  0.12493787019E+03 0.  0.
         25    2    3    3    0    0 -0.50387429671E+02  0.19546053259E+02  0.10707651190E+04  0.10793553667E+04  0.12469613633E+03 0.  0.
          5    1    4    4  502    0  0.66821822821E+01 -0.53198115572E+02  0.15402683126E+03  0.16315957161E+03  0.47000000000E+01 0. -1.
         -5    1    4    4    0  502  0.43705247388E+02  0.33652062313E+02  0.64581250863E+03  0.64818091321E+03  0.47000000000E+01 0. -1.
          5    1    5    5  503    0 -0.20596848185E+02  0.64392278339E+02  0.34576672634E+03  0.35234544798E+03  0.47000000000E+01 0.  1.
         -5    1    5    5    0  503 -0.29790581486E+02 -0.44846225080E+02  0.72499839261E+03  0.72700991873E+03  0.47000000000E+01 0.  1.
<mgrwt>
<rscale>  0 0.27489955E+03</rscale>
<asrwt>0</asrwt>
<pdfrwt beam="1">  1        2 0.28933051E+00 0.27489955E+03</pdfrwt>
<pdfrwt beam="2">  1       -2 0.15454932E-02 0.27489955E+03</pdfrwt>
<totfact> 0.96938964E+03</totfact>
</mgrwt>
</event>
<event>
 9    1  0.7926126E-001  0.2743515E+03  0.7818608E-02  0.1098815E+00
         -1   -1    0    0    0  501 -0.00000000000E+00  0.00000000000E+00  0.12967083254E+03  0.12967083254E+03  0.00000000000E+00 0.  1.
          1   -1    0    0  501    0  0.00000000000E+00 -0.00000000000E+00 -0.14511500078E+03  0.14511500078E+03  0.00000000000E+00 0.  1.
         35    2    1    2    0    0  0.00000000000E+00  0.00000000000E+00 -0.15444168237E+02  0.27478583331E+03  0.27435147504E+03 0.  0.
         25    2    3    3    0    0 -0.31525299037E+02 -0.30416761254E+02  0.62793180169E+01  0.13297920468E+03  0.12539942263E+03 0.  0.
         25    2    3    3    0    0  0.31525299037E+02  0.30416761254E+02 -0.21723486254E+02  0.14180662864E+03  0.13310967743E+03 0.  0.
          5    1    4    4  502    0 -0.58353586380E+02 -0.48054485797E+02 -0.32497198275E+02  0.82416821974E+02  0.47000000000E+01 0.  1.
         -5    1    4    4    0  502  0.26828287343E+02  0.17637724543E+02  0.38776516292E+02  0.50562382702E+02  0.47000000000E+01 0.  1.
          5    1    5    5  503    0  0.12562554431E+02  0.13442188233E+02  0.56398328451E+02  0.59509424887E+02  0.47000000000E+01 0.  1.
         -5    1    5    5    0  503  0.18962744606E+02  0.16974573021E+02 -0.78121814705E+02  0.82297203750E+02  0.47000000000E+01 0.  1.
<mgrwt>
<rscale>  0 0.27435148E+03</rscale>
<asrwt>0</asrwt>
<pdfrwt beam="1">  1        1 0.22325385E-01 0.27435148E+03</pdfrwt>
<pdfrwt beam="2">  1       -1 0.19949359E-01 0.27435148E+03</pdfrwt>
<totfact> 0.44534844E+03</totfact>
</mgrwt>
</event>
<event>
 9    1  0.7926126E-001  0.2738865E+03  0.7818608E-02  0.1099076E+00
          1   -1    0    0  501    0  0.00000000000E+00  0.00000000000E+00  0.19685236720E+04  0.19685236720E+04  0.00000000000E+00 0.  1.
         -1   -1    0    0    0  501 -0.00000000000E+00 -0.00000000000E+00 -0.95266621058E+01  0.95266621058E+01  0.00000000000E+00 0.  1.
         35    2    1    2    0    0 -0.35527136788E-14  0.00000000000E+00  0.19589970099E+04  0.19780503341E+04  0.27388654491E+03 0.  0.
         25    2    3    3    0    0 -0.24247302089E+01 -0.45278956182E+02  0.81539227049E+03  0.82666167226E+03  0.12825327446E+03 0.  0.
         25    2    3    3    0    0  0.24247302089E+01  0.45278956182E+02  0.11436047394E+04  0.11513886618E+04  0.12572981931E+03 0.  0.
          5    1    4    4  502    0  0.59444295067E+02 -0.36712218978E+02  0.33796788970E+03  0.34514604982E+03  0.47000000000E+01 0.  1.
         -5    1    4    4    0  502 -0.61869025276E+02 -0.85667372042E+01  0.47742438080E+03  0.48151562244E+03  0.47000000000E+01 0.  1.
          5    1    5    5  503    0  0.78612871772E+01  0.55493076078E+01  0.10420148224E+04  0.10420698512E+04  0.47000000000E+01 0. -1.
         -5    1    5    5    0  503 -0.54365569683E+01  0.39729648575E+02  0.10158991695E+03  0.10931881062E+03  0.47000000000E+01 0. -1.
<mgrwt>
<rscale>  0 0.27388654E+03</rscale>
<asrwt>0</asrwt>
<pdfrwt beam="1">  1        1 0.30284947E+00 0.27388654E+03</pdfrwt>
<pdfrwt beam="2">  1       -1 0.14656419E-02 0.27388654E+03</pdfrwt>
<totfact> 0.38177311E+03</totfact>
</mgrwt>
</event>
<event>
 9    1  0.7926126E-001  0.2706003E+03  0.7818608E-02  0.1100937E+00
          2   -1    0    0  501    0  0.00000000000E+00  0.00000000000E+00  0.62240188360E+03  0.62240188360E+03  0.00000000000E+00 0.  1.
         -2   -1    0    0    0  501 -0.00000000000E+00 -0.00000000000E+00 -0.29412076549E+02  0.29412076549E+02  0.00000000000E+00 0.  1.
         35    2    1    2    0    0  0.00000000000E+00 -0.71054273576E-14  0.59298980705E+03  0.65181396015E+03  0.27060030927E+03 0.  0.
         25    2    3    3    0    0  0.13052359511E+02  0.44652291316E+02  0.35988312220E+03  0.38359483218E+03  0.12435812166E+03 0.  0.
         25    2    3    3    0    0 -0.13052359511E+02 -0.44652291316E+02  0.23310668485E+03  0.26821912797E+03  0.12425209406E+03 0.  0.
          5    1    4    4  502    0  0.13050615011E+02 -0.33630349955E+01 -0.53099965034E+01  0.15228743199E+02  0.47000000000E+01 0. -1.
         -5    1    4    4    0  502  0.17445002109E-02  0.48015326312E+02  0.36519311870E+03  0.36836608898E+03  0.47000000000E+01 0. -1.
          5    1    5    5  503    0  0.40371087105E+02  0.12878007197E+02  0.35307858045E+02  0.55357046372E+02  0.47000000000E+01 0. -1.
         -5    1    5    5    0  503 -0.53423446616E+02 -0.57530298513E+02  0.19779882681E+03  0.21286208160E+03  0.47000000000E+01 0. -1.
<mgrwt>
<rscale>  0 0.27060031E+03</rscale>
<asrwt>0</asrwt>
<pdfrwt beam="1">  1        2 0.95754126E-01 0.27060031E+03</pdfrwt>
<pdfrwt beam="2">  1       -2 0.45249353E-02 0.27060031E+03</pdfrwt>
<totfact> 0.10956020E+04</totfact>
</mgrwt>
</event>
<event>
 9    1  0.7926126E-001  0.2774917E+03  0.7818608E-02  0.1097067E+00
          4   -1    0    0  501    0  0.00000000000E+00  0.00000000000E+00  0.16642832162E+03  0.16642832162E+03  0.00000000000E+00 0.  1.
         -4   -1    0    0    0  501 -0.00000000000E+00 -0.00000000000E+00 -0.11566789768E+03  0.11566789768E+03  0.00000000000E+00 0.  1.
         35    2    1    2    0    0  0.71054273576E-14  0.00000000000E+00  0.50760423945E+02  0.28209621930E+03  0.27749172295E+03 0.  0.
         25    2    3    3    0    0  0.31784664006E+02  0.17485333852E+02  0.74370916715E+02  0.14934477489E+03  0.12432548720E+03 0.  0.
         25    2    3    3    0    0 -0.31784664006E+02 -0.17485333852E+02 -0.23610492770E+02  0.13275144441E+03  0.12549696753E+03 0.  0.
          5    1    4    4  502    0 -0.17334422942E+02  0.44484954381E+02  0.79511460100E+02  0.92863101780E+02  0.47000000000E+01 0. -1.
         -5    1    4    4    0  502  0.49119086948E+02 -0.26999620529E+02 -0.51405433849E+01  0.56481673113E+02  0.47000000000E+01 0. -1.
          5    1    5    5  503    0  0.33486007327E+02 -0.18397577115E+02 -0.49209028432E+02  0.62477211923E+02  0.47000000000E+01 0.  1.
         -5    1    5    5    0  503 -0.65270671333E+02  0.91224326359E+00  0.25598535661E+02  0.70274232490E+02  0.47000000000E+01 0.  1.
<mgrwt>
<rscale>  0 0.27749172E+03</rscale>
<asrwt>0</asrwt>
<pdfrwt beam="1">  1        4 0.25604357E-01 0.27749172E+03</pdfrwt>
<pdfrwt beam="2">  1       -4 0.17795061E-01 0.27749172E+03</pdfrwt>
<totfact> 0.74912355E+02</totfact>
</mgrwt>
</event>
<event>
 9    1  0.7926126E-001  0.2727864E+03  0.7818608E-02  0.1099695E+00
         -2   -1    0    0    0  501 -0.00000000000E+00  0.00000000000E+00  0.11784551420E+03  0.11784551420E+03  0.00000000000E+00 0.  1.
          2   -1    0    0  501    0  0.00000000000E+00 -0.00000000000E+00 -0.15786009921E+03  0.15786009921E+03  0.00000000000E+00 0.  1.
         35    2    1    2    0    0 -0.35527136788E-14 -0.35527136788E-14 -0.40014585009E+02  0.27570561341E+03  0.27278639675E+03 0.  0.
         25    2    3    3    0    0  0.95373659552E+01  0.35535877182E+00 -0.74714024276E+02  0.14555101876E+03  0.12454648132E+03 0.  0.
         25    2    3    3    0    0 -0.95373659552E+01 -0.35535877182E+00  0.34699439267E+02  0.13015459465E+03  0.12508029339E+03 0.  0.
          5    1    4    4  502    0  0.34242913808E+02 -0.28295203559E+02  0.15764791880E+02  0.47368917588E+02  0.47000000000E+01 0.  1.
         -5    1    4    4    0  502 -0.24705547852E+02  0.28650562331E+02 -0.90478816157E+02  0.98182101167E+02  0.47000000000E+01 0.  1.
          5    1    5    5  503    0 -0.16289446138E+02  0.60585483792E+02  0.25895580947E+02  0.68033947514E+02  0.47000000000E+01 0.  1.
         -5    1    5    5    0  503  0.67520801826E+01 -0.60940842564E+02  0.88038583203E+01  0.62120647136E+02  0.47000000000E+01 0.  1.
<mgrwt>
<rscale>  0 0.27278640E+03</rscale>
<asrwt>0</asrwt>
<pdfrwt beam="1">  1        2 0.24286169E-01 0.27278640E+03</pdfrwt>
<pdfrwt beam="2">  1       -2 0.18130079E-01 0.27278640E+03</pdfrwt>
<totfact> 0.54869671E+03</totfact>
</mgrwt>
</event>
<event>
 9    1  0.7926126E-001  0.2677453E+03  0.7818608E-02  0.1102577E+00
         -2   -1    0    0    0  501 -0.00000000000E+00  0.00000000000E+00  0.29694359489E+03  0.29694359489E+03  0.00000000000E+00 0. -1.
          2   -1    0    0  501    0  0.00000000000E+00 -0.00000000000E+00 -0.60354495804E+02  0.60354495804E+02  0.00000000000E+00 0. -1.
         35    2    1    2    0    0  0.00000000000E+00 -0.17763568394E-14  0.23658909908E+03  0.35729809069E+03  0.26774525917E+03 0.  0.
         25    2    3    3    0    0  0.25227940341E+02  0.14923815595E+02  0.68728282274E+02  0.14587007268E+03  0.12528101242E+03 0.  0.
         25    2    3    3    0    0 -0.25227940341E+02 -0.14923815595E+02  0.16786081681E+03  0.21142801801E+03  0.12516143070E+03 0.  0.
          5    1    4    4  502    0 -0.48867842032E+02  0.19844623828E+02  0.18478477577E+02  0.56084037063E+02  0.47000000000E+01 0.  1.
         -5    1    4    4    0  502  0.74095782374E+02 -0.49208082330E+01  0.50249804697E+02  0.89786035614E+02  0.47000000000E+01 0.  1.
          5    1    5    5  503    0 -0.21826821295E+02 -0.63597084504E+02  0.50438327390E+02  0.84184999585E+02  0.47000000000E+01 0. -1.
         -5    1    5    5    0  503 -0.34011190463E+01  0.48673268909E+02  0.11742248942E+03  0.12724301843E+03  0.47000000000E+01 0. -1.
<mgrwt>
<rscale>  0 0.26774526E+03</rscale>
<asrwt>0</asrwt>
<pdfrwt beam="1">  1        2 0.92853072E-02 0.26774526E+03</pdfrwt>
<pdfrwt beam="2">  1       -2 0.45683629E-01 0.26774526E+03</pdfrwt>
<totfact> 0.32172071E+03</totfact>
</mgrwt>
</event>
<event>
 9    1  0.7926126E-001  0.2770751E+03  0.7818608E-02  0.1097297E+00
          1   -1    0    0  501    0  0.00000000000E+00  0.00000000000E+00  0.13683305991E+04  0.13683305991E+04  0.00000000000E+00 0. -1.
         -1   -1    0    0    0  501 -0.00000000000E+00 -0.00000000000E+00 -0.14026326202E+02  0.14026326202E+02  0.00000000000E+00 0. -1.
         35    2    1    2    0    0  0.00000000000E+00  0.00000000000E+00  0.13543042729E+04  0.13823569253E+04  0.27707508971E+03 0.  0.
         25    2    3    3    0    0  0.42803930810E+02  0.20931422926E+02  0.57294341525E+03  0.58956525384E+03  0.13058610377E+03 0.  0.
         25    2    3    3    0    0 -0.42803930810E+02 -0.20931422926E+02  0.78136085761E+03  0.79279167142E+03  0.12539355453E+03 0.  0.
          5    1    4    4  502    0  0.62080452411E+02  0.70329214941E+01  0.11482177137E+03  0.13080356929E+03  0.47000000000E+01 0. -1.
         -5    1    4    4    0  502 -0.19276521600E+02  0.13898501432E+02  0.45812164388E+03  0.45876168456E+03  0.47000000000E+01 0. -1.
          5    1    5    5  503    0 -0.93362703773E+01 -0.19531015216E+01  0.16490862269E+00  0.10634742355E+02  0.47000000000E+01 0.  1.
         -5    1    5    5    0  503 -0.33467660433E+02 -0.18978321405E+02  0.78119594898E+03  0.78215692907E+03  0.47000000000E+01 0.  1.
<mgrwt>
<rscale>  0 0.27707509E+03</rscale>
<asrwt>0</asrwt>
<pdfrwt beam="1">  1        1 0.21051229E+00 0.27707509E+03</pdfrwt>
<pdfrwt beam="2">  1       -1 0.21578974E-02 0.27707509E+03</pdfrwt>
<totfact> 0.53781413E+03</totfact>
</mgrwt>
</event>
<event>
 9    1  0.7926126E-001  0.2755513E+03  0.7818608E-02  0.1098144E+00
          2   -1    0    0  501    0  0.00000000000E+00  0.00000000000E+00  0.81002182478E+03  0.81002182478E+03  0.00000000000E+00 0.  1.
         -2   -1    0    0    0  501 -0.00000000000E+00 -0.00000000000E+00 -0.23434088596E+02  0.23434088596E+02  0.00000000000E+00 0.  1.
         35    2    1    2    0    0  0.14210854715E-13  0.00000000000E+00  0.78658773619E+03  0.83345591338E+03  0.27555125263E+03 0.  0.
         25    2    3    3    0    0 -0.40017805628E+02 -0.30830202082E+02  0.47909208791E+03  0.49751908437E+03  0.12427423096E+03 0.  0.
         25    2    3    3    0    0  0.40017805628E+02  0.30830202082E+02  0.30749564828E+03  0.33593682901E+03  0.12549124771E+03 0.  0.
          5    1    4    4  502    0 -0.40753359147E+02 -0.25638652967E+02  0.48555637555E+03  0.48796030642E+03  0.47000000000E+01 0.  1.
         -5    1    4    4    0  502  0.73555351868E+00 -0.51915491150E+01 -0.64642876349E+01  0.95587779459E+01  0.47000000000E+01 0.  1.
          5    1    5    5  503    0 -0.50757757743E+01 -0.13081607003E+02 -0.61341172099E+01  0.16019030415E+02  0.47000000000E+01 0.  1.
         -5    1    5    5    0  503  0.45093581403E+02  0.43911809085E+02  0.31362976549E+03  0.31991779860E+03  0.47000000000E+01 0.  1.
<mgrwt>
<rscale>  0 0.27555125E+03</rscale>
<asrwt>0</asrwt>
<pdfrwt beam="1">  1        2 0.12461872E+00 0.27555125E+03</pdfrwt>
<pdfrwt beam="2">  1       -2 0.36052450E-02 0.27555125E+03</pdfrwt>
<totfact> 0.11186714E+04</totfact>
</mgrwt>
</event>
<event>
 9    1  0.7926126E-001  0.2764567E+03  0.7818608E-02  0.1097640E+00
         -1   -1    0    0    0  501 -0.00000000000E+00  0.00000000000E+00  0.61277491046E+02  0.61277491046E+02  0.00000000000E+00 0. -1.
          1   -1    0    0  501    0  0.00000000000E+00 -0.00000000000E+00 -0.31181222577E+03  0.31181222577E+03  0.00000000000E+00 0. -1.
         35    2    1    2    0    0 -0.14210854715E-13  0.00000000000E+00 -0.25053473472E+03  0.37308971681E+03  0.27645665753E+03 0.  0.
         25    2    3    3    0    0 -0.33987420614E+02  0.94343023273E+01 -0.62691298235E+02  0.14475755761E+03  0.12562006524E+03 0.  0.
         25    2    3    3    0    0  0.33987420614E+02 -0.94343023273E+01 -0.18784343649E+03  0.22833215921E+03  0.12492504743E+03 0.  0.
          5    1    4    4  502    0 -0.83628867375E+01  0.24229488104E+02 -0.96282493298E+02  0.99746751747E+02  0.47000000000E+01 0.  1.
         -5    1    4    4    0  502 -0.25624533877E+02 -0.14795185777E+02  0.33591195063E+02  0.45010805862E+02  0.47000000000E+01 0.  1.
          5    1    5    5  503    0  0.73999849289E+02 -0.32256254340E+01 -0.16655874730E+03  0.18234661679E+03  0.47000000000E+01 0. -1.
         -5    1    5    5    0  503 -0.40012428675E+02 -0.62086768932E+01 -0.21284689192E+02  0.45985542415E+02  0.47000000000E+01 0. -1.
<mgrwt>
<rscale>  0 0.27645666E+03</rscale>
<asrwt>0</asrwt>
<pdfrwt beam="1">  1        1 0.47971113E-01 0.27645666E+03</pdfrwt>
<pdfrwt beam="2">  1       -1 0.94273061E-02 0.27645666E+03</pdfrwt>
<totfact> 0.55382190E+03</totfact>
</mgrwt>
</event>
<event>
 9    1  0.7926126E-001  0.3099599E+03  0.7818608E-02  0.1080365E+00
         -1   -1    0    0    0  501 -0.00000000000E+00  0.00000000000E+00  0.43380984612E+02  0.43380984612E+02  0.00000000000E+00 0. -1.
          1   -1    0    0  501    0  0.00000000000E+00 -0.00000000000E+00 -0.55367097485E+03  0.55367097485E+03  0.00000000000E+00 0. -1.
         35    2    1    2    0    0  0.00000000000E+00  0.00000000000E+00 -0.51028999024E+03  0.59705195946E+03  0.30995994606E+03 0.  0.
         25    2    3    3    0    0  0.47766521795E+02  0.73869842659E+02 -0.30950705848E+03  0.34574400785E+03  0.12651444761E+03 0.  0.
         25    2    3    3    0    0 -0.47766521795E+02 -0.73869842659E+02 -0.20078293176E+03  0.25130795162E+03  0.12289632460E+03 0.  0.
          5    1    4    4  502    0 -0.96749722293E+01  0.88649934097E+02 -0.22772807342E+03  0.24461108177E+03  0.47000000000E+01 0.  1.
         -5    1    4    4    0  502  0.57441494025E+02 -0.14780091437E+02 -0.81778985061E+02  0.10113292607E+03  0.47000000000E+01 0.  1.
          5    1    5    5  503    0 -0.18652718566E+02 -0.59703822890E+02 -0.17491069404E+02  0.65119105388E+02  0.47000000000E+01 0.  1.
         -5    1    5    5    0  503 -0.29113803229E+02 -0.14166019770E+02 -0.18329186236E+03  0.18618884623E+03  0.47000000000E+01 0.  1.
<mgrwt>
<rscale>  0 0.30995995E+03</rscale>
<asrwt>0</asrwt>
<pdfrwt beam="1">  1        1 0.85180147E-01 0.30995995E+03</pdfrwt>
<pdfrwt beam="2">  1       -1 0.66739978E-02 0.30995995E+03</pdfrwt>
<totfact> 0.44692718E+03</totfact>
</mgrwt>
</event>
<event>
 9    1  0.7926126E-001  0.2650557E+03  0.7818608E-02  0.1104143E+00
         -2   -1    0    0    0  501 -0.00000000000E+00  0.00000000000E+00  0.25289541825E+02  0.25289541825E+02  0.00000000000E+00 0.  1.
          2   -1    0    0  501    0  0.00000000000E+00 -0.00000000000E+00 -0.69450181270E+03  0.69450181270E+03  0.00000000000E+00 0.  1.
         35    2    1    2    0    0  0.71054273576E-14  0.71054273576E-14 -0.66921227088E+03  0.71979135453E+03  0.26505571218E+03 0.  0.
         25    2    3    3    0    0 -0.64032124497E+01  0.43327204409E+02 -0.33416387945E+03  0.35949056360E+03  0.12509883779E+03 0.  0.
         25    2    3    3    0    0  0.64032124497E+01 -0.43327204409E+02 -0.33504839143E+03  0.36030079093E+03  0.12506393395E+03 0.  0.
          5    1    4    4  502    0  0.57621874867E+02  0.30398867500E+02 -0.19590084546E+03  0.20650327567E+03  0.47000000000E+01 0.  1.
         -5    1    4    4    0  502 -0.64025087317E+02  0.12928336909E+02 -0.13826303399E+03  0.15298728793E+03  0.47000000000E+01 0.  1.
          5    1    5    5  503    0 -0.58474778303E+02 -0.11519326673E+02 -0.13916301918E+03  0.15146098670E+03  0.47000000000E+01 0.  1.
         -5    1    5    5    0  503  0.64877990752E+02 -0.31807877735E+02 -0.19588537224E+03  0.20883980423E+03  0.47000000000E+01 0.  1.
<mgrwt>
<rscale>  0 0.26505571E+03</rscale>
<asrwt>0</asrwt>
<pdfrwt beam="1">  1        2 0.10684644E+00 0.26505571E+03</pdfrwt>
<pdfrwt beam="2">  1       -2 0.38906984E-02 0.26505571E+03</pdfrwt>
<totfact> 0.12063350E+04</totfact>
</mgrwt>
</event>
<event>
 9    1  0.7926126E-001  0.2747585E+03  0.7818608E-02  0.1098587E+00
          2   -1    0    0  501    0  0.00000000000E+00  0.00000000000E+00  0.67198968062E+03  0.67198968062E+03  0.00000000000E+00 0. -1.
         -2   -1    0    0    0  501 -0.00000000000E+00 -0.00000000000E+00 -0.28085331613E+02  0.28085331613E+02  0.00000000000E+00 0. -1.
         35    2    1    2    0    0  0.35527136788E-14  0.00000000000E+00  0.64390434901E+03  0.70007501223E+03  0.27475846135E+03 0.  0.
         25    2    3    3    0    0 -0.23080262438E+02  0.50230586264E+02  0.28159791279E+03  0.31282296732E+03  0.12451913141E+03 0.  0.
         25    2    3    3    0    0  0.23080262438E+02 -0.50230586264E+02  0.36230643621E+03  0.38725204491E+03  0.12506950968E+03 0.  0.
          5    1    4    4  502    0 -0.20538950038E+02  0.54574319518E+02  0.39409176241E+02  0.70536359358E+02  0.47000000000E+01 0.  1.
         -5    1    4    4    0  502 -0.25413124002E+01 -0.43437332542E+01  0.24218873655E+03  0.24228660797E+03  0.47000000000E+01 0.  1.
          5    1    5    5  503    0 -0.18561695420E+01 -0.38526807866E+02  0.19805782293E+02  0.43613292721E+02  0.47000000000E+01 0. -1.
         -5    1    5    5    0  503  0.24936431980E+02 -0.11703778398E+02  0.34250065392E+03  0.34363875219E+03  0.47000000000E+01 0. -1.
<mgrwt>
<rscale>  0 0.27475846E+03</rscale>
<asrwt>0</asrwt>
<pdfrwt beam="1">  1        2 0.10338302E+00 0.27475846E+03</pdfrwt>
<pdfrwt beam="2">  1       -2 0.43208208E-02 0.27475846E+03</pdfrwt>
<totfact> 0.10733590E+04</totfact>
</mgrwt>
</event>
<event>
 9    1  0.7926126E-001  0.2751194E+03  0.7818608E-02  0.1098385E+00
         -2   -1    0    0    0  501 -0.00000000000E+00  0.00000000000E+00  0.34773419944E+02  0.34773419944E+02  0.00000000000E+00 0. -1.
          2   -1    0    0  501    0  0.00000000000E+00 -0.00000000000E+00 -0.54417047797E+03  0.54417047797E+03  0.00000000000E+00 0. -1.
         35    2    1    2    0    0  0.00000000000E+00  0.00000000000E+00 -0.50939705802E+03  0.57894389791E+03  0.27511938174E+03 0.  0.
         25    2    3    3    0    0  0.55660447696E+02 -0.37965527443E+01 -0.22138508996E+03  0.25994950757E+03  0.12429758317E+03 0.  0.
         25    2    3    3    0    0 -0.55660447696E+02  0.37965527443E+01 -0.28801196807E+03  0.31899439034E+03  0.12527580799E+03 0.  0.
          5    1    4    4  502    0  0.23520890950E+02  0.36789802008E+02 -0.13920812517E+02  0.46071692654E+02  0.47000000000E+01 0.  1.
         -5    1    4    4    0  502  0.32139556746E+02 -0.40586354753E+02 -0.20746427744E+03  0.21387781492E+03  0.47000000000E+01 0.  1.
          5    1    5    5  503    0 -0.11255928069E+02  0.59583799349E+02 -0.17519257032E+03  0.18544932396E+03  0.47000000000E+01 0.  1.
         -5    1    5    5    0  503 -0.44404519627E+02 -0.55787246604E+02 -0.11281939775E+03  0.13354506638E+03  0.47000000000E+01 0.  1.
<mgrwt>
<rscale>  0 0.27511938E+03</rscale>
<asrwt>0</asrwt>
<pdfrwt beam="1">  1        2 0.83718529E-01 0.27511938E+03</pdfrwt>
<pdfrwt beam="2">  1       -2 0.53497573E-02 0.27511938E+03</pdfrwt>
<totfact> 0.99262882E+03</totfact>
</mgrwt>
</event>
<event>
 9    1  0.7926126E-001  0.2739869E+03  0.7818608E-02  0.1099019E+00
          2   -1    0    0  501    0  0.00000000000E+00  0.00000000000E+00  0.12465245130E+04  0.12465245130E+04  0.00000000000E+00 0.  1.
         -2   -1    0    0    0  501 -0.00000000000E+00 -0.00000000000E+00 -0.15055619704E+02  0.15055619704E+02  0.00000000000E+00 0.  1.
         35    2    1    2    0    0  0.00000000000E+00 -0.26645352591E-14  0.12314688933E+04  0.12615801327E+04  0.27398685384E+03 0.  0.
         25    2    3    3    0    0 -0.45984972113E+02  0.55967078439E+01  0.74663631106E+03  0.75846367228E+03  0.12512162233E+03 0.  0.
         25    2    3    3    0    0  0.45984972113E+02 -0.55967078439E+01  0.48483258220E+03  0.50311646039E+03  0.12616496801E+03 0.  0.
          5    1    4    4  502    0  0.17810253898E+02 -0.22154479856E+01  0.14632553608E+02  0.23628689739E+02  0.47000000000E+01 0. -1.
         -5    1    4    4    0  502 -0.63795226012E+02  0.78121558295E+01  0.73200375745E+03  0.73483498254E+03  0.47000000000E+01 0. -1.
          5    1    5    5  503    0  0.41570577305E+02 -0.24914939696E+02  0.57705782384E+02  0.75504400123E+02  0.47000000000E+01 0. -1.
         -5    1    5    5    0  503  0.44143948087E+01  0.19318231852E+02  0.42712679981E+03  0.42761206026E+03  0.47000000000E+01 0. -1.
<mgrwt>
<rscale>  0 0.27398685E+03</rscale>
<asrwt>0</asrwt>
<pdfrwt beam="1">  1        2 0.19177292E+00 0.27398685E+03</pdfrwt>
<pdfrwt beam="2">  1       -2 0.23162502E-02 0.27398685E+03</pdfrwt>
<totfact> 0.11686372E+04</totfact>
</mgrwt>
</event>
<event>
 9    1  0.7926126E-001  0.2707501E+03  0.7818608E-02  0.1100851E+00
          2   -1    0    0  501    0  0.00000000000E+00  0.00000000000E+00  0.97793949261E+02  0.97793949261E+02  0.00000000000E+00 0.  1.
         -2   -1    0    0    0  501 -0.00000000000E+00 -0.00000000000E+00 -0.18739811565E+03  0.18739811565E+03  0.00000000000E+00 0.  1.
         35    2    1    2    0    0  0.14210854715E-13  0.00000000000E+00 -0.89604166391E+02  0.28519206491E+03  0.27075008265E+03 0.  0.
         25    2    3    3    0    0 -0.65478243671E+02  0.17110466748E+01 -0.60205409979E+02  0.14226365565E+03  0.11101318955E+03 0.  0.
         25    2    3    3    0    0  0.65478243671E+02 -0.17110466748E+01 -0.29398756412E+02  0.14292840926E+03  0.12358768232E+03 0.  0.
          5    1    4    4  502    0  0.26936083288E+02 -0.17433936479E+02 -0.26700442924E+02  0.42005932633E+02  0.47000000000E+01 0.  1.
         -5    1    4    4    0  502 -0.92414326959E+02  0.19144983154E+02 -0.33504967055E+02  0.10025772302E+03  0.47000000000E+01 0.  1.
          5    1    5    5  503    0  0.81314476940E+02 -0.38007210503E+02  0.53415454183E+01  0.90040070622E+02  0.47000000000E+01 0.  1.
         -5    1    5    5    0  503 -0.15836233269E+02  0.36296163828E+02 -0.34740301830E+02  0.52888338639E+02  0.47000000000E+01 0.  1.
<mgrwt>
<rscale>  0 0.27075008E+03</rscale>
<asrwt>0</asrwt>
<pdfrwt beam="1">  1        2 0.15045223E-01 0.27075008E+03</pdfrwt>
<pdfrwt beam="2">  1       -2 0.28830479E-01 0.27075008E+03</pdfrwt>
<totfact> 0.42419103E+03</totfact>
</mgrwt>
</event>
<event>
 9    1  0.7926126E-001  0.2760963E+03  0.7818608E-02  0.1097840E+00
          2   -1    0    0  501    0  0.00000000000E+00  0.00000000000E+00  0.17298921435E+03  0.17298921435E+03  0.00000000000E+00 0.  1.
         -2   -1    0    0    0  501 -0.00000000000E+00 -0.00000000000E+00 -0.11016460435E+03  0.11016460435E+03  0.00000000000E+00 0.  1.
         35    2    1    2    0    0  0.00000000000E+00  0.00000000000E+00  0.62824610000E+02  0.28315381870E+03  0.27609627564E+03 0.  0.
         25    2    3    3    0    0  0.38601654441E+02 -0.21743351020E+02  0.75146418736E+02  0.15169273052E+03  0.12410011767E+03 0.  0.
         25    2    3    3    0    0 -0.38601654441E+02  0.21743351020E+02 -0.12321808736E+02  0.13146108818E+03  0.12315571320E+03 0.  0.
          5    1    4    4  502    0  0.68503168148E+02  0.23880690480E+02  0.61607676829E+02  0.95292010517E+02  0.47000000000E+01 0.  1.
         -5    1    4    4    0  502 -0.29901513707E+02 -0.45624041500E+02  0.13538741908E+02  0.56400720006E+02  0.47000000000E+01 0.  1.
          5    1    5    5  503    0 -0.63323562409E+02 -0.25306236460E+02 -0.30829853331E+02  0.74985658738E+02  0.47000000000E+01 0.  1.
         -5    1    5    5    0  503  0.24721907968E+02  0.47049587480E+02  0.18508044595E+02  0.56475429439E+02  0.47000000000E+01 0.  1.
<mgrwt>
<rscale>  0 0.27609628E+03</rscale>
<asrwt>0</asrwt>
<pdfrwt beam="1">  1        2 0.26613725E-01 0.27609628E+03</pdfrwt>
<pdfrwt beam="2">  1       -2 0.16948401E-01 0.27609628E+03</pdfrwt>
<totfact> 0.55513920E+03</totfact>
</mgrwt>
</event>
<event>
 9    1  0.7926126E-001  0.2747980E+03  0.7818608E-02  0.1098565E+00
         -1   -1    0    0    0  501 -0.00000000000E+00  0.00000000000E+00  0.13604348755E+02  0.13604348755E+02  0.00000000000E+00 0.  1.
          1   -1    0    0  501    0  0.00000000000E+00 -0.00000000000E+00 -0.13876799302E+04  0.13876799302E+04  0.00000000000E+00 0.  1.
         35    2    1    2    0    0  0.00000000000E+00  0.35527136788E-14 -0.13740755815E+04  0.14012842790E+04  0.27479797475E+03 0.  0.
         25    2    3    3    0    0  0.54482280848E+02 -0.77917724085E+01 -0.66071426966E+03  0.67506418726E+03  0.12704046659E+03 0.  0.
         25    2    3    3    0    0 -0.54482280848E+02  0.77917724085E+01 -0.71336131182E+03  0.72622009172E+03  0.12442760860E+03 0.  0.
          5    1    4    4  502    0  0.64363986652E+02  0.44436507384E+02 -0.28482116546E+03  0.29540228885E+03  0.47000000000E+01 0.  1.
         -5    1    4    4    0  502 -0.98817058046E+01 -0.52228279792E+02 -0.37589310420E+03  0.37966189841E+03  0.47000000000E+01 0.  1.
          5    1    5    5  503    0 -0.38489279834E+02 -0.16555308954E+02 -0.68146775807E+03  0.68277075085E+03  0.47000000000E+01 0.  1.
         -5    1    5    5    0  503 -0.15993001014E+02  0.24347081362E+02 -0.31893553744E+02  0.43449340878E+02  0.47000000000E+01 0.  1.
<mgrwt>
<rscale>  0 0.27479797E+03</rscale>
<asrwt>0</asrwt>
<pdfrwt beam="1">  1        1 0.21348913E+00 0.27479797E+03</pdfrwt>
<pdfrwt beam="2">  1       -1 0.20929776E-02 0.27479797E+03</pdfrwt>
<totfact> 0.54572398E+03</totfact>
</mgrwt>
</event>
<event>
 9    1  0.7926126E-001  0.2932005E+03  0.7818608E-02  0.1088690E+00
         -1   -1    0    0    0  501 -0.00000000000E+00  0.00000000000E+00  0.18191064666E+02  0.18191064666E+02  0.00000000000E+00 0.  1.
          1   -1    0    0  501    0  0.00000000000E+00 -0.00000000000E+00 -0.11814393549E+04  0.11814393549E+04  0.00000000000E+00 0.  1.
         35    2    1    2    0    0 -0.71054273576E-14  0.00000000000E+00 -0.11632482902E+04  0.11996304196E+04  0.29320054368E+03 0.  0.
         25    2    3    3    0    0 -0.32534037378E+02  0.68686957402E+02 -0.66562451710E+03  0.68105267934E+03  0.12247608977E+03 0.  0.
         25    2    3    3    0    0  0.32534037378E+02 -0.68686957402E+02 -0.49762377312E+03  0.51857774022E+03  0.12456761764E+03 0.  0.
          5    1    4    4  502    0 -0.58590633050E+02  0.50437684066E+02 -0.62228293808E+03  0.62708449772E+03  0.47000000000E+01 0. -1.
         -5    1    4    4    0  502  0.26056595672E+02  0.18249273336E+02 -0.43341579015E+02  0.53968181615E+02  0.47000000000E+01 0. -1.
          5    1    5    5  503    0  0.45769436543E+02 -0.80932187009E+02 -0.20259562528E+03  0.22296174021E+03  0.47000000000E+01 0. -1.
         -5    1    5    5    0  503 -0.13235399165E+02  0.12245229607E+02 -0.29502814784E+03  0.29561600000E+03  0.47000000000E+01 0. -1.
<mgrwt>
<rscale>  0 0.29320054E+03</rscale>
<asrwt>0</asrwt>
<pdfrwt beam="1">  1        1 0.18175999E+00 0.29320054E+03</pdfrwt>
<pdfrwt beam="2">  1       -1 0.27986240E-02 0.29320054E+03</pdfrwt>
<totfact> 0.49392265E+03</totfact>
</mgrwt>
</event>
<event>
 9    1  0.7926126E-001  0.2734143E+03  0.7818608E-02  0.1099341E+00
         -2   -1    0    0    0  501 -0.00000000000E+00  0.00000000000E+00  0.38557328679E+02  0.38557328679E+02  0.00000000000E+00 0. -1.
          2   -1    0    0  501    0  0.00000000000E+00 -0.00000000000E+00 -0.48470284787E+03  0.48470284787E+03  0.00000000000E+00 0. -1.
         35    2    1    2    0    0  0.00000000000E+00  0.35527136788E-14 -0.44614551919E+03  0.52326017655E+03  0.27341431577E+03 0.  0.
         25    2    3    3    0    0 -0.13423049762E+01  0.17540133564E+02 -0.32453966274E+03  0.34816439321E+03  0.12483186269E+03 0.  0.
         25    2    3    3    0    0  0.13423049762E+01 -0.17540133564E+02 -0.12160585645E+03  0.17509578334E+03  0.12474410187E+03 0.  0.
          5    1    4    4  502    0  0.35238658825E+02  0.44266525039E+02 -0.27528249933E+03  0.28107620453E+03  0.47000000000E+01 0. -1.
         -5    1    4    4    0  502 -0.36580963801E+02 -0.26726391475E+02 -0.49257163409E+02  0.67088188684E+02  0.47000000000E+01 0. -1.
          5    1    5    5  503    0  0.56006921450E+02 -0.17155596799E+02 -0.10028014435E+03  0.11622945884E+03  0.47000000000E+01 0. -1.
         -5    1    5    5    0  503 -0.54664616473E+02 -0.38453676524E+00 -0.21325712099E+02  0.58866324492E+02  0.47000000000E+01 0. -1.
<mgrwt>
<rscale>  0 0.27341432E+03</rscale>
<asrwt>0</asrwt>
<pdfrwt beam="1">  1        2 0.74569668E-01 0.27341432E+03</pdfrwt>
<pdfrwt beam="2">  1       -2 0.59318968E-02 0.27341432E+03</pdfrwt>
<totfact> 0.96516824E+03</totfact>
</mgrwt>
</event>
<event>
 9    1  0.7926126E-001  0.2760346E+03  0.7818608E-02  0.1097875E+00
         -1   -1    0    0    0  501 -0.00000000000E+00  0.00000000000E+00  0.21651948522E+02  0.21651948522E+02  0.00000000000E+00 0.  1.
          1   -1    0    0  501    0  0.00000000000E+00 -0.00000000000E+00 -0.87977209690E+03  0.87977209690E+03  0.00000000000E+00 0.  1.
         35    2    1    2    0    0  0.00000000000E+00  0.35527136788E-14 -0.85812014838E+03  0.90142404542E+03  0.27603463662E+03 0.  0.
         25    2    3    3    0    0 -0.54430180105E+02  0.93246805480E+01 -0.49276993246E+03  0.51133962524E+03  0.12488559498E+03 0.  0.
         25    2    3    3    0    0  0.54430180105E+02 -0.93246805480E+01 -0.36535021592E+03  0.39008442018E+03  0.12504191466E+03 0.  0.
          5    1    4    4  502    0 -0.46248967787E+02 -0.51802944888E+02 -0.19076871187E+03  0.20306970121E+03  0.47000000000E+01 0. -1.
         -5    1    4    4    0  502 -0.81812123182E+01  0.61127625436E+02 -0.30200122059E+03  0.30826992403E+03  0.47000000000E+01 0. -1.
          5    1    5    5  503    0  0.38288257596E+02  0.86868256029E+01 -0.36320655986E+03  0.36535263340E+03  0.47000000000E+01 0. -1.
         -5    1    5    5    0  503  0.16141922509E+02 -0.18011506151E+02 -0.21436560631E+01  0.24731786782E+02  0.47000000000E+01 0. -1.
<mgrwt>
<rscale>  0 0.27603464E+03</rscale>
<asrwt>0</asrwt>
<pdfrwt beam="1">  1        1 0.13534958E+00 0.27603464E+03</pdfrwt>
<pdfrwt beam="2">  1       -1 0.33310684E-02 0.27603464E+03</pdfrwt>
<totfact> 0.63928693E+03</totfact>
</mgrwt>
</event>
<event>
 9    1  0.7926126E-001  0.2734151E+03  0.7818608E-02  0.1099341E+00
         -1   -1    0    0    0  501 -0.00000000000E+00  0.00000000000E+00  0.12209828655E+02  0.12209828655E+02  0.00000000000E+00 0.  1.
          1   -1    0    0  501    0  0.00000000000E+00 -0.00000000000E+00 -0.15306485238E+04  0.15306485238E+04  0.00000000000E+00 0.  1.
         35    2    1    2    0    0  0.00000000000E+00  0.00000000000E+00 -0.15184386952E+04  0.15428583525E+04  0.27341511449E+03 0.  0.
         25    2    3    3    0    0  0.45208485000E+02 -0.36623756795E+02 -0.75202362457E+03  0.76417912056E+03  0.12265842697E+03 0.  0.
         25    2    3    3    0    0 -0.45208485000E+02  0.36623756795E+02 -0.76641507061E+03  0.77867923194E+03  0.12475647922E+03 0.  0.
          5    1    4    4  502    0 -0.38532192284E+02 -0.31658217570E+02 -0.22570839329E+03  0.23119978672E+03  0.47000000000E+01 0.  1.
         -5    1    4    4    0  502  0.83740677284E+02 -0.49655392258E+01 -0.52631523128E+03  0.53297933383E+03  0.47000000000E+01 0.  1.
          5    1    5    5  503    0 -0.18003705511E+01  0.26561716837E+02 -0.68672207141E+03  0.68725399925E+03  0.47000000000E+01 0. -1.
         -5    1    5    5    0  503 -0.43408114449E+02  0.10062039958E+02 -0.79692999209E+02  0.91425232683E+02  0.47000000000E+01 0. -1.
<mgrwt>
<rscale>  0 0.27341511E+03</rscale>
<asrwt>0</asrwt>
<pdfrwt beam="1">  1        1 0.23548437E+00 0.27341511E+03</pdfrwt>
<pdfrwt beam="2">  1       -1 0.18784354E-02 0.27341511E+03</pdfrwt>
<totfact> 0.51327171E+03</totfact>
</mgrwt>
</event>
<event>
 9    1  0.7926126E-001  0.2751558E+03  0.7818608E-02  0.1098365E+00
         -2   -1    0    0    0  501 -0.00000000000E+00  0.00000000000E+00  0.51293397259E+02  0.51293397259E+02  0.00000000000E+00 0. -1.
          2   -1    0    0  501    0  0.00000000000E+00 -0.00000000000E+00 -0.36900816371E+03  0.36900816371E+03  0.00000000000E+00 0. -1.
         35    2    1    2    0    0  0.00000000000E+00 -0.71054273576E-14 -0.31771476645E+03  0.42030156096E+03  0.27515582736E+03 0.  0.
         25    2    3    3    0    0 -0.15151809335E+02 -0.19937281127E+02 -0.23769962257E+03  0.26961198989E+03  0.12474951710E+03 0.  0.
         25    2    3    3    0    0  0.15151809335E+02  0.19937281127E+02 -0.80015143875E+02  0.15068957107E+03  0.12521122584E+03 0.  0.
          5    1    4    4  502    0 -0.27559112894E+02  0.34499663650E+02 -0.27861686163E+02  0.52422276289E+02  0.47000000000E+01 0.  1.
         -5    1    4    4    0  502  0.12407303559E+02 -0.54436944777E+02 -0.20983793641E+03  0.21718971360E+03  0.47000000000E+01 0.  1.
          5    1    5    5  503    0 -0.97683975315E+01 -0.36664956448E+01  0.31712410266E+02  0.33713969590E+02  0.47000000000E+01 0.  1.
         -5    1    5    5    0  503  0.24920206866E+02  0.23603776772E+02 -0.11172755414E+03  0.11697560148E+03  0.47000000000E+01 0.  1.
<mgrwt>
<rscale>  0 0.27515583E+03</rscale>
<asrwt>0</asrwt>
<pdfrwt beam="1">  1        2 0.56770484E-01 0.27515583E+03</pdfrwt>
<pdfrwt beam="2">  1       -2 0.78912923E-02 0.27515583E+03</pdfrwt>
<totfact> 0.83677784E+03</totfact>
</mgrwt>
</event>
<event>
 9    1  0.7926126E-001  0.2722080E+03  0.7818608E-02  0.1100023E+00
         -2   -1    0    0    0  501 -0.00000000000E+00  0.00000000000E+00  0.99988948619E+02  0.99988948619E+02  0.00000000000E+00 0.  1.
          2   -1    0    0  501    0  0.00000000000E+00 -0.00000000000E+00 -0.18526344053E+03  0.18526344053E+03  0.00000000000E+00 0.  1.
         35    2    1    2    0    0 -0.71054273576E-14  0.00000000000E+00 -0.85274491913E+02  0.28525238915E+03  0.27220798399E+03 0.  0.
         25    2    3    3    0    0 -0.25604776500E+02 -0.37231821414E+02 -0.53881801674E+02  0.14387971955E+03  0.12552414923E+03 0.  0.
         25    2    3    3    0    0  0.25604776500E+02  0.37231821414E+02 -0.31392690239E+02  0.14137266961E+03  0.13022640902E+03 0.  0.
          5    1    4    4  502    0  0.73252076236E+01 -0.22517564079E+02 -0.89663818203E+02  0.92856823409E+02  0.47000000000E+01 0. -1.
         -5    1    4    4    0  502 -0.32929984124E+02 -0.14714257335E+02  0.35782016529E+02  0.51022896137E+02  0.47000000000E+01 0. -1.
          5    1    5    5  503    0 -0.43816354568E+02 -0.19378496807E+02 -0.10541222297E+02  0.49280893190E+02  0.47000000000E+01 0. -1.
         -5    1    5    5    0  503  0.69421131068E+02  0.56610318221E+02 -0.20851467942E+02  0.92091776415E+02  0.47000000000E+01 0. -1.
<mgrwt>
<rscale>  0 0.27220798E+03</rscale>
<asrwt>0</asrwt>
<pdfrwt beam="1">  1        2 0.28502068E-01 0.27220798E+03</pdfrwt>
<pdfrwt beam="2">  1       -2 0.15382915E-01 0.27220798E+03</pdfrwt>
<totfact> 0.60444285E+03</totfact>
</mgrwt>
</event>
<event>
 9    1  0.7926126E-001  0.2733079E+03  0.7818608E-02  0.1099401E+00
         -1   -1    0    0    0  501 -0.00000000000E+00  0.00000000000E+00  0.13225626270E+02  0.13225626270E+02  0.00000000000E+00 0. -1.
          1   -1    0    0  501    0  0.00000000000E+00 -0.00000000000E+00 -0.14119786083E+04  0.14119786083E+04  0.00000000000E+00 0. -1.
         35    2    1    2    0    0 -0.71054273576E-14 -0.88817841970E-15 -0.13987529820E+04  0.14252042346E+04  0.27330789506E+03 0.  0.
         25    2    3    3    0    0 -0.49158658737E+02  0.38866858543E+01 -0.57097358648E+03  0.58659457920E+03  0.12510269315E+03 0.  0.
         25    2    3    3    0    0  0.49158658737E+02 -0.38866858543E+01 -0.82777939554E+03  0.83860965536E+03  0.12496297983E+03 0.  0.
          5    1    4    4  502    0 -0.85289913899E+02 -0.12070137496E+02 -0.28211566479E+03  0.29501084040E+03  0.47000000000E+01 0. -1.
         -5    1    4    4    0  502  0.36131255163E+02  0.15956823351E+02 -0.28885792169E+03  0.29158373880E+03  0.47000000000E+01 0. -1.
          5    1    5    5  503    0  0.86935426767E+02 -0.26027575114E+01 -0.69621907695E+03  0.70164637523E+03  0.47000000000E+01 0. -1.
         -5    1    5    5    0  503 -0.37776768031E+02 -0.12839283429E+01 -0.13156031860E+03  0.13696328013E+03  0.47000000000E+01 0. -1.
<mgrwt>
<rscale>  0 0.27330790E+03</rscale>
<asrwt>0</asrwt>
<pdfrwt beam="1">  1        1 0.21722739E+00 0.27330790E+03</pdfrwt>
<pdfrwt beam="2">  1       -1 0.20347126E-02 0.27330790E+03</pdfrwt>
<totfact> 0.54772975E+03</totfact>
</mgrwt>
</event>
<event>
 9    1  0.7926126E-001  0.2760777E+03  0.7818608E-02  0.1097851E+00
         -1   -1    0    0    0  501 -0.00000000000E+00  0.00000000000E+00  0.22696392699E+02  0.22696392699E+02  0.00000000000E+00 0. -1.
          1   -1    0    0  501    0  0.00000000000E+00 -0.00000000000E+00 -0.83954866136E+03  0.83954866136E+03  0.00000000000E+00 0. -1.
         35    2    1    2    0    0  0.00000000000E+00  0.00000000000E+00 -0.81685226866E+03  0.86224505406E+03  0.27607771448E+03 0.  0.
         25    2    3    3    0    0 -0.29253735260E+02 -0.10912068805E+02 -0.56019767350E+03  0.57490014336E+03  0.12535504448E+03 0.  0.
         25    2    3    3    0    0  0.29253735260E+02  0.10912068805E+02 -0.25665459517E+03  0.28734491070E+03  0.12538206495E+03 0.  0.
          5    1    4    4  502    0 -0.64222172594E+02  0.30453310987E+02 -0.38231189295E+03  0.38889119956E+03  0.47000000000E+01 0. -1.
         -5    1    4    4    0  502  0.34968437334E+02 -0.41365379792E+02 -0.17788578054E+03  0.18600894380E+03  0.47000000000E+01 0. -1.
          5    1    5    5  503    0 -0.39141157170E+02 -0.29244313970E+02 -0.11258044153E+03  0.12281573962E+03  0.47000000000E+01 0.  1.
         -5    1    5    5    0  503  0.68394892431E+02  0.40156382775E+02 -0.14407415364E+03  0.16452917108E+03  0.47000000000E+01 0.  1.
<mgrwt>
<rscale>  0 0.27607771E+03</rscale>
<asrwt>0</asrwt>
<pdfrwt beam="1">  1        1 0.12916133E+00 0.27607771E+03</pdfrwt>
<pdfrwt beam="2">  1       -1 0.34917528E-02 0.27607771E+03</pdfrwt>
<totfact> 0.64231918E+03</totfact>
</mgrwt>
</event>
<event>
 9    1  0.7926126E-001  0.2650990E+03  0.7818608E-02  0.1104118E+00
          2   -1    0    0  501    0  0.00000000000E+00  0.00000000000E+00  0.49368543608E+03  0.49368543608E+03  0.00000000000E+00 0.  1.
         -2   -1    0    0    0  501 -0.00000000000E+00 -0.00000000000E+00 -0.35588191944E+02  0.35588191944E+02  0.00000000000E+00 0.  1.
         35    2    1    2    0    0 -0.74940054162E-15  0.00000000000E+00  0.45809724414E+03  0.52927362803E+03  0.26509901591E+03 0.  0.
         25    2    3    3    0    0 -0.15295532699E+00  0.43914953265E+02  0.26922392684E+03  0.30026766989E+03  0.12550141147E+03 0.  0.
         25    2    3    3    0    0  0.15295532699E+00 -0.43914953265E+02  0.18887331730E+03  0.22900595814E+03  0.12182796214E+03 0.  0.
          5    1    4    4  502    0 -0.10743104610E+02  0.19323719788E+02 -0.62533447803E+01  0.23452393568E+02  0.47000000000E+01 0. -1.
         -5    1    4    4    0  502  0.10590149283E+02  0.24591233477E+02  0.27547727162E+03  0.27681527632E+03  0.47000000000E+01 0. -1.
          5    1    5    5  503    0  0.29550193554E+00 -0.32451199386E+02 -0.63411808829E+01  0.33398626289E+02  0.47000000000E+01 0. -1.
         -5    1    5    5    0  503 -0.14254660855E+00 -0.11463753879E+02  0.19521449818E+03  0.19560733185E+03  0.47000000000E+01 0. -1.
<mgrwt>
<rscale>  0 0.26509902E+03</rscale>
<asrwt>0</asrwt>
<pdfrwt beam="1">  1        2 0.75951601E-01 0.26509902E+03</pdfrwt>
<pdfrwt beam="2">  1       -2 0.54751068E-02 0.26509902E+03</pdfrwt>
<totfact> 0.10675645E+04</totfact>
</mgrwt>
</event>
<event>
 9    1  0.7926126E-001  0.2723715E+03  0.7818608E-02  0.1099930E+00
         -2   -1    0    0    0  501 -0.00000000000E+00  0.00000000000E+00  0.26752927196E+02  0.26752927196E+02  0.00000000000E+00 0.  1.
          2   -1    0    0  501    0  0.00000000000E+00 -0.00000000000E+00 -0.69325349163E+03  0.69325349163E+03  0.00000000000E+00 0.  1.
         35    2    1    2    0    0  0.00000000000E+00 -0.71054273576E-14 -0.66650056443E+03  0.72000641882E+03  0.27237151238E+03 0.  0.
         25    2    3    3    0    0  0.31296678900E+02 -0.38868596238E+02 -0.40060634700E+03  0.42190037479E+03  0.12257337027E+03 0.  0.
         25    2    3    3    0    0 -0.31296678900E+02  0.38868596238E+02 -0.26589421743E+03  0.29810604404E+03  0.12520874070E+03 0.  0.
          5    1    4    4  502    0  0.21999582848E+02 -0.80160626497E+02 -0.32097126336E+03  0.33159365131E+03  0.47000000000E+01 0.  1.
         -5    1    4    4    0  502  0.92970960526E+01  0.41292030259E+02 -0.79635083642E+02  0.90306723474E+02  0.47000000000E+01 0.  1.
          5    1    5    5  503    0 -0.73079712106E+02  0.41539560408E+01 -0.10390074178E+03  0.12718236440E+03  0.47000000000E+01 0.  1.
         -5    1    5    5    0  503  0.41783033206E+02  0.34714640197E+02 -0.16199347565E+03  0.17092367964E+03  0.47000000000E+01 0.  1.
<mgrwt>
<rscale>  0 0.27237151E+03</rscale>
<asrwt>0</asrwt>
<pdfrwt beam="1">  1        2 0.10665438E+00 0.27237151E+03</pdfrwt>
<pdfrwt beam="2">  1       -2 0.41158350E-02 0.27237151E+03</pdfrwt>
<totfact> 0.11120858E+04</totfact>
</mgrwt>
</event>
<event>
 9    1  0.7926126E-001  0.2734458E+03  0.7818608E-02  0.1099324E+00
         -1   -1    0    0    0  501 -0.00000000000E+00  0.00000000000E+00  0.28506682404E+02  0.28506682404E+02  0.00000000000E+00 0. -1.
          1   -1    0    0  501    0  0.00000000000E+00 -0.00000000000E+00 -0.65574609531E+03  0.65574609531E+03  0.00000000000E+00 0. -1.
         35    2    1    2    0    0  0.71054273576E-14  0.35527136788E-14 -0.62723941290E+03  0.68425277771E+03  0.27344575825E+03 0.  0.
         25    2    3    3    0    0 -0.53646867855E+02 -0.20761471137E+01 -0.27400965744E+03  0.30562438129E+03  0.12426855294E+03 0.  0.
         25    2    3    3    0    0  0.53646867855E+02  0.20761471137E+01 -0.35322975547E+03  0.37862839643E+03  0.12532320462E+03 0.  0.
          5    1    4    4  502    0 -0.22505151607E+02  0.57031542970E+02 -0.17987641282E+03  0.19009653503E+03  0.47000000000E+01 0. -1.
         -5    1    4    4    0  502 -0.31141716248E+02 -0.59107690084E+02 -0.94133244618E+02  0.11552784625E+03  0.47000000000E+01 0. -1.
          5    1    5    5  503    0  0.62503014483E+02 -0.21484668466E+02 -0.78576312753E+02  0.10278397115E+03  0.47000000000E+01 0. -1.
         -5    1    5    5    0  503 -0.88561466279E+01  0.23560815580E+02 -0.27465344271E+03  0.27584442528E+03  0.47000000000E+01 0. -1.
<mgrwt>
<rscale>  0 0.27344576E+03</rscale>
<asrwt>0</asrwt>
<pdfrwt beam="1">  1        1 0.10088402E+00 0.27344576E+03</pdfrwt>
<pdfrwt beam="2">  1       -1 0.43856432E-02 0.27344576E+03</pdfrwt>
<totfact> 0.66210673E+03</totfact>
</mgrwt>
</event>
<event>
 9    1  0.7926126E-001  0.2744565E+03  0.7818608E-02  0.1098756E+00
          1   -1    0    0  501    0  0.00000000000E+00  0.00000000000E+00  0.31691309434E+03  0.31691309434E+03  0.00000000000E+00 0. -1.
         -1   -1    0    0    0  501 -0.00000000000E+00 -0.00000000000E+00 -0.59421929406E+02  0.59421929406E+02  0.00000000000E+00 0. -1.
         35    2    1    2    0    0 -0.71054273576E-14  0.00000000000E+00  0.25749116494E+03  0.37633502375E+03  0.27445646299E+03 0.  0.
         25    2    3    3    0    0 -0.30847597170E+02 -0.16678015483E+02  0.67484091281E+02  0.14634989907E+03  0.12503783400E+03 0.  0.
         25    2    3    3    0    0  0.30847597170E+02  0.16678015483E+02  0.19000707366E+03  0.22998512468E+03  0.12474269150E+03 0.  0.
          5    1    4    4  502    0 -0.48814724596E+02 -0.31772676121E+02 -0.15112410559E+02  0.60356070433E+02  0.47000000000E+01 0.  1.
         -5    1    4    4    0  502  0.17967127426E+02  0.15094660638E+02  0.82596501840E+02  0.85993828638E+02  0.47000000000E+01 0.  1.
          5    1    5    5  503    0  0.62020649427E+02  0.43707314389E+02  0.16459020107E+03  0.18129786147E+03  0.47000000000E+01 0. -1.
         -5    1    5    5    0  503 -0.31173052258E+02 -0.27029298906E+02  0.25416872591E+02  0.48687263208E+02  0.47000000000E+01 0. -1.
<mgrwt>
<rscale>  0 0.27445646E+03</rscale>
<asrwt>0</asrwt>
<pdfrwt beam="1">  1        1 0.48755860E-01 0.27445646E+03</pdfrwt>
<pdfrwt beam="2">  1       -1 0.91418355E-02 0.27445646E+03</pdfrwt>
<totfact> 0.56877891E+03</totfact>
</mgrwt>
</event>
<event>
 9    1  0.7926126E-001  0.2846231E+03  0.7818608E-02  0.1093190E+00
          2   -1    0    0  501    0  0.00000000000E+00  0.00000000000E+00  0.87918158540E+03  0.87918158540E+03  0.00000000000E+00 0.  1.
         -2   -1    0    0    0  501 -0.00000000000E+00 -0.00000000000E+00 -0.23035718672E+02  0.23035718672E+02  0.00000000000E+00 0.  1.
         35    2    1    2    0    0 -0.10658141036E-13  0.71054273576E-14  0.85614586672E+03  0.90221730407E+03  0.28462311686E+03 0.  0.
         25    2    3    3    0    0  0.28625737457E+02 -0.62673285208E+02  0.45814274239E+03  0.47950749344E+03  0.12363369417E+03 0.  0.
         25    2    3    3    0    0 -0.28625737457E+02  0.62673285208E+02  0.39800312433E+03  0.42270981063E+03  0.12461831126E+03 0.  0.
          5    1    4    4  502    0 -0.19528900270E+02  0.27059728191E+02  0.63249347004E+02  0.71667124485E+02  0.47000000000E+01 0. -1.
         -5    1    4    4    0  502  0.48154637727E+02 -0.89733013399E+02  0.39489339539E+03  0.40784036895E+03  0.47000000000E+01 0. -1.
          5    1    5    5  503    0  0.22863474218E+02 -0.12036483076E+02  0.17617326479E+02  0.31623971453E+02  0.47000000000E+01 0.  1.
         -5    1    5    5    0  503 -0.51489211676E+02  0.74709768284E+02  0.38038579785E+03  0.39108583918E+03  0.47000000000E+01 0.  1.
<mgrwt>
<rscale>  0 0.28462312E+03</rscale>
<asrwt>0</asrwt>
<pdfrwt beam="1">  1        2 0.13525868E+00 0.28462312E+03</pdfrwt>
<pdfrwt beam="2">  1       -2 0.35439574E-02 0.28462312E+03</pdfrwt>
<totfact> 0.10327049E+04</totfact>
</mgrwt>
</event>
<event>
 9    1  0.7926126E-001  0.2713353E+03  0.7818608E-02  0.1100518E+00
          2   -1    0    0  501    0  0.00000000000E+00  0.00000000000E+00  0.37327513487E+03  0.37327513487E+03  0.00000000000E+00 0. -1.
         -2   -1    0    0    0  501 -0.00000000000E+00 -0.00000000000E+00 -0.49308716302E+02  0.49308716302E+02  0.00000000000E+00 0. -1.
         35    2    1    2    0    0  0.17763568394E-14  0.14210854715E-13  0.32396641856E+03  0.42258385117E+03  0.27133534770E+03 0.  0.
         25    2    3    3    0    0 -0.16867605569E+01 -0.41319679578E+02  0.11473075931E+03  0.17533395500E+03  0.12597097904E+03 0.  0.
         25    2    3    3    0    0  0.16867605569E+01  0.41319679578E+02  0.20923565925E+03  0.24724989617E+03  0.12507113565E+03 0.  0.
          5    1    4    4  502    0 -0.30286185677E+02 -0.36133487825E+02 -0.89308518253E+01  0.48215475727E+02  0.47000000000E+01 0. -1.
         -5    1    4    4    0  502  0.28599425120E+02 -0.51861917531E+01  0.12366161114E+03  0.12711847927E+03  0.47000000000E+01 0. -1.
          5    1    5    5  503    0  0.13436875087E+02  0.41206934797E+00 -0.13984715840E+02  0.19959501255E+02  0.47000000000E+01 0. -1.
         -5    1    5    5    0  503 -0.11750114530E+02  0.40907610230E+02  0.22322037509E+03  0.22729039492E+03  0.47000000000E+01 0. -1.
<mgrwt>
<rscale>  0 0.27133535E+03</rscale>
<asrwt>0</asrwt>
<pdfrwt beam="1">  1        2 0.57426942E-01 0.27133535E+03</pdfrwt>
<pdfrwt beam="2">  1       -2 0.75859566E-02 0.27133535E+03</pdfrwt>
<totfact> 0.87837345E+03</totfact>
</mgrwt>
</event>
<event>
 9    1  0.7926126E-001  0.2753086E+03  0.7818608E-02  0.1098279E+00
          2   -1    0    0  501    0  0.00000000000E+00  0.00000000000E+00  0.20256913564E+03  0.20256913564E+03  0.00000000000E+00 0. -1.
         -2   -1    0    0    0  501 -0.00000000000E+00 -0.00000000000E+00 -0.93541899384E+02  0.93541899384E+02  0.00000000000E+00 0. -1.
         35    2    1    2    0    0 -0.71054273576E-14  0.35527136788E-14  0.10902723625E+03  0.29611103502E+03  0.27530856655E+03 0.  0.
         25    2    3    3    0    0  0.34539688777E+02  0.86493009621E+01  0.43742168755E+01  0.12900289128E+03  0.12391453376E+03 0.  0.
         25    2    3    3    0    0 -0.34539688777E+02 -0.86493009621E+01  0.10465301938E+03  0.16710814374E+03  0.12531989759E+03 0.  0.
          5    1    4    4  502    0  0.62982077106E+02  0.37686082796E+02 -0.26040149659E+02  0.78020268311E+02  0.47000000000E+01 0.  1.
         -5    1    4    4    0  502 -0.28442388329E+02 -0.29036781834E+02  0.30414366534E+02  0.50982622969E+02  0.47000000000E+01 0.  1.
          5    1    5    5  503    0  0.18465667765E+02  0.40472380088E+02  0.78043117714E+02  0.89954503270E+02  0.47000000000E+01 0.  1.
         -5    1    5    5    0  503 -0.53005356542E+02 -0.49121681050E+02  0.26609901663E+02  0.77153640470E+02  0.47000000000E+01 0.  1.
<mgrwt>
<rscale>  0 0.27530857E+03</rscale>
<asrwt>0</asrwt>
<pdfrwt beam="1">  1        2 0.31164482E-01 0.27530857E+03</pdfrwt>
<pdfrwt beam="2">  1       -2 0.14391061E-01 0.27530857E+03</pdfrwt>
<totfact> 0.61196479E+03</totfact>
</mgrwt>
</event>
<event>
 9    1  0.7926126E-001  0.2690280E+03  0.7818608E-02  0.1101837E+00
          2   -1    0    0  501    0  0.00000000000E+00  0.00000000000E+00  0.42152232077E+03  0.42152232077E+03  0.00000000000E+00 0.  1.
         -2   -1    0    0    0  501 -0.00000000000E+00 -0.00000000000E+00 -0.42925392232E+02  0.42925392232E+02  0.00000000000E+00 0.  1.
         35    2    1    2    0    0  0.00000000000E+00 -0.88817841970E-15  0.37859692854E+03  0.46444771300E+03  0.26902796103E+03 0.  0.
         25    2    3    3    0    0  0.48357399756E+02  0.53898900783E+01  0.18117787936E+03  0.22559312909E+03  0.12529703466E+03 0.  0.
         25    2    3    3    0    0 -0.48357399756E+02 -0.53898900783E+01  0.19741904918E+03  0.23885458392E+03  0.12533851066E+03 0.  0.
          5    1    4    4  502    0  0.34024516326E+02 -0.25898680100E+02  0.18565279835E+03  0.19057140624E+03  0.47000000000E+01 0.  1.
         -5    1    4    4    0  502  0.14332883431E+02  0.31288570178E+02 -0.44749189835E+01  0.35021722846E+02  0.47000000000E+01 0.  1.
          5    1    5    5  503    0  0.37914169820E+02  0.33134198771E+01  0.10620256135E+03  0.11291384796E+03  0.47000000000E+01 0. -1.
         -5    1    5    5    0  503 -0.86271569576E+02 -0.87033099555E+01  0.91216487825E+02  0.12594073595E+03  0.47000000000E+01 0. -1.
<mgrwt>
<rscale>  0 0.26902796E+03</rscale>
<asrwt>0</asrwt>
<pdfrwt beam="1">  1        2 0.64849585E-01 0.26902796E+03</pdfrwt>
<pdfrwt beam="2">  1       -2 0.66039068E-02 0.26902796E+03</pdfrwt>
<totfact> 0.95384967E+03</totfact>
</mgrwt>
</event>
<event>
 9    1  0.7926126E-001  0.2718427E+03  0.7818608E-02  0.1100230E+00
          2   -1    0    0  501    0  0.00000000000E+00  0.00000000000E+00  0.78596821705E+03  0.78596821705E+03  0.00000000000E+00 0.  1.
         -2   -1    0    0    0  501 -0.00000000000E+00 -0.00000000000E+00 -0.23505543142E+02  0.23505543142E+02  0.00000000000E+00 0.  1.
         35    2    1    2    0    0  0.00000000000E+00  0.00000000000E+00  0.76246267391E+03  0.80947376019E+03  0.27184267387E+03 0.  0.
         25    2    3    3    0    0  0.36968263300E+02 -0.13284780369E+02  0.27393959235E+03  0.30374850560E+03  0.12520829253E+03 0.  0.
         25    2    3    3    0    0 -0.36968263300E+02  0.13284780369E+02  0.48852308156E+03  0.50572525459E+03  0.12474010596E+03 0.  0.
          5    1    4    4  502    0 -0.27674168778E+02 -0.46325161099E+02  0.79991766947E+02  0.96605656914E+02  0.47000000000E+01 0.  1.
         -5    1    4    4    0  502  0.64642432079E+02  0.33040380731E+02  0.19394782541E+03  0.20714284869E+03  0.47000000000E+01 0.  1.
          5    1    5    5  503    0 -0.41913476283E+02  0.49792378462E+02  0.13175106749E+03  0.14702535235E+03  0.47000000000E+01 0.  1.
         -5    1    5    5    0  503  0.49452129828E+01 -0.36507598093E+02  0.35677201406E+03  0.35869990224E+03  0.47000000000E+01 0.  1.
<mgrwt>
<rscale>  0 0.27184267E+03</rscale>
<asrwt>0</asrwt>
<pdfrwt beam="1">  1        2 0.12091817E+00 0.27184267E+03</pdfrwt>
<pdfrwt beam="2">  1       -2 0.36162380E-02 0.27184267E+03</pdfrwt>
<totfact> 0.11565348E+04</totfact>
</mgrwt>
</event>
<event>
 9    1  0.7926126E-001  0.2823744E+03  0.7818608E-02  0.1094399E+00
         -1   -1    0    0    0  501 -0.00000000000E+00  0.00000000000E+00  0.58916449225E+03  0.58916449225E+03  0.00000000000E+00 0.  1.
          1   -1    0    0  501    0  0.00000000000E+00 -0.00000000000E+00 -0.33834056694E+02  0.33834056694E+02  0.00000000000E+00 0.  1.
         35    2    1    2    0    0  0.00000000000E+00  0.00000000000E+00  0.55533043555E+03  0.62299854894E+03  0.28237439567E+03 0.  0.
         25    2    3    3    0    0  0.16555681129E+02 -0.56941723781E+01  0.41636269082E+03  0.43562494852E+03  0.12690426034E+03 0.  0.
         25    2    3    3    0    0 -0.16555681129E+02  0.56941723781E+01  0.13896774473E+03  0.18737360042E+03  0.12446010558E+03 0.  0.
          5    1    4    4  502    0  0.50202775293E+02 -0.43642927282E+02  0.31733228974E+03  0.32426362094E+03  0.47000000000E+01 0.  1.
         -5    1    4    4    0  502 -0.33647094164E+02  0.37948754904E+02  0.99030401079E+02  0.11136132759E+03  0.47000000000E+01 0.  1.
          5    1    5    5  503    0 -0.32043666250E+02  0.21911184073E+02 -0.69094729406E+01  0.39708026273E+02  0.47000000000E+01 0. -1.
         -5    1    5    5    0  503  0.15487985121E+02 -0.16217011695E+02  0.14587721767E+03  0.14766557414E+03  0.47000000000E+01 0. -1.
<mgrwt>
<rscale>  0 0.28237440E+03</rscale>
<asrwt>0</asrwt>
<pdfrwt beam="1">  1        1 0.52052399E-02 0.28237440E+03</pdfrwt>
<pdfrwt beam="2">  1       -1 0.90640684E-01 0.28237440E+03</pdfrwt>
<totfact> 0.19682619E+03</totfact>
</mgrwt>
</event>
<event>
 9    1  0.7926126E-001  0.2655123E+03  0.7818608E-02  0.1103876E+00
         -2   -1    0    0    0  501 -0.00000000000E+00  0.00000000000E+00  0.31215312307E+02  0.31215312307E+02  0.00000000000E+00 0. -1.
          2   -1    0    0  501    0  0.00000000000E+00 -0.00000000000E+00 -0.56460094200E+03  0.56460094200E+03  0.00000000000E+00 0. -1.
         35    2    1    2    0    0  0.00000000000E+00  0.00000000000E+00 -0.53338562969E+03  0.59581625430E+03  0.26551229526E+03 0.  0.
         25    2    3    3    0    0  0.37046670800E+02 -0.14701490234E+02 -0.21447368423E+03  0.25092641834E+03  0.12400208288E+03 0.  0.
         25    2    3    3    0    0 -0.37046670800E+02  0.14701490234E+02 -0.31891194546E+03  0.34488983597E+03  0.12512226166E+03 0.  0.
          5    1    4    4  502    0  0.73324127996E+02 -0.31588287421E+02 -0.91527156603E+02  0.12154652625E+03  0.47000000000E+01 0.  1.
         -5    1    4    4    0  502 -0.36277457196E+02  0.16886797188E+02 -0.12294652763E+03  0.12937989208E+03  0.47000000000E+01 0.  1.
          5    1    5    5  503    0  0.29736227935E+02  0.22524391473E+02 -0.23137087868E+03  0.23440598321E+03  0.47000000000E+01 0. -1.
         -5    1    5    5    0  503 -0.66782898735E+02 -0.78229012394E+01 -0.87541066779E+02  0.11048385276E+03  0.47000000000E+01 0. -1.
<mgrwt>
<rscale>  0 0.26551230E+03</rscale>
<asrwt>0</asrwt>
<pdfrwt beam="1">  1        2 0.86861679E-01 0.26551230E+03</pdfrwt>
<pdfrwt beam="2">  1       -2 0.48023560E-02 0.26551230E+03</pdfrwt>
<totfact> 0.11199379E+04</totfact>
</mgrwt>
</event>
<event>
 9    1  0.7926126E-001  0.2766131E+03  0.7818608E-02  0.1097553E+00
          2   -1    0    0  501    0  0.00000000000E+00  0.00000000000E+00  0.76981173855E+02  0.76981173855E+02  0.00000000000E+00 0. -1.
         -2   -1    0    0    0  501 -0.00000000000E+00 -0.00000000000E+00 -0.24848548253E+03  0.24848548253E+03  0.00000000000E+00 0. -1.
         35    2    1    2    0    0 -0.71054273576E-14  0.35527136788E-14 -0.17150430867E+03  0.32546665638E+03  0.27661311705E+03 0.  0.
         25    2    3    3    0    0 -0.31272636354E+02  0.24521664265E+02 -0.13713756424E+03  0.19020467869E+03  0.12566550229E+03 0.  0.
         25    2    3    3    0    0  0.31272636354E+02 -0.24521664265E+02 -0.34366744428E+02  0.13526197769E+03  0.12464124391E+03 0.  0.
          5    1    4    4  502    0 -0.62040380745E+02  0.10324603045E+02 -0.17040764383E+02  0.65330574173E+02  0.47000000000E+01 0.  1.
         -5    1    4    4    0  502  0.30767744391E+02  0.14197061220E+02 -0.12009679986E+03  0.12487410452E+03  0.47000000000E+01 0.  1.
          5    1    5    5  503    0  0.49113539230E+02 -0.64881306510E+02 -0.39523790420E+02  0.90586663916E+02  0.47000000000E+01 0.  1.
         -5    1    5    5    0  503 -0.17840902875E+02  0.40359642246E+02  0.51570459929E+01  0.44675313776E+02  0.47000000000E+01 0.  1.
<mgrwt>
<rscale>  0 0.27661312E+03</rscale>
<asrwt>0</asrwt>
<pdfrwt beam="1">  1        2 0.11843258E-01 0.27661312E+03</pdfrwt>
<pdfrwt beam="2">  1       -2 0.38228535E-01 0.27661312E+03</pdfrwt>
<totfact> 0.33601737E+03</totfact>
</mgrwt>
</event>
<event>
 9    1  0.7926126E-001  0.2871472E+03  0.7818608E-02  0.1091848E+00
          1   -1    0    0  501    0  0.00000000000E+00  0.00000000000E+00  0.52763137702E+03  0.52763137702E+03  0.00000000000E+00 0.  1.
         -1   -1    0    0    0  501 -0.00000000000E+00 -0.00000000000E+00 -0.39067769012E+02  0.39067769012E+02  0.00000000000E+00 0.  1.
         35    2    1    2    0    0  0.71054273576E-14  0.00000000000E+00  0.48856360801E+03  0.56669914603E+03  0.28714721493E+03 0.  0.
         25    2    3    3    0    0 -0.54142710337E+02  0.41042590471E+02  0.22287543890E+03  0.26478411348E+03  0.12578250343E+03 0.  0.
         25    2    3    3    0    0  0.54142710337E+02 -0.41042590471E+02  0.26568816911E+03  0.30191503256E+03  0.12627967519E+03 0.  0.
          5    1    4    4  502    0 -0.45116282397E+02 -0.40477172482E+02  0.96457231864E+02  0.11401740222E+03  0.47000000000E+01 0. -1.
         -5    1    4    4    0  502 -0.90264279405E+01  0.81519762953E+02  0.12641820704E+03  0.15076671126E+03  0.47000000000E+01 0. -1.
          5    1    5    5  503    0  0.12673837588E+02 -0.36030134699E+02  0.61206159675E+01  0.38965994219E+02  0.47000000000E+01 0.  1.
         -5    1    5    5    0  503  0.41468872749E+02 -0.50124557716E+01  0.25956755314E+03  0.26294903834E+03  0.47000000000E+01 0.  1.
<mgrwt>
<rscale>  0 0.28714721E+03</rscale>
<asrwt>0</asrwt>
<pdfrwt beam="1">  1        1 0.81174053E-01 0.28714721E+03</pdfrwt>
<pdfrwt beam="2">  1       -1 0.60104264E-02 0.28714721E+03</pdfrwt>
<totfact> 0.55814915E+03</totfact>
</mgrwt>
</event>
<event>
 9    1  0.7926126E-001  0.2827818E+03  0.7818608E-02  0.1094179E+00
          2   -1    0    0  501    0  0.00000000000E+00  0.00000000000E+00  0.46945078346E+03  0.46945078346E+03  0.00000000000E+00 0. -1.
         -2   -1    0    0    0  501 -0.00000000000E+00 -0.00000000000E+00 -0.42584634422E+02  0.42584634422E+02  0.00000000000E+00 0. -1.
         35    2    1    2    0    0  0.00000000000E+00  0.00000000000E+00  0.42686614903E+03  0.51203541788E+03  0.28278182397E+03 0.  0.
         25    2    3    3    0    0  0.59062153592E+01  0.54809409596E+02  0.28750029205E+03  0.31729077585E+03  0.12238490001E+03 0.  0.
         25    2    3    3    0    0 -0.59062153592E+01 -0.54809409596E+02  0.13936585699E+03  0.19474464203E+03  0.12435304076E+03 0.  0.
          5    1    4    4  502    0  0.47809772932E+02  0.22780675709E+02  0.24107887687E+03  0.24687212975E+03  0.47000000000E+01 0. -1.
         -5    1    4    4    0  502 -0.41903557573E+02  0.32028733888E+02  0.46421415181E+02  0.70418646104E+02  0.47000000000E+01 0. -1.
          5    1    5    5  503    0 -0.40219913251E+02 -0.63869083517E+02  0.32990259860E+02  0.82506657289E+02  0.47000000000E+01 0. -1.
         -5    1    5    5    0  503  0.34313697892E+02  0.90596739211E+01  0.10637559713E+03  0.11223798474E+03  0.47000000000E+01 0. -1.
<mgrwt>
<rscale>  0 0.28278182E+03</rscale>
<asrwt>0</asrwt>
<pdfrwt beam="1">  1        2 0.72223194E-01 0.28278182E+03</pdfrwt>
<pdfrwt beam="2">  1       -2 0.65514826E-02 0.28278182E+03</pdfrwt>
<totfact> 0.85942636E+03</totfact>
</mgrwt>
</event>
<event>
 9    1  0.7926126E-001  0.2773222E+03  0.7818608E-02  0.1097161E+00
          1   -1    0    0  501    0  0.00000000000E+00  0.00000000000E+00  0.32559461070E+02  0.32559461070E+02  0.00000000000E+00 0. -1.
         -1   -1    0    0    0  501 -0.00000000000E+00 -0.00000000000E+00 -0.59051645176E+03  0.59051645176E+03  0.00000000000E+00 0. -1.
         35    2    1    2    0    0  0.00000000000E+00  0.00000000000E+00 -0.55795699069E+03  0.62307591283E+03  0.27732217670E+03 0.  0.
         25    2    3    3    0    0  0.58980025591E+02 -0.16507819622E+02 -0.28622658054E+03  0.31804158149E+03  0.12439308913E+03 0.  0.
         25    2    3    3    0    0 -0.58980025591E+02  0.16507819622E+02 -0.27173041015E+03  0.30503433133E+03  0.12432769589E+03 0.  0.
          5    1    4    4  502    0  0.21362772670E+02 -0.29097425931E+01 -0.27547371645E+03  0.27635609838E+03  0.47000000000E+01 0. -1.
         -5    1    4    4    0  502  0.37617252921E+02 -0.13598077029E+02 -0.10752864091E+02  0.41685483113E+02  0.47000000000E+01 0. -1.
          5    1    5    5  503    0 -0.60643192634E+02 -0.19385929094E+02 -0.52005641467E+02  0.82341288574E+02  0.47000000000E+01 0. -1.
         -5    1    5    5    0  503  0.16631670432E+01  0.35893748715E+02 -0.21972476868E+03  0.22269304276E+03  0.47000000000E+01 0. -1.
<mgrwt>
<rscale>  0 0.27732218E+03</rscale>
<asrwt>0</asrwt>
<pdfrwt beam="1">  1        1 0.50091480E-02 0.27732218E+03</pdfrwt>
<pdfrwt beam="2">  1       -1 0.90848682E-01 0.27732218E+03</pdfrwt>
<totfact> 0.20648659E+03</totfact>
</mgrwt>
</event>
<event>
 9    1  0.7926126E-001  0.2720051E+03  0.7818608E-02  0.1100138E+00
         -1   -1    0    0    0  501 -0.00000000000E+00  0.00000000000E+00  0.35037304303E+02  0.35037304303E+02  0.00000000000E+00 0. -1.
          1   -1    0    0  501    0  0.00000000000E+00 -0.00000000000E+00 -0.52791414921E+03  0.52791414921E+03  0.00000000000E+00 0. -1.
         35    2    1    2    0    0  0.00000000000E+00  0.71054273576E-14 -0.49287684491E+03  0.56295145351E+03  0.27200506386E+03 0.  0.
         25    2    3    3    0    0 -0.35894102815E+02  0.29357762093E+02 -0.19135667109E+03  0.23348987641E+03  0.12549853388E+03 0.  0.
         25    2    3    3    0    0  0.35894102815E+02 -0.29357762093E+02 -0.30152017382E+03  0.32946157710E+03  0.12441965581E+03 0.  0.
          5    1    4    4  502    0 -0.10859880540E+02  0.59185136803E+02 -0.29936962660E+02  0.67373059579E+02  0.47000000000E+01 0. -1.
         -5    1    4    4    0  502 -0.25034222275E+02 -0.29827374710E+02 -0.16141970843E+03  0.16611681683E+03  0.47000000000E+01 0. -1.
          5    1    5    5  503    0  0.17305514663E+02 -0.76437770298E+02 -0.21776954713E+03  0.23149055968E+03  0.47000000000E+01 0.  1.
         -5    1    5    5    0  503  0.18588588152E+02  0.47080008205E+02 -0.83750626693E+02  0.97971017416E+02  0.47000000000E+01 0.  1.
<mgrwt>
<rscale>  0 0.27200506E+03</rscale>
<asrwt>0</asrwt>
<pdfrwt beam="1">  1        1 0.81217559E-01 0.27200506E+03</pdfrwt>
<pdfrwt beam="2">  1       -1 0.53903547E-02 0.27200506E+03</pdfrwt>
<totfact> 0.65611448E+03</totfact>
</mgrwt>
</event>
<event>
 9    1  0.7926126E-001  0.2703013E+03  0.7818608E-02  0.1101107E+00
          2   -1    0    0  501    0  0.00000000000E+00  0.00000000000E+00  0.95289391927E+03  0.95289391927E+03  0.00000000000E+00 0.  1.
         -2   -1    0    0    0  501 -0.00000000000E+00 -0.00000000000E+00 -0.19168658958E+02  0.19168658958E+02  0.00000000000E+00 0.  1.
         35    2    1    2    0    0 -0.17763568394E-14 -0.35527136788E-14  0.93372526031E+03  0.97206257823E+03  0.27030130271E+03 0.  0.
         25    2    3    3    0    0 -0.22715039755E+01  0.14434269547E+02  0.63588074097E+03  0.64837151897E+03  0.12580859274E+03 0.  0.
         25    2    3    3    0    0  0.22715039755E+01 -0.14434269547E+02  0.29784451934E+03  0.32369105926E+03  0.12590089862E+03 0.  0.
          5    1    4    4  502    0 -0.37759444370E+02  0.29198477347E+02  0.56954336674E+03  0.57155932615E+03  0.47000000000E+01 0.  1.
         -5    1    4    4    0  502  0.35487940394E+02 -0.14764207800E+02  0.66337374235E+02  0.76812192820E+02  0.47000000000E+01 0.  1.
          5    1    5    5  503    0  0.62295030304E+01  0.46404417004E+02  0.21854521975E+03  0.22355375125E+03  0.47000000000E+01 0. -1.
         -5    1    5    5    0  503 -0.39579990548E+01 -0.60838686551E+02  0.79299299594E+02  0.10013730800E+03  0.47000000000E+01 0. -1.
<mgrwt>
<rscale>  0 0.27030130E+03</rscale>
<asrwt>0</asrwt>
<pdfrwt beam="1">  1        2 0.14659903E+00 0.27030130E+03</pdfrwt>
<pdfrwt beam="2">  1       -2 0.29490252E-02 0.27030130E+03</pdfrwt>
<totfact> 0.12166520E+04</totfact>
</mgrwt>
</event>
<event>
 9    1  0.7926126E-001  0.2803752E+03  0.7818608E-02  0.1095484E+00
          2   -1    0    0  501    0  0.00000000000E+00  0.00000000000E+00  0.71182125559E+03  0.71182125559E+03  0.00000000000E+00 0.  1.
         -2   -1    0    0    0  501 -0.00000000000E+00 -0.00000000000E+00 -0.27608853347E+02  0.27608853347E+02  0.00000000000E+00 0.  1.
         35    2    1    2    0    0  0.71054273576E-14  0.35527136788E-14  0.68421240225E+03  0.73943010894E+03  0.28037523896E+03 0.  0.
         25    2    3    3    0    0 -0.62562238576E+02 -0.80789472697E+01  0.31416578295E+03  0.34399010020E+03  0.12509894794E+03 0.  0.
         25    2    3    3    0    0  0.62562238576E+02  0.80789472697E+01  0.37004661930E+03  0.39544000874E+03  0.12433421482E+03 0.  0.
          5    1    4    4  502    0 -0.82306483858E+02 -0.39844939722E+02  0.15155996195E+03  0.17707198698E+03  0.47000000000E+01 0. -1.
         -5    1    4    4    0  502  0.19744245282E+02  0.31765992452E+02  0.16260582100E+03  0.16691811322E+03  0.47000000000E+01 0. -1.
          5    1    5    5  503    0  0.45112426020E+02  0.50883468604E+02  0.31988140937E+03  0.32706339511E+03  0.47000000000E+01 0.  1.
         -5    1    5    5    0  503  0.17449812556E+02 -0.42804521334E+02  0.50165209926E+02  0.68376613632E+02  0.47000000000E+01 0.  1.
<mgrwt>
<rscale>  0 0.28037524E+03</rscale>
<asrwt>0</asrwt>
<pdfrwt beam="1">  1        2 0.10951095E+00 0.28037524E+03</pdfrwt>
<pdfrwt beam="2">  1       -2 0.42475164E-02 0.28037524E+03</pdfrwt>
<totfact> 0.10280888E+04</totfact>
</mgrwt>
</event>
<event>
 9    1  0.7926126E-001  0.2767466E+03  0.7818608E-02  0.1097479E+00
         -2   -1    0    0    0  501 -0.00000000000E+00  0.00000000000E+00  0.46774890828E+01  0.46774890828E+01  0.00000000000E+00 0.  1.
          2   -1    0    0  501    0  0.00000000000E+00 -0.00000000000E+00 -0.40934709781E+04  0.40934709781E+04  0.00000000000E+00 0.  1.
         35    2    1    2    0    0  0.00000000000E+00 -0.71054273576E-14 -0.40887934890E+04  0.40981484672E+04  0.27674656862E+03 0.  0.
         25    2    3    3    0    0  0.25451242029E+02 -0.10860697203E+02 -0.16622378329E+04  0.16682275234E+04  0.13850175595E+03 0.  0.
         25    2    3    3    0    0 -0.25451242029E+02  0.10860697203E+02 -0.24265556561E+04  0.24299209437E+04  0.12481073713E+03 0.  0.
          5    1    4    4  502    0 -0.10386823601E+02  0.32812669672E+02 -0.13755401619E+04  0.13759787005E+04  0.47000000000E+01 0.  1.
         -5    1    4    4    0  502  0.35838065630E+02 -0.43673366875E+02 -0.28669767100E+03  0.29224882289E+03  0.47000000000E+01 0.  1.
          5    1    5    5  503    0 -0.95052639331E+01 -0.54071560404E+02 -0.74757224509E+03  0.74960018365E+03  0.47000000000E+01 0. -1.
         -5    1    5    5    0  503 -0.15945978096E+02  0.64932257608E+02 -0.16789834110E+04  0.16803207601E+04  0.47000000000E+01 0. -1.
<mgrwt>
<rscale>  0 0.27674657E+03</rscale>
<asrwt>0</asrwt>
<pdfrwt beam="1">  1        2 0.62976550E+00 0.27674657E+03</pdfrwt>
<pdfrwt beam="2">  1       -2 0.71961286E-03 0.27674657E+03</pdfrwt>
<totfact> 0.12987613E+03</totfact>
</mgrwt>
</event>
<event>
 9    1  0.7926126E-001  0.2707564E+03  0.7818608E-02  0.1100847E+00
          2   -1    0    0  501    0  0.00000000000E+00  0.00000000000E+00  0.38891370889E+03  0.38891370889E+03  0.00000000000E+00 0. -1.
         -2   -1    0    0    0  501 -0.00000000000E+00 -0.00000000000E+00 -0.47124216263E+02  0.47124216263E+02  0.00000000000E+00 0. -1.
         35    2    1    2    0    0  0.35527136788E-14  0.71054273576E-14  0.34178949263E+03  0.43603792515E+03  0.27075637555E+03 0.  0.
         25    2    3    3    0    0  0.13674852796E+02  0.45206252816E+02  0.13474281403E+03  0.18973300016E+03  0.12494950389E+03 0.  0.
         25    2    3    3    0    0 -0.13674852796E+02 -0.45206252816E+02  0.20704667859E+03  0.24630492499E+03  0.12476851392E+03 0.  0.
          5    1    4    4  502    0 -0.21059715319E+02 -0.15835495553E+02 -0.10167828207E+02  0.28631263667E+02  0.47000000000E+01 0.  1.
         -5    1    4    4    0  502  0.34734568115E+02  0.61041748369E+02  0.14491064224E+03  0.16110173649E+03  0.47000000000E+01 0.  1.
          5    1    5    5  503    0  0.19695802331E+02  0.34844078585E+02  0.10401074528E+03  0.11154532521E+03  0.47000000000E+01 0. -1.
         -5    1    5    5    0  503 -0.33370655127E+02 -0.80050331401E+02  0.10303593332E+03  0.13475959979E+03  0.47000000000E+01 0. -1.
<mgrwt>
<rscale>  0 0.27075638E+03</rscale>
<asrwt>0</asrwt>
<pdfrwt beam="1">  1        2 0.59832876E-01 0.27075638E+03</pdfrwt>
<pdfrwt beam="2">  1       -2 0.72498797E-02 0.27075638E+03</pdfrwt>
<totfact> 0.90142496E+03</totfact>
</mgrwt>
</event>
<event>
 9    1  0.7926126E-001  0.2791877E+03  0.7818608E-02  0.1096133E+00
         -2   -1    0    0    0  501 -0.00000000000E+00  0.00000000000E+00  0.11882138996E+02  0.11882138996E+02  0.00000000000E+00 0.  1.
          2   -1    0    0  501    0  0.00000000000E+00 -0.00000000000E+00 -0.16399777370E+04  0.16399777370E+04  0.00000000000E+00 0.  1.
         35    2    1    2    0    0 -0.71054273576E-14  0.17763568394E-14 -0.16280955980E+04  0.16518598759E+04  0.27918770331E+03 0.  0.
         25    2    3    3    0    0  0.23430212756E+02 -0.39034112103E+01 -0.44921933582E+03  0.46618464808E+03  0.12233520731E+03 0.  0.
         25    2    3    3    0    0 -0.23430212756E+02  0.39034112103E+01 -0.11788762621E+04  0.11856752279E+04  0.12454835625E+03 0.  0.
          5    1    4    4  502    0  0.61179633397E+02  0.33824507858E+02 -0.22521154425E+03  0.23585880212E+03  0.47000000000E+01 0.  1.
         -5    1    4    4    0  502 -0.37749420641E+02 -0.37727919069E+02 -0.22400779156E+03  0.23032584596E+03  0.47000000000E+01 0.  1.
          5    1    5    5  503    0  0.41968901111E+02  0.13001699137E+02 -0.21309976752E+03  0.21763279569E+03  0.47000000000E+01 0. -1.
         -5    1    5    5    0  503 -0.65399113867E+02 -0.90982879265E+01 -0.96577649462E+03  0.96804243218E+03  0.47000000000E+01 0. -1.
<mgrwt>
<rscale>  0 0.27918770E+03</rscale>
<asrwt>0</asrwt>
<pdfrwt beam="1">  1        2 0.25230423E+00 0.27918770E+03</pdfrwt>
<pdfrwt beam="2">  1       -2 0.18280216E-02 0.27918770E+03</pdfrwt>
<totfact> 0.10145796E+04</totfact>
</mgrwt>
</event>
<event>
 9    1  0.7926126E-001  0.2773735E+03  0.7818608E-02  0.1097132E+00
          2   -1    0    0  501    0  0.00000000000E+00  0.00000000000E+00  0.57043396589E+03  0.57043396589E+03  0.00000000000E+00 0. -1.
         -2   -1    0    0    0  501 -0.00000000000E+00 -0.00000000000E+00 -0.33718225378E+02  0.33718225378E+02  0.00000000000E+00 0. -1.
         35    2    1    2    0    0  0.00000000000E+00  0.71054273576E-14  0.53671574051E+03  0.60415219126E+03  0.27737354614E+03 0.  0.
         25    2    3    3    0    0 -0.20631168996E+02  0.47922679277E+02  0.33783412143E+03  0.36377463809E+03  0.12441006951E+03 0.  0.
         25    2    3    3    0    0  0.20631168996E+02 -0.47922679277E+02  0.19888161908E+03  0.24037755317E+03  0.12452004392E+03 0.  0.
          5    1    4    4  502    0  0.29517333952E+02  0.72523044698E+02  0.21087058218E+03  0.22498746064E+03  0.47000000000E+01 0. -1.
         -5    1    4    4    0  502 -0.50148502949E+02 -0.24600365421E+02  0.12696353925E+03  0.13878717745E+03  0.47000000000E+01 0. -1.
          5    1    5    5  503    0 -0.45245902017E+02 -0.51662661869E+02  0.10365620081E+03  0.12443038313E+03  0.47000000000E+01 0.  1.
         -5    1    5    5    0  503  0.65877071014E+02  0.37399825912E+01  0.95225418275E+02  0.11594717004E+03  0.47000000000E+01 0.  1.
<mgrwt>
<rscale>  0 0.27737355E+03</rscale>
<asrwt>0</asrwt>
<pdfrwt beam="1">  1        2 0.87759064E-01 0.27737355E+03</pdfrwt>
<pdfrwt beam="2">  1       -2 0.51874197E-02 0.27737355E+03</pdfrwt>
<totfact> 0.98613695E+03</totfact>
</mgrwt>
</event>
<event>
 9    1  0.7926126E-001  0.2731764E+03  0.7818608E-02  0.1099475E+00
         -1   -1    0    0    0  501 -0.00000000000E+00  0.00000000000E+00  0.88906137502E+03  0.88906137502E+03  0.00000000000E+00 0.  1.
          1   -1    0    0  501    0  0.00000000000E+00 -0.00000000000E+00 -0.20984303175E+02  0.20984303175E+02  0.00000000000E+00 0.  1.
         35    2    1    2    0    0 -0.44408920985E-14  0.00000000000E+00  0.86807707184E+03  0.91004567819E+03  0.27317637844E+03 0.  0.
         25    2    3    3    0    0 -0.21435549105E+01 -0.31747002575E+02  0.28511441863E+03  0.31288705082E+03  0.12488237610E+03 0.  0.
         25    2    3    3    0    0  0.21435549105E+01  0.31747002575E+02  0.58296265321E+03  0.59715862737E+03  0.12546116612E+03 0.  0.
          5    1    4    4  502    0 -0.58848110391E+02 -0.34446703090E+01  0.90046018520E+02  0.10772808966E+03  0.47000000000E+01 0. -1.
         -5    1    4    4    0  502  0.56704555480E+02 -0.28302332266E+02  0.19506840011E+03  0.20515896116E+03  0.47000000000E+01 0. -1.
          5    1    5    5  503    0 -0.38984671765E+01  0.49009196124E+01 -0.45014495364E+01  0.90316170923E+01  0.47000000000E+01 0. -1.
         -5    1    5    5    0  503  0.60420220870E+01  0.26846082963E+02  0.58746410275E+03  0.58812701028E+03  0.47000000000E+01 0. -1.
<mgrwt>
<rscale>  0 0.27317638E+03</rscale>
<asrwt>0</asrwt>
<pdfrwt beam="1">  1        1 0.32283550E-02 0.27317638E+03</pdfrwt>
<pdfrwt beam="2">  1       -1 0.13677864E+00 0.27317638E+03</pdfrwt>
<totfact> 0.14731611E+03</totfact>
</mgrwt>
</event>
<event>
 9    1  0.7926126E-001  0.2776161E+03  0.7818608E-02  0.1096998E+00
         -1   -1    0    0    0  501 -0.00000000000E+00  0.00000000000E+00  0.14209710160E+02  0.14209710160E+02  0.00000000000E+00 0. -1.
          1   -1    0    0  501    0  0.00000000000E+00 -0.00000000000E+00 -0.13559513446E+04  0.13559513446E+04  0.00000000000E+00 0. -1.
         35    2    1    2    0    0 -0.35527136788E-14  0.00000000000E+00 -0.13417416344E+04  0.13701610548E+04  0.27761610615E+03 0.  0.
         25    2    3    3    0    0 -0.17425498409E+02 -0.23988120991E+02 -0.89554620336E+03  0.90501792995E+03  0.12718244075E+03 0.  0.
         25    2    3    3    0    0  0.17425498409E+02  0.23988120991E+02 -0.44619543109E+03  0.46514312482E+03  0.12801830298E+03 0.  0.
          5    1    4    4  502    0 -0.46810036760E+02 -0.19113300401E+02 -0.84227356822E+03  0.84380291035E+03  0.47000000000E+01 0. -1.
         -5    1    4    4    0  502  0.29384538350E+02 -0.48748205893E+01 -0.53272635141E+02  0.61215019600E+02  0.47000000000E+01 0. -1.
          5    1    5    5  503    0  0.17971147001E+02  0.74623132517E+02 -0.21272609408E+03  0.22619914928E+03  0.47000000000E+01 0.  1.
         -5    1    5    5    0  503 -0.54564859145E+00 -0.50635011527E+02 -0.23346933700E+03  0.23894397554E+03  0.47000000000E+01 0.  1.
<mgrwt>
<rscale>  0 0.27761611E+03</rscale>
<asrwt>0</asrwt>
<pdfrwt beam="1">  1        1 0.20860787E+00 0.27761611E+03</pdfrwt>
<pdfrwt beam="2">  1       -1 0.21861095E-02 0.27761611E+03</pdfrwt>
<totfact> 0.53795518E+03</totfact>
</mgrwt>
</event>
<event>
 9    1  0.7926126E-001  0.2792486E+03  0.7818608E-02  0.1096100E+00
          2   -1    0    0  501    0  0.00000000000E+00  0.00000000000E+00  0.60021282028E+02  0.60021282028E+02  0.00000000000E+00 0.  1.
         -2   -1    0    0    0  501 -0.00000000000E+00 -0.00000000000E+00 -0.32480057908E+03  0.32480057908E+03  0.00000000000E+00 0.  1.
         35    2    1    2    0    0  0.71054273576E-14  0.00000000000E+00 -0.26477929705E+03  0.38482186110E+03  0.27924861439E+03 0.  0.
         25    2    3    3    0    0  0.40912788774E+02 -0.36810343363E+02 -0.88982748110E+02  0.16266951727E+03  0.12455755587E+03 0.  0.
         25    2    3    3    0    0 -0.40912788774E+02  0.36810343363E+02 -0.17579654894E+03  0.22215234383E+03  0.12417076785E+03 0.  0.
          5    1    4    4  502    0  0.17572045830E+02  0.73529972163E+01 -0.10743474163E+03  0.10921152445E+03  0.47000000000E+01 0. -1.
         -5    1    4    4    0  502  0.23340742944E+02 -0.44163340579E+02  0.18451993519E+02  0.53457992827E+02  0.47000000000E+01 0. -1.
          5    1    5    5  503    0  0.39194425472E+02 -0.10578331565E+01 -0.91956082864E+02  0.10007663651E+03  0.47000000000E+01 0.  1.
         -5    1    5    5    0  503 -0.80107214246E+02  0.37868176519E+02 -0.83840466074E+02  0.12207570732E+03  0.47000000000E+01 0.  1.
<mgrwt>
<rscale>  0 0.27924861E+03</rscale>
<asrwt>0</asrwt>
<pdfrwt beam="1">  1        2 0.92340433E-02 0.27924861E+03</pdfrwt>
<pdfrwt beam="2">  1       -2 0.49969320E-01 0.27924861E+03</pdfrwt>
<totfact> 0.27168453E+03</totfact>
</mgrwt>
</event>
<event>
 9    1  0.7926126E-001  0.2743347E+03  0.7818608E-02  0.1098824E+00
         -4   -1    0    0    0  501 -0.00000000000E+00  0.00000000000E+00  0.98003438943E+02  0.98003438943E+02  0.00000000000E+00 0. -1.
          4   -1    0    0  501    0  0.00000000000E+00 -0.00000000000E+00 -0.19198183639E+03  0.19198183639E+03  0.00000000000E+00 0. -1.
         35    2    1    2    0    0  0.00000000000E+00  0.00000000000E+00 -0.93978397450E+02  0.28998527534E+03  0.27433468743E+03 0.  0.
         25    2    3    3    0    0 -0.40965688446E+02  0.24498904092E+02 -0.15062852964E+02  0.13476338241E+03  0.12512352204E+03 0.  0.
         25    2    3    3    0    0  0.40965688446E+02 -0.24498904092E+02 -0.78915544487E+02  0.15522189292E+03  0.12485106707E+03 0.  0.
          5    1    4    4  502    0 -0.71066411954E+02  0.18866625695E+02 -0.49252568213E+02  0.88624432008E+02  0.47000000000E+01 0.  1.
         -5    1    4    4    0  502  0.30100723508E+02  0.56322783970E+01  0.34189715249E+02  0.46138950405E+02  0.47000000000E+01 0.  1.
          5    1    5    5  503    0  0.25318782826E+02  0.27267040975E+02  0.19915447198E+02  0.42464659712E+02  0.47000000000E+01 0.  1.
         -5    1    5    5    0  503  0.15646905619E+02 -0.51765945067E+02 -0.98830991685E+02  0.11275723321E+03  0.47000000000E+01 0.  1.
<mgrwt>
<rscale>  0 0.27433469E+03</rscale>
<asrwt>0</asrwt>
<pdfrwt beam="1">  1        4 0.29535667E-01 0.27433469E+03</pdfrwt>
<pdfrwt beam="2">  1       -4 0.15077452E-01 0.27433469E+03</pdfrwt>
<totfact> 0.76695839E+02</totfact>
</mgrwt>
</event>
<event>
 9    1  0.7926126E-001  0.2735060E+03  0.7818608E-02  0.1099290E+00
         -2   -1    0    0    0  501 -0.00000000000E+00  0.00000000000E+00  0.16534661390E+03  0.16534661390E+03  0.00000000000E+00 0.  1.
          2   -1    0    0  501    0  0.00000000000E+00 -0.00000000000E+00 -0.11310410127E+03  0.11310410127E+03  0.00000000000E+00 0.  1.
         35    2    1    2    0    0 -0.35527136788E-14 -0.71054273576E-14  0.52242512626E+02  0.27845071517E+03  0.27350597919E+03 0.  0.
         25    2    3    3    0    0  0.11262242808E+02  0.29873651088E+02 -0.16149099426E+02  0.12965789680E+03  0.12462384863E+03 0.  0.
         25    2    3    3    0    0 -0.11262242808E+02 -0.29873651088E+02  0.68391612053E+02  0.14879281838E+03  0.12822876845E+03 0.  0.
          5    1    4    4  502    0 -0.21638538210E+02  0.34029618164E+02  0.44584957834E+02  0.60300495133E+02  0.47000000000E+01 0. -1.
         -5    1    4    4    0  502  0.32900781018E+02 -0.41559670762E+01 -0.60734057261E+02  0.69357401662E+02  0.47000000000E+01 0. -1.
          5    1    5    5  503    0 -0.42154112492E+02  0.35317293036E+02  0.49338206065E+02  0.74031270184E+02  0.47000000000E+01 0. -1.
         -5    1    5    5    0  503  0.30891869684E+02 -0.65190944124E+02  0.19053405988E+02  0.74761548192E+02  0.47000000000E+01 0. -1.
<mgrwt>
<rscale>  0 0.27350598E+03</rscale>
<asrwt>0</asrwt>
<pdfrwt beam="1">  1        2 0.17400631E-01 0.27350598E+03</pdfrwt>
<pdfrwt beam="2">  1       -2 0.25437941E-01 0.27350598E+03</pdfrwt>
<totfact> 0.44733052E+03</totfact>
</mgrwt>
</event>
<event>
 9    1  0.7926126E-001  0.2748053E+03  0.7818608E-02  0.1098560E+00
         -1   -1    0    0    0  501 -0.00000000000E+00  0.00000000000E+00  0.10300176843E+03  0.10300176843E+03  0.00000000000E+00 0.  1.
          1   -1    0    0  501    0  0.00000000000E+00 -0.00000000000E+00 -0.18329281898E+03  0.18329281898E+03  0.00000000000E+00 0.  1.
         35    2    1    2    0    0  0.00000000000E+00  0.71054273576E-14 -0.80291050547E+02  0.28629458741E+03  0.27480527284E+03 0.  0.
         25    2    3    3    0    0 -0.54768916207E+02 -0.13491555181E+02 -0.55521602551E+02  0.14707026872E+03  0.12395708672E+03 0.  0.
         25    2    3    3    0    0  0.54768916207E+02  0.13491555181E+02 -0.24769447997E+02  0.13922431869E+03  0.12485282983E+03 0.  0.
          5    1    4    4  502    0 -0.21422894654E+02 -0.68271641398E+02 -0.25535125601E+02  0.76118920604E+02  0.47000000000E+01 0. -1.
         -5    1    4    4    0  502 -0.33346021553E+02  0.54780086217E+02 -0.29986476950E+02  0.70951348114E+02  0.47000000000E+01 0. -1.
          5    1    5    5  503    0  0.74623287590E+02  0.74885208884E+01  0.29660315936E+02  0.80786987426E+02  0.47000000000E+01 0.  1.
         -5    1    5    5    0  503 -0.19854371384E+02  0.60030342924E+01 -0.54429763933E+02  0.58437331267E+02  0.47000000000E+01 0.  1.
<mgrwt>
<rscale>  0 0.27480527E+03</rscale>
<asrwt>0</asrwt>
<pdfrwt beam="1">  1        1 0.28198895E-01 0.27480527E+03</pdfrwt>
<pdfrwt beam="2">  1       -1 0.15846426E-01 0.27480527E+03</pdfrwt>
<totfact> 0.47918862E+03</totfact>
</mgrwt>
</event>
<event>
 9    1  0.7926126E-001  0.2688570E+03  0.7818608E-02  0.1101936E+00
          2   -1    0    0  501    0  0.00000000000E+00  0.00000000000E+00  0.10847012244E+03  0.10847012244E+03  0.00000000000E+00 0.  1.
         -2   -1    0    0    0  501 -0.00000000000E+00 -0.00000000000E+00 -0.16659902293E+03  0.16659902293E+03  0.00000000000E+00 0.  1.
         35    2    1    2    0    0  0.14210854715E-13 -0.71054273576E-14 -0.58128900488E+02  0.27506914537E+03  0.26885696134E+03 0.  0.
         25    2    3    3    0    0  0.41344764596E+02 -0.18194379738E+02 -0.38879444902E+02  0.13839924107E+03  0.12490922176E+03 0.  0.
         25    2    3    3    0    0 -0.41344764596E+02  0.18194379738E+02 -0.19249455585E+02  0.13666990430E+03  0.12754487911E+03 0.  0.
          5    1    4    4  502    0 -0.38844182812E+02 -0.31899136577E+02 -0.22557586370E+02  0.55293400651E+02  0.47000000000E+01 0. -1.
         -5    1    4    4    0  502  0.80188947408E+02  0.13704756838E+02 -0.16321858532E+02  0.83105840423E+02  0.47000000000E+01 0. -1.
          5    1    5    5  503    0 -0.25158955456E+02  0.33306097379E+02  0.49131464699E+02  0.64639461521E+02  0.47000000000E+01 0.  1.
         -5    1    5    5    0  503 -0.16185809139E+02 -0.15111717640E+02 -0.68380920285E+02  0.72030442776E+02  0.47000000000E+01 0.  1.
<mgrwt>
<rscale>  0 0.26885696E+03</rscale>
<asrwt>0</asrwt>
<pdfrwt beam="1">  1        2 0.16687711E-01 0.26885696E+03</pdfrwt>
<pdfrwt beam="2">  1       -2 0.25630619E-01 0.26885696E+03</pdfrwt>
<totfact> 0.46321213E+03</totfact>
</mgrwt>
</event>
<event>
 9    1  0.7926126E-001  0.2799188E+03  0.7818608E-02  0.1095733E+00
         -2   -1    0    0    0  501 -0.00000000000E+00  0.00000000000E+00  0.10825374294E+03  0.10825374294E+03  0.00000000000E+00 0. -1.
          2   -1    0    0  501    0  0.00000000000E+00 -0.00000000000E+00 -0.18095111704E+03  0.18095111704E+03  0.00000000000E+00 0. -1.
         35    2    1    2    0    0 -0.71054273576E-14  0.00000000000E+00 -0.72697374104E+02  0.28920485998E+03  0.27991881472E+03 0.  0.
         25    2    3    3    0    0  0.16855249925E+02 -0.53513317086E+02 -0.21131290066E+02  0.14214553632E+03  0.12888385283E+03 0.  0.
         25    2    3    3    0    0 -0.16855249925E+02  0.53513317086E+02 -0.51566084038E+02  0.14705932367E+03  0.12577602752E+03 0.  0.
          5    1    4    4  502    0 -0.32393440162E+02 -0.45325927883E+02 -0.57499702215E+02  0.80200252237E+02  0.47000000000E+01 0. -1.
         -5    1    4    4    0  502  0.49248690088E+02 -0.81873892031E+01  0.36368412150E+02  0.61945284079E+02  0.47000000000E+01 0. -1.
          5    1    5    5  503    0  0.78585931833E+01 -0.39240594849E+02 -0.24728229927E+02  0.47277448390E+02  0.47000000000E+01 0.  1.
         -5    1    5    5    0  503 -0.24713843109E+02  0.92753911935E+02 -0.26837854112E+02  0.99781875277E+02  0.47000000000E+01 0.  1.
<mgrwt>
<rscale>  0 0.27991881E+03</rscale>
<asrwt>0</asrwt>
<pdfrwt beam="1">  1        2 0.27838633E-01 0.27991881E+03</pdfrwt>
<pdfrwt beam="2">  1       -2 0.16654422E-01 0.27991881E+03</pdfrwt>
<totfact> 0.54410115E+03</totfact>
</mgrwt>
</event>
<event>
 9    1  0.7926126E-001  0.2820958E+03  0.7818608E-02  0.1094550E+00
          2   -1    0    0  501    0  0.00000000000E+00  0.00000000000E+00  0.14340605497E+04  0.14340605497E+04  0.00000000000E+00 0. -1.
         -2   -1    0    0    0  501 -0.00000000000E+00 -0.00000000000E+00 -0.13872854760E+02  0.13872854760E+02  0.00000000000E+00 0. -1.
         35    2    1    2    0    0  0.00000000000E+00 -0.35527136788E-14  0.14201876949E+04  0.14479334045E+04  0.28209582573E+03 0.  0.
         25    2    3    3    0    0 -0.25722611215E+02  0.31129400190E+02  0.88426233099E+03  0.89388216375E+03  0.12439758990E+03 0.  0.
         25    2    3    3    0    0  0.25722611215E+02 -0.31129400190E+02  0.53592536394E+03  0.55405124070E+03  0.13463316578E+03 0.  0.
          5    1    4    4  502    0 -0.33130504821E+02 -0.25400348892E+02  0.11393234372E+03  0.12143095577E+03  0.47000000000E+01 0. -1.
         -5    1    4    4    0  502  0.74078936063E+01  0.56529749083E+02  0.77032998728E+03  0.77245120798E+03  0.47000000000E+01 0. -1.
          5    1    5    5  503    0 -0.87243882380E+01  0.97378065779E+00 -0.49428486710E+01  0.11116876894E+02  0.47000000000E+01 0. -1.
         -5    1    5    5    0  503  0.34446999453E+02 -0.32103180848E+02  0.54086821261E+03  0.54293436381E+03  0.47000000000E+01 0. -1.
<mgrwt>
<rscale>  0 0.28209583E+03</rscale>
<asrwt>0</asrwt>
<pdfrwt beam="1">  1        2 0.22062458E+00 0.28209583E+03</pdfrwt>
<pdfrwt beam="2">  1       -2 0.21342865E-02 0.28209583E+03</pdfrwt>
<totfact> 0.10406426E+04</totfact>
</mgrwt>
</event>
<event>
 9    1  0.7926126E-001  0.2741486E+03  0.7818608E-02  0.1098928E+00
         -2   -1    0    0    0  501 -0.00000000000E+00  0.00000000000E+00  0.25070551652E+02  0.25070551652E+02  0.00000000000E+00 0. -1.
          2   -1    0    0  501    0  0.00000000000E+00 -0.00000000000E+00 -0.74945978579E+03  0.74945978579E+03  0.00000000000E+00 0. -1.
         35    2    1    2    0    0 -0.35527136788E-14  0.71054273576E-14 -0.72438923414E+03  0.77453033745E+03  0.27414864779E+03 0.  0.
         25    2    3    3    0    0 -0.62951985302E+00  0.35157599959E+02 -0.24052084786E+03  0.27352527844E+03  0.12541669171E+03 0.  0.
         25    2    3    3    0    0  0.62951985302E+00 -0.35157599959E+02 -0.48386838628E+03  0.50100505901E+03  0.12506398673E+03 0.  0.
          5    1    4    4  502    0  0.40294709881E+02 -0.95628469395E+01 -0.18986890971E+03  0.19438982628E+03  0.47000000000E+01 0.  1.
         -5    1    4    4    0  502 -0.40924229734E+02  0.44720446899E+02 -0.50651938148E+02  0.79135452159E+02  0.47000000000E+01 0.  1.
          5    1    5    5  503    0  0.27968633418E+02  0.27343467262E+02 -0.33349840208E+03  0.33581718814E+03  0.47000000000E+01 0. -1.
         -5    1    5    5    0  503 -0.27339113565E+02 -0.62501067221E+02 -0.15036998420E+03  0.16518787087E+03  0.47000000000E+01 0. -1.
<mgrwt>
<rscale>  0 0.27414865E+03</rscale>
<asrwt>0</asrwt>
<pdfrwt beam="1">  1        2 0.11530151E+00 0.27414865E+03</pdfrwt>
<pdfrwt beam="2">  1       -2 0.38570079E-02 0.27414865E+03</pdfrwt>
<totfact> 0.11147544E+04</totfact>
</mgrwt>
</event>
<event>
 9    1  0.7926126E-001  0.2740685E+03  0.7818608E-02  0.1098973E+00
         -1   -1    0    0    0  501 -0.00000000000E+00  0.00000000000E+00  0.34533403914E+03  0.34533403914E+03  0.00000000000E+00 0.  1.
          1   -1    0    0  501    0  0.00000000000E+00 -0.00000000000E+00 -0.54377448501E+02  0.54377448501E+02  0.00000000000E+00 0.  1.
         35    2    1    2    0    0 -0.35527136788E-14  0.00000000000E+00  0.29095659064E+03  0.39971148764E+03  0.27406848727E+03 0.  0.
         25    2    3    3    0    0  0.24488263211E+02  0.39310377308E+02  0.10024337003E+03  0.16652621275E+03  0.12464856799E+03 0.  0.
         25    2    3    3    0    0 -0.24488263211E+02 -0.39310377308E+02  0.19071322061E+03  0.23318527489E+03  0.12593196222E+03 0.  0.
          5    1    4    4  502    0  0.16382976275E+02 -0.44147144844E+02  0.49121641369E+02  0.68208488917E+02  0.47000000000E+01 0. -1.
         -5    1    4    4    0  502  0.81052869357E+01  0.83457522151E+02  0.51121728656E+02  0.98317723838E+02  0.47000000000E+01 0. -1.
          5    1    5    5  503    0 -0.12948900574E+02 -0.26903526603E+02  0.20701368462E+03  0.20920857867E+03  0.47000000000E+01 0.  1.
         -5    1    5    5    0  503 -0.11539362636E+02 -0.12406850705E+02 -0.16300464007E+02  0.23976696214E+02  0.47000000000E+01 0.  1.
<mgrwt>
<rscale>  0 0.27406849E+03</rscale>
<asrwt>0</asrwt>
<pdfrwt beam="1">  1        1 0.83657616E-02 0.27406849E+03</pdfrwt>
<pdfrwt beam="2">  1       -1 0.53128312E-01 0.27406849E+03</pdfrwt>
<totfact> 0.29880293E+03</totfact>
</mgrwt>
</event>
<event>
 9    1  0.7926126E-001  0.2781915E+03  0.7818608E-02  0.1096681E+00
          2   -1    0    0  501    0  0.00000000000E+00  0.00000000000E+00  0.29156876876E+04  0.29156876876E+04  0.00000000000E+00 0.  1.
         -2   -1    0    0    0  501 -0.00000000000E+00 -0.00000000000E+00 -0.66357006116E+01  0.66357006116E+01  0.00000000000E+00 0.  1.
         35    2    1    2    0    0  0.00000000000E+00  0.71054273576E-14  0.29090519870E+04  0.29223233882E+04  0.27819152087E+03 0.  0.
         25    2    3    3    0    0 -0.46886259715E+02 -0.42347912499E+02  0.15318244076E+04  0.15380882923E+04  0.12344193775E+03 0.  0.
         25    2    3    3    0    0  0.46886259715E+02  0.42347912499E+02  0.13772275793E+04  0.13842350959E+04  0.12393275765E+03 0.  0.
          5    1    4    4  502    0 -0.45901311100E+01  0.59705654205E+01  0.12022763516E+04  0.12023091252E+04  0.47000000000E+01 0. -1.
         -5    1    4    4    0  502 -0.42296128605E+02 -0.48318477919E+02  0.32954805605E+03  0.33577916709E+03  0.47000000000E+01 0. -1.
          5    1    5    5  503    0 -0.12686024848E+02 -0.36518354940E+02  0.31180891329E+03  0.31423146545E+03  0.47000000000E+01 0. -1.
         -5    1    5    5    0  503  0.59572284563E+02  0.78866267438E+02  0.10654186660E+04  0.10700036304E+04  0.47000000000E+01 0. -1.
<mgrwt>
<rscale>  0 0.27819152E+03</rscale>
<asrwt>0</asrwt>
<pdfrwt beam="1">  1        2 0.44856631E+00 0.27819152E+03</pdfrwt>
<pdfrwt beam="2">  1       -2 0.10208793E-02 0.27819152E+03</pdfrwt>
<totfact> 0.48316064E+03</totfact>
</mgrwt>
</event>
<event>
 9    1  0.7926126E-001  0.2755171E+03  0.7818608E-02  0.1098163E+00
         -2   -1    0    0    0  501 -0.00000000000E+00  0.00000000000E+00  0.16225025641E+02  0.16225025641E+02  0.00000000000E+00 0. -1.
          2   -1    0    0  501    0  0.00000000000E+00 -0.00000000000E+00 -0.11696384839E+04  0.11696384839E+04  0.00000000000E+00 0. -1.
         35    2    1    2    0    0  0.00000000000E+00  0.17763568394E-14 -0.11534134582E+04  0.11858635095E+04  0.27551707309E+03 0.  0.
         25    2    3    3    0    0 -0.36783086132E+02  0.11689594816E+02 -0.42115408334E+03  0.44220668652E+03  0.12917565419E+03 0.  0.
         25    2    3    3    0    0  0.36783086132E+02 -0.11689594816E+02 -0.73225937488E+03  0.74365682299E+03  0.12382259979E+03 0.  0.
          5    1    4    4  502    0  0.55275136797E+01  0.20138209917E+01 -0.38622020259E+03  0.38629359789E+03  0.47000000000E+01 0.  1.
         -5    1    4    4    0  502 -0.42310599812E+02  0.96757738241E+01 -0.34933880748E+02  0.55913088626E+02  0.47000000000E+01 0.  1.
          5    1    5    5  503    0  0.23850131419E+02 -0.66614551217E+02 -0.47303032042E+03  0.47831590110E+03  0.47000000000E+01 0.  1.
         -5    1    5    5    0  503  0.12932954713E+02  0.54924956401E+02 -0.25922905446E+03  0.26534092189E+03  0.47000000000E+01 0.  1.
<mgrwt>
<rscale>  0 0.27551707E+03</rscale>
<asrwt>0</asrwt>
<pdfrwt beam="1">  1        2 0.17994437E+00 0.27551707E+03</pdfrwt>
<pdfrwt beam="2">  1       -2 0.24961579E-02 0.27551707E+03</pdfrwt>
<totfact> 0.11569624E+04</totfact>
</mgrwt>
</event>
<event>
 9    1  0.7926126E-001  0.2706747E+03  0.7818608E-02  0.1100894E+00
          2   -1    0    0  501    0  0.00000000000E+00  0.00000000000E+00  0.54118531175E+03  0.54118531175E+03  0.00000000000E+00 0.  1.
         -2   -1    0    0    0  501 -0.00000000000E+00 -0.00000000000E+00 -0.33844588669E+02  0.33844588669E+02  0.00000000000E+00 0.  1.
         35    2    1    2    0    0  0.71054273576E-14 -0.71054273576E-14  0.50734072308E+03  0.57502990042E+03  0.27067467018E+03 0.  0.
         25    2    3    3    0    0 -0.19402726126E+02  0.45148837230E+02  0.27031367843E+03  0.30300836353E+03  0.12778771591E+03 0.  0.
         25    2    3    3    0    0  0.19402726126E+02 -0.45148837230E+02  0.23702704464E+03  0.27202153688E+03  0.12409276108E+03 0.  0.
          5    1    4    4  502    0 -0.52306696617E+02  0.20341037407E+02  0.25102884011E+03  0.25726895825E+03  0.47000000000E+01 0.  1.
         -5    1    4    4    0  502  0.32903970492E+02  0.24807799824E+02  0.19284838325E+02  0.45739405280E+02  0.47000000000E+01 0.  1.
          5    1    5    5  503    0  0.66583438284E+02 -0.95630496116E+01  0.82739954169E+02  0.10673704225E+03  0.47000000000E+01 0.  1.
         -5    1    5    5    0  503 -0.47180712158E+02 -0.35585787619E+02  0.15428709048E+03  0.16528449464E+03  0.47000000000E+01 0.  1.
<mgrwt>
<rscale>  0 0.27067467E+03</rscale>
<asrwt>0</asrwt>
<pdfrwt beam="1">  1        2 0.83259272E-01 0.27067467E+03</pdfrwt>
<pdfrwt beam="2">  1       -2 0.52068602E-02 0.27067467E+03</pdfrwt>
<totfact> 0.10402469E+04</totfact>
</mgrwt>
</event>
<event>
 9    1  0.7926126E-001  0.2758326E+03  0.7818608E-02  0.1097987E+00
          1   -1    0    0  501    0  0.00000000000E+00  0.00000000000E+00  0.12646196824E+04  0.12646196824E+04  0.00000000000E+00 0.  1.
         -1   -1    0    0    0  501 -0.00000000000E+00 -0.00000000000E+00 -0.15040812561E+02  0.15040812561E+02  0.00000000000E+00 0.  1.
         35    2    1    2    0    0  0.00000000000E+00  0.00000000000E+00  0.12495788698E+04  0.12796604950E+04  0.27583261303E+03 0.  0.
         25    2    3    3    0    0 -0.51446003176E+02  0.23969728871E+02  0.61302859216E+03  0.62815581556E+03  0.12471741926E+03 0.  0.
         25    2    3    3    0    0  0.51446003176E+02 -0.23969728871E+02  0.63655027768E+03  0.65150467941E+03  0.12665248567E+03 0.  0.
          5    1    4    4  502    0 -0.73410797919E+02  0.44870430634E+02  0.56234989309E+03  0.56891299252E+03  0.47000000000E+01 0.  1.
         -5    1    4    4    0  502  0.21964794743E+02 -0.20900701762E+02  0.50678699066E+02  0.59242823036E+02  0.47000000000E+01 0.  1.
          5    1    5    5  503    0  0.75214078618E+02 -0.20294274917E+02  0.20649294363E+03  0.22074972477E+03  0.47000000000E+01 0.  1.
         -5    1    5    5    0  503 -0.23768075443E+02 -0.36754539542E+01  0.43005733406E+03  0.43075495464E+03  0.47000000000E+01 0.  1.
<mgrwt>
<rscale>  0 0.27583261E+03</rscale>
<asrwt>0</asrwt>
<pdfrwt beam="1">  1        1 0.19455679E+00 0.27583261E+03</pdfrwt>
<pdfrwt beam="2">  1       -1 0.23139722E-02 0.27583261E+03</pdfrwt>
<totfact> 0.57130200E+03</totfact>
</mgrwt>
</event>
<event>
 9    1  0.7926126E-001  0.2743840E+03  0.7818608E-02  0.1098796E+00
         -1   -1    0    0    0  501 -0.00000000000E+00  0.00000000000E+00  0.21996196932E+02  0.21996196932E+02  0.00000000000E+00 0. -1.
          1   -1    0    0  501    0  0.00000000000E+00 -0.00000000000E+00 -0.85567735523E+03  0.85567735523E+03  0.00000000000E+00 0. -1.
         35    2    1    2    0    0  0.35527136788E-14  0.00000000000E+00 -0.83368115829E+03  0.87767355216E+03  0.27438402006E+03 0.  0.
         25    2    3    3    0    0 -0.85087754873E+01 -0.50589372880E+02 -0.48738608887E+03  0.50591079963E+03  0.12557409626E+03 0.  0.
         25    2    3    3    0    0  0.85087754873E+01  0.50589372880E+02 -0.34629506942E+03  0.37176275252E+03  0.12512228078E+03 0.  0.
          5    1    4    4  502    0 -0.14938554104E+02 -0.31360599109E+02 -0.24996464183E+02  0.43052999859E+02  0.47000000000E+01 0.  1.
         -5    1    4    4    0  502  0.64297786162E+01 -0.19228773771E+02 -0.46238962469E+03  0.46285779978E+03  0.47000000000E+01 0.  1.
          5    1    5    5  503    0 -0.19257105355E+02 -0.30632434922E+02 -0.42375200425E+02  0.55918957313E+02  0.47000000000E+01 0.  1.
         -5    1    5    5    0  503  0.27765880842E+02  0.81221807802E+02 -0.30391986900E+03  0.31584379521E+03  0.47000000000E+01 0.  1.
<mgrwt>
<rscale>  0 0.27438402E+03</rscale>
<asrwt>0</asrwt>
<pdfrwt beam="1">  1        1 0.13164266E+00 0.27438402E+03</pdfrwt>
<pdfrwt beam="2">  1       -1 0.33840306E-02 0.27438402E+03</pdfrwt>
<totfact> 0.65279185E+03</totfact>
</mgrwt>
</event>
<event>
 9    1  0.7926126E-001  0.2722500E+03  0.7818608E-02  0.1099999E+00
         -2   -1    0    0    0  501 -0.00000000000E+00  0.00000000000E+00  0.16245752047E+02  0.16245752047E+02  0.00000000000E+00 0. -1.
          2   -1    0    0  501    0  0.00000000000E+00 -0.00000000000E+00 -0.11406070654E+04  0.11406070654E+04  0.00000000000E+00 0. -1.
         35    2    1    2    0    0  0.88817841970E-15 -0.71054273576E-14 -0.11243613134E+04  0.11568528175E+04  0.27225002896E+03 0.  0.
         25    2    3    3    0    0  0.52582130957E+01  0.54534523219E+02 -0.56879272634E+03  0.58493204844E+03  0.12497468837E+03 0.  0.
         25    2    3    3    0    0 -0.52582130957E+01 -0.54534523219E+02 -0.55556858705E+03  0.57192076904E+03  0.12423867398E+03 0.  0.
          5    1    4    4  502    0 -0.10931814276E+02 -0.38725013639E+02 -0.13716911270E+03  0.14302652454E+03  0.47000000000E+01 0. -1.
         -5    1    4    4    0  502  0.16190027372E+02  0.93259536858E+02 -0.43162361364E+03  0.44190552390E+03  0.47000000000E+01 0. -1.
          5    1    5    5  503    0  0.48380939969E+01  0.27238234190E+02 -0.35043006514E+02  0.44893550326E+02  0.47000000000E+01 0. -1.
         -5    1    5    5    0  503 -0.10096307093E+02 -0.81772757409E+02 -0.52052558054E+03  0.52702721871E+03  0.47000000000E+01 0. -1.
<mgrwt>
<rscale>  0 0.27225003E+03</rscale>
<asrwt>0</asrwt>
<pdfrwt beam="1">  1        2 0.17547803E+00 0.27225003E+03</pdfrwt>
<pdfrwt beam="2">  1       -2 0.24993461E-02 0.27225003E+03</pdfrwt>
<totfact> 0.11997043E+04</totfact>
</mgrwt>
</event>
<event>
 9    1  0.7926126E-001  0.2724119E+03  0.7818608E-02  0.1099907E+00
         -2   -1    0    0    0  501 -0.00000000000E+00  0.00000000000E+00  0.12061445592E+02  0.12061445592E+02  0.00000000000E+00 0. -1.
          2   -1    0    0  501    0  0.00000000000E+00 -0.00000000000E+00 -0.15381295790E+04  0.15381295790E+04  0.00000000000E+00 0. -1.
         35    2    1    2    0    0  0.35527136788E-14 -0.71054273576E-14 -0.15260681334E+04  0.15501910246E+04  0.27241193975E+03 0.  0.
         25    2    3    3    0    0 -0.80707084825E+01  0.29824808154E+02 -0.54551518303E+03  0.56102633013E+03  0.12731485642E+03 0.  0.
         25    2    3    3    0    0  0.80707084825E+01 -0.29824808154E+02 -0.98055295036E+03  0.98916469444E+03  0.12652291791E+03 0.  0.
          5    1    4    4  502    0  0.24697931324E+02  0.71027137817E+02 -0.26163725048E+03  0.27227005519E+03  0.47000000000E+01 0. -1.
         -5    1    4    4    0  502 -0.32768639807E+02 -0.41202329664E+02 -0.28387793255E+03  0.28875627493E+03  0.47000000000E+01 0. -1.
          5    1    5    5  503    0  0.22510105429E+02  0.45366282811E+02 -0.49262719835E+03  0.49524584907E+03  0.47000000000E+01 0.  1.
         -5    1    5    5    0  503 -0.14439396947E+02 -0.75191090965E+02 -0.48792575200E+03  0.49391884537E+03  0.47000000000E+01 0.  1.
<mgrwt>
<rscale>  0 0.27241194E+03</rscale>
<asrwt>0</asrwt>
<pdfrwt beam="1">  1        2 0.23663548E+00 0.27241194E+03</pdfrwt>
<pdfrwt beam="2">  1       -2 0.18556058E-02 0.27241194E+03</pdfrwt>
<totfact> 0.11234981E+04</totfact>
</mgrwt>
</event>
<event>
 9    1  0.7926126E-001  0.2752159E+03  0.7818608E-02  0.1098331E+00
          3   -1    0    0  501    0  0.00000000000E+00  0.00000000000E+00  0.43570033478E+02  0.43570033478E+02  0.00000000000E+00 0.  1.
         -3   -1    0    0    0  501 -0.00000000000E+00 -0.00000000000E+00 -0.43460942413E+03  0.43460942413E+03  0.00000000000E+00 0.  1.
         35    2    1    2    0    0 -0.71054273576E-14  0.00000000000E+00 -0.39103939065E+03  0.47817945761E+03  0.27521589459E+03 0.  0.
         25    2    3    3    0    0 -0.47476263479E+02  0.25001779692E+02 -0.15017916961E+03  0.20154285792E+03  0.12323415116E+03 0.  0.
         25    2    3    3    0    0  0.47476263479E+02 -0.25001779692E+02 -0.24086022104E+03  0.27663659968E+03  0.12504030400E+03 0.  0.
          5    1    4    4  502    0  0.32868615280E+02  0.54656407072E+01 -0.44752723284E+01  0.33946091987E+02  0.47000000000E+01 0.  1.
         -5    1    4    4    0  502 -0.80344878759E+02  0.19536138985E+02 -0.14570389728E+03  0.16759676593E+03  0.47000000000E+01 0.  1.
          5    1    5    5  503    0 -0.34319947019E+02  0.22196111744E+02 -0.63885897767E+02  0.75986999371E+02  0.47000000000E+01 0.  1.
         -5    1    5    5    0  503  0.81796210497E+02 -0.47197891436E+02 -0.17697432327E+03  0.20064960031E+03  0.47000000000E+01 0.  1.
<mgrwt>
<rscale>  0 0.27521589E+03</rscale>
<asrwt>0</asrwt>
<pdfrwt beam="1">  1        3 0.67030823E-02 0.27521589E+03</pdfrwt>
<pdfrwt beam="2">  1       -3 0.66862986E-01 0.27521589E+03</pdfrwt>
<totfact> 0.79328621E+02</totfact>
</mgrwt>
</event>
<event>
 9    1  0.7926126E-001  0.2819781E+03  0.7818608E-02  0.1094613E+00
         -1   -1    0    0    0  501 -0.00000000000E+00  0.00000000000E+00  0.10508648077E+02  0.10508648077E+02  0.00000000000E+00 0.  1.
          1   -1    0    0  501    0  0.00000000000E+00 -0.00000000000E+00 -0.18915771508E+04  0.18915771508E+04  0.00000000000E+00 0.  1.
         35    2    1    2    0    0 -0.71054273576E-14  0.00000000000E+00 -0.18810685027E+04  0.19020857989E+04  0.28197814516E+03 0.  0.
         25    2    3    3    0    0  0.20631655562E+02 -0.42352048372E+01 -0.52307955797E+03  0.53823714849E+03  0.12507358586E+03 0.  0.
         25    2    3    3    0    0 -0.20631655562E+02  0.42352048372E+01 -0.13579889447E+04  0.13638486504E+04  0.12452134320E+03 0.  0.
          5    1    4    4  502    0  0.88978442133E+00 -0.63729100938E+02 -0.27240596508E+03  0.27980223343E+03  0.47000000000E+01 0.  1.
         -5    1    4    4    0  502  0.19741871140E+02  0.59493896101E+02 -0.25067359289E+03  0.25843491506E+03  0.47000000000E+01 0.  1.
          5    1    5    5  503    0  0.21517918806E+02 -0.99042462632E+01 -0.54706993812E+02  0.59800168025E+02  0.47000000000E+01 0. -1.
         -5    1    5    5    0  503 -0.42149574368E+02  0.14139451100E+02 -0.13032819509E+04  0.13040484823E+04  0.47000000000E+01 0. -1.
<mgrwt>
<rscale>  0 0.28197815E+03</rscale>
<asrwt>0</asrwt>
<pdfrwt beam="1">  1        1 0.29101165E+00 0.28197815E+03</pdfrwt>
<pdfrwt beam="2">  1       -1 0.16167163E-02 0.28197815E+03</pdfrwt>
<totfact> 0.37125388E+03</totfact>
</mgrwt>
</event>
<event>
 9    1  0.7926126E-001  0.2747528E+03  0.7818608E-02  0.1098590E+00
          1   -1    0    0  501    0  0.00000000000E+00  0.00000000000E+00  0.78798049321E+03  0.78798049321E+03  0.00000000000E+00 0. -1.
         -1   -1    0    0    0  501 -0.00000000000E+00 -0.00000000000E+00 -0.23950184171E+02  0.23950184171E+02  0.00000000000E+00 0. -1.
         35    2    1    2    0    0  0.00000000000E+00  0.14210854715E-13  0.76403030904E+03  0.81193067738E+03  0.27475281935E+03 0.  0.
         25    2    3    3    0    0 -0.47962886291E+01 -0.55896056183E+02  0.36968708858E+03  0.39427587030E+03  0.12505016975E+03 0.  0.
         25    2    3    3    0    0  0.47962886291E+01  0.55896056183E+02  0.39434322046E+03  0.41765480708E+03  0.12562479404E+03 0.  0.
          5    1    4    4  502    0 -0.49357646338E+02  0.16179042513E+02  0.14511701647E+03  0.15420433566E+03  0.47000000000E+01 0.  1.
         -5    1    4    4    0  502  0.44561357709E+02 -0.72075098696E+02  0.22457007212E+03  0.24007153464E+03  0.47000000000E+01 0.  1.
          5    1    5    5  503    0  0.62083228790E+02  0.22650782153E+02  0.14157594970E+03  0.15631130721E+03  0.47000000000E+01 0. -1.
         -5    1    5    5    0  503 -0.57286940161E+02  0.33245274030E+02  0.25276727076E+03  0.26134349987E+03  0.47000000000E+01 0. -1.
<mgrwt>
<rscale>  0 0.27475282E+03</rscale>
<asrwt>0</asrwt>
<pdfrwt beam="1">  1        1 0.12122775E+00 0.27475282E+03</pdfrwt>
<pdfrwt beam="2">  1       -1 0.36846443E-02 0.27475282E+03</pdfrwt>
<totfact> 0.65432649E+03</totfact>
</mgrwt>
</event>
<event>
 9    1  0.7926126E-001  0.2733257E+03  0.7818608E-02  0.1099391E+00
          1   -1    0    0  501    0  0.00000000000E+00  0.00000000000E+00  0.30614143194E+02  0.30614143194E+02  0.00000000000E+00 0. -1.
         -1   -1    0    0    0  501 -0.00000000000E+00 -0.00000000000E+00 -0.61006884762E+03  0.61006884762E+03  0.00000000000E+00 0. -1.
         35    2    1    2    0    0  0.14210854715E-13  0.14210854715E-13 -0.57945470443E+03  0.64068299081E+03  0.27332570358E+03 0.  0.
         25    2    3    3    0    0  0.37738496495E+02  0.20136465703E+02 -0.37413063068E+03  0.39657292032E+03  0.12436511147E+03 0.  0.
         25    2    3    3    0    0 -0.37738496495E+02 -0.20136465703E+02 -0.20532407375E+03  0.24411007050E+03  0.12490828590E+03 0.  0.
          5    1    4    4  502    0  0.52687567620E+02  0.64594651382E+02 -0.26051280863E+03  0.27356436579E+03  0.47000000000E+01 0. -1.
         -5    1    4    4    0  502 -0.14949071125E+02 -0.44458185679E+02 -0.11361782205E+03  0.12300855453E+03  0.47000000000E+01 0. -1.
          5    1    5    5  503    0  0.37605208097E+02  0.23173560968E+02 -0.58892201554E+02  0.73766842198E+02  0.47000000000E+01 0. -1.
         -5    1    5    5    0  503 -0.75343704592E+02 -0.43310026671E+02 -0.14643187220E+03  0.17034322830E+03  0.47000000000E+01 0. -1.
<mgrwt>
<rscale>  0 0.27332570E+03</rscale>
<asrwt>0</asrwt>
<pdfrwt beam="1">  1        1 0.47098687E-02 0.27332570E+03</pdfrwt>
<pdfrwt beam="2">  1       -1 0.93856736E-01 0.27332570E+03</pdfrwt>
<totfact> 0.20951670E+03</totfact>
</mgrwt>
</event>
<event>
 9    1  0.7926126E-001  0.2726844E+03  0.7818608E-02  0.1099753E+00
          1   -1    0    0  501    0  0.00000000000E+00  0.00000000000E+00  0.59591336097E+02  0.59591336097E+02  0.00000000000E+00 0.  1.
         -1   -1    0    0    0  501 -0.00000000000E+00 -0.00000000000E+00 -0.31194449880E+03  0.31194449880E+03  0.00000000000E+00 0.  1.
         35    2    1    2    0    0  0.35527136788E-14  0.17763568394E-14 -0.25235316270E+03  0.37153583490E+03  0.27268435578E+03 0.  0.
         25    2    3    3    0    0  0.11633302637E+02  0.13740686143E+02 -0.19535594138E+03  0.23264350242E+03  0.12503965450E+03 0.  0.
         25    2    3    3    0    0 -0.11633302637E+02 -0.13740686143E+02 -0.56997221325E+02  0.13889233248E+03  0.12537247145E+03 0.  0.
          5    1    4    4  502    0 -0.30381831140E+02 -0.73864477243E+01  0.34644400363E-01  0.31618135202E+02  0.47000000000E+01 0. -1.
         -5    1    4    4    0  502  0.42015133777E+02  0.21127133868E+02 -0.19539058578E+03  0.20102536721E+03  0.47000000000E+01 0. -1.
          5    1    5    5  503    0 -0.26484926373E+02  0.40252321415E+01 -0.92405083920E+02  0.96324676761E+02  0.47000000000E+01 0.  1.
         -5    1    5    5    0  503  0.14851623736E+02 -0.17765918285E+02  0.35407862596E+02  0.42567655723E+02  0.47000000000E+01 0.  1.
<mgrwt>
<rscale>  0 0.27268436E+03</rscale>
<asrwt>0</asrwt>
<pdfrwt beam="1">  1        1 0.91678979E-02 0.27268436E+03</pdfrwt>
<pdfrwt beam="2">  1       -1 0.47991461E-01 0.27268436E+03</pdfrwt>
<totfact> 0.31865610E+03</totfact>
</mgrwt>
</event>
<event>
 9    1  0.7926126E-001  0.2676245E+03  0.7818608E-02  0.1102647E+00
         -3   -1    0    0    0  501 -0.00000000000E+00  0.00000000000E+00  0.10937668741E+04  0.10937668741E+04  0.00000000000E+00 0. -1.
          3   -1    0    0  501    0  0.00000000000E+00 -0.00000000000E+00 -0.16370694914E+02  0.16370694914E+02  0.00000000000E+00 0. -1.
         35    2    1    2    0    0 -0.71054273576E-14 -0.71054273576E-14  0.10773961792E+04  0.11101375690E+04  0.26762454149E+03 0.  0.
         25    2    3    3    0    0  0.30817816980E+02  0.27273604321E+02  0.63727280463E+03  0.65072181632E+03  0.12501466868E+03 0.  0.
         25    2    3    3    0    0 -0.30817816980E+02 -0.27273604321E+02  0.44012337454E+03  0.45941575268E+03  0.12514256531E+03 0.  0.
          5    1    4    4  502    0  0.65398689888E+02 -0.94165772892E+01  0.20363960289E+03  0.21414209869E+03  0.47000000000E+01 0.  1.
         -5    1    4    4    0  502 -0.34580872908E+02  0.36690181610E+02  0.43363320174E+03  0.43657971763E+03  0.47000000000E+01 0.  1.
          5    1    5    5  503    0 -0.18781694964E+02 -0.38417968435E+02  0.39422257507E+02  0.58351493137E+02  0.47000000000E+01 0. -1.
         -5    1    5    5    0  503 -0.12036122015E+02  0.11144364114E+02  0.40070111704E+03  0.40106425954E+03  0.47000000000E+01 0. -1.
<mgrwt>
<rscale>  0 0.26762454E+03</rscale>
<asrwt>0</asrwt>
<pdfrwt beam="1">  1        3 0.25185693E-02 0.26762454E+03</pdfrwt>
<pdfrwt beam="2">  1       -3 0.16827177E+00 0.26762454E+03</pdfrwt>
<totfact> 0.43003657E+02</totfact>
</mgrwt>
</event>
<event>
 9    1  0.7926126E-001  0.2761963E+03  0.7818608E-02  0.1097785E+00
         -1   -1    0    0    0  501 -0.00000000000E+00  0.00000000000E+00  0.20161097878E+02  0.20161097878E+02  0.00000000000E+00 0.  1.
          1   -1    0    0  501    0  0.00000000000E+00 -0.00000000000E+00 -0.94593565924E+03  0.94593565924E+03  0.00000000000E+00 0.  1.
         35    2    1    2    0    0 -0.35527136788E-14  0.71054273576E-14 -0.92577456136E+03  0.96609675712E+03  0.27619631723E+03 0.  0.
         25    2    3    3    0    0 -0.13465226640E+02 -0.29052918163E+02 -0.28922527604E+03  0.31653105792E+03  0.12456029040E+03 0.  0.
         25    2    3    3    0    0  0.13465226640E+02  0.29052918163E+02 -0.63654928531E+03  0.64956569919E+03  0.12536036276E+03 0.  0.
          5    1    4    4  502    0  0.34072500126E+02  0.34742510264E+02 -0.10700283014E+03  0.11764213931E+03  0.47000000000E+01 0. -1.
         -5    1    4    4    0  502 -0.47537726765E+02 -0.63795428426E+02 -0.18222244591E+03  0.19888891861E+03  0.47000000000E+01 0. -1.
          5    1    5    5  503    0 -0.18337369342E+02  0.53926996925E+02 -0.55986471680E+03  0.56277435196E+03  0.47000000000E+01 0. -1.
         -5    1    5    5    0  503  0.31802595982E+02 -0.24874078762E+02 -0.76684568518E+02  0.86791347231E+02  0.47000000000E+01 0. -1.
<mgrwt>
<rscale>  0 0.27619632E+03</rscale>
<asrwt>0</asrwt>
<pdfrwt beam="1">  1        1 0.14552858E+00 0.27619632E+03</pdfrwt>
<pdfrwt beam="2">  1       -1 0.31017071E-02 0.27619632E+03</pdfrwt>
<totfact> 0.63074423E+03</totfact>
</mgrwt>
</event>
<event>
 9    1  0.7926126E-001  0.2726639E+03  0.7818608E-02  0.1099765E+00
          1   -1    0    0  501    0  0.00000000000E+00  0.00000000000E+00  0.84985958599E+02  0.84985958599E+02  0.00000000000E+00 0.  1.
         -1   -1    0    0    0  501 -0.00000000000E+00 -0.00000000000E+00 -0.21869974088E+03  0.21869974088E+03  0.00000000000E+00 0.  1.
         35    2    1    2    0    0  0.71054273576E-14  0.00000000000E+00 -0.13371378228E+03  0.30368569948E+03  0.27266394792E+03 0.  0.
         25    2    3    3    0    0 -0.51470098099E+01 -0.57912087665E+01 -0.12774302942E+03  0.17912005409E+03  0.12532231407E+03 0.  0.
         25    2    3    3    0    0  0.51470098099E+01  0.57912087665E+01 -0.59707528679E+01  0.12456564539E+03  0.12418099820E+03 0.  0.
          5    1    4    4  502    0 -0.39506206298E+02  0.22226411097E+02 -0.12656714138E+03  0.13452168956E+03  0.47000000000E+01 0.  1.
         -5    1    4    4    0  502  0.34359196488E+02 -0.28017619864E+02 -0.11758880410E+01  0.44598364531E+02  0.47000000000E+01 0.  1.
          5    1    5    5  503    0  0.22651806517E+02  0.55207359004E+02 -0.29708346398E+02  0.66825389429E+02  0.47000000000E+01 0. -1.
         -5    1    5    5    0  503 -0.17504796708E+02 -0.49416150237E+02  0.23737593530E+02  0.57740255962E+02  0.47000000000E+01 0. -1.
<mgrwt>
<rscale>  0 0.27266395E+03</rscale>
<asrwt>0</asrwt>
<pdfrwt beam="1">  1        1 0.13074763E-01 0.27266395E+03</pdfrwt>
<pdfrwt beam="2">  1       -1 0.33646114E-01 0.27266395E+03</pdfrwt>
<totfact> 0.37273485E+03</totfact>
</mgrwt>
</event>
<event>
 9    1  0.7926126E-001  0.2764571E+03  0.7818608E-02  0.1097640E+00
          1   -1    0    0  501    0  0.00000000000E+00  0.00000000000E+00  0.18888587755E+04  0.18888587755E+04  0.00000000000E+00 0. -1.
         -1   -1    0    0    0  501 -0.00000000000E+00 -0.00000000000E+00 -0.10115701904E+02  0.10115701904E+02  0.00000000000E+00 0. -1.
         35    2    1    2    0    0  0.00000000000E+00  0.71054273576E-14  0.18787430736E+04  0.18989744774E+04  0.27645710200E+03 0.  0.
         25    2    3    3    0    0 -0.29686983522E+02 -0.44117150584E+02  0.83162785328E+03  0.84307281323E+03  0.12782504481E+03 0.  0.
         25    2    3    3    0    0  0.29686983522E+02  0.44117150584E+02  0.10471152203E+04  0.10559016642E+04  0.12510155807E+03 0.  0.
          5    1    4    4  502    0 -0.18598746120E+02 -0.28850583085E+02  0.47967651838E+02  0.59171404618E+02  0.47000000000E+01 0. -1.
         -5    1    4    4    0  502 -0.11088237402E+02 -0.15266567499E+02  0.78366020145E+03  0.78390140861E+03  0.47000000000E+01 0. -1.
          5    1    5    5  503    0  0.33200172727E+02  0.50395796596E+02  0.20518215542E+03  0.21392474071E+03  0.47000000000E+01 0.  1.
         -5    1    5    5    0  503 -0.35131892051E+01 -0.62786460122E+01  0.84193306490E+03  0.84197692347E+03  0.47000000000E+01 0.  1.
<mgrwt>
<rscale>  0 0.27645710E+03</rscale>
<asrwt>0</asrwt>
<pdfrwt beam="1">  1        1 0.29059338E+00 0.27645710E+03</pdfrwt>
<pdfrwt beam="2">  1       -1 0.15562633E-02 0.27645710E+03</pdfrwt>
<totfact> 0.39407331E+03</totfact>
</mgrwt>
</event>
<event>
 9    1  0.7926126E-001  0.2865001E+03  0.7818608E-02  0.1092191E+00
          1   -1    0    0  501    0  0.00000000000E+00  0.00000000000E+00  0.16578088807E+03  0.16578088807E+03  0.00000000000E+00 0. -1.
         -1   -1    0    0    0  501 -0.00000000000E+00 -0.00000000000E+00 -0.12378133637E+03  0.12378133637E+03  0.00000000000E+00 0. -1.
         35    2    1    2    0    0  0.00000000000E+00  0.00000000000E+00  0.41999551700E+02  0.28956222444E+03  0.28650012126E+03 0.  0.
         25    2    3    3    0    0  0.68054759985E+02 -0.14614279687E+02  0.25254297715E+02  0.14549217449E+03  0.12524043180E+03 0.  0.
         25    2    3    3    0    0 -0.68054759985E+02  0.14614279687E+02  0.16745253986E+02  0.14407004995E+03  0.12502299083E+03 0.  0.
          5    1    4    4  502    0  0.72654349132E+02 -0.61806399630E+02  0.13889585372E+02  0.96507492273E+02  0.47000000000E+01 0. -1.
         -5    1    4    4    0  502 -0.45995891468E+01  0.47192119943E+02  0.11364712343E+02  0.48984682215E+02  0.47000000000E+01 0. -1.
          5    1    5    5  503    0 -0.56197780721E+02  0.61274739334E+02  0.37628285511E+02  0.91382504392E+02  0.47000000000E+01 0.  1.
         -5    1    5    5    0  503 -0.11856979264E+02 -0.46660459647E+02 -0.20883031525E+02  0.52687545563E+02  0.47000000000E+01 0.  1.
<mgrwt>
<rscale>  0 0.28650012E+03</rscale>
<asrwt>0</asrwt>
<pdfrwt beam="1">  1        1 0.25504752E-01 0.28650012E+03</pdfrwt>
<pdfrwt beam="2">  1       -1 0.19043282E-01 0.28650012E+03</pdfrwt>
<totfact> 0.40567772E+03</totfact>
</mgrwt>
</event>
<event>
 9    1  0.7926126E-001  0.2803487E+03  0.7818608E-02  0.1095499E+00
          2   -1    0    0  501    0  0.00000000000E+00  0.00000000000E+00  0.12312479995E+04  0.12312479995E+04  0.00000000000E+00 0.  1.
         -2   -1    0    0    0  501 -0.00000000000E+00 -0.00000000000E+00 -0.15958484497E+02  0.15958484497E+02  0.00000000000E+00 0.  1.
         35    2    1    2    0    0  0.00000000000E+00  0.71054273576E-14  0.12152895150E+04  0.12472064840E+04  0.28034872650E+03 0.  0.
         25    2    3    3    0    0  0.34811504065E+02 -0.35198023442E+02  0.44464790482E+03  0.46451569643E+03  0.12494931489E+03 0.  0.
         25    2    3    3    0    0 -0.34811504065E+02  0.35198023442E+02  0.77064161020E+03  0.78269078760E+03  0.12753680231E+03 0.  0.
          5    1    4    4  502    0 -0.51150242036E+01 -0.61049539246E+02  0.37527206827E+03  0.38026888506E+03  0.47000000000E+01 0.  1.
         -5    1    4    4    0  502  0.39926528269E+02  0.25851515803E+02  0.69375836550E+02  0.84246811370E+02  0.47000000000E+01 0.  1.
          5    1    5    5  503    0  0.34333922796E+02  0.52426928294E+02  0.43667091670E+03  0.44117001321E+03  0.47000000000E+01 0.  1.
         -5    1    5    5    0  503 -0.69145426862E+02 -0.17228904852E+02  0.33397069350E+03  0.34152077439E+03  0.47000000000E+01 0.  1.
<mgrwt>
<rscale>  0 0.28034873E+03</rscale>
<asrwt>0</asrwt>
<pdfrwt beam="1">  1        2 0.18942269E+00 0.28034873E+03</pdfrwt>
<pdfrwt beam="2">  1       -2 0.24551524E-02 0.28034873E+03</pdfrwt>
<totfact> 0.10943121E+04</totfact>
</mgrwt>
</event>
<event>
 9    1  0.7926126E-001  0.2863730E+03  0.7818608E-02  0.1092258E+00
          1   -1    0    0  501    0  0.00000000000E+00  0.00000000000E+00  0.19669237729E+02  0.19669237729E+02  0.00000000000E+00 0.  1.
         -1   -1    0    0    0  501 -0.00000000000E+00 -0.00000000000E+00 -0.10423569814E+04  0.10423569814E+04  0.00000000000E+00 0.  1.
         35    2    1    2    0    0  0.00000000000E+00 -0.14210854715E-13 -0.10226877437E+04  0.10620262192E+04  0.28637295449E+03 0.  0.
         25    2    3    3    0    0  0.11117415650E+02 -0.69594488257E+02 -0.50322867801E+03  0.52320462794E+03  0.12464746527E+03 0.  0.
         25    2    3    3    0    0 -0.11117415650E+02  0.69594488257E+02 -0.51945906570E+03  0.53882159123E+03  0.12459533102E+03 0.  0.
          5    1    4    4  502    0 -0.52209829976E+02 -0.66208402788E+01 -0.21638817359E+03  0.22274567008E+03  0.47000000000E+01 0.  1.
         -5    1    4    4    0  502  0.63327245627E+02 -0.62973647978E+02 -0.28684050443E+03  0.30045895786E+03  0.47000000000E+01 0.  1.
          5    1    5    5  503    0  0.47517737174E+02  0.46718361916E+02 -0.15272320458E+03  0.16669435474E+03  0.47000000000E+01 0.  1.
         -5    1    5    5    0  503 -0.58635152825E+02  0.22876126342E+02 -0.36673586112E+03  0.37212723649E+03  0.47000000000E+01 0.  1.
<mgrwt>
<rscale>  0 0.28637295E+03</rscale>
<asrwt>0</asrwt>
<pdfrwt beam="1">  1        1 0.30260359E-02 0.28637295E+03</pdfrwt>
<pdfrwt beam="2">  1       -1 0.16036265E+00 0.28637295E+03</pdfrwt>
<totfact> 0.10652864E+03</totfact>
</mgrwt>
</event>
<event>
 9    1  0.7926126E-001  0.2765411E+03  0.7818608E-02  0.1097593E+00
          2   -1    0    0  501    0  0.00000000000E+00  0.00000000000E+00  0.10436601357E+03  0.10436601357E+03  0.00000000000E+00 0. -1.
         -2   -1    0    0    0  501 -0.00000000000E+00 -0.00000000000E+00 -0.18318936540E+03  0.18318936540E+03  0.00000000000E+00 0. -1.
         35    2    1    2    0    0  0.00000000000E+00  0.00000000000E+00 -0.78823351830E+02  0.28755537897E+03  0.27654109131E+03 0.  0.
         25    2    3    3    0    0 -0.34803467412E+02 -0.35582498132E+02 -0.63731121649E+01  0.13442525426E+03  0.12470820705E+03 0.  0.
         25    2    3    3    0    0  0.34803467412E+02  0.35582498132E+02 -0.72450239665E+02  0.15313012471E+03  0.12538900410E+03 0.  0.
          5    1    4    4  502    0  0.28806061326E+02  0.29765120957E+02  0.65523277909E+01  0.42199225042E+02  0.47000000000E+01 0. -1.
         -5    1    4    4    0  502 -0.63609528738E+02 -0.65347619088E+02 -0.12925439956E+02  0.92226029215E+02  0.47000000000E+01 0. -1.
          5    1    5    5  503    0  0.32744161652E+02 -0.35441335095E+02 -0.65631188874E+02  0.81595412301E+02  0.47000000000E+01 0.  1.
         -5    1    5    5    0  503  0.20593057596E+01  0.71023833226E+02 -0.68190507906E+01  0.71534712413E+02  0.47000000000E+01 0.  1.
<mgrwt>
<rscale>  0 0.27654109E+03</rscale>
<asrwt>0</asrwt>
<pdfrwt beam="1">  1        2 0.16056310E-01 0.27654109E+03</pdfrwt>
<pdfrwt beam="2">  1       -2 0.28182979E-01 0.27654109E+03</pdfrwt>
<totfact> 0.40953668E+03</totfact>
</mgrwt>
</event>
<event>
 9    1  0.7926126E-001  0.2754264E+03  0.7818608E-02  0.1098213E+00
         -1   -1    0    0    0  501 -0.00000000000E+00  0.00000000000E+00  0.21535508233E+02  0.21535508233E+02  0.00000000000E+00 0. -1.
          1   -1    0    0  501    0  0.00000000000E+00 -0.00000000000E+00 -0.88063537395E+03  0.88063537395E+03  0.00000000000E+00 0. -1.
         35    2    1    2    0    0  0.71054273576E-14  0.00000000000E+00 -0.85909986571E+03  0.90217088218E+03  0.27542643552E+03 0.  0.
         25    2    3    3    0    0  0.36774141033E+02 -0.19537613649E+01 -0.57118232359E+03  0.58595759866E+03  0.12546276742E+03 0.  0.
         25    2    3    3    0    0 -0.36774141033E+02  0.19537613649E+01 -0.28791754212E+03  0.31621328352E+03  0.12545188313E+03 0.  0.
          5    1    4    4  502    0 -0.21091199282E+01  0.36673275329E+02 -0.51834866913E+02  0.63704952226E+02  0.47000000000E+01 0. -1.
         -5    1    4    4    0  502  0.38883260961E+02 -0.38627036694E+02 -0.51934745668E+03  0.52225264643E+03  0.47000000000E+01 0. -1.
          5    1    5    5  503    0  0.86649128889E+01 -0.20086829844E+02  0.14614371587E+01  0.22422917899E+02  0.47000000000E+01 0. -1.
         -5    1    5    5    0  503 -0.45439053922E+02  0.22040591209E+02 -0.28937897928E+03  0.29379036562E+03  0.47000000000E+01 0. -1.
<mgrwt>
<rscale>  0 0.27542644E+03</rscale>
<asrwt>0</asrwt>
<pdfrwt beam="1">  1        1 0.13548236E+00 0.27542644E+03</pdfrwt>
<pdfrwt beam="2">  1       -1 0.33131553E-02 0.27542644E+03</pdfrwt>
<totfact> 0.64335790E+03</totfact>
</mgrwt>
</event>
<event>
 9    1  0.7926126E-001  0.2700259E+03  0.7818608E-02  0.1101265E+00
          2   -1    0    0  501    0  0.00000000000E+00  0.00000000000E+00  0.91572540064E+03  0.91572540064E+03  0.00000000000E+00 0. -1.
         -2   -1    0    0    0  501 -0.00000000000E+00 -0.00000000000E+00 -0.19906066224E+02  0.19906066224E+02  0.00000000000E+00 0. -1.
         35    2    1    2    0    0  0.00000000000E+00 -0.35527136788E-14  0.89581933441E+03  0.93563146686E+03  0.27002585408E+03 0.  0.
         25    2    3    3    0    0 -0.31227231580E+02 -0.27761310929E+02  0.49599275703E+03  0.51346642025E+03  0.12606791551E+03 0.  0.
         25    2    3    3    0    0  0.31227231580E+02  0.27761310929E+02  0.39982657739E+03  0.42216504661E+03  0.12890385650E+03 0.  0.
          5    1    4    4  502    0  0.27804949186E+02 -0.30684888569E+02  0.38830705465E+03  0.39053698451E+03  0.47000000000E+01 0. -1.
         -5    1    4    4    0  502 -0.59032180766E+02  0.29235776395E+01  0.10768570238E+03  0.12292943573E+03  0.47000000000E+01 0. -1.
          5    1    5    5  503    0  0.81535733550E+02  0.13715505735E+02  0.25708685315E+03  0.27009615141E+03  0.47000000000E+01 0. -1.
         -5    1    5    5    0  503 -0.50308501970E+02  0.14045805194E+02  0.14273972424E+03  0.15206889521E+03  0.47000000000E+01 0. -1.
<mgrwt>
<rscale>  0 0.27002585E+03</rscale>
<asrwt>0</asrwt>
<pdfrwt beam="1">  1        2 0.14088080E+00 0.27002585E+03</pdfrwt>
<pdfrwt beam="2">  1       -2 0.30624724E-02 0.27002585E+03</pdfrwt>
<totfact> 0.12142005E+04</totfact>
</mgrwt>
</event>
<event>
 9    1  0.7926126E-001  0.2759622E+03  0.7818608E-02  0.1097915E+00
         -2   -1    0    0    0  501 -0.00000000000E+00  0.00000000000E+00  0.12169138873E+03  0.12169138873E+03  0.00000000000E+00 0. -1.
          2   -1    0    0  501    0  0.00000000000E+00 -0.00000000000E+00 -0.15645138136E+03  0.15645138136E+03  0.00000000000E+00 0. -1.
         35    2    1    2    0    0 -0.14210854715E-13  0.19984014443E-14 -0.34759992634E+02  0.27814277009E+03  0.27596221383E+03 0.  0.
         25    2    3    3    0    0  0.61275356986E+02  0.15753069787E+01 -0.81753524634E+01  0.13896707001E+03  0.12445022778E+03 0.  0.
         25    2    3    3    0    0 -0.61275356986E+02 -0.15753069787E+01 -0.26584640171E+02  0.13917570007E+03  0.12209005460E+03 0.  0.
          5    1    4    4  502    0  0.43255899180E+02 -0.54033823625E+02 -0.31067223939E+02  0.76013086457E+02  0.47000000000E+01 0. -1.
         -5    1    4    4    0  502  0.18019457806E+02  0.55609130604E+02  0.22891871475E+02  0.62953983558E+02  0.47000000000E+01 0. -1.
          5    1    5    5  503    0 -0.64129219882E+02  0.59671991638E+00 -0.70177701179E+02  0.95183573478E+02  0.47000000000E+01 0. -1.
         -5    1    5    5    0  503  0.28538628955E+01 -0.21720268950E+01  0.43593061009E+02  0.43992126595E+02  0.47000000000E+01 0. -1.
<mgrwt>
<rscale>  0 0.27596221E+03</rscale>
<asrwt>0</asrwt>
<pdfrwt beam="1">  1        2 0.24069443E-01 0.27596221E+03</pdfrwt>
<pdfrwt beam="2">  1       -2 0.18721752E-01 0.27596221E+03</pdfrwt>
<totfact> 0.52514668E+03</totfact>
</mgrwt>
</event>
<event>
 9    1  0.7926126E-001  0.2739868E+03  0.7818608E-02  0.1099019E+00
          1   -1    0    0  501    0  0.00000000000E+00  0.00000000000E+00  0.87824144323E+01  0.87824144323E+01  0.00000000000E+00 0. -1.
         -1   -1    0    0    0  501 -0.00000000000E+00 -0.00000000000E+00 -0.21369063083E+04  0.21369063083E+04  0.00000000000E+00 0. -1.
         35    2    1    2    0    0  0.00000000000E+00 -0.35527136788E-14 -0.21281238939E+04  0.21456887227E+04  0.27398683766E+03 0.  0.
         25    2    3    3    0    0 -0.50646971576E+02  0.23630573518E+02 -0.92918412555E+03  0.93900095187E+03  0.12335367324E+03 0.  0.
         25    2    3    3    0    0  0.50646971576E+02 -0.23630573518E+02 -0.11989397683E+04  0.12066877709E+04  0.12456038119E+03 0.  0.
          5    1    4    4  502    0 -0.23958411772E+02  0.37954973010E+02 -0.10550674871E+03  0.11475342912E+03  0.47000000000E+01 0.  1.
         -5    1    4    4    0  502 -0.26688559804E+02 -0.14324399492E+02 -0.82367737684E+03  0.82424752275E+03  0.47000000000E+01 0.  1.
          5    1    5    5  503    0  0.64715660496E+02  0.23677546806E+01 -0.11256541129E+04  0.11275251637E+04  0.47000000000E+01 0. -1.
         -5    1    5    5    0  503 -0.14068688920E+02 -0.25998328198E+02 -0.73285655448E+02  0.79162607154E+02  0.47000000000E+01 0. -1.
<mgrwt>
<rscale>  0 0.27398684E+03</rscale>
<asrwt>0</asrwt>
<pdfrwt beam="1">  1        1 0.13511405E-02 0.27398684E+03</pdfrwt>
<pdfrwt beam="2">  1       -1 0.32875486E+00 0.27398684E+03</pdfrwt>
<totfact> 0.26896789E+02</totfact>
</mgrwt>
</event>
<event>
 9    1  0.7926126E-001  0.3053255E+03  0.7818608E-02  0.1082608E+00
         -2   -1    0    0    0  501 -0.00000000000E+00  0.00000000000E+00  0.51951789588E+02  0.51951789588E+02  0.00000000000E+00 0. -1.
          2   -1    0    0  501    0  0.00000000000E+00 -0.00000000000E+00 -0.44860646554E+03  0.44860646554E+03  0.00000000000E+00 0. -1.
         35    2    1    2    0    0 -0.14210854715E-13  0.14210854715E-13 -0.39665467595E+03  0.50055825513E+03  0.30532545721E+03 0.  0.
         25    2    3    3    0    0  0.65043538345E+02 -0.57500568604E+02 -0.27265256907E+03  0.31202248208E+03  0.12442519291E+03 0.  0.
         25    2    3    3    0    0 -0.65043538345E+02  0.57500568604E+02 -0.12400210688E+03  0.18853577305E+03  0.11239322906E+03 0.  0.
          5    1    4    4  502    0  0.79570172561E+02 -0.54671372313E+02 -0.27898399378E+03  0.29525333207E+03  0.47000000000E+01 0. -1.
         -5    1    4    4    0  502 -0.14526634216E+02 -0.28291962914E+01  0.63314247063E+01  0.16769150012E+02  0.47000000000E+01 0. -1.
          5    1    5    5  503    0 -0.54812208297E+02  0.63085056878E+02 -0.14303583665E+03  0.16572701393E+03  0.47000000000E+01 0.  1.
         -5    1    5    5    0  503 -0.10231330048E+02 -0.55844882744E+01  0.19033729768E+02  0.22808759122E+02  0.47000000000E+01 0.  1.
<mgrwt>
<rscale>  0 0.30532546E+03</rscale>
<asrwt>0</asrwt>
<pdfrwt beam="1">  1        2 0.69016376E-01 0.30532546E+03</pdfrwt>
<pdfrwt beam="2">  1       -2 0.79925834E-02 0.30532546E+03</pdfrwt>
<totfact> 0.66506541E+03</totfact>
</mgrwt>
</event>
<event>
 9    1  0.7926126E-001  0.2733574E+03  0.7818608E-02  0.1099373E+00
          2   -1    0    0  501    0  0.00000000000E+00  0.00000000000E+00  0.48798558377E+02  0.48798558377E+02  0.00000000000E+00 0.  1.
         -2   -1    0    0    0  501 -0.00000000000E+00 -0.00000000000E+00 -0.38282001694E+03  0.38282001694E+03  0.00000000000E+00 0.  1.
         35    2    1    2    0    0 -0.71054273576E-14  0.00000000000E+00 -0.33402145856E+03  0.43161857531E+03  0.27335738471E+03 0.  0.
         25    2    3    3    0    0 -0.24032992742E+02  0.39769523789E+02 -0.15047706811E+03  0.20454976568E+03  0.13052991554E+03 0.  0.
         25    2    3    3    0    0  0.24032992742E+02 -0.39769523789E+02 -0.18354439045E+03  0.22706880963E+03  0.12534951647E+03 0.  0.
          5    1    4    4  502    0 -0.43421134940E+02  0.80672692461E+01 -0.15987698332E+03  0.16593135806E+03  0.47000000000E+01 0.  1.
         -5    1    4    4    0  502  0.19388142198E+02  0.31702254543E+02  0.93999152130E+01  0.38618407619E+02  0.47000000000E+01 0.  1.
          5    1    5    5  503    0 -0.29662328381E+02  0.30399930332E+02 -0.81360492844E+02  0.91900104924E+02  0.47000000000E+01 0.  1.
         -5    1    5    5    0  503  0.53695321123E+02 -0.70169454122E+02 -0.10218389761E+03  0.13516870471E+03  0.47000000000E+01 0.  1.
<mgrwt>
<rscale>  0 0.27335738E+03</rscale>
<asrwt>0</asrwt>
<pdfrwt beam="1">  1        2 0.75074706E-02 0.27335738E+03</pdfrwt>
<pdfrwt beam="2">  1       -2 0.58895387E-01 0.27335738E+03</pdfrwt>
<totfact> 0.25282050E+03</totfact>
</mgrwt>
</event>
<event>
 9    1  0.7926126E-001  0.2760566E+03  0.7818608E-02  0.1097862E+00
          2   -1    0    0  501    0  0.00000000000E+00  0.00000000000E+00  0.76751122071E+03  0.76751122071E+03  0.00000000000E+00 0. -1.
         -2   -1    0    0    0  501 -0.00000000000E+00 -0.00000000000E+00 -0.24822843922E+02  0.24822843922E+02  0.00000000000E+00 0. -1.
         35    2    1    2    0    0  0.00000000000E+00 -0.71054273576E-14  0.74268837679E+03  0.79233406463E+03  0.27605659739E+03 0.  0.
         25    2    3    3    0    0 -0.23448433637E+02 -0.38415244619E+02  0.26689416226E+03  0.29892754657E+03  0.12688429449E+03 0.  0.
         25    2    3    3    0    0  0.23448433637E+02  0.38415244619E+02  0.47579421453E+03  0.49340651806E+03  0.12265519733E+03 0.  0.
          5    1    4    4  502    0 -0.46947229783E+02 -0.59012409819E+02  0.25365180793E+03  0.26466551827E+03  0.47000000000E+01 0. -1.
         -5    1    4    4    0  502  0.23498796146E+02  0.20597165200E+02  0.13242354330E+02  0.34262028293E+02  0.47000000000E+01 0. -1.
          5    1    5    5  503    0  0.39161544368E+02 -0.36070499697E+02  0.22561208364E+03  0.23185687350E+03  0.47000000000E+01 0. -1.
         -5    1    5    5    0  503 -0.15713110731E+02  0.74485744317E+02  0.25018213089E+03  0.26154964456E+03  0.47000000000E+01 0. -1.
<mgrwt>
<rscale>  0 0.27605660E+03</rscale>
<asrwt>0</asrwt>
<pdfrwt beam="1">  1        2 0.11807863E+00 0.27605660E+03</pdfrwt>
<pdfrwt beam="2">  1       -2 0.38188997E-02 0.27605660E+03</pdfrwt>
<totfact> 0.10986780E+04</totfact>
</mgrwt>
</event>
<event>
 9    1  0.7926126E-001  0.2729415E+03  0.7818608E-02  0.1099608E+00
         -4   -1    0    0    0  501 -0.00000000000E+00  0.00000000000E+00  0.62705834517E+03  0.62705834517E+03  0.00000000000E+00 0. -1.
          4   -1    0    0  501    0  0.00000000000E+00 -0.00000000000E+00 -0.29701019891E+02  0.29701019891E+02  0.00000000000E+00 0. -1.
         35    2    1    2    0    0  0.00000000000E+00  0.00000000000E+00  0.59735732528E+03  0.65675936506E+03  0.27294154966E+03 0.  0.
         25    2    3    3    0    0  0.44857282984E+02  0.12341930144E+01  0.23838080009E+03  0.27297957138E+03  0.12521478134E+03 0.  0.
         25    2    3    3    0    0 -0.44857282984E+02 -0.12341930144E+01  0.35897652518E+03  0.38377979368E+03  0.12809795212E+03 0.  0.
          5    1    4    4  502    0  0.59429548256E+02 -0.48390877039E+02  0.10693428482E+03  0.13164565870E+03  0.47000000000E+01 0. -1.
         -5    1    4    4    0  502 -0.14572265272E+02  0.49625070053E+02  0.13144651528E+03  0.14133391267E+03  0.47000000000E+01 0. -1.
          5    1    5    5  503    0 -0.53597537625E+02 -0.47292803381E+02  0.11644688039E+03  0.13671602409E+03  0.47000000000E+01 0. -1.
         -5    1    5    5    0  503  0.87402546414E+01  0.46058610366E+02  0.24252964479E+03  0.24706376959E+03  0.47000000000E+01 0. -1.
<mgrwt>
<rscale>  0 0.27294155E+03</rscale>
<asrwt>0</asrwt>
<pdfrwt beam="1">  1        4 0.45693881E-02 0.27294155E+03</pdfrwt>
<pdfrwt beam="2">  1       -4 0.96470505E-01 0.27294155E+03</pdfrwt>
<totfact> 0.47971483E+02</totfact>
</mgrwt>
</event>
<event>
 9    1  0.7926126E-001  0.2771364E+03  0.7818608E-02  0.1097263E+00
          2   -1    0    0  501    0  0.00000000000E+00  0.00000000000E+00  0.34136888873E+03  0.34136888873E+03  0.00000000000E+00 0. -1.
         -2   -1    0    0    0  501 -0.00000000000E+00 -0.00000000000E+00 -0.56247515965E+02  0.56247515965E+02  0.00000000000E+00 0. -1.
         35    2    1    2    0    0  0.71054273576E-14 -0.71054273576E-14  0.28512137276E+03  0.39761640469E+03  0.27713644306E+03 0.  0.
         25    2    3    3    0    0 -0.11165889468E+02 -0.52302604855E+02  0.16626779928E+03  0.21783416806E+03  0.13017873918E+03 0.  0.
         25    2    3    3    0    0  0.11165889468E+02  0.52302604855E+02  0.11885357348E+03  0.17978223663E+03  0.12383554060E+03 0.  0.
          5    1    4    4  502    0 -0.22211895905E+02 -0.94062989750E+02  0.10584616441E+03  0.14341099986E+03  0.47000000000E+01 0.  1.
         -5    1    4    4    0  502  0.11046006437E+02  0.41760384895E+02  0.60421634873E+02  0.74423168204E+02  0.47000000000E+01 0.  1.
          5    1    5    5  503    0 -0.52939792113E+02  0.44038186548E+02  0.50019820796E+02  0.85241163388E+02  0.47000000000E+01 0.  1.
         -5    1    5    5    0  503  0.64105681581E+02  0.82644183071E+01  0.68833752688E+02  0.94541073243E+02  0.47000000000E+01 0.  1.
<mgrwt>
<rscale>  0 0.27713644E+03</rscale>
<asrwt>0</asrwt>
<pdfrwt beam="1">  1        2 0.52518289E-01 0.27713644E+03</pdfrwt>
<pdfrwt beam="2">  1       -2 0.86534642E-02 0.27713644E+03</pdfrwt>
<totfact> 0.78804640E+03</totfact>
</mgrwt>
</event>
<event>
 9    1  0.7926126E-001  0.2767849E+03  0.7818608E-02  0.1097458E+00
         -1   -1    0    0    0  501 -0.00000000000E+00  0.00000000000E+00  0.83052390012E+01  0.83052390012E+01  0.00000000000E+00 0. -1.
          1   -1    0    0  501    0  0.00000000000E+00 -0.00000000000E+00 -0.23060709912E+04  0.23060709912E+04  0.00000000000E+00 0. -1.
         35    2    1    2    0    0  0.71054273576E-14  0.00000000000E+00 -0.22977657522E+04  0.23143762302E+04  0.27678490375E+03 0.  0.
         25    2    3    3    0    0  0.49693532269E+02  0.32351002292E+02 -0.10780270682E+04  0.10867973652E+04  0.12437893285E+03 0.  0.
         25    2    3    3    0    0 -0.49693532269E+02 -0.32351002292E+02 -0.12197386841E+04  0.12275788650E+04  0.12518537386E+03 0.  0.
          5    1    4    4  502    0  0.71646453601E+02  0.35417091047E+02 -0.37713879811E+03  0.38554292587E+03  0.47000000000E+01 0.  1.
         -5    1    4    4    0  502 -0.21952921331E+02 -0.30660887547E+01 -0.70088827005E+03  0.70125443937E+03  0.47000000000E+01 0.  1.
          5    1    5    5  503    0  0.32903957413E+02 -0.27584479300E+00 -0.12817655513E+03  0.13241625953E+03  0.47000000000E+01 0. -1.
         -5    1    5    5    0  503 -0.82597489682E+02 -0.32075157499E+02 -0.10915621289E+04  0.10951626054E+04  0.47000000000E+01 0. -1.
<mgrwt>
<rscale>  0 0.27678490E+03</rscale>
<asrwt>0</asrwt>
<pdfrwt beam="1">  1        1 0.35477998E+00 0.27678490E+03</pdfrwt>
<pdfrwt beam="2">  1       -1 0.12777297E-02 0.27678490E+03</pdfrwt>
<totfact> 0.28075042E+03</totfact>
</mgrwt>
</event>
<event>
 9    1  0.7926126E-001  0.2730774E+03  0.7818608E-02  0.1099531E+00
          2   -1    0    0  501    0  0.00000000000E+00  0.00000000000E+00  0.16198568241E+03  0.16198568241E+03  0.00000000000E+00 0.  1.
         -2   -1    0    0    0  501 -0.00000000000E+00 -0.00000000000E+00 -0.11508925850E+03  0.11508925850E+03  0.00000000000E+00 0.  1.
         35    2    1    2    0    0  0.71054273576E-14 -0.35527136788E-14  0.46896423911E+02  0.27707494091E+03  0.27307736688E+03 0.  0.
         25    2    3    3    0    0 -0.22124043463E+02  0.16666558921E+02  0.72800988782E+02  0.14706745320E+03  0.12474615961E+03 0.  0.
         25    2    3    3    0    0  0.22124043463E+02 -0.16666558921E+02 -0.25904564872E+02  0.13000748770E+03  0.12435293681E+03 0.  0.
          5    1    4    4  502    0 -0.42989925547E+02  0.14722139238E+02 -0.21401410912E+02  0.50447849025E+02  0.47000000000E+01 0.  1.
         -5    1    4    4    0  502  0.20865882084E+02  0.19444196840E+01  0.94202399695E+02  0.96619604177E+02  0.47000000000E+01 0.  1.
          5    1    5    5  503    0 -0.36965521310E+02  0.29037273335E+02  0.78671604590E+01  0.47891494257E+02  0.47000000000E+01 0. -1.
         -5    1    5    5    0  503  0.59089564773E+02 -0.45703832256E+02 -0.33771725331E+02  0.82115993447E+02  0.47000000000E+01 0. -1.
<mgrwt>
<rscale>  0 0.27307737E+03</rscale>
<asrwt>0</asrwt>
<pdfrwt beam="1">  1        2 0.24920874E-01 0.27307737E+03</pdfrwt>
<pdfrwt beam="2">  1       -2 0.17706040E-01 0.27307737E+03</pdfrwt>
<totfact> 0.55480169E+03</totfact>
</mgrwt>
</event>
<event>
 9    1  0.7926126E-001  0.2734682E+03  0.7818608E-02  0.1099311E+00
         -2   -1    0    0    0  501 -0.00000000000E+00  0.00000000000E+00  0.19249090867E+02  0.19249090867E+02  0.00000000000E+00 0. -1.
          2   -1    0    0  501    0  0.00000000000E+00 -0.00000000000E+00 -0.97127785846E+03  0.97127785846E+03  0.00000000000E+00 0. -1.
         35    2    1    2    0    0 -0.35527136788E-14  0.00000000000E+00 -0.95202876759E+03  0.99052694933E+03  0.27346821208E+03 0.  0.
         25    2    3    3    0    0  0.56606150206E+01  0.39964178732E+02 -0.61597852082E+03  0.62976018244E+03  0.12465621174E+03 0.  0.
         25    2    3    3    0    0 -0.56606150206E+01 -0.39964178732E+02 -0.33605024677E+03  0.36076676689E+03  0.12487479166E+03 0.  0.
          5    1    4    4  502    0 -0.38379459325E+02 -0.61730445155E+01 -0.45289614612E+03  0.45458563390E+03  0.47000000000E+01 0. -1.
         -5    1    4    4    0  502  0.44040074346E+02  0.46137223247E+02 -0.16308237470E+03  0.17517454854E+03  0.47000000000E+01 0. -1.
          5    1    5    5  503    0  0.15311454140E+02  0.83625817170E-01 -0.30568892562E+03  0.30610824371E+03  0.47000000000E+01 0.  1.
         -5    1    5    5    0  503 -0.20972069160E+02 -0.40047804549E+02 -0.30361321153E+02  0.54658523180E+02  0.47000000000E+01 0.  1.
<mgrwt>
<rscale>  0 0.27346821E+03</rscale>
<asrwt>0</asrwt>
<pdfrwt beam="1">  1        2 0.14942736E+00 0.27346821E+03</pdfrwt>
<pdfrwt beam="2">  1       -2 0.29613987E-02 0.27346821E+03</pdfrwt>
<totfact> 0.11780412E+04</totfact>
</mgrwt>
</event>
<event>
 9    1  0.7926126E-001  0.2752330E+03  0.7818608E-02  0.1098321E+00
          1   -1    0    0  501    0  0.00000000000E+00  0.00000000000E+00  0.21836493270E+02  0.21836493270E+02  0.00000000000E+00 0.  1.
         -1   -1    0    0    0  501 -0.00000000000E+00 -0.00000000000E+00 -0.86727743780E+03  0.86727743780E+03  0.00000000000E+00 0.  1.
         35    2    1    2    0    0 -0.71054273576E-14  0.71054273576E-14 -0.84544094453E+03  0.88911393107E+03  0.27523297719E+03 0.  0.
         25    2    3    3    0    0 -0.37835214960E+02  0.15987374644E+02 -0.57092731853E+03  0.58529004462E+03  0.12214472419E+03 0.  0.
         25    2    3    3    0    0  0.37835214960E+02 -0.15987374644E+02 -0.27451362600E+03  0.30382388645E+03  0.12354806141E+03 0.  0.
          5    1    4    4  502    0 -0.11229697725E+02  0.62511612368E+02 -0.42531514538E+03  0.43005682262E+03  0.47000000000E+01 0. -1.
         -5    1    4    4    0  502 -0.26605517235E+02 -0.46524237724E+02 -0.14561217315E+03  0.15523322200E+03  0.47000000000E+01 0. -1.
          5    1    5    5  503    0  0.24486668944E+02  0.80375891861E+01 -0.27469374636E+03  0.27594010960E+03  0.47000000000E+01 0. -1.
         -5    1    5    5    0  503  0.13348546017E+02 -0.24024963831E+02  0.18012036591E+00  0.27883776845E+02  0.47000000000E+01 0. -1.
<mgrwt>
<rscale>  0 0.27523298E+03</rscale>
<asrwt>0</asrwt>
<pdfrwt beam="1">  1        1 0.33594614E-02 0.27523298E+03</pdfrwt>
<pdfrwt beam="2">  1       -1 0.13342726E+00 0.27523298E+03</pdfrwt>
<totfact> 0.14824174E+03</totfact>
</mgrwt>
</event>
<event>
 9    1  0.7926126E-001  0.2721576E+03  0.7818608E-02  0.1100051E+00
         -2   -1    0    0    0  501 -0.00000000000E+00  0.00000000000E+00  0.84824733214E+02  0.84824733214E+02  0.00000000000E+00 0. -1.
          2   -1    0    0  501    0  0.00000000000E+00 -0.00000000000E+00 -0.21830237265E+03  0.21830237265E+03  0.00000000000E+00 0. -1.
         35    2    1    2    0    0  0.71054273576E-14 -0.71054273576E-14 -0.13347763944E+03  0.30312710587E+03  0.27215760522E+03 0.  0.
         25    2    3    3    0    0 -0.51382996488E+02  0.39428477353E+01 -0.52222772282E+02  0.14530774354E+03  0.12542473445E+03 0.  0.
         25    2    3    3    0    0  0.51382996488E+02 -0.39428477353E+01 -0.81254867154E+02  0.15781936233E+03  0.12509532091E+03 0.  0.
          5    1    4    4  502    0  0.10743516822E+02  0.34431976687E+02  0.22960404461E+02  0.43014582938E+02  0.47000000000E+01 0. -1.
         -5    1    4    4    0  502 -0.62126513311E+02 -0.30489128952E+02 -0.75183176743E+02  0.10229316060E+03  0.47000000000E+01 0. -1.
          5    1    5    5  503    0  0.73725417593E+02  0.24821041605E+02 -0.91013637753E+02  0.11982108981E+03  0.47000000000E+01 0. -1.
         -5    1    5    5    0  503 -0.22342421105E+02 -0.28763889341E+02  0.97587705990E+01  0.37998272519E+02  0.47000000000E+01 0. -1.
<mgrwt>
<rscale>  0 0.27215761E+03</rscale>
<asrwt>0</asrwt>
<pdfrwt beam="1">  1        2 0.33584980E-01 0.27215761E+03</pdfrwt>
<pdfrwt beam="2">  1       -2 0.13049959E-01 0.27215761E+03</pdfrwt>
<totfact> 0.66162704E+03</totfact>
</mgrwt>
</event>
<event>
 9    1  0.7926126E-001  0.2658871E+03  0.7818608E-02  0.1103657E+00
         -2   -1    0    0    0  501 -0.00000000000E+00  0.00000000000E+00  0.15612247843E+03  0.15612247843E+03  0.00000000000E+00 0.  1.
          2   -1    0    0  501    0  0.00000000000E+00 -0.00000000000E+00 -0.11320595117E+03  0.11320595117E+03  0.00000000000E+00 0.  1.
         35    2    1    2    0    0  0.35527136788E-14  0.00000000000E+00  0.42916527253E+02  0.26932842960E+03  0.26588714651E+03 0.  0.
         25    2    3    3    0    0  0.15871637832E+02  0.39031653248E+02  0.79787464398E+00  0.13203475898E+03  0.12512858240E+03 0.  0.
         25    2    3    3    0    0 -0.15871637832E+02 -0.39031653248E+02  0.42118652609E+02  0.13729367062E+03  0.12369394590E+03 0.  0.
          5    1    4    4  502    0  0.42828630536E+02 -0.23197240798E+02  0.30702977542E+02  0.57768212749E+02  0.47000000000E+01 0. -1.
         -5    1    4    4    0  502 -0.26956992704E+02  0.62228894046E+02 -0.29905102898E+02  0.74266546232E+02  0.47000000000E+01 0. -1.
          5    1    5    5  503    0 -0.94563327018E+01  0.43553909973E+02  0.13145897476E+01  0.44835069403E+02  0.47000000000E+01 0. -1.
         -5    1    5    5    0  503 -0.64153051299E+01 -0.82585563221E+02  0.40804062862E+02  0.92458601214E+02  0.47000000000E+01 0. -1.
<mgrwt>
<rscale>  0 0.26588715E+03</rscale>
<asrwt>0</asrwt>
<pdfrwt beam="1">  1        2 0.17416300E-01 0.26588715E+03</pdfrwt>
<pdfrwt beam="2">  1       -2 0.24018843E-01 0.26588715E+03</pdfrwt>
<totfact> 0.49390387E+03</totfact>
</mgrwt>
</event>
<event>
 9    1  0.7926126E-001  0.2754526E+03  0.7818608E-02  0.1098199E+00
          1   -1    0    0  501    0  0.00000000000E+00  0.00000000000E+00  0.12445585197E+03  0.12445585197E+03  0.00000000000E+00 0. -1.
         -1   -1    0    0    0  501 -0.00000000000E+00 -0.00000000000E+00 -0.15241171698E+03  0.15241171698E+03  0.00000000000E+00 0. -1.
         35    2    1    2    0    0 -0.35527136788E-14 -0.14210854715E-13 -0.27955865014E+02  0.27686756895E+03  0.27545257368E+03 0.  0.
         25    2    3    3    0    0  0.17853329757E+02  0.42485981804E+02  0.21215028588E+02  0.13461303151E+03  0.12468677068E+03 0.  0.
         25    2    3    3    0    0 -0.17853329757E+02 -0.42485981804E+02 -0.49170893602E+02  0.14225453744E+03  0.12527879553E+03 0.  0.
          5    1    4    4  502    0  0.51610891105E+02 -0.18774450218E+02 -0.12959403924E+02  0.56623318621E+02  0.47000000000E+01 0.  1.
         -5    1    4    4    0  502 -0.33757561348E+02  0.61260432022E+02  0.34174432512E+02  0.77989712894E+02  0.47000000000E+01 0.  1.
          5    1    5    5  503    0 -0.27467710410E+02  0.30920665451E+02 -0.53688377783E+02  0.67934487383E+02  0.47000000000E+01 0. -1.
         -5    1    5    5    0  503  0.96143806531E+01 -0.73406647256E+02  0.45174841804E+01  0.74320050054E+02  0.47000000000E+01 0. -1.
<mgrwt>
<rscale>  0 0.27545257E+03</rscale>
<asrwt>0</asrwt>
<pdfrwt beam="1">  1        1 0.19147054E-01 0.27545257E+03</pdfrwt>
<pdfrwt beam="2">  1       -1 0.23447956E-01 0.27545257E+03</pdfrwt>
<totfact> 0.41645234E+03</totfact>
</mgrwt>
</event>
<event>
 9    1  0.7926126E-001  0.2741843E+03  0.7818608E-02  0.1098908E+00
          2   -1    0    0  501    0  0.00000000000E+00  0.00000000000E+00  0.19327614602E+04  0.19327614602E+04  0.00000000000E+00 0. -1.
         -2   -1    0    0    0  501 -0.00000000000E+00 -0.00000000000E+00 -0.97240454650E+01  0.97240454650E+01  0.00000000000E+00 0. -1.
         35    2    1    2    0    0  0.00000000000E+00  0.00000000000E+00  0.19230374147E+04  0.19424855057E+04  0.27418431984E+03 0.  0.
         25    2    3    3    0    0  0.36532725599E+02  0.20031171056E+02  0.64863582835E+03  0.66176994059E+03  0.12439906990E+03 0.  0.
         25    2    3    3    0    0 -0.36532725599E+02 -0.20031171056E+02  0.12744015864E+04  0.12807155651E+04  0.11998778021E+03 0.  0.
          5    1    4    4  502    0 -0.14056978711E+02  0.62191459443E+02  0.27390456494E+03  0.28126709188E+03  0.47000000000E+01 0. -1.
         -5    1    4    4    0  502  0.50589704310E+02 -0.42160288388E+02  0.37473126341E+03  0.38050284871E+03  0.47000000000E+01 0. -1.
          5    1    5    5  503    0 -0.28941006290E+02  0.33435031962E+02  0.10012625129E+04  0.10022495662E+04  0.47000000000E+01 0. -1.
         -5    1    5    5    0  503 -0.75917193085E+01 -0.53466203017E+02  0.27313907344E+03  0.27846599883E+03  0.47000000000E+01 0. -1.
<mgrwt>
<rscale>  0 0.27418432E+03</rscale>
<asrwt>0</asrwt>
<pdfrwt beam="1">  1        2 0.29734761E+00 0.27418432E+03</pdfrwt>
<pdfrwt beam="2">  1       -2 0.14960085E-02 0.27418432E+03</pdfrwt>
<totfact> 0.95456831E+03</totfact>
</mgrwt>
</event>
<event>
 9    1  0.7926126E-001  0.2767801E+03  0.7818608E-02  0.1097461E+00
         -1   -1    0    0    0  501 -0.00000000000E+00  0.00000000000E+00  0.36805541432E+02  0.36805541432E+02  0.00000000000E+00 0. -1.
          1   -1    0    0  501    0  0.00000000000E+00 -0.00000000000E+00 -0.52035096831E+03  0.52035096831E+03  0.00000000000E+00 0. -1.
         35    2    1    2    0    0 -0.71054273576E-14  0.00000000000E+00 -0.48354542687E+03  0.55715650974E+03  0.27678005075E+03 0.  0.
         25    2    3    3    0    0  0.55926300389E+02  0.21153378187E+01 -0.21102383915E+03  0.25244455214E+03  0.12674764489E+03 0.  0.
         25    2    3    3    0    0 -0.55926300389E+02 -0.21153378187E+01 -0.27252158772E+03  0.30471195760E+03  0.12429455177E+03 0.  0.
          5    1    4    4  502    0  0.12691150692E+01  0.37460293593E+02 -0.72352719139E+01  0.38461973542E+02  0.47000000000E+01 0.  1.
         -5    1    4    4    0  502  0.54657185320E+02 -0.35344955774E+02 -0.20378856724E+03  0.21398257859E+03  0.47000000000E+01 0.  1.
          5    1    5    5  503    0 -0.49897467793E+02 -0.44315770458E+02 -0.66702233182E+02  0.94471809102E+02  0.47000000000E+01 0. -1.
         -5    1    5    5    0  503 -0.60288325956E+01  0.42200432639E+02 -0.20581935454E+03  0.21024014850E+03  0.47000000000E+01 0. -1.
<mgrwt>
<rscale>  0 0.27678005E+03</rscale>
<asrwt>0</asrwt>
<pdfrwt beam="1">  1        1 0.80053992E-01 0.27678005E+03</pdfrwt>
<pdfrwt beam="2">  1       -1 0.56623912E-02 0.27678005E+03</pdfrwt>
<totfact> 0.62154411E+03</totfact>
</mgrwt>
</event>
<event>
 9    1  0.7926126E-001  0.2753902E+03  0.7818608E-02  0.1098234E+00
         -1   -1    0    0    0  501 -0.00000000000E+00  0.00000000000E+00  0.16339554212E+03  0.16339554212E+03  0.00000000000E+00 0.  1.
          1   -1    0    0  501    0  0.00000000000E+00 -0.00000000000E+00 -0.11603706878E+03  0.11603706878E+03  0.00000000000E+00 0.  1.
         35    2    1    2    0    0  0.00000000000E+00 -0.71054273576E-14  0.47358473337E+02  0.27943261089E+03  0.27539019415E+03 0.  0.
         25    2    3    3    0    0  0.45892118044E+02  0.33788326338E+02  0.44464903135E+02  0.14334013100E+03  0.12378016016E+03 0.  0.
         25    2    3    3    0    0 -0.45892118044E+02 -0.33788326338E+02  0.28935702026E+01  0.13609247989E+03  0.12355182248E+03 0.  0.
          5    1    4    4  502    0 -0.38106668251E+02  0.19836346059E+02 -0.69334002433E+01  0.43769405172E+02  0.47000000000E+01 0.  1.
         -5    1    4    4    0  502  0.83998786295E+02  0.13951980279E+02  0.51398303378E+02  0.99570725832E+02  0.47000000000E+01 0.  1.
          5    1    5    5  503    0 -0.28421568827E+02 -0.54266514766E+02  0.51607854841E+02  0.80237777142E+02  0.47000000000E+01 0. -1.
         -5    1    5    5    0  503 -0.17470549217E+02  0.20478188428E+02 -0.48714284639E+02  0.55854702748E+02  0.47000000000E+01 0. -1.
<mgrwt>
<rscale>  0 0.27539019E+03</rscale>
<asrwt>0</asrwt>
<pdfrwt beam="1">  1        1 0.17851857E-01 0.27539019E+03</pdfrwt>
<pdfrwt beam="2">  1       -1 0.25137776E-01 0.27539019E+03</pdfrwt>
<totfact> 0.40630263E+03</totfact>
</mgrwt>
</event>
<event>
 9    1  0.7926126E-001  0.2752054E+03  0.7818608E-02  0.1098337E+00
         -2   -1    0    0    0  501 -0.00000000000E+00  0.00000000000E+00  0.10755750863E+02  0.10755750863E+02  0.00000000000E+00 0.  1.
          2   -1    0    0  501    0  0.00000000000E+00 -0.00000000000E+00 -0.17604077942E+04  0.17604077942E+04  0.00000000000E+00 0.  1.
         35    2    1    2    0    0  0.35527136788E-14  0.71054273576E-14 -0.17496520434E+04  0.17711635451E+04  0.27520543347E+03 0.  0.
         25    2    3    3    0    0  0.14577104570E+02 -0.55990458920E+02 -0.91607297293E+03  0.92628180618E+03  0.12434174386E+03 0.  0.
         25    2    3    3    0    0 -0.14577104570E+02  0.55990458920E+02 -0.83357907044E+03  0.84488173891E+03  0.12499465031E+03 0.  0.
          5    1    4    4  502    0  0.35091877714E+02  0.25271431284E+01 -0.71340663018E+03  0.71428911256E+03  0.47000000000E+01 0.  1.
         -5    1    4    4    0  502 -0.20514773144E+02 -0.58517602048E+02 -0.20266634275E+03  0.21199269362E+03  0.47000000000E+01 0.  1.
          5    1    5    5  503    0  0.33554027873E+02 -0.25681370661E+02 -0.23257963869E+03  0.23643346616E+03  0.47000000000E+01 0. -1.
         -5    1    5    5    0  503 -0.48131132443E+02  0.81671829581E+02 -0.60099943175E+03  0.60844827275E+03  0.47000000000E+01 0. -1.
<mgrwt>
<rscale>  0 0.27520543E+03</rscale>
<asrwt>0</asrwt>
<pdfrwt beam="1">  1        2 0.27083167E+00 0.27520543E+03</pdfrwt>
<pdfrwt beam="2">  1       -2 0.16547327E-02 0.27520543E+03</pdfrwt>
<totfact> 0.10143635E+04</totfact>
</mgrwt>
</event>
<event>
 9    1  0.7926126E-001  0.2749015E+03  0.7818608E-02  0.1098507E+00
          2   -1    0    0  501    0  0.00000000000E+00  0.00000000000E+00  0.60687294416E+03  0.60687294416E+03  0.00000000000E+00 0.  1.
         -2   -1    0    0    0  501 -0.00000000000E+00 -0.00000000000E+00 -0.31131243764E+02  0.31131243764E+02  0.00000000000E+00 0.  1.
         35    2    1    2    0    0  0.00000000000E+00  0.26645352591E-14  0.57574170039E+03  0.63800418792E+03  0.27490150642E+03 0.  0.
         25    2    3    3    0    0 -0.43117171939E+02 -0.22831964263E+01  0.37869289078E+03  0.40092507611E+03  0.12437165122E+03 0.  0.
         25    2    3    3    0    0  0.43117171939E+02  0.22831964263E+01  0.19704880961E+03  0.23707911181E+03  0.12455508173E+03 0.  0.
          5    1    4    4  502    0 -0.31037816507E+02 -0.47472926822E+02  0.77872172431E+02  0.96453045954E+02  0.47000000000E+01 0. -1.
         -5    1    4    4    0  502 -0.12079355432E+02  0.45189730396E+02  0.30082071835E+03  0.30447203016E+03  0.47000000000E+01 0. -1.
          5    1    5    5  503    0  0.46302082625E+00 -0.78082816345E+01 -0.16592942515E+02  0.18936720722E+02  0.47000000000E+01 0.  1.
         -5    1    5    5    0  503  0.42654151113E+02  0.10091478061E+02  0.21364175213E+03  0.21814239109E+03  0.47000000000E+01 0.  1.
<mgrwt>
<rscale>  0 0.27490151E+03</rscale>
<asrwt>0</asrwt>
<pdfrwt beam="1">  1        2 0.93365060E-01 0.27490151E+03</pdfrwt>
<pdfrwt beam="2">  1       -2 0.47894226E-02 0.27490151E+03</pdfrwt>
<totfact> 0.10360428E+04</totfact>
</mgrwt>
</event>
<event>
 9    1  0.7926126E-001  0.2843949E+03  0.7818608E-02  0.1093312E+00
         -2   -1    0    0    0  501 -0.00000000000E+00  0.00000000000E+00  0.21292357755E+02  0.21292357755E+02  0.00000000000E+00 0.  1.
          2   -1    0    0  501    0  0.00000000000E+00 -0.00000000000E+00 -0.94964201499E+03  0.94964201499E+03  0.00000000000E+00 0.  1.
         35    2    1    2    0    0 -0.71054273576E-14 -0.14210854715E-13 -0.92834965724E+03  0.97093437275E+03  0.28439491924E+03 0.  0.
         25    2    3    3    0    0 -0.55240937603E+01 -0.63530122710E+02 -0.53844151911E+03  0.55656115334E+03  0.12559640044E+03 0.  0.
         25    2    3    3    0    0  0.55240937603E+01  0.63530122710E+02 -0.38990813812E+03  0.41437321940E+03  0.12494085273E+03 0.  0.
          5    1    4    4  502    0  0.52821693381E+02  0.17957396450E+01 -0.21229815595E+03  0.21882859273E+03  0.47000000000E+01 0. -1.
         -5    1    4    4    0  502 -0.58345787141E+02 -0.65325862355E+02 -0.32614336316E+03  0.33773256062E+03  0.47000000000E+01 0. -1.
          5    1    5    5  503    0  0.60985415921E+02  0.40273326559E+02 -0.14896525344E+03  0.16599367012E+03  0.47000000000E+01 0. -1.
         -5    1    5    5    0  503 -0.55461322161E+02  0.23256796151E+02 -0.24094288468E+03  0.24837954928E+03  0.47000000000E+01 0. -1.
<mgrwt>
<rscale>  0 0.28439492E+03</rscale>
<asrwt>0</asrwt>
<pdfrwt beam="1">  1        2 0.14609878E+00 0.28439492E+03</pdfrwt>
<pdfrwt beam="2">  1       -2 0.32757472E-02 0.28439492E+03</pdfrwt>
<totfact> 0.10468661E+04</totfact>
</mgrwt>
</event>
<event>
 9    1  0.7926126E-001  0.2837972E+03  0.7818608E-02  0.1093633E+00
         -3   -1    0    0    0  501 -0.00000000000E+00  0.00000000000E+00  0.99721198499E+03  0.99721198499E+03  0.00000000000E+00 0. -1.
          3   -1    0    0  501    0  0.00000000000E+00 -0.00000000000E+00 -0.20191507772E+02  0.20191507772E+02  0.00000000000E+00 0. -1.
         35    2    1    2    0    0 -0.14210854715E-13 -0.71054273576E-14  0.97702047722E+03  0.10174034928E+04  0.28379720608E+03 0.  0.
         25    2    3    3    0    0 -0.40151766523E+02 -0.55434924696E+02  0.50483974276E+03  0.52420240387E+03  0.12344958130E+03 0.  0.
         25    2    3    3    0    0  0.40151766523E+02  0.55434924696E+02  0.47218073446E+03  0.49320108889E+03  0.12492987176E+03 0.  0.
          5    1    4    4  502    0  0.38781857595E+02 -0.45940624839E+02  0.18421878323E+03  0.19383813759E+03  0.47000000000E+01 0. -1.
         -5    1    4    4    0  502 -0.78933624118E+02 -0.94942998572E+01  0.32062095952E+03  0.33036426628E+03  0.47000000000E+01 0. -1.
          5    1    5    5  503    0 -0.18330743174E+02  0.38332530898E+02  0.38126723510E+03  0.38365634835E+03  0.47000000000E+01 0.  1.
         -5    1    5    5    0  503  0.58482509697E+02  0.17102393798E+02  0.90913499359E+02  0.10954474054E+03  0.47000000000E+01 0.  1.
<mgrwt>
<rscale>  0 0.28379721E+03</rscale>
<asrwt>0</asrwt>
<pdfrwt beam="1">  1        3 0.31063866E-02 0.28379721E+03</pdfrwt>
<pdfrwt beam="2">  1       -3 0.15341719E+00 0.28379721E+03</pdfrwt>
<totfact> 0.39611677E+02</totfact>
</mgrwt>
</event>
<event>
 9    1  0.7926126E-001  0.2728288E+03  0.7818608E-02  0.1099671E+00
          2   -1    0    0  501    0  0.00000000000E+00  0.00000000000E+00  0.10614139282E+04  0.10614139282E+04  0.00000000000E+00 0.  1.
         -2   -1    0    0    0  501 -0.00000000000E+00 -0.00000000000E+00 -0.17532167639E+02  0.17532167639E+02  0.00000000000E+00 0.  1.
         35    2    1    2    0    0  0.00000000000E+00 -0.35527136788E-14  0.10438817605E+04  0.10789460958E+04  0.27282878824E+03 0.  0.
         25    2    3    3    0    0 -0.23917434378E+02 -0.31066044257E+02  0.37050978234E+03  0.39292140240E+03  0.12479017141E+03 0.  0.
         25    2    3    3    0    0  0.23917434378E+02  0.31066044257E+02  0.67337197821E+03  0.68602469343E+03  0.12515157283E+03 0.  0.
          5    1    4    4  502    0  0.46587482058E+02 -0.37041867015E+02  0.17984762822E+03  0.18949868805E+03  0.47000000000E+01 0. -1.
         -5    1    4    4    0  502 -0.70504916436E+02  0.59758227577E+01  0.19066215412E+03  0.20342271435E+03  0.47000000000E+01 0. -1.
          5    1    5    5  503    0  0.29454872325E+02 -0.10568952434E+01  0.63396704866E+03  0.63466921725E+03  0.47000000000E+01 0.  1.
         -5    1    5    5    0  503 -0.55374379468E+01  0.32122939500E+02  0.39404929547E+02  0.51355476180E+02  0.47000000000E+01 0.  1.
<mgrwt>
<rscale>  0 0.27282879E+03</rscale>
<asrwt>0</asrwt>
<pdfrwt beam="1">  1        2 0.16329440E+00 0.27282879E+03</pdfrwt>
<pdfrwt beam="2">  1       -2 0.26972574E-02 0.27282879E+03</pdfrwt>
<totfact> 0.11928246E+04</totfact>
</mgrwt>
</event>
<event>
 9    1  0.7926126E-001  0.2710749E+03  0.7818608E-02  0.1100666E+00
          1   -1    0    0  501    0  0.00000000000E+00  0.00000000000E+00  0.89334565527E+02  0.89334565527E+02  0.00000000000E+00 0.  1.
         -1   -1    0    0    0  501 -0.00000000000E+00 -0.00000000000E+00 -0.20563598015E+03  0.20563598015E+03  0.00000000000E+00 0.  1.
         35    2    1    2    0    0  0.00000000000E+00 -0.14210854715E-13 -0.11630141462E+03  0.29497054568E+03  0.27107490436E+03 0.  0.
         25    2    3    3    0    0 -0.16183423446E+02 -0.29632921440E+02 -0.10035504737E+03  0.16411887111E+03  0.12539479692E+03 0.  0.
         25    2    3    3    0    0  0.16183423446E+02  0.29632921440E+02 -0.15946367255E+02  0.13085167457E+03  0.12541076860E+03 0.  0.
          5    1    4    4  502    0  0.16807707740E+02 -0.69046281529E+02 -0.31014660606E+02  0.77678099905E+02  0.47000000000E+01 0. -1.
         -5    1    4    4    0  502 -0.32991131186E+02  0.39413360089E+02 -0.69340386760E+02  0.86440771204E+02  0.47000000000E+01 0. -1.
          5    1    5    5  503    0  0.69675036470E+02  0.30417707164E+02 -0.97520491868E+01  0.76792187620E+02  0.47000000000E+01 0.  1.
         -5    1    5    5    0  503 -0.53491613024E+02 -0.78478572383E+00 -0.61943180685E+01  0.54059486946E+02  0.47000000000E+01 0.  1.
<mgrwt>
<rscale>  0 0.27107490E+03</rscale>
<asrwt>0</asrwt>
<pdfrwt beam="1">  1        1 0.13743779E-01 0.27107490E+03</pdfrwt>
<pdfrwt beam="2">  1       -1 0.31636304E-01 0.27107490E+03</pdfrwt>
<totfact> 0.38789024E+03</totfact>
</mgrwt>
</event>
<event>
 9    1  0.7926126E-001  0.2771125E+03  0.7818608E-02  0.1097277E+00
          2   -1    0    0  501    0  0.00000000000E+00  0.00000000000E+00  0.65184858574E+03  0.65184858574E+03  0.00000000000E+00 0.  1.
         -2   -1    0    0    0  501 -0.00000000000E+00 -0.00000000000E+00 -0.29451362963E+02  0.29451362963E+02  0.00000000000E+00 0.  1.
         35    2    1    2    0    0  0.00000000000E+00  0.00000000000E+00  0.62239722278E+03  0.68129994870E+03  0.27711246306E+03 0.  0.
         25    2    3    3    0    0  0.24229084777E+02 -0.53789033046E+02  0.29428515780E+03  0.32515494210E+03  0.12506667681E+03 0.  0.
         25    2    3    3    0    0 -0.24229084777E+02  0.53789033046E+02  0.32811206498E+03  0.35614500660E+03  0.12530534672E+03 0.  0.
          5    1    4    4  502    0 -0.41796723483E+02 -0.51250528375E+02  0.10084401805E+03  0.12068632370E+03  0.47000000000E+01 0. -1.
         -5    1    4    4    0  502  0.66025808261E+02 -0.25385046706E+01  0.19344113975E+03  0.20446861840E+03  0.47000000000E+01 0. -1.
          5    1    5    5  503    0 -0.70602552914E+02  0.57530871619E+02  0.23138692016E+03  0.24870970727E+03  0.47000000000E+01 0. -1.
         -5    1    5    5    0  503  0.46373468137E+02 -0.37418385734E+01  0.96725144818E+02  0.10743529933E+03  0.47000000000E+01 0. -1.
<mgrwt>
<rscale>  0 0.27711246E+03</rscale>
<asrwt>0</asrwt>
<pdfrwt beam="1">  1        2 0.10028439E+00 0.27711246E+03</pdfrwt>
<pdfrwt beam="2">  1       -2 0.45309794E-02 0.27711246E+03</pdfrwt>
<totfact> 0.10362870E+04</totfact>
</mgrwt>
</event>
<event>
 9    1  0.7926126E-001  0.2741028E+03  0.7818608E-02  0.1098954E+00
          2   -1    0    0  501    0  0.00000000000E+00  0.00000000000E+00  0.46554258178E+03  0.46554258178E+03  0.00000000000E+00 0. -1.
         -2   -1    0    0    0  501 -0.00000000000E+00 -0.00000000000E+00 -0.40346659489E+02  0.40346659489E+02  0.00000000000E+00 0. -1.
         35    2    1    2    0    0 -0.71054273576E-14 -0.35527136788E-14  0.42519592229E+03  0.50588924127E+03  0.27410281301E+03 0.  0.
         25    2    3    3    0    0 -0.32624201323E+01  0.16910926395E+02  0.11407353007E+03  0.17010660507E+03  0.12500745582E+03 0.  0.
         25    2    3    3    0    0  0.32624201323E+01 -0.16910926395E+02  0.31112239222E+03  0.33578263620E+03  0.12512478976E+03 0.  0.
          5    1    4    4  502    0 -0.39611970296E+02 -0.36282964873E+02  0.81595170283E+02  0.97802983309E+02  0.47000000000E+01 0. -1.
         -5    1    4    4    0  502  0.36349550164E+02  0.53193891268E+02  0.32478359785E+02  0.72303621760E+02  0.47000000000E+01 0. -1.
          5    1    5    5  503    0  0.43380327869E+02 -0.77940017216E+01  0.28125582158E+03  0.28472710879E+03  0.47000000000E+01 0. -1.
         -5    1    5    5    0  503 -0.40117907737E+02 -0.91169246734E+01  0.29866570643E+02  0.51055527406E+02  0.47000000000E+01 0. -1.
<mgrwt>
<rscale>  0 0.27410281E+03</rscale>
<asrwt>0</asrwt>
<pdfrwt beam="1">  1        2 0.71621932E-01 0.27410281E+03</pdfrwt>
<pdfrwt beam="2">  1       -2 0.62071787E-02 0.27410281E+03</pdfrwt>
<totfact> 0.94153873E+03</totfact>
</mgrwt>
</event>
<event>
 9    1  0.7926126E-001  0.2744071E+03  0.7818608E-02  0.1098783E+00
         -1   -1    0    0    0  501 -0.00000000000E+00  0.00000000000E+00  0.25965962303E+03  0.25965962303E+03  0.00000000000E+00 0.  1.
          1   -1    0    0  501    0  0.00000000000E+00 -0.00000000000E+00 -0.72498050203E+02  0.72498050203E+02  0.00000000000E+00 0.  1.
         35    2    1    2    0    0  0.00000000000E+00 -0.71054273576E-14  0.18716157283E+03  0.33215767323E+03  0.27440711643E+03 0.  0.
         25    2    3    3    0    0  0.11331555371E+02 -0.15476361023E+02  0.24506453990E+02  0.12934323357E+03  0.12554355374E+03 0.  0.
         25    2    3    3    0    0 -0.11331555371E+02  0.15476361023E+02  0.16265511884E+03  0.20281443967E+03  0.11962059754E+03 0.  0.
          5    1    4    4  502    0 -0.24426426783E+02  0.38018451875E+02  0.42659143237E+02  0.62321308636E+02  0.47000000000E+01 0.  1.
         -5    1    4    4    0  502  0.35757982153E+02 -0.53494812898E+02 -0.18152689248E+02  0.67021924932E+02  0.47000000000E+01 0.  1.
          5    1    5    5  503    0  0.50881385417E+02  0.17035100560E+02  0.10423073599E+03  0.11732538667E+03  0.47000000000E+01 0. -1.
         -5    1    5    5    0  503 -0.62212940788E+02 -0.15587395376E+01  0.58424382849E+02  0.85489052993E+02  0.47000000000E+01 0. -1.
<mgrwt>
<rscale>  0 0.27440712E+03</rscale>
<asrwt>0</asrwt>
<pdfrwt beam="1">  1        1 0.11153546E-01 0.27440712E+03</pdfrwt>
<pdfrwt beam="2">  1       -1 0.39947634E-01 0.27440712E+03</pdfrwt>
<totfact> 0.34099935E+03</totfact>
</mgrwt>
</event>
<event>
 9    1  0.7926126E-001  0.2813002E+03  0.7818608E-02  0.1094981E+00
          2   -1    0    0  501    0  0.00000000000E+00  0.00000000000E+00  0.67959095216E+02  0.67959095216E+02  0.00000000000E+00 0. -1.
         -2   -1    0    0    0  501 -0.00000000000E+00 -0.00000000000E+00 -0.29109348959E+03  0.29109348959E+03  0.00000000000E+00 0. -1.
         35    2    1    2    0    0  0.00000000000E+00  0.00000000000E+00 -0.22313439437E+03  0.35905258480E+03  0.28130019677E+03 0.  0.
         25    2    3    3    0    0 -0.63382155135E+01  0.24595725242E+02 -0.18701800506E+03  0.22641065313E+03  0.12506369160E+03 0.  0.
         25    2    3    3    0    0  0.63382155135E+01 -0.24595725242E+02 -0.36116389309E+02  0.13264193167E+03  0.12507743915E+03 0.  0.
          5    1    4    4  502    0 -0.57139579884E+02 -0.17904254612E+02 -0.73746077947E+02  0.95110819233E+02  0.47000000000E+01 0.  1.
         -5    1    4    4    0  502  0.50801364370E+02  0.42499979854E+02 -0.11327192712E+03  0.13129983390E+03  0.47000000000E+01 0.  1.
          5    1    5    5  503    0  0.39597881410E+02  0.15948157322E+02 -0.60843441299E+02  0.74473822805E+02  0.47000000000E+01 0.  1.
         -5    1    5    5    0  503 -0.33259665897E+02 -0.40543882564E+02  0.24727051990E+02  0.58168108866E+02  0.47000000000E+01 0.  1.
<mgrwt>
<rscale>  0 0.28130020E+03</rscale>
<asrwt>0</asrwt>
<pdfrwt beam="1">  1        2 0.10455245E-01 0.28130020E+03</pdfrwt>
<pdfrwt beam="2">  1       -2 0.44783614E-01 0.28130020E+03</pdfrwt>
<totfact> 0.28900292E+03</totfact>
</mgrwt>
</event>
<event>
 9    1  0.7926126E-001  0.2716784E+03  0.7818608E-02  0.1100323E+00
          2   -1    0    0  501    0  0.00000000000E+00  0.00000000000E+00  0.67593043122E+02  0.67593043122E+02  0.00000000000E+00 0.  1.
         -2   -1    0    0    0  501 -0.00000000000E+00 -0.00000000000E+00 -0.27299085976E+03  0.27299085976E+03  0.00000000000E+00 0.  1.
         35    2    1    2    0    0 -0.71054273576E-14  0.71054273576E-14 -0.20539781663E+03  0.34058390288E+03  0.27167836097E+03 0.  0.
         25    2    3    3    0    0  0.46277926004E+02  0.30095500041E+02 -0.99910376795E+02  0.16887087854E+03  0.12445041048E+03 0.  0.
         25    2    3    3    0    0 -0.46277926004E+02 -0.30095500041E+02 -0.10548743984E+03  0.17171302434E+03  0.12373510903E+03 0.  0.
          5    1    4    4  502    0  0.16723682026E+02  0.40202679486E+01  0.28969594886E+02  0.34017223913E+02  0.47000000000E+01 0. -1.
         -5    1    4    4    0  502  0.29554243979E+02  0.26075232092E+02 -0.12887997168E+03  0.13485365463E+03  0.47000000000E+01 0. -1.
          5    1    5    5  503    0  0.24843037517E+02 -0.26233611789E+02  0.83203209728E+01  0.37372404815E+02  0.47000000000E+01 0. -1.
         -5    1    5    5    0  503 -0.71120963521E+02 -0.38618882512E+01 -0.11380776081E+03  0.13434061952E+03  0.47000000000E+01 0. -1.
<mgrwt>
<rscale>  0 0.27167836E+03</rscale>
<asrwt>0</asrwt>
<pdfrwt beam="1">  1        2 0.10398930E-01 0.27167836E+03</pdfrwt>
<pdfrwt beam="2">  1       -2 0.41998593E-01 0.27167836E+03</pdfrwt>
<totfact> 0.32918588E+03</totfact>
</mgrwt>
</event>
<event>
 9    1  0.7926126E-001  0.2586345E+03  0.7818608E-02  0.1107966E+00
          2   -1    0    0  501    0  0.00000000000E+00  0.00000000000E+00  0.40310229780E+02  0.40310229780E+02  0.00000000000E+00 0. -1.
         -2   -1    0    0    0  501 -0.00000000000E+00 -0.00000000000E+00 -0.41485625804E+03  0.41485625804E+03  0.00000000000E+00 0. -1.
         35    2    1    2    0    0  0.00000000000E+00  0.00000000000E+00 -0.37454602826E+03  0.45516648782E+03  0.25863449953E+03 0.  0.
         25    2    3    3    0    0 -0.51425437669E+01 -0.29693104244E+02 -0.16331053127E+03  0.20748676909E+03  0.12438771454E+03 0.  0.
         25    2    3    3    0    0  0.51425437669E+01  0.29693104244E+02 -0.21123549699E+03  0.24767971873E+03  0.12576438957E+03 0.  0.
          5    1    4    4  502    0  0.58493332473E+02 -0.19318931436E+02 -0.63709656725E+02  0.88745148688E+02  0.47000000000E+01 0. -1.
         -5    1    4    4    0  502 -0.63635876240E+02 -0.10374172809E+02 -0.99600874541E+02  0.11874162040E+03  0.47000000000E+01 0. -1.
          5    1    5    5  503    0  0.49666658487E+02 -0.23046118210E+02 -0.12898514457E+03  0.14020398728E+03  0.47000000000E+01 0.  1.
         -5    1    5    5    0  503 -0.44524114720E+02  0.52739222454E+02 -0.82250352422E+02  0.10747573145E+03  0.47000000000E+01 0.  1.
<mgrwt>
<rscale>  0 0.25863450E+03</rscale>
<asrwt>0</asrwt>
<pdfrwt beam="1">  1        2 0.62015740E-02 0.25863450E+03</pdfrwt>
<pdfrwt beam="2">  1       -2 0.63824037E-01 0.25863450E+03</pdfrwt>
<totfact> 0.27317996E+03</totfact>
</mgrwt>
</event>
<event>
 9    1  0.7926126E-001  0.2734574E+03  0.7818608E-02  0.1099317E+00
         -1   -1    0    0    0  501 -0.00000000000E+00  0.00000000000E+00  0.11156503933E+03  0.11156503933E+03  0.00000000000E+00 0. -1.
          1   -1    0    0  501    0  0.00000000000E+00 -0.00000000000E+00 -0.16756800887E+03  0.16756800887E+03  0.00000000000E+00 0. -1.
         35    2    1    2    0    0  0.00000000000E+00 -0.71054273576E-14 -0.56002969541E+02  0.27913304820E+03  0.27345735682E+03 0.  0.
         25    2    3    3    0    0  0.43164174113E+00  0.37190223575E+02 -0.76040425912E+02  0.15079257081E+03  0.12479164232E+03 0.  0.
         25    2    3    3    0    0 -0.43164174113E+00 -0.37190223575E+02  0.20037456371E+02  0.12834047739E+03  0.12118778584E+03 0.  0.
          5    1    4    4  502    0  0.24586880326E+02  0.76374881059E+02 -0.30775795747E+02  0.86063213656E+02  0.47000000000E+01 0.  1.
         -5    1    4    4    0  502 -0.24155238585E+02 -0.39184657484E+02 -0.45264630165E+02  0.64729357151E+02  0.47000000000E+01 0.  1.
          5    1    5    5  503    0  0.57430752407E+02 -0.43984550555E+01 -0.28144612720E+01  0.57858870721E+02  0.47000000000E+01 0.  1.
         -5    1    5    5    0  503 -0.57862394148E+02 -0.32791768519E+02  0.22851917643E+02  0.70481606673E+02  0.47000000000E+01 0.  1.
<mgrwt>
<rscale>  0 0.27345736E+03</rscale>
<asrwt>0</asrwt>
<pdfrwt beam="1">  1        1 0.25779694E-01 0.27345736E+03</pdfrwt>
<pdfrwt beam="2">  1       -1 0.17163852E-01 0.27345736E+03</pdfrwt>
<totfact> 0.47248676E+03</totfact>
</mgrwt>
</event>
<event>
 9    1  0.7926126E-001  0.2740894E+03  0.7818608E-02  0.1098962E+00
          1   -1    0    0  501    0  0.00000000000E+00  0.00000000000E+00  0.37946493756E+03  0.37946493756E+03  0.00000000000E+00 0.  1.
         -1   -1    0    0    0  501 -0.00000000000E+00 -0.00000000000E+00 -0.49494036153E+02  0.49494036153E+02  0.00000000000E+00 0.  1.
         35    2    1    2    0    0  0.00000000000E+00 -0.35527136788E-14  0.32997090141E+03  0.42895897372E+03  0.27408941124E+03 0.  0.
         25    2    3    3    0    0  0.52332766840E+02  0.20934032717E+02  0.14918891355E+03  0.20238415502E+03  0.12459960701E+03 0.  0.
         25    2    3    3    0    0 -0.52332766840E+02 -0.20934032717E+02  0.18078198786E+03  0.22657481870E+03  0.12440686927E+03 0.  0.
          5    1    4    4  502    0 -0.91143512413E+01 -0.43655188961E+02  0.69538865670E+02  0.82744128253E+02  0.47000000000E+01 0. -1.
         -5    1    4    4    0  502  0.61447118082E+02  0.64589221678E+02  0.79650047878E+02  0.11964002677E+03  0.47000000000E+01 0. -1.
          5    1    5    5  503    0  0.26363040216E+02 -0.46518953810E+02  0.69168755667E+02  0.87552439792E+02  0.47000000000E+01 0. -1.
         -5    1    5    5    0  503 -0.78695807056E+02  0.25584921093E+02  0.11161323220E+03  0.13902237891E+03  0.47000000000E+01 0. -1.
<mgrwt>
<rscale>  0 0.27408941E+03</rscale>
<asrwt>0</asrwt>
<pdfrwt beam="1">  1        1 0.58379219E-01 0.27408941E+03</pdfrwt>
<pdfrwt beam="2">  1       -1 0.76144674E-02 0.27408941E+03</pdfrwt>
<totfact> 0.59879899E+03</totfact>
</mgrwt>
</event>
<event>
 9    1  0.7926126E-001  0.2759647E+03  0.7818608E-02  0.1097914E+00
         -1   -1    0    0    0  501 -0.00000000000E+00  0.00000000000E+00  0.22717433601E+02  0.22717433601E+02  0.00000000000E+00 0.  1.
          1   -1    0    0  501    0  0.00000000000E+00 -0.00000000000E+00 -0.83808435592E+03  0.83808435592E+03  0.00000000000E+00 0.  1.
         35    2    1    2    0    0  0.00000000000E+00  0.71054273576E-14 -0.81536692232E+03  0.86080178952E+03  0.27596467678E+03 0.  0.
         25    2    3    3    0    0  0.29045280793E+02  0.44601711176E+02 -0.46533856645E+03  0.48495745748E+03  0.12574105600E+03 0.  0.
         25    2    3    3    0    0 -0.29045280793E+02 -0.44601711176E+02 -0.35002835587E+03  0.37584433204E+03  0.12611966952E+03 0.  0.
          5    1    4    4  502    0  0.45469510776E+01 -0.24103261632E+02 -0.33167403564E+03  0.33261298517E+03  0.47000000000E+01 0.  1.
         -5    1    4    4    0  502  0.24498329715E+02  0.68704972808E+02 -0.13366453082E+03  0.15234447232E+03  0.47000000000E+01 0.  1.
          5    1    5    5  503    0  0.48576739971E+02 -0.10207656940E+02 -0.99769982731E+02  0.11153490656E+03  0.47000000000E+01 0. -1.
         -5    1    5    5    0  503 -0.77622020764E+02 -0.34394054235E+02 -0.25025837313E+03  0.26430942548E+03  0.47000000000E+01 0. -1.
<mgrwt>
<rscale>  0 0.27596468E+03</rscale>
<asrwt>0</asrwt>
<pdfrwt beam="1">  1        1 0.12893605E+00 0.27596468E+03</pdfrwt>
<pdfrwt beam="2">  1       -1 0.34949900E-02 0.27596468E+03</pdfrwt>
<totfact> 0.64319578E+03</totfact>
</mgrwt>
</event>
<event>
 9    1  0.7926126E-001  0.2623908E+03  0.7818608E-02  0.1105715E+00
          1   -1    0    0  501    0  0.00000000000E+00  0.00000000000E+00  0.66466026020E+02  0.66466026020E+02  0.00000000000E+00 0.  1.
         -1   -1    0    0    0  501 -0.00000000000E+00 -0.00000000000E+00 -0.25896292204E+03  0.25896292204E+03  0.00000000000E+00 0.  1.
         35    2    1    2    0    0 -0.35527136788E-14 -0.35527136788E-14 -0.19249689602E+03  0.32542894806E+03  0.26239082541E+03 0.  0.
         25    2    3    3    0    0 -0.21615704508E+02 -0.58109383054E+01 -0.53463424714E+02  0.13720683912E+03  0.12436387431E+03 0.  0.
         25    2    3    3    0    0  0.21615704508E+02  0.58109383054E+01 -0.13903347131E+03  0.18822210894E+03  0.12488494892E+03 0.  0.
          5    1    4    4  502    0  0.26957715184E+02  0.20664487315E+02  0.24034053577E+02  0.41874397611E+02  0.47000000000E+01 0.  1.
         -5    1    4    4    0  502 -0.48573419692E+02 -0.26475425621E+02 -0.77497478291E+02  0.95332441508E+02  0.47000000000E+01 0.  1.
          5    1    5    5  503    0  0.53690477670E+02  0.23413826759E+02 -0.17647245305E+02  0.61354624462E+02  0.47000000000E+01 0. -1.
         -5    1    5    5    0  503 -0.32074773163E+02 -0.17602888454E+02 -0.12138622600E+03  0.12686748448E+03  0.47000000000E+01 0. -1.
<mgrwt>
<rscale>  0 0.26239083E+03</rscale>
<asrwt>0</asrwt>
<pdfrwt beam="1">  1        1 0.10225542E-01 0.26239083E+03</pdfrwt>
<pdfrwt beam="2">  1       -1 0.39840450E-01 0.26239083E+03</pdfrwt>
<totfact> 0.38436208E+03</totfact>
</mgrwt>
</event>
<event>
 9    1  0.7926126E-001  0.2721395E+03  0.7818608E-02  0.1100061E+00
         -3   -1    0    0    0  501 -0.00000000000E+00  0.00000000000E+00  0.37701489071E+03  0.37701489071E+03  0.00000000000E+00 0.  1.
          3   -1    0    0  501    0  0.00000000000E+00 -0.00000000000E+00 -0.49109414620E+02  0.49109414620E+02  0.00000000000E+00 0.  1.
         35    2    1    2    0    0  0.00000000000E+00  0.00000000000E+00  0.32790547609E+03  0.42612430533E+03  0.27213952735E+03 0.  0.
         25    2    3    3    0    0  0.39054408485E+02 -0.16486590049E+02  0.22528619996E+03  0.26124475397E+03  0.12529124117E+03 0.  0.
         25    2    3    3    0    0 -0.39054408485E+02  0.16486590049E+02  0.10261927613E+03  0.16487955136E+03  0.12189132926E+03 0.  0.
          5    1    4    4  502    0  0.24405465072E+02 -0.10934789347E+02 -0.72737488490E+01  0.28110385372E+02  0.47000000000E+01 0. -1.
         -5    1    4    4    0  502  0.14648943413E+02 -0.55518007018E+01  0.23255994881E+03  0.23313436860E+03  0.47000000000E+01 0. -1.
          5    1    5    5  503    0 -0.79388778860E+01  0.22371559120E+02  0.12402804923E+03  0.12636676555E+03  0.47000000000E+01 0. -1.
         -5    1    5    5    0  503 -0.31115530599E+02 -0.58849690708E+01 -0.21408773096E+02  0.38512785810E+02  0.47000000000E+01 0. -1.
<mgrwt>
<rscale>  0 0.27213953E+03</rscale>
<asrwt>0</asrwt>
<pdfrwt beam="1">  1        3 0.75552948E-02 0.27213953E+03</pdfrwt>
<pdfrwt beam="2">  1       -3 0.58002289E-01 0.27213953E+03</pdfrwt>
<totfact> 0.87807602E+02</totfact>
</mgrwt>
</event>
<event>
 9    1  0.7926126E-001  0.2802582E+03  0.7818608E-02  0.1095548E+00
          2   -1    0    0  501    0  0.00000000000E+00  0.00000000000E+00  0.12842993708E+04  0.12842993708E+04  0.00000000000E+00 0. -1.
         -2   -1    0    0    0  501 -0.00000000000E+00 -0.00000000000E+00 -0.15289400335E+02  0.15289400335E+02  0.00000000000E+00 0. -1.
         35    2    1    2    0    0 -0.35527136788E-14 -0.14210854715E-13  0.12690099705E+04  0.12995887712E+04  0.28025821830E+03 0.  0.
         25    2    3    3    0    0 -0.24328080957E+02 -0.56697220558E+02  0.68389560295E+03  0.69831580939E+03  0.12698560381E+03 0.  0.
         25    2    3    3    0    0  0.24328080957E+02  0.56697220558E+02  0.58511436754E+03  0.60127296177E+03  0.12395128521E+03 0.  0.
          5    1    4    4  502    0 -0.32366442554E+02 -0.68168126446E+02  0.67832539359E+03  0.68252612379E+03  0.47000000000E+01 0.  1.
         -5    1    4    4    0  502  0.80383615973E+01  0.11470905887E+02  0.55702093532E+01  0.15789685598E+02  0.47000000000E+01 0.  1.
          5    1    5    5  503    0  0.21743638988E+02  0.36682497599E+02  0.50522816776E+02  0.66279985528E+02  0.47000000000E+01 0.  1.
         -5    1    5    5    0  503  0.25844419688E+01  0.20014722959E+02  0.53459155077E+03  0.53499297624E+03  0.47000000000E+01 0.  1.
<mgrwt>
<rscale>  0 0.28025822E+03</rscale>
<asrwt>0</asrwt>
<pdfrwt beam="1">  1        2 0.19758443E+00 0.28025822E+03</pdfrwt>
<pdfrwt beam="2">  1       -2 0.23522164E-02 0.28025822E+03</pdfrwt>
<totfact> 0.10887944E+04</totfact>
</mgrwt>
</event>
<event>
 9    1  0.7926126E-001  0.2734669E+03  0.7818608E-02  0.1099312E+00
         -3   -1    0    0    0  501 -0.00000000000E+00  0.00000000000E+00  0.80533439173E+03  0.80533439173E+03  0.00000000000E+00 0.  1.
          3   -1    0    0  501    0  0.00000000000E+00 -0.00000000000E+00 -0.23215246157E+02  0.23215246157E+02  0.00000000000E+00 0.  1.
         35    2    1    2    0    0  0.00000000000E+00 -0.71054273576E-14  0.78211914557E+03  0.82854963788E+03  0.27346689849E+03 0.  0.
         25    2    3    3    0    0 -0.36400734908E+02  0.35875682900E+02  0.32222907858E+03  0.34927163180E+03  0.12468767210E+03 0.  0.
         25    2    3    3    0    0  0.36400734908E+02 -0.35875682900E+02  0.45989006699E+03  0.47927800608E+03  0.12488576889E+03 0.  0.
          5    1    4    4  502    0  0.18606367958E+02  0.15259507418E+02  0.26820949791E+03  0.26932781933E+03  0.47000000000E+01 0. -1.
         -5    1    4    4    0  502 -0.55007102866E+02  0.20616175482E+02  0.54019580672E+02  0.79943812476E+02  0.47000000000E+01 0. -1.
          5    1    5    5  503    0  0.49121348996E+02 -0.73295095466E+02  0.23855195852E+03  0.25438986784E+03  0.47000000000E+01 0.  1.
         -5    1    5    5    0  503 -0.12720614088E+02  0.37419412566E+02  0.22133810847E+03  0.22488813824E+03  0.47000000000E+01 0.  1.
<mgrwt>
<rscale>  0 0.27346690E+03</rscale>
<asrwt>0</asrwt>
<pdfrwt beam="1">  1        3 0.35715769E-02 0.27346690E+03</pdfrwt>
<pdfrwt beam="2">  1       -3 0.12389758E+00 0.27346690E+03</pdfrwt>
<totfact> 0.53844234E+02</totfact>
</mgrwt>
</event>
<event>
 9    1  0.7926126E-001  0.2795533E+03  0.7818608E-02  0.1095933E+00
          1   -1    0    0  501    0  0.00000000000E+00  0.00000000000E+00  0.54438391216E+03  0.54438391216E+03  0.00000000000E+00 0.  1.
         -1   -1    0    0    0  501 -0.00000000000E+00 -0.00000000000E+00 -0.35889227866E+02  0.35889227866E+02  0.00000000000E+00 0.  1.
         35    2    1    2    0    0  0.00000000000E+00 -0.71054273576E-14  0.50849468429E+03  0.58027314002E+03  0.27955334568E+03 0.  0.
         25    2    3    3    0    0  0.22251924218E+02 -0.46119747233E+02  0.32965192586E+03  0.35647614730E+03  0.12562910551E+03 0.  0.
         25    2    3    3    0    0 -0.22251924218E+02  0.46119747233E+02  0.17884275843E+03  0.22379699273E+03  0.12441134392E+03 0.  0.
          5    1    4    4  502    0  0.53620640289E+02  0.17869182487E+02  0.20616600278E+03  0.21382467456E+03  0.47000000000E+01 0.  1.
         -5    1    4    4    0  502 -0.31368716072E+02 -0.63988929720E+02  0.12348592308E+03  0.14265147273E+03  0.47000000000E+01 0.  1.
          5    1    5    5  503    0  0.46976375485E+02  0.17168005215E+01  0.95854906425E+02  0.10686430809E+03  0.47000000000E+01 0. -1.
         -5    1    5    5    0  503 -0.69228299702E+02  0.44402946711E+02  0.82987852005E+02  0.11693268464E+03  0.47000000000E+01 0. -1.
<mgrwt>
<rscale>  0 0.27955335E+03</rscale>
<asrwt>0</asrwt>
<pdfrwt beam="1">  1        1 0.83751365E-01 0.27955335E+03</pdfrwt>
<pdfrwt beam="2">  1       -1 0.55214201E-02 0.27955335E+03</pdfrwt>
<totfact> 0.60765095E+03</totfact>
</mgrwt>
</event>
<event>
 9    1  0.7926126E-001  0.2725498E+03  0.7818608E-02  0.1099829E+00
         -2   -1    0    0    0  501 -0.00000000000E+00  0.00000000000E+00  0.31267453721E+02  0.31267453721E+02  0.00000000000E+00 0.  1.
          2   -1    0    0  501    0  0.00000000000E+00 -0.00000000000E+00 -0.59393530459E+03  0.59393530459E+03  0.00000000000E+00 0.  1.
         35    2    1    2    0    0  0.00000000000E+00 -0.71054273576E-14 -0.56266785087E+03  0.62520275831E+03  0.27254977270E+03 0.  0.
         25    2    3    3    0    0  0.50233130216E+02  0.16224313397E+02 -0.26358650752E+03  0.29667238449E+03  0.12549924724E+03 0.  0.
         25    2    3    3    0    0 -0.50233130216E+02 -0.16224313397E+02 -0.29908134335E+03  0.32853037382E+03  0.12528352192E+03 0.  0.
          5    1    4    4  502    0  0.11955585266E+02  0.69199961843E+02 -0.14530150251E+03  0.16145026283E+03  0.47000000000E+01 0.  1.
         -5    1    4    4    0  502  0.38277544950E+02 -0.52975648446E+02 -0.11828500501E+03  0.13522212166E+03  0.47000000000E+01 0.  1.
          5    1    5    5  503    0  0.32706964266E+02 -0.11612390338E+02 -0.17929560927E+03  0.18268442360E+03  0.47000000000E+01 0. -1.
         -5    1    5    5    0  503 -0.82940094481E+02 -0.46119230590E+01 -0.11978573408E+03  0.14584595022E+03  0.47000000000E+01 0. -1.
<mgrwt>
<rscale>  0 0.27254977E+03</rscale>
<asrwt>0</asrwt>
<pdfrwt beam="1">  1        2 0.91374658E-01 0.27254977E+03</pdfrwt>
<pdfrwt beam="2">  1       -2 0.48103777E-02 0.27254977E+03</pdfrwt>
<totfact> 0.10549465E+04</totfact>
</mgrwt>
</event>
<event>
 9    1  0.7926126E-001  0.2725145E+03  0.7818608E-02  0.1099849E+00
         -4   -1    0    0    0  501 -0.00000000000E+00  0.00000000000E+00  0.40205183316E+03  0.40205183316E+03  0.00000000000E+00 0. -1.
          4   -1    0    0  501    0  0.00000000000E+00 -0.00000000000E+00 -0.46178216607E+02  0.46178216607E+02  0.00000000000E+00 0. -1.
         35    2    1    2    0    0 -0.17763568394E-14  0.00000000000E+00  0.35587361655E+03  0.44823004976E+03  0.27251448871E+03 0.  0.
         25    2    3    3    0    0  0.92496950791E+01 -0.39084416426E+02  0.14040826528E+03  0.19507435968E+03  0.12933049284E+03 0.  0.
         25    2    3    3    0    0 -0.92496950791E+01  0.39084416426E+02  0.21546535127E+03  0.25315569009E+03  0.12668597934E+03 0.  0.
          5    1    4    4  502    0 -0.18709511410E+02  0.15859983463E+02  0.12999931945E+03  0.13237634966E+03  0.47000000000E+01 0.  1.
         -5    1    4    4    0  502  0.27959206490E+02 -0.54944399889E+02  0.10408945835E+02  0.62698010017E+02  0.47000000000E+01 0.  1.
          5    1    5    5  503    0 -0.23166320175E+02  0.63086693886E+02  0.46491052979E+02  0.81854244502E+02  0.47000000000E+01 0.  1.
         -5    1    5    5    0  503  0.13916625096E+02 -0.24002277460E+02  0.16897429829E+03  0.17130144558E+03  0.47000000000E+01 0.  1.
<mgrwt>
<rscale>  0 0.27251449E+03</rscale>
<asrwt>0</asrwt>
<pdfrwt beam="1">  1        4 0.71043413E-02 0.27251449E+03</pdfrwt>
<pdfrwt beam="2">  1       -4 0.61854126E-01 0.27251449E+03</pdfrwt>
<totfact> 0.62602794E+02</totfact>
</mgrwt>
</event>
<event>
 9    1  0.7926126E-001  0.2752804E+03  0.7818608E-02  0.1098295E+00
         -1   -1    0    0    0  501 -0.00000000000E+00  0.00000000000E+00  0.71344097647E+01  0.71344097647E+01  0.00000000000E+00 0. -1.
          1   -1    0    0  501    0  0.00000000000E+00 -0.00000000000E+00 -0.26554154240E+04  0.26554154240E+04  0.00000000000E+00 0. -1.
         35    2    1    2    0    0 -0.35527136788E-14  0.00000000000E+00 -0.26482810142E+04  0.26625498338E+04  0.27528037874E+03 0.  0.
         25    2    3    3    0    0 -0.25903019072E+02 -0.34774435386E+02 -0.94833302355E+03  0.95743804266E+03  0.12438590848E+03 0.  0.
         25    2    3    3    0    0  0.25903019072E+02  0.34774435386E+02 -0.16999479907E+04  0.17051117911E+04  0.12531089884E+03 0.  0.
          5    1    4    4  502    0  0.28926316806E+02 -0.62615636727E+02 -0.55725004819E+03  0.56152217763E+03  0.47000000000E+01 0. -1.
         -5    1    4    4    0  502 -0.54829335878E+02  0.27841201341E+02 -0.39108297536E+03  0.39591586503E+03  0.47000000000E+01 0. -1.
          5    1    5    5  503    0  0.52611621252E+01 -0.46848119855E+02 -0.51944069018E+03  0.52159672811E+03  0.47000000000E+01 0.  1.
         -5    1    5    5    0  503  0.20641856947E+02  0.81622555241E+02 -0.11805073005E+04  0.11835150630E+04  0.47000000000E+01 0.  1.
<mgrwt>
<rscale>  0 0.27528038E+03</rscale>
<asrwt>0</asrwt>
<pdfrwt beam="1">  1        1 0.40852571E+00 0.27528038E+03</pdfrwt>
<pdfrwt beam="2">  1       -1 0.10976008E-02 0.27528038E+03</pdfrwt>
<totfact> 0.20507974E+03</totfact>
</mgrwt>
</event>
<event>
 9    1  0.7926126E-001  0.2764521E+03  0.7818608E-02  0.1097643E+00
         -1   -1    0    0    0  501 -0.00000000000E+00  0.00000000000E+00  0.58039149021E+02  0.58039149021E+02  0.00000000000E+00 0. -1.
          1   -1    0    0  501    0  0.00000000000E+00 -0.00000000000E+00 -0.32919907333E+03  0.32919907333E+03  0.00000000000E+00 0. -1.
         35    2    1    2    0    0  0.17763568394E-14  0.14210854715E-13 -0.27115992431E+03  0.38723822235E+03  0.27645205063E+03 0.  0.
         25    2    3    3    0    0 -0.85407884182E+01 -0.55258737738E+02 -0.15588423480E+03  0.20780388858E+03  0.12552325794E+03 0.  0.
         25    2    3    3    0    0  0.85407884182E+01  0.55258737738E+02 -0.11527568951E+03  0.17943433378E+03  0.12562532540E+03 0.  0.
          5    1    4    4  502    0  0.97268252293E+01 -0.48956601002E+02 -0.17389208962E+03  0.18097488429E+03  0.47000000000E+01 0. -1.
         -5    1    4    4    0  502 -0.18267613647E+02 -0.63021367366E+01  0.18007854820E+02  0.26829004287E+02  0.47000000000E+01 0. -1.
          5    1    5    5  503    0 -0.19993873777E+02  0.85957667441E+02 -0.10255774842E+03  0.13538337173E+03  0.47000000000E+01 0. -1.
         -5    1    5    5    0  503  0.28534662195E+02 -0.30698929703E+02 -0.12717941089E+02  0.44050962044E+02  0.47000000000E+01 0. -1.
<mgrwt>
<rscale>  0 0.27645205E+03</rscale>
<asrwt>0</asrwt>
<pdfrwt beam="1">  1        1 0.50646011E-01 0.27645205E+03</pdfrwt>
<pdfrwt beam="2">  1       -1 0.89290999E-02 0.27645205E+03</pdfrwt>
<totfact> 0.56223792E+03</totfact>
</mgrwt>
</event>
<event>
 9    1  0.7926126E-001  0.2751748E+03  0.7818608E-02  0.1098354E+00
          3   -1    0    0  501    0  0.00000000000E+00  0.00000000000E+00  0.37389783898E+02  0.37389783898E+02  0.00000000000E+00 0. -1.
         -3   -1    0    0    0  501 -0.00000000000E+00 -0.00000000000E+00 -0.50629598087E+03  0.50629598087E+03  0.00000000000E+00 0. -1.
         35    2    1    2    0    0 -0.17763568394E-14  0.00000000000E+00 -0.46890619698E+03  0.54368576477E+03  0.27517483397E+03 0.  0.
         25    2    3    3    0    0  0.62186277953E+01  0.15645616959E+02 -0.34499619268E+03  0.36718754726E+03  0.12458276460E+03 0.  0.
         25    2    3    3    0    0 -0.62186277953E+01 -0.15645616959E+02 -0.12391000429E+03  0.17649821751E+03  0.12455711525E+03 0.  0.
          5    1    4    4  502    0 -0.28033653570E+02  0.36874996012E+02 -0.31038924591E+03  0.31386179289E+03  0.47000000000E+01 0.  1.
         -5    1    4    4    0  502  0.34252281365E+02 -0.21229379054E+02 -0.34606946775E+02  0.53325754367E+02  0.47000000000E+01 0.  1.
          5    1    5    5  503    0 -0.19533085625E+02 -0.54188276033E+02 -0.12247484951E+03  0.13542558641E+03  0.47000000000E+01 0.  1.
         -5    1    5    5    0  503  0.13314457830E+02  0.38542659074E+02 -0.14351547830E+01  0.41072631095E+02  0.47000000000E+01 0.  1.
<mgrwt>
<rscale>  0 0.27517483E+03</rscale>
<asrwt>0</asrwt>
<pdfrwt beam="1">  1        3 0.57522744E-02 0.27517483E+03</pdfrwt>
<pdfrwt beam="2">  1       -3 0.77891689E-01 0.27517483E+03</pdfrwt>
<totfact> 0.73129530E+02</totfact>
</mgrwt>
</event>
<event>
 9    1  0.7926126E-001  0.2761279E+03  0.7818608E-02  0.1097823E+00
          2   -1    0    0  501    0  0.00000000000E+00  0.00000000000E+00  0.10386885793E+03  0.10386885793E+03  0.00000000000E+00 0.  1.
         -2   -1    0    0    0  501 -0.00000000000E+00 -0.00000000000E+00 -0.18351658744E+03  0.18351658744E+03  0.00000000000E+00 0.  1.
         35    2    1    2    0    0  0.00000000000E+00  0.71054273576E-14 -0.79647729510E+02  0.28738544537E+03  0.27612792940E+03 0.  0.
         25    2    3    3    0    0  0.13725175451E+02 -0.56633599211E+02 -0.47717098613E+02  0.14561901664E+03  0.12462837361E+03 0.  0.
         25    2    3    3    0    0 -0.13725175451E+02  0.56633599211E+02 -0.31930630898E+02  0.14176642872E+03  0.12522942994E+03 0.  0.
          5    1    4    4  502    0 -0.40617910099E+02  0.17656884933E+02 -0.23347279414E+02  0.50286833887E+02  0.47000000000E+01 0. -1.
         -5    1    4    4    0  502  0.54343085550E+02 -0.74290484144E+02 -0.24369819199E+02  0.95332182757E+02  0.47000000000E+01 0. -1.
          5    1    5    5  503    0  0.15803587045E+02 -0.35844576621E+02  0.29144718125E-01  0.39454757458E+02  0.47000000000E+01 0. -1.
         -5    1    5    5    0  503 -0.29528762496E+02  0.92478175832E+02 -0.31959775616E+02  0.10231167127E+03  0.47000000000E+01 0. -1.
<mgrwt>
<rscale>  0 0.27612793E+03</rscale>
<asrwt>0</asrwt>
<pdfrwt beam="1">  1        2 0.15979824E-01 0.27612793E+03</pdfrwt>
<pdfrwt beam="2">  1       -2 0.28233321E-01 0.27612793E+03</pdfrwt>
<totfact> 0.41050384E+03</totfact>
</mgrwt>
</event>
<event>
 9    1  0.7926126E-001  0.2741929E+03  0.7818608E-02  0.1098904E+00
         -2   -1    0    0    0  501 -0.00000000000E+00  0.00000000000E+00  0.53588007511E+02  0.53588007511E+02  0.00000000000E+00 0.  1.
          2   -1    0    0  501    0  0.00000000000E+00 -0.00000000000E+00 -0.35073955316E+03  0.35073955316E+03  0.00000000000E+00 0.  1.
         35    2    1    2    0    0  0.10658141036E-13 -0.14210854715E-13 -0.29715154565E+03  0.40432756067E+03  0.27419287962E+03 0.  0.
         25    2    3    3    0    0  0.21475270912E+02 -0.55653552818E+02 -0.15850059853E+03  0.21026105295E+03  0.12461446727E+03 0.  0.
         25    2    3    3    0    0 -0.21475270912E+02  0.55653552818E+02 -0.13865094712E+03  0.19406650772E+03  0.12198040449E+03 0.  0.
          5    1    4    4  502    0 -0.17155350929E+02 -0.86617795381E+02 -0.10156193628E+03  0.13466204158E+03  0.47000000000E+01 0.  1.
         -5    1    4    4    0  502  0.38630621841E+02  0.30964242563E+02 -0.56938662248E+02  0.75599011368E+02  0.47000000000E+01 0.  1.
          5    1    5    5  503    0 -0.48696273868E+02  0.40991570549E+00 -0.11993204471E+03  0.12952714182E+03  0.47000000000E+01 0. -1.
         -5    1    5    5    0  503  0.27221002957E+02  0.55243637112E+02 -0.18718902410E+02  0.64539365900E+02  0.47000000000E+01 0. -1.
<mgrwt>
<rscale>  0 0.27419288E+03</rscale>
<asrwt>0</asrwt>
<pdfrwt beam="1">  1        2 0.53959931E-01 0.27419288E+03</pdfrwt>
<pdfrwt beam="2">  1       -2 0.82443089E-02 0.27419288E+03</pdfrwt>
<totfact> 0.82542278E+03</totfact>
</mgrwt>
</event>
<event>
 9    1  0.7926126E-001  0.2732903E+03  0.7818608E-02  0.1099411E+00
          2   -1    0    0  501    0  0.00000000000E+00  0.00000000000E+00  0.20092751389E+03  0.20092751389E+03  0.00000000000E+00 0.  1.
         -2   -1    0    0    0  501 -0.00000000000E+00 -0.00000000000E+00 -0.92928502173E+02  0.92928502173E+02  0.00000000000E+00 0.  1.
         35    2    1    2    0    0  0.71054273576E-14  0.00000000000E+00  0.10799901172E+03  0.29385601607E+03  0.27329026994E+03 0.  0.
         25    2    3    3    0    0 -0.27812085544E+02 -0.53905361808E+02  0.61271126793E+02  0.14767952714E+03  0.11989908933E+03 0.  0.
         25    2    3    3    0    0  0.27812085544E+02  0.53905361808E+02  0.46727884926E+02  0.14617648893E+03  0.12451815350E+03 0.  0.
          5    1    4    4  502    0 -0.54543895228E+02 -0.72474886695E+02  0.68798432707E+02  0.11394279289E+03  0.47000000000E+01 0. -1.
         -5    1    4    4    0  502  0.26731809684E+02  0.18569524887E+02 -0.75273059138E+01  0.33736734250E+02  0.47000000000E+01 0. -1.
          5    1    5    5  503    0 -0.23052800450E+02  0.55861244532E+02  0.67747163547E+02  0.90904776651E+02  0.47000000000E+01 0.  1.
         -5    1    5    5    0  503  0.50864885994E+02 -0.19558827241E+01 -0.21019278621E+02  0.55271712278E+02  0.47000000000E+01 0.  1.
<mgrwt>
<rscale>  0 0.27329027E+03</rscale>
<asrwt>0</asrwt>
<pdfrwt beam="1">  1        2 0.30911925E-01 0.27329027E+03</pdfrwt>
<pdfrwt beam="2">  1       -2 0.14296693E-01 0.27329027E+03</pdfrwt>
<totfact> 0.62398569E+03</totfact>
</mgrwt>
</event>
<event>
 9    1  0.7926126E-001  0.2787277E+03  0.7818608E-02  0.1096386E+00
          2   -1    0    0  501    0  0.00000000000E+00  0.00000000000E+00  0.30307280680E+04  0.30307280680E+04  0.00000000000E+00 0.  1.
         -2   -1    0    0    0  501 -0.00000000000E+00 -0.00000000000E+00 -0.64084536796E+01  0.64084536796E+01  0.00000000000E+00 0.  1.
         35    2    1    2    0    0  0.00000000000E+00 -0.71054273576E-14  0.30243196143E+04  0.30371365217E+04  0.27872768387E+03 0.  0.
         25    2    3    3    0    0 -0.59695508634E+02  0.86436432410E+01  0.15314841198E+04  0.15378470278E+04  0.12606191148E+03 0.  0.
         25    2    3    3    0    0  0.59695508634E+02 -0.86436432410E+01  0.14928354945E+04  0.14992894939E+04  0.12519147858E+03 0.  0.
          5    1    4    4  502    0  0.37082056676E+01 -0.38883097527E+02  0.19072677700E+03  0.19474198194E+03  0.47000000000E+01 0.  1.
         -5    1    4    4    0  502 -0.63403714301E+02  0.47526740768E+02  0.13407573428E+04  0.13431050459E+04  0.47000000000E+01 0.  1.
          5    1    5    5  503    0  0.40787255391E+02  0.56453956304E+02  0.65763567491E+03  0.66133003886E+03  0.47000000000E+01 0.  1.
         -5    1    5    5    0  503  0.18908253243E+02 -0.65097599545E+02  0.83519981963E+03  0.83795945500E+03  0.47000000000E+01 0.  1.
<mgrwt>
<rscale>  0 0.27872768E+03</rscale>
<asrwt>0</asrwt>
<pdfrwt beam="1">  1        2 0.46626471E+00 0.27872768E+03</pdfrwt>
<pdfrwt beam="2">  1       -2 0.98591837E-03 0.27872768E+03</pdfrwt>
<totfact> 0.43468363E+03</totfact>
</mgrwt>
</event>
<event>
 9    1  0.7926126E-001  0.2753183E+03  0.7818608E-02  0.1098274E+00
          4   -1    0    0  501    0  0.00000000000E+00  0.00000000000E+00  0.10949628631E+03  0.10949628631E+03  0.00000000000E+00 0.  1.
         -4   -1    0    0    0  501 -0.00000000000E+00 -0.00000000000E+00 -0.17306560478E+03  0.17306560478E+03  0.00000000000E+00 0.  1.
         35    2    1    2    0    0 -0.14210854715E-13  0.71054273576E-14 -0.63569318469E+02  0.28256189109E+03  0.27531829588E+03 0.  0.
         25    2    3    3    0    0  0.41906025832E+02 -0.37208822800E+02 -0.24813692916E+02  0.14054139305E+03  0.12647352415E+03 0.  0.
         25    2    3    3    0    0 -0.41906025832E+02  0.37208822800E+02 -0.38755625553E+02  0.14202049803E+03  0.12460823349E+03 0.  0.
          5    1    4    4  502    0  0.48860880204E+02 -0.70856190056E+02  0.15268398201E+02  0.87539701092E+02  0.47000000000E+01 0. -1.
         -5    1    4    4    0  502 -0.69548543717E+01  0.33647367257E+02 -0.40082091116E+02  0.53001691963E+02  0.47000000000E+01 0. -1.
          5    1    5    5  503    0  0.28025934328E+02  0.55199651301E+02 -0.53352950369E+01  0.62313801616E+02  0.47000000000E+01 0. -1.
         -5    1    5    5    0  503 -0.69931960160E+02 -0.17990828501E+02 -0.33420330516E+02  0.79706696418E+02  0.47000000000E+01 0. -1.
<mgrwt>
<rscale>  0 0.27531830E+03</rscale>
<asrwt>0</asrwt>
<pdfrwt beam="1">  1        4 0.16845583E-01 0.27531830E+03</pdfrwt>
<pdfrwt beam="2">  1       -4 0.26625477E-01 0.27531830E+03</pdfrwt>
<totfact> 0.76704282E+02</totfact>
</mgrwt>
</event>
<event>
 9    1  0.7926126E-001  0.2679310E+03  0.7818608E-02  0.1102470E+00
         -3   -1    0    0    0  501 -0.00000000000E+00  0.00000000000E+00  0.49068260466E+02  0.49068260466E+02  0.00000000000E+00 0.  1.
          3   -1    0    0  501    0  0.00000000000E+00 -0.00000000000E+00 -0.36575073681E+03  0.36575073681E+03  0.00000000000E+00 0.  1.
         35    2    1    2    0    0 -0.71054273576E-14  0.00000000000E+00 -0.31668247634E+03  0.41481899727E+03  0.26793097932E+03 0.  0.
         25    2    3    3    0    0 -0.16632743425E+02  0.45570206785E+02 -0.14412777421E+03  0.19669227705E+03  0.12474672202E+03 0.  0.
         25    2    3    3    0    0  0.16632743425E+02 -0.45570206785E+02 -0.17255470213E+03  0.21812672022E+03  0.12430144386E+03 0.  0.
          5    1    4    4  502    0  0.51018189030E+02  0.21062397904E+02 -0.33804252039E+02  0.64894511889E+02  0.47000000000E+01 0.  1.
         -5    1    4    4    0  502 -0.67650932455E+02  0.24507808881E+02 -0.11032352217E+03  0.13179776516E+03  0.47000000000E+01 0.  1.
          5    1    5    5  503    0 -0.52342185873E+02 -0.34988689015E+02 -0.89855601123E+02  0.10981817625E+03  0.47000000000E+01 0. -1.
         -5    1    5    5    0  503  0.68974929298E+02 -0.10581517770E+02 -0.82699101011E+02  0.10830854398E+03  0.47000000000E+01 0. -1.
<mgrwt>
<rscale>  0 0.26793098E+03</rscale>
<asrwt>0</asrwt>
<pdfrwt beam="1">  1        3 0.56269346E-01 0.26793098E+03</pdfrwt>
<pdfrwt beam="2">  1       -3 0.75489629E-02 0.26793098E+03</pdfrwt>
<totfact> 0.93515123E+02</totfact>
</mgrwt>
</event>
<event>
 9    1  0.7926126E-001  0.2757623E+03  0.7818608E-02  0.1098026E+00
         -2   -1    0    0    0  501 -0.00000000000E+00  0.00000000000E+00  0.90206177722E+02  0.90206177722E+02  0.00000000000E+00 0. -1.
          2   -1    0    0  501    0  0.00000000000E+00 -0.00000000000E+00 -0.21075289801E+03  0.21075289801E+03  0.00000000000E+00 0. -1.
         35    2    1    2    0    0  0.00000000000E+00  0.35527136788E-14 -0.12054672028E+03  0.30095907573E+03  0.27576231340E+03 0.  0.
         25    2    3    3    0    0  0.48669587973E+02 -0.26295058683E+02 -0.80503383551E+02  0.15868232945E+03  0.12505649927E+03 0.  0.
         25    2    3    3    0    0 -0.48669587973E+02  0.26295058683E+02 -0.40043336734E+02  0.14227674628E+03  0.12481604389E+03 0.  0.
          5    1    4    4  502    0 -0.36033444677E+02 -0.13062266414E+02 -0.58419906184E+02  0.70028618276E+02  0.47000000000E+01 0.  1.
         -5    1    4    4    0  502  0.84703032650E+02 -0.13232792269E+02 -0.22083477367E+02  0.88653711169E+02  0.47000000000E+01 0.  1.
          5    1    5    5  503    0 -0.73010930036E+02 -0.16032245752E+02 -0.52744382942E+02  0.91606161040E+02  0.47000000000E+01 0.  1.
         -5    1    5    5    0  503  0.24341342063E+02  0.42327304435E+02  0.12701046208E+02  0.50670585244E+02  0.47000000000E+01 0.  1.
<mgrwt>
<rscale>  0 0.27576231E+03</rscale>
<asrwt>0</asrwt>
<pdfrwt beam="1">  1        2 0.32423523E-01 0.27576231E+03</pdfrwt>
<pdfrwt beam="2">  1       -2 0.13877874E-01 0.27576231E+03</pdfrwt>
<totfact> 0.62208267E+03</totfact>
</mgrwt>
</event>
<event>
 9    1  0.7926126E-001  0.2746697E+03  0.7818608E-02  0.1098636E+00
          1   -1    0    0  501    0  0.00000000000E+00  0.00000000000E+00  0.31128331304E+03  0.31128331304E+03  0.00000000000E+00 0. -1.
         -1   -1    0    0    0  501 -0.00000000000E+00 -0.00000000000E+00 -0.60590660997E+02  0.60590660997E+02  0.00000000000E+00 0. -1.
         35    2    1    2    0    0 -0.17763568394E-14  0.14210854715E-13  0.25069265205E+03  0.37187397404E+03  0.27466970488E+03 0.  0.
         25    2    3    3    0    0  0.65869423060E+01  0.54603936152E+02  0.10887056744E+03  0.17468828229E+03  0.12505286028E+03 0.  0.
         25    2    3    3    0    0 -0.65869423060E+01 -0.54603936152E+02  0.14182208461E+03  0.19718569175E+03  0.12547396421E+03 0.  0.
          5    1    4    4  502    0  0.29026008854E+02 -0.22602904316E+01 -0.17455502368E+02  0.34269558879E+02  0.47000000000E+01 0. -1.
         -5    1    4    4    0  502 -0.22439066548E+02  0.56864226584E+02  0.12632606980E+03  0.14041872341E+03  0.47000000000E+01 0. -1.
          5    1    5    5  503    0 -0.13879673963E+02  0.13921310557E+02 -0.15432358366E+02  0.25430216706E+02  0.47000000000E+01 0.  1.
         -5    1    5    5    0  503  0.72927316573E+01 -0.68525246709E+02  0.15725444298E+03  0.17175547504E+03  0.47000000000E+01 0.  1.
<mgrwt>
<rscale>  0 0.27466970E+03</rscale>
<asrwt>0</asrwt>
<pdfrwt beam="1">  1        1 0.47889740E-01 0.27466970E+03</pdfrwt>
<pdfrwt beam="2">  1       -1 0.93216403E-02 0.27466970E+03</pdfrwt>
<totfact> 0.56460733E+03</totfact>
</mgrwt>
</event>
<event>
 9    1  0.7926126E-001  0.2739086E+03  0.7818608E-02  0.1099063E+00
          1   -1    0    0  501    0  0.00000000000E+00  0.00000000000E+00  0.11123918811E+03  0.11123918811E+03  0.00000000000E+00 0. -1.
         -1   -1    0    0    0  501 -0.00000000000E+00 -0.00000000000E+00 -0.16861393331E+03  0.16861393331E+03  0.00000000000E+00 0. -1.
         35    2    1    2    0    0 -0.71054273576E-14 -0.14210854715E-13 -0.57374745195E+02  0.27985312142E+03  0.27390857632E+03 0.  0.
         25    2    3    3    0    0 -0.34935719198E+02 -0.40967743387E+02 -0.46355037307E+02  0.14363557561E+03  0.12483400427E+03 0.  0.
         25    2    3    3    0    0  0.34935719198E+02  0.40967743387E+02 -0.11019707888E+02  0.13621754581E+03  0.12463918064E+03 0.  0.
          5    1    4    4  502    0  0.30223631675E+02  0.78144810709E+01  0.20969764057E+02  0.37899274803E+02  0.47000000000E+01 0. -1.
         -5    1    4    4    0  502 -0.65159350873E+02 -0.48782224458E+02 -0.67324801364E+02  0.10573630080E+03  0.47000000000E+01 0. -1.
          5    1    5    5  503    0  0.10338974684E+02 -0.22680373708E+02 -0.51023625918E+02  0.56980647160E+02  0.47000000000E+01 0. -1.
         -5    1    5    5    0  503  0.24596744514E+02  0.63648117095E+02  0.40003918030E+02  0.79236898653E+02  0.47000000000E+01 0. -1.
<mgrwt>
<rscale>  0 0.27390858E+03</rscale>
<asrwt>0</asrwt>
<pdfrwt beam="1">  1        1 0.17113721E-01 0.27390858E+03</pdfrwt>
<pdfrwt beam="2">  1       -1 0.25940605E-01 0.27390858E+03</pdfrwt>
<totfact> 0.40724007E+03</totfact>
</mgrwt>
</event>
<event>
 9    1  0.7926126E-001  0.2705053E+03  0.7818608E-02  0.1100991E+00
          1   -1    0    0  501    0  0.00000000000E+00  0.00000000000E+00  0.89249622429E+03  0.89249622429E+03  0.00000000000E+00 0. -1.
         -1   -1    0    0    0  501 -0.00000000000E+00 -0.00000000000E+00 -0.20496753414E+02  0.20496753414E+02  0.00000000000E+00 0. -1.
         35    2    1    2    0    0  0.17763568394E-14  0.10658141036E-13  0.87199947088E+03  0.91299297770E+03  0.27050526821E+03 0.  0.
         25    2    3    3    0    0  0.66569140225E+01 -0.26058845996E+02  0.51920065970E+03  0.53474817048E+03  0.12515151952E+03 0.  0.
         25    2    3    3    0    0 -0.66569140225E+01  0.26058845996E+02  0.35279881118E+03  0.37824480723E+03  0.13371146199E+03 0.  0.
          5    1    4    4  502    0 -0.10767205458E+02 -0.34024607791E+02  0.35201658533E+02  0.50347327756E+02  0.47000000000E+01 0.  1.
         -5    1    4    4    0  502  0.17424119480E+02  0.79657617946E+01  0.48399900116E+03  0.48440084272E+03  0.47000000000E+01 0.  1.
          5    1    5    5  503    0 -0.42965702424E+02 -0.38341128770E+02  0.10800872416E+03  0.12249109451E+03  0.47000000000E+01 0. -1.
         -5    1    5    5    0  503  0.36308788401E+02  0.64399974766E+02  0.24479008702E+03  0.25575371272E+03  0.47000000000E+01 0. -1.
<mgrwt>
<rscale>  0 0.27050527E+03</rscale>
<asrwt>0</asrwt>
<pdfrwt beam="1">  1        1 0.13730708E+00 0.27050527E+03</pdfrwt>
<pdfrwt beam="2">  1       -1 0.31533474E-02 0.27050527E+03</pdfrwt>
<totfact> 0.67704082E+03</totfact>
</mgrwt>
</event>
<event>
 9    1  0.7926126E-001  0.2715819E+03  0.7818608E-02  0.1100378E+00
          2   -1    0    0  501    0  0.00000000000E+00  0.00000000000E+00  0.13427862429E+04  0.13427862429E+04  0.00000000000E+00 0.  1.
         -2   -1    0    0    0  501 -0.00000000000E+00 -0.00000000000E+00 -0.13732028021E+02  0.13732028021E+02  0.00000000000E+00 0.  1.
         35    2    1    2    0    0 -0.14210854715E-13  0.00000000000E+00  0.13290542149E+04  0.13565182709E+04  0.27158187210E+03 0.  0.
         25    2    3    3    0    0  0.37948055862E+02  0.37464087134E+02  0.73819630871E+03  0.75054202140E+03  0.12464318239E+03 0.  0.
         25    2    3    3    0    0 -0.37948055862E+02 -0.37464087134E+02  0.59085790616E+03  0.60597624952E+03  0.12349306434E+03 0.  0.
          5    1    4    4  502    0  0.69102020567E+02 -0.87459436096E+01  0.54371398687E+03  0.54817749890E+03  0.47000000000E+01 0.  1.
         -5    1    4    4    0  502 -0.31153964705E+02  0.46210030743E+02  0.19448232184E+03  0.20236452250E+03  0.47000000000E+01 0.  1.
          5    1    5    5  503    0 -0.62419559261E+02 -0.47036933565E+02  0.55880198637E+03  0.56426095423E+03  0.47000000000E+01 0. -1.
         -5    1    5    5    0  503  0.24471503399E+02  0.95728464309E+01  0.32055919791E+02  0.41715295289E+02  0.47000000000E+01 0. -1.
<mgrwt>
<rscale>  0 0.27158187E+03</rscale>
<asrwt>0</asrwt>
<pdfrwt beam="1">  1        2 0.20658239E+00 0.27158187E+03</pdfrwt>
<pdfrwt beam="2">  1       -2 0.21126208E-02 0.27158187E+03</pdfrwt>
<totfact> 0.11834343E+04</totfact>
</mgrwt>
</event>
<event>
 9    1  0.7926126E-001  0.2769543E+03  0.7818608E-02  0.1097364E+00
         -1   -1    0    0    0  501 -0.00000000000E+00  0.00000000000E+00  0.19302179043E+04  0.19302179043E+04  0.00000000000E+00 0. -1.
          1   -1    0    0  501    0  0.00000000000E+00 -0.00000000000E+00 -0.99345883998E+01  0.99345883998E+01  0.00000000000E+00 0. -1.
         35    2    1    2    0    0 -0.71054273576E-14  0.00000000000E+00  0.19202833159E+04  0.19401524927E+04  0.27695429515E+03 0.  0.
         25    2    3    3    0    0  0.38445623288E+02 -0.41400843686E+02  0.84677513944E+03  0.85792893403E+03  0.12578482922E+03 0.  0.
         25    2    3    3    0    0 -0.38445623288E+02  0.41400843686E+02  0.10735081764E+04  0.10822235587E+04  0.12488366669E+03 0.  0.
          5    1    4    4  502    0  0.62092806897E+02  0.25094055241E+02  0.42028170833E+03  0.42561018859E+03  0.47000000000E+01 0. -1.
         -5    1    4    4    0  502 -0.23647183609E+02 -0.66494898927E+02  0.42649343111E+03  0.43231874544E+03  0.47000000000E+01 0. -1.
          5    1    5    5  503    0 -0.81323538635E+02  0.41330814449E+02  0.81997719090E+03  0.82504935474E+03  0.47000000000E+01 0. -1.
         -5    1    5    5    0  503  0.42877915347E+02  0.70029237158E-01  0.25353098554E+03  0.25717420392E+03  0.47000000000E+01 0. -1.
<mgrwt>
<rscale>  0 0.27695430E+03</rscale>
<asrwt>0</asrwt>
<pdfrwt beam="1">  1        1 0.15283997E-02 0.27695430E+03</pdfrwt>
<pdfrwt beam="2">  1       -1 0.29695630E+00 0.27695430E+03</pdfrwt>
<totfact> 0.35744630E+02</totfact>
</mgrwt>
</event>
<event>
 9    1  0.7926126E-001  0.2750647E+03  0.7818608E-02  0.1098415E+00
          2   -1    0    0  501    0  0.00000000000E+00  0.00000000000E+00  0.91615616093E+02  0.91615616093E+02  0.00000000000E+00 0. -1.
         -2   -1    0    0    0  501 -0.00000000000E+00 -0.00000000000E+00 -0.20646207130E+03  0.20646207130E+03  0.00000000000E+00 0. -1.
         35    2    1    2    0    0  0.35527136788E-14  0.71054273576E-14 -0.11484645520E+03  0.29807768739E+03  0.27506471865E+03 0.  0.
         25    2    3    3    0    0 -0.95859510240E+01 -0.55519616985E+02 -0.71651244718E+02  0.15494441880E+03  0.12529786000E+03 0.  0.
         25    2    3    3    0    0  0.95859510240E+01  0.55519616985E+02 -0.43195210483E+02  0.14313326859E+03  0.12428591248E+03 0.  0.
          5    1    4    4  502    0 -0.42980261439E+02 -0.66254829285E+02 -0.47475331931E+01  0.79256762162E+02  0.47000000000E+01 0.  1.
         -5    1    4    4    0  502  0.33394310415E+02  0.10735212300E+02 -0.66903711525E+02  0.75687656636E+02  0.47000000000E+01 0.  1.
          5    1    5    5  503    0  0.34518022557E+02  0.78407102406E+02  0.27898544368E+01  0.85843117818E+02  0.47000000000E+01 0.  1.
         -5    1    5    5    0  503 -0.24932071533E+02 -0.22887485422E+02 -0.45985064920E+02  0.57290150772E+02  0.47000000000E+01 0.  1.
<mgrwt>
<rscale>  0 0.27506472E+03</rscale>
<asrwt>0</asrwt>
<pdfrwt beam="1">  1        2 0.14094710E-01 0.27506472E+03</pdfrwt>
<pdfrwt beam="2">  1       -2 0.31763395E-01 0.27506472E+03</pdfrwt>
<totfact> 0.38457523E+03</totfact>
</mgrwt>
</event>
<event>
 9    1  0.7926126E-001  0.2741139E+03  0.7818608E-02  0.1098948E+00
         -1   -1    0    0    0  501 -0.00000000000E+00  0.00000000000E+00  0.15173491580E+03  0.15173491580E+03  0.00000000000E+00 0. -1.
          1   -1    0    0  501    0  0.00000000000E+00 -0.00000000000E+00 -0.12379888763E+03  0.12379888763E+03  0.00000000000E+00 0. -1.
         35    2    1    2    0    0 -0.71054273576E-14 -0.14210854715E-13  0.27936028171E+02  0.27553380343E+03  0.27411394558E+03 0.  0.
         25    2    3    3    0    0  0.37158899311E+02  0.37233236543E+02 -0.53088980880E+01  0.13650365634E+03  0.12584898130E+03 0.  0.
         25    2    3    3    0    0 -0.37158899311E+02 -0.37233236543E+02  0.33244926259E+02  0.13903014709E+03  0.12432642107E+03 0.  0.
          5    1    4    4  502    0  0.14765484526E+02  0.26884930789E+02 -0.64845358049E+02  0.71887617135E+02  0.47000000000E+01 0.  1.
         -5    1    4    4    0  502  0.22393414785E+02  0.10348305754E+02  0.59536459961E+02  0.64616039204E+02  0.47000000000E+01 0.  1.
          5    1    5    5  503    0  0.34036314837E+02 -0.38921623969E+01 -0.23632530009E+02  0.41883244029E+02  0.47000000000E+01 0.  1.
         -5    1    5    5    0  503 -0.71195214149E+02 -0.33341074146E+02  0.56877456268E+02  0.97146903061E+02  0.47000000000E+01 0.  1.
<mgrwt>
<rscale>  0 0.27411395E+03</rscale>
<asrwt>0</asrwt>
<pdfrwt beam="1">  1        1 0.19045983E-01 0.27411395E+03</pdfrwt>
<pdfrwt beam="2">  1       -1 0.23343833E-01 0.27411395E+03</pdfrwt>
<totfact> 0.42234071E+03</totfact>
</mgrwt>
</event>
<event>
 9    1  0.7926126E-001  0.2752135E+03  0.7818608E-02  0.1098332E+00
         -2   -1    0    0    0  501 -0.00000000000E+00  0.00000000000E+00  0.43140106646E+02  0.43140106646E+02  0.00000000000E+00 0. -1.
          2   -1    0    0  501    0  0.00000000000E+00 -0.00000000000E+00 -0.43893291972E+03  0.43893291972E+03  0.00000000000E+00 0. -1.
         35    2    1    2    0    0  0.00000000000E+00 -0.71054273576E-14 -0.39579281308E+03  0.48207302637E+03  0.27521346600E+03 0.  0.
         25    2    3    3    0    0 -0.51418723732E+02  0.26038213609E+02 -0.18153932352E+03  0.22756718612E+03  0.12453282499E+03 0.  0.
         25    2    3    3    0    0  0.51418723732E+02 -0.26038213609E+02 -0.21425348956E+03  0.25450584024E+03  0.12468677240E+03 0.  0.
          5    1    4    4  502    0  0.12102365298E+02  0.40955539583E+02 -0.10191787893E+02  0.44156381292E+02  0.47000000000E+01 0. -1.
         -5    1    4    4    0  502 -0.63521089030E+02 -0.14917325974E+02 -0.17134753562E+03  0.18341080483E+03  0.47000000000E+01 0. -1.
          5    1    5    5  503    0  0.34496224845E+02  0.39893838476E+02 -0.37061521972E+02  0.64630908146E+02  0.47000000000E+01 0. -1.
         -5    1    5    5    0  503  0.16922498888E+02 -0.65932052085E+02 -0.17719196759E+03  0.18987493210E+03  0.47000000000E+01 0. -1.
<mgrwt>
<rscale>  0 0.27521347E+03</rscale>
<asrwt>0</asrwt>
<pdfrwt beam="1">  1        2 0.67528136E-01 0.27521347E+03</pdfrwt>
<pdfrwt beam="2">  1       -2 0.66369400E-02 0.27521347E+03</pdfrwt>
<totfact> 0.90632531E+03</totfact>
</mgrwt>
</event>
<event>
 9    1  0.7926126E-001  0.2761117E+03  0.7818608E-02  0.1097832E+00
          1   -1    0    0  501    0  0.00000000000E+00  0.00000000000E+00  0.30243299666E+02  0.30243299666E+02  0.00000000000E+00 0. -1.
         -1   -1    0    0    0  501 -0.00000000000E+00 -0.00000000000E+00 -0.63020319663E+03  0.63020319663E+03  0.00000000000E+00 0. -1.
         35    2    1    2    0    0  0.00000000000E+00  0.35527136788E-14 -0.59995989697E+03  0.66044649630E+03  0.27611174641E+03 0.  0.
         25    2    3    3    0    0 -0.23547515709E+02 -0.13385653164E+02 -0.18101783115E+03  0.22228625679E+03  0.12613510041E+03 0.  0.
         25    2    3    3    0    0  0.23547515709E+02  0.13385653164E+02 -0.41894206581E+03  0.43816023951E+03  0.12545230078E+03 0.  0.
          5    1    4    4  502    0 -0.84158624712E+01  0.16471947172E+02 -0.18698991537E+03  0.18796135304E+03  0.47000000000E+01 0.  1.
         -5    1    4    4    0  502 -0.15131653238E+02 -0.29857600337E+02  0.59720842202E+01  0.34324903751E+02  0.47000000000E+01 0.  1.
          5    1    5    5  503    0 -0.55752446591E+01 -0.47540305000E+02 -0.27401268951E+03  0.27820173968E+03  0.47000000000E+01 0. -1.
         -5    1    5    5    0  503  0.29122760368E+02  0.60925958164E+02 -0.14492937631E+03  0.15995849983E+03  0.47000000000E+01 0. -1.
<mgrwt>
<rscale>  0 0.27611175E+03</rscale>
<asrwt>0</asrwt>
<pdfrwt beam="1">  1        1 0.46528154E-02 0.27611175E+03</pdfrwt>
<pdfrwt beam="2">  1       -1 0.96954337E-01 0.27611175E+03</pdfrwt>
<totfact> 0.19850507E+03</totfact>
</mgrwt>
</event>
<event>
 9    1  0.7926126E-001  0.2758249E+03  0.7818608E-02  0.1097991E+00
          1   -1    0    0  501    0  0.00000000000E+00  0.00000000000E+00  0.13061542707E+03  0.13061542707E+03  0.00000000000E+00 0.  1.
         -1   -1    0    0    0  501 -0.00000000000E+00 -0.00000000000E+00 -0.14561718361E+03  0.14561718361E+03  0.00000000000E+00 0.  1.
         35    2    1    2    0    0  0.00000000000E+00  0.71054273576E-14 -0.15001756535E+02  0.27623261068E+03  0.27582494902E+03 0.  0.
         25    2    3    3    0    0  0.70461137261E+01  0.26945800565E+02 -0.57786378068E+02  0.14132471526E+03  0.12592730350E+03 0.  0.
         25    2    3    3    0    0 -0.70461137261E+01 -0.26945800565E+02  0.42784621534E+02  0.13490789542E+03  0.12487550808E+03 0.  0.
          5    1    4    4  502    0 -0.83312935046E+01  0.14071485545E+02  0.38905304233E+02  0.42463276538E+02  0.47000000000E+01 0.  1.
         -5    1    4    4    0  502  0.15377407231E+02  0.12874315020E+02 -0.96691682301E+02  0.98861438724E+02  0.47000000000E+01 0.  1.
          5    1    5    5  503    0  0.43449729874E+01 -0.58878543016E+02 -0.20737511926E+02  0.62751063886E+02  0.47000000000E+01 0.  1.
         -5    1    5    5    0  503 -0.11391086714E+02  0.31932742452E+02  0.63522133460E+02  0.72156831529E+02  0.47000000000E+01 0.  1.
<mgrwt>
<rscale>  0 0.27582495E+03</rscale>
<asrwt>0</asrwt>
<pdfrwt beam="1">  1        1 0.20094681E-01 0.27582495E+03</pdfrwt>
<pdfrwt beam="2">  1       -1 0.22402644E-01 0.27582495E+03</pdfrwt>
<totfact> 0.42184641E+03</totfact>
</mgrwt>
</event>
<event>
 9    1  0.7926126E-001  0.2573056E+03  0.7818608E-02  0.1108773E+00
          1   -1    0    0  501    0  0.00000000000E+00  0.00000000000E+00  0.37890408854E+03  0.37890408854E+03  0.00000000000E+00 0.  1.
         -1   -1    0    0    0  501 -0.00000000000E+00 -0.00000000000E+00 -0.43682680039E+02  0.43682680039E+02  0.00000000000E+00 0.  1.
         35    2    1    2    0    0  0.35527136788E-14  0.35527136788E-14  0.33522140850E+03  0.42258676858E+03  0.25730562423E+03 0.  0.
         25    2    3    3    0    0  0.12280676211E+02 -0.13754214628E+02  0.20825250366E+03  0.24301468279E+03  0.12388316004E+03 0.  0.
         25    2    3    3    0    0 -0.12280676211E+02  0.13754214628E+02  0.12696890484E+03  0.17957208579E+03  0.12563852025E+03 0.  0.
          5    1    4    4  502    0  0.41996414203E+02  0.86961179585E+01  0.14283943248E+02  0.45447137513E+02  0.47000000000E+01 0. -1.
         -5    1    4    4    0  502 -0.29715737992E+02 -0.22450332586E+02  0.19396856042E+03  0.19756754528E+03  0.47000000000E+01 0. -1.
          5    1    5    5  503    0  0.25123879439E+02  0.61171560915E+02  0.62601416748E+02  0.91182216258E+02  0.47000000000E+01 0. -1.
         -5    1    5    5    0  503 -0.37404555650E+02 -0.47417346287E+02  0.64367488088E+02  0.88389869528E+02  0.47000000000E+01 0. -1.
<mgrwt>
<rscale>  0 0.25730562E+03</rscale>
<asrwt>0</asrwt>
<pdfrwt beam="1">  1        1 0.58292935E-01 0.25730562E+03</pdfrwt>
<pdfrwt beam="2">  1       -1 0.67204126E-02 0.25730562E+03</pdfrwt>
<totfact> 0.72362629E+03</totfact>
</mgrwt>
</event>
<event>
 9    1  0.7926126E-001  0.2727862E+03  0.7818608E-02  0.1099696E+00
         -2   -1    0    0    0  501 -0.00000000000E+00  0.00000000000E+00  0.17262837541E+02  0.17262837541E+02  0.00000000000E+00 0.  1.
          2   -1    0    0  501    0  0.00000000000E+00 -0.00000000000E+00 -0.10776369543E+04  0.10776369543E+04  0.00000000000E+00 0.  1.
         35    2    1    2    0    0 -0.35527136788E-14  0.00000000000E+00 -0.10603741168E+04  0.10948997918E+04  0.27278615559E+03 0.  0.
         25    2    3    3    0    0  0.13586247765E+02  0.51134178012E+02 -0.58728344825E+03  0.60266339688E+03  0.12450715265E+03 0.  0.
         25    2    3    3    0    0 -0.13586247765E+02 -0.51134178012E+02 -0.47309066851E+03  0.49223639496E+03  0.12523017849E+03 0.  0.
          5    1    4    4  502    0  0.33700423440E+01  0.61231925144E+02 -0.58395817006E+03  0.58718816423E+03  0.47000000000E+01 0.  1.
         -5    1    4    4    0  502  0.10216205421E+02 -0.10097747132E+02 -0.33252781928E+01  0.15475232644E+02  0.47000000000E+01 0.  1.
          5    1    5    5  503    0  0.34972103091E+02 -0.24189174173E+02 -0.38905271062E+03  0.39139783569E+03  0.47000000000E+01 0.  1.
         -5    1    5    5    0  503 -0.48558350855E+02 -0.26945003839E+02 -0.84037957886E+02  0.10083855927E+03  0.47000000000E+01 0.  1.
<mgrwt>
<rscale>  0 0.27278616E+03</rscale>
<asrwt>0</asrwt>
<pdfrwt beam="1">  1        2 0.16579031E+00 0.27278616E+03</pdfrwt>
<pdfrwt beam="2">  1       -2 0.26558210E-02 0.27278616E+03</pdfrwt>
<totfact> 0.11937220E+04</totfact>
</mgrwt>
</event>
<event>
 9    1  0.7926126E-001  0.2752922E+03  0.7818608E-02  0.1098288E+00
          1   -1    0    0  501    0  0.00000000000E+00  0.00000000000E+00  0.12193220054E+03  0.12193220054E+03  0.00000000000E+00 0.  1.
         -1   -1    0    0    0  501 -0.00000000000E+00 -0.00000000000E+00 -0.15538514972E+03  0.15538514972E+03  0.00000000000E+00 0.  1.
         35    2    1    2    0    0  0.14210854715E-13  0.71054273576E-14 -0.33452949174E+02  0.27731735026E+03  0.27529223191E+03 0.  0.
         25    2    3    3    0    0 -0.50948053652E+02 -0.19741773568E+02  0.32588560257E+01  0.13631345612E+03  0.12484108451E+03 0.  0.
         25    2    3    3    0    0  0.50948053652E+02  0.19741773568E+02 -0.36711805199E+02  0.14100389414E+03  0.12469522737E+03 0.  0.
          5    1    4    4  502    0 -0.43712879252E+02 -0.58264062388E+02 -0.35345726697E+02  0.81098256295E+02  0.47000000000E+01 0.  1.
         -5    1    4    4    0  502 -0.72351743996E+01  0.38522288820E+02  0.38604582722E+02  0.55215199825E+02  0.47000000000E+01 0.  1.
          5    1    5    5  503    0  0.23314854717E+02 -0.44441980391E+02 -0.48536404728E+02  0.69975314615E+02  0.47000000000E+01 0.  1.
         -5    1    5    5    0  503  0.27633198935E+02  0.64183753959E+02  0.11824599529E+02  0.71028579527E+02  0.47000000000E+01 0.  1.
<mgrwt>
<rscale>  0 0.27529223E+03</rscale>
<asrwt>0</asrwt>
<pdfrwt beam="1">  1        1 0.18758800E-01 0.27529223E+03</pdfrwt>
<pdfrwt beam="2">  1       -1 0.23905408E-01 0.27529223E+03</pdfrwt>
<totfact> 0.41417613E+03</totfact>
</mgrwt>
</event>
<event>
 9    1  0.7926126E-001  0.2758532E+03  0.7818608E-02  0.1097976E+00
         -3   -1    0    0    0  501 -0.00000000000E+00  0.00000000000E+00  0.23679874728E+03  0.23679874728E+03  0.00000000000E+00 0.  1.
          3   -1    0    0  501    0  0.00000000000E+00 -0.00000000000E+00 -0.80337169963E+02  0.80337169963E+02  0.00000000000E+00 0.  1.
         35    2    1    2    0    0 -0.35527136788E-14  0.00000000000E+00  0.15646157732E+03  0.31713591725E+03  0.27585315809E+03 0.  0.
         25    2    3    3    0    0 -0.40112154356E+01  0.41699807657E+02  0.36000848286E+02  0.13603718775E+03  0.12431850854E+03 0.  0.
         25    2    3    3    0    0  0.40112154356E+01 -0.41699807657E+02  0.12046072903E+03  0.18109872950E+03  0.12857293175E+03 0.  0.
          5    1    4    4  502    0  0.13035593278E+02  0.31942519537E+02  0.80205609685E+02  0.87437297942E+02  0.47000000000E+01 0.  1.
         -5    1    4    4    0  502 -0.17046808714E+02  0.97572881201E+01 -0.44204761398E+02  0.48599889805E+02  0.47000000000E+01 0.  1.
          5    1    5    5  503    0  0.35011349879E+02  0.11597696427E+02  0.11282429654E+03  0.11879273157E+03  0.47000000000E+01 0.  1.
         -5    1    5    5    0  503 -0.31000134444E+02 -0.53297504084E+02  0.76364324923E+01  0.62305997933E+02  0.47000000000E+01 0.  1.
<mgrwt>
<rscale>  0 0.27585316E+03</rscale>
<asrwt>0</asrwt>
<pdfrwt beam="1">  1        3 0.12359565E-01 0.27585316E+03</pdfrwt>
<pdfrwt beam="2">  1       -3 0.36430576E-01 0.27585316E+03</pdfrwt>
<totfact> 0.97776718E+02</totfact>
</mgrwt>
</event>
<event>
 9    1  0.7926126E-001  0.2717118E+03  0.7818608E-02  0.1100304E+00
          2   -1    0    0  501    0  0.00000000000E+00  0.00000000000E+00  0.42963889806E+03  0.42963889806E+03  0.00000000000E+00 0.  1.
         -2   -1    0    0    0  501 -0.00000000000E+00 -0.00000000000E+00 -0.42958939474E+02  0.42958939474E+02  0.00000000000E+00 0.  1.
         35    2    1    2    0    0  0.00000000000E+00  0.88817841970E-15  0.38667995859E+03  0.47259783754E+03  0.27171184308E+03 0.  0.
         25    2    3    3    0    0 -0.38396482034E+02 -0.56912085713E+01  0.13907430300E+03  0.19197614098E+03  0.12651678649E+03 0.  0.
         25    2    3    3    0    0  0.38396482034E+02  0.56912085713E+01  0.24760565559E+03  0.28062169655E+03  0.12622716114E+03 0.  0.
          5    1    4    4  502    0  0.26460850057E+02  0.29142886669E+02  0.63779181974E+01  0.40152861289E+02  0.47000000000E+01 0. -1.
         -5    1    4    4    0  502 -0.64857332091E+02 -0.34834095240E+02  0.13269638480E+03  0.15182327969E+03  0.47000000000E+01 0. -1.
          5    1    5    5  503    0  0.60048544372E+02  0.13638632734E+02  0.24947859149E+03  0.25700875004E+03  0.47000000000E+01 0.  1.
         -5    1    5    5    0  503 -0.21652062337E+02 -0.79474241632E+01 -0.18729359020E+01  0.23612946516E+02  0.47000000000E+01 0.  1.
<mgrwt>
<rscale>  0 0.27171184E+03</rscale>
<asrwt>0</asrwt>
<pdfrwt beam="1">  1        2 0.66098289E-01 0.27171184E+03</pdfrwt>
<pdfrwt beam="2">  1       -2 0.66090679E-02 0.27171184E+03</pdfrwt>
<totfact> 0.93341425E+03</totfact>
</mgrwt>
</event>
<event>
 9    1  0.7926126E-001  0.2726444E+03  0.7818608E-02  0.1099776E+00
          2   -1    0    0  501    0  0.00000000000E+00  0.00000000000E+00  0.95830474151E+02  0.95830474151E+02  0.00000000000E+00 0.  1.
         -2   -1    0    0    0  501 -0.00000000000E+00 -0.00000000000E+00 -0.19392305620E+03  0.19392305620E+03  0.00000000000E+00 0.  1.
         35    2    1    2    0    0 -0.71054273576E-14  0.00000000000E+00 -0.98092582051E+02  0.28975353035E+03  0.27264437221E+03 0.  0.
         25    2    3    3    0    0  0.47670411387E+01 -0.43747656658E+02 -0.75952078786E+02  0.15367202972E+03  0.12613402516E+03 0.  0.
         25    2    3    3    0    0 -0.47670411387E+01  0.43747656658E+02 -0.22140503265E+02  0.13608150063E+03  0.12685184580E+03 0.  0.
          5    1    4    4  502    0 -0.34505324822E+02  0.60170856087E+01  0.18446845720E+02  0.39864757335E+02  0.47000000000E+01 0. -1.
         -5    1    4    4    0  502  0.39272365961E+02 -0.49764742266E+02 -0.94398924506E+02  0.11380727239E+03  0.47000000000E+01 0. -1.
          5    1    5    5  503    0  0.60246576379E+02  0.30687043549E+02 -0.10175974493E+02  0.68534553796E+02  0.47000000000E+01 0.  1.
         -5    1    5    5    0  503 -0.65013617518E+02  0.13060613108E+02 -0.11964528772E+02  0.67546946831E+02  0.47000000000E+01 0.  1.
<mgrwt>
<rscale>  0 0.27264437E+03</rscale>
<asrwt>0</asrwt>
<pdfrwt beam="1">  1        2 0.14743150E-01 0.27264437E+03</pdfrwt>
<pdfrwt beam="2">  1       -2 0.29834316E-01 0.27264437E+03</pdfrwt>
<totfact> 0.40852543E+03</totfact>
</mgrwt>
</event>
<event>
 9    1  0.7926126E-001  0.2768008E+03  0.7818608E-02  0.1097449E+00
         -1   -1    0    0    0  501 -0.00000000000E+00  0.00000000000E+00  0.11419347496E+02  0.11419347496E+02  0.00000000000E+00 0.  1.
          1   -1    0    0  501    0  0.00000000000E+00 -0.00000000000E+00 -0.16773869458E+04  0.16773869458E+04  0.00000000000E+00 0.  1.
         35    2    1    2    0    0  0.00000000000E+00  0.00000000000E+00 -0.16659675983E+04  0.16888062933E+04  0.27680075447E+03 0.  0.
         25    2    3    3    0    0 -0.26643422775E+02  0.16964645233E+02 -0.11419650450E+04  0.11491126633E+04  0.12400837847E+03 0.  0.
         25    2    3    3    0    0  0.26643422775E+02 -0.16964645233E+02 -0.52400255329E+03  0.53969362992E+03  0.12527117448E+03 0.  0.
          5    1    4    4  502    0 -0.22191565433E+02  0.63057122749E+02 -0.91349202803E+03  0.91594674603E+03  0.47000000000E+01 0.  1.
         -5    1    4    4    0  502 -0.44518573428E+01 -0.46092477516E+02 -0.22847301695E+03  0.23316591730E+03  0.47000000000E+01 0.  1.
          5    1    5    5  503    0 -0.27145639271E+01  0.76256610637E+01 -0.48409106814E+03  0.48418154841E+03  0.47000000000E+01 0.  1.
         -5    1    5    5    0  503  0.29357986703E+02 -0.24590306297E+02 -0.39911485147E+02  0.55512081511E+02  0.47000000000E+01 0.  1.
<mgrwt>
<rscale>  0 0.27680075E+03</rscale>
<asrwt>0</asrwt>
<pdfrwt beam="1">  1        1 0.25805945E+00 0.27680075E+03</pdfrwt>
<pdfrwt beam="2">  1       -1 0.17568232E-02 0.27680075E+03</pdfrwt>
<totfact> 0.45336686E+03</totfact>
</mgrwt>
</event>
<event>
 9    1  0.7926126E-001  0.2842247E+03  0.7818608E-02  0.1093404E+00
         -4   -1    0    0    0  501 -0.00000000000E+00  0.00000000000E+00  0.32054252186E+02  0.32054252186E+02  0.00000000000E+00 0.  1.
          4   -1    0    0  501    0  0.00000000000E+00 -0.00000000000E+00 -0.63005429928E+03  0.63005429928E+03  0.00000000000E+00 0.  1.
         35    2    1    2    0    0  0.00000000000E+00  0.00000000000E+00 -0.59800004710E+03  0.66210855147E+03  0.28422469562E+03 0.  0.
         25    2    3    3    0    0 -0.19739016594E+02  0.47994196467E+02 -0.19576671334E+03  0.23751301077E+03  0.12407559213E+03 0.  0.
         25    2    3    3    0    0  0.19739016594E+02 -0.47994196467E+02 -0.40223333375E+03  0.42459554070E+03  0.12568471159E+03 0.  0.
          5    1    4    4  502    0  0.24719077735E+01  0.47868795111E+02 -0.85386593207E+01  0.48913500963E+02  0.47000000000E+01 0. -1.
         -5    1    4    4    0  502 -0.22210924367E+02  0.12540135621E+00 -0.18722805402E+03  0.18859950981E+03  0.47000000000E+01 0. -1.
          5    1    5    5  503    0 -0.31797167795E+02 -0.64973838757E+01 -0.24120311004E+02  0.40708172151E+02  0.47000000000E+01 0. -1.
         -5    1    5    5    0  503  0.51536184389E+02 -0.41496812592E+02 -0.37811302275E+03  0.38388736855E+03  0.47000000000E+01 0. -1.
<mgrwt>
<rscale>  0 0.28422470E+03</rscale>
<asrwt>0</asrwt>
<pdfrwt beam="1">  1        4 0.96931431E-01 0.28422470E+03</pdfrwt>
<pdfrwt beam="2">  1       -4 0.49314234E-02 0.28422470E+03</pdfrwt>
<totfact> 0.42155142E+02</totfact>
</mgrwt>
</event>
<event>
 9    1  0.7926126E-001  0.2768526E+03  0.7818608E-02  0.1097421E+00
         -2   -1    0    0    0  501 -0.00000000000E+00  0.00000000000E+00  0.18416970121E+02  0.18416970121E+02  0.00000000000E+00 0.  1.
          2   -1    0    0  501    0  0.00000000000E+00 -0.00000000000E+00 -0.10404444891E+04  0.10404444891E+04  0.00000000000E+00 0.  1.
         35    2    1    2    0    0  0.00000000000E+00  0.00000000000E+00 -0.10220275190E+04  0.10588614593E+04  0.27685256053E+03 0.  0.
         25    2    3    3    0    0  0.50795060346E+02 -0.27400228652E+02 -0.37140679217E+03  0.39633557564E+03  0.12572976006E+03 0.  0.
         25    2    3    3    0    0 -0.50795060346E+02  0.27400228652E+02 -0.65062072684E+03  0.66252588361E+03  0.11091575890E+03 0.  0.
          5    1    4    4  502    0  0.58932253570E+02 -0.64994007318E+02 -0.32069937952E+03  0.33251678683E+03  0.47000000000E+01 0. -1.
         -5    1    4    4    0  502 -0.81371932241E+01  0.37593778666E+02 -0.50707412647E+02  0.63818788811E+02  0.47000000000E+01 0. -1.
          5    1    5    5  503    0 -0.17665907858E+02 -0.93200294990E+01 -0.16148019038E+02  0.26111219220E+02  0.47000000000E+01 0.  1.
         -5    1    5    5    0  503 -0.33129152488E+02  0.36720258151E+02 -0.63447270781E+03  0.63641466439E+03  0.47000000000E+01 0.  1.
<mgrwt>
<rscale>  0 0.27685256E+03</rscale>
<asrwt>0</asrwt>
<pdfrwt beam="1">  1        2 0.16006835E+00 0.27685256E+03</pdfrwt>
<pdfrwt beam="2">  1       -2 0.28333806E-02 0.27685256E+03</pdfrwt>
<totfact> 0.11418068E+04</totfact>
</mgrwt>
</event>
<event>
 9    1  0.7926126E-001  0.3058623E+03  0.7818608E-02  0.1082346E+00
          1   -1    0    0  501    0  0.00000000000E+00  0.00000000000E+00  0.11859555779E+03  0.11859555779E+03  0.00000000000E+00 0.  1.
         -1   -1    0    0    0  501 -0.00000000000E+00 -0.00000000000E+00 -0.19720758436E+03  0.19720758436E+03  0.00000000000E+00 0.  1.
         35    2    1    2    0    0 -0.71054273576E-14  0.00000000000E+00 -0.78612026570E+02  0.31580314215E+03  0.30586234464E+03 0.  0.
         25    2    3    3    0    0  0.32884801555E+02 -0.15235439698E+02  0.34680378391E+02  0.13486204122E+03  0.12518591263E+03 0.  0.
         25    2    3    3    0    0 -0.32884801555E+02  0.15235439698E+02 -0.11329240496E+03  0.18094110093E+03  0.13634875939E+03 0.  0.
          5    1    4    4  502    0  0.24362065763E+02 -0.69812691590E+02  0.12433603521E+02  0.75126604155E+02  0.47000000000E+01 0.  1.
         -5    1    4    4    0  502  0.85227357916E+01  0.54577251892E+02  0.22246774870E+02  0.59735437067E+02  0.47000000000E+01 0.  1.
          5    1    5    5  503    0  0.52877039189E+02 -0.17575652398E+01 -0.36147319661E+02  0.64247871775E+02  0.47000000000E+01 0. -1.
         -5    1    5    5    0  503 -0.85761840744E+02  0.16993004938E+02 -0.77145085301E+02  0.11669322915E+03  0.47000000000E+01 0. -1.
<mgrwt>
<rscale>  0 0.30586234E+03</rscale>
<asrwt>0</asrwt>
<pdfrwt beam="1">  1        1 0.18245471E-01 0.30586234E+03</pdfrwt>
<pdfrwt beam="2">  1       -1 0.30339628E-01 0.30586234E+03</pdfrwt>
<totfact> 0.28836671E+03</totfact>
</mgrwt>
</event>
<event>
 9    1  0.7926126E-001  0.2775296E+03  0.7818608E-02  0.1097046E+00
         -2   -1    0    0    0  501 -0.00000000000E+00  0.00000000000E+00  0.31960175803E+03  0.31960175803E+03  0.00000000000E+00 0. -1.
          2   -1    0    0  501    0  0.00000000000E+00 -0.00000000000E+00 -0.60248954109E+02  0.60248954109E+02  0.00000000000E+00 0. -1.
         35    2    1    2    0    0  0.71054273576E-14  0.00000000000E+00  0.25935280392E+03  0.37985071214E+03  0.27752961393E+03 0.  0.
         25    2    3    3    0    0 -0.25685054557E+02  0.33928685381E+02  0.71755310525E+02  0.15030369856E+03  0.12502599527E+03 0.  0.
         25    2    3    3    0    0  0.25685054557E+02 -0.33928685381E+02  0.18759749339E+03  0.22954701358E+03  0.12525228220E+03 0.  0.
          5    1    4    4  502    0 -0.26707748428E+02  0.66356379433E+02  0.88176571398E+02  0.11363833271E+03  0.47000000000E+01 0. -1.
         -5    1    4    4    0  502  0.10226938707E+01 -0.32427694052E+02 -0.16421260873E+02  0.36665365850E+02  0.47000000000E+01 0. -1.
          5    1    5    5  503    0  0.33709807835E+02 -0.38637985030E+02  0.11013736021E+02  0.52655839302E+02  0.47000000000E+01 0.  1.
         -5    1    5    5    0  503 -0.80247532779E+01  0.47092996494E+01  0.17658375737E+03  0.17689117428E+03  0.47000000000E+01 0.  1.
<mgrwt>
<rscale>  0 0.27752961E+03</rscale>
<asrwt>0</asrwt>
<pdfrwt beam="1">  1        2 0.92690701E-02 0.27752961E+03</pdfrwt>
<pdfrwt beam="2">  1       -2 0.49169500E-01 0.27752961E+03</pdfrwt>
<totfact> 0.27918093E+03</totfact>
</mgrwt>
</event>
<event>
 9    1  0.7926126E-001  0.2737310E+03  0.7818608E-02  0.1099163E+00
         -1   -1    0    0    0  501 -0.00000000000E+00  0.00000000000E+00  0.27896637895E+02  0.27896637895E+02  0.00000000000E+00 0.  1.
          1   -1    0    0  501    0  0.00000000000E+00 -0.00000000000E+00 -0.67148452407E+03  0.67148452407E+03  0.00000000000E+00 0.  1.
         35    2    1    2    0    0  0.71054273576E-14  0.00000000000E+00 -0.64358788617E+03  0.69938116196E+03  0.27373096734E+03 0.  0.
         25    2    3    3    0    0 -0.39544089220E+02  0.34886029630E+02 -0.35032458404E+03  0.37557909965E+03  0.12470595757E+03 0.  0.
         25    2    3    3    0    0  0.39544089220E+02 -0.34886029630E+02 -0.29326330213E+03  0.32380206232E+03  0.12674242039E+03 0.  0.
          5    1    4    4  502    0 -0.69516574653E+02 -0.18350544329E+02 -0.22150750754E+03  0.23293123991E+03  0.47000000000E+01 0. -1.
         -5    1    4    4    0  502  0.29972485433E+02  0.53236573960E+02 -0.12881707650E+03  0.14264785974E+03  0.47000000000E+01 0. -1.
          5    1    5    5  503    0  0.53469388724E+01 -0.20673939989E+02 -0.28465367413E+03  0.28549221661E+03  0.47000000000E+01 0. -1.
         -5    1    5    5    0  503  0.34197150348E+02 -0.14212089641E+02 -0.86096280069E+01  0.38309845709E+02  0.47000000000E+01 0. -1.
<mgrwt>
<rscale>  0 0.27373097E+03</rscale>
<asrwt>0</asrwt>
<pdfrwt beam="1">  1        1 0.10330531E+00 0.27373097E+03</pdfrwt>
<pdfrwt beam="2">  1       -1 0.42917904E-02 0.27373097E+03</pdfrwt>
<totfact> 0.66098035E+03</totfact>
</mgrwt>
</event>
<event>
 9    1  0.7926126E-001  0.2762140E+03  0.7818608E-02  0.1097775E+00
         -2   -1    0    0    0  501 -0.00000000000E+00  0.00000000000E+00  0.77079486964E+01  0.77079486964E+01  0.00000000000E+00 0.  1.
          2   -1    0    0  501    0  0.00000000000E+00 -0.00000000000E+00 -0.24745291424E+04  0.24745291424E+04  0.00000000000E+00 0.  1.
         35    2    1    2    0    0  0.00000000000E+00  0.00000000000E+00 -0.24668211937E+04  0.24822370911E+04  0.27621400165E+03 0.  0.
         25    2    3    3    0    0 -0.39554952946E+02  0.39697078093E+02 -0.10549126169E+04  0.10637332354E+04  0.12468887080E+03 0.  0.
         25    2    3    3    0    0  0.39554952946E+02 -0.39697078093E+02 -0.14119085768E+04  0.14185038556E+04  0.12460701041E+03 0.  0.
          5    1    4    4  502    0 -0.57203340558E+02 -0.91001880486E+01 -0.86049156475E+03  0.86245165581E+03  0.47000000000E+01 0. -1.
         -5    1    4    4    0  502  0.17648387612E+02  0.48797266142E+02 -0.19442105218E+03  0.20128157963E+03  0.47000000000E+01 0. -1.
          5    1    5    5  503    0  0.42115097707E+02 -0.76230215058E+02 -0.66663177618E+03  0.67231297931E+03  0.47000000000E+01 0. -1.
         -5    1    5    5    0  503 -0.25601447613E+01  0.36533136964E+02 -0.74527680059E+03  0.74619087634E+03  0.47000000000E+01 0. -1.
<mgrwt>
<rscale>  0 0.27621400E+03</rscale>
<asrwt>0</asrwt>
<pdfrwt beam="1">  1        2 0.38069723E+00 0.27621400E+03</pdfrwt>
<pdfrwt beam="2">  1       -2 0.11858369E-02 0.27621400E+03</pdfrwt>
<totfact> 0.68891686E+03</totfact>
</mgrwt>
</event>
<event>
 9    1  0.7926126E-001  0.2748573E+03  0.7818608E-02  0.1098531E+00
          1   -1    0    0  501    0  0.00000000000E+00  0.00000000000E+00  0.35271210578E+03  0.35271210578E+03  0.00000000000E+00 0. -1.
         -1   -1    0    0    0  501 -0.00000000000E+00 -0.00000000000E+00 -0.53546890766E+02  0.53546890766E+02  0.00000000000E+00 0. -1.
         35    2    1    2    0    0 -0.10658141036E-13  0.17763568394E-14  0.29916521501E+03  0.40625899655E+03  0.27485732008E+03 0.  0.
         25    2    3    3    0    0  0.19100809638E+02  0.22791418232E+01  0.68575381830E+02  0.14356102945E+03  0.12464810775E+03 0.  0.
         25    2    3    3    0    0 -0.19100809638E+02 -0.22791418232E+01  0.23058983318E+03  0.26269796710E+03  0.12437248624E+03 0.  0.
          5    1    4    4  502    0  0.18560047456E+02  0.19029852254E+02 -0.31785724022E+02  0.41701713274E+02  0.47000000000E+01 0.  1.
         -5    1    4    4    0  502  0.54076218204E+00 -0.16750710430E+02  0.10036110585E+03  0.10185931617E+03  0.47000000000E+01 0.  1.
          5    1    5    5  503    0  0.49370561859E+02  0.11906330715E+02  0.13386481573E+03  0.14325184808E+03  0.47000000000E+01 0. -1.
         -5    1    5    5    0  503 -0.68471371497E+02 -0.14185472538E+02  0.96725017458E+02  0.11944611902E+03  0.47000000000E+01 0. -1.
<mgrwt>
<rscale>  0 0.27485732E+03</rscale>
<asrwt>0</asrwt>
<pdfrwt beam="1">  1        1 0.54263400E-01 0.27485732E+03</pdfrwt>
<pdfrwt beam="2">  1       -1 0.82379834E-02 0.27485732E+03</pdfrwt>
<totfact> 0.58282138E+03</totfact>
</mgrwt>
</event>
<event>
 9    1  0.7926126E-001  0.3015680E+03  0.7818608E-02  0.1084459E+00
         -2   -1    0    0    0  501 -0.00000000000E+00  0.00000000000E+00  0.13691331280E+02  0.13691331280E+02  0.00000000000E+00 0.  1.
          2   -1    0    0  501    0  0.00000000000E+00 -0.00000000000E+00 -0.16605988996E+04  0.16605988996E+04  0.00000000000E+00 0.  1.
         35    2    1    2    0    0  0.00000000000E+00  0.00000000000E+00 -0.16469075683E+04  0.16742902308E+04  0.30156796685E+03 0.  0.
         25    2    3    3    0    0 -0.84357342172E+02  0.69569614838E+01 -0.87476365903E+03  0.88753611420E+03  0.12387225015E+03 0.  0.
         25    2    3    3    0    0  0.84357342172E+02 -0.69569614838E+01 -0.77214390925E+03  0.78675411664E+03  0.12494503980E+03 0.  0.
          5    1    4    4  502    0 -0.90388706823E+02  0.51465757520E+02 -0.56768203608E+03  0.57715147631E+03  0.47000000000E+01 0. -1.
         -5    1    4    4    0  502  0.60313646505E+01 -0.44508796036E+02 -0.30708162295E+03  0.31038463789E+03  0.47000000000E+01 0. -1.
          5    1    5    5  503    0  0.18220176978E+02  0.33709220800E+02 -0.55061946488E+03  0.55197116911E+03  0.47000000000E+01 0. -1.
         -5    1    5    5    0  503  0.66137165194E+02 -0.40666182283E+02 -0.22152444436E+03  0.23478294753E+03  0.47000000000E+01 0. -1.
<mgrwt>
<rscale>  0 0.30156797E+03</rscale>
<asrwt>0</asrwt>
<pdfrwt beam="1">  1        2 0.25547670E+00 0.30156797E+03</pdfrwt>
<pdfrwt beam="2">  1       -2 0.21063591E-02 0.30156797E+03</pdfrwt>
<totfact> 0.80382109E+03</totfact>
</mgrwt>
</event>
<event>
 9    1  0.7926126E-001  0.2748064E+03  0.7818608E-02  0.1098560E+00
          2   -1    0    0  501    0  0.00000000000E+00  0.00000000000E+00  0.18042189526E+04  0.18042189526E+04  0.00000000000E+00 0. -1.
         -2   -1    0    0    0  501 -0.00000000000E+00 -0.00000000000E+00 -0.10464159659E+02  0.10464159659E+02  0.00000000000E+00 0. -1.
         35    2    1    2    0    0  0.00000000000E+00  0.00000000000E+00  0.17937547929E+04  0.18146831122E+04  0.27480636949E+03 0.  0.
         25    2    3    3    0    0 -0.25705779098E+02  0.16580686394E+02  0.12185150696E+04  0.12254035045E+04  0.12609150538E+03 0.  0.
         25    2    3    3    0    0  0.25705779098E+02 -0.16580686394E+02  0.57523972328E+03  0.58927960771E+03  0.12415317387E+03 0.  0.
          5    1    4    4  502    0  0.46677239777E+02  0.19070802232E+02  0.70058710604E+03  0.70241500793E+03  0.47000000000E+01 0.  1.
         -5    1    4    4    0  502 -0.72383018876E+02 -0.24901158379E+01  0.51792796358E+03  0.52298849658E+03  0.47000000000E+01 0.  1.
          5    1    5    5  503    0  0.38215138754E+02  0.33723428776E+02  0.11219274130E+03  0.12331653449E+03  0.47000000000E+01 0. -1.
         -5    1    5    5    0  503 -0.12509359656E+02 -0.50304115170E+02  0.46304698199E+03  0.46596307323E+03  0.47000000000E+01 0. -1.
<mgrwt>
<rscale>  0 0.27480637E+03</rscale>
<asrwt>0</asrwt>
<pdfrwt beam="1">  1        2 0.27757190E+00 0.27480637E+03</pdfrwt>
<pdfrwt beam="2">  1       -2 0.16098721E-02 0.27480637E+03</pdfrwt>
<totfact> 0.10015234E+04</totfact>
</mgrwt>
</event>
<event>
 9    1  0.7926126E-001  0.2709384E+03  0.7818608E-02  0.1100744E+00
         -1   -1    0    0    0  501 -0.00000000000E+00  0.00000000000E+00  0.34620833453E+02  0.34620833453E+02  0.00000000000E+00 0.  1.
          1   -1    0    0  501    0  0.00000000000E+00 -0.00000000000E+00 -0.53008261588E+03  0.53008261588E+03  0.00000000000E+00 0.  1.
         35    2    1    2    0    0  0.71054273576E-14  0.00000000000E+00 -0.49546178243E+03  0.56470344933E+03  0.27093838385E+03 0.  0.
         25    2    3    3    0    0 -0.46928480203E+02 -0.69030692839E+01 -0.20084383615E+03  0.24116915312E+03  0.12479735285E+03 0.  0.
         25    2    3    3    0    0  0.46928480203E+02  0.69030692839E+01 -0.29461794628E+03  0.32353429621E+03  0.12499908774E+03 0.  0.
          5    1    4    4  502    0  0.37335744884E+02  0.22769953815E+02 -0.69765677357E+02  0.82472834193E+02  0.47000000000E+01 0. -1.
         -5    1    4    4    0  502 -0.84264225087E+02 -0.29673023099E+02 -0.13107815879E+03  0.15869631893E+03  0.47000000000E+01 0. -1.
          5    1    5    5  503    0  0.84722187117E+02 -0.17719469798E+02 -0.21646739339E+03  0.23317815292E+03  0.47000000000E+01 0. -1.
         -5    1    5    5    0  503 -0.37793706914E+02  0.24622539082E+02 -0.78150552887E+02  0.90356143287E+02  0.47000000000E+01 0. -1.
<mgrwt>
<rscale>  0 0.27093838E+03</rscale>
<asrwt>0</asrwt>
<pdfrwt beam="1">  1        1 0.81551164E-01 0.27093838E+03</pdfrwt>
<pdfrwt beam="2">  1       -1 0.53262826E-02 0.27093838E+03</pdfrwt>
<totfact> 0.66424803E+03</totfact>
</mgrwt>
</event>
<event>
 9    1  0.7926126E-001  0.2739154E+03  0.7818608E-02  0.1099059E+00
         -2   -1    0    0    0  501 -0.00000000000E+00  0.00000000000E+00  0.60560210741E+02  0.60560210741E+02  0.00000000000E+00 0. -1.
          2   -1    0    0  501    0  0.00000000000E+00 -0.00000000000E+00 -0.30973156347E+03  0.30973156347E+03  0.00000000000E+00 0. -1.
         35    2    1    2    0    0  0.00000000000E+00 -0.35527136788E-14 -0.24917135273E+03  0.37029177421E+03  0.27391537932E+03 0.  0.
         25    2    3    3    0    0  0.47582094643E+02 -0.28862911107E+02 -0.12321492189E+03  0.18406328509E+03  0.12490097107E+03 0.  0.
         25    2    3    3    0    0 -0.47582094643E+02  0.28862911107E+02 -0.12595643084E+03  0.18622848912E+03  0.12537505463E+03 0.  0.
          5    1    4    4  502    0  0.46162299130E+02 -0.50945486757E+02 -0.13990240231E+03  0.15595246921E+03  0.47000000000E+01 0.  1.
         -5    1    4    4    0  502  0.14197955130E+01  0.22082575650E+02  0.16687480416E+02  0.28110815877E+02  0.47000000000E+01 0.  1.
          5    1    5    5  503    0 -0.26080997951E+02  0.27503825736E+02  0.16838581049E+02  0.41740947473E+02  0.47000000000E+01 0. -1.
         -5    1    5    5    0  503 -0.21501096692E+02  0.13590853718E+01 -0.14279501188E+03  0.14448754165E+03  0.47000000000E+01 0. -1.
<mgrwt>
<rscale>  0 0.27391538E+03</rscale>
<asrwt>0</asrwt>
<pdfrwt beam="1">  1        2 0.47651008E-01 0.27391538E+03</pdfrwt>
<pdfrwt beam="2">  1       -2 0.93169558E-02 0.27391538E+03</pdfrwt>
<totfact> 0.77853783E+03</totfact>
</mgrwt>
</event>
<event>
 9    1  0.7926126E-001  0.2772670E+03  0.7818608E-02  0.1097191E+00
          2   -1    0    0  501    0  0.00000000000E+00  0.00000000000E+00  0.28883933655E+04  0.28883933655E+04  0.00000000000E+00 0.  1.
         -2   -1    0    0    0  501 -0.00000000000E+00 -0.00000000000E+00 -0.66539575566E+01  0.66539575566E+01  0.00000000000E+00 0.  1.
         35    2    1    2    0    0  0.00000000000E+00  0.71054273576E-14  0.28817394080E+04  0.28950473231E+04  0.27726699667E+03 0.  0.
         25    2    3    3    0    0 -0.50472646740E+01 -0.47544287530E+02  0.11469923015E+04  0.11551555345E+04  0.12847970617E+03 0.  0.
         25    2    3    3    0    0  0.50472646740E+01  0.47544287530E+02  0.17347471064E+04  0.17398917886E+04  0.12485983587E+03 0.  0.
          5    1    4    4  502    0  0.52640776635E+02  0.11815766193E+02  0.44239157087E+03  0.44569390356E+03  0.47000000000E+01 0.  1.
         -5    1    4    4    0  502 -0.57688041309E+02 -0.59360053723E+02  0.70460073065E+03  0.70946163091E+03  0.47000000000E+01 0.  1.
          5    1    5    5  503    0 -0.38879716403E+02  0.43848010500E+01  0.13183982271E+04  0.13189870485E+04  0.47000000000E+01 0.  1.
         -5    1    5    5    0  503  0.43926981077E+02  0.43159486480E+02  0.41634887936E+03  0.42090474016E+03  0.47000000000E+01 0.  1.
<mgrwt>
<rscale>  0 0.27726700E+03</rscale>
<asrwt>0</asrwt>
<pdfrwt beam="1">  1        2 0.44436721E+00 0.27726700E+03</pdfrwt>
<pdfrwt beam="2">  1       -2 0.10236881E-02 0.27726700E+03</pdfrwt>
<totfact> 0.49921057E+03</totfact>
</mgrwt>
</event>
<event>
 9    1  0.7926126E-001  0.2768946E+03  0.7818608E-02  0.1097397E+00
         -1   -1    0    0    0  501 -0.00000000000E+00  0.00000000000E+00  0.11185467707E+02  0.11185467707E+02  0.00000000000E+00 0.  1.
          1   -1    0    0  501    0  0.00000000000E+00 -0.00000000000E+00 -0.17136216043E+04  0.17136216043E+04  0.00000000000E+00 0.  1.
         35    2    1    2    0    0 -0.35527136788E-14  0.71054273576E-14 -0.17024361366E+04  0.17248070720E+04  0.27689463062E+03 0.  0.
         25    2    3    3    0    0 -0.13238535762E+02  0.28584781115E+02 -0.11675996464E+04  0.11746747957E+04  0.12481823890E+03 0.  0.
         25    2    3    3    0    0  0.13238535762E+02 -0.28584781115E+02 -0.53483649019E+03  0.55013227633E+03  0.12491237604E+03 0.  0.
          5    1    4    4  502    0  0.35679642765E+02 -0.90254973306E+01 -0.86586335329E+03  0.86665791007E+03  0.47000000000E+01 0. -1.
         -5    1    4    4    0  502 -0.48918178527E+02  0.37610278446E+02 -0.30173629310E+03  0.30801688559E+03  0.47000000000E+01 0. -1.
          5    1    5    5  503    0  0.61416066026E+01 -0.20583486329E+02 -0.83566128900E+01  0.23522802131E+02  0.47000000000E+01 0. -1.
         -5    1    5    5    0  503  0.70969291595E+01 -0.80012947862E+01 -0.52647987730E+03  0.52660947420E+03  0.47000000000E+01 0. -1.
<mgrwt>
<rscale>  0 0.27689463E+03</rscale>
<asrwt>0</asrwt>
<pdfrwt beam="1">  1        1 0.26363408E+00 0.27689463E+03</pdfrwt>
<pdfrwt beam="2">  1       -1 0.17208413E-02 0.27689463E+03</pdfrwt>
<totfact> 0.44249338E+03</totfact>
</mgrwt>
</event>
<event>
 9    1  0.7926126E-001  0.2745926E+03  0.7818608E-02  0.1098680E+00
         -2   -1    0    0    0  501 -0.00000000000E+00  0.00000000000E+00  0.18539849155E+02  0.18539849155E+02  0.00000000000E+00 0. -1.
          2   -1    0    0  501    0  0.00000000000E+00 -0.00000000000E+00 -0.10167436724E+04  0.10167436724E+04  0.00000000000E+00 0. -1.
         35    2    1    2    0    0  0.00000000000E+00  0.00000000000E+00 -0.99820382322E+03  0.10352835215E+04  0.27459260234E+03 0.  0.
         25    2    3    3    0    0  0.13512631705E+02  0.36977411757E+02 -0.64663082586E+03  0.65986006105E+03  0.12543506295E+03 0.  0.
         25    2    3    3    0    0 -0.13512631705E+02 -0.36977411757E+02 -0.35157299736E+03  0.37542346048E+03  0.12565540980E+03 0.  0.
          5    1    4    4  502    0 -0.34962709854E+01  0.65327162742E+02 -0.17240289349E+03  0.18445788079E+03  0.47000000000E+01 0. -1.
         -5    1    4    4    0  502  0.17008902690E+02 -0.28349750985E+02 -0.47422793237E+03  0.47540218025E+03  0.47000000000E+01 0. -1.
          5    1    5    5  503    0 -0.53407027183E+02  0.18656619388E+02 -0.21781178969E+03  0.22508764010E+03  0.47000000000E+01 0. -1.
         -5    1    5    5    0  503  0.39894395478E+02 -0.55634031145E+02 -0.13376120768E+03  0.15033582038E+03  0.47000000000E+01 0. -1.
<mgrwt>
<rscale>  0 0.27459260E+03</rscale>
<asrwt>0</asrwt>
<pdfrwt beam="1">  1        2 0.15642216E+00 0.27459260E+03</pdfrwt>
<pdfrwt beam="2">  1       -2 0.28522834E-02 0.27459260E+03</pdfrwt>
<totfact> 0.11682194E+04</totfact>
</mgrwt>
</event>
<event>
 9    1  0.7926126E-001  0.2763568E+03  0.7818608E-02  0.1097696E+00
          1   -1    0    0  501    0  0.00000000000E+00  0.00000000000E+00  0.53126070752E+02  0.53126070752E+02  0.00000000000E+00 0. -1.
         -1   -1    0    0    0  501 -0.00000000000E+00 -0.00000000000E+00 -0.35939536832E+03  0.35939536832E+03  0.00000000000E+00 0. -1.
         35    2    1    2    0    0  0.35527136788E-14  0.00000000000E+00 -0.30626929756E+03  0.41252143907E+03  0.27635675324E+03 0.  0.
         25    2    3    3    0    0 -0.48142158659E+01 -0.40687740230E+02 -0.21486028573E+03  0.25256281629E+03  0.12627099790E+03 0.  0.
         25    2    3    3    0    0  0.48142158659E+01  0.40687740230E+02 -0.91409011838E+02  0.15995862278E+03  0.12470960138E+03 0.  0.
          5    1    4    4  502    0 -0.47637423251E+02 -0.77659958220E+01 -0.18377218053E+03  0.19006298725E+03  0.47000000000E+01 0.  1.
         -5    1    4    4    0  502  0.42823207385E+02 -0.32921744408E+02 -0.31088105193E+02  0.62499829040E+02  0.47000000000E+01 0.  1.
          5    1    5    5  503    0 -0.20223377971E+02  0.69203690431E+02 -0.13964046185E+02  0.73588180924E+02  0.47000000000E+01 0. -1.
         -5    1    5    5    0  503  0.25037593837E+02 -0.28515950201E+02 -0.77444965652E+02  0.86370441853E+02  0.47000000000E+01 0. -1.
<mgrwt>
<rscale>  0 0.27635675E+03</rscale>
<asrwt>0</asrwt>
<pdfrwt beam="1">  1        1 0.81732417E-02 0.27635675E+03</pdfrwt>
<pdfrwt beam="2">  1       -1 0.55291595E-01 0.27635675E+03</pdfrwt>
<totfact> 0.28616791E+03</totfact>
</mgrwt>
</event>
<event>
 9    1  0.7926126E-001  0.2811132E+03  0.7818608E-02  0.1095083E+00
         -2   -1    0    0    0  501 -0.00000000000E+00  0.00000000000E+00  0.22681563711E+03  0.22681563711E+03  0.00000000000E+00 0. -1.
          2   -1    0    0  501    0  0.00000000000E+00 -0.00000000000E+00 -0.87102256744E+02  0.87102256744E+02  0.00000000000E+00 0. -1.
         35    2    1    2    0    0  0.00000000000E+00  0.14210854715E-13  0.13971338036E+03  0.31391789385E+03  0.28111317192E+03 0.  0.
         25    2    3    3    0    0  0.46194421050E+02  0.46707572122E+02  0.65640026196E+02  0.15467508073E+03  0.12369416207E+03 0.  0.
         25    2    3    3    0    0 -0.46194421050E+02 -0.46707572122E+02  0.74073354165E+02  0.15924281312E+03  0.12472325325E+03 0.  0.
          5    1    4    4  502    0  0.54916159341E+02  0.52571248807E+02 -0.11191227899E+02  0.76986065881E+02  0.47000000000E+01 0.  1.
         -5    1    4    4    0  502 -0.87217382908E+01 -0.58636766854E+01  0.76831254095E+02  0.77689014853E+02  0.47000000000E+01 0.  1.
          5    1    5    5  503    0 -0.18806817396E+02  0.42685944952E+02  0.30939262871E+02  0.56170403809E+02  0.47000000000E+01 0. -1.
         -5    1    5    5    0  503 -0.27387603655E+02 -0.89393517074E+02  0.43134091294E+02  0.10307240931E+03  0.47000000000E+01 0. -1.
<mgrwt>
<rscale>  0 0.28111317E+03</rscale>
<asrwt>0</asrwt>
<pdfrwt beam="1">  1        2 0.13400347E-01 0.28111317E+03</pdfrwt>
<pdfrwt beam="2">  1       -2 0.34894713E-01 0.28111317E+03</pdfrwt>
<totfact> 0.34362125E+03</totfact>
</mgrwt>
</event>
<event>
 9    1  0.7926126E-001  0.2755689E+03  0.7818608E-02  0.1098134E+00
          2   -1    0    0  501    0  0.00000000000E+00  0.00000000000E+00  0.23924235492E+04  0.23924235492E+04  0.00000000000E+00 0.  1.
         -2   -1    0    0    0  501 -0.00000000000E+00 -0.00000000000E+00 -0.79352802993E+01  0.79352802993E+01  0.00000000000E+00 0.  1.
         35    2    1    2    0    0  0.35527136788E-14 -0.71054273576E-14  0.23844882689E+04  0.24003588295E+04  0.27556887675E+03 0.  0.
         25    2    3    3    0    0 -0.63687285938E+01  0.52364030514E+02  0.14078444783E+04  0.14143825918E+04  0.12517782789E+03 0.  0.
         25    2    3    3    0    0  0.63687285938E+01 -0.52364030514E+02  0.97664379064E+03  0.98597623771E+03  0.12463344309E+03 0.  0.
          5    1    4    4  502    0 -0.22399466638E+02  0.59589285496E+02  0.31581917551E+03  0.32220561862E+03  0.47000000000E+01 0.  1.
         -5    1    4    4    0  502  0.16030738044E+02 -0.72252549818E+01  0.10920253028E+04  0.10921769732E+04  0.47000000000E+01 0.  1.
          5    1    5    5  503    0  0.11939529302E+02 -0.38550380488E+02  0.96649791379E+03  0.96735153464E+03  0.47000000000E+01 0. -1.
         -5    1    5    5    0  503 -0.55708007080E+01 -0.13813650026E+02  0.10145876847E+02  0.18624703073E+02  0.47000000000E+01 0. -1.
<mgrwt>
<rscale>  0 0.27556888E+03</rscale>
<asrwt>0</asrwt>
<pdfrwt beam="1">  1        2 0.36806459E+00 0.27556888E+03</pdfrwt>
<pdfrwt beam="2">  1       -2 0.12208143E-02 0.27556888E+03</pdfrwt>
<totfact> 0.73186788E+03</totfact>
</mgrwt>
</event>
<event>
 9    1  0.7926126E-001  0.2711974E+03  0.7818608E-02  0.1100596E+00
          2   -1    0    0  501    0  0.00000000000E+00  0.00000000000E+00  0.64325000419E+03  0.64325000419E+03  0.00000000000E+00 0.  1.
         -2   -1    0    0    0  501 -0.00000000000E+00 -0.00000000000E+00 -0.28584537581E+02  0.28584537581E+02  0.00000000000E+00 0.  1.
         35    2    1    2    0    0  0.13322676296E-14  0.14210854715E-13  0.61466546661E+03  0.67183454178E+03  0.27119737402E+03 0.  0.
         25    2    3    3    0    0 -0.15890420637E+01 -0.52905558428E+02  0.32289262950E+03  0.35026547581E+03  0.12499892076E+03 0.  0.
         25    2    3    3    0    0  0.15890420637E+01  0.52905558428E+02  0.29177283711E+03  0.32156906597E+03  0.12439353899E+03 0.  0.
          5    1    4    4  502    0 -0.66531706842E+00  0.29940442652E+02  0.19806257830E+03  0.20036902874E+03  0.47000000000E+01 0.  1.
         -5    1    4    4    0  502 -0.92372499528E+00 -0.82846001080E+02  0.12483005120E+03  0.14989644707E+03  0.47000000000E+01 0.  1.
          5    1    5    5  503    0  0.46557397837E+02 -0.17646381146E+02  0.87618481153E+02  0.10088644260E+03  0.47000000000E+01 0. -1.
         -5    1    5    5    0  503 -0.44968355773E+02  0.70551939575E+02  0.20415435596E+03  0.22068262337E+03  0.47000000000E+01 0. -1.
<mgrwt>
<rscale>  0 0.27119737E+03</rscale>
<asrwt>0</asrwt>
<pdfrwt beam="1">  1        2 0.98961528E-01 0.27119737E+03</pdfrwt>
<pdfrwt beam="2">  1       -2 0.43976216E-02 0.27119737E+03</pdfrwt>
<totfact> 0.11004612E+04</totfact>
</mgrwt>
</event>
<event>
 9    1  0.7926126E-001  0.2784807E+03  0.7818608E-02  0.1096522E+00
          2   -1    0    0  501    0  0.00000000000E+00  0.00000000000E+00  0.75655096648E+03  0.75655096648E+03  0.00000000000E+00 0.  1.
         -2   -1    0    0    0  501 -0.00000000000E+00 -0.00000000000E+00 -0.25626653189E+02  0.25626653189E+02  0.00000000000E+00 0.  1.
         35    2    1    2    0    0  0.71054273576E-14  0.00000000000E+00  0.73092431329E+03  0.78217761967E+03  0.27848065813E+03 0.  0.
         25    2    3    3    0    0  0.55959745541E+02  0.23374232289E+02  0.34466251206E+03  0.37162052510E+03  0.12502687553E+03 0.  0.
         25    2    3    3    0    0 -0.55959745541E+02 -0.23374232289E+02  0.38626180123E+03  0.41055709456E+03  0.12522420273E+03 0.  0.
          5    1    4    4  502    0  0.94972942456E+02  0.90730268612E+01  0.26425612435E+03  0.28099033590E+03  0.47000000000E+01 0. -1.
         -5    1    4    4    0  502 -0.39013196914E+02  0.14301205428E+02  0.80406387709E+02  0.90630189201E+02  0.47000000000E+01 0. -1.
          5    1    5    5  503    0 -0.78710242977E+02 -0.44731194435E+02  0.17635039281E+03  0.19828699692E+03  0.47000000000E+01 0. -1.
         -5    1    5    5    0  503  0.22750497435E+02  0.21356962145E+02  0.20991140843E+03  0.21227009764E+03  0.47000000000E+01 0. -1.
<mgrwt>
<rscale>  0 0.27848066E+03</rscale>
<asrwt>0</asrwt>
<pdfrwt beam="1">  1        2 0.11639244E+00 0.27848066E+03</pdfrwt>
<pdfrwt beam="2">  1       -2 0.39425626E-02 0.27848066E+03</pdfrwt>
<totfact> 0.10666288E+04</totfact>
</mgrwt>
</event>
<event>
 9    1  0.7926126E-001  0.2746062E+03  0.7818608E-02  0.1098672E+00
          2   -1    0    0  501    0  0.00000000000E+00  0.00000000000E+00  0.38373757693E+03  0.38373757693E+03  0.00000000000E+00 0. -1.
         -2   -1    0    0    0  501 -0.00000000000E+00 -0.00000000000E+00 -0.49127696163E+02  0.49127696163E+02  0.00000000000E+00 0. -1.
         35    2    1    2    0    0  0.00000000000E+00  0.00000000000E+00  0.33460988076E+03  0.43286527309E+03  0.27460621323E+03 0.  0.
         25    2    3    3    0    0 -0.19771402785E+02 -0.11505148988E+02  0.25249124980E+03  0.28179820281E+03  0.12302487171E+03 0.  0.
         25    2    3    3    0    0  0.19771402785E+02  0.11505148988E+02  0.82118630958E+02  0.15106707028E+03  0.12471773471E+03 0.  0.
          5    1    4    4  502    0 -0.50749206535E+01 -0.63809421935E+02  0.91072038948E+02  0.11141635170E+03  0.47000000000E+01 0.  1.
         -5    1    4    4    0  502 -0.14696482131E+02  0.52304272947E+02  0.16141921086E+03  0.17038185111E+03  0.47000000000E+01 0.  1.
          5    1    5    5  503    0  0.36048534460E+02  0.48171150071E+02  0.91491690292E+02  0.10960280986E+03  0.47000000000E+01 0. -1.
         -5    1    5    5    0  503 -0.16277131675E+02 -0.36666001083E+02 -0.93730593342E+01  0.41464260421E+02  0.47000000000E+01 0. -1.
<mgrwt>
<rscale>  0 0.27460621E+03</rscale>
<asrwt>0</asrwt>
<pdfrwt beam="1">  1        2 0.59036548E-01 0.27460621E+03</pdfrwt>
<pdfrwt beam="2">  1       -2 0.75581074E-02 0.27460621E+03</pdfrwt>
<totfact> 0.85778557E+03</totfact>
</mgrwt>
</event>
<event>
 9    1  0.7926126E-001  0.2772237E+03  0.7818608E-02  0.1097215E+00
          2   -1    0    0  501    0  0.00000000000E+00  0.00000000000E+00  0.36117137407E+02  0.36117137407E+02  0.00000000000E+00 0.  1.
         -2   -1    0    0    0  501 -0.00000000000E+00 -0.00000000000E+00 -0.53197042541E+03  0.53197042541E+03  0.00000000000E+00 0.  1.
         35    2    1    2    0    0  0.00000000000E+00  0.00000000000E+00 -0.49585328800E+03  0.56808756281E+03  0.27722372879E+03 0.  0.
         25    2    3    3    0    0  0.46252148135E+02  0.10971094785E+02 -0.17989826436E+03  0.22398733907E+03  0.12468887848E+03 0.  0.
         25    2    3    3    0    0 -0.46252148135E+02 -0.10971094785E+02 -0.31595502364E+03  0.34410022374E+03  0.12774099142E+03 0.  0.
          5    1    4    4  502    0  0.33802565023E+02 -0.47963413893E+02 -0.38813671673E+02  0.70510237435E+02  0.47000000000E+01 0. -1.
         -5    1    4    4    0  502  0.12449583112E+02  0.58934508678E+02 -0.14108459269E+03  0.15347710164E+03  0.47000000000E+01 0. -1.
          5    1    5    5  503    0 -0.60252807347E+02  0.32764533460E+02 -0.88791970553E+02  0.11229434305E+03  0.47000000000E+01 0. -1.
         -5    1    5    5    0  503  0.14000659212E+02 -0.43735628245E+02 -0.22716305309E+03  0.23180588069E+03  0.47000000000E+01 0. -1.
<mgrwt>
<rscale>  0 0.27722373E+03</rscale>
<asrwt>0</asrwt>
<pdfrwt beam="1">  1        2 0.55564830E-02 0.27722373E+03</pdfrwt>
<pdfrwt beam="2">  1       -2 0.81841599E-01 0.27722373E+03</pdfrwt>
<totfact> 0.18483268E+03</totfact>
</mgrwt>
</event>
<event>
 9    1  0.7926126E-001  0.2695708E+03  0.7818608E-02  0.1101525E+00
         -1   -1    0    0    0  501 -0.00000000000E+00  0.00000000000E+00  0.18146489585E+02  0.18146489585E+02  0.00000000000E+00 0. -1.
          1   -1    0    0  501    0  0.00000000000E+00 -0.00000000000E+00 -0.10011363319E+04  0.10011363319E+04  0.00000000000E+00 0. -1.
         35    2    1    2    0    0  0.00000000000E+00 -0.71054273576E-14 -0.98298984231E+03  0.10192828215E+04  0.26957084427E+03 0.  0.
         25    2    3    3    0    0  0.38596239455E+02 -0.32666628315E+02 -0.40683039643E+03  0.42766634149E+03  0.12178156623E+03 0.  0.
         25    2    3    3    0    0 -0.38596239455E+02  0.32666628315E+02 -0.57615944587E+03  0.59161647999E+03  0.12447318595E+03 0.  0.
          5    1    4    4  502    0  0.36520549329E+02  0.42555856684E+02 -0.16262395104E+03  0.17208541749E+03  0.47000000000E+01 0.  1.
         -5    1    4    4    0  502  0.20756901265E+01 -0.75222484998E+02 -0.24420644539E+03  0.25558092400E+03  0.47000000000E+01 0.  1.
          5    1    5    5  503    0  0.10823305563E+02  0.66472296210E+02 -0.39589211933E+03  0.40160723381E+03  0.47000000000E+01 0.  1.
         -5    1    5    5    0  503 -0.49419545018E+02 -0.33805667896E+02 -0.18026732655E+03  0.19000924618E+03  0.47000000000E+01 0.  1.
<mgrwt>
<rscale>  0 0.26957084E+03</rscale>
<asrwt>0</asrwt>
<pdfrwt beam="1">  1        1 0.15402096E+00 0.26957084E+03</pdfrwt>
<pdfrwt beam="2">  1       -1 0.27917679E-02 0.26957084E+03</pdfrwt>
<totfact> 0.66870586E+03</totfact>
</mgrwt>
</event>
<event>
 9    1  0.7926126E-001  0.2694008E+03  0.7818608E-02  0.1101623E+00
          1   -1    0    0  501    0  0.00000000000E+00  0.00000000000E+00  0.90261495901E+02  0.90261495901E+02  0.00000000000E+00 0. -1.
         -1   -1    0    0    0  501 -0.00000000000E+00 -0.00000000000E+00 -0.20101814463E+03  0.20101814463E+03  0.00000000000E+00 0. -1.
         35    2    1    2    0    0  0.00000000000E+00  0.00000000000E+00 -0.11075664873E+03  0.29127964053E+03  0.26940080503E+03 0.  0.
         25    2    3    3    0    0 -0.45291372684E+02  0.26544562844E+02 -0.27783108060E+02  0.14131283912E+03  0.12822439374E+03 0.  0.
         25    2    3    3    0    0  0.45291372684E+02 -0.26544562844E+02 -0.82973540669E+02  0.14996680141E+03  0.11335568278E+03 0.  0.
          5    1    4    4  502    0 -0.40451827009E+02 -0.21976143312E+02 -0.65001335989E+02  0.79790756756E+02  0.47000000000E+01 0. -1.
         -5    1    4    4    0  502 -0.48395456744E+01  0.48520706156E+02  0.37218227929E+02  0.61522082364E+02  0.47000000000E+01 0. -1.
          5    1    5    5  503    0  0.53098987888E+02 -0.41205804590E+02 -0.10328040490E+03  0.12331404171E+03  0.47000000000E+01 0. -1.
         -5    1    5    5    0  503 -0.78076152039E+01  0.14661241746E+02  0.20306864232E+02  0.26652759701E+02  0.47000000000E+01 0. -1.
<mgrwt>
<rscale>  0 0.26940081E+03</rscale>
<asrwt>0</asrwt>
<pdfrwt beam="1">  1        1 0.13886384E-01 0.26940081E+03</pdfrwt>
<pdfrwt beam="2">  1       -1 0.30925868E-01 0.26940081E+03</pdfrwt>
<totfact> 0.39772616E+03</totfact>
</mgrwt>
</event>
<event>
 9    1  0.7926126E-001  0.2740443E+03  0.7818608E-02  0.1098987E+00
          2   -1    0    0  501    0  0.00000000000E+00  0.00000000000E+00  0.10995716367E+04  0.10995716367E+04  0.00000000000E+00 0. -1.
         -2   -1    0    0    0  501 -0.00000000000E+00 -0.00000000000E+00 -0.17074888981E+02  0.17074888981E+02  0.00000000000E+00 0. -1.
         35    2    1    2    0    0 -0.71054273576E-14 -0.35527136788E-14  0.10824967477E+04  0.11166465256E+04  0.27404425645E+03 0.  0.
         25    2    3    3    0    0  0.40100185676E+02 -0.30469659569E+01  0.68888738544E+03  0.70125430502E+03  0.12479768264E+03 0.  0.
         25    2    3    3    0    0 -0.40100185676E+02  0.30469659569E+01  0.39360936224E+03  0.41539222063E+03  0.12651109841E+03 0.  0.
          5    1    4    4  502    0 -0.36864462396E+02  0.29431726847E+02  0.24062518577E+03  0.24525045395E+03  0.47000000000E+01 0.  1.
         -5    1    4    4    0  502  0.76964648072E+02 -0.32478692803E+02  0.44826219967E+03  0.45600385107E+03  0.47000000000E+01 0.  1.
          5    1    5    5  503    0 -0.29377706751E+02  0.55556980751E+02  0.11042895689E+03  0.12714665659E+03  0.47000000000E+01 0.  1.
         -5    1    5    5    0  503 -0.10722478925E+02 -0.52510014794E+02  0.28318040535E+03  0.28824556403E+03  0.47000000000E+01 0.  1.
<mgrwt>
<rscale>  0 0.27404426E+03</rscale>
<asrwt>0</asrwt>
<pdfrwt beam="1">  1        2 0.16916481E+00 0.27404426E+03</pdfrwt>
<pdfrwt beam="2">  1       -2 0.26269069E-02 0.27404426E+03</pdfrwt>
<totfact> 0.11778037E+04</totfact>
</mgrwt>
</event>
<event>
 9    1  0.7926126E-001  0.2815995E+03  0.7818608E-02  0.1094819E+00
          2   -1    0    0  501    0  0.00000000000E+00  0.00000000000E+00  0.29832765518E+04  0.29832765518E+04  0.00000000000E+00 0. -1.
         -2   -1    0    0    0  501 -0.00000000000E+00 -0.00000000000E+00 -0.66452326437E+01  0.66452326437E+01  0.00000000000E+00 0. -1.
         35    2    1    2    0    0 -0.71054273576E-14  0.00000000000E+00  0.29766313191E+04  0.29899217844E+04  0.28159947959E+03 0.  0.
         25    2    3    3    0    0 -0.80149108318E+01  0.36819542701E+02  0.93490935100E+03  0.94395958716E+03  0.12483705410E+03 0.  0.
         25    2    3    3    0    0  0.80149108318E+01 -0.36819542701E+02  0.20417219681E+04  0.20459621972E+04  0.12614594706E+03 0.  0.
          5    1    4    4  502    0  0.52405633821E+02  0.35945640950E+02  0.62036159462E+03  0.62362571919E+03  0.47000000000E+01 0.  1.
         -5    1    4    4    0  502 -0.60420544652E+02  0.87390175093E+00  0.31454775638E+03  0.32033386797E+03  0.47000000000E+01 0.  1.
          5    1    5    5  503    0  0.64179876696E+02 -0.11724513073E+02  0.13151005286E+04  0.13167262476E+04  0.47000000000E+01 0. -1.
         -5    1    5    5    0  503 -0.56164965864E+02 -0.25095029628E+02  0.72662143950E+03  0.72923594964E+03  0.47000000000E+01 0. -1.
<mgrwt>
<rscale>  0 0.28159948E+03</rscale>
<asrwt>0</asrwt>
<pdfrwt beam="1">  1        2 0.45896455E+00 0.28159948E+03</pdfrwt>
<pdfrwt beam="2">  1       -2 0.10223459E-02 0.28159948E+03</pdfrwt>
<totfact> 0.43990153E+03</totfact>
</mgrwt>
</event>
<event>
 8    1  0.7926126E-001  0.4571870E+03  0.7818608E-02  0.1025600E+00
          2   -1    0    0  501    0  0.00000000000E+00  0.00000000000E+00  0.17566786474E+04  0.17566786474E+04  0.00000000000E+00 0. -1.
         -2   -1    0    0    0  501 -0.00000000000E+00 -0.00000000000E+00 -0.29746472991E+02  0.29746472991E+02  0.00000000000E+00 0. -1.
         25    2    1    2    0    0  0.15714637382E+03 -0.10311606596E+03  0.99887506945E+03  0.10241190232E+04  0.12546100357E+03 0.  0.
         25    2    1    2    0    0 -0.15714637382E+03  0.10311606596E+03  0.72805710493E+03  0.76230609718E+03  0.12536160454E+03 0.  0.
          5    1    3    3  502    0  0.12194699508E+03 -0.42037971895E+02  0.38213565666E+03  0.40334601868E+03  0.47000000000E+01 0.  1.
         -5    1    3    3    0  502  0.35199378736E+02 -0.61078094060E+02  0.61673941279E+03  0.62077300451E+03  0.47000000000E+01 0.  1.
          5    1    4    4  503    0 -0.90721893000E+02  0.18003829879E+02  0.16722033920E+03  0.19115263954E+03  0.47000000000E+01 0. -1.
         -5    1    4    4    0  503 -0.66424480821E+02  0.85112236076E+02  0.56083676573E+03  0.57115345764E+03  0.47000000000E+01 0. -1.
<mgrwt>
<rscale>  0 0.45718702E+03</rscale>
<asrwt>0</asrwt>
<pdfrwt beam="1">  1        2 0.27025817E+00 0.45718702E+03</pdfrwt>
<pdfrwt beam="2">  1       -2 0.45763818E-02 0.45718702E+03</pdfrwt>
<totfact> 0.22197510E+03</totfact>
</mgrwt>
</event>
<event>
 9    1  0.7926126E-001  0.2782872E+03  0.7818608E-02  0.1096628E+00
          4   -1    0    0  501    0  0.00000000000E+00  0.00000000000E+00  0.19375487762E+03  0.19375487762E+03  0.00000000000E+00 0.  1.
         -4   -1    0    0    0  501 -0.00000000000E+00 -0.00000000000E+00 -0.99924927587E+02  0.99924927587E+02  0.00000000000E+00 0.  1.
         35    2    1    2    0    0  0.71054273576E-14 -0.71054273576E-14  0.93829950034E+02  0.29367980521E+03  0.27828720499E+03 0.  0.
         25    2    3    3    0    0 -0.19845630688E+02  0.29874032983E+02  0.97323859987E+02  0.16347483063E+03  0.12635576609E+03 0.  0.
         25    2    3    3    0    0  0.19845630688E+02 -0.29874032983E+02 -0.34939099528E+01  0.13020497458E+03  0.12511922751E+03 0.  0.
          5    1    4    4  502    0 -0.67045276140E+02  0.56263112752E+01  0.21462477394E+02  0.70777484889E+02  0.47000000000E+01 0.  1.
         -5    1    4    4    0  502  0.47199645453E+02  0.24247721708E+02  0.75861382593E+02  0.92697345743E+02  0.47000000000E+01 0.  1.
          5    1    5    5  503    0  0.64102484444E+02 -0.49299679532E+02 -0.81943351439E+01  0.81417590497E+02  0.47000000000E+01 0. -1.
         -5    1    5    5    0  503 -0.44256853756E+02  0.19425646549E+02  0.47004251911E+01  0.48787384079E+02  0.47000000000E+01 0. -1.
<mgrwt>
<rscale>  0 0.27828720E+03</rscale>
<asrwt>0</asrwt>
<pdfrwt beam="1">  1        4 0.29808443E-01 0.27828720E+03</pdfrwt>
<pdfrwt beam="2">  1       -4 0.15373066E-01 0.27828720E+03</pdfrwt>
<totfact> 0.72972093E+02</totfact>
</mgrwt>
</event>
<event>
 9    1  0.7926126E-001  0.2745145E+03  0.7818608E-02  0.1098723E+00
          1   -1    0    0  501    0  0.00000000000E+00  0.00000000000E+00  0.45316057039E+02  0.45316057039E+02  0.00000000000E+00 0. -1.
         -1   -1    0    0    0  501 -0.00000000000E+00 -0.00000000000E+00 -0.41573677095E+03  0.41573677095E+03  0.00000000000E+00 0. -1.
         35    2    1    2    0    0  0.00000000000E+00  0.00000000000E+00 -0.37042071391E+03  0.46105282799E+03  0.27451448942E+03 0.  0.
         25    2    3    3    0    0  0.32736540036E+02  0.16831732847E+02 -0.11987239529E+03  0.17890995296E+03  0.12761031240E+03 0.  0.
         25    2    3    3    0    0 -0.32736540036E+02 -0.16831732847E+02 -0.25054831862E+03  0.28214287503E+03  0.12439917075E+03 0.  0.
          5    1    4    4  502    0 -0.13140709961E+02 -0.14145480523E+02  0.20131214917E+02  0.28286546123E+02  0.47000000000E+01 0.  1.
         -5    1    4    4    0  502  0.45877249997E+02  0.30977213370E+02 -0.14000361021E+03  0.15062340683E+03  0.47000000000E+01 0.  1.
          5    1    5    5  503    0  0.10251866219E+00  0.56854582685E+01  0.13330379983E+02  0.15235615389E+02  0.47000000000E+01 0.  1.
         -5    1    5    5    0  503 -0.32839058698E+02 -0.22517191115E+02 -0.26387869861E+03  0.26690725964E+03  0.47000000000E+01 0.  1.
<mgrwt>
<rscale>  0 0.27451449E+03</rscale>
<asrwt>0</asrwt>
<pdfrwt beam="1">  1        1 0.69717010E-02 0.27451449E+03</pdfrwt>
<pdfrwt beam="2">  1       -1 0.63959504E-01 0.27451449E+03</pdfrwt>
<totfact> 0.26867794E+03</totfact>
</mgrwt>
</event>
<event>
 9    1  0.7926126E-001  0.2768638E+03  0.7818608E-02  0.1097414E+00
          2   -1    0    0  501    0  0.00000000000E+00  0.00000000000E+00  0.19993083391E+02  0.19993083391E+02  0.00000000000E+00 0. -1.
         -2   -1    0    0    0  501 -0.00000000000E+00 -0.00000000000E+00 -0.95850095626E+03  0.95850095626E+03  0.00000000000E+00 0. -1.
         35    2    1    2    0    0  0.00000000000E+00  0.71054273576E-14 -0.93850787287E+03  0.97849403965E+03  0.27686378997E+03 0.  0.
         25    2    3    3    0    0  0.41477073794E+02 -0.50933902157E+02 -0.45471715036E+03  0.47452154420E+03  0.11869456193E+03 0.  0.
         25    2    3    3    0    0 -0.41477073794E+02  0.50933902157E+02 -0.48379072251E+03  0.50397249546E+03  0.12498081034E+03 0.  0.
          5    1    4    4  502    0  0.30128435630E+02 -0.23125447739E+02 -0.43830723416E+03  0.43997480665E+03  0.47000000000E+01 0. -1.
         -5    1    4    4    0  502  0.11348638164E+02 -0.27808454418E+02 -0.16409916200E+02  0.34546737545E+02  0.47000000000E+01 0. -1.
          5    1    5    5  503    0 -0.62717809230E+02 -0.63328380709E+01 -0.12591021840E+03  0.14088683945E+03  0.47000000000E+01 0. -1.
         -5    1    5    5    0  503  0.21240735436E+02  0.57266740228E+02 -0.35788050411E+03  0.36308565601E+03  0.47000000000E+01 0. -1.
<mgrwt>
<rscale>  0 0.27686379E+03</rscale>
<asrwt>0</asrwt>
<pdfrwt beam="1">  1        2 0.30758598E-02 0.27686379E+03</pdfrwt>
<pdfrwt beam="2">  1       -2 0.14746164E+00 0.27686379E+03</pdfrwt>
<totfact> 0.10038541E+03</totfact>
</mgrwt>
</event>
<event>
 9    1  0.7926126E-001  0.2757974E+03  0.7818608E-02  0.1098007E+00
          2   -1    0    0  501    0  0.00000000000E+00  0.00000000000E+00  0.10910257073E+04  0.10910257073E+04  0.00000000000E+00 0. -1.
         -2   -1    0    0    0  501 -0.00000000000E+00 -0.00000000000E+00 -0.17429521138E+02  0.17429521138E+02  0.00000000000E+00 0. -1.
         35    2    1    2    0    0  0.00000000000E+00 -0.71054273576E-14  0.10735961861E+04  0.11084552284E+04  0.27579743020E+03 0.  0.
         25    2    3    3    0    0 -0.21324902718E+02  0.46167982694E+02  0.63473080899E+03  0.64925078859E+03  0.12671682014E+03 0.  0.
         25    2    3    3    0    0  0.21324902718E+02 -0.46167982694E+02  0.43886537712E+03  0.45920443980E+03  0.12521846584E+03 0.  0.
          5    1    4    4  502    0 -0.27907640978E+02  0.44019918786E+02  0.87496727812E+02  0.10195271969E+03  0.47000000000E+01 0.  1.
         -5    1    4    4    0  502  0.65827382594E+01  0.21480639080E+01  0.54723408118E+03  0.54729806890E+03  0.47000000000E+01 0.  1.
          5    1    5    5  503    0  0.28223023515E+01 -0.88283132983E+02  0.26978960054E+03  0.28391969907E+03  0.47000000000E+01 0. -1.
         -5    1    5    5    0  503  0.18502600367E+02  0.42115150289E+02  0.16907577659E+03  0.17528474073E+03  0.47000000000E+01 0. -1.
<mgrwt>
<rscale>  0 0.27579743E+03</rscale>
<asrwt>0</asrwt>
<pdfrwt beam="1">  1        2 0.16785006E+00 0.27579743E+03</pdfrwt>
<pdfrwt beam="2">  1       -2 0.26814656E-02 0.27579743E+03</pdfrwt>
<totfact> 0.11559776E+04</totfact>
</mgrwt>
</event>
<event>
 9    1  0.7926126E-001  0.2711499E+03  0.7818608E-02  0.1100623E+00
          1   -1    0    0  501    0  0.00000000000E+00  0.00000000000E+00  0.10503148444E+04  0.10503148444E+04  0.00000000000E+00 0.  1.
         -1   -1    0    0    0  501 -0.00000000000E+00 -0.00000000000E+00 -0.17500050879E+02  0.17500050879E+02  0.00000000000E+00 0.  1.
         35    2    1    2    0    0 -0.17763568394E-14  0.00000000000E+00  0.10328147935E+04  0.10678148952E+04  0.27114987159E+03 0.  0.
         25    2    3    3    0    0  0.15542156473E+02  0.34003902404E+02  0.37814533445E+03  0.40022778143E+03  0.12566049122E+03 0.  0.
         25    2    3    3    0    0 -0.15542156473E+02 -0.34003902404E+02  0.65466945903E+03  0.66758711382E+03  0.12523030757E+03 0.  0.
          5    1    4    4  502    0  0.51564160078E+01  0.61720642412E+02  0.83535508570E+02  0.10409753848E+03  0.47000000000E+01 0.  1.
         -5    1    4    4    0  502  0.10385740466E+02 -0.27716740009E+02  0.29460982588E+03  0.29613024295E+03  0.47000000000E+01 0.  1.
          5    1    5    5  503    0 -0.25026058163E+02 -0.20939379619E+02  0.64900892142E+03  0.64984569806E+03  0.47000000000E+01 0. -1.
         -5    1    5    5    0  503  0.94839016892E+01 -0.13064522785E+02  0.56605376117E+01  0.17741415752E+02  0.47000000000E+01 0. -1.
<mgrwt>
<rscale>  0 0.27114987E+03</rscale>
<asrwt>0</asrwt>
<pdfrwt beam="1">  1        1 0.16158685E+00 0.27114987E+03</pdfrwt>
<pdfrwt beam="2">  1       -1 0.26923163E-02 0.27114987E+03</pdfrwt>
<totfact> 0.64872602E+03</totfact>
</mgrwt>
</event>
<event>
 9    1  0.7926126E-001  0.2708942E+03  0.7818608E-02  0.1100769E+00
         -2   -1    0    0    0  501 -0.00000000000E+00  0.00000000000E+00  0.35254097307E+02  0.35254097307E+02  0.00000000000E+00 0. -1.
          2   -1    0    0  501    0  0.00000000000E+00 -0.00000000000E+00 -0.52039092577E+03  0.52039092577E+03  0.00000000000E+00 0. -1.
         35    2    1    2    0    0  0.00000000000E+00  0.00000000000E+00 -0.48513682846E+03  0.55564502308E+03  0.27089416631E+03 0.  0.
         25    2    3    3    0    0  0.35473805419E+01 -0.44874177286E+02 -0.25596143736E+03  0.29030824054E+03  0.12936901257E+03 0.  0.
         25    2    3    3    0    0 -0.35473805419E+01  0.44874177286E+02 -0.22917539110E+03  0.26533678253E+03  0.12592050105E+03 0.  0.
          5    1    4    4  502    0  0.10016619830E+02  0.28791006701E+02 -0.85034799531E+01  0.31994591902E+02  0.47000000000E+01 0. -1.
         -5    1    4    4    0  502 -0.64692392882E+01 -0.73665183987E+02 -0.24745795741E+03  0.25831364864E+03  0.47000000000E+01 0. -1.
          5    1    5    5  503    0  0.53003162030E+02  0.10227228036E+02 -0.16200267824E+03  0.17082414681E+03  0.47000000000E+01 0. -1.
         -5    1    5    5    0  503 -0.56550542572E+02  0.34646949250E+02 -0.67172712859E+02  0.94512635717E+02  0.47000000000E+01 0. -1.
<mgrwt>
<rscale>  0 0.27089417E+03</rscale>
<asrwt>0</asrwt>
<pdfrwt beam="1">  1        2 0.80060139E-01 0.27089417E+03</pdfrwt>
<pdfrwt beam="2">  1       -2 0.54237075E-02 0.27089417E+03</pdfrwt>
<totfact> 0.10218443E+04</totfact>
</mgrwt>
</event>
<event>
 9    1  0.7926126E-001  0.2777649E+03  0.7818608E-02  0.1096916E+00
         -2   -1    0    0    0  501 -0.00000000000E+00  0.00000000000E+00  0.11439530462E+02  0.11439530462E+02  0.00000000000E+00 0. -1.
          2   -1    0    0  501    0  0.00000000000E+00 -0.00000000000E+00 -0.16861121316E+04  0.16861121316E+04  0.00000000000E+00 0. -1.
         35    2    1    2    0    0 -0.71054273576E-14 -0.10658141036E-13 -0.16746726011E+04  0.16975516620E+04  0.27776487245E+03 0.  0.
         25    2    3    3    0    0  0.49017792037E+02  0.28921837348E+02 -0.93454256236E+03  0.94470606152E+03  0.12593857706E+03 0.  0.
         25    2    3    3    0    0 -0.49017792037E+02 -0.28921837348E+02 -0.74013003875E+03  0.75284560052E+03  0.12547831425E+03 0.  0.
          5    1    4    4  502    0  0.82209264886E+02 -0.12535149305E+02 -0.63731221688E+03  0.64273201646E+03  0.47000000000E+01 0. -1.
         -5    1    4    4    0  502 -0.33191472849E+02  0.41456986652E+02 -0.29723034549E+03  0.30197404506E+03  0.47000000000E+01 0. -1.
          5    1    5    5  503    0 -0.45024348041E+02 -0.66620426291E+02 -0.28640501783E+03  0.29751537330E+03  0.47000000000E+01 0.  1.
         -5    1    5    5    0  503 -0.39934439958E+01  0.37698588943E+02 -0.45372502093E+03  0.45533022722E+03  0.47000000000E+01 0.  1.
<mgrwt>
<rscale>  0 0.27776487E+03</rscale>
<asrwt>0</asrwt>
<pdfrwt beam="1">  1        2 0.25940185E+00 0.27776487E+03</pdfrwt>
<pdfrwt beam="2">  1       -2 0.17599279E-02 0.27776487E+03</pdfrwt>
<totfact> 0.10141464E+04</totfact>
</mgrwt>
</event>
<event>
 9    1  0.7926126E-001  0.2755407E+03  0.7818608E-02  0.1098150E+00
         -2   -1    0    0    0  501 -0.00000000000E+00  0.00000000000E+00  0.17519465559E+02  0.17519465559E+02  0.00000000000E+00 0.  1.
          2   -1    0    0  501    0  0.00000000000E+00 -0.00000000000E+00 -0.10834046297E+04  0.10834046297E+04  0.00000000000E+00 0.  1.
         35    2    1    2    0    0  0.17763568394E-14  0.71054273576E-14 -0.10658851642E+04  0.11009240953E+04  0.27554070550E+03 0.  0.
         25    2    3    3    0    0  0.45855179856E+01 -0.28246732224E+02 -0.73730727737E+03  0.74829092165E+03  0.12449247891E+03 0.  0.
         25    2    3    3    0    0 -0.45855179856E+01  0.28246732224E+02 -0.32857788681E+03  0.35263317364E+03  0.12477108078E+03 0.  0.
          5    1    4    4  502    0 -0.49133963009E+02 -0.49018023054E+02 -0.37347078960E+03  0.37989397677E+03  0.47000000000E+01 0. -1.
         -5    1    4    4    0  502  0.53719480994E+02  0.20771290830E+02 -0.36383648778E+03  0.36839694488E+03  0.47000000000E+01 0. -1.
          5    1    5    5  503    0 -0.85933888039E+01  0.57967206942E+02 -0.66324613011E+02  0.88628932651E+02  0.47000000000E+01 0.  1.
         -5    1    5    5    0  503  0.40078708183E+01 -0.29720474718E+02 -0.26225327380E+03  0.26400424099E+03  0.47000000000E+01 0.  1.
<mgrwt>
<rscale>  0 0.27554071E+03</rscale>
<asrwt>0</asrwt>
<pdfrwt beam="1">  1        2 0.16667763E+00 0.27554071E+03</pdfrwt>
<pdfrwt beam="2">  1       -2 0.26953025E-02 0.27554071E+03</pdfrwt>
<totfact> 0.11590995E+04</totfact>
</mgrwt>
</event>
<event>
 9    1  0.7926126E-001  0.2826575E+03  0.7818608E-02  0.1094246E+00
         -2   -1    0    0    0  501 -0.00000000000E+00  0.00000000000E+00  0.76224133035E+02  0.76224133035E+02  0.00000000000E+00 0. -1.
          2   -1    0    0  501    0  0.00000000000E+00 -0.00000000000E+00 -0.26204053915E+03  0.26204053915E+03  0.00000000000E+00 0. -1.
         35    2    1    2    0    0 -0.35527136788E-14  0.00000000000E+00 -0.18581640612E+03  0.33826467219E+03  0.28265748118E+03 0.  0.
         25    2    3    3    0    0 -0.29575179853E+02 -0.47494258606E+02 -0.13293926522E+03  0.19086508721E+03  0.12500494956E+03 0.  0.
         25    2    3    3    0    0  0.29575179853E+02  0.47494258606E+02 -0.52877140903E+02  0.14739958498E+03  0.12569904438E+03 0.  0.
          5    1    4    4  502    0 -0.62936443951E+02  0.15162294732E+02 -0.52509248801E+02  0.83487737833E+02  0.47000000000E+01 0. -1.
         -5    1    4    4    0  502  0.33361264098E+02 -0.62656553338E+02 -0.80430016415E+02  0.10737734938E+03  0.47000000000E+01 0. -1.
          5    1    5    5  503    0  0.36408774810E+02  0.47014150573E+01 -0.85359998324E+02  0.93038279760E+02  0.47000000000E+01 0.  1.
         -5    1    5    5    0  503 -0.68335949567E+01  0.42792843549E+02  0.32482857421E+02  0.54361305221E+02  0.47000000000E+01 0.  1.
<mgrwt>
<rscale>  0 0.28265748E+03</rscale>
<asrwt>0</asrwt>
<pdfrwt beam="1">  1        2 0.40313929E-01 0.28265748E+03</pdfrwt>
<pdfrwt beam="2">  1       -2 0.11726790E-01 0.28265748E+03</pdfrwt>
<totfact> 0.64639461E+03</totfact>
</mgrwt>
</event>
<event>
 9    1  0.7926126E-001  0.2777426E+03  0.7818608E-02  0.1096928E+00
         -1   -1    0    0    0  501 -0.00000000000E+00  0.00000000000E+00  0.30102204488E+03  0.30102204488E+03  0.00000000000E+00 0.  1.
          1   -1    0    0  501    0  0.00000000000E+00 -0.00000000000E+00 -0.64065851204E+02  0.64065851204E+02  0.00000000000E+00 0.  1.
         35    2    1    2    0    0  0.00000000000E+00  0.00000000000E+00  0.23695619367E+03  0.36508789608E+03  0.27774256812E+03 0.  0.
         25    2    3    3    0    0 -0.88192567704E+01 -0.28196638924E+02  0.48112160466E+02  0.13658663041E+03  0.12437161206E+03 0.  0.
         25    2    3    3    0    0  0.88192567704E+01  0.28196638924E+02  0.18884403321E+03  0.22850126567E+03  0.12521154019E+03 0.  0.
          5    1    4    4  502    0 -0.61810133630E+02  0.84590730750E+01  0.16719570202E+02  0.64758648568E+02  0.47000000000E+01 0. -1.
         -5    1    4    4    0  502  0.52990876859E+02 -0.36655711999E+02  0.31392590263E+02  0.71827981845E+02  0.47000000000E+01 0. -1.
          5    1    5    5  503    0  0.45019382731E+02 -0.32102474616E+02  0.60648203049E+02  0.82204672805E+02  0.47000000000E+01 0. -1.
         -5    1    5    5    0  503 -0.36200125960E+02  0.60299113540E+02  0.12819583016E+03  0.14629659286E+03  0.47000000000E+01 0. -1.
<mgrwt>
<rscale>  0 0.27774257E+03</rscale>
<asrwt>0</asrwt>
<pdfrwt beam="1">  1        1 0.98562849E-02 0.27774257E+03</pdfrwt>
<pdfrwt beam="2">  1       -1 0.46311083E-01 0.27774257E+03</pdfrwt>
<totfact> 0.30864121E+03</totfact>
</mgrwt>
</event>
<event>
 9    1  0.7926126E-001  0.2731843E+03  0.7818608E-02  0.1099471E+00
          1   -1    0    0  501    0  0.00000000000E+00  0.00000000000E+00  0.27859461650E+03  0.27859461650E+03  0.00000000000E+00 0. -1.
         -1   -1    0    0    0  501 -0.00000000000E+00 -0.00000000000E+00 -0.66969739463E+02  0.66969739463E+02  0.00000000000E+00 0. -1.
         35    2    1    2    0    0  0.14210854715E-13  0.14210854715E-13  0.21162487703E+03  0.34556435596E+03  0.27318425198E+03 0.  0.
         25    2    3    3    0    0  0.45474804128E+02  0.29017896077E+02  0.11532677522E+03  0.17891428498E+03  0.12569829030E+03 0.  0.
         25    2    3    3    0    0 -0.45474804128E+02 -0.29017896077E+02  0.96298101810E+02  0.16665007097E+03  0.12485561918E+03 0.  0.
          5    1    4    4  502    0  0.82884085366E+02  0.86825667550E+01  0.40694431800E+02  0.92861646291E+02  0.47000000000E+01 0. -1.
         -5    1    4    4    0  502 -0.37409281237E+02  0.20335329322E+02  0.74632343422E+02  0.86052638693E+02  0.47000000000E+01 0. -1.
          5    1    5    5  503    0 -0.87617965405E+01 -0.35166079692E+02 -0.21924283374E+02  0.42616738976E+02  0.47000000000E+01 0.  1.
         -5    1    5    5    0  503 -0.36713007588E+02  0.61481836149E+01  0.11822238518E+03  0.12403333200E+03  0.47000000000E+01 0.  1.
<mgrwt>
<rscale>  0 0.27318425E+03</rscale>
<asrwt>0</asrwt>
<pdfrwt beam="1">  1        1 0.42860710E-01 0.27318425E+03</pdfrwt>
<pdfrwt beam="2">  1       -1 0.10303037E-01 0.27318425E+03</pdfrwt>
<totfact> 0.55606481E+03</totfact>
</mgrwt>
</event>
<event>
 9    1  0.7926126E-001  0.2812949E+03  0.7818608E-02  0.1094984E+00
          1   -1    0    0  501    0  0.00000000000E+00  0.00000000000E+00  0.47141490428E+02  0.47141490428E+02  0.00000000000E+00 0.  1.
         -1   -1    0    0    0  501 -0.00000000000E+00 -0.00000000000E+00 -0.41962419144E+03  0.41962419144E+03  0.00000000000E+00 0.  1.
         35    2    1    2    0    0  0.00000000000E+00  0.00000000000E+00 -0.37248270101E+03  0.46676568186E+03  0.28129493280E+03 0.  0.
         25    2    3    3    0    0  0.24086052172E+02 -0.49117344355E+02 -0.24100428265E+03  0.27663794546E+03  0.12430944128E+03 0.  0.
         25    2    3    3    0    0 -0.24086052172E+02  0.49117344355E+02 -0.13147841836E+03  0.19012773640E+03  0.12597352987E+03 0.  0.
          5    1    4    4  502    0  0.25772269745E+02 -0.95484487464E+01  0.42119792744E+01  0.28199530682E+02  0.47000000000E+01 0.  1.
         -5    1    4    4    0  502 -0.16862175734E+01 -0.39568895608E+02 -0.24521626192E+03  0.24843841478E+03  0.47000000000E+01 0.  1.
          5    1    5    5  503    0  0.38813271485E+01  0.75351004430E+02 -0.13128493644E+03  0.15149476263E+03  0.47000000000E+01 0. -1.
         -5    1    5    5    0  503 -0.27967379320E+02 -0.26233660075E+02 -0.19348192332E+00  0.38632973769E+02  0.47000000000E+01 0. -1.
<mgrwt>
<rscale>  0 0.28129493E+03</rscale>
<asrwt>0</asrwt>
<pdfrwt beam="1">  1        1 0.72525370E-02 0.28129493E+03</pdfrwt>
<pdfrwt beam="2">  1       -1 0.64557568E-01 0.28129493E+03</pdfrwt>
<totfact> 0.25010484E+03</totfact>
</mgrwt>
</event>
<event>
 9    1  0.7926126E-001  0.2731352E+03  0.7818608E-02  0.1099499E+00
          1   -1    0    0  501    0  0.00000000000E+00  0.00000000000E+00  0.19273231783E+03  0.19273231783E+03  0.00000000000E+00 0.  1.
         -1   -1    0    0    0  501 -0.00000000000E+00 -0.00000000000E+00 -0.96770038981E+02  0.96770038981E+02  0.00000000000E+00 0.  1.
         35    2    1    2    0    0  0.00000000000E+00 -0.71054273576E-14  0.95962278853E+02  0.28950235681E+03  0.27313523324E+03 0.  0.
         25    2    3    3    0    0  0.27035553503E+01  0.13335827060E+02  0.10403686434E+03  0.16352197774E+03  0.12542174679E+03 0.  0.
         25    2    3    3    0    0 -0.27035553503E+01 -0.13335827060E+02 -0.80745854836E+01  0.12598037908E+03  0.12498281277E+03 0.  0.
          5    1    4    4  502    0  0.57996756340E+02 -0.19491667440E+02  0.44943434311E+02  0.76062810448E+02  0.47000000000E+01 0.  1.
         -5    1    4    4    0  502 -0.55293200990E+02  0.32827494500E+02  0.59093430025E+02  0.87459167289E+02  0.47000000000E+01 0.  1.
          5    1    5    5  503    0  0.23570290742E+02  0.36432815242E+02  0.34189228552E+02  0.55442781145E+02  0.47000000000E+01 0. -1.
         -5    1    5    5    0  503 -0.26273846093E+02 -0.49768642302E+02 -0.42263814036E+02  0.70537597932E+02  0.47000000000E+01 0. -1.
<mgrwt>
<rscale>  0 0.27313523E+03</rscale>
<asrwt>0</asrwt>
<pdfrwt beam="1">  1        1 0.29651126E-01 0.27313523E+03</pdfrwt>
<pdfrwt beam="2">  1       -1 0.14887698E-01 0.27313523E+03</pdfrwt>
<totfact> 0.49653099E+03</totfact>
</mgrwt>
</event>
<event>
 9    1  0.7926126E-001  0.2842902E+03  0.7818608E-02  0.1093369E+00
         -2   -1    0    0    0  501 -0.00000000000E+00  0.00000000000E+00  0.14497581906E+02  0.14497581906E+02  0.00000000000E+00 0. -1.
          2   -1    0    0  501    0  0.00000000000E+00 -0.00000000000E+00 -0.13936969707E+04  0.13936969707E+04  0.00000000000E+00 0. -1.
         35    2    1    2    0    0  0.00000000000E+00  0.00000000000E+00 -0.13791993888E+04  0.14081945526E+04  0.28429024594E+03 0.  0.
         25    2    3    3    0    0  0.56834818513E+02 -0.37938574207E+01 -0.53736433415E+03  0.55521708161E+03  0.12751858747E+03 0.  0.
         25    2    3    3    0    0 -0.56834818513E+02  0.37938574207E+01 -0.84183505464E+03  0.85297747099E+03  0.12505885352E+03 0.  0.
          5    1    4    4  502    0 -0.37818200689E+02  0.16249001950E+02 -0.19864993133E+03  0.20292395518E+03  0.47000000000E+01 0. -1.
         -5    1    4    4    0  502  0.94653019202E+02 -0.20042859371E+02 -0.33871440281E+03  0.35229312643E+03  0.47000000000E+01 0. -1.
          5    1    5    5  503    0 -0.75237509634E+02 -0.40474233340E+02 -0.62680353595E+03  0.63261647868E+03  0.47000000000E+01 0.  1.
         -5    1    5    5    0  503  0.18402691121E+02  0.44268090760E+02 -0.21503151870E+03  0.22036099231E+03  0.47000000000E+01 0.  1.
<mgrwt>
<rscale>  0 0.28429025E+03</rscale>
<asrwt>0</asrwt>
<pdfrwt beam="1">  1        2 0.21441503E+00 0.28429025E+03</pdfrwt>
<pdfrwt beam="2">  1       -2 0.22303960E-02 0.28429025E+03</pdfrwt>
<totfact> 0.10257360E+04</totfact>
</mgrwt>
</event>
<event>
 9    1  0.7926126E-001  0.2741119E+03  0.7818608E-02  0.1098949E+00
         -3   -1    0    0    0  501 -0.00000000000E+00  0.00000000000E+00  0.86811306047E+03  0.86811306047E+03  0.00000000000E+00 0. -1.
          3   -1    0    0  501    0  0.00000000000E+00 -0.00000000000E+00 -0.21638123394E+02  0.21638123394E+02  0.00000000000E+00 0. -1.
         35    2    1    2    0    0  0.14210854715E-13  0.00000000000E+00  0.84647493707E+03  0.88975118386E+03  0.27411192986E+03 0.  0.
         25    2    3    3    0    0 -0.48251819574E+02  0.21043052882E+02  0.34642552168E+03  0.37158239567E+03  0.12365996334E+03 0.  0.
         25    2    3    3    0    0  0.48251819574E+02 -0.21043052882E+02  0.50004941539E+03  0.51816878819E+03  0.12521352584E+03 0.  0.
          5    1    4    4  502    0 -0.41290069092E+02  0.71279015075E+02  0.19211425125E+03  0.20908262321E+03  0.47000000000E+01 0. -1.
         -5    1    4    4    0  502 -0.69617504824E+01 -0.50235962192E+02  0.15431127043E+03  0.16249977246E+03  0.47000000000E+01 0. -1.
          5    1    5    5  503    0 -0.31569360900E+02  0.24234540001E+02  0.21408603172E+03  0.21780462909E+03  0.47000000000E+01 0.  1.
         -5    1    5    5    0  503  0.79821180474E+02 -0.45277592883E+02  0.28596338368E+03  0.30036415910E+03  0.47000000000E+01 0.  1.
<mgrwt>
<rscale>  0 0.27411193E+03</rscale>
<asrwt>0</asrwt>
<pdfrwt beam="1">  1        3 0.33289427E-02 0.27411193E+03</pdfrwt>
<pdfrwt beam="2">  1       -3 0.13355583E+00 0.27411193E+03</pdfrwt>
<totfact> 0.50117508E+02</totfact>
</mgrwt>
</event>
<event>
 9    1  0.7926126E-001  0.2760724E+03  0.7818608E-02  0.1097854E+00
          2   -1    0    0  501    0  0.00000000000E+00  0.00000000000E+00  0.60411949520E+03  0.60411949520E+03  0.00000000000E+00 0.  1.
         -2   -1    0    0    0  501 -0.00000000000E+00 -0.00000000000E+00 -0.31540112498E+02  0.31540112498E+02  0.00000000000E+00 0.  1.
         35    2    1    2    0    0 -0.71054273576E-14  0.00000000000E+00  0.57257938271E+03  0.63565960770E+03  0.27607243137E+03 0.  0.
         25    2    3    3    0    0  0.50746187304E+02  0.17673415474E+02  0.33518254002E+03  0.36294112374E+03  0.12841884218E+03 0.  0.
         25    2    3    3    0    0 -0.50746187304E+02 -0.17673415474E+02  0.23739684269E+03  0.27271848396E+03  0.12300644469E+03 0.  0.
          5    1    4    4  502    0  0.33759746573E+01  0.54436187924E+02  0.59825302847E+02  0.81091631019E+02  0.47000000000E+01 0. -1.
         -5    1    4    4    0  502  0.47370212647E+02 -0.36762772449E+02  0.27535723717E+03  0.28184949272E+03  0.47000000000E+01 0. -1.
          5    1    5    5  503    0 -0.39440467007E+02  0.48519698349E+02  0.80879222548E+02  0.10233889879E+03  0.47000000000E+01 0. -1.
         -5    1    5    5    0  503 -0.11305720297E+02 -0.66193113824E+02  0.15651762014E+03  0.17037958517E+03  0.47000000000E+01 0. -1.
<mgrwt>
<rscale>  0 0.27607243E+03</rscale>
<asrwt>0</asrwt>
<pdfrwt beam="1">  1        2 0.92941452E-01 0.27607243E+03</pdfrwt>
<pdfrwt beam="2">  1       -2 0.48523254E-02 0.27607243E+03</pdfrwt>
<totfact> 0.10212914E+04</totfact>
</mgrwt>
</event>
<event>
 9    1  0.7926126E-001  0.2711260E+03  0.7818608E-02  0.1100637E+00
          2   -1    0    0  501    0  0.00000000000E+00  0.00000000000E+00  0.85793949127E+02  0.85793949127E+02  0.00000000000E+00 0.  1.
         -2   -1    0    0    0  501 -0.00000000000E+00 -0.00000000000E+00 -0.21420299146E+03  0.21420299146E+03  0.00000000000E+00 0.  1.
         35    2    1    2    0    0  0.35527136788E-14  0.00000000000E+00 -0.12840904233E+03  0.29999694058E+03  0.27112595266E+03 0.  0.
         25    2    3    3    0    0 -0.15494848715E+02 -0.38625195040E+02 -0.97902005803E+02  0.16435065160E+03  0.12527704464E+03 0.  0.
         25    2    3    3    0    0  0.15494848715E+02  0.38625195040E+02 -0.30507036527E+02  0.13564628898E+03  0.12544815825E+03 0.  0.
          5    1    4    4  502    0  0.77246599051E+01 -0.39037070338E+02 -0.12328139522E+03  0.12963007227E+03  0.47000000000E+01 0.  1.
         -5    1    4    4    0  502 -0.23219508620E+02  0.41187529744E+00  0.25379389414E+02  0.34720579328E+02  0.47000000000E+01 0.  1.
          5    1    5    5  503    0  0.14285159902E+02 -0.12479583326E+02 -0.68851890137E+02  0.71571492710E+02  0.47000000000E+01 0.  1.
         -5    1    5    5    0  503  0.12096888139E+01  0.51104778366E+02  0.38344853610E+02  0.64074796271E+02  0.47000000000E+01 0.  1.
<mgrwt>
<rscale>  0 0.27112595E+03</rscale>
<asrwt>0</asrwt>
<pdfrwt beam="1">  1        2 0.13199069E-01 0.27112595E+03</pdfrwt>
<pdfrwt beam="2">  1       -2 0.32954306E-01 0.27112595E+03</pdfrwt>
<totfact> 0.38865236E+03</totfact>
</mgrwt>
</event>
<event>
 9    1  0.7926126E-001  0.2721871E+03  0.7818608E-02  0.1100034E+00
         -1   -1    0    0    0  501 -0.00000000000E+00  0.00000000000E+00  0.80248771712E+01  0.80248771712E+01  0.00000000000E+00 0. -1.
          1   -1    0    0  501    0  0.00000000000E+00 -0.00000000000E+00 -0.23080042611E+04  0.23080042611E+04  0.00000000000E+00 0. -1.
         35    2    1    2    0    0 -0.35527136788E-14  0.00000000000E+00 -0.22999793839E+04  0.23160291382E+04  0.27218707321E+03 0.  0.
         25    2    3    3    0    0 -0.19989263006E+02 -0.81206577735E+01 -0.15744826975E+04  0.15796922731E+04  0.12635821086E+03 0.  0.
         25    2    3    3    0    0  0.19989263006E+02  0.81206577735E+01 -0.72549668642E+03  0.73633686509E+03  0.12402024503E+03 0.  0.
          5    1    4    4  502    0 -0.45612048968E+01  0.50993019185E+02 -0.11093852636E+04  0.11105759072E+04  0.47000000000E+01 0.  1.
         -5    1    4    4    0  502 -0.15428058109E+02 -0.59113676959E+02 -0.46509743387E+03  0.46911636592E+03  0.47000000000E+01 0.  1.
          5    1    5    5  503    0 -0.43016913388E+02 -0.23806462872E+02 -0.41184814138E+03  0.41479896826E+03  0.47000000000E+01 0.  1.
         -5    1    5    5    0  503  0.63006176394E+02  0.31927120645E+02 -0.31364854504E+03  0.32153789683E+03  0.47000000000E+01 0.  1.
<mgrwt>
<rscale>  0 0.27218707E+03</rscale>
<asrwt>0</asrwt>
<pdfrwt beam="1">  1        1 0.35507790E+00 0.27218707E+03</pdfrwt>
<pdfrwt beam="2">  1       -1 0.12345954E-02 0.27218707E+03</pdfrwt>
<totfact> 0.29429740E+03</totfact>
</mgrwt>
</event>
<event>
 9    1  0.7926126E-001  0.2687075E+03  0.7818608E-02  0.1102022E+00
         -2   -1    0    0    0  501 -0.00000000000E+00  0.00000000000E+00  0.22564514574E+02  0.22564514574E+02  0.00000000000E+00 0. -1.
          2   -1    0    0  501    0  0.00000000000E+00 -0.00000000000E+00 -0.79997007612E+03  0.79997007612E+03  0.00000000000E+00 0. -1.
         35    2    1    2    0    0  0.00000000000E+00 -0.35527136788E-14 -0.77740556155E+03  0.82253459070E+03  0.26870754691E+03 0.  0.
         25    2    3    3    0    0 -0.42529027347E+02 -0.23085017327E+02 -0.36205377117E+03  0.38587737934E+03  0.12440571721E+03 0.  0.
         25    2    3    3    0    0  0.42529027347E+02  0.23085017327E+02 -0.41535179038E+03  0.43665721136E+03  0.12574090133E+03 0.  0.
          5    1    4    4  502    0  0.59604958858E+01  0.35707617204E+01 -0.30887508099E+03  0.30898896988E+03  0.47000000000E+01 0. -1.
         -5    1    4    4    0  502 -0.48489523233E+02 -0.26655779048E+02 -0.53178690177E+02  0.76888409457E+02  0.47000000000E+01 0. -1.
          5    1    5    5  503    0  0.51246150252E+02 -0.28005282468E+02 -0.91494664514E+02  0.10864542050E+03  0.47000000000E+01 0. -1.
         -5    1    5    5    0  503 -0.87171229052E+01  0.51090299796E+02 -0.32385712587E+03  0.32801179086E+03  0.47000000000E+01 0. -1.
<mgrwt>
<rscale>  0 0.26870755E+03</rscale>
<asrwt>0</asrwt>
<pdfrwt beam="1">  1        2 0.12307233E+00 0.26870755E+03</pdfrwt>
<pdfrwt beam="2">  1       -2 0.34714634E-02 0.26870755E+03</pdfrwt>
<totfact> 0.12017281E+04</totfact>
</mgrwt>
</event>
<event>
 9    1  0.7926126E-001  0.2779614E+03  0.7818608E-02  0.1096808E+00
          2   -1    0    0  501    0  0.00000000000E+00  0.00000000000E+00  0.26089255173E+03  0.26089255173E+03  0.00000000000E+00 0. -1.
         -2   -1    0    0    0  501 -0.00000000000E+00 -0.00000000000E+00 -0.74036721857E+02  0.74036721857E+02  0.00000000000E+00 0. -1.
         35    2    1    2    0    0  0.00000000000E+00  0.71054273576E-14  0.18685582987E+03  0.33492927359E+03  0.27796135909E+03 0.  0.
         25    2    3    3    0    0 -0.21564363208E+01 -0.56936846222E+02  0.80060554555E+02  0.16056374294E+03  0.12698255186E+03 0.  0.
         25    2    3    3    0    0  0.21564363208E+01  0.56936846222E+02  0.10679527532E+03  0.17436553064E+03  0.12550558861E+03 0.  0.
          5    1    4    4  502    0 -0.41008274967E+02 -0.78446132296E+02  0.74052835706E+02  0.11550492095E+03  0.47000000000E+01 0.  1.
         -5    1    4    4    0  502  0.38851838647E+02  0.21509286074E+02  0.60077188490E+01  0.45058821993E+02  0.47000000000E+01 0.  1.
          5    1    5    5  503    0  0.47636839115E+02  0.86358167630E+01  0.95125089742E+02  0.10683968584E+03  0.47000000000E+01 0.  1.
         -5    1    5    5    0  503 -0.45480402795E+02  0.48301029459E+02  0.11670185578E+02  0.67525844804E+02  0.47000000000E+01 0.  1.
<mgrwt>
<rscale>  0 0.27796136E+03</rscale>
<asrwt>0</asrwt>
<pdfrwt beam="1">  1        2 0.40137315E-01 0.27796136E+03</pdfrwt>
<pdfrwt beam="2">  1       -2 0.11390265E-01 0.27796136E+03</pdfrwt>
<totfact> 0.68022496E+03</totfact>
</mgrwt>
</event>
<event>
 9    1  0.7926126E-001  0.2693842E+03  0.7818608E-02  0.1101633E+00
         -1   -1    0    0    0  501 -0.00000000000E+00  0.00000000000E+00  0.18526314595E+03  0.18526314595E+03  0.00000000000E+00 0.  1.
          1   -1    0    0  501    0  0.00000000000E+00 -0.00000000000E+00 -0.97925399294E+02  0.97925399294E+02  0.00000000000E+00 0.  1.
         35    2    1    2    0    0  0.35527136788E-14 -0.35527136788E-14  0.87337746660E+02  0.28318854525E+03  0.26938424261E+03 0.  0.
         25    2    3    3    0    0  0.12313173353E+02 -0.60730015775E+01  0.92108134790E+02  0.15580581693E+03  0.12491216318E+03 0.  0.
         25    2    3    3    0    0 -0.12313173353E+02  0.60730015775E+01 -0.47703881295E+01  0.12738272832E+03  0.12655080910E+03 0.  0.
          5    1    4    4  502    0 -0.10614929329E+02  0.31039158068E+02 -0.17690455844E+02  0.37565253709E+02  0.47000000000E+01 0.  1.
         -5    1    4    4    0  502  0.22928102682E+02 -0.37112159645E+02  0.10979859063E+03  0.11824056322E+03  0.47000000000E+01 0.  1.
          5    1    5    5  503    0 -0.47797521578E+02 -0.44361988487E+02 -0.39482305559E+00  0.65382222177E+02  0.47000000000E+01 0.  1.
         -5    1    5    5    0  503  0.35484348225E+02  0.50434990065E+02 -0.43755650739E+01  0.62000506139E+02  0.47000000000E+01 0.  1.
<mgrwt>
<rscale>  0 0.26938424E+03</rscale>
<asrwt>0</asrwt>
<pdfrwt beam="1">  1        1 0.15065446E-01 0.26938424E+03</pdfrwt>
<pdfrwt beam="2">  1       -1 0.28502022E-01 0.26938424E+03</pdfrwt>
<totfact> 0.41044576E+03</totfact>
</mgrwt>
</event>
<event>
 9    1  0.7926126E-001  0.2772678E+03  0.7818608E-02  0.1097191E+00
         -1   -1    0    0    0  501 -0.00000000000E+00  0.00000000000E+00  0.31133088638E+02  0.31133088638E+02  0.00000000000E+00 0.  1.
          1   -1    0    0  501    0  0.00000000000E+00 -0.00000000000E+00 -0.61732909399E+03  0.61732909399E+03  0.00000000000E+00 0.  1.
         35    2    1    2    0    0  0.00000000000E+00 -0.71054273576E-14 -0.58619600535E+03  0.64846218263E+03  0.27726782289E+03 0.  0.
         25    2    3    3    0    0 -0.17350404043E+02 -0.55957892960E+02 -0.29301960640E+03  0.32403442176E+03  0.12532156416E+03 0.  0.
         25    2    3    3    0    0  0.17350404043E+02  0.55957892960E+02 -0.29317639895E+03  0.32442776087E+03  0.12597082526E+03 0.  0.
          5    1    4    4  502    0 -0.55152097220E+02  0.15145155993E+02 -0.11159487048E+03  0.12548559557E+03  0.47000000000E+01 0. -1.
         -5    1    4    4    0  502  0.37801693177E+02 -0.71103048953E+02 -0.18142473592E+03  0.19854882619E+03  0.47000000000E+01 0. -1.
          5    1    5    5  503    0  0.40039198477E+02 -0.69168467909E+01 -0.24848035473E+02  0.47859116698E+02  0.47000000000E+01 0.  1.
         -5    1    5    5    0  503 -0.22688794434E+02  0.62874739751E+02 -0.26832836348E+03  0.27656864417E+03  0.47000000000E+01 0.  1.
<mgrwt>
<rscale>  0 0.27726782E+03</rscale>
<asrwt>0</asrwt>
<pdfrwt beam="1">  1        1 0.94973704E-01 0.27726782E+03</pdfrwt>
<pdfrwt beam="2">  1       -1 0.47897061E-02 0.27726782E+03</pdfrwt>
<totfact> 0.63238420E+03</totfact>
</mgrwt>
</event>
<event>
 9    1  0.7926126E-001  0.2758921E+03  0.7818608E-02  0.1097954E+00
         -1   -1    0    0    0  501 -0.00000000000E+00  0.00000000000E+00  0.56730384384E+03  0.56730384384E+03  0.00000000000E+00 0. -1.
          1   -1    0    0  501    0  0.00000000000E+00 -0.00000000000E+00 -0.33543061728E+02  0.33543061728E+02  0.00000000000E+00 0. -1.
         35    2    1    2    0    0  0.00000000000E+00  0.00000000000E+00  0.53376078211E+03  0.60084690556E+03  0.27589206478E+03 0.  0.
         25    2    3    3    0    0  0.29735543917E+02 -0.43180937251E+02  0.22602878766E+03  0.26480237748E+03  0.12760286186E+03 0.  0.
         25    2    3    3    0    0 -0.29735543917E+02  0.43180937251E+02  0.30773199445E+03  0.33604452808E+03  0.12441120743E+03 0.  0.
          5    1    4    4  502    0  0.63866058775E+02 -0.20824579928E+02  0.49543728359E+02  0.83601480922E+02  0.47000000000E+01 0.  1.
         -5    1    4    4    0  502 -0.34130514858E+02 -0.22356357323E+02  0.17648505930E+03  0.18120089656E+03  0.47000000000E+01 0.  1.
          5    1    5    5  503    0 -0.31518194653E+02  0.19718938398E+02  0.30970979039E+03  0.31196871220E+03  0.47000000000E+01 0. -1.
         -5    1    5    5    0  503  0.17826507358E+01  0.23461998853E+02 -0.19777959434E+01  0.24075815887E+02  0.47000000000E+01 0. -1.
<mgrwt>
<rscale>  0 0.27589206E+03</rscale>
<asrwt>0</asrwt>
<pdfrwt beam="1">  1        1 0.51604715E-02 0.27589206E+03</pdfrwt>
<pdfrwt beam="2">  1       -1 0.87277507E-01 0.27589206E+03</pdfrwt>
<totfact> 0.21589939E+03</totfact>
</mgrwt>
</event>
<event>
 9    1  0.7926126E-001  0.2769300E+03  0.7818608E-02  0.1097378E+00
          2   -1    0    0  501    0  0.00000000000E+00  0.00000000000E+00  0.88931879307E+03  0.88931879307E+03  0.00000000000E+00 0.  1.
         -2   -1    0    0    0  501 -0.00000000000E+00 -0.00000000000E+00 -0.21558701925E+02  0.21558701925E+02  0.00000000000E+00 0.  1.
         35    2    1    2    0    0  0.00000000000E+00  0.00000000000E+00  0.86776009114E+03  0.91087749499E+03  0.27693001842E+03 0.  0.
         25    2    3    3    0    0 -0.29160783833E+02 -0.44606034938E+02  0.52320811575E+03  0.54078672831E+03  0.12595040080E+03 0.  0.
         25    2    3    3    0    0  0.29160783833E+02  0.44606034938E+02  0.34455197539E+03  0.37009076668E+03  0.12414129922E+03 0.  0.
          5    1    4    4  502    0 -0.10862850697E+02  0.43980872681E+02  0.20046289364E+03  0.20557183760E+03  0.47000000000E+01 0. -1.
         -5    1    4    4    0  502 -0.18297933136E+02 -0.88586907619E+02  0.32274522211E+03  0.33521489071E+03  0.47000000000E+01 0. -1.
          5    1    5    5  503    0 -0.29431037783E+02 -0.33900579818E+01  0.23450458543E+03  0.23641524711E+03  0.47000000000E+01 0. -1.
         -5    1    5    5    0  503  0.58591821616E+02  0.47996092920E+02  0.11004738996E+03  0.13367551957E+03  0.47000000000E+01 0. -1.
<mgrwt>
<rscale>  0 0.27693002E+03</rscale>
<asrwt>0</asrwt>
<pdfrwt beam="1">  1        2 0.13681825E+00 0.27693002E+03</pdfrwt>
<pdfrwt beam="2">  1       -2 0.33167241E-02 0.27693002E+03</pdfrwt>
<totfact> 0.11221231E+04</totfact>
</mgrwt>
</event>
<event>
 9    1  0.7926126E-001  0.2737420E+03  0.7818608E-02  0.1099157E+00
          2   -1    0    0  501    0  0.00000000000E+00  0.00000000000E+00  0.70783584200E+03  0.70783584200E+03  0.00000000000E+00 0. -1.
         -2   -1    0    0    0  501 -0.00000000000E+00 -0.00000000000E+00 -0.26466117055E+02  0.26466117055E+02  0.00000000000E+00 0. -1.
         35    2    1    2    0    0  0.35527136788E-14  0.71054273576E-14  0.68136972495E+03  0.73430195906E+03  0.27374196792E+03 0.  0.
         25    2    3    3    0    0  0.24078156646E+02  0.41286195425E+02  0.41630537486E+03  0.43749862594E+03  0.12574010894E+03 0.  0.
         25    2    3    3    0    0 -0.24078156646E+02 -0.41286195425E+02  0.26506435009E+03  0.29680333312E+03  0.12469483271E+03 0.  0.
          5    1    4    4  502    0  0.65951066512E+02 -0.70206625316E+01  0.15928700441E+03  0.17260727867E+03  0.47000000000E+01 0. -1.
         -5    1    4    4    0  502 -0.41872909866E+02  0.48306857957E+02  0.25701837045E+03  0.26489134727E+03  0.47000000000E+01 0. -1.
          5    1    5    5  503    0 -0.42624564934E+01  0.21403305795E+02 -0.13415143405E+01  0.22364250379E+02  0.47000000000E+01 0. -1.
         -5    1    5    5    0  503 -0.19815700153E+02 -0.62689501220E+02  0.26640586443E+03  0.27443908274E+03  0.47000000000E+01 0. -1.
<mgrwt>
<rscale>  0 0.27374197E+03</rscale>
<asrwt>0</asrwt>
<pdfrwt beam="1">  1        2 0.10889781E+00 0.27374197E+03</pdfrwt>
<pdfrwt beam="2">  1       -2 0.40717109E-02 0.27374197E+03</pdfrwt>
<totfact> 0.11022883E+04</totfact>
</mgrwt>
</event>
<event>
 9    1  0.7926126E-001  0.2747106E+03  0.7818608E-02  0.1098613E+00
          4   -1    0    0  501    0  0.00000000000E+00  0.00000000000E+00  0.17023585176E+04  0.17023585176E+04  0.00000000000E+00 0.  1.
         -4   -1    0    0    0  501 -0.00000000000E+00 -0.00000000000E+00 -0.11082555755E+02  0.11082555755E+02  0.00000000000E+00 0.  1.
         35    2    1    2    0    0  0.00000000000E+00  0.35527136788E-14  0.16912759619E+04  0.17134410734E+04  0.27471063457E+03 0.  0.
         25    2    3    3    0    0  0.26496062494E+02  0.82127390288E+00  0.49800461897E+03  0.51415869958E+03  0.12509137469E+03 0.  0.
         25    2    3    3    0    0 -0.26496062494E+02 -0.82127390288E+00  0.11932713429E+04  0.11992823738E+04  0.11695725074E+03 0.  0.
          5    1    4    4  502    0  0.69201087750E+02  0.29683253457E+02  0.32065562781E+03  0.32941160837E+03  0.47000000000E+01 0. -1.
         -5    1    4    4    0  502 -0.42705025257E+02 -0.28861979554E+02  0.17734899116E+03  0.18474709121E+03  0.47000000000E+01 0. -1.
          5    1    5    5  503    0 -0.25229953821E+02  0.49026521614E+02  0.33404708162E+03  0.33859960592E+03  0.47000000000E+01 0. -1.
         -5    1    5    5    0  503 -0.12661086729E+01 -0.49847795517E+02  0.85922426130E+03  0.86068276790E+03  0.47000000000E+01 0. -1.
<mgrwt>
<rscale>  0 0.27471063E+03</rscale>
<asrwt>0</asrwt>
<pdfrwt beam="1">  1        4 0.26190110E+00 0.27471063E+03</pdfrwt>
<pdfrwt beam="2">  1       -4 0.17050099E-02 0.27471063E+03</pdfrwt>
<totfact> 0.14786738E+02</totfact>
</mgrwt>
</event>
<event>
 9    1  0.7926126E-001  0.2684657E+03  0.7818608E-02  0.1102161E+00
         -2   -1    0    0    0  501 -0.00000000000E+00  0.00000000000E+00  0.29351276866E+02  0.29351276866E+02  0.00000000000E+00 0. -1.
          2   -1    0    0  501    0  0.00000000000E+00 -0.00000000000E+00 -0.61388987545E+03  0.61388987545E+03  0.00000000000E+00 0. -1.
         35    2    1    2    0    0  0.17763568394E-14  0.00000000000E+00 -0.58453859858E+03  0.64324115232E+03  0.26846565292E+03 0.  0.
         25    2    3    3    0    0 -0.57160405542E+00 -0.45460290487E+02 -0.31480823877E+03  0.34229403591E+03  0.12646744672E+03 0.  0.
         25    2    3    3    0    0  0.57160405542E+00  0.45460290487E+02 -0.26973035982E+03  0.30094711641E+03  0.12548998018E+03 0.  0.
          5    1    4    4  502    0 -0.10103656107E+02 -0.20936015864E+02  0.25125274687E+01  0.23849600024E+02  0.47000000000E+01 0.  1.
         -5    1    4    4    0  502  0.95320520516E+01 -0.24524274622E+02 -0.31732076623E+03  0.31844443588E+03  0.47000000000E+01 0.  1.
          5    1    5    5  503    0 -0.22348758942E+02  0.12287759556E+02  0.21784730719E+01  0.26024830568E+02  0.47000000000E+01 0.  1.
         -5    1    5    5    0  503  0.22920362997E+02  0.33172530931E+02 -0.27190883289E+03  0.27492228584E+03  0.47000000000E+01 0.  1.
<mgrwt>
<rscale>  0 0.26846565E+03</rscale>
<asrwt>0</asrwt>
<pdfrwt beam="1">  1        2 0.94444595E-01 0.26846565E+03</pdfrwt>
<pdfrwt beam="2">  1       -2 0.45155811E-02 0.26846565E+03</pdfrwt>
<totfact> 0.11165330E+04</totfact>
</mgrwt>
</event>
<event>
 9    1  0.7926126E-001  0.2737879E+03  0.7818608E-02  0.1099131E+00
         -2   -1    0    0    0  501 -0.00000000000E+00  0.00000000000E+00  0.21344793943E+03  0.21344793943E+03  0.00000000000E+00 0. -1.
          2   -1    0    0  501    0  0.00000000000E+00 -0.00000000000E+00 -0.87796347660E+02  0.87796347660E+02  0.00000000000E+00 0. -1.
         35    2    1    2    0    0 -0.71054273576E-14 -0.71054273576E-14  0.12565159177E+03  0.30124428709E+03  0.27378787042E+03 0.  0.
         25    2    3    3    0    0  0.39981066730E+02  0.36087772712E+02  0.77266852485E+02  0.15682352328E+03  0.12538994347E+03 0.  0.
         25    2    3    3    0    0 -0.39981066730E+02 -0.36087772712E+02  0.48384739286E+02  0.14442076381E+03  0.12496183813E+03 0.  0.
          5    1    4    4  502    0 -0.32804733486E+02 -0.49865960932E+01 -0.10907905897E+02  0.35243284336E+02  0.47000000000E+01 0. -1.
         -5    1    4    4    0  502  0.72785800216E+02  0.41074368805E+02  0.88174758382E+02  0.12158023894E+03  0.47000000000E+01 0. -1.
          5    1    5    5  503    0 -0.72877634152E+02  0.15479720753E+02  0.28953251553E+02  0.80069670223E+02  0.47000000000E+01 0.  1.
         -5    1    5    5    0  503  0.32896567422E+02 -0.51567493466E+02  0.19431487733E+02  0.64351093588E+02  0.47000000000E+01 0.  1.
<mgrwt>
<rscale>  0 0.27378787E+03</rscale>
<asrwt>0</asrwt>
<pdfrwt beam="1">  1        2 0.13507131E-01 0.27378787E+03</pdfrwt>
<pdfrwt beam="2">  1       -2 0.32838144E-01 0.27378787E+03</pdfrwt>
<totfact> 0.38061566E+03</totfact>
</mgrwt>
</event>
<event>
 9    1  0.7926126E-001  0.2767279E+03  0.7818608E-02  0.1097490E+00
         -2   -1    0    0    0  501 -0.00000000000E+00  0.00000000000E+00  0.61527863864E+02  0.61527863864E+02  0.00000000000E+00 0. -1.
          2   -1    0    0  501    0  0.00000000000E+00 -0.00000000000E+00 -0.31115304793E+03  0.31115304793E+03  0.00000000000E+00 0. -1.
         35    2    1    2    0    0  0.00000000000E+00  0.00000000000E+00 -0.24962518407E+03  0.37268091180E+03  0.27672789794E+03 0.  0.
         25    2    3    3    0    0 -0.19216217276E+02  0.48343005646E+02 -0.16424082500E+03  0.21257478133E+03  0.12452582004E+03 0.  0.
         25    2    3    3    0    0  0.19216217276E+02 -0.48343005646E+02 -0.85384359066E+02  0.16010613047E+03  0.12504869068E+03 0.  0.
          5    1    4    4  502    0 -0.48484987080E+02  0.73185816447E+02 -0.14452066844E+03  0.16916048979E+03  0.47000000000E+01 0. -1.
         -5    1    4    4    0  502  0.29268769804E+02 -0.24842810801E+02 -0.19720156565E+02  0.43414291533E+02  0.47000000000E+01 0. -1.
          5    1    5    5  503    0 -0.50376478109E+02 -0.26507143930E+02 -0.15973733791E+02  0.59309935063E+02  0.47000000000E+01 0.  1.
         -5    1    5    5    0  503  0.69592695385E+02 -0.21835861716E+02 -0.69410625274E+02  0.10079619541E+03  0.47000000000E+01 0.  1.
<mgrwt>
<rscale>  0 0.27672790E+03</rscale>
<asrwt>0</asrwt>
<pdfrwt beam="1">  1        2 0.47869699E-01 0.27672790E+03</pdfrwt>
<pdfrwt beam="2">  1       -2 0.94658253E-02 0.27672790E+03</pdfrwt>
<totfact> 0.75582789E+03</totfact>
</mgrwt>
</event>
<event>
 9    1  0.7926126E-001  0.2728025E+03  0.7818608E-02  0.1099686E+00
         -2   -1    0    0    0  501 -0.00000000000E+00  0.00000000000E+00  0.20363094227E+03  0.20363094227E+03  0.00000000000E+00 0. -1.
          2   -1    0    0  501    0  0.00000000000E+00 -0.00000000000E+00 -0.91367781326E+02  0.91367781326E+02  0.00000000000E+00 0. -1.
         35    2    1    2    0    0  0.53290705182E-14  0.00000000000E+00  0.11226316095E+03  0.29499872360E+03  0.27280254694E+03 0.  0.
         25    2    3    3    0    0 -0.13820455223E+02 -0.38757009258E+02  0.20862427811E+02  0.13449904322E+03  0.12633938809E+03 0.  0.
         25    2    3    3    0    0  0.13820455223E+02  0.38757009258E+02  0.91400733138E+02  0.16049968038E+03  0.12535127696E+03 0.  0.
          5    1    4    4  502    0 -0.69581316994E+02 -0.11933238883E+02  0.90593583239E+01  0.71331086057E+02  0.47000000000E+01 0.  1.
         -5    1    4    4    0  502  0.55760861772E+02 -0.26823770375E+02  0.11803069487E+02  0.63167957162E+02  0.47000000000E+01 0.  1.
          5    1    5    5  503    0  0.15162585177E+02 -0.40110510884E+02  0.50198729953E+01  0.43428633383E+02  0.47000000000E+01 0. -1.
         -5    1    5    5    0  503 -0.13421299539E+01  0.78867520142E+02  0.86380860143E+02  0.11707104700E+03  0.47000000000E+01 0. -1.
<mgrwt>
<rscale>  0 0.27280255E+03</rscale>
<asrwt>0</asrwt>
<pdfrwt beam="1">  1        2 0.14056582E-01 0.27280255E+03</pdfrwt>
<pdfrwt beam="2">  1       -2 0.31327837E-01 0.27280255E+03</pdfrwt>
<totfact> 0.39559523E+03</totfact>
</mgrwt>
</event>
<event>
 9    1  0.7926126E-001  0.2700553E+03  0.7818608E-02  0.1101248E+00
          2   -1    0    0  501    0  0.00000000000E+00  0.00000000000E+00  0.18279639503E+04  0.18279639503E+04  0.00000000000E+00 0. -1.
         -2   -1    0    0    0  501 -0.00000000000E+00 -0.00000000000E+00 -0.99741958227E+01  0.99741958227E+01  0.00000000000E+00 0. -1.
         35    2    1    2    0    0  0.00000000000E+00 -0.17763568394E-14  0.18179897544E+04  0.18379381461E+04  0.27005533060E+03 0.  0.
         25    2    3    3    0    0 -0.48504085656E+02 -0.11208895973E+02  0.82830783532E+03  0.83919262402E+03  0.12518827617E+03 0.  0.
         25    2    3    3    0    0  0.48504085656E+02  0.11208895973E+02  0.98968191913E+03  0.99874552207E+03  0.12467570385E+03 0.  0.
          5    1    4    4  502    0 -0.42632764570E+02  0.13936507617E+01  0.80357926198E+02  0.91098744120E+02  0.47000000000E+01 0.  1.
         -5    1    4    4    0  502 -0.58713210860E+01 -0.12602546735E+02  0.74794990912E+03  0.74809387991E+03  0.47000000000E+01 0.  1.
          5    1    5    5  503    0  0.76345299184E+02 -0.25912201341E+02  0.76648540902E+03  0.77072823948E+03  0.47000000000E+01 0. -1.
         -5    1    5    5    0  503 -0.27841213528E+02  0.37121097314E+02  0.22319651011E+03  0.22801728259E+03  0.47000000000E+01 0. -1.
<mgrwt>
<rscale>  0 0.27005533E+03</rscale>
<asrwt>0</asrwt>
<pdfrwt beam="1">  1        2 0.28122496E+00 0.27005533E+03</pdfrwt>
<pdfrwt beam="2">  1       -2 0.15344931E-02 0.27005533E+03</pdfrwt>
<totfact> 0.10436926E+04</totfact>
</mgrwt>
</event>
<event>
 9    1  0.7926126E-001  0.2744975E+03  0.7818608E-02  0.1098733E+00
         -2   -1    0    0    0  501 -0.00000000000E+00  0.00000000000E+00  0.10066248256E+03  0.10066248256E+03  0.00000000000E+00 0.  1.
          2   -1    0    0  501    0  0.00000000000E+00 -0.00000000000E+00 -0.18713247798E+03  0.18713247798E+03  0.00000000000E+00 0.  1.
         35    2    1    2    0    0  0.00000000000E+00 -0.71054273576E-14 -0.86469995414E+02  0.28779496054E+03  0.27449750310E+03 0.  0.
         25    2    3    3    0    0 -0.28936118274E+02 -0.48639486247E+02 -0.41248966380E+02  0.14423323966E+03  0.12608985539E+03 0.  0.
         25    2    3    3    0    0  0.28936118274E+02  0.48639486247E+02 -0.45221029034E+02  0.14356172088E+03  0.12394324375E+03 0.  0.
          5    1    4    4  502    0  0.26757422905E+02  0.76782562479E+00 -0.61242293913E+02  0.67001923857E+02  0.47000000000E+01 0.  1.
         -5    1    4    4    0  502 -0.55693541180E+02 -0.49407311872E+02  0.19993327533E+02  0.77231315807E+02  0.47000000000E+01 0.  1.
          5    1    5    5  503    0 -0.37665362789E+01 -0.40624699300E+02 -0.14037191006E+02  0.43401448364E+02  0.47000000000E+01 0. -1.
         -5    1    5    5    0  503  0.32702654553E+02  0.89264185547E+02 -0.31183838028E+02  0.10016027252E+03  0.47000000000E+01 0. -1.
<mgrwt>
<rscale>  0 0.27449750E+03</rscale>
<asrwt>0</asrwt>
<pdfrwt beam="1">  1        2 0.28789612E-01 0.27449750E+03</pdfrwt>
<pdfrwt beam="2">  1       -2 0.15486536E-01 0.27449750E+03</pdfrwt>
<totfact> 0.59136355E+03</totfact>
</mgrwt>
</event>
<event>
 9    1  0.7926126E-001  0.2748682E+03  0.7818608E-02  0.1098525E+00
         -2   -1    0    0    0  501 -0.00000000000E+00  0.00000000000E+00  0.44615643691E+02  0.44615643691E+02  0.00000000000E+00 0. -1.
          2   -1    0    0  501    0  0.00000000000E+00 -0.00000000000E+00 -0.42335227927E+03  0.42335227927E+03  0.00000000000E+00 0. -1.
         35    2    1    2    0    0  0.17763568394E-14 -0.71054273576E-14 -0.37873663558E+03  0.46796792296E+03  0.27486821895E+03 0.  0.
         25    2    3    3    0    0  0.90571956882E+01  0.19384835630E+02 -0.10116238029E+03  0.16261616548E+03  0.12550850746E+03 0.  0.
         25    2    3    3    0    0 -0.90571956882E+01 -0.19384835630E+02 -0.27757425529E+03  0.30535175748E+03  0.12543693215E+03 0.  0.
          5    1    4    4  502    0 -0.89343872389E+01  0.64078601274E+02 -0.93207774220E+02  0.11355910176E+03  0.47000000000E+01 0. -1.
         -5    1    4    4    0  502  0.17991582927E+02 -0.44693765645E+02 -0.79546060660E+01  0.49057063726E+02  0.47000000000E+01 0. -1.
          5    1    5    5  503    0  0.18643004934E+01 -0.41473510116E+01 -0.28468325960E+03  0.28475836148E+03  0.47000000000E+01 0.  1.
         -5    1    5    5    0  503 -0.10921496182E+02 -0.15237484618E+02  0.71090043098E+01  0.20593395995E+02  0.47000000000E+01 0.  1.
<mgrwt>
<rscale>  0 0.27486822E+03</rscale>
<asrwt>0</asrwt>
<pdfrwt beam="1">  1        2 0.65131120E-01 0.27486822E+03</pdfrwt>
<pdfrwt beam="2">  1       -2 0.68639451E-02 0.27486822E+03</pdfrwt>
<totfact> 0.89513336E+03</totfact>
</mgrwt>
</event>
<event>
 9    1  0.7926126E-001  0.2730098E+03  0.7818608E-02  0.1099569E+00
          4   -1    0    0  501    0  0.00000000000E+00  0.00000000000E+00  0.18570757575E+02  0.18570757575E+02  0.00000000000E+00 0. -1.
         -4   -1    0    0    0  501 -0.00000000000E+00 -0.00000000000E+00 -0.10033834878E+04  0.10033834878E+04  0.00000000000E+00 0. -1.
         35    2    1    2    0    0  0.00000000000E+00 -0.44408920985E-14 -0.98481273020E+03  0.10219542454E+04  0.27300982771E+03 0.  0.
         25    2    3    3    0    0  0.50126978743E+02  0.30253835789E+01 -0.57593782766E+03  0.59167411984E+03  0.12590478867E+03 0.  0.
         25    2    3    3    0    0 -0.50126978743E+02 -0.30253835789E+01 -0.40887490254E+03  0.43028012552E+03  0.12425954105E+03 0.  0.
          5    1    4    4  502    0  0.92380569622E+02 -0.26024160474E+01 -0.40533830719E+03  0.41576697258E+03  0.47000000000E+01 0. -1.
         -5    1    4    4    0  502 -0.42253590879E+02  0.56277996263E+01 -0.17059952047E+03  0.17590714725E+03  0.47000000000E+01 0. -1.
          5    1    5    5  503    0 -0.25867917240E+02  0.45082101126E+02 -0.71071487179E+02  0.88174776858E+02  0.47000000000E+01 0.  1.
         -5    1    5    5    0  503 -0.24259061503E+02 -0.48107484704E+02 -0.33780341536E+03  0.34210534866E+03  0.47000000000E+01 0.  1.
<mgrwt>
<rscale>  0 0.27300983E+03</rscale>
<asrwt>0</asrwt>
<pdfrwt beam="1">  1        4 0.28570393E-02 0.27300983E+03</pdfrwt>
<pdfrwt beam="2">  1       -4 0.15436671E+00 0.27300983E+03</pdfrwt>
<totfact> 0.31979753E+02</totfact>
</mgrwt>
</event>
<event>
 9    1  0.7926126E-001  0.2800019E+03  0.7818608E-02  0.1095688E+00
          1   -1    0    0  501    0  0.00000000000E+00  0.00000000000E+00  0.11465012007E+04  0.11465012007E+04  0.00000000000E+00 0. -1.
         -1   -1    0    0    0  501 -0.00000000000E+00 -0.00000000000E+00 -0.17095718172E+02  0.17095718172E+02  0.00000000000E+00 0. -1.
         35    2    1    2    0    0 -0.71054273576E-14  0.00000000000E+00  0.11294054826E+04  0.11635969189E+04  0.28000186722E+03 0.  0.
         25    2    3    3    0    0 -0.43607621714E+02  0.41697364834E+02  0.52190760089E+03  0.54013887659E+03  0.12538806654E+03 0.  0.
         25    2    3    3    0    0  0.43607621714E+02 -0.41697364834E+02  0.60749788167E+03  0.62345804231E+03  0.12651466076E+03 0.  0.
          5    1    4    4  502    0 -0.33274783582E+02 -0.40494138560E+02  0.26469094795E+03  0.26987103292E+03  0.47000000000E+01 0.  1.
         -5    1    4    4    0  502 -0.10332838132E+02  0.82191503394E+02  0.25721665294E+03  0.27026784367E+03  0.47000000000E+01 0.  1.
          5    1    5    5  503    0  0.11320411455E+02 -0.65300155860E+02  0.54549062978E+03  0.54952195521E+03  0.47000000000E+01 0.  1.
         -5    1    5    5    0  503  0.32287210259E+02  0.23602791026E+02  0.62007251886E+02  0.73936087109E+02  0.47000000000E+01 0.  1.
<mgrwt>
<rscale>  0 0.28000187E+03</rscale>
<asrwt>0</asrwt>
<pdfrwt beam="1">  1        1 0.17638474E+00 0.28000187E+03</pdfrwt>
<pdfrwt beam="2">  1       -1 0.26301114E-02 0.28000187E+03</pdfrwt>
<totfact> 0.57260556E+03</totfact>
</mgrwt>
</event>
<event>
 9    1  0.7926126E-001  0.2719140E+03  0.7818608E-02  0.1100189E+00
         -2   -1    0    0    0  501 -0.00000000000E+00  0.00000000000E+00  0.27608113689E+02  0.27608113689E+02  0.00000000000E+00 0.  1.
          2   -1    0    0  501    0  0.00000000000E+00 -0.00000000000E+00 -0.66952463209E+03  0.66952463209E+03  0.00000000000E+00 0.  1.
         35    2    1    2    0    0 -0.71054273576E-14  0.00000000000E+00 -0.64191651840E+03  0.69713274578E+03  0.27191404642E+03 0.  0.
         25    2    3    3    0    0  0.36179555888E+02 -0.74191480987E+01 -0.41876711186E+03  0.43894000315E+03  0.12624748855E+03 0.  0.
         25    2    3    3    0    0 -0.36179555888E+02  0.74191480987E+01 -0.22314940654E+03  0.25819274263E+03  0.12451437943E+03 0.  0.
          5    1    4    4  502    0  0.42412511082E+02 -0.49608029101E+02 -0.36154710615E+03  0.36742098145E+03  0.47000000000E+01 0. -1.
         -5    1    4    4    0  502 -0.62329551944E+01  0.42188881002E+02 -0.57220005714E+02  0.71519021698E+02  0.47000000000E+01 0. -1.
          5    1    5    5  503    0 -0.19599472815E+02  0.62350898353E+02 -0.15913271907E+03  0.17209615376E+03  0.47000000000E+01 0. -1.
         -5    1    5    5    0  503 -0.16580083073E+02 -0.54931750254E+02 -0.64016687470E+02  0.86096588872E+02  0.47000000000E+01 0. -1.
<mgrwt>
<rscale>  0 0.27191405E+03</rscale>
<asrwt>0</asrwt>
<pdfrwt beam="1">  1        2 0.10300378E+00 0.27191405E+03</pdfrwt>
<pdfrwt beam="2">  1       -2 0.42474023E-02 0.27191405E+03</pdfrwt>
<totfact> 0.11058994E+04</totfact>
</mgrwt>
</event>
<event>
 9    1  0.7926126E-001  0.2790275E+03  0.7818608E-02  0.1096221E+00
         -1   -1    0    0    0  501 -0.00000000000E+00  0.00000000000E+00  0.38796482919E+02  0.38796482919E+02  0.00000000000E+00 0.  1.
          1   -1    0    0  501    0  0.00000000000E+00 -0.00000000000E+00 -0.50169721589E+03  0.50169721589E+03  0.00000000000E+00 0.  1.
         35    2    1    2    0    0  0.00000000000E+00  0.00000000000E+00 -0.46290073297E+03  0.54049369881E+03  0.27902750737E+03 0.  0.
         25    2    3    3    0    0  0.11460862503E+01 -0.21598928401E+02 -0.11725003746E+03  0.17237877799E+03  0.12449515891E+03 0.  0.
         25    2    3    3    0    0 -0.11460862503E+01  0.21598928401E+02 -0.34565069551E+03  0.36811492083E+03  0.12476523717E+03 0.  0.
          5    1    4    4  502    0  0.12101550743E+02 -0.72427449938E+02 -0.60433178705E+02  0.95217866618E+02  0.47000000000E+01 0. -1.
         -5    1    4    4    0  502 -0.10955464492E+02  0.50828521537E+02 -0.56816858757E+02  0.77160911367E+02  0.47000000000E+01 0. -1.
          5    1    5    5  503    0 -0.19701040244E+02  0.41107908693E+01 -0.34117986222E+03  0.34180523397E+03  0.47000000000E+01 0.  1.
         -5    1    5    5    0  503  0.18554953993E+02  0.17488137532E+02 -0.44708332947E+01  0.26309686855E+02  0.47000000000E+01 0.  1.
<mgrwt>
<rscale>  0 0.27902751E+03</rscale>
<asrwt>0</asrwt>
<pdfrwt beam="1">  1        1 0.77184193E-01 0.27902751E+03</pdfrwt>
<pdfrwt beam="2">  1       -1 0.59686892E-02 0.27902751E+03</pdfrwt>
<totfact> 0.60293383E+03</totfact>
</mgrwt>
</event>
<event>
 9    1  0.7926126E-001  0.2700832E+03  0.7818608E-02  0.1101232E+00
         -1   -1    0    0    0  501 -0.00000000000E+00  0.00000000000E+00  0.22610262188E+02  0.22610262188E+02  0.00000000000E+00 0.  1.
          1   -1    0    0  501    0  0.00000000000E+00 -0.00000000000E+00 -0.80654684677E+03  0.80654684677E+03  0.00000000000E+00 0.  1.
         35    2    1    2    0    0  0.71054273576E-14  0.00000000000E+00 -0.78393658458E+03  0.82915710895E+03  0.27008321438E+03 0.  0.
         25    2    3    3    0    0 -0.37748570579E+02  0.23808011745E+02 -0.43800112821E+03  0.45844194067E+03  0.12779768639E+03 0.  0.
         25    2    3    3    0    0  0.37748570579E+02 -0.23808011745E+02 -0.34593545637E+03  0.37071516828E+03  0.12556520226E+03 0.  0.
          5    1    4    4  502    0 -0.30301914477E+02  0.14045507444E+02 -0.44306966122E+03  0.44435154663E+03  0.47000000000E+01 0. -1.
         -5    1    4    4    0  502 -0.74466561020E+01  0.97625043017E+01  0.50685330083E+01  0.14090394040E+02  0.47000000000E+01 0. -1.
          5    1    5    5  503    0  0.71192439522E+02 -0.14166788057E+02 -0.31691295863E+03  0.32515377082E+03  0.47000000000E+01 0.  1.
         -5    1    5    5    0  503 -0.33443868944E+02 -0.96412236880E+01 -0.29022497735E+02  0.45561397464E+02  0.47000000000E+01 0.  1.
<mgrwt>
<rscale>  0 0.27008321E+03</rscale>
<asrwt>0</asrwt>
<pdfrwt beam="1">  1        1 0.12408414E+00 0.27008321E+03</pdfrwt>
<pdfrwt beam="2">  1       -1 0.34785017E-02 0.27008321E+03</pdfrwt>
<totfact> 0.68724144E+03</totfact>
</mgrwt>
</event>
<event>
 9    1  0.7926126E-001  0.2745457E+03  0.7818608E-02  0.1098706E+00
          2   -1    0    0  501    0  0.00000000000E+00  0.00000000000E+00  0.15283223101E+04  0.15283223101E+04  0.00000000000E+00 0.  1.
         -2   -1    0    0    0  501 -0.00000000000E+00 -0.00000000000E+00 -0.12329753583E+02  0.12329753583E+02  0.00000000000E+00 0.  1.
         35    2    1    2    0    0 -0.71054273576E-14  0.00000000000E+00  0.15159925565E+04  0.15406520636E+04  0.27454571552E+03 0.  0.
         25    2    3    3    0    0  0.37779285712E+02 -0.35591719047E+02  0.62185617004E+03  0.63634506667E+03  0.12464310153E+03 0.  0.
         25    2    3    3    0    0 -0.37779285712E+02  0.35591719047E+02  0.89413638643E+03  0.90430699697E+03  0.12488883993E+03 0.  0.
          5    1    4    4  502    0 -0.99942536816E+01 -0.18448240630E+02  0.12520889913E+02  0.24881426269E+02  0.47000000000E+01 0. -1.
         -5    1    4    4    0  502  0.47773539394E+02 -0.17143478417E+02  0.60933528013E+03  0.61146364040E+03  0.47000000000E+01 0. -1.
          5    1    5    5  503    0  0.13822078727E+02 -0.32802947553E+02  0.48187011170E+03  0.48320593724E+03  0.47000000000E+01 0.  1.
         -5    1    5    5    0  503 -0.51601364439E+02  0.68394666600E+02  0.41226627473E+03  0.42110105973E+03  0.47000000000E+01 0.  1.
<mgrwt>
<rscale>  0 0.27454572E+03</rscale>
<asrwt>0</asrwt>
<pdfrwt beam="1">  1        2 0.23512636E+00 0.27454572E+03</pdfrwt>
<pdfrwt beam="2">  1       -2 0.18968864E-02 0.27454572E+03</pdfrwt>
<totfact> 0.11011243E+04</totfact>
</mgrwt>
</event>
<event>
 9    1  0.7926126E-001  0.2729925E+03  0.7818608E-02  0.1099579E+00
          1   -1    0    0  501    0  0.00000000000E+00  0.00000000000E+00  0.19524556426E+03  0.19524556426E+03  0.00000000000E+00 0. -1.
         -1   -1    0    0    0  501 -0.00000000000E+00 -0.00000000000E+00 -0.95424564683E+02  0.95424564683E+02  0.00000000000E+00 0. -1.
         35    2    1    2    0    0  0.00000000000E+00 -0.35527136788E-14  0.99820999573E+02  0.29067012894E+03  0.27299247591E+03 0.  0.
         25    2    3    3    0    0  0.11902791305E+01  0.11852376734E+02 -0.71555113593E+01  0.12632916280E+03  0.12556257576E+03 0.  0.
         25    2    3    3    0    0 -0.11902791305E+01 -0.11852376734E+02  0.10697651093E+03  0.16434096614E+03  0.12418568220E+03 0.  0.
          5    1    4    4  502    0 -0.33865699903E+02 -0.46180115870E+02  0.33662166848E+01  0.57557885180E+02  0.47000000000E+01 0. -1.
         -5    1    4    4    0  502  0.35055979033E+02  0.58032492604E+02 -0.10521728044E+02  0.68771277615E+02  0.47000000000E+01 0. -1.
          5    1    5    5  503    0  0.19175881064E+02 -0.10451900212E+01  0.12995603448E+03  0.13145138925E+03  0.47000000000E+01 0. -1.
         -5    1    5    5    0  503 -0.20366160194E+02 -0.10807186713E+02 -0.22979523551E+02  0.32889576895E+02  0.47000000000E+01 0. -1.
<mgrwt>
<rscale>  0 0.27299248E+03</rscale>
<asrwt>0</asrwt>
<pdfrwt beam="1">  1        1 0.30037779E-01 0.27299248E+03</pdfrwt>
<pdfrwt beam="2">  1       -1 0.14680702E-01 0.27299248E+03</pdfrwt>
<totfact> 0.49943124E+03</totfact>
</mgrwt>
</event>
<event>
 9    1  0.7926126E-001  0.2784384E+03  0.7818608E-02  0.1096545E+00
          2   -1    0    0  501    0  0.00000000000E+00  0.00000000000E+00  0.42787610221E+03  0.42787610221E+03  0.00000000000E+00 0.  1.
         -2   -1    0    0    0  501 -0.00000000000E+00 -0.00000000000E+00 -0.45298132880E+02  0.45298132880E+02  0.00000000000E+00 0.  1.
         35    2    1    2    0    0  0.00000000000E+00  0.00000000000E+00  0.38257796933E+03  0.47317423509E+03  0.27843842073E+03 0.  0.
         25    2    3    3    0    0  0.65766596847E+02  0.64326975720E+01  0.23723903581E+03  0.27038364671E+03  0.11161689585E+03 0.  0.
         25    2    3    3    0    0 -0.65766596847E+02 -0.64326975720E+01  0.14533893352E+03  0.20279058838E+03  0.12503596394E+03 0.  0.
          5    1    4    4  502    0  0.84901810635E+02 -0.26660413900E+02  0.18636621798E+03  0.20657577865E+03  0.47000000000E+01 0.  1.
         -5    1    4    4    0  502 -0.19135213787E+02  0.33093111472E+02  0.50872817823E+02  0.63807868064E+02  0.47000000000E+01 0.  1.
          5    1    5    5  503    0  0.33740739641E+02  0.17839325578E+02  0.32751331288E+02  0.50511570454E+02  0.47000000000E+01 0.  1.
         -5    1    5    5    0  503 -0.99507336489E+02 -0.24272023150E+02  0.11258760223E+03  0.15227901792E+03  0.47000000000E+01 0.  1.
<mgrwt>
<rscale>  0 0.27843842E+03</rscale>
<asrwt>0</asrwt>
<pdfrwt beam="1">  1        2 0.65827090E-01 0.27843842E+03</pdfrwt>
<pdfrwt beam="2">  1       -2 0.69689438E-02 0.27843842E+03</pdfrwt>
<totfact> 0.86466638E+03</totfact>
</mgrwt>
</event>
<event>
 9    1  0.7926126E-001  0.2774001E+03  0.7818608E-02  0.1097118E+00
          1   -1    0    0  501    0  0.00000000000E+00  0.00000000000E+00  0.81211166550E+03  0.81211166550E+03  0.00000000000E+00 0.  1.
         -1   -1    0    0    0  501 -0.00000000000E+00 -0.00000000000E+00 -0.23688487466E+02  0.23688487466E+02  0.00000000000E+00 0.  1.
         35    2    1    2    0    0  0.00000000000E+00  0.00000000000E+00  0.78842317803E+03  0.83580015296E+03  0.27740005053E+03 0.  0.
         25    2    3    3    0    0  0.22354490131E+02  0.33424330697E+02  0.26612490077E+03  0.29661314717E+03  0.12465948482E+03 0.  0.
         25    2    3    3    0    0 -0.22354490131E+02 -0.33424330697E+02  0.52229827727E+03  0.53918700579E+03  0.12771150172E+03 0.  0.
          5    1    4    4  502    0 -0.16737314648E+02 -0.10506293500E+02  0.22204151036E+03  0.22296870235E+03  0.47000000000E+01 0.  1.
         -5    1    4    4    0  502  0.39091804780E+02  0.43930624197E+02  0.44083390409E+02  0.73644444822E+02  0.47000000000E+01 0.  1.
          5    1    5    5  503    0  0.31530972407E+02  0.15143925218E+01  0.33890580756E+02  0.46552734287E+02  0.47000000000E+01 0. -1.
         -5    1    5    5    0  503 -0.53885462538E+02 -0.34938723218E+02  0.48840769651E+03  0.49263427151E+03  0.47000000000E+01 0. -1.
<mgrwt>
<rscale>  0 0.27740005E+03</rscale>
<asrwt>0</asrwt>
<pdfrwt beam="1">  1        1 0.12494024E+00 0.27740005E+03</pdfrwt>
<pdfrwt beam="2">  1       -1 0.36443833E-02 0.27740005E+03</pdfrwt>
<totfact> 0.63503694E+03</totfact>
</mgrwt>
</event>
<event>
 9    1  0.7926126E-001  0.2758576E+03  0.7818608E-02  0.1097973E+00
          2   -1    0    0  501    0  0.00000000000E+00  0.00000000000E+00  0.71545356255E+03  0.71545356255E+03  0.00000000000E+00 0. -1.
         -2   -1    0    0    0  501 -0.00000000000E+00 -0.00000000000E+00 -0.26590624250E+02  0.26590624250E+02  0.00000000000E+00 0. -1.
         35    2    1    2    0    0  0.14210854715E-13  0.71054273576E-14  0.68886293830E+03  0.74204418680E+03  0.27585762161E+03 0.  0.
         25    2    3    3    0    0 -0.48128233558E+02 -0.30502386614E+02  0.37695423895E+03  0.40123175442E+03  0.12508277276E+03 0.  0.
         25    2    3    3    0    0  0.48128233558E+02  0.30502386614E+02  0.31190869935E+03  0.34081243238E+03  0.12497741747E+03 0.  0.
          5    1    4    4  502    0  0.12432854214E+02  0.41084603594E+02  0.13306042487E+03  0.13989169805E+03  0.47000000000E+01 0.  1.
         -5    1    4    4    0  502 -0.60561087772E+02 -0.71586990208E+02  0.24389381408E+03  0.26134005637E+03  0.47000000000E+01 0.  1.
          5    1    5    5  503    0  0.72991799634E+02  0.47886912136E+02  0.29053813251E+03  0.30340641986E+03  0.47000000000E+01 0. -1.
         -5    1    5    5    0  503 -0.24863566076E+02 -0.17384525521E+02  0.21370566840E+02  0.37406012521E+02  0.47000000000E+01 0. -1.
<mgrwt>
<rscale>  0 0.27585762E+03</rscale>
<asrwt>0</asrwt>
<pdfrwt beam="1">  1        2 0.11006976E+00 0.27585762E+03</pdfrwt>
<pdfrwt beam="2">  1       -2 0.40908658E-02 0.27585762E+03</pdfrwt>
<totfact> 0.10806297E+04</totfact>
</mgrwt>
</event>
<event>
 9    1  0.7926126E-001  0.2812287E+03  0.7818608E-02  0.1095020E+00
         -2   -1    0    0    0  501 -0.00000000000E+00  0.00000000000E+00  0.85596979865E+02  0.85596979865E+02  0.00000000000E+00 0. -1.
          2   -1    0    0  501    0  0.00000000000E+00 -0.00000000000E+00 -0.23099407960E+03  0.23099407960E+03  0.00000000000E+00 0. -1.
         35    2    1    2    0    0  0.00000000000E+00  0.00000000000E+00 -0.14539709974E+03  0.31659105947E+03  0.28122870110E+03 0.  0.
         25    2    3    3    0    0  0.12352764145E+02  0.55144160998E+02 -0.11029544918E+03  0.17517203558E+03  0.12380099623E+03 0.  0.
         25    2    3    3    0    0 -0.12352764145E+02 -0.55144160998E+02 -0.35101650562E+02  0.14141902389E+03  0.12479481227E+03 0.  0.
          5    1    4    4  502    0  0.60794137799E+02  0.61835068843E+02 -0.66887400687E+02  0.10961531508E+03  0.47000000000E+01 0.  1.
         -5    1    4    4    0  502 -0.48441373654E+02 -0.66909078452E+01 -0.43408048490E+02  0.65556720502E+02  0.47000000000E+01 0.  1.
          5    1    5    5  503    0 -0.51720089675E+02 -0.59998268730E+02  0.11344899408E+02  0.80159570041E+02  0.47000000000E+01 0. -1.
         -5    1    5    5    0  503  0.39367325530E+02  0.48541077322E+01 -0.46446549970E+02  0.61259453845E+02  0.47000000000E+01 0. -1.
<mgrwt>
<rscale>  0 0.28122870E+03</rscale>
<asrwt>0</asrwt>
<pdfrwt beam="1">  1        2 0.35537551E-01 0.28122870E+03</pdfrwt>
<pdfrwt beam="2">  1       -2 0.13168766E-01 0.28122870E+03</pdfrwt>
<totfact> 0.61382789E+03</totfact>
</mgrwt>
</event>
<event>
 9    1  0.7926126E-001  0.2754453E+03  0.7818608E-02  0.1098203E+00
         -2   -1    0    0    0  501 -0.00000000000E+00  0.00000000000E+00  0.28595695018E+03  0.28595695018E+03  0.00000000000E+00 0.  1.
          2   -1    0    0  501    0  0.00000000000E+00 -0.00000000000E+00 -0.66330012667E+02  0.66330012667E+02  0.00000000000E+00 0.  1.
         35    2    1    2    0    0  0.00000000000E+00  0.17763568394E-14  0.21962693751E+03  0.35228696285E+03  0.27544529858E+03 0.  0.
         25    2    3    3    0    0 -0.48162310203E+02 -0.17338979120E+01  0.15373326515E+03  0.20382321518E+03  0.12484939611E+03 0.  0.
         25    2    3    3    0    0  0.48162310203E+02  0.17338979120E+01  0.65893672369E+02  0.14846374766E+03  0.12400360392E+03 0.  0.
          5    1    4    4  502    0  0.24811200399E+02  0.15656654864E+02  0.11595111843E+03  0.11969744514E+03  0.47000000000E+01 0. -1.
         -5    1    4    4    0  502 -0.72973510602E+02 -0.17390552776E+02  0.37782146712E+02  0.84125770045E+02  0.47000000000E+01 0. -1.
          5    1    5    5  503    0  0.81197198179E+02 -0.27563367147E+02  0.57293484118E+02  0.10323447836E+03  0.47000000000E+01 0. -1.
         -5    1    5    5    0  503 -0.33034887976E+02  0.29297265059E+02  0.86001882511E+01  0.45229269301E+02  0.47000000000E+01 0. -1.
<mgrwt>
<rscale>  0 0.27544530E+03</rscale>
<asrwt>0</asrwt>
<pdfrwt beam="1">  1        2 0.10204618E-01 0.27544530E+03</pdfrwt>
<pdfrwt beam="2">  1       -2 0.43993376E-01 0.27544530E+03</pdfrwt>
<totfact> 0.30814140E+03</totfact>
</mgrwt>
</event>
<event>
 9    1  0.7926126E-001  0.2729738E+03  0.7818608E-02  0.1099590E+00
         -2   -1    0    0    0  501 -0.00000000000E+00  0.00000000000E+00  0.33951224073E+03  0.33951224073E+03  0.00000000000E+00 0. -1.
          2   -1    0    0  501    0  0.00000000000E+00 -0.00000000000E+00 -0.54868950701E+02  0.54868950701E+02  0.00000000000E+00 0. -1.
         35    2    1    2    0    0  0.00000000000E+00 -0.35527136788E-14  0.28464329003E+03  0.39438119143E+03  0.27297384782E+03 0.  0.
         25    2    3    3    0    0  0.37941893521E+02  0.18508452754E+02  0.19348796228E+03  0.23418808973E+03  0.12499727883E+03 0.  0.
         25    2    3    3    0    0 -0.37941893521E+02 -0.18508452754E+02  0.91155327746E+02  0.16019310170E+03  0.12478135257E+03 0.  0.
          5    1    4    4  502    0  0.39643638122E+02  0.69198164195E+02  0.13258323690E+03  0.15479150066E+03  0.47000000000E+01 0.  1.
         -5    1    4    4    0  502 -0.17017446005E+01 -0.50689711441E+02  0.60904725385E+02  0.79396589063E+02  0.47000000000E+01 0.  1.
          5    1    5    5  503    0 -0.16387139278E+02 -0.27080085358E+02  0.11924370844E+03  0.12346263143E+03  0.47000000000E+01 0. -1.
         -5    1    5    5    0  503 -0.21554754243E+02  0.85716326045E+01 -0.28088380699E+02  0.36730470270E+02  0.47000000000E+01 0. -1.
<mgrwt>
<rscale>  0 0.27297385E+03</rscale>
<asrwt>0</asrwt>
<pdfrwt beam="1">  1        2 0.84413772E-02 0.27297385E+03</pdfrwt>
<pdfrwt beam="2">  1       -2 0.52232651E-01 0.27297385E+03</pdfrwt>
<totfact> 0.27815737E+03</totfact>
</mgrwt>
</event>
<event>
 9    1  0.7926126E-001  0.2752550E+03  0.7818608E-02  0.1098309E+00
         -1   -1    0    0    0  501 -0.00000000000E+00  0.00000000000E+00  0.22760052437E+02  0.22760052437E+02  0.00000000000E+00 0.  1.
          1   -1    0    0  501    0  0.00000000000E+00 -0.00000000000E+00 -0.83221815740E+03  0.83221815740E+03  0.00000000000E+00 0.  1.
         35    2    1    2    0    0  0.00000000000E+00  0.00000000000E+00 -0.80945810496E+03  0.85497820984E+03  0.27525500106E+03 0.  0.
         25    2    3    3    0    0 -0.38132846889E+02  0.29446381541E+02 -0.31151270263E+03  0.33924596416E+03  0.12540517094E+03 0.  0.
         25    2    3    3    0    0  0.38132846889E+02 -0.29446381541E+02 -0.49794540233E+03  0.51573224568E+03  0.12533523899E+03 0.  0.
          5    1    4    4  502    0 -0.28998364475E+02  0.27259343175E+01 -0.30911377652E+03  0.31051852231E+03  0.47000000000E+01 0.  1.
         -5    1    4    4    0  502 -0.91344824145E+01  0.26720447223E+02 -0.23989261084E+01  0.28727441850E+02  0.47000000000E+01 0.  1.
          5    1    5    5  503    0  0.81477200029E+02 -0.17036766949E+00 -0.31466839648E+03  0.32507976389E+03  0.47000000000E+01 0.  1.
         -5    1    5    5    0  503 -0.43344353139E+02 -0.29276013871E+02 -0.18327700585E+03  0.19065248179E+03  0.47000000000E+01 0.  1.
<mgrwt>
<rscale>  0 0.27525500E+03</rscale>
<asrwt>0</asrwt>
<pdfrwt beam="1">  1        1 0.12803355E+00 0.27525500E+03</pdfrwt>
<pdfrwt beam="2">  1       -1 0.35015468E-02 0.27525500E+03</pdfrwt>
<totfact> 0.64848453E+03</totfact>
</mgrwt>
</event>
<event>
 9    1  0.7926126E-001  0.2763600E+03  0.7818608E-02  0.1097694E+00
         -3   -1    0    0    0  501 -0.00000000000E+00  0.00000000000E+00  0.87349731517E+02  0.87349731517E+02  0.00000000000E+00 0.  1.
          3   -1    0    0  501    0  0.00000000000E+00 -0.00000000000E+00 -0.21858932571E+03  0.21858932571E+03  0.00000000000E+00 0.  1.
         35    2    1    2    0    0  0.71054273576E-14  0.00000000000E+00 -0.13123959419E+03  0.30593905722E+03  0.27636004713E+03 0.  0.
         25    2    3    3    0    0 -0.44880531653E+02 -0.19940222464E+02 -0.10144799539E+03  0.16926186811E+03  0.12627751040E+03 0.  0.
         25    2    3    3    0    0  0.44880531653E+02  0.19940222464E+02 -0.29791598798E+02  0.13667718912E+03  0.12402112752E+03 0.  0.
          5    1    4    4  502    0 -0.64737989465E+02 -0.22702801775E+02 -0.31566321906E+01  0.68836609556E+02  0.47000000000E+01 0. -1.
         -5    1    4    4    0  502  0.19857457812E+02  0.27625793113E+01 -0.98291363201E+02  0.10042525855E+03  0.47000000000E+01 0. -1.
          5    1    5    5  503    0 -0.20359308330E+02  0.22244425602E+02  0.33718246583E+02  0.45478852873E+02  0.47000000000E+01 0.  1.
         -5    1    5    5    0  503  0.65239839982E+02 -0.23042031385E+01 -0.63509845382E+02  0.91198336243E+02  0.47000000000E+01 0.  1.
<mgrwt>
<rscale>  0 0.27636005E+03</rscale>
<asrwt>0</asrwt>
<pdfrwt beam="1">  1        3 0.33629127E-01 0.27636005E+03</pdfrwt>
<pdfrwt beam="2">  1       -3 0.13438420E-01 0.27636005E+03</pdfrwt>
<totfact> 0.98810737E+02</totfact>
</mgrwt>
</event>
<event>
 9    1  0.7926126E-001  0.2752898E+03  0.7818608E-02  0.1098290E+00
          1   -1    0    0  501    0  0.00000000000E+00  0.00000000000E+00  0.78353389689E+03  0.78353389689E+03  0.00000000000E+00 0.  1.
         -1   -1    0    0    0  501 -0.00000000000E+00 -0.00000000000E+00 -0.24180341432E+02  0.24180341432E+02  0.00000000000E+00 0.  1.
         35    2    1    2    0    0  0.17763568394E-14  0.00000000000E+00  0.75935355546E+03  0.80771423832E+03  0.27528979022E+03 0.  0.
         25    2    3    3    0    0  0.14028715693E+02  0.17752735467E+02  0.52486780572E+03  0.54002537506E+03  0.12501690981E+03 0.  0.
         25    2    3    3    0    0 -0.14028715693E+02 -0.17752735467E+02  0.23448574973E+03  0.26768886326E+03  0.12712905336E+03 0.  0.
          5    1    4    4  502    0  0.24689404553E+02 -0.34386552782E+02  0.42169713197E+03  0.42384261563E+03  0.47000000000E+01 0. -1.
         -5    1    4    4    0  502 -0.10660688860E+02  0.52139288249E+02  0.10317067376E+03  0.11618275943E+03  0.47000000000E+01 0. -1.
          5    1    5    5  503    0  0.22956489608E+02  0.36523532120E+02  0.29719837082E+02  0.52595888906E+02  0.47000000000E+01 0.  1.
         -5    1    5    5    0  503 -0.36985205301E+02 -0.54276267587E+02  0.20476591265E+03  0.21509297436E+03  0.47000000000E+01 0.  1.
<mgrwt>
<rscale>  0 0.27528979E+03</rscale>
<asrwt>0</asrwt>
<pdfrwt beam="1">  1        1 0.12054366E+00 0.27528979E+03</pdfrwt>
<pdfrwt beam="2">  1       -1 0.37200531E-02 0.27528979E+03</pdfrwt>
<totfact> 0.65074209E+03</totfact>
</mgrwt>
</event>
<event>
 9    1  0.7926126E-001  0.2753759E+03  0.7818608E-02  0.1098242E+00
          2   -1    0    0  501    0  0.00000000000E+00  0.00000000000E+00  0.97839073960E+03  0.97839073960E+03  0.00000000000E+00 0. -1.
         -2   -1    0    0    0  501 -0.00000000000E+00 -0.00000000000E+00 -0.19376693340E+02  0.19376693340E+02  0.00000000000E+00 0. -1.
         35    2    1    2    0    0  0.00000000000E+00  0.00000000000E+00  0.95901404626E+03  0.99776743294E+03  0.27537594178E+03 0.  0.
         25    2    3    3    0    0  0.13317087188E+02 -0.23499339807E+02  0.29785866833E+03  0.32439220099E+03  0.12562225112E+03 0.  0.
         25    2    3    3    0    0 -0.13317087188E+02  0.23499339807E+02  0.66115537792E+03  0.67337523195E+03  0.12481268150E+03 0.  0.
          5    1    4    4  502    0  0.69196976721E+02 -0.20086101953E+02  0.17401974698E+03  0.18840550793E+03  0.47000000000E+01 0.  1.
         -5    1    4    4    0  502 -0.55879889534E+02 -0.34132378546E+01  0.12383892135E+03  0.13598669306E+03  0.47000000000E+01 0.  1.
          5    1    5    5  503    0  0.38718976163E+02  0.52771471788E+02  0.28310704398E+03  0.29061258697E+03  0.47000000000E+01 0.  1.
         -5    1    5    5    0  503 -0.52036063350E+02 -0.29272131980E+02  0.37804833394E+03  0.38276264498E+03  0.47000000000E+01 0.  1.
<mgrwt>
<rscale>  0 0.27537594E+03</rscale>
<asrwt>0</asrwt>
<pdfrwt beam="1">  1        2 0.15052161E+00 0.27537594E+03</pdfrwt>
<pdfrwt beam="2">  1       -2 0.29810305E-02 0.27537594E+03</pdfrwt>
<totfact> 0.11549895E+04</totfact>
</mgrwt>
</event>
<event>
 9    1  0.7926126E-001  0.2772694E+03  0.7818608E-02  0.1097190E+00
         -1   -1    0    0    0  501 -0.00000000000E+00  0.00000000000E+00  0.68726929151E+03  0.68726929151E+03  0.00000000000E+00 0. -1.
          1   -1    0    0  501    0  0.00000000000E+00 -0.00000000000E+00 -0.27965135934E+02  0.27965135934E+02  0.00000000000E+00 0. -1.
         35    2    1    2    0    0  0.17763568394E-14  0.00000000000E+00  0.65930415557E+03  0.71523442744E+03  0.27726939362E+03 0.  0.
         25    2    3    3    0    0  0.90558056425E+01  0.78282172768E+01  0.48199954048E+03  0.49804170764E+03  0.12481465028E+03 0.  0.
         25    2    3    3    0    0 -0.90558056425E+01 -0.78282172768E+01  0.17730461509E+03  0.21719271980E+03  0.12486978177E+03 0.  0.
          5    1    4    4  502    0  0.58562916040E+02  0.34512329306E+02  0.29152669415E+03  0.29938373271E+03  0.47000000000E+01 0.  1.
         -5    1    4    4    0  502 -0.49507110397E+02 -0.26684112029E+02  0.19047284634E+03  0.19865797494E+03  0.47000000000E+01 0.  1.
          5    1    5    5  503    0 -0.15056334708E+02  0.50800648471E+02  0.13321036130E+03  0.14343810323E+03  0.47000000000E+01 0.  1.
         -5    1    5    5    0  503  0.60005290656E+01 -0.58628865748E+02  0.44094253790E+02  0.73754616569E+02  0.47000000000E+01 0.  1.
<mgrwt>
<rscale>  0 0.27726939E+03</rscale>
<asrwt>0</asrwt>
<pdfrwt beam="1">  1        1 0.43023291E-02 0.27726939E+03</pdfrwt>
<pdfrwt beam="2">  1       -1 0.10573372E+00 0.27726939E+03</pdfrwt>
<totfact> 0.18231455E+03</totfact>
</mgrwt>
</event>
<event>
 9    1  0.7926126E-001  0.2747899E+03  0.7818608E-02  0.1098569E+00
          1   -1    0    0  501    0  0.00000000000E+00  0.00000000000E+00  0.17458813596E+04  0.17458813596E+04  0.00000000000E+00 0.  1.
         -1   -1    0    0    0  501 -0.00000000000E+00 -0.00000000000E+00 -0.10812514622E+02  0.10812514622E+02  0.00000000000E+00 0.  1.
         35    2    1    2    0    0 -0.71054273576E-14  0.71054273576E-14  0.17350688450E+04  0.17566938742E+04  0.27478986684E+03 0.  0.
         25    2    3    3    0    0 -0.40423896417E+02  0.35899477079E+02  0.76721806912E+03  0.77912867456E+03  0.12447916324E+03 0.  0.
         25    2    3    3    0    0  0.40423896417E+02 -0.35899477079E+02  0.96785077587E+03  0.97756519967E+03  0.12639513996E+03 0.  0.
          5    1    4    4  502    0 -0.71579460390E+02 -0.16007722089E+02  0.47669602481E+03  0.48232878453E+03  0.47000000000E+01 0.  1.
         -5    1    4    4    0  502  0.31155563973E+02  0.51907199169E+02  0.29052204432E+03  0.29679989004E+03  0.47000000000E+01 0.  1.
          5    1    5    5  503    0  0.33587146954E+02 -0.46744092237E+02  0.96015769077E+03  0.96189291907E+03  0.47000000000E+01 0.  1.
         -5    1    5    5    0  503  0.68367494628E+01  0.10844615158E+02  0.76930850975E+01  0.15672280608E+02  0.47000000000E+01 0.  1.
<mgrwt>
<rscale>  0 0.27478987E+03</rscale>
<asrwt>0</asrwt>
<pdfrwt beam="1">  1        1 0.26859691E+00 0.27478987E+03</pdfrwt>
<pdfrwt beam="2">  1       -1 0.16634652E-02 0.27478987E+03</pdfrwt>
<totfact> 0.44294705E+03</totfact>
</mgrwt>
</event>
<event>
 9    1  0.7926126E-001  0.2722370E+03  0.7818608E-02  0.1100006E+00
         -2   -1    0    0    0  501 -0.00000000000E+00  0.00000000000E+00  0.15797017847E+02  0.15797017847E+02  0.00000000000E+00 0.  1.
          2   -1    0    0  501    0  0.00000000000E+00 -0.00000000000E+00 -0.11728947699E+04  0.11728947699E+04  0.00000000000E+00 0.  1.
         35    2    1    2    0    0  0.00000000000E+00  0.00000000000E+00 -0.11570977521E+04  0.11886917878E+04  0.27223695277E+03 0.  0.
         25    2    3    3    0    0 -0.45331163517E+01  0.23311111741E+00 -0.82067367299E+03  0.82995680338E+03  0.12370292823E+03 0.  0.
         25    2    3    3    0    0  0.45331163517E+01 -0.23311111741E+00 -0.33642407910E+03  0.35873498441E+03  0.12445490972E+03 0.  0.
          5    1    4    4  502    0  0.20706925868E+02  0.54562825446E+02 -0.28703164046E+03  0.29294219793E+03  0.47000000000E+01 0. -1.
         -5    1    4    4    0  502 -0.25240042219E+02 -0.54329714329E+02 -0.53364203253E+03  0.53701460546E+03  0.47000000000E+01 0. -1.
          5    1    5    5  503    0  0.36405007813E+02 -0.47144158271E+02 -0.10903295835E+03  0.12433089825E+03  0.47000000000E+01 0. -1.
         -5    1    5    5    0  503 -0.31871891461E+02  0.46911047154E+02 -0.22739112075E+03  0.23440408616E+03  0.47000000000E+01 0. -1.
<mgrwt>
<rscale>  0 0.27223695E+03</rscale>
<asrwt>0</asrwt>
<pdfrwt beam="1">  1        2 0.18044540E+00 0.27223695E+03</pdfrwt>
<pdfrwt beam="2">  1       -2 0.24303098E-02 0.27223695E+03</pdfrwt>
<totfact> 0.11980575E+04</totfact>
</mgrwt>
</event>
<event>
 9    1  0.7926126E-001  0.2733091E+03  0.7818608E-02  0.1099401E+00
         -1   -1    0    0    0  501 -0.00000000000E+00  0.00000000000E+00  0.36320110042E+02  0.36320110042E+02  0.00000000000E+00 0.  1.
          1   -1    0    0  501    0  0.00000000000E+00 -0.00000000000E+00 -0.51416326043E+03  0.51416326043E+03  0.00000000000E+00 0.  1.
         35    2    1    2    0    0  0.71054273576E-14 -0.35527136788E-14 -0.47784315038E+03  0.55048337047E+03  0.27330910119E+03 0.  0.
         25    2    3    3    0    0 -0.51976563132E+02  0.10751798119E+02 -0.21713809994E+03  0.25651548976E+03  0.12583353195E+03 0.  0.
         25    2    3    3    0    0  0.51976563132E+02 -0.10751798119E+02 -0.26070505044E+03  0.29396788071E+03  0.12503130521E+03 0.  0.
          5    1    4    4  502    0  0.16234484738E+02  0.10578609403E+02  0.78040155023E+01  0.21411635378E+02  0.47000000000E+01 0. -1.
         -5    1    4    4    0  502 -0.68211047870E+02  0.17318871599E+00 -0.22494211544E+03  0.23510385438E+03  0.47000000000E+01 0. -1.
          5    1    5    5  503    0 -0.17595655026E+02 -0.45668322479E+02 -0.53939059656E+02  0.72984347023E+02  0.47000000000E+01 0. -1.
         -5    1    5    5    0  503  0.69572218158E+02  0.34916524359E+02 -0.20676599079E+03  0.22098353368E+03  0.47000000000E+01 0. -1.
<mgrwt>
<rscale>  0 0.27330910E+03</rscale>
<asrwt>0</asrwt>
<pdfrwt beam="1">  1        1 0.79102031E-01 0.27330910E+03</pdfrwt>
<pdfrwt beam="2">  1       -1 0.55877099E-02 0.27330910E+03</pdfrwt>
<totfact> 0.64406918E+03</totfact>
</mgrwt>
</event>
<event>
 9    1  0.7926126E-001  0.2728328E+03  0.7818608E-02  0.1099669E+00
          2   -1    0    0  501    0  0.00000000000E+00  0.00000000000E+00  0.64793778775E+03  0.64793778775E+03  0.00000000000E+00 0. -1.
         -2   -1    0    0    0  501 -0.00000000000E+00 -0.00000000000E+00 -0.28721018449E+02  0.28721018449E+02  0.00000000000E+00 0. -1.
         35    2    1    2    0    0  0.71054273576E-14  0.00000000000E+00  0.61921676930E+03  0.67665880620E+03  0.27283279243E+03 0.  0.
         25    2    3    3    0    0 -0.26064675250E+02 -0.10123842922E+02  0.42191547245E+03  0.44073923364E+03  0.12432436079E+03 0.  0.
         25    2    3    3    0    0  0.26064675250E+02  0.10123842922E+02  0.19730129685E+03  0.23591957256E+03  0.12628690940E+03 0.  0.
          5    1    4    4  502    0 -0.58638808537E+02 -0.23296188433E+02  0.11065852321E+03  0.12747007892E+03  0.47000000000E+01 0.  1.
         -5    1    4    4    0  502  0.32574133287E+02  0.13172345511E+02  0.31125694925E+03  0.31326915472E+03  0.47000000000E+01 0.  1.
          5    1    5    5  503    0  0.26551518801E+02 -0.54740962397E+02  0.69254837662E+02  0.92303188756E+02  0.47000000000E+01 0.  1.
         -5    1    5    5    0  503 -0.48684355077E+00  0.64864805319E+02  0.12804645919E+03  0.14361638380E+03  0.47000000000E+01 0.  1.
<mgrwt>
<rscale>  0 0.27283279E+03</rscale>
<asrwt>0</asrwt>
<pdfrwt beam="1">  1        2 0.99682725E-01 0.27283279E+03</pdfrwt>
<pdfrwt beam="2">  1       -2 0.44186187E-02 0.27283279E+03</pdfrwt>
<totfact> 0.10834685E+04</totfact>
</mgrwt>
</event>
<event>
 9    1  0.7926126E-001  0.2823298E+03  0.7818608E-02  0.1094423E+00
         -1   -1    0    0    0  501 -0.00000000000E+00  0.00000000000E+00  0.11842183430E+02  0.11842183430E+02  0.00000000000E+00 0.  1.
          1   -1    0    0  501    0  0.00000000000E+00 -0.00000000000E+00 -0.16827580051E+04  0.16827580051E+04  0.00000000000E+00 0.  1.
         35    2    1    2    0    0  0.00000000000E+00  0.71054273576E-14 -0.16709158217E+04  0.16946001886E+04  0.28232979981E+03 0.  0.
         25    2    3    3    0    0  0.14466285546E+02  0.58738221201E+02 -0.98925007123E+03  0.99895280774E+03  0.12502622372E+03 0.  0.
         25    2    3    3    0    0 -0.14466285546E+02 -0.58738221201E+02 -0.68166575047E+03  0.69564738081E+03  0.12489047613E+03 0.  0.
          5    1    4    4  502    0  0.50288965488E+02  0.59997933558E+02 -0.88773595836E+03  0.89119355577E+03  0.47000000000E+01 0. -1.
         -5    1    4    4    0  502 -0.35822679943E+02 -0.12597123572E+01 -0.10151411287E+03  0.10775925197E+03  0.47000000000E+01 0. -1.
          5    1    5    5  503    0 -0.14870575182E+02  0.99948330844E+01 -0.11189594179E+02  0.21640880586E+02  0.47000000000E+01 0. -1.
         -5    1    5    5    0  503  0.40428963679E+00 -0.68733054285E+02 -0.67047615629E+03  0.67400650023E+03  0.47000000000E+01 0. -1.
<mgrwt>
<rscale>  0 0.28232980E+03</rscale>
<asrwt>0</asrwt>
<pdfrwt beam="1">  1        1 0.25888573E+00 0.28232980E+03</pdfrwt>
<pdfrwt beam="2">  1       -1 0.18218752E-02 0.28232980E+03</pdfrwt>
<totfact> 0.42648876E+03</totfact>
</mgrwt>
</event>
<event>
 8    1  0.7926126E-001  0.3550419E+03  0.7818608E-02  0.1060564E+00
         -2   -1    0    0    0  501 -0.00000000000E+00  0.00000000000E+00  0.13804518559E+02  0.13804518559E+02  0.00000000000E+00 0. -1.
          2   -1    0    0  501    0  0.00000000000E+00 -0.00000000000E+00 -0.22828534314E+04  0.22828534314E+04  0.00000000000E+00 0. -1.
         25    2    1    2    0    0 -0.86554298332E+02 -0.86179833711E+02 -0.92879382227E+03  0.94508700782E+03  0.12495150164E+03 0.  0.
         25    2    1    2    0    0  0.86554298332E+02  0.86179833711E+02 -0.13402550906E+04  0.13515709421E+04  0.12466632882E+03 0.  0.
          5    1    3    3  502    0 -0.89099066377E+02 -0.91135883360E+02 -0.49293857609E+03  0.50917081874E+03  0.47000000000E+01 0.  1.
         -5    1    3    3    0  502  0.25447680452E+01  0.49560496488E+01 -0.43585524619E+03  0.43591618908E+03  0.47000000000E+01 0.  1.
          5    1    4    4  503    0  0.11233272881E+03  0.60270449344E+02 -0.80460536767E+03  0.81465517657E+03  0.47000000000E+01 0. -1.
         -5    1    4    4    0  503 -0.25778430483E+02  0.25909384367E+02 -0.53564972288E+03  0.53691576556E+03  0.47000000000E+01 0. -1.
<mgrwt>
<rscale>  0 0.35504193E+03</rscale>
<asrwt>0</asrwt>
<pdfrwt beam="1">  1        2 0.35120765E+00 0.35504193E+03</pdfrwt>
<pdfrwt beam="2">  1       -2 0.21237755E-02 0.35504193E+03</pdfrwt>
<totfact> 0.37078413E+03</totfact>
</mgrwt>
</event>
<event>
 9    1  0.7926126E-001  0.2844659E+03  0.7818608E-02  0.1093274E+00
          2   -1    0    0  501    0  0.00000000000E+00  0.00000000000E+00  0.67017908149E+03  0.67017908149E+03  0.00000000000E+00 0.  1.
         -2   -1    0    0    0  501 -0.00000000000E+00 -0.00000000000E+00 -0.30186284536E+02  0.30186284536E+02  0.00000000000E+00 0.  1.
         35    2    1    2    0    0  0.00000000000E+00 -0.71054273576E-14  0.63999279696E+03  0.70036536603E+03  0.28446593078E+03 0.  0.
         25    2    3    3    0    0 -0.72390790222E+02 -0.19038798768E+01  0.31800777691E+03  0.34761656421E+03  0.12026752793E+03 0.  0.
         25    2    3    3    0    0  0.72390790222E+02  0.19038798768E+01  0.32198502005E+03  0.35274880182E+03  0.12455244992E+03 0.  0.
          5    1    4    4  502    0 -0.75737903566E+02 -0.44624559762E+02  0.26530481568E+03  0.27952874020E+03  0.47000000000E+01 0.  1.
         -5    1    4    4    0  502  0.33471133439E+01  0.42720679885E+02  0.52702961227E+02  0.68087824019E+02  0.47000000000E+01 0.  1.
          5    1    5    5  503    0  0.31703215553E+02 -0.60477359292E+02  0.17489735521E+03  0.18781315109E+03  0.47000000000E+01 0. -1.
         -5    1    5    5    0  503  0.40687574669E+02  0.62381239169E+02  0.14708766484E+03  0.16493565073E+03  0.47000000000E+01 0. -1.
<mgrwt>
<rscale>  0 0.28446593E+03</rscale>
<asrwt>0</asrwt>
<pdfrwt beam="1">  1        2 0.10310446E+00 0.28446593E+03</pdfrwt>
<pdfrwt beam="2">  1       -2 0.46440443E-02 0.28446593E+03</pdfrwt>
<totfact> 0.96669968E+03</totfact>
</mgrwt>
</event>
<event>
 9    1  0.7926126E-001  0.2731404E+03  0.7818608E-02  0.1099496E+00
          2   -1    0    0  501    0  0.00000000000E+00  0.00000000000E+00  0.62590747804E+02  0.62590747804E+02  0.00000000000E+00 0. -1.
         -2   -1    0    0    0  501 -0.00000000000E+00 -0.00000000000E+00 -0.29799008583E+03  0.29799008583E+03  0.00000000000E+00 0. -1.
         35    2    1    2    0    0 -0.35527136788E-14  0.00000000000E+00 -0.23539933803E+03  0.36058083364E+03  0.27314042038E+03 0.  0.
         25    2    3    3    0    0  0.70734478709E+01  0.28904662202E+02 -0.57930221481E+02  0.14104704020E+03  0.12511132573E+03 0.  0.
         25    2    3    3    0    0 -0.70734478709E+01 -0.28904662202E+02 -0.17746911655E+03  0.21953379344E+03  0.12575486461E+03 0.  0.
          5    1    4    4  502    0  0.34090364449E+02  0.11912279499E+02 -0.89059102418E+02  0.96216781668E+02  0.47000000000E+01 0. -1.
         -5    1    4    4    0  502 -0.27016916578E+02  0.16992382703E+02  0.31128880937E+02  0.44830258528E+02  0.47000000000E+01 0. -1.
          5    1    5    5  503    0  0.28946335082E+02 -0.66901735135E+02 -0.12785556597E+03  0.14725103813E+03  0.47000000000E+01 0.  1.
         -5    1    5    5    0  503 -0.36019782953E+02  0.37997072933E+02 -0.49613550577E+02  0.72282755317E+02  0.47000000000E+01 0.  1.
<mgrwt>
<rscale>  0 0.27314042E+03</rscale>
<asrwt>0</asrwt>
<pdfrwt beam="1">  1        2 0.96293458E-02 0.27314042E+03</pdfrwt>
<pdfrwt beam="2">  1       -2 0.45844629E-01 0.27314042E+03</pdfrwt>
<totfact> 0.30550409E+03</totfact>
</mgrwt>
</event>
<event>
 9    1  0.7926126E-001  0.2691884E+03  0.7818608E-02  0.1101745E+00
          1   -1    0    0  501    0  0.00000000000E+00  0.00000000000E+00  0.33285550717E+03  0.33285550717E+03  0.00000000000E+00 0.  1.
         -1   -1    0    0    0  501 -0.00000000000E+00 -0.00000000000E+00 -0.54424822161E+02  0.54424822161E+02  0.00000000000E+00 0.  1.
         35    2    1    2    0    0  0.00000000000E+00  0.35527136788E-14  0.27843068501E+03  0.38728032933E+03  0.26918842310E+03 0.  0.
         25    2    3    3    0    0 -0.33115857283E+02  0.89698913969E+01  0.83091357478E+02  0.15365164810E+03  0.12460953543E+03 0.  0.
         25    2    3    3    0    0  0.33115857283E+02 -0.89698913969E+01  0.19533932753E+03  0.23362868123E+03  0.12348193738E+03 0.  0.
          5    1    4    4  502    0 -0.62946601542E+02 -0.18535356288E+02  0.90755646577E+02  0.11209153163E+03  0.47000000000E+01 0. -1.
         -5    1    4    4    0  502  0.29830744258E+02  0.27505247685E+02 -0.76642890993E+01  0.41560116465E+02  0.47000000000E+01 0. -1.
          5    1    5    5  503    0  0.42104179386E+02 -0.21730433110E+02  0.20775304662E+03  0.21313937230E+03  0.47000000000E+01 0.  1.
         -5    1    5    5    0  503 -0.89883221021E+01  0.12760541713E+02 -0.12413719087E+02  0.20489308934E+02  0.47000000000E+01 0.  1.
<mgrwt>
<rscale>  0 0.26918842E+03</rscale>
<asrwt>0</asrwt>
<pdfrwt beam="1">  1        1 0.51208538E-01 0.26918842E+03</pdfrwt>
<pdfrwt beam="2">  1       -1 0.83730498E-02 0.26918842E+03</pdfrwt>
<totfact> 0.61134402E+03</totfact>
</mgrwt>
</event>
<event>
 9    1  0.7926126E-001  0.2730206E+03  0.7818608E-02  0.1099563E+00
         -2   -1    0    0    0  501 -0.00000000000E+00  0.00000000000E+00  0.32714418346E+02  0.32714418346E+02  0.00000000000E+00 0.  1.
          2   -1    0    0  501    0  0.00000000000E+00 -0.00000000000E+00 -0.56962823440E+03  0.56962823440E+03  0.00000000000E+00 0.  1.
         35    2    1    2    0    0  0.71054273576E-14  0.00000000000E+00 -0.53691381605E+03  0.60234265274E+03  0.27302055865E+03 0.  0.
         25    2    3    3    0    0  0.43498827080E+02 -0.32513080371E+02 -0.25549825871E+03  0.28957460053E+03  0.12499936286E+03 0.  0.
         25    2    3    3    0    0 -0.43498827080E+02  0.32513080371E+02 -0.28141555734E+03  0.31276805221E+03  0.12521936839E+03 0.  0.
          5    1    4    4  502    0  0.66769498545E+02 -0.65251710652E+02 -0.15184074876E+03  0.17830775268E+03  0.47000000000E+01 0.  1.
         -5    1    4    4    0  502 -0.23270671464E+02  0.32738630281E+02 -0.10365750995E+03  0.11126684786E+03  0.47000000000E+01 0.  1.
          5    1    5    5  503    0 -0.10222358407E+01  0.13545062115E+02  0.10073937429E+02  0.17552432570E+02  0.47000000000E+01 0. -1.
         -5    1    5    5    0  503 -0.42476591240E+02  0.18968018256E+02 -0.29148949477E+03  0.29521561964E+03  0.47000000000E+01 0. -1.
<mgrwt>
<rscale>  0 0.27302056E+03</rscale>
<asrwt>0</asrwt>
<pdfrwt beam="1">  1        2 0.87635107E-01 0.27302056E+03</pdfrwt>
<pdfrwt beam="2">  1       -2 0.50329878E-02 0.27302056E+03</pdfrwt>
<totfact> 0.10335893E+04</totfact>
</mgrwt>
</event>
<event>
 9    1  0.7926126E-001  0.2708975E+03  0.7818608E-02  0.1100767E+00
          4   -1    0    0  501    0  0.00000000000E+00  0.00000000000E+00  0.57037780319E+02  0.57037780319E+02  0.00000000000E+00 0.  1.
         -4   -1    0    0    0  501 -0.00000000000E+00 -0.00000000000E+00 -0.32165281103E+03  0.32165281103E+03  0.00000000000E+00 0.  1.
         35    2    1    2    0    0  0.00000000000E+00 -0.10658141036E-13 -0.26461503071E+03  0.37869059134E+03  0.27089748891E+03 0.  0.
         25    2    3    3    0    0 -0.81401137288E+01  0.17956933936E+02 -0.20112096935E+03  0.23743001598E+03  0.12463809709E+03 0.  0.
         25    2    3    3    0    0  0.81401137288E+01 -0.17956933936E+02 -0.63494061352E+02  0.14126057536E+03  0.12463683804E+03 0.  0.
          5    1    4    4  502    0 -0.26739941332E+02  0.67392443815E+02 -0.10566284529E+03  0.12823218325E+03  0.47000000000E+01 0. -1.
         -5    1    4    4    0  502  0.18599827604E+02 -0.49435509879E+02 -0.95458124063E+02  0.10919783273E+03  0.47000000000E+01 0. -1.
          5    1    5    5  503    0  0.31536204584E+01  0.13966652011E+02 -0.94821464295E+02  0.96011524211E+02  0.47000000000E+01 0.  1.
         -5    1    5    5    0  503  0.49864932704E+01 -0.31923585947E+02  0.31327402943E+02  0.45249051151E+02  0.47000000000E+01 0.  1.
<mgrwt>
<rscale>  0 0.27089749E+03</rscale>
<asrwt>0</asrwt>
<pdfrwt beam="1">  1        4 0.87750432E-02 0.27089749E+03</pdfrwt>
<pdfrwt beam="2">  1       -4 0.49485047E-01 0.27089749E+03</pdfrwt>
<totfact> 0.70115624E+02</totfact>
</mgrwt>
</event>
<event>
 9    1  0.7926126E-001  0.2685162E+03  0.7818608E-02  0.1102132E+00
          2   -1    0    0  501    0  0.00000000000E+00  0.00000000000E+00  0.92222059558E+03  0.92222059558E+03  0.00000000000E+00 0.  1.
         -2   -1    0    0    0  501 -0.00000000000E+00 -0.00000000000E+00 -0.19545470018E+02  0.19545470018E+02  0.00000000000E+00 0.  1.
         35    2    1    2    0    0  0.35527136788E-14  0.71054273576E-14  0.90267512556E+03  0.94176606559E+03  0.26851618201E+03 0.  0.
         25    2    3    3    0    0 -0.18534850541E+02 -0.39765881483E+02  0.37454020139E+03  0.39730479354E+03  0.12508345412E+03 0.  0.
         25    2    3    3    0    0  0.18534850541E+02  0.39765881483E+02  0.52813492416E+03  0.54446127205E+03  0.12484675660E+03 0.  0.
          5    1    4    4  502    0 -0.71174665400E+02 -0.12037231455E+02  0.18733635168E+03  0.20081764513E+03  0.47000000000E+01 0. -1.
         -5    1    4    4    0  502  0.52639814858E+02 -0.27728650029E+02  0.18720384971E+03  0.19648714841E+03  0.47000000000E+01 0. -1.
          5    1    5    5  503    0  0.24067649163E+02  0.65129822072E+02  0.50375356518E+03  0.50853799258E+03  0.47000000000E+01 0. -1.
         -5    1    5    5    0  503 -0.55327986221E+01 -0.25363940588E+02  0.24381358979E+02  0.35923279478E+02  0.47000000000E+01 0. -1.
<mgrwt>
<rscale>  0 0.26851618E+03</rscale>
<asrwt>0</asrwt>
<pdfrwt beam="1">  1        2 0.14188006E+00 0.26851618E+03</pdfrwt>
<pdfrwt beam="2">  1       -2 0.30069961E-02 0.26851618E+03</pdfrwt>
<totfact> 0.12355904E+04</totfact>
</mgrwt>
</event>
<event>
 9    1  0.7926126E-001  0.2686859E+03  0.7818608E-02  0.1102034E+00
         -2   -1    0    0    0  501 -0.00000000000E+00  0.00000000000E+00  0.13799935213E+02  0.13799935213E+02  0.00000000000E+00 0. -1.
          2   -1    0    0  501    0  0.00000000000E+00 -0.00000000000E+00 -0.13078341585E+04  0.13078341585E+04  0.00000000000E+00 0. -1.
         35    2    1    2    0    0  0.00000000000E+00  0.35527136788E-14 -0.12940342233E+04  0.13216340937E+04  0.26868588841E+03 0.  0.
         25    2    3    3    0    0 -0.78794392181E+01 -0.29544976044E+02 -0.83863935471E+03  0.84841417059E+03  0.12472227716E+03 0.  0.
         25    2    3    3    0    0  0.78794392181E+01  0.29544976044E+02 -0.45539486857E+03  0.47321992312E+03  0.12497046908E+03 0.  0.
          5    1    4    4  502    0 -0.21774905567E+02  0.20762814158E+02 -0.53746289507E+02  0.61773737138E+02  0.47000000000E+01 0. -1.
         -5    1    4    4    0  502  0.13895466349E+02 -0.50307790202E+02 -0.78489306520E+03  0.78664043345E+03  0.47000000000E+01 0. -1.
          5    1    5    5  503    0 -0.54199523889E+02  0.37236965192E+02 -0.23412668225E+03  0.24323152203E+03  0.47000000000E+01 0.  1.
         -5    1    5    5    0  503  0.62078963108E+02 -0.76919891485E+01 -0.22126818632E+03  0.22998840109E+03  0.47000000000E+01 0.  1.
<mgrwt>
<rscale>  0 0.26868589E+03</rscale>
<asrwt>0</asrwt>
<pdfrwt beam="1">  1        2 0.20120523E+00 0.26868589E+03</pdfrwt>
<pdfrwt beam="2">  1       -2 0.21230672E-02 0.26868589E+03</pdfrwt>
<totfact> 0.12277346E+04</totfact>
</mgrwt>
</event>
<event>
 9    1  0.7926126E-001  0.2758632E+03  0.7818608E-02  0.1097970E+00
          1   -1    0    0  501    0  0.00000000000E+00  0.00000000000E+00  0.77997781121E+03  0.77997781121E+03  0.00000000000E+00 0. -1.
         -1   -1    0    0    0  501 -0.00000000000E+00 -0.00000000000E+00 -0.24391888975E+02  0.24391888975E+02  0.00000000000E+00 0. -1.
         35    2    1    2    0    0  0.71054273576E-14  0.17763568394E-14  0.75558592223E+03  0.80436970018E+03  0.27586324274E+03 0.  0.
         25    2    3    3    0    0 -0.89598655359E+01 -0.13548571355E+02  0.48515321278E+03  0.50100282848E+03  0.12396108781E+03 0.  0.
         25    2    3    3    0    0  0.89598655359E+01  0.13548571355E+02  0.27043270945E+03  0.30336687171E+03  0.13650555129E+03 0.  0.
          5    1    4    4  502    0 -0.45065605226E+02  0.39709474229E+02  0.21823964438E+03  0.22640314374E+03  0.47000000000E+01 0. -1.
         -5    1    4    4    0  502  0.36105739690E+02 -0.53258045584E+02  0.26691356841E+03  0.27459968474E+03  0.47000000000E+01 0. -1.
          5    1    5    5  503    0  0.64275889201E+02 -0.14416714912E+02  0.19350217640E+03  0.20446127719E+03  0.47000000000E+01 0.  1.
         -5    1    5    5    0  503 -0.55316023665E+02  0.27965286266E+02  0.76930533054E+02  0.98905594513E+02  0.47000000000E+01 0.  1.
<mgrwt>
<rscale>  0 0.27586324E+03</rscale>
<asrwt>0</asrwt>
<pdfrwt beam="1">  1        1 0.11999657E+00 0.27586324E+03</pdfrwt>
<pdfrwt beam="2">  1       -1 0.37525989E-02 0.27586324E+03</pdfrwt>
<totfact> 0.64688883E+03</totfact>
</mgrwt>
</event>
<event>
 9    1  0.7926126E-001  0.2683023E+03  0.7818608E-02  0.1102255E+00
          1   -1    0    0  501    0  0.00000000000E+00  0.00000000000E+00  0.53208790665E+02  0.53208790665E+02  0.00000000000E+00 0.  1.
         -1   -1    0    0    0  501 -0.00000000000E+00 -0.00000000000E+00 -0.33822468600E+03  0.33822468600E+03  0.00000000000E+00 0.  1.
         35    2    1    2    0    0  0.35527136788E-14 -0.35527136788E-14 -0.28501589533E+03  0.39143347666E+03  0.26830226622E+03 0.  0.
         25    2    3    3    0    0 -0.24525509966E+02  0.11144426304E+01 -0.77688572090E+02  0.14829614863E+03  0.12390920403E+03 0.  0.
         25    2    3    3    0    0  0.24525509966E+02 -0.11144426304E+01 -0.20732732324E+03  0.24313732804E+03  0.12461299571E+03 0.  0.
          5    1    4    4  502    0  0.26771147577E+00  0.54354152715E+02 -0.70195570277E+02  0.88904182541E+02  0.47000000000E+01 0.  1.
         -5    1    4    4    0  502 -0.24793221441E+02 -0.53239710084E+02 -0.74930018123E+01  0.59391966085E+02  0.47000000000E+01 0.  1.
          5    1    5    5  503    0  0.45761020987E+02 -0.14683613527E+02 -0.17155226421E+02  0.51245207986E+02  0.47000000000E+01 0. -1.
         -5    1    5    5    0  503 -0.21235511022E+02  0.13569170896E+02 -0.19017209682E+03  0.19189212005E+03  0.47000000000E+01 0. -1.
<mgrwt>
<rscale>  0 0.26830227E+03</rscale>
<asrwt>0</asrwt>
<pdfrwt beam="1">  1        1 0.81859676E-02 0.26830227E+03</pdfrwt>
<pdfrwt beam="2">  1       -1 0.52034568E-01 0.26830227E+03</pdfrwt>
<totfact> 0.31974702E+03</totfact>
</mgrwt>
</event>
<event>
 9    1  0.7926126E-001  0.2844222E+03  0.7818608E-02  0.1093298E+00
         -1   -1    0    0    0  501 -0.00000000000E+00  0.00000000000E+00  0.10023312675E+03  0.10023312675E+03  0.00000000000E+00 0.  1.
          1   -1    0    0  501    0  0.00000000000E+00 -0.00000000000E+00 -0.20176962569E+03  0.20176962569E+03  0.00000000000E+00 0.  1.
         35    2    1    2    0    0  0.21316282073E-13 -0.35527136788E-14 -0.10153649893E+03  0.30200275244E+03  0.28442222463E+03 0.  0.
         25    2    3    3    0    0  0.56391787616E+02  0.19093397155E+02 -0.82907753999E+02  0.16222359427E+03  0.12608809357E+03 0.  0.
         25    2    3    3    0    0 -0.56391787616E+02 -0.19093397155E+02 -0.18628744933E+02  0.13977915817E+03  0.12508633577E+03 0.  0.
          5    1    4    4  502    0  0.95529800430E+02  0.26666610219E+02 -0.59604584579E+02  0.11580953058E+03  0.47000000000E+01 0. -1.
         -5    1    4    4    0  502 -0.39138012814E+02 -0.75732130636E+01 -0.23303169420E+02  0.46414063689E+02  0.47000000000E+01 0. -1.
          5    1    5    5  503    0 -0.37823861862E+02  0.14736997422E+02  0.47753137532E+02  0.62851219267E+02  0.47000000000E+01 0. -1.
         -5    1    5    5    0  503 -0.18567925754E+02 -0.33830394577E+02 -0.66381882465E+02  0.76927938901E+02  0.47000000000E+01 0. -1.
<mgrwt>
<rscale>  0 0.28442222E+03</rscale>
<asrwt>0</asrwt>
<pdfrwt beam="1">  1        1 0.31041480E-01 0.28442222E+03</pdfrwt>
<pdfrwt beam="2">  1       -1 0.15420481E-01 0.28442222E+03</pdfrwt>
<totfact> 0.44372352E+03</totfact>
</mgrwt>
</event>
<event>
 9    1  0.7926126E-001  0.2748091E+03  0.7818608E-02  0.1098558E+00
          1   -1    0    0  501    0  0.00000000000E+00  0.00000000000E+00  0.31015585169E+03  0.31015585169E+03  0.00000000000E+00 0.  1.
         -1   -1    0    0    0  501 -0.00000000000E+00 -0.00000000000E+00 -0.60872639171E+02  0.60872639171E+02  0.00000000000E+00 0.  1.
         35    2    1    2    0    0  0.00000000000E+00  0.00000000000E+00  0.24928321252E+03  0.37102849086E+03  0.27480906278E+03 0.  0.
         25    2    3    3    0    0 -0.54384697726E+02  0.17728656400E+02  0.11341217721E+03  0.17766294156E+03  0.12421673905E+03 0.  0.
         25    2    3    3    0    0  0.54384697726E+02 -0.17728656400E+02  0.13587103531E+03  0.19336554930E+03  0.12512912057E+03 0.  0.
          5    1    4    4  502    0 -0.66423200441E+02 -0.72010609114E+01  0.66927827555E+01  0.67311070234E+02  0.47000000000E+01 0. -1.
         -5    1    4    4    0  502  0.12038502715E+02  0.24929717311E+02  0.10671939446E+03  0.11035187133E+03  0.47000000000E+01 0. -1.
          5    1    5    5  503    0  0.75202718776E+02 -0.12889394360E+02  0.14926994704E+03  0.16770567220E+03  0.47000000000E+01 0.  1.
         -5    1    5    5    0  503 -0.20818021050E+02 -0.48392620398E+01 -0.13398911727E+02  0.25659877104E+02  0.47000000000E+01 0.  1.
<mgrwt>
<rscale>  0 0.27480906E+03</rscale>
<asrwt>0</asrwt>
<pdfrwt beam="1">  1        1 0.47716284E-01 0.27480906E+03</pdfrwt>
<pdfrwt beam="2">  1       -1 0.93650216E-02 0.27480906E+03</pdfrwt>
<totfact> 0.56316226E+03</totfact>
</mgrwt>
</event>
<event>
 9    1  0.7926126E-001  0.2766674E+03  0.7818608E-02  0.1097523E+00
          2   -1    0    0  501    0  0.00000000000E+00  0.00000000000E+00  0.17502374594E+04  0.17502374594E+04  0.00000000000E+00 0.  1.
         -2   -1    0    0    0  501 -0.00000000000E+00 -0.00000000000E+00 -0.10933493537E+02  0.10933493537E+02  0.00000000000E+00 0.  1.
         35    2    1    2    0    0  0.71054273576E-14 -0.71054273576E-14  0.17393039658E+04  0.17611709529E+04  0.27666738117E+03 0.  0.
         25    2    3    3    0    0  0.50029853288E+02 -0.30540356894E+02  0.79848334262E+03  0.81028498743E+03  0.12470129429E+03 0.  0.
         25    2    3    3    0    0 -0.50029853288E+02  0.30540356894E+02  0.94082062321E+03  0.95088596547E+03  0.12491987294E+03 0.  0.
          5    1    4    4  502    0 -0.15104348304E+02 -0.27939002483E+02  0.53170429135E+02  0.62112106161E+02  0.47000000000E+01 0. -1.
         -5    1    4    4    0  502  0.65134201592E+02 -0.26013544112E+01  0.74531291348E+03  0.74817288127E+03  0.47000000000E+01 0. -1.
          5    1    5    5  503    0  0.19573848290E+02 -0.12713412604E+02  0.41636312966E+02  0.47962891430E+02  0.47000000000E+01 0.  1.
         -5    1    5    5    0  503 -0.69603701578E+02  0.43253769498E+02  0.89918431024E+03  0.90292307404E+03  0.47000000000E+01 0.  1.
<mgrwt>
<rscale>  0 0.27666738E+03</rscale>
<asrwt>0</asrwt>
<pdfrwt beam="1">  1        2 0.26926708E+00 0.27666738E+03</pdfrwt>
<pdfrwt beam="2">  1       -2 0.16820773E-02 0.27666738E+03</pdfrwt>
<totfact> 0.10026275E+04</totfact>
</mgrwt>
</event>
<event>
 9    1  0.7926126E-001  0.2839657E+03  0.7818608E-02  0.1093542E+00
          2   -1    0    0  501    0  0.00000000000E+00  0.00000000000E+00  0.76579331032E+03  0.76579331032E+03  0.00000000000E+00 0.  1.
         -2   -1    0    0    0  501 -0.00000000000E+00 -0.00000000000E+00 -0.26324511993E+02  0.26324511993E+02  0.00000000000E+00 0.  1.
         35    2    1    2    0    0  0.14210854715E-13  0.00000000000E+00  0.73946879833E+03  0.79211782232E+03  0.28396573865E+03 0.  0.
         25    2    3    3    0    0 -0.44011632914E+02 -0.38526875974E+02  0.46478793743E+03  0.48485647656E+03  0.12504651966E+03 0.  0.
         25    2    3    3    0    0  0.44011632914E+02  0.38526875974E+02  0.27468086090E+03  0.30726134575E+03  0.12465398207E+03 0.  0.
          5    1    4    4  502    0 -0.64142937072E+02  0.26467165799E+02  0.21867703388E+03  0.22947017756E+03  0.47000000000E+01 0.  1.
         -5    1    4    4    0  502  0.20131304158E+02 -0.64994041773E+02  0.24611090355E+03  0.25538629901E+03  0.47000000000E+01 0.  1.
          5    1    5    5  503    0 -0.20843759284E+02  0.33482608286E+02  0.20210201202E+02  0.44565565085E+02  0.47000000000E+01 0. -1.
         -5    1    5    5    0  503  0.64855392198E+02  0.50442676876E+01  0.25447065970E+03  0.26269578067E+03  0.47000000000E+01 0. -1.
<mgrwt>
<rscale>  0 0.28396574E+03</rscale>
<asrwt>0</asrwt>
<pdfrwt beam="1">  1        2 0.11781434E+00 0.28396574E+03</pdfrwt>
<pdfrwt beam="2">  1       -2 0.40499255E-02 0.28396574E+03</pdfrwt>
<totfact> 0.10095820E+04</totfact>
</mgrwt>
</event>
<event>
 9    1  0.7926126E-001  0.2807473E+03  0.7818608E-02  0.1095281E+00
          2   -1    0    0  501    0  0.00000000000E+00  0.00000000000E+00  0.43773352365E+03  0.43773352365E+03  0.00000000000E+00 0. -1.
         -2   -1    0    0    0  501 -0.00000000000E+00 -0.00000000000E+00 -0.45015422681E+02  0.45015422681E+02  0.00000000000E+00 0. -1.
         35    2    1    2    0    0  0.00000000000E+00 -0.71054273576E-14  0.39271810096E+03  0.48274894633E+03  0.28074728557E+03 0.  0.
         25    2    3    3    0    0 -0.10386202499E+02  0.61991030409E+02  0.19160344631E+03  0.23764336427E+03  0.12574468931E+03 0.  0.
         25    2    3    3    0    0  0.10386202499E+02 -0.61991030409E+02  0.20111465465E+03  0.24510558206E+03  0.12521533846E+03 0.  0.
          5    1    4    4  502    0  0.22687033062E+02  0.25110682440E+02 -0.52774534909E+01  0.34571510773E+02  0.47000000000E+01 0. -1.
         -5    1    4    4    0  502 -0.33073235561E+02  0.36880347969E+02  0.19688089980E+03  0.20307185350E+03  0.47000000000E+01 0. -1.
          5    1    5    5  503    0  0.63542472114E+02 -0.91147728652E+01  0.81411006513E+02  0.10378134143E+03  0.47000000000E+01 0. -1.
         -5    1    5    5    0  503 -0.53156269615E+02 -0.52876257544E+02  0.11970364814E+03  0.14132424063E+03  0.47000000000E+01 0. -1.
<mgrwt>
<rscale>  0 0.28074729E+03</rscale>
<asrwt>0</asrwt>
<pdfrwt beam="1">  1        2 0.67343616E-01 0.28074729E+03</pdfrwt>
<pdfrwt beam="2">  1       -2 0.69254500E-02 0.28074729E+03</pdfrwt>
<totfact> 0.85181988E+03</totfact>
</mgrwt>
</event>
<event>
 9    1  0.7926126E-001  0.2755534E+03  0.7818608E-02  0.1098143E+00
         -2   -1    0    0    0  501 -0.00000000000E+00  0.00000000000E+00  0.19976171851E+03  0.19976171851E+03  0.00000000000E+00 0. -1.
          2   -1    0    0  501    0  0.00000000000E+00 -0.00000000000E+00 -0.95025311594E+02  0.95025311594E+02  0.00000000000E+00 0. -1.
         35    2    1    2    0    0 -0.71054273576E-14  0.00000000000E+00  0.10473640691E+03  0.29478703010E+03  0.27555340350E+03 0.  0.
         25    2    3    3    0    0  0.22157882896E+02 -0.49974100156E+02  0.74211708722E+02  0.15506972409E+03  0.12470308399E+03 0.  0.
         25    2    3    3    0    0 -0.22157882896E+02  0.49974100156E+02  0.30524698191E+02  0.13971730601E+03  0.12490310620E+03 0.  0.
          5    1    4    4  502    0  0.72353403905E+02 -0.13068332785E+02  0.39496333232E+02  0.83593341344E+02  0.47000000000E+01 0.  1.
         -5    1    4    4    0  502 -0.50195521009E+02 -0.36905767372E+02  0.34715375490E+02  0.71476382743E+02  0.47000000000E+01 0.  1.
          5    1    5    5  503    0 -0.20039411843E+02  0.28869683365E+02 -0.47188597350E+02  0.59024489532E+02  0.47000000000E+01 0.  1.
         -5    1    5    5    0  503 -0.21184710529E+01  0.21104416791E+02  0.77713295541E+02  0.80692816481E+02  0.47000000000E+01 0.  1.
<mgrwt>
<rscale>  0 0.27555340E+03</rscale>
<asrwt>0</asrwt>
<pdfrwt beam="1">  1        2 0.14619279E-01 0.27555340E+03</pdfrwt>
<pdfrwt beam="2">  1       -2 0.30732572E-01 0.27555340E+03</pdfrwt>
<totfact> 0.39110380E+03</totfact>
</mgrwt>
</event>
<event>
 9    1  0.7926126E-001  0.2736064E+03  0.7818608E-02  0.1099233E+00
          2   -1    0    0  501    0  0.00000000000E+00  0.00000000000E+00  0.97986301000E+02  0.97986301000E+02  0.00000000000E+00 0.  1.
         -2   -1    0    0    0  501 -0.00000000000E+00 -0.00000000000E+00 -0.19099732307E+03  0.19099732307E+03  0.00000000000E+00 0.  1.
         35    2    1    2    0    0  0.00000000000E+00 -0.35527136788E-14 -0.93011022071E+02  0.28898362407E+03  0.27360644136E+03 0.  0.
         25    2    3    3    0    0  0.45225621562E+01 -0.13504865377E+02 -0.10481963810E+03  0.16361472998E+03  0.12481902251E+03 0.  0.
         25    2    3    3    0    0 -0.45225621562E+01  0.13504865377E+02  0.11808616025E+02  0.12536889409E+03  0.12399629525E+03 0.  0.
          5    1    4    4  502    0  0.41083261765E+02  0.25466390378E+02 -0.31555649635E+01  0.48666405521E+02  0.47000000000E+01 0. -1.
         -5    1    4    4    0  502 -0.36560699608E+02 -0.38971255755E+02 -0.10166407313E+03  0.11494832446E+03  0.47000000000E+01 0. -1.
          5    1    5    5  503    0  0.38541549930E+02 -0.38405400472E+02  0.17931605767E+02  0.57480938943E+02  0.47000000000E+01 0.  1.
         -5    1    5    5    0  503 -0.43064112086E+02  0.51910265849E+02 -0.61229897422E+01  0.67887955144E+02  0.47000000000E+01 0.  1.
<mgrwt>
<rscale>  0 0.27360644E+03</rscale>
<asrwt>0</asrwt>
<pdfrwt beam="1">  1        2 0.15074816E-01 0.27360644E+03</pdfrwt>
<pdfrwt beam="2">  1       -2 0.29384203E-01 0.27360644E+03</pdfrwt>
<totfact> 0.40904687E+03</totfact>
</mgrwt>
</event>
<event>
 9    1  0.7926126E-001  0.2725712E+03  0.7818608E-02  0.1099817E+00
         -1   -1    0    0    0  501 -0.00000000000E+00  0.00000000000E+00  0.38067312633E+02  0.38067312633E+02  0.00000000000E+00 0.  1.
          1   -1    0    0  501    0  0.00000000000E+00 -0.00000000000E+00 -0.48791888577E+03  0.48791888577E+03  0.00000000000E+00 0.  1.
         35    2    1    2    0    0  0.00000000000E+00  0.35527136788E-14 -0.44985157313E+03  0.52598619840E+03  0.27257117063E+03 0.  0.
         25    2    3    3    0    0 -0.47345372869E+02 -0.29182627032E+02 -0.23632779656E+03  0.27300884135E+03  0.12485908048E+03 0.  0.
         25    2    3    3    0    0  0.47345372869E+02  0.29182627032E+02 -0.21352377658E+03  0.25297735705E+03  0.12374138338E+03 0.  0.
          5    1    4    4  502    0 -0.67280216950E+02  0.36401095861E+01 -0.22151156655E+03  0.23158009868E+03  0.47000000000E+01 0. -1.
         -5    1    4    4    0  502  0.19934844081E+02 -0.32822736618E+02 -0.14816230007E+02  0.41428742670E+02  0.47000000000E+01 0. -1.
          5    1    5    5  503    0  0.32806943090E+02  0.64221724986E+02 -0.57539383845E+02  0.92377465696E+02  0.47000000000E+01 0. -1.
         -5    1    5    5    0  503  0.14538429779E+02 -0.35039097955E+02 -0.15598439273E+03  0.16059989135E+03  0.47000000000E+01 0. -1.
<mgrwt>
<rscale>  0 0.27257117E+03</rscale>
<asrwt>0</asrwt>
<pdfrwt beam="1">  1        1 0.75064444E-01 0.27257117E+03</pdfrwt>
<pdfrwt beam="2">  1       -1 0.58565096E-02 0.27257117E+03</pdfrwt>
<totfact> 0.64330661E+03</totfact>
</mgrwt>
</event>
<event>
 9    1  0.7926126E-001  0.2735838E+03  0.7818608E-02  0.1099246E+00
          2   -1    0    0  501    0  0.00000000000E+00  0.00000000000E+00  0.16222564201E+03  0.16222564201E+03  0.00000000000E+00 0.  1.
         -2   -1    0    0    0  501 -0.00000000000E+00 -0.00000000000E+00 -0.11534569358E+03  0.11534569358E+03  0.00000000000E+00 0.  1.
         35    2    1    2    0    0  0.00000000000E+00  0.35527136788E-14  0.46879948427E+02  0.27757133559E+03  0.27358383866E+03 0.  0.
         25    2    3    3    0    0 -0.37846496742E+02 -0.24611097539E+02  0.54006504377E+02  0.14433246639E+03  0.12600434477E+03 0.  0.
         25    2    3    3    0    0  0.37846496742E+02  0.24611097539E+02 -0.71265559508E+01  0.13323886920E+03  0.12515488416E+03 0.  0.
          5    1    4    4  502    0  0.26939978964E+02 -0.21108315131E+02  0.69366318036E+02  0.77492577142E+02  0.47000000000E+01 0.  1.
         -5    1    4    4    0  502 -0.64786475706E+02 -0.35027824081E+01 -0.15359813659E+02  0.66839889248E+02  0.47000000000E+01 0.  1.
          5    1    5    5  503    0  0.70281804670E+02  0.52580821854E+02  0.62555913361E+01  0.88122059200E+02  0.47000000000E+01 0.  1.
         -5    1    5    5    0  503 -0.32435307928E+02 -0.27969724315E+02 -0.13382147287E+02  0.45116810001E+02  0.47000000000E+01 0.  1.
<mgrwt>
<rscale>  0 0.27358384E+03</rscale>
<asrwt>0</asrwt>
<pdfrwt beam="1">  1        2 0.24957791E-01 0.27358384E+03</pdfrwt>
<pdfrwt beam="2">  1       -2 0.17745491E-01 0.27358384E+03</pdfrwt>
<totfact> 0.55184965E+03</totfact>
</mgrwt>
</event>
<event>
 9    1  0.7926126E-001  0.2788167E+03  0.7818608E-02  0.1096337E+00
         -2   -1    0    0    0  501 -0.00000000000E+00  0.00000000000E+00  0.14291619065E+02  0.14291619065E+02  0.00000000000E+00 0.  1.
          2   -1    0    0  501    0  0.00000000000E+00 -0.00000000000E+00 -0.13598665599E+04  0.13598665599E+04  0.00000000000E+00 0.  1.
         35    2    1    2    0    0  0.00000000000E+00  0.35527136788E-14 -0.13455749409E+04  0.13741581790E+04  0.27881674881E+03 0.  0.
         25    2    3    3    0    0 -0.37553945987E+02  0.13685167738E+02 -0.43140817146E+03  0.45059575546E+03  0.12379798770E+03 0.  0.
         25    2    3    3    0    0  0.37553945987E+02 -0.13685167738E+02 -0.91416676940E+03  0.92356242353E+03  0.12517621663E+03 0.  0.
          5    1    4    4  502    0  0.75643995553E+01  0.44031513168E+02 -0.58723208558E+02  0.73935779673E+02  0.47000000000E+01 0. -1.
         -5    1    4    4    0  502 -0.45118345542E+02 -0.30346345430E+02 -0.37268496290E+03  0.37665997579E+03  0.47000000000E+01 0. -1.
          5    1    5    5  503    0  0.21711497107E+02 -0.30465486688E+02 -0.73874095046E+02  0.82939778784E+02  0.47000000000E+01 0.  1.
         -5    1    5    5    0  503  0.15842448880E+02  0.16780318951E+02 -0.84029267435E+03  0.84062264475E+03  0.47000000000E+01 0.  1.
<mgrwt>
<rscale>  0 0.27881675E+03</rscale>
<asrwt>0</asrwt>
<pdfrwt beam="1">  1        2 0.20921038E+00 0.27881675E+03</pdfrwt>
<pdfrwt beam="2">  1       -2 0.21987092E-02 0.27881675E+03</pdfrwt>
<totfact> 0.10926744E+04</totfact>
</mgrwt>
</event>
<event>
 9    1  0.7926126E-001  0.2720969E+03  0.7818608E-02  0.1100085E+00
          2   -1    0    0  501    0  0.00000000000E+00  0.00000000000E+00  0.37633381405E+02  0.37633381405E+02  0.00000000000E+00 0. -1.
         -2   -1    0    0    0  501 -0.00000000000E+00 -0.00000000000E+00 -0.49182889447E+03  0.49182889447E+03  0.00000000000E+00 0. -1.
         35    2    1    2    0    0 -0.35527136788E-14  0.00000000000E+00 -0.45419551306E+03  0.52946227587E+03  0.27209692664E+03 0.  0.
         25    2    3    3    0    0  0.30716286024E+02 -0.34782958794E+02 -0.27698652958E+03  0.30748655621E+03  0.12519225307E+03 0.  0.
         25    2    3    3    0    0 -0.30716286024E+02  0.34782958794E+02 -0.17720898348E+03  0.22197571967E+03  0.12536686901E+03 0.  0.
          5    1    4    4  502    0  0.60916961594E+02 -0.56543527327E+02 -0.24299501853E+03  0.25685933061E+03  0.47000000000E+01 0. -1.
         -5    1    4    4    0  502 -0.30200675570E+02  0.21760568532E+02 -0.33991511050E+02  0.50627225593E+02  0.47000000000E+01 0. -1.
          5    1    5    5  503    0  0.17635970269E+02  0.68066210661E+02 -0.68149359563E+02  0.98032962263E+02  0.47000000000E+01 0.  1.
         -5    1    5    5    0  503 -0.48352256293E+02 -0.33283251867E+02 -0.10905962392E+03  0.12394275740E+03  0.47000000000E+01 0.  1.
<mgrwt>
<rscale>  0 0.27209693E+03</rscale>
<asrwt>0</asrwt>
<pdfrwt beam="1">  1        2 0.57897511E-02 0.27209693E+03</pdfrwt>
<pdfrwt beam="2">  1       -2 0.75665983E-01 0.27209693E+03</pdfrwt>
<totfact> 0.20799528E+03</totfact>
</mgrwt>
</event>
<event>
 9    1  0.7926126E-001  0.2710160E+03  0.7818608E-02  0.1100700E+00
          2   -1    0    0  501    0  0.00000000000E+00  0.00000000000E+00  0.25021806506E+04  0.25021806506E+04  0.00000000000E+00 0. -1.
         -2   -1    0    0    0  501 -0.00000000000E+00 -0.00000000000E+00 -0.73385664939E+01  0.73385664939E+01  0.00000000000E+00 0. -1.
         35    2    1    2    0    0  0.00000000000E+00 -0.71054273576E-14  0.24948420841E+04  0.25095192171E+04  0.27101600753E+03 0.  0.
         25    2    3    3    0    0  0.39705920710E+02 -0.31674654352E+02  0.13654667357E+04  0.13721464310E+04  0.12532588697E+03 0.  0.
         25    2    3    3    0    0 -0.39705920710E+02  0.31674654352E+02  0.11293753484E+04  0.11373727861E+04  0.12469295523E+03 0.  0.
          5    1    4    4  502    0  0.47776232967E+02 -0.66524347756E+02  0.11995589057E+04  0.12023608924E+04  0.47000000000E+01 0.  1.
         -5    1    4    4    0  502 -0.80703122576E+01  0.34849693404E+02  0.16590783000E+03  0.16978553862E+03  0.47000000000E+01 0.  1.
          5    1    5    5  503    0 -0.64207780143E+01  0.51630473679E+02  0.10179355852E+04  0.10192751727E+04  0.47000000000E+01 0.  1.
         -5    1    5    5    0  503 -0.33285142695E+02 -0.19955819328E+02  0.11143976321E+03  0.11809761332E+03  0.47000000000E+01 0.  1.
<mgrwt>
<rscale>  0 0.27101601E+03</rscale>
<asrwt>0</asrwt>
<pdfrwt beam="1">  1        2 0.38495019E+00 0.27101601E+03</pdfrwt>
<pdfrwt beam="2">  1       -2 0.11290122E-02 0.27101601E+03</pdfrwt>
<totfact> 0.71470284E+03</totfact>
</mgrwt>
</event>
<event>
 9    1  0.7926126E-001  0.2853411E+03  0.7818608E-02  0.1092807E+00
          1   -1    0    0  501    0  0.00000000000E+00  0.00000000000E+00  0.17113165574E+03  0.17113165574E+03  0.00000000000E+00 0. -1.
         -1   -1    0    0    0  501 -0.00000000000E+00 -0.00000000000E+00 -0.11894281249E+03  0.11894281249E+03  0.00000000000E+00 0. -1.
         35    2    1    2    0    0 -0.35527136788E-14  0.00000000000E+00  0.52188843245E+02  0.29007446823E+03  0.28534106217E+03 0.  0.
         25    2    3    3    0    0  0.11220976185E+02 -0.19086131861E+02 -0.41911142707E+02  0.13159524997E+03  0.12276227106E+03 0.  0.
         25    2    3    3    0    0 -0.11220976185E+02  0.19086131861E+02  0.94099985952E+02  0.15847921826E+03  0.12558130645E+03 0.  0.
          5    1    4    4  502    0  0.29853145696E+02  0.62559611472E+01  0.36014968678E+02  0.47429055723E+02  0.47000000000E+01 0.  1.
         -5    1    4    4    0  502 -0.18632169512E+02 -0.25342093009E+02 -0.77926111385E+02  0.84166194249E+02  0.47000000000E+01 0.  1.
          5    1    5    5  503    0 -0.36417298916E+02 -0.26820671179E+02 -0.55503917680E+01  0.45809004700E+02  0.47000000000E+01 0.  1.
         -5    1    5    5    0  503  0.25196322731E+02  0.45906803041E+02  0.99650377720E+02  0.11267021356E+03  0.47000000000E+01 0.  1.
<mgrwt>
<rscale>  0 0.28534106E+03</rscale>
<asrwt>0</asrwt>
<pdfrwt beam="1">  1        1 0.26327947E-01 0.28534106E+03</pdfrwt>
<pdfrwt beam="2">  1       -1 0.18298894E-01 0.28534106E+03</pdfrwt>
<totfact> 0.41551532E+03</totfact>
</mgrwt>
</event>
<event>
 9    1  0.7926126E-001  0.2754194E+03  0.7818608E-02  0.1098217E+00
         -2   -1    0    0    0  501 -0.00000000000E+00  0.00000000000E+00  0.10993148985E+02  0.10993148985E+02  0.00000000000E+00 0.  1.
          2   -1    0    0  501    0  0.00000000000E+00 -0.00000000000E+00 -0.17250715064E+04  0.17250715064E+04  0.00000000000E+00 0.  1.
         35    2    1    2    0    0  0.00000000000E+00  0.71054273576E-14 -0.17140783574E+04  0.17360646554E+04  0.27541944796E+03 0.  0.
         25    2    3    3    0    0 -0.32675590848E+01 -0.55724428938E+02 -0.76146446198E+03  0.77361338153E+03  0.12463405752E+03 0.  0.
         25    2    3    3    0    0  0.32675590848E+01  0.55724428938E+02 -0.95261389546E+03  0.96245127388E+03  0.12539271053E+03 0.  0.
          5    1    4    4  502    0 -0.56729228292E+02 -0.55681447216E+02 -0.36881299796E+03  0.37731120627E+03  0.47000000000E+01 0. -1.
         -5    1    4    4    0  502  0.53461669207E+02 -0.42981722152E-01 -0.39265146402E+03  0.39630217526E+03  0.47000000000E+01 0. -1.
          5    1    5    5  503    0 -0.58791199979E+02  0.32464050754E+02 -0.58714226440E+03  0.59098938098E+03  0.47000000000E+01 0. -1.
         -5    1    5    5    0  503  0.62058759063E+02  0.23260378184E+02 -0.36547163106E+03  0.37146189290E+03  0.47000000000E+01 0. -1.
<mgrwt>
<rscale>  0 0.27541945E+03</rscale>
<asrwt>0</asrwt>
<pdfrwt beam="1">  1        2 0.26539543E+00 0.27541945E+03</pdfrwt>
<pdfrwt beam="2">  1       -2 0.16912549E-02 0.27541945E+03</pdfrwt>
<totfact> 0.10253688E+04</totfact>
</mgrwt>
</event>
<event>
 9    1  0.7926126E-001  0.2747135E+03  0.7818608E-02  0.1098612E+00
         -1   -1    0    0    0  501 -0.00000000000E+00  0.00000000000E+00  0.16330486459E+03  0.16330486459E+03  0.00000000000E+00 0.  1.
          1   -1    0    0  501    0  0.00000000000E+00 -0.00000000000E+00 -0.11553162502E+03  0.11553162502E+03  0.00000000000E+00 0.  1.
         35    2    1    2    0    0 -0.14210854715E-13  0.00000000000E+00  0.47773239568E+02  0.27883648962E+03  0.27471349716E+03 0.  0.
         25    2    3    3    0    0  0.43322527391E+02  0.33416170765E+02  0.24673681790E+02  0.13914314376E+03  0.12553303164E+03 0.  0.
         25    2    3    3    0    0 -0.43322527391E+02 -0.33416170765E+02  0.23099557778E+02  0.13969334586E+03  0.12644033953E+03 0.  0.
          5    1    4    4  502    0  0.71090191883E+02 -0.13920103902E+02  0.38756881458E+02  0.82290768224E+02  0.47000000000E+01 0.  1.
         -5    1    4    4    0  502 -0.27767664492E+02  0.47336274667E+02 -0.14083199668E+02  0.56852375531E+02  0.47000000000E+01 0.  1.
          5    1    5    5  503    0 -0.39384844855E+02 -0.20627602516E+02 -0.48931084794E+02  0.66279748407E+02  0.47000000000E+01 0. -1.
         -5    1    5    5    0  503 -0.39376825355E+01 -0.12788568248E+02  0.72030642571E+02  0.73413597452E+02  0.47000000000E+01 0. -1.
<mgrwt>
<rscale>  0 0.27471350E+03</rscale>
<asrwt>0</asrwt>
<pdfrwt beam="1">  1        1 0.17774096E-01 0.27471350E+03</pdfrwt>
<pdfrwt beam="2">  1       -1 0.25123825E-01 0.27471350E+03</pdfrwt>
<totfact> 0.40895926E+03</totfact>
</mgrwt>
</event>
<event>
 9    1  0.7926126E-001  0.2744063E+03  0.7818608E-02  0.1098784E+00
          1   -1    0    0  501    0  0.00000000000E+00  0.00000000000E+00  0.58838198493E+03  0.58838198493E+03  0.00000000000E+00 0. -1.
         -1   -1    0    0    0  501 -0.00000000000E+00 -0.00000000000E+00 -0.31994011699E+02  0.31994011699E+02  0.00000000000E+00 0. -1.
         35    2    1    2    0    0  0.71054273576E-14  0.00000000000E+00  0.55638797323E+03  0.62037599663E+03  0.27440626895E+03 0.  0.
         25    2    3    3    0    0  0.50810532772E+02 -0.10049714487E+02  0.25990176557E+03  0.29430005358E+03  0.12798783845E+03 0.  0.
         25    2    3    3    0    0 -0.50810532772E+02  0.10049714487E+02  0.29648620766E+03  0.32607594305E+03  0.12545414421E+03 0.  0.
          5    1    4    4  502    0  0.65176604232E+02 -0.12522098259E+02  0.48478724114E+02  0.82322957769E+02  0.47000000000E+01 0. -1.
         -5    1    4    4    0  502 -0.14366071460E+02  0.24723837721E+01  0.21142304146E+03  0.21197709582E+03  0.47000000000E+01 0. -1.
          5    1    5    5  503    0 -0.92058873548E+02 -0.28513707458E+01  0.20463187084E+03  0.22445324474E+03  0.47000000000E+01 0. -1.
         -5    1    5    5    0  503  0.41248340776E+02  0.12901085233E+02  0.91854336824E+02  0.10162269830E+03  0.47000000000E+01 0. -1.
<mgrwt>
<rscale>  0 0.27440627E+03</rscale>
<asrwt>0</asrwt>
<pdfrwt beam="1">  1        1 0.90520298E-01 0.27440627E+03</pdfrwt>
<pdfrwt beam="2">  1       -1 0.49221561E-02 0.27440627E+03</pdfrwt>
<totfact> 0.64882570E+03</totfact>
</mgrwt>
</event>
<event>
 9    1  0.7926126E-001  0.2590038E+03  0.7818608E-02  0.1107743E+00
          1   -1    0    0  501    0  0.00000000000E+00  0.00000000000E+00  0.10386351416E+04  0.10386351416E+04  0.00000000000E+00 0. -1.
         -1   -1    0    0    0  501 -0.00000000000E+00 -0.00000000000E+00 -0.16146903375E+02  0.16146903375E+02  0.00000000000E+00 0. -1.
         35    2    1    2    0    0 -0.35527136788E-14 -0.35527136788E-14  0.10224882382E+04  0.10547820449E+04  0.25900379359E+03 0.  0.
         25    2    3    3    0    0  0.21757359451E+02 -0.13490419183E+02  0.41228839276E+03  0.43233708793E+03  0.12758630295E+03 0.  0.
         25    2    3    3    0    0 -0.21757359451E+02  0.13490419183E+02  0.61019984542E+03  0.62244495699E+03  0.12016030558E+03 0.  0.
          5    1    4    4  502    0  0.51857056965E+02  0.20631037946E+02  0.35319597902E+03  0.35760912136E+03  0.47000000000E+01 0.  1.
         -5    1    4    4    0  502 -0.30099697514E+02 -0.34121457129E+02  0.59092413741E+02  0.74727966577E+02  0.47000000000E+01 0.  1.
          5    1    5    5  503    0  0.17690112497E+02 -0.29851012198E+02  0.62846163496E+02  0.71942708286E+02  0.47000000000E+01 0. -1.
         -5    1    5    5    0  503 -0.39447471948E+02  0.43341431381E+02  0.54735368192E+03  0.55050224870E+03  0.47000000000E+01 0. -1.
<mgrwt>
<rscale>  0 0.25900379E+03</rscale>
<asrwt>0</asrwt>
<pdfrwt beam="1">  1        1 0.15978997E+00 0.25900379E+03</pdfrwt>
<pdfrwt beam="2">  1       -1 0.24841398E-02 0.25900379E+03</pdfrwt>
<totfact> 0.74391011E+03</totfact>
</mgrwt>
</event>
<event>
 9    1  0.7926126E-001  0.2976306E+03  0.7818608E-02  0.1086431E+00
          1   -1    0    0  501    0  0.00000000000E+00  0.00000000000E+00  0.22084889666E+03  0.22084889666E+03  0.00000000000E+00 0. -1.
         -1   -1    0    0    0  501 -0.00000000000E+00 -0.00000000000E+00 -0.10027668873E+03  0.10027668873E+03  0.00000000000E+00 0. -1.
         35    2    1    2    0    0  0.00000000000E+00 -0.71054273576E-14  0.12057220792E+03  0.32112558539E+03  0.29763061716E+03 0.  0.
         25    2    3    3    0    0 -0.43670510958E+02 -0.25232559561E+02 -0.77385678258E+01  0.13504110997E+03  0.12502967791E+03 0.  0.
         25    2    3    3    0    0  0.43670510958E+02  0.25232559561E+02  0.12831077575E+03  0.18608447542E+03  0.12497992331E+03 0.  0.
          5    1    4    4  502    0 -0.62324231542E+02 -0.63188405848E+02  0.89639195696E+01  0.89328194457E+02  0.47000000000E+01 0. -1.
         -5    1    4    4    0  502  0.18653720584E+02  0.37955846288E+02 -0.16702487395E+02  0.45712915508E+02  0.47000000000E+01 0. -1.
          5    1    5    5  503    0  0.54422690050E+02 -0.39941088205E+02  0.75464229037E+02  0.10136103582E+03  0.47000000000E+01 0. -1.
         -5    1    5    5    0  503 -0.10752179092E+02  0.65173647765E+02  0.52846546712E+02  0.84723439600E+02  0.47000000000E+01 0. -1.
<mgrwt>
<rscale>  0 0.29763062E+03</rscale>
<asrwt>0</asrwt>
<pdfrwt beam="1">  1        1 0.33976753E-01 0.29763062E+03</pdfrwt>
<pdfrwt beam="2">  1       -1 0.15427183E-01 0.29763062E+03</pdfrwt>
<totfact> 0.39613380E+03</totfact>
</mgrwt>
</event>
<event>
 9    1  0.7926126E-001  0.2709871E+03  0.7818608E-02  0.1100716E+00
         -2   -1    0    0    0  501 -0.00000000000E+00  0.00000000000E+00  0.52831528210E+03  0.52831528210E+03  0.00000000000E+00 0.  1.
          2   -1    0    0  501    0  0.00000000000E+00 -0.00000000000E+00 -0.34749132513E+02  0.34749132513E+02  0.00000000000E+00 0.  1.
         35    2    1    2    0    0 -0.35527136788E-14 -0.71054273576E-14  0.49356614958E+03  0.56306441461E+03  0.27098706793E+03 0.  0.
         25    2    3    3    0    0  0.92832991397E+00  0.52299617689E+02  0.20902969342E+03  0.24770557730E+03  0.12218235751E+03 0.  0.
         25    2    3    3    0    0 -0.92832991397E+00 -0.52299617689E+02  0.28453645616E+03  0.31535883731E+03  0.12551529620E+03 0.  0.
          5    1    4    4  502    0  0.12640776122E+02 -0.37927931428E+02  0.47577607227E+02  0.62322033928E+02  0.47000000000E+01 0. -1.
         -5    1    4    4    0  502 -0.11712446208E+02  0.90227549117E+02  0.16145208620E+03  0.18538354337E+03  0.47000000000E+01 0. -1.
          5    1    5    5  503    0 -0.48202458725E+02  0.17484595120E+02  0.10299790648E+03  0.11515140830E+03  0.47000000000E+01 0.  1.
         -5    1    5    5    0  503  0.47274128811E+02 -0.69784212809E+02  0.18153854968E+03  0.20020742901E+03  0.47000000000E+01 0.  1.
<mgrwt>
<rscale>  0 0.27098707E+03</rscale>
<asrwt>0</asrwt>
<pdfrwt beam="1">  1        2 0.53460208E-02 0.27098707E+03</pdfrwt>
<pdfrwt beam="2">  1       -2 0.81279268E-01 0.27098707E+03</pdfrwt>
<totfact> 0.19731766E+03</totfact>
</mgrwt>
</event>
<event>
 9    1  0.7926126E-001  0.2653400E+03  0.7818608E-02  0.1103977E+00
          2   -1    0    0  501    0  0.00000000000E+00  0.00000000000E+00  0.15496166226E+03  0.15496166226E+03  0.00000000000E+00 0. -1.
         -2   -1    0    0    0  501 -0.00000000000E+00 -0.00000000000E+00 -0.11358504527E+03  0.11358504527E+03  0.00000000000E+00 0. -1.
         35    2    1    2    0    0  0.44408920985E-15  0.00000000000E+00  0.41376616983E+02  0.26854670753E+03  0.26533998887E+03 0.  0.
         25    2    3    3    0    0  0.37947049818E+01 -0.20574671672E+02 -0.19616785459E+02  0.12889667379E+03  0.12566549782E+03 0.  0.
         25    2    3    3    0    0 -0.37947049818E+01  0.20574671672E+02  0.60993402442E+02  0.13965003374E+03  0.12387178808E+03 0.  0.
          5    1    4    4  502    0  0.32450694165E+01  0.52924387866E+02 -0.25433458668E+01  0.53292400159E+02  0.47000000000E+01 0.  1.
         -5    1    4    4    0  502  0.54963556532E+00 -0.73499059538E+02 -0.17073439593E+02  0.75604273634E+02  0.47000000000E+01 0.  1.
          5    1    5    5  503    0 -0.12134394239E+01  0.65914925507E+02  0.66384926548E+02  0.93676562237E+02  0.47000000000E+01 0.  1.
         -5    1    5    5    0  503 -0.25812655580E+01 -0.45340253835E+02 -0.53915241061E+01  0.45973471501E+02  0.47000000000E+01 0.  1.
<mgrwt>
<rscale>  0 0.26533999E+03</rscale>
<asrwt>0</asrwt>
<pdfrwt beam="1">  1        2 0.23840256E-01 0.26533999E+03</pdfrwt>
<pdfrwt beam="2">  1       -2 0.17474622E-01 0.26533999E+03</pdfrwt>
<totfact> 0.59544766E+03</totfact>
</mgrwt>
</event>
<event>
 9    1  0.7926126E-001  0.2765665E+03  0.7818608E-02  0.1097579E+00
         -2   -1    0    0    0  501 -0.00000000000E+00  0.00000000000E+00  0.70636591624E+01  0.70636591624E+01  0.00000000000E+00 0. -1.
          2   -1    0    0  501    0  0.00000000000E+00 -0.00000000000E+00 -0.27071311628E+04  0.27071311628E+04  0.00000000000E+00 0. -1.
         35    2    1    2    0    0  0.14210854715E-13  0.00000000000E+00 -0.27000675036E+04  0.27141948220E+04  0.27656646103E+03 0.  0.
         25    2    3    3    0    0  0.43566964017E+02 -0.20859725574E+02 -0.17016365713E+04  0.17068929949E+04  0.12483375690E+03 0.  0.
         25    2    3    3    0    0 -0.43566964017E+02  0.20859725574E+02 -0.99843093237E+03  0.10073018271E+04  0.12433597864E+03 0.  0.
          5    1    4    4  502    0 -0.23900820881E+02 -0.40245938298E+02 -0.11245597686E+04  0.11255433123E+04  0.47000000000E+01 0.  1.
         -5    1    4    4    0  502  0.67467784898E+02  0.19386212724E+02 -0.57707680272E+03  0.58134968262E+03  0.47000000000E+01 0.  1.
          5    1    5    5  503    0  0.16107644473E+02 -0.36955795175E+02 -0.17351149816E+03  0.17819516548E+03  0.47000000000E+01 0.  1.
         -5    1    5    5    0  503 -0.59674608490E+02  0.57815520749E+02 -0.82491943421E+03  0.82910666158E+03  0.47000000000E+01 0.  1.
<mgrwt>
<rscale>  0 0.27656646E+03</rscale>
<asrwt>0</asrwt>
<pdfrwt beam="1">  1        2 0.41648222E+00 0.27656646E+03</pdfrwt>
<pdfrwt beam="2">  1       -2 0.10867155E-02 0.27656646E+03</pdfrwt>
<totfact> 0.58115797E+03</totfact>
</mgrwt>
</event>
<event>
 9    1  0.7926126E-001  0.2774527E+03  0.7818608E-02  0.1097088E+00
         -2   -1    0    0    0  501 -0.00000000000E+00  0.00000000000E+00  0.87715005298E+02  0.87715005298E+02  0.00000000000E+00 0. -1.
          2   -1    0    0  501    0  0.00000000000E+00 -0.00000000000E+00 -0.21940376772E+03  0.21940376772E+03  0.00000000000E+00 0. -1.
         35    2    1    2    0    0 -0.71054273576E-14 -0.71054273576E-14 -0.13168876243E+03  0.30711877302E+03  0.27745271776E+03 0.  0.
         25    2    3    3    0    0 -0.25385398520E+02 -0.51981845413E+02 -0.46856523786E+02  0.14427565556E+03  0.12358559890E+03 0.  0.
         25    2    3    3    0    0  0.25385398520E+02  0.51981845413E+02 -0.84832238641E+02  0.16284311746E+03  0.12639161951E+03 0.  0.
          5    1    4    4  502    0  0.39272385073E+02 -0.59208825045E+02 -0.23210742044E+02  0.74892147377E+02  0.47000000000E+01 0. -1.
         -5    1    4    4    0  502 -0.64657783593E+02  0.72269796318E+01 -0.23645781742E+02  0.69383508184E+02  0.47000000000E+01 0. -1.
          5    1    5    5  503    0  0.72242257037E+02  0.26312203095E+02 -0.76507918125E+02  0.10856715557E+03  0.47000000000E+01 0. -1.
         -5    1    5    5    0  503 -0.46856858517E+02  0.25669642318E+02 -0.83243205164E+01  0.54275961888E+02  0.47000000000E+01 0. -1.
<mgrwt>
<rscale>  0 0.27745272E+03</rscale>
<asrwt>0</asrwt>
<pdfrwt beam="1">  1        2 0.33754425E-01 0.27745272E+03</pdfrwt>
<pdfrwt beam="2">  1       -2 0.13494616E-01 0.27745272E+03</pdfrwt>
<totfact> 0.62345983E+03</totfact>
</mgrwt>
</event>
<event>
 9    1  0.7926126E-001  0.2775061E+03  0.7818608E-02  0.1097059E+00
         -2   -1    0    0    0  501 -0.00000000000E+00  0.00000000000E+00  0.52037668660E+02  0.52037668660E+02  0.00000000000E+00 0. -1.
          2   -1    0    0  501    0  0.00000000000E+00 -0.00000000000E+00 -0.36997074386E+03  0.36997074386E+03  0.00000000000E+00 0. -1.
         35    2    1    2    0    0  0.00000000000E+00  0.35527136788E-14 -0.31793307520E+03  0.42200841252E+03  0.27750614395E+03 0.  0.
         25    2    3    3    0    0  0.47923870797E+01  0.43989386889E+01 -0.82769181125E+02  0.15374866666E+03  0.12940478167E+03 0.  0.
         25    2    3    3    0    0 -0.47923870797E+01 -0.43989386889E+01 -0.23516389407E+03  0.26825974586E+03  0.12891437677E+03 0.  0.
          5    1    4    4  502    0 -0.47199025708E+02 -0.11774208208E+02  0.62725318094E+01  0.49272859284E+02  0.47000000000E+01 0.  1.
         -5    1    4    4    0  502  0.51991412788E+02  0.16173146897E+02 -0.89041712934E+02  0.10447580737E+03  0.47000000000E+01 0.  1.
          5    1    5    5  503    0 -0.62802646666E+02  0.18961154967E+02 -0.13320630163E+03  0.14855876487E+03  0.47000000000E+01 0. -1.
         -5    1    5    5    0  503  0.58010259586E+02 -0.23360093656E+02 -0.10195759244E+03  0.11970098099E+03  0.47000000000E+01 0. -1.
<mgrwt>
<rscale>  0 0.27750614E+03</rscale>
<asrwt>0</asrwt>
<pdfrwt beam="1">  1        2 0.56918575E-01 0.27750614E+03</pdfrwt>
<pdfrwt beam="2">  1       -2 0.80057954E-02 0.27750614E+03</pdfrwt>
<totfact> 0.81612351E+03</totfact>
</mgrwt>
</event>
<event>
 8    1  0.7926126E-001  0.3704512E+03  0.7818608E-02  0.1054521E+00
          2   -1    0    0  501    0  0.00000000000E+00  0.00000000000E+00  0.89164312748E+03  0.89164312748E+03  0.00000000000E+00 0. -1.
         -2   -1    0    0    0  501 -0.00000000000E+00 -0.00000000000E+00 -0.38477861682E+02  0.38477861682E+02  0.00000000000E+00 0. -1.
         25    2    1    2    0    0 -0.42331781760E+02 -0.13010081925E+03  0.40098863070E+03  0.44167152230E+03  0.12475435362E+03 0.  0.
         25    2    1    2    0    0  0.42331781760E+02  0.13010081925E+03  0.45217663510E+03  0.48844946686E+03  0.12410064233E+03 0.  0.
          5    1    3    3  502    0 -0.33672382948E+02 -0.72633013153E+01  0.21989158443E+03  0.22262296337E+03  0.47000000000E+01 0.  1.
         -5    1    3    3    0  502 -0.86593988118E+01 -0.12283751794E+03  0.18109704627E+03  0.21904855893E+03  0.47000000000E+01 0.  1.
          5    1    4    4  503    0  0.45335818095E+02  0.13676791710E+03  0.27009469820E+03  0.30616014689E+03  0.47000000000E+01 0.  1.
         -5    1    4    4    0  503 -0.30040363345E+01 -0.66670978481E+01  0.18208193690E+03  0.18228931996E+03  0.47000000000E+01 0.  1.
<mgrwt>
<rscale>  0 0.37045119E+03</rscale>
<asrwt>0</asrwt>
<pdfrwt beam="1">  1        2 0.13717585E+00 0.37045119E+03</pdfrwt>
<pdfrwt beam="2">  1       -2 0.59196717E-02 0.37045119E+03</pdfrwt>
<totfact> 0.46705978E+03</totfact>
</mgrwt>
</event>
<event>
 9    1  0.7926126E-001  0.3096264E+03  0.7818608E-02  0.1080525E+00
          3   -1    0    0  501    0  0.00000000000E+00  0.00000000000E+00  0.80855350248E+02  0.80855350248E+02  0.00000000000E+00 0. -1.
         -3   -1    0    0    0  501 -0.00000000000E+00 -0.00000000000E+00 -0.29641980250E+03  0.29641980250E+03  0.00000000000E+00 0. -1.
         35    2    1    2    0    0  0.00000000000E+00  0.00000000000E+00 -0.21556445225E+03  0.37727515275E+03  0.30962640037E+03 0.  0.
         25    2    3    3    0    0  0.52407050256E+02 -0.25759827983E+02 -0.19215924291E+03  0.23672025769E+03  0.12530458138E+03 0.  0.
         25    2    3    3    0    0 -0.52407050256E+02  0.25759827983E+02 -0.23405209347E+02  0.14055489506E+03  0.12568932749E+03 0.  0.
          5    1    4    4  502    0  0.48950848702E+02  0.42742079678E+02 -0.64248897343E+02  0.91504545098E+02  0.47000000000E+01 0. -1.
         -5    1    4    4    0  502  0.34562015546E+01 -0.68501907661E+02 -0.12791034556E+03  0.14521571260E+03  0.47000000000E+01 0. -1.
          5    1    5    5  503    0 -0.12093965216E+02  0.64519960438E+02 -0.45747480879E+02  0.80149930108E+02  0.47000000000E+01 0.  1.
         -5    1    5    5    0  503 -0.40313085040E+02 -0.38760132454E+02  0.22342271532E+02  0.60404964949E+02  0.47000000000E+01 0.  1.
<mgrwt>
<rscale>  0 0.30962640E+03</rscale>
<asrwt>0</asrwt>
<pdfrwt beam="1">  1        3 0.12439285E-01 0.30962640E+03</pdfrwt>
<pdfrwt beam="2">  1       -3 0.45603047E-01 0.30962640E+03</pdfrwt>
<totfact> 0.63052988E+02</totfact>
</mgrwt>
</event>
<event>
 9    1  0.7926126E-001  0.2784505E+03  0.7818608E-02  0.1096538E+00
         -2   -1    0    0    0  501 -0.00000000000E+00  0.00000000000E+00  0.17481027977E+03  0.17481027977E+03  0.00000000000E+00 0. -1.
          2   -1    0    0  501    0  0.00000000000E+00 -0.00000000000E+00 -0.11088402498E+03  0.11088402498E+03  0.00000000000E+00 0. -1.
         35    2    1    2    0    0  0.00000000000E+00 -0.71054273576E-14  0.63926254792E+02  0.28569430474E+03  0.27845047982E+03 0.  0.
         25    2    3    3    0    0 -0.38251849938E+02 -0.13571288145E+02  0.81096197751E+02  0.15314099888E+03  0.12340254602E+03 0.  0.
         25    2    3    3    0    0  0.38251849938E+02  0.13571288145E+02 -0.17169942958E+02  0.13255330586E+03  0.12501275162E+03 0.  0.
          5    1    4    4  502    0  0.25265709400E+02 -0.42165501276E+02  0.46286138342E+01  0.49596367159E+02  0.47000000000E+01 0.  1.
         -5    1    4    4    0  502 -0.63517559338E+02  0.28594213132E+02  0.76467583917E+02  0.10354463172E+03  0.47000000000E+01 0.  1.
          5    1    5    5  503    0  0.27447867569E+02 -0.50134512000E+02 -0.32582867894E+02  0.65958987317E+02  0.47000000000E+01 0.  1.
         -5    1    5    5    0  503  0.10803982369E+02  0.63705800145E+02  0.15412924936E+02  0.66594318543E+02  0.47000000000E+01 0.  1.
<mgrwt>
<rscale>  0 0.27845048E+03</rscale>
<asrwt>0</asrwt>
<pdfrwt beam="1">  1        2 0.17059081E-01 0.27845048E+03</pdfrwt>
<pdfrwt beam="2">  1       -2 0.26893889E-01 0.27845048E+03</pdfrwt>
<totfact> 0.41493897E+03</totfact>
</mgrwt>
</event>
<event>
 9    1  0.7926126E-001  0.2744366E+03  0.7818608E-02  0.1098767E+00
          2   -1    0    0  501    0  0.00000000000E+00  0.00000000000E+00  0.47427920147E+04  0.47427920147E+04  0.00000000000E+00 0. -1.
         -2   -1    0    0    0  501 -0.00000000000E+00 -0.00000000000E+00 -0.39699940594E+01  0.39699940594E+01  0.00000000000E+00 0. -1.
         35    2    1    2    0    0 -0.71054273576E-14 -0.71054273576E-14  0.47388220207E+04  0.47467620088E+04  0.27443655823E+03 0.  0.
         25    2    3    3    0    0  0.33392346866E+02  0.43660925903E+02  0.23934709681E+04  0.23974204588E+04  0.12609621708E+03 0.  0.
         25    2    3    3    0    0 -0.33392346866E+02 -0.43660925903E+02  0.23453510526E+04  0.23493415500E+04  0.12535084096E+03 0.  0.
          5    1    4    4  502    0  0.81358995212E+02  0.20730689127E+02  0.14209255036E+04  0.14234115442E+04  0.47000000000E+01 0. -1.
         -5    1    4    4    0  502 -0.47966648346E+02  0.22930236777E+02  0.97254546450E+03  0.97400891456E+03  0.47000000000E+01 0. -1.
          5    1    5    5  503    0  0.38918019127E+02 -0.32437001848E+02  0.51134079850E+03  0.51386600736E+03  0.47000000000E+01 0. -1.
         -5    1    5    5    0  503 -0.72310365993E+02 -0.11223924056E+02  0.18340102541E+04  0.18354755426E+04  0.47000000000E+01 0. -1.
<mgrwt>
<rscale>  0 0.27443656E+03</rscale>
<asrwt>0</asrwt>
<pdfrwt beam="1">  1        2 0.72965578E+00 0.27443656E+03</pdfrwt>
<pdfrwt beam="2">  1       -2 0.61077211E-03 0.27443656E+03</pdfrwt>
<totfact> 0.42697892E+02</totfact>
</mgrwt>
</event>
<event>
 9    1  0.7926126E-001  0.2747029E+03  0.7818608E-02  0.1098618E+00
         -2   -1    0    0    0  501 -0.00000000000E+00  0.00000000000E+00  0.71042417665E+01  0.71042417665E+01  0.00000000000E+00 0. -1.
          2   -1    0    0  501    0  0.00000000000E+00 -0.00000000000E+00 -0.26555145151E+04  0.26555145151E+04  0.00000000000E+00 0. -1.
         35    2    1    2    0    0 -0.71054273576E-14 -0.35527136788E-14 -0.26484102733E+04  0.26626187569E+04  0.27470287315E+03 0.  0.
         25    2    3    3    0    0 -0.47353879346E+02  0.19993248102E+02 -0.10906965880E+04  0.10990719407E+04  0.12529151560E+03 0.  0.
         25    2    3    3    0    0  0.47353879346E+02 -0.19993248102E+02 -0.15577136853E+04  0.15635468162E+04  0.12475817022E+03 0.  0.
          5    1    4    4  502    0  0.32057678464E+02  0.13246098484E+02 -0.66709092610E+03  0.66800864333E+03  0.47000000000E+01 0.  1.
         -5    1    4    4    0  502 -0.79411557810E+02  0.67471496173E+01 -0.42360566189E+03  0.43106329736E+03  0.47000000000E+01 0.  1.
          5    1    5    5  503    0 -0.28945866937E+02 -0.40432867283E+02 -0.39532285817E+03  0.39846572269E+03  0.47000000000E+01 0. -1.
         -5    1    5    5    0  503  0.76299746283E+02  0.20439619182E+02 -0.11623908272E+04  0.11650810935E+04  0.47000000000E+01 0. -1.
<mgrwt>
<rscale>  0 0.27470287E+03</rscale>
<asrwt>0</asrwt>
<pdfrwt beam="1">  1        2 0.40854183E+00 0.27470287E+03</pdfrwt>
<pdfrwt beam="2">  1       -2 0.10929572E-02 0.27470287E+03</pdfrwt>
<totfact> 0.61617351E+03</totfact>
</mgrwt>
</event>
<event>
 9    1  0.7926126E-001  0.2795244E+03  0.7818608E-02  0.1095949E+00
         -4   -1    0    0    0  501 -0.00000000000E+00  0.00000000000E+00  0.58698054406E+03  0.58698054406E+03  0.00000000000E+00 0.  1.
          4   -1    0    0  501    0  0.00000000000E+00 -0.00000000000E+00 -0.33277894694E+02  0.33277894694E+02  0.00000000000E+00 0.  1.
         35    2    1    2    0    0 -0.10658141036E-13  0.00000000000E+00  0.55370264937E+03  0.62025843875E+03  0.27952442993E+03 0.  0.
         25    2    3    3    0    0 -0.13046730003E+02  0.41376493506E+02  0.19277703682E+03  0.23411001841E+03  0.12554793273E+03 0.  0.
         25    2    3    3    0    0  0.13046730003E+02 -0.41376493506E+02  0.36092561254E+03  0.38614842035E+03  0.13023468573E+03 0.  0.
          5    1    4    4  502    0 -0.26893271253E+02  0.17727729304E+02  0.20216092378E+03  0.20476486400E+03  0.47000000000E+01 0.  1.
         -5    1    4    4    0  502  0.13846541250E+02  0.23648764202E+02 -0.93838869569E+01  0.29345154409E+02  0.47000000000E+01 0.  1.
          5    1    5    5  503    0 -0.51232731617E+02  0.98419247687E+01  0.17809569776E+03  0.18563896098E+03  0.47000000000E+01 0.  1.
         -5    1    5    5    0  503  0.64279461620E+02 -0.51218418275E+02  0.18282991478E+03  0.20050945937E+03  0.47000000000E+01 0.  1.
<mgrwt>
<rscale>  0 0.27952443E+03</rscale>
<asrwt>0</asrwt>
<pdfrwt beam="1">  1        4 0.51196766E-02 0.27952443E+03</pdfrwt>
<pdfrwt beam="2">  1       -4 0.90304691E-01 0.27952443E+03</pdfrwt>
<totfact> 0.46611471E+02</totfact>
</mgrwt>
</event>
<event>
 9    1  0.7926126E-001  0.2829931E+03  0.7818608E-02  0.1094065E+00
         -1   -1    0    0    0  501 -0.00000000000E+00  0.00000000000E+00  0.95447804490E+01  0.95447804490E+01  0.00000000000E+00 0. -1.
          1   -1    0    0  501    0  0.00000000000E+00 -0.00000000000E+00 -0.20976152981E+04  0.20976152981E+04  0.00000000000E+00 0. -1.
         35    2    1    2    0    0  0.00000000000E+00  0.17763568394E-14 -0.20880705176E+04  0.21071600785E+04  0.28299312703E+03 0.  0.
         25    2    3    3    0    0 -0.65543735022E+02  0.64735704304E+01 -0.96717612293E+03  0.97743337703E+03  0.12493384430E+03 0.  0.
         25    2    3    3    0    0  0.65543735022E+02 -0.64735704304E+01 -0.11208943947E+04  0.11297267015E+04  0.12466069025E+03 0.  0.
          5    1    4    4  502    0 -0.59429099110E+02 -0.15693657501E+02 -0.18689288333E+03  0.19679722697E+03  0.47000000000E+01 0. -1.
         -5    1    4    4    0  502 -0.61146359123E+01  0.22167227932E+02 -0.78028323961E+03  0.78063615006E+03  0.47000000000E+01 0. -1.
          5    1    5    5  503    0  0.19069810599E+02 -0.46061706616E+02 -0.17980330902E+03  0.18664581009E+03  0.47000000000E+01 0. -1.
         -5    1    5    5    0  503  0.46473924422E+02  0.39588136186E+02 -0.94109108569E+03  0.94308089141E+03  0.47000000000E+01 0. -1.
<mgrwt>
<rscale>  0 0.28299313E+03</rscale>
<asrwt>0</asrwt>
<pdfrwt beam="1">  1        1 0.32271029E+00 0.28299313E+03</pdfrwt>
<pdfrwt beam="2">  1       -1 0.14684267E-02 0.28299313E+03</pdfrwt>
<totfact> 0.31377224E+03</totfact>
</mgrwt>
</event>
<event>
 9    1  0.7926126E-001  0.2782200E+03  0.7818608E-02  0.1096665E+00
         -3   -1    0    0    0  501 -0.00000000000E+00  0.00000000000E+00  0.13381650095E+03  0.13381650095E+03  0.00000000000E+00 0. -1.
          3   -1    0    0  501    0  0.00000000000E+00 -0.00000000000E+00 -0.14461286887E+03  0.14461286887E+03  0.00000000000E+00 0. -1.
         35    2    1    2    0    0  0.00000000000E+00  0.00000000000E+00 -0.10796367916E+02  0.27842936982E+03  0.27821997128E+03 0.  0.
         25    2    3    3    0    0 -0.37725886659E+02 -0.30874767039E+02 -0.41487355583E+02  0.14076906420E+03  0.12537238531E+03 0.  0.
         25    2    3    3    0    0  0.37725886659E+02  0.30874767039E+02  0.30690987667E+02  0.13766030561E+03  0.12502771394E+03 0.  0.
          5    1    4    4  502    0  0.64303406322E+01 -0.23891252771E+02  0.40254146300E+02  0.47482918338E+02  0.47000000000E+01 0.  1.
         -5    1    4    4    0  502 -0.44156227291E+02 -0.69835142686E+01 -0.81741501883E+02  0.93286145864E+02  0.47000000000E+01 0.  1.
          5    1    5    5  503    0  0.32100876462E+02  0.26016688400E+01 -0.45568744262E+02  0.55998530374E+02  0.47000000000E+01 0.  1.
         -5    1    5    5    0  503  0.56250101970E+01  0.28273098199E+02  0.76259731930E+02  0.81661775241E+02  0.47000000000E+01 0.  1.
<mgrwt>
<rscale>  0 0.27821997E+03</rscale>
<asrwt>0</asrwt>
<pdfrwt beam="1">  1        3 0.22248134E-01 0.27821997E+03</pdfrwt>
<pdfrwt beam="2">  1       -3 0.20587154E-01 0.27821997E+03</pdfrwt>
<totfact> 0.10070153E+03</totfact>
</mgrwt>
</event>
<event>
 9    1  0.7926126E-001  0.2749643E+03  0.7818608E-02  0.1098472E+00
         -1   -1    0    0    0  501 -0.00000000000E+00  0.00000000000E+00  0.26036925607E+02  0.26036925607E+02  0.00000000000E+00 0.  1.
          1   -1    0    0  501    0  0.00000000000E+00 -0.00000000000E+00 -0.72594387908E+03  0.72594387908E+03  0.00000000000E+00 0.  1.
         35    2    1    2    0    0 -0.71054273576E-14  0.35527136788E-14 -0.69990695347E+03  0.75198080469E+03  0.27496433787E+03 0.  0.
         25    2    3    3    0    0 -0.43574826698E+02 -0.61812910849E+01 -0.45364823638E+03  0.47272741018E+03  0.12544922513E+03 0.  0.
         25    2    3    3    0    0  0.43574826698E+02  0.61812910849E+01 -0.24625871709E+03  0.27925339451E+03  0.12410531301E+03 0.  0.
          5    1    4    4  502    0 -0.73313632743E+02  0.51205659280E+01 -0.41912755836E+03  0.42554801035E+03  0.47000000000E+01 0.  1.
         -5    1    4    4    0  502  0.29738806046E+02 -0.11301857013E+02 -0.34520678022E+02  0.47179399827E+02  0.47000000000E+01 0.  1.
          5    1    5    5  503    0  0.64216367089E+02 -0.41607265642E+02 -0.11757424140E+03  0.14035917711E+03  0.47000000000E+01 0. -1.
         -5    1    5    5    0  503 -0.20641540391E+02  0.47788556727E+02 -0.12868447569E+03  0.13889421740E+03  0.47000000000E+01 0. -1.
<mgrwt>
<rscale>  0 0.27496434E+03</rscale>
<asrwt>0</asrwt>
<pdfrwt beam="1">  1        1 0.11168367E+00 0.27496434E+03</pdfrwt>
<pdfrwt beam="2">  1       -1 0.40056809E-02 0.27496434E+03</pdfrwt>
<totfact> 0.65381932E+03</totfact>
</mgrwt>
</event>
<event>
 9    1  0.7926126E-001  0.2669110E+03  0.7818608E-02  0.1103061E+00
          1   -1    0    0  501    0  0.00000000000E+00  0.00000000000E+00  0.24012427328E+03  0.24012427328E+03  0.00000000000E+00 0.  1.
         -1   -1    0    0    0  501 -0.00000000000E+00 -0.00000000000E+00 -0.74171496057E+02  0.74171496057E+02  0.00000000000E+00 0.  1.
         35    2    1    2    0    0  0.14210854715E-13  0.00000000000E+00  0.16595277722E+03  0.31429576934E+03  0.26691104577E+03 0.  0.
         25    2    3    3    0    0  0.46236777720E+02  0.80776719524E+01  0.90291165730E+02  0.16085807250E+03  0.12457823438E+03 0.  0.
         25    2    3    3    0    0 -0.46236777720E+02 -0.80776719524E+01  0.75661611494E+02  0.15343769684E+03  0.12496142989E+03 0.  0.
          5    1    4    4  502    0 -0.17614472742E+02 -0.45571816400E+02  0.40326261253E+02  0.63524463371E+02  0.47000000000E+01 0.  1.
         -5    1    4    4    0  502  0.63851250461E+02  0.53649488352E+02  0.49964904477E+02  0.97333609125E+02  0.47000000000E+01 0.  1.
          5    1    5    5  503    0 -0.60122219994E+02 -0.32593641497E+02 -0.41428755268E+01  0.68675179072E+02  0.47000000000E+01 0.  1.
         -5    1    5    5    0  503  0.13885442274E+02  0.24515969544E+02  0.79804487021E+02  0.84762517769E+02  0.47000000000E+01 0.  1.
<mgrwt>
<rscale>  0 0.26691105E+03</rscale>
<asrwt>0</asrwt>
<pdfrwt beam="1">  1        1 0.36942196E-01 0.26691105E+03</pdfrwt>
<pdfrwt beam="2">  1       -1 0.11410999E-01 0.26691105E+03</pdfrwt>
<totfact> 0.57134231E+03</totfact>
</mgrwt>
</event>
<event>
 9    1  0.7926126E-001  0.2761881E+03  0.7818608E-02  0.1097789E+00
         -1   -1    0    0    0  501 -0.00000000000E+00  0.00000000000E+00  0.17343995379E+02  0.17343995379E+02  0.00000000000E+00 0. -1.
          1   -1    0    0  501    0  0.00000000000E+00 -0.00000000000E+00 -0.10995144386E+04  0.10995144386E+04  0.00000000000E+00 0. -1.
         35    2    1    2    0    0  0.00000000000E+00  0.00000000000E+00 -0.10821704432E+04  0.11168584340E+04  0.27618814849E+03 0.  0.
         25    2    3    3    0    0  0.35929048534E+02  0.44281765315E+02 -0.44027735005E+03  0.46042526906E+03  0.12204717183E+03 0.  0.
         25    2    3    3    0    0 -0.35929048534E+02 -0.44281765315E+02 -0.64189309316E+03  0.65643316491E+03  0.12500394265E+03 0.  0.
          5    1    4    4  502    0 -0.14929525755E+02  0.32365841098E+02 -0.37485762083E+03  0.37657770022E+03  0.47000000000E+01 0.  1.
         -5    1    4    4    0  502  0.50858574289E+02  0.11915924216E+02 -0.65419729217E+02  0.83847568834E+02  0.47000000000E+01 0.  1.
          5    1    5    5  503    0 -0.30270501597E+02  0.29411116626E+02 -0.42760109004E+03  0.42970466515E+03  0.47000000000E+01 0. -1.
         -5    1    5    5    0  503 -0.56585469367E+01 -0.73692881941E+02 -0.21429200313E+03  0.22672849977E+03  0.47000000000E+01 0. -1.
<mgrwt>
<rscale>  0 0.27618815E+03</rscale>
<asrwt>0</asrwt>
<pdfrwt beam="1">  1        1 0.16915606E+00 0.27618815E+03</pdfrwt>
<pdfrwt beam="2">  1       -1 0.26683072E-02 0.27618815E+03</pdfrwt>
<totfact> 0.60557979E+03</totfact>
</mgrwt>
</event>
<event>
 9    1  0.7926126E-001  0.2829469E+03  0.7818608E-02  0.1094090E+00
         -1   -1    0    0    0  501 -0.00000000000E+00  0.00000000000E+00  0.32230795728E+02  0.32230795728E+02  0.00000000000E+00 0.  1.
          1   -1    0    0  501    0  0.00000000000E+00 -0.00000000000E+00 -0.62098200012E+03  0.62098200012E+03  0.00000000000E+00 0.  1.
         35    2    1    2    0    0 -0.71054273576E-14  0.00000000000E+00 -0.58875120439E+03  0.65321279584E+03  0.28294694906E+03 0.  0.
         25    2    3    3    0    0  0.44676641266E+02 -0.47631447346E+02 -0.26256696383E+03  0.29796159646E+03  0.12479962108E+03 0.  0.
         25    2    3    3    0    0 -0.44676641266E+02  0.47631447346E+02 -0.32618424056E+03  0.35525119938E+03  0.12466955851E+03 0.  0.
          5    1    4    4  502    0  0.87295902056E+02 -0.30167965653E+02 -0.19776312302E+03  0.21831862837E+03  0.47000000000E+01 0. -1.
         -5    1    4    4    0  502 -0.42619260790E+02 -0.17463481692E+02 -0.64803840804E+02  0.79642968090E+02  0.47000000000E+01 0. -1.
          5    1    5    5  503    0 -0.42416498719E+02  0.60548685530E+02 -0.81360499110E+02  0.11003146595E+03  0.47000000000E+01 0. -1.
         -5    1    5    5    0  503 -0.22601425467E+01 -0.12917238185E+02 -0.24482374145E+03  0.24521973343E+03  0.47000000000E+01 0. -1.
<mgrwt>
<rscale>  0 0.28294695E+03</rscale>
<asrwt>0</asrwt>
<pdfrwt beam="1">  1        1 0.95535689E-01 0.28294695E+03</pdfrwt>
<pdfrwt beam="2">  1       -1 0.49585841E-02 0.28294695E+03</pdfrwt>
<totfact> 0.59578188E+03</totfact>
</mgrwt>
</event>
<event>
 9    1  0.7926126E-001  0.2767492E+03  0.7818608E-02  0.1097478E+00
          2   -1    0    0  501    0  0.00000000000E+00  0.00000000000E+00  0.38770182217E+03  0.38770182217E+03  0.00000000000E+00 0. -1.
         -2   -1    0    0    0  501 -0.00000000000E+00 -0.00000000000E+00 -0.49387244601E+02  0.49387244601E+02  0.00000000000E+00 0. -1.
         35    2    1    2    0    0  0.00000000000E+00  0.00000000000E+00  0.33831457757E+03  0.43708906677E+03  0.27674916241E+03 0.  0.
         25    2    3    3    0    0  0.33114117085E+02 -0.14283881125E+02  0.95148108776E+02  0.16110938541E+03  0.12490995738E+03 0.  0.
         25    2    3    3    0    0 -0.33114117085E+02  0.14283881125E+02  0.24316646879E+03  0.27597968137E+03  0.12543635426E+03 0.  0.
          5    1    4    4  502    0 -0.20112453275E+02  0.15165475969E+02  0.96740898594E+02  0.10007693990E+03  0.47000000000E+01 0.  1.
         -5    1    4    4    0  502  0.53226570361E+02 -0.29449357094E+02 -0.15927898185E+01  0.61032445511E+02  0.47000000000E+01 0.  1.
          5    1    5    5  503    0 -0.74425560485E+02 -0.60150562695E+01  0.19651405020E+03  0.21027412318E+03  0.47000000000E+01 0. -1.
         -5    1    5    5    0  503  0.41311443400E+02  0.20298937394E+02  0.46652418597E+02  0.65705558183E+02  0.47000000000E+01 0. -1.
<mgrwt>
<rscale>  0 0.27674916E+03</rscale>
<asrwt>0</asrwt>
<pdfrwt beam="1">  1        2 0.59646432E-01 0.27674916E+03</pdfrwt>
<pdfrwt beam="2">  1       -2 0.75980379E-02 0.27674916E+03</pdfrwt>
<totfact> 0.84160593E+03</totfact>
</mgrwt>
</event>
<event>
 9    1  0.7926126E-001  0.2709289E+03  0.7818608E-02  0.1100749E+00
         -2   -1    0    0    0  501 -0.00000000000E+00  0.00000000000E+00  0.24431994064E+02  0.24431994064E+02  0.00000000000E+00 0. -1.
          2   -1    0    0  501    0  0.00000000000E+00 -0.00000000000E+00 -0.75108983676E+03  0.75108983676E+03  0.00000000000E+00 0. -1.
         35    2    1    2    0    0 -0.35527136788E-14  0.14210854715E-13 -0.72665784269E+03  0.77552183082E+03  0.27092893853E+03 0.  0.
         25    2    3    3    0    0  0.22846166028E+02 -0.48777098235E+02 -0.38763590525E+03  0.41067794609E+03  0.12447340180E+03 0.  0.
         25    2    3    3    0    0 -0.22846166028E+02  0.48777098235E+02 -0.33902193745E+03  0.36484388473E+03  0.12358816100E+03 0.  0.
          5    1    4    4  502    0  0.25103939152E+02 -0.90237212327E+02 -0.27366929656E+03  0.28929212939E+03  0.47000000000E+01 0. -1.
         -5    1    4    4    0  502 -0.22577731247E+01  0.41460114092E+02 -0.11396660869E+03  0.12138581670E+03  0.47000000000E+01 0. -1.
          5    1    5    5  503    0 -0.39056262557E+02  0.80295620243E+02 -0.29432345612E+03  0.30760553489E+03  0.47000000000E+01 0.  1.
         -5    1    5    5    0  503  0.16210096529E+02 -0.31518522007E+02 -0.44698481329E+02  0.57238349838E+02  0.47000000000E+01 0.  1.
<mgrwt>
<rscale>  0 0.27092894E+03</rscale>
<asrwt>0</asrwt>
<pdfrwt beam="1">  1        2 0.11555229E+00 0.27092894E+03</pdfrwt>
<pdfrwt beam="2">  1       -2 0.37587681E-02 0.27092894E+03</pdfrwt>
<totfact> 0.11551470E+04</totfact>
</mgrwt>
</event>
<event>
 9    1  0.7926126E-001  0.2710572E+03  0.7818608E-02  0.1100676E+00
          2   -1    0    0  501    0  0.00000000000E+00  0.00000000000E+00  0.11030563787E+04  0.11030563787E+04  0.00000000000E+00 0.  1.
         -2   -1    0    0    0  501 -0.00000000000E+00 -0.00000000000E+00 -0.16651913812E+02  0.16651913812E+02  0.00000000000E+00 0.  1.
         35    2    1    2    0    0  0.35527136788E-14  0.00000000000E+00  0.10864044649E+04  0.11197082925E+04  0.27105718768E+03 0.  0.
         25    2    3    3    0    0  0.17734818331E+01  0.33087431361E+02  0.41559255619E+03  0.43656563921E+03  0.12951625853E+03 0.  0.
         25    2    3    3    0    0 -0.17734818331E+01 -0.33087431361E+02  0.67081190873E+03  0.68314265334E+03  0.12488932926E+03 0.  0.
          5    1    4    4  502    0  0.33019140121E+02 -0.27653748586E+01  0.36660339667E+03  0.36812776500E+03  0.47000000000E+01 0.  1.
         -5    1    4    4    0  502 -0.31245658288E+02  0.35852806219E+02  0.48989159522E+02  0.68437874209E+02  0.47000000000E+01 0.  1.
          5    1    5    5  503    0 -0.52141271256E+02 -0.51522153543E+02  0.44349034713E+03  0.44953200384E+03  0.47000000000E+01 0.  1.
         -5    1    5    5    0  503  0.50367789422E+02  0.18434722182E+02  0.22732156160E+03  0.23361064950E+03  0.47000000000E+01 0.  1.
<mgrwt>
<rscale>  0 0.27105719E+03</rscale>
<asrwt>0</asrwt>
<pdfrwt beam="1">  1        2 0.16970092E+00 0.27105719E+03</pdfrwt>
<pdfrwt beam="2">  1       -2 0.25618338E-02 0.27105719E+03</pdfrwt>
<totfact> 0.12162370E+04</totfact>
</mgrwt>
</event>
<event>
 9    1  0.7926126E-001  0.2754092E+03  0.7818608E-02  0.1098223E+00
          2   -1    0    0  501    0  0.00000000000E+00  0.00000000000E+00  0.48100741280E+03  0.48100741280E+03  0.00000000000E+00 0.  1.
         -2   -1    0    0    0  501 -0.00000000000E+00 -0.00000000000E+00 -0.39422593065E+02  0.39422593065E+02  0.00000000000E+00 0.  1.
         35    2    1    2    0    0  0.00000000000E+00  0.00000000000E+00  0.44158481974E+03  0.52043000587E+03  0.27540921913E+03 0.  0.
         25    2    3    3    0    0 -0.92064081831E+01 -0.10336972264E+02  0.32612030971E+03  0.34938093982E+03  0.12458320016E+03 0.  0.
         25    2    3    3    0    0  0.92064081831E+01  0.10336972264E+02  0.11546451003E+03  0.17104906604E+03  0.12543571648E+03 0.  0.
          5    1    4    4  502    0  0.70564657999E+01 -0.48882636283E+02  0.51341085827E+02  0.71395398545E+02  0.47000000000E+01 0.  1.
         -5    1    4    4    0  502 -0.16262873983E+02  0.38545664018E+02  0.27477922388E+03  0.27798554128E+03  0.47000000000E+01 0.  1.
          5    1    5    5  503    0 -0.46170332291E+02 -0.20323451133E+02  0.16134070412E+02  0.53170861172E+02  0.47000000000E+01 0. -1.
         -5    1    5    5    0  503  0.55376740474E+02  0.30660423397E+02  0.99330439620E+02  0.11787820487E+03  0.47000000000E+01 0. -1.
<mgrwt>
<rscale>  0 0.27540922E+03</rscale>
<asrwt>0</asrwt>
<pdfrwt beam="1">  1        2 0.74001136E-01 0.27540922E+03</pdfrwt>
<pdfrwt beam="2">  1       -2 0.60650147E-02 0.27540922E+03</pdfrwt>
<totfact> 0.94110359E+03</totfact>
</mgrwt>
</event>
<event>
 9    1  0.7926126E-001  0.2756090E+03  0.7818608E-02  0.1098112E+00
         -4   -1    0    0    0  501 -0.00000000000E+00  0.00000000000E+00  0.23001927987E+02  0.23001927987E+02  0.00000000000E+00 0.  1.
          4   -1    0    0  501    0  0.00000000000E+00 -0.00000000000E+00 -0.82558642460E+03  0.82558642460E+03  0.00000000000E+00 0.  1.
         35    2    1    2    0    0 -0.35527136788E-14 -0.71054273576E-14 -0.80258449661E+03  0.84858835259E+03  0.27560899467E+03 0.  0.
         25    2    3    3    0    0 -0.26174855904E+02 -0.30401265593E+02 -0.29396922647E+03  0.32256980123E+03  0.12658598075E+03 0.  0.
         25    2    3    3    0    0  0.26174855904E+02  0.30401265593E+02 -0.50861527014E+03  0.52601855136E+03  0.12804945653E+03 0.  0.
          5    1    4    4  502    0 -0.41562299758E+00  0.48590736274E+02 -0.92561741807E+02  0.10464701831E+03  0.47000000000E+01 0. -1.
         -5    1    4    4    0  502 -0.25759232907E+02 -0.78992001866E+02 -0.20140748466E+03  0.21792278292E+03  0.47000000000E+01 0. -1.
          5    1    5    5  503    0 -0.75045554946E+01  0.73594640121E+02 -0.21822592751E+03  0.23047154889E+03  0.47000000000E+01 0. -1.
         -5    1    5    5    0  503  0.33679411399E+02 -0.43193374528E+02 -0.29038934263E+03  0.29554700247E+03  0.47000000000E+01 0. -1.
<mgrwt>
<rscale>  0 0.27560899E+03</rscale>
<asrwt>0</asrwt>
<pdfrwt beam="1">  1        4 0.12701330E+00 0.27560899E+03</pdfrwt>
<pdfrwt beam="2">  1       -4 0.35387581E-02 0.27560899E+03</pdfrwt>
<totfact> 0.37437277E+02</totfact>
</mgrwt>
</event>
<event>
 9    1  0.7926126E-001  0.2766683E+03  0.7818608E-02  0.1097523E+00
         -2   -1    0    0    0  501 -0.00000000000E+00  0.00000000000E+00  0.11607397027E+03  0.11607397027E+03  0.00000000000E+00 0. -1.
          2   -1    0    0  501    0  0.00000000000E+00 -0.00000000000E+00 -0.16486328646E+03  0.16486328646E+03  0.00000000000E+00 0. -1.
         35    2    1    2    0    0  0.00000000000E+00  0.71054273576E-14 -0.48789316193E+02  0.28093725674E+03  0.27666829390E+03 0.  0.
         25    2    3    3    0    0  0.22999062472E+02 -0.50078518781E+02 -0.71048391567E+01  0.13682673282E+03  0.12503703914E+03 0.  0.
         25    2    3    3    0    0 -0.22999062472E+02  0.50078518781E+02 -0.41684477036E+02  0.14411052392E+03  0.12646514365E+03 0.  0.
          5    1    4    4  502    0  0.20004823617E+02  0.22559130580E+02 -0.45261822961E+02  0.54587818771E+02  0.47000000000E+01 0.  1.
         -5    1    4    4    0  502  0.29942388553E+01 -0.72637649361E+02  0.38156983804E+02  0.82238914049E+02  0.47000000000E+01 0.  1.
          5    1    5    5  503    0 -0.15479069078E+02  0.71829221697E+02  0.21498402442E+02  0.76702737740E+02  0.47000000000E+01 0. -1.
         -5    1    5    5    0  503 -0.75199933939E+01 -0.21750702917E+02 -0.63182879478E+02  0.67407786176E+02  0.47000000000E+01 0. -1.
<mgrwt>
<rscale>  0 0.27666829E+03</rscale>
<asrwt>0</asrwt>
<pdfrwt beam="1">  1        2 0.25363583E-01 0.27666829E+03</pdfrwt>
<pdfrwt beam="2">  1       -2 0.17857534E-01 0.27666829E+03</pdfrwt>
<totfact> 0.53649535E+03</totfact>
</mgrwt>
</event>
<event>
 9    1  0.7926126E-001  0.2754441E+03  0.7818608E-02  0.1098204E+00
          1   -1    0    0  501    0  0.00000000000E+00  0.00000000000E+00  0.50846219628E+03  0.50846219628E+03  0.00000000000E+00 0. -1.
         -1   -1    0    0    0  501 -0.00000000000E+00 -0.00000000000E+00 -0.37303380827E+02  0.37303380827E+02  0.00000000000E+00 0. -1.
         35    2    1    2    0    0 -0.88817841970E-15 -0.71054273576E-14  0.47115881545E+03  0.54576557711E+03  0.27544407014E+03 0.  0.
         25    2    3    3    0    0 -0.13419683434E+01 -0.24076586599E+02  0.13494422960E+03  0.18570628740E+03  0.12528127225E+03 0.  0.
         25    2    3    3    0    0  0.13419683434E+01  0.24076586599E+02  0.33621458585E+03  0.36005928971E+03  0.12657393674E+03 0.  0.
          5    1    4    4  502    0  0.75024824364E+01 -0.43164917931E+02  0.15197502992E+03  0.15823399477E+03  0.47000000000E+01 0.  1.
         -5    1    4    4    0  502 -0.88444507798E+01  0.19088331332E+02 -0.17030800321E+02  0.27472292627E+02  0.47000000000E+01 0.  1.
          5    1    5    5  503    0 -0.14345541390E+02  0.73673117027E+02  0.17155723256E+03  0.18731656834E+03  0.47000000000E+01 0.  1.
         -5    1    5    5    0  503  0.15687509734E+02 -0.49596530428E+02  0.16465735329E+03  0.17274272137E+03  0.47000000000E+01 0.  1.
<mgrwt>
<rscale>  0 0.27544407E+03</rscale>
<asrwt>0</asrwt>
<pdfrwt beam="1">  1        1 0.78224948E-01 0.27544407E+03</pdfrwt>
<pdfrwt beam="2">  1       -1 0.57389820E-02 0.27544407E+03</pdfrwt>
<totfact> 0.62811865E+03</totfact>
</mgrwt>
</event>
<event>
 9    1  0.7926126E-001  0.2573099E+03  0.7818608E-02  0.1108770E+00
         -2   -1    0    0    0  501 -0.00000000000E+00  0.00000000000E+00  0.19643222916E+02  0.19643222916E+02  0.00000000000E+00 0. -1.
          2   -1    0    0  501    0  0.00000000000E+00 -0.00000000000E+00 -0.84263672309E+03  0.84263672309E+03  0.00000000000E+00 0. -1.
         35    2    1    2    0    0  0.00000000000E+00  0.31086244690E-14 -0.82299350017E+03  0.86227994601E+03  0.25730993754E+03 0.  0.
         25    2    3    3    0    0 -0.16593540698E+02 -0.31280357632E+01 -0.49369655042E+03  0.50951617934E+03  0.12484119077E+03 0.  0.
         25    2    3    3    0    0  0.16593540698E+02  0.31280357632E+01 -0.32929694975E+03  0.35276376666E+03  0.12538207110E+03 0.  0.
          5    1    4    4  502    0  0.23641026670E+02 -0.25533132269E+00 -0.13544226034E+02  0.27649582184E+02  0.47000000000E+01 0.  1.
         -5    1    4    4    0  502 -0.40234567368E+02 -0.28727044405E+01 -0.48015232439E+03  0.48186659716E+03  0.47000000000E+01 0.  1.
          5    1    5    5  503    0  0.11609160817E+02  0.22818836790E+02 -0.33083605657E+03  0.33185849131E+03  0.47000000000E+01 0. -1.
         -5    1    5    5    0  503  0.49843798810E+01 -0.19690801027E+02  0.15391068177E+01  0.20905275355E+02  0.47000000000E+01 0. -1.
<mgrwt>
<rscale>  0 0.25730994E+03</rscale>
<asrwt>0</asrwt>
<pdfrwt beam="1">  1        2 0.12963640E+00 0.25730994E+03</pdfrwt>
<pdfrwt beam="2">  1       -2 0.30220346E-02 0.25730994E+03</pdfrwt>
<totfact> 0.13799538E+04</totfact>
</mgrwt>
</event>
<event>
 9    1  0.7926126E-001  0.2758913E+03  0.7818608E-02  0.1097954E+00
         -2   -1    0    0    0  501 -0.00000000000E+00  0.00000000000E+00  0.56399754223E+02  0.56399754223E+02  0.00000000000E+00 0. -1.
          2   -1    0    0  501    0  0.00000000000E+00 -0.00000000000E+00 -0.33739511747E+03  0.33739511747E+03  0.00000000000E+00 0. -1.
         35    2    1    2    0    0  0.00000000000E+00 -0.71054273576E-14 -0.28099536325E+03  0.39379487170E+03  0.27589129527E+03 0.  0.
         25    2    3    3    0    0 -0.40771621796E+02 -0.38034983773E+02 -0.16226798748E+03  0.21265135292E+03  0.12562130792E+03 0.  0.
         25    2    3    3    0    0  0.40771621796E+02  0.38034983773E+02 -0.11872737577E+03  0.18114351877E+03  0.12493117907E+03 0.  0.
          5    1    4    4  502    0 -0.40548013737E+02 -0.41486833433E+01  0.55304605586E+01  0.41400833149E+02  0.47000000000E+01 0. -1.
         -5    1    4    4    0  502 -0.22360805911E+00 -0.33886300430E+02 -0.16779844804E+03  0.17125051977E+03  0.47000000000E+01 0. -1.
          5    1    5    5  503    0 -0.56949499709E+01 -0.42690172974E+02 -0.32913996266E+02  0.54408680134E+02  0.47000000000E+01 0. -1.
         -5    1    5    5    0  503  0.46466571767E+02  0.80725156748E+02 -0.85813379501E+02  0.12673483864E+03  0.47000000000E+01 0. -1.
<mgrwt>
<rscale>  0 0.27589130E+03</rscale>
<asrwt>0</asrwt>
<pdfrwt beam="1">  1        2 0.51906942E-01 0.27589130E+03</pdfrwt>
<pdfrwt beam="2">  1       -2 0.86768851E-02 0.27589130E+03</pdfrwt>
<totfact> 0.79453946E+03</totfact>
</mgrwt>
</event>
<event>
 9    1  0.7926126E-001  0.2717174E+03  0.7818608E-02  0.1100301E+00
          1   -1    0    0  501    0  0.00000000000E+00  0.00000000000E+00  0.48730108651E+03  0.48730108651E+03  0.00000000000E+00 0.  1.
         -1   -1    0    0    0  501 -0.00000000000E+00 -0.00000000000E+00 -0.37877160621E+02  0.37877160621E+02  0.00000000000E+00 0.  1.
         35    2    1    2    0    0 -0.71054273576E-14  0.00000000000E+00  0.44942392589E+03  0.52517824713E+03  0.27171736437E+03 0.  0.
         25    2    3    3    0    0 -0.12257363905E+01 -0.29651264513E+02  0.13745981624E+03  0.18767973699E+03  0.12428910926E+03 0.  0.
         25    2    3    3    0    0  0.12257363905E+01  0.29651264513E+02  0.31196410964E+03  0.33749851014E+03  0.12531136709E+03 0.  0.
          5    1    4    4  502    0 -0.62058806684E+02 -0.71053565125E+01  0.71062738508E+02  0.94730060606E+02  0.47000000000E+01 0.  1.
         -5    1    4    4    0  502  0.60833070293E+02 -0.22545908000E+02  0.66397077736E+02  0.92949676388E+02  0.47000000000E+01 0.  1.
          5    1    5    5  503    0  0.28352472883E+02  0.71718992162E+02  0.21118801216E+03  0.22487761791E+03  0.47000000000E+01 0. -1.
         -5    1    5    5    0  503 -0.27126736492E+02 -0.42067727649E+02  0.10077609748E+03  0.11262089223E+03  0.47000000000E+01 0. -1.
<mgrwt>
<rscale>  0 0.27171736E+03</rscale>
<asrwt>0</asrwt>
<pdfrwt beam="1">  1        1 0.74969393E-01 0.27171736E+03</pdfrwt>
<pdfrwt beam="2">  1       -1 0.58272558E-02 0.27171736E+03</pdfrwt>
<totfact> 0.64919948E+03</totfact>
</mgrwt>
</event>
<event>
 9    1  0.7926126E-001  0.2766279E+03  0.7818608E-02  0.1097545E+00
         -2   -1    0    0    0  501 -0.00000000000E+00  0.00000000000E+00  0.42721000014E+02  0.42721000014E+02  0.00000000000E+00 0. -1.
          2   -1    0    0  501    0  0.00000000000E+00 -0.00000000000E+00 -0.44780670078E+03  0.44780670078E+03  0.00000000000E+00 0. -1.
         35    2    1    2    0    0  0.71054273576E-14 -0.71054273576E-14 -0.40508570076E+03  0.49052770079E+03  0.27662790944E+03 0.  0.
         25    2    3    3    0    0 -0.50923865058E+02  0.10546585666E+02 -0.25320845349E+03  0.28708657555E+03  0.12489880080E+03 0.  0.
         25    2    3    3    0    0  0.50923865058E+02 -0.10546585666E+02 -0.15187724727E+03  0.20344112524E+03  0.12496848682E+03 0.  0.
          5    1    4    4  502    0 -0.68911453932E+02  0.53668331543E+02 -0.14882656800E+03  0.17262825851E+03  0.47000000000E+01 0. -1.
         -5    1    4    4    0  502  0.17987588873E+02 -0.43121745877E+02 -0.10438188549E+03  0.11445831704E+03  0.47000000000E+01 0. -1.
          5    1    5    5  503    0  0.46701931395E+01  0.40910068943E+02 -0.59426623647E+01  0.41867047673E+02  0.47000000000E+01 0.  1.
         -5    1    5    5    0  503  0.46253671919E+02 -0.51456654609E+02 -0.14593458490E+03  0.16157407756E+03  0.47000000000E+01 0.  1.
<mgrwt>
<rscale>  0 0.27662791E+03</rscale>
<asrwt>0</asrwt>
<pdfrwt beam="1">  1        2 0.68893337E-01 0.27662791E+03</pdfrwt>
<pdfrwt beam="2">  1       -2 0.65724617E-02 0.27662791E+03</pdfrwt>
<totfact> 0.90023984E+03</totfact>
</mgrwt>
</event>
<event>
 9    1  0.7926126E-001  0.2759048E+03  0.7818608E-02  0.1097947E+00
         -3   -1    0    0    0  501 -0.00000000000E+00  0.00000000000E+00  0.19623270463E+02  0.19623270463E+02  0.00000000000E+00 0. -1.
          3   -1    0    0  501    0  0.00000000000E+00 -0.00000000000E+00 -0.96981128712E+03  0.96981128712E+03  0.00000000000E+00 0. -1.
         35    2    1    2    0    0  0.35527136788E-14  0.00000000000E+00 -0.95018801666E+03  0.98943455758E+03  0.27590483276E+03 0.  0.
         25    2    3    3    0    0 -0.88526723216E+01  0.33093830086E+02 -0.63991157270E+03  0.65284492860E+03  0.12468403478E+03 0.  0.
         25    2    3    3    0    0  0.88526723216E+01 -0.33093830086E+02 -0.31027644396E+03  0.33658962898E+03  0.12588699403E+03 0.  0.
          5    1    4    4  502    0 -0.46634091900E+02 -0.29813853047E+02 -0.25652007398E+03  0.26246569817E+03  0.47000000000E+01 0. -1.
         -5    1    4    4    0  502  0.37781419579E+02  0.62907683133E+02 -0.38339149872E+03  0.39037923043E+03  0.47000000000E+01 0. -1.
          5    1    5    5  503    0 -0.75084046355E+01 -0.61378433783E+02 -0.29268568015E+03  0.29918336458E+03  0.47000000000E+01 0.  1.
         -5    1    5    5    0  503  0.16361076957E+02  0.28284603697E+02 -0.17590763809E+02  0.37406264407E+02  0.47000000000E+01 0.  1.
<mgrwt>
<rscale>  0 0.27590483E+03</rscale>
<asrwt>0</asrwt>
<pdfrwt beam="1">  1        3 0.14920172E+00 0.27590483E+03</pdfrwt>
<pdfrwt beam="2">  1       -3 0.30189651E-02 0.27590483E+03</pdfrwt>
<totfact> 0.44519887E+02</totfact>
</mgrwt>
</event>
<event>
 9    1  0.7926126E-001  0.2767992E+03  0.7818608E-02  0.1097450E+00
          1   -1    0    0  501    0  0.00000000000E+00  0.00000000000E+00  0.57574760731E+02  0.57574760731E+02  0.00000000000E+00 0. -1.
         -1   -1    0    0    0  501 -0.00000000000E+00 -0.00000000000E+00 -0.33268830735E+03  0.33268830735E+03  0.00000000000E+00 0. -1.
         35    2    1    2    0    0 -0.71054273576E-14  0.00000000000E+00 -0.27511354662E+03  0.39026306808E+03  0.27679920299E+03 0.  0.
         25    2    3    3    0    0  0.34333109977E+02 -0.27566299044E+01 -0.20467422603E+03  0.24215693174E+03  0.12474806346E+03 0.  0.
         25    2    3    3    0    0 -0.34333109977E+02  0.27566299044E+01 -0.70439320585E+02  0.14810613634E+03  0.12564779460E+03 0.  0.
          5    1    4    4  502    0  0.74036169910E+02 -0.12209808207E+02 -0.75264619013E+02  0.10638273707E+03  0.47000000000E+01 0. -1.
         -5    1    4    4    0  502 -0.39703059933E+02  0.94531783023E+01 -0.12940960702E+03  0.13577419467E+03  0.47000000000E+01 0. -1.
          5    1    5    5  503    0  0.25341551651E+02 -0.11479767796E+02 -0.80913686102E+02  0.85691854381E+02  0.47000000000E+01 0.  1.
         -5    1    5    5    0  503 -0.59674661628E+02  0.14236397700E+02  0.10474365517E+02  0.62414281963E+02  0.47000000000E+01 0.  1.
<mgrwt>
<rscale>  0 0.27679920E+03</rscale>
<asrwt>0</asrwt>
<pdfrwt beam="1">  1        1 0.88576558E-02 0.27679920E+03</pdfrwt>
<pdfrwt beam="2">  1       -1 0.51182815E-01 0.27679920E+03</pdfrwt>
<totfact> 0.29654693E+03</totfact>
</mgrwt>
</event>
<event>
 9    1  0.7926126E-001  0.2761243E+03  0.7818608E-02  0.1097825E+00
          2   -1    0    0  501    0  0.00000000000E+00  0.00000000000E+00  0.10218424066E+04  0.10218424066E+04  0.00000000000E+00 0. -1.
         -2   -1    0    0    0  501 -0.00000000000E+00 -0.00000000000E+00 -0.18653716598E+02  0.18653716598E+02  0.00000000000E+00 0. -1.
         35    2    1    2    0    0 -0.88817841970E-15  0.00000000000E+00  0.10031886900E+04  0.10404961232E+04  0.27612431012E+03 0.  0.
         25    2    3    3    0    0 -0.72266235622E+01  0.26017002576E+02  0.32374299895E+03  0.34858678903E+03  0.12638873210E+03 0.  0.
         25    2    3    3    0    0  0.72266235622E+01 -0.26017002576E+02  0.67944569103E+03  0.69190933415E+03  0.12791782955E+03 0.  0.
          5    1    4    4  502    0 -0.84209528683E+01  0.71980985090E+02  0.12523382442E+03  0.14476800558E+03  0.47000000000E+01 0.  1.
         -5    1    4    4    0  502  0.11943293061E+01 -0.45963982514E+02  0.19850917454E+03  0.20381878345E+03  0.47000000000E+01 0.  1.
          5    1    5    5  503    0  0.26526082363E+02 -0.52410987839E+02  0.14603155293E+03  0.15747332836E+03  0.47000000000E+01 0. -1.
         -5    1    5    5    0  503 -0.19299458800E+02  0.26393985263E+02  0.53341413810E+03  0.53443600579E+03  0.47000000000E+01 0. -1.
<mgrwt>
<rscale>  0 0.27612431E+03</rscale>
<asrwt>0</asrwt>
<pdfrwt beam="1">  1        2 0.15720648E+00 0.27612431E+03</pdfrwt>
<pdfrwt beam="2">  1       -2 0.28698033E-02 0.27612431E+03</pdfrwt>
<totfact> 0.11496154E+04</totfact>
</mgrwt>
</event>
<event>
 9    1  0.7926126E-001  0.2764357E+03  0.7818608E-02  0.1097652E+00
         -2   -1    0    0    0  501 -0.00000000000E+00  0.00000000000E+00  0.10742138501E+02  0.10742138501E+02  0.00000000000E+00 0.  1.
          2   -1    0    0  501    0  0.00000000000E+00 -0.00000000000E+00 -0.17784328030E+04  0.17784328030E+04  0.00000000000E+00 0.  1.
         35    2    1    2    0    0  0.00000000000E+00 -0.14210854715E-13 -0.17676906645E+04  0.17891749415E+04  0.27643568139E+03 0.  0.
         25    2    3    3    0    0 -0.13530019840E+02 -0.57519233795E+02 -0.87127742437E+03  0.88213735052E+03  0.12470136835E+03 0.  0.
         25    2    3    3    0    0  0.13530019840E+02  0.57519233795E+02 -0.89641324016E+03  0.90703759102E+03  0.12517575918E+03 0.  0.
          5    1    4    4  502    0 -0.68764469968E+02 -0.33721509444E+02 -0.43620239510E+03  0.44289988939E+03  0.47000000000E+01 0.  1.
         -5    1    4    4    0  502  0.55234450128E+02 -0.23797724350E+02 -0.43507502927E+03  0.43923746113E+03  0.47000000000E+01 0.  1.
          5    1    5    5  503    0 -0.25258787904E+02  0.37137918575E+02 -0.10377164197E+03  0.11317188272E+03  0.47000000000E+01 0.  1.
         -5    1    5    5    0  503  0.38788807745E+02  0.20381315219E+02 -0.79264159820E+03  0.79386570830E+03  0.47000000000E+01 0.  1.
<mgrwt>
<rscale>  0 0.27643568E+03</rscale>
<asrwt>0</asrwt>
<pdfrwt beam="1">  1        2 0.27360491E+00 0.27643568E+03</pdfrwt>
<pdfrwt beam="2">  1       -2 0.16526375E-02 0.27643568E+03</pdfrwt>
<totfact> 0.99439054E+03</totfact>
</mgrwt>
</event>
<event>
 9    1  0.7926126E-001  0.2804907E+03  0.7818608E-02  0.1095421E+00
          2   -1    0    0  501    0  0.00000000000E+00  0.00000000000E+00  0.12589790912E+03  0.12589790912E+03  0.00000000000E+00 0.  1.
         -2   -1    0    0    0  501 -0.00000000000E+00 -0.00000000000E+00 -0.15622788537E+03  0.15622788537E+03  0.00000000000E+00 0.  1.
         35    2    1    2    0    0  0.00000000000E+00 -0.71054273576E-14 -0.30329976248E+02  0.28212579448E+03  0.28049074219E+03 0.  0.
         25    2    3    3    0    0 -0.43981625578E+02  0.46236004901E+02 -0.20337313186E+02  0.14121489274E+03  0.12432171204E+03 0.  0.
         25    2    3    3    0    0  0.43981625578E+02 -0.46236004901E+02 -0.99926630617E+01  0.14091090175E+03  0.12523528807E+03 0.  0.
          5    1    4    4  502    0 -0.27698614562E+02 -0.29126575330E+02 -0.44625215131E+02  0.60241766778E+02  0.47000000000E+01 0. -1.
         -5    1    4    4    0  502 -0.16283011016E+02  0.75362580230E+02  0.24287901945E+02  0.80973125959E+02  0.47000000000E+01 0. -1.
          5    1    5    5  503    0  0.62546083851E+02 -0.40401427604E+02  0.41704415456E+02  0.85473014607E+02  0.47000000000E+01 0. -1.
         -5    1    5    5    0  503 -0.18564458273E+02 -0.58345772965E+01 -0.51697078517E+02  0.55437887139E+02  0.47000000000E+01 0. -1.
<mgrwt>
<rscale>  0 0.28049074E+03</rscale>
<asrwt>0</asrwt>
<pdfrwt beam="1">  1        2 0.19368909E-01 0.28049074E+03</pdfrwt>
<pdfrwt beam="2">  1       -2 0.24035059E-01 0.28049074E+03</pdfrwt>
<totfact> 0.43705623E+03</totfact>
</mgrwt>
</event>
<event>
 9    1  0.7926126E-001  0.2775977E+03  0.7818608E-02  0.1097008E+00
         -2   -1    0    0    0  501 -0.00000000000E+00  0.00000000000E+00  0.94832331645E+01  0.94832331645E+01  0.00000000000E+00 0. -1.
          2   -1    0    0  501    0  0.00000000000E+00 -0.00000000000E+00 -0.20314927496E+04  0.20314927496E+04  0.00000000000E+00 0. -1.
         35    2    1    2    0    0  0.17763568394E-14  0.71054273576E-14 -0.20220095164E+04  0.20409759827E+04  0.27759769031E+03 0.  0.
         25    2    3    3    0    0 -0.49712058848E+01  0.19623678671E+02 -0.14182172250E+04  0.14238652474E+04  0.12506935612E+03 0.  0.
         25    2    3    3    0    0  0.49712058848E+01 -0.19623678671E+02 -0.60379229144E+03  0.61711073536E+03  0.12589966974E+03 0.  0.
          5    1    4    4  502    0 -0.60202052088E+02  0.34102498528E+02 -0.75526392178E+03  0.75844113089E+03  0.47000000000E+01 0. -1.
         -5    1    4    4    0  502  0.55230846203E+02 -0.14478819857E+02 -0.66295330318E+03  0.66542411648E+03  0.47000000000E+01 0. -1.
          5    1    5    5  503    0 -0.31427802288E+01 -0.54313014174E+02 -0.11835040999E+03  0.13034066948E+03  0.47000000000E+01 0.  1.
         -5    1    5    5    0  503  0.81139861136E+01  0.34689335503E+02 -0.48544188145E+03  0.48677006587E+03  0.47000000000E+01 0.  1.
<mgrwt>
<rscale>  0 0.27759769E+03</rscale>
<asrwt>0</asrwt>
<pdfrwt beam="1">  1        2 0.31253765E+00 0.27759769E+03</pdfrwt>
<pdfrwt beam="2">  1       -2 0.14589575E-02 0.27759769E+03</pdfrwt>
<totfact> 0.87873463E+03</totfact>
</mgrwt>
</event>
<event>
 9    1  0.7926126E-001  0.2643034E+03  0.7818608E-02  0.1104585E+00
          2   -1    0    0  501    0  0.00000000000E+00  0.00000000000E+00  0.34113858524E+03  0.34113858524E+03  0.00000000000E+00 0. -1.
         -2   -1    0    0    0  501 -0.00000000000E+00 -0.00000000000E+00 -0.51193470336E+02  0.51193470336E+02  0.00000000000E+00 0. -1.
         35    2    1    2    0    0  0.00000000000E+00  0.00000000000E+00  0.28994511490E+03  0.39233205557E+03  0.26430337148E+03 0.  0.
         25    2    3    3    0    0  0.30144985002E+02  0.21146058807E+02  0.11813685594E+03  0.17633233330E+03  0.12562204866E+03 0.  0.
         25    2    3    3    0    0 -0.30144985002E+02 -0.21146058807E+02  0.17180825896E+03  0.21599972228E+03  0.12562613683E+03 0.  0.
          5    1    4    4  502    0  0.72014047130E+02  0.39480472043E+02  0.58005577676E+02  0.10065519211E+03  0.47000000000E+01 0.  1.
         -5    1    4    4    0  502 -0.41869062128E+02 -0.18334413236E+02  0.60131278269E+02  0.75677141189E+02  0.47000000000E+01 0.  1.
          5    1    5    5  503    0  0.47049298193E+02 -0.16421559798E+02  0.92198608465E+02  0.10490937751E+03  0.47000000000E+01 0. -1.
         -5    1    5    5    0  503 -0.77194283195E+02 -0.47244990083E+01  0.79609650491E+02  0.11109034477E+03  0.47000000000E+01 0. -1.
<mgrwt>
<rscale>  0 0.26430337E+03</rscale>
<asrwt>0</asrwt>
<pdfrwt beam="1">  1        2 0.52482858E-01 0.26430337E+03</pdfrwt>
<pdfrwt beam="2">  1       -2 0.78759187E-02 0.26430337E+03</pdfrwt>
<totfact> 0.91211550E+03</totfact>
</mgrwt>
</event>
<event>
 9    1  0.7926126E-001  0.3037527E+03  0.7818608E-02  0.1083380E+00
          2   -1    0    0  501    0  0.00000000000E+00  0.00000000000E+00  0.64350761315E+03  0.64350761315E+03  0.00000000000E+00 0. -1.
         -2   -1    0    0    0  501 -0.00000000000E+00 -0.00000000000E+00 -0.35844827828E+02  0.35844827828E+02  0.00000000000E+00 0. -1.
         35    2    1    2    0    0  0.00000000000E+00 -0.35527136788E-14  0.60766278532E+03  0.67935244097E+03  0.30375265990E+03 0.  0.
         25    2    3    3    0    0 -0.82005094039E+02  0.58558929007E+01  0.36252101295E+03  0.39212581656E+03  0.12482805874E+03 0.  0.
         25    2    3    3    0    0  0.82005094039E+02 -0.58558929007E+01  0.24514177236E+03  0.28722662442E+03  0.12508204622E+03 0.  0.
          5    1    4    4  502    0 -0.73704196435E+02  0.51566314848E+02  0.30507957534E+03  0.31809908942E+03  0.47000000000E+01 0.  1.
         -5    1    4    4    0  502 -0.83008976032E+01 -0.45710421947E+02  0.57441437610E+02  0.74026727135E+02  0.47000000000E+01 0.  1.
          5    1    5    5  503    0  0.61959470108E+02 -0.11840160617E+02  0.28249133607E+02  0.69276755763E+02  0.47000000000E+01 0.  1.
         -5    1    5    5    0  503  0.20045623930E+02  0.59842677159E+01  0.21689263876E+03  0.21794986865E+03  0.47000000000E+01 0.  1.
<mgrwt>
<rscale>  0 0.30375266E+03</rscale>
<asrwt>0</asrwt>
<pdfrwt beam="1">  1        2 0.99001163E-01 0.30375266E+03</pdfrwt>
<pdfrwt beam="2">  1       -2 0.55145894E-02 0.30375266E+03</pdfrwt>
<totfact> 0.78262010E+03</totfact>
</mgrwt>
</event>
<event>
 9    1  0.7926126E-001  0.2910322E+03  0.7818608E-02  0.1089811E+00
          2   -1    0    0  501    0  0.00000000000E+00  0.00000000000E+00  0.85680316441E+03  0.85680316441E+03  0.00000000000E+00 0. -1.
         -2   -1    0    0    0  501 -0.00000000000E+00 -0.00000000000E+00 -0.24713890117E+02  0.24713890117E+02  0.00000000000E+00 0. -1.
         35    2    1    2    0    0  0.00000000000E+00  0.00000000000E+00  0.83208927430E+03  0.88151705453E+03  0.29103222679E+03 0.  0.
         25    2    3    3    0    0  0.28593185944E+02 -0.29948829291E+02  0.25430681172E+03  0.28891487103E+03  0.13071092363E+03 0.  0.
         25    2    3    3    0    0 -0.28593185944E+02  0.29948829291E+02  0.57778246258E+03  0.59260218350E+03  0.12502108290E+03 0.  0.
          5    1    4    4  502    0 -0.12172436121E+02  0.42908789856E+02  0.45044766770E+02  0.63564561364E+02  0.47000000000E+01 0. -1.
         -5    1    4    4    0  502  0.40765622064E+02 -0.72857619147E+02  0.20926204495E+03  0.22535030966E+03  0.47000000000E+01 0. -1.
          5    1    5    5  503    0 -0.63783962555E+02  0.29433352260E+02  0.52026962642E+03  0.52501170489E+03  0.47000000000E+01 0. -1.
         -5    1    5    5    0  503  0.35190776611E+02  0.51547703064E+00  0.57512836164E+02  0.67590478610E+02  0.47000000000E+01 0. -1.
<mgrwt>
<rscale>  0 0.29103223E+03</rscale>
<asrwt>0</asrwt>
<pdfrwt beam="1">  1        2 0.13181585E+00 0.29103223E+03</pdfrwt>
<pdfrwt beam="2">  1       -2 0.38021376E-02 0.29103223E+03</pdfrwt>
<totfact> 0.96204588E+03</totfact>
</mgrwt>
</event>
<event>
 9    1  0.7926126E-001  0.2721035E+03  0.7818608E-02  0.1100082E+00
         -2   -1    0    0    0  501 -0.00000000000E+00  0.00000000000E+00  0.11561028299E+02  0.11561028299E+02  0.00000000000E+00 0. -1.
          2   -1    0    0  501    0  0.00000000000E+00 -0.00000000000E+00 -0.16010751543E+04  0.16010751543E+04  0.00000000000E+00 0. -1.
         35    2    1    2    0    0 -0.35527136788E-14  0.00000000000E+00 -0.15895141260E+04  0.16126361826E+04  0.27210347419E+03 0.  0.
         25    2    3    3    0    0  0.58559113462E+01 -0.36683284536E+02 -0.10276315233E+04  0.10358309480E+04  0.12465652850E+03 0.  0.
         25    2    3    3    0    0 -0.58559113462E+01  0.36683284536E+02 -0.56188260269E+03  0.57680523459E+03  0.12494904712E+03 0.  0.
          5    1    4    4  502    0  0.65169561587E+01  0.41991469926E+02 -0.55762617509E+03  0.55926272486E+03  0.47000000000E+01 0. -1.
         -5    1    4    4    0  502 -0.66104481247E+00 -0.78674754463E+02 -0.47000534819E+03  0.47656822313E+03  0.47000000000E+01 0. -1.
          5    1    5    5  503    0 -0.49671500520E+02  0.52968388624E+02 -0.44370033239E+03  0.44962760494E+03  0.47000000000E+01 0.  1.
         -5    1    5    5    0  503  0.43815589174E+02 -0.16285104088E+02 -0.11818227030E+03  0.12717762965E+03  0.47000000000E+01 0.  1.
<mgrwt>
<rscale>  0 0.27210347E+03</rscale>
<asrwt>0</asrwt>
<pdfrwt beam="1">  1        2 0.24631931E+00 0.27210347E+03</pdfrwt>
<pdfrwt beam="2">  1       -2 0.17786194E-02 0.27210347E+03</pdfrwt>
<totfact> 0.11069721E+04</totfact>
</mgrwt>
</event>
<event>
 9    1  0.7926126E-001  0.2744223E+03  0.7818608E-02  0.1098775E+00
         -1   -1    0    0    0  501 -0.00000000000E+00  0.00000000000E+00  0.24608013790E+03  0.24608013790E+03  0.00000000000E+00 0.  1.
          1   -1    0    0  501    0  0.00000000000E+00 -0.00000000000E+00 -0.76507162985E+02  0.76507162985E+02  0.00000000000E+00 0.  1.
         35    2    1    2    0    0  0.00000000000E+00  0.35527136788E-14  0.16957297492E+03  0.32258730089E+03  0.27442225287E+03 0.  0.
         25    2    3    3    0    0  0.39533473825E+02  0.21759274407E+02  0.12403414952E+03  0.18183278109E+03  0.12506929461E+03 0.  0.
         25    2    3    3    0    0 -0.39533473825E+02 -0.21759274407E+02  0.45538825393E+02  0.14075451980E+03  0.12530637913E+03 0.  0.
          5    1    4    4  502    0  0.82026234571E+02 -0.25730162706E+01  0.63742851882E+02  0.10402002085E+03  0.47000000000E+01 0. -1.
         -5    1    4    4    0  502 -0.42492760746E+02  0.24332290678E+02  0.60291297641E+02  0.77812760244E+02  0.47000000000E+01 0. -1.
          5    1    5    5  503    0  0.40422692908E+02 -0.16498642972E+02 -0.74984991210E+01  0.44547915899E+02  0.47000000000E+01 0. -1.
         -5    1    5    5    0  503 -0.79956166734E+02 -0.52606314349E+01  0.53037324514E+02  0.96206603897E+02  0.47000000000E+01 0. -1.
<mgrwt>
<rscale>  0 0.27442225E+03</rscale>
<asrwt>0</asrwt>
<pdfrwt beam="1">  1        1 0.11770333E-01 0.27442225E+03</pdfrwt>
<pdfrwt beam="2">  1       -1 0.37858482E-01 0.27442225E+03</pdfrwt>
<totfact> 0.34896882E+03</totfact>
</mgrwt>
</event>
<event>
 9    1  0.7926126E-001  0.2746941E+03  0.7818608E-02  0.1098623E+00
         -2   -1    0    0    0  501 -0.00000000000E+00  0.00000000000E+00  0.76457320905E+01  0.76457320905E+01  0.00000000000E+00 0.  1.
          2   -1    0    0  501    0  0.00000000000E+00 -0.00000000000E+00 -0.24672870241E+04  0.24672870241E+04  0.00000000000E+00 0.  1.
         35    2    1    2    0    0 -0.71054273576E-14  0.35527136788E-14 -0.24596412920E+04  0.24749327561E+04  0.27469412499E+03 0.  0.
         25    2    3    3    0    0 -0.45373988673E+02  0.24180134476E+02 -0.10206628591E+04  0.10295819345E+04  0.12507122035E+03 0.  0.
         25    2    3    3    0    0  0.45373988673E+02 -0.24180134476E+02 -0.14389784329E+04  0.14453508217E+04  0.12544556436E+03 0.  0.
          5    1    4    4  502    0  0.21457025862E+02  0.42833187913E+02 -0.18963294531E+03  0.19564720773E+03  0.47000000000E+01 0.  1.
         -5    1    4    4    0  502 -0.66831014535E+02 -0.18653053437E+02 -0.83102991378E+03  0.83393472676E+03  0.47000000000E+01 0.  1.
          5    1    5    5  503    0  0.10788740157E+02 -0.54537357888E+02 -0.28300073334E+03  0.28844795959E+03  0.47000000000E+01 0.  1.
         -5    1    5    5    0  503  0.34585248517E+02  0.30357223412E+02 -0.11559776995E+04  0.11569028621E+04  0.47000000000E+01 0.  1.
<mgrwt>
<rscale>  0 0.27469412E+03</rscale>
<asrwt>0</asrwt>
<pdfrwt beam="1">  1        2 0.37958322E+00 0.27469412E+03</pdfrwt>
<pdfrwt beam="2">  1       -2 0.11762646E-02 0.27469412E+03</pdfrwt>
<totfact> 0.70349261E+03</totfact>
</mgrwt>
</event>
<event>
 9    1  0.7926126E-001  0.3045905E+03  0.7818608E-02  0.1082968E+00
         -2   -1    0    0    0  501 -0.00000000000E+00  0.00000000000E+00  0.51602599947E+02  0.51602599947E+02  0.00000000000E+00 0.  1.
          2   -1    0    0  501    0  0.00000000000E+00 -0.00000000000E+00 -0.44947049574E+03  0.44947049574E+03  0.00000000000E+00 0.  1.
         35    2    1    2    0    0  0.00000000000E+00 -0.71054273576E-14 -0.39786789579E+03  0.50107309569E+03  0.30459051974E+03 0.  0.
         25    2    3    3    0    0  0.62476144369E+02 -0.51540122304E+02 -0.14934657979E+03  0.21102577743E+03  0.12517118289E+03 0.  0.
         25    2    3    3    0    0 -0.62476144369E+02  0.51540122304E+02 -0.24852131601E+03  0.29004731825E+03  0.12571773739E+03 0.  0.
          5    1    4    4  502    0  0.88153086929E+02 -0.50827787204E+02 -0.60624308404E+02  0.11854040432E+03  0.47000000000E+01 0.  1.
         -5    1    4    4    0  502 -0.25676942560E+02 -0.71233509972E+00 -0.88722271383E+02  0.92485373113E+02  0.47000000000E+01 0.  1.
          5    1    5    5  503    0 -0.10787572581E+02  0.46468335557E+02 -0.14201333006E+02  0.49994457600E+02  0.47000000000E+01 0. -1.
         -5    1    5    5    0  503 -0.51688571788E+02  0.50717867472E+01 -0.23431998300E+03  0.24005286065E+03  0.47000000000E+01 0. -1.
<mgrwt>
<rscale>  0 0.30459052E+03</rscale>
<asrwt>0</asrwt>
<pdfrwt beam="1">  1        2 0.69149308E-01 0.30459052E+03</pdfrwt>
<pdfrwt beam="2">  1       -2 0.79388614E-02 0.30459052E+03</pdfrwt>
<totfact> 0.67065061E+03</totfact>
</mgrwt>
</event>
<event>
 9    1  0.7926126E-001  0.2755712E+03  0.7818608E-02  0.1098133E+00
         -2   -1    0    0    0  501 -0.00000000000E+00  0.00000000000E+00  0.95108801317E+02  0.95108801317E+02  0.00000000000E+00 0.  1.
          2   -1    0    0  501    0  0.00000000000E+00 -0.00000000000E+00 -0.19961207718E+03  0.19961207718E+03  0.00000000000E+00 0.  1.
         35    2    1    2    0    0 -0.71054273576E-14  0.14210854715E-13 -0.10450327587E+03  0.29472087850E+03  0.27557115516E+03 0.  0.
         25    2    3    3    0    0 -0.26421426638E+02  0.49708545538E+02 -0.52106896846E+02  0.14677085896E+03  0.12513003259E+03 0.  0.
         25    2    3    3    0    0  0.26421426638E+02 -0.49708545538E+02 -0.52396379021E+02  0.14795001954E+03  0.12639144142E+03 0.  0.
          5    1    4    4  502    0 -0.13595736066E+02  0.65282977988E+02 -0.84852894602E+02  0.10802228926E+03  0.47000000000E+01 0. -1.
         -5    1    4    4    0  502 -0.12825690572E+02 -0.15574432450E+02  0.32745997755E+02  0.38748569700E+02  0.47000000000E+01 0. -1.
          5    1    5    5  503    0 -0.43113163573E+02  0.52907681699E+00  0.64041029540E+01  0.43842072603E+02  0.47000000000E+01 0.  1.
         -5    1    5    5    0  503  0.69534590211E+02 -0.50237622355E+02 -0.58800481975E+02  0.10410794694E+03  0.47000000000E+01 0.  1.
<mgrwt>
<rscale>  0 0.27557116E+03</rscale>
<asrwt>0</asrwt>
<pdfrwt beam="1">  1        2 0.30709550E-01 0.27557116E+03</pdfrwt>
<pdfrwt beam="2">  1       -2 0.14632123E-01 0.27557116E+03</pdfrwt>
<totfact> 0.60514116E+03</totfact>
</mgrwt>
</event>
<event>
 9    1  0.7926126E-001  0.2651716E+03  0.7818608E-02  0.1104075E+00
          1   -1    0    0  501    0  0.00000000000E+00  0.00000000000E+00  0.99421455470E+03  0.99421455470E+03  0.00000000000E+00 0.  1.
         -1   -1    0    0    0  501 -0.00000000000E+00 -0.00000000000E+00 -0.17681289588E+02  0.17681289588E+02  0.00000000000E+00 0.  1.
         35    2    1    2    0    0  0.71054273576E-14  0.00000000000E+00  0.97653326511E+03  0.10118958443E+04  0.26517160824E+03 0.  0.
         25    2    3    3    0    0 -0.39046870534E+02  0.18426735851E+02  0.53479661419E+03  0.55076160925E+03  0.12436530459E+03 0.  0.
         25    2    3    3    0    0  0.39046870534E+02 -0.18426735851E+02  0.44173665092E+03  0.46113423503E+03  0.12509720724E+03 0.  0.
          5    1    4    4  502    0 -0.58597151039E+02  0.19650698410E+02  0.11634798059E+03  0.13182836814E+03  0.47000000000E+01 0. -1.
         -5    1    4    4    0  502  0.19550280505E+02 -0.12239625583E+01  0.41844863359E+03  0.41893324111E+03  0.47000000000E+01 0. -1.
          5    1    5    5  503    0 -0.14797319857E+02 -0.57677452532E+02  0.14211739893E+03  0.15415931462E+03  0.47000000000E+01 0.  1.
         -5    1    5    5    0  503  0.53844190391E+02  0.39250716681E+02  0.29961925199E+03  0.30697492041E+03  0.47000000000E+01 0.  1.
<mgrwt>
<rscale>  0 0.26517161E+03</rscale>
<asrwt>0</asrwt>
<pdfrwt beam="1">  1        1 0.15295604E+00 0.26517161E+03</pdfrwt>
<pdfrwt beam="2">  1       -1 0.27201992E-02 0.26517161E+03</pdfrwt>
<totfact> 0.70282125E+03</totfact>
</mgrwt>
</event>
<event>
 9    1  0.7926126E-001  0.2818654E+03  0.7818608E-02  0.1094674E+00
         -2   -1    0    0    0  501 -0.00000000000E+00  0.00000000000E+00  0.15179779517E+02  0.15179779517E+02  0.00000000000E+00 0.  1.
          2   -1    0    0  501    0  0.00000000000E+00 -0.00000000000E+00 -0.13084524843E+04  0.13084524843E+04  0.00000000000E+00 0.  1.
         35    2    1    2    0    0  0.00000000000E+00  0.00000000000E+00 -0.12932727048E+04  0.13236322638E+04  0.28186535950E+03 0.  0.
         25    2    3    3    0    0 -0.25687350465E+02  0.62456092534E+01 -0.92165696096E+03  0.93062917663E+03  0.12617552501E+03 0.  0.
         25    2    3    3    0    0  0.25687350465E+02 -0.62456092534E+01 -0.37161574384E+03  0.39300308720E+03  0.12511721652E+03 0.  0.
          5    1    4    4  502    0 -0.22716628486E+02 -0.48506340688E+02 -0.20743829038E+03  0.21429336110E+03  0.47000000000E+01 0.  1.
         -5    1    4    4    0  502 -0.29707219792E+01  0.54751949941E+02 -0.71421867058E+03  0.71633581553E+03  0.47000000000E+01 0.  1.
          5    1    5    5  503    0 -0.24380245048E+02  0.38802873355E+02 -0.69120157115E+02  0.83064706397E+02  0.47000000000E+01 0.  1.
         -5    1    5    5    0  503  0.50067595513E+02 -0.45048482609E+02 -0.30249558673E+03  0.30993838081E+03  0.47000000000E+01 0.  1.
<mgrwt>
<rscale>  0 0.28186536E+03</rscale>
<asrwt>0</asrwt>
<pdfrwt beam="1">  1        2 0.20130040E+00 0.28186536E+03</pdfrwt>
<pdfrwt beam="2">  1       -2 0.23353505E-02 0.28186536E+03</pdfrwt>
<totfact> 0.10671456E+04</totfact>
</mgrwt>
</event>
<event>
 9    1  0.7926126E-001  0.2925256E+03  0.7818608E-02  0.1089038E+00
          2   -1    0    0  501    0  0.00000000000E+00  0.00000000000E+00  0.92956839839E+03  0.92956839839E+03  0.00000000000E+00 0.  1.
         -2   -1    0    0    0  501 -0.00000000000E+00 -0.00000000000E+00 -0.23013700847E+02  0.23013700847E+02  0.00000000000E+00 0.  1.
         35    2    1    2    0    0  0.71054273576E-14 -0.71054273576E-14  0.90655469754E+03  0.95258209924E+03  0.29252561623E+03 0.  0.
         25    2    3    3    0    0  0.33038926789E+02 -0.15853652868E+02  0.26941460883E+03  0.30004670318E+03  0.12688925739E+03 0.  0.
         25    2    3    3    0    0 -0.33038926789E+02  0.15853652868E+02  0.63714008871E+03  0.65253539606E+03  0.13605896324E+03 0.  0.
          5    1    4    4  502    0  0.62795218869E+02 -0.48501954947E+02  0.11818198464E+03  0.14242454367E+03  0.47000000000E+01 0. -1.
         -5    1    4    4    0  502 -0.29756292080E+02  0.32648302079E+02  0.15123262419E+03  0.15762215950E+03  0.47000000000E+01 0. -1.
          5    1    5    5  503    0 -0.37441145074E+02 -0.55653790863E+02  0.25545002275E+03  0.26415144881E+03  0.47000000000E+01 0. -1.
         -5    1    5    5    0  503  0.44022182844E+01  0.71507443730E+02  0.38169006596E+03  0.38838394725E+03  0.47000000000E+01 0. -1.
<mgrwt>
<rscale>  0 0.29252562E+03</rscale>
<asrwt>0</asrwt>
<pdfrwt beam="1">  1        2 0.14301049E+00 0.29252562E+03</pdfrwt>
<pdfrwt beam="2">  1       -2 0.35405701E-02 0.29252562E+03</pdfrwt>
<totfact> 0.96028185E+03</totfact>
</mgrwt>
</event>
<event>
 9    1  0.7926126E-001  0.2755500E+03  0.7818608E-02  0.1098145E+00
         -2   -1    0    0    0  501 -0.00000000000E+00  0.00000000000E+00  0.21665749267E+02  0.21665749267E+02  0.00000000000E+00 0. -1.
          2   -1    0    0  501    0  0.00000000000E+00 -0.00000000000E+00 -0.87612734640E+03  0.87612734640E+03  0.00000000000E+00 0. -1.
         35    2    1    2    0    0 -0.14210854715E-13  0.00000000000E+00 -0.85446159714E+03  0.89779309567E+03  0.27555003475E+03 0.  0.
         25    2    3    3    0    0  0.48357486804E+02 -0.39039795177E+02 -0.34998982303E+03  0.37665515930E+03  0.12455392674E+03 0.  0.
         25    2    3    3    0    0 -0.48357486804E+02  0.39039795177E+02 -0.50447177411E+03  0.52113793637E+03  0.11502358765E+03 0.  0.
          5    1    4    4  502    0 -0.13217909613E+02  0.10355838324E+02  0.41096114743E+00  0.17441772015E+02  0.47000000000E+01 0. -1.
         -5    1    4    4    0  502  0.61575396417E+02 -0.49395633501E+02 -0.35040078418E+03  0.35921338729E+03  0.47000000000E+01 0. -1.
          5    1    5    5  503    0  0.25897457131E+02 -0.16511477631E+01 -0.33716993760E+02  0.42805726755E+02  0.47000000000E+01 0. -1.
         -5    1    5    5    0  503 -0.74254943935E+02  0.40690942940E+02 -0.47075478035E+03  0.47833220961E+03  0.47000000000E+01 0. -1.
<mgrwt>
<rscale>  0 0.27555003E+03</rscale>
<asrwt>0</asrwt>
<pdfrwt beam="1">  1        2 0.13478883E+00 0.27555003E+03</pdfrwt>
<pdfrwt beam="2">  1       -2 0.33331920E-02 0.27555003E+03</pdfrwt>
<totfact> 0.11359741E+04</totfact>
</mgrwt>
</event>
<event>
 9    1  0.7926126E-001  0.2773486E+03  0.7818608E-02  0.1097146E+00
         -2   -1    0    0    0  501 -0.00000000000E+00  0.00000000000E+00  0.54916091381E+03  0.54916091381E+03  0.00000000000E+00 0. -1.
          2   -1    0    0  501    0  0.00000000000E+00 -0.00000000000E+00 -0.35018088929E+02  0.35018088929E+02  0.00000000000E+00 0. -1.
         35    2    1    2    0    0  0.00000000000E+00 -0.35527136788E-14  0.51414282489E+03  0.58417900274E+03  0.27734863054E+03 0.  0.
         25    2    3    3    0    0 -0.20301955738E+02  0.28275463096E+02  0.15425153065E+03  0.20190594798E+03  0.12554204834E+03 0.  0.
         25    2    3    3    0    0  0.20301955738E+02 -0.28275463096E+02  0.35989129423E+03  0.38227305476E+03  0.12409380932E+03 0.  0.
          5    1    4    4  502    0 -0.29235754538E+02  0.54544430553E+02  0.16135659623E+03  0.17288107298E+03  0.47000000000E+01 0.  1.
         -5    1    4    4    0  502  0.89337987998E+01 -0.26268967457E+02 -0.71050655746E+01  0.29024875005E+02  0.47000000000E+01 0.  1.
          5    1    5    5  503    0  0.11412184170E+02 -0.72831825724E+02  0.28615011947E+03  0.29553120589E+03  0.47000000000E+01 0. -1.
         -5    1    5    5    0  503  0.88897715675E+01  0.44556362628E+02  0.73741174765E+02  0.86741848867E+02  0.47000000000E+01 0. -1.
<mgrwt>
<rscale>  0 0.27734863E+03</rscale>
<asrwt>0</asrwt>
<pdfrwt beam="1">  1        2 0.53873987E-02 0.27734863E+03</pdfrwt>
<pdfrwt beam="2">  1       -2 0.84486288E-01 0.27734863E+03</pdfrwt>
<totfact> 0.17934717E+03</totfact>
</mgrwt>
</event>
<event>
 9    1  0.7926126E-001  0.3022212E+03  0.7818608E-02  0.1084136E+00
          1   -1    0    0  501    0  0.00000000000E+00  0.00000000000E+00  0.20204784693E+04  0.20204784693E+04  0.00000000000E+00 0. -1.
         -1   -1    0    0    0  501 -0.00000000000E+00 -0.00000000000E+00 -0.11301486754E+02  0.11301486754E+02  0.00000000000E+00 0. -1.
         35    2    1    2    0    0  0.00000000000E+00  0.14210854715E-13  0.20091769826E+04  0.20317799561E+04  0.30222118164E+03 0.  0.
         25    2    3    3    0    0  0.96122906064E+00  0.82129349849E+02  0.11882598453E+04  0.11973912906E+04  0.12263070172E+03 0.  0.
         25    2    3    3    0    0 -0.96122906064E+00 -0.82129349849E+02  0.82091713733E+03  0.83438866545E+03  0.12471304902E+03 0.  0.
          5    1    4    4  502    0  0.14377759404E+02 -0.25909763146E+02  0.12447095593E+03  0.12803571635E+03  0.47000000000E+01 0.  1.
         -5    1    4    4    0  502 -0.13416530343E+02  0.10803911300E+03  0.10637888893E+04  0.10693555743E+04  0.47000000000E+01 0.  1.
          5    1    5    5  503    0 -0.21825264482E+02 -0.38547175161E+02  0.77514303167E+02  0.89402371770E+02  0.47000000000E+01 0.  1.
         -5    1    5    5    0  503  0.20864035421E+02 -0.43582174688E+02  0.74340283417E+03  0.74498629368E+03  0.47000000000E+01 0.  1.
<mgrwt>
<rscale>  0 0.30222118E+03</rscale>
<asrwt>0</asrwt>
<pdfrwt beam="1">  1        1 0.31084255E+00 0.30222118E+03</pdfrwt>
<pdfrwt beam="2">  1       -1 0.17386919E-02 0.30222118E+03</pdfrwt>
<totfact> 0.27511967E+03</totfact>
</mgrwt>
</event>
<event>
 9    1  0.7926126E-001  0.2793881E+03  0.7818608E-02  0.1096024E+00
         -2   -1    0    0    0  501 -0.00000000000E+00  0.00000000000E+00  0.15372797764E+02  0.15372797764E+02  0.00000000000E+00 0. -1.
          2   -1    0    0  501    0  0.00000000000E+00 -0.00000000000E+00 -0.12694130898E+04  0.12694130898E+04  0.00000000000E+00 0. -1.
         35    2    1    2    0    0  0.00000000000E+00 -0.71054273576E-14 -0.12540402920E+04  0.12847858876E+04  0.27938812222E+03 0.  0.
         25    2    3    3    0    0 -0.75443821348E+01  0.29087450190E+02 -0.88270804297E+03  0.89196057877E+03  0.12456800354E+03 0.  0.
         25    2    3    3    0    0  0.75443821348E+01 -0.29087450190E+02 -0.37133224907E+03  0.39282530880E+03  0.12458365289E+03 0.  0.
          5    1    4    4  502    0  0.18645505740E+02  0.51465887494E+02 -0.17550617574E+03  0.18390459533E+03  0.47000000000E+01 0. -1.
         -5    1    4    4    0  502 -0.26189887875E+02 -0.22378437304E+02 -0.70720186723E+03  0.70805598345E+03  0.47000000000E+01 0. -1.
          5    1    5    5  503    0 -0.21517975902E+02  0.10937489254E+00 -0.30726086159E+01  0.22238843798E+02  0.47000000000E+01 0. -1.
         -5    1    5    5    0  503  0.29062358037E+02 -0.29196825083E+02 -0.36825964046E+03  0.37058646500E+03  0.47000000000E+01 0. -1.
<mgrwt>
<rscale>  0 0.27938812E+03</rscale>
<asrwt>0</asrwt>
<pdfrwt beam="1">  1        2 0.19529429E+00 0.27938812E+03</pdfrwt>
<pdfrwt beam="2">  1       -2 0.23650462E-02 0.27938812E+03</pdfrwt>
<totfact> 0.11008166E+04</totfact>
</mgrwt>
</event>
<event>
 9    1  0.7926126E-001  0.2742671E+03  0.7818608E-02  0.1098862E+00
         -2   -1    0    0    0  501 -0.00000000000E+00  0.00000000000E+00  0.13269010401E+02  0.13269010401E+02  0.00000000000E+00 0. -1.
          2   -1    0    0  501    0  0.00000000000E+00 -0.00000000000E+00 -0.14172577741E+04  0.14172577741E+04  0.00000000000E+00 0. -1.
         35    2    1    2    0    0  0.35527136788E-14  0.00000000000E+00 -0.14039887637E+04  0.14305267845E+04  0.27426708257E+03 0.  0.
         25    2    3    3    0    0  0.23214800206E+02  0.39621458880E+02 -0.66358765535E+03  0.67681572569E+03  0.12498865252E+03 0.  0.
         25    2    3    3    0    0 -0.23214800206E+02 -0.39621458880E+02 -0.74040110838E+03  0.75371105884E+03  0.13333331157E+03 0.  0.
          5    1    4    4  502    0 -0.24450304780E+02  0.45187542505E+02 -0.11416872600E+03  0.12528495280E+03  0.47000000000E+01 0. -1.
         -5    1    4    4    0  502  0.47665104987E+02 -0.55660836242E+01 -0.54941892935E+03  0.55153077289E+03  0.47000000000E+01 0. -1.
          5    1    5    5  503    0 -0.30024628216E+02 -0.15571370997E+02 -0.38950047793E+02  0.51799055178E+02  0.47000000000E+01 0. -1.
         -5    1    5    5    0  503  0.68098280100E+01 -0.24050087883E+02 -0.70145106059E+03  0.70191200366E+03  0.47000000000E+01 0. -1.
<mgrwt>
<rscale>  0 0.27426708E+03</rscale>
<asrwt>0</asrwt>
<pdfrwt beam="1">  1        2 0.21803947E+00 0.27426708E+03</pdfrwt>
<pdfrwt beam="2">  1       -2 0.20413880E-02 0.27426708E+03</pdfrwt>
<totfact> 0.11339792E+04</totfact>
</mgrwt>
</event>
<event>
 9    1  0.7926126E-001  0.2719588E+03  0.7818608E-02  0.1100164E+00
          1   -1    0    0  501    0  0.00000000000E+00  0.00000000000E+00  0.90835279606E+03  0.90835279606E+03  0.00000000000E+00 0.  1.
         -1   -1    0    0    0  501 -0.00000000000E+00 -0.00000000000E+00 -0.20355969891E+02  0.20355969891E+02  0.00000000000E+00 0.  1.
         35    2    1    2    0    0 -0.35527136788E-14  0.71054273576E-14  0.88799682617E+03  0.92870876595E+03  0.27195883635E+03 0.  0.
         25    2    3    3    0    0 -0.16353166395E+02 -0.30867486038E+02  0.30738353999E+03  0.33360040051E+03  0.12483732944E+03 0.  0.
         25    2    3    3    0    0  0.16353166395E+02  0.30867486038E+02  0.58061328618E+03  0.59510836544E+03  0.12578533611E+03 0.  0.
          5    1    4    4  502    0  0.34107404688E+02 -0.21088593638E+02  0.27152611146E+02  0.48655915655E+02  0.47000000000E+01 0.  1.
         -5    1    4    4    0  502 -0.50460571083E+02 -0.97788923996E+01  0.28023092884E+03  0.28494448486E+03  0.47000000000E+01 0.  1.
          5    1    5    5  503    0 -0.35511907953E+00  0.76510772814E+02  0.26964551375E+03  0.28032983707E+03  0.47000000000E+01 0.  1.
         -5    1    5    5    0  503  0.16708285475E+02 -0.45643286776E+02  0.31096777243E+03  0.31477852837E+03  0.47000000000E+01 0.  1.
<mgrwt>
<rscale>  0 0.27195884E+03</rscale>
<asrwt>0</asrwt>
<pdfrwt beam="1">  1        1 0.13974655E+00 0.27195884E+03</pdfrwt>
<pdfrwt beam="2">  1       -1 0.31316884E-02 0.27195884E+03</pdfrwt>
<totfact> 0.66472241E+03</totfact>
</mgrwt>
</event>
<event>
 9    1  0.7926126E-001  0.2761169E+03  0.7818608E-02  0.1097829E+00
         -2   -1    0    0    0  501 -0.00000000000E+00  0.00000000000E+00  0.22929261491E+02  0.22929261491E+02  0.00000000000E+00 0. -1.
          2   -1    0    0  501    0  0.00000000000E+00 -0.00000000000E+00 -0.83125808863E+03  0.83125808863E+03  0.00000000000E+00 0. -1.
         35    2    1    2    0    0  0.00000000000E+00  0.35527136788E-14 -0.80832882714E+03  0.85418735012E+03  0.27611688888E+03 0.  0.
         25    2    3    3    0    0 -0.54905931056E+02 -0.28359256723E+00 -0.34302089260E+03  0.36931007774E+03  0.12534695479E+03 0.  0.
         25    2    3    3    0    0  0.54905931056E+02  0.28359256723E+00 -0.46530793454E+03  0.48487727238E+03  0.12481888331E+03 0.  0.
          5    1    4    4  502    0  0.16868895571E+02  0.35102275816E+02 -0.40639038374E+02  0.56483190820E+02  0.47000000000E+01 0.  1.
         -5    1    4    4    0  502 -0.71774826627E+02 -0.35385868383E+02 -0.30238185423E+03  0.31282688693E+03  0.47000000000E+01 0.  1.
          5    1    5    5  503    0 -0.29853299926E+02 -0.14602256828E+02 -0.26080045012E+03  0.26295134570E+03  0.47000000000E+01 0.  1.
         -5    1    5    5    0  503  0.84759230982E+02  0.14885849395E+02 -0.20450748442E+03  0.22192592668E+03  0.47000000000E+01 0.  1.
<mgrwt>
<rscale>  0 0.27611689E+03</rscale>
<asrwt>0</asrwt>
<pdfrwt beam="1">  1        2 0.12788585E+00 0.27611689E+03</pdfrwt>
<pdfrwt beam="2">  1       -2 0.35275790E-02 0.27611689E+03</pdfrwt>
<totfact> 0.11179996E+04</totfact>
</mgrwt>
</event>
<event>
 9    1  0.7926126E-001  0.2701796E+03  0.7818608E-02  0.1101177E+00
          2   -1    0    0  501    0  0.00000000000E+00  0.00000000000E+00  0.32387128722E+04  0.32387128722E+04  0.00000000000E+00 0.  1.
         -2   -1    0    0    0  501 -0.00000000000E+00 -0.00000000000E+00 -0.56347237071E+01  0.56347237071E+01  0.00000000000E+00 0.  1.
         35    2    1    2    0    0  0.00000000000E+00  0.00000000000E+00  0.32330781485E+04  0.32443475960E+04  0.27017958621E+03 0.  0.
         25    2    3    3    0    0 -0.13312750263E+02  0.32654237423E+02  0.20564619368E+04  0.20605771049E+04  0.12529476911E+03 0.  0.
         25    2    3    3    0    0  0.13312750263E+02 -0.32654237423E+02  0.11766162118E+04  0.11837704911E+04  0.12507332742E+03 0.  0.
          5    1    4    4  502    0  0.29481224778E+02  0.49323979633E+02  0.17196197858E+04  0.17205860325E+04  0.47000000000E+01 0. -1.
         -5    1    4    4    0  502 -0.42793975042E+02 -0.16669742210E+02  0.33684215095E+03  0.33999107232E+03  0.47000000000E+01 0. -1.
          5    1    5    5  503    0 -0.25388103564E+02 -0.51108828783E+02  0.26413126969E+03  0.27026669386E+03  0.47000000000E+01 0. -1.
         -5    1    5    5    0  503  0.38700853827E+02  0.18454591361E+02  0.91248494209E+03  0.91350379723E+03  0.47000000000E+01 0. -1.
<mgrwt>
<rscale>  0 0.27017959E+03</rscale>
<asrwt>0</asrwt>
<pdfrwt beam="1">  1        2 0.49826203E+00 0.27017959E+03</pdfrwt>
<pdfrwt beam="2">  1       -2 0.86688316E-03 0.27017959E+03</pdfrwt>
<totfact> 0.39167705E+03</totfact>
</mgrwt>
</event>
<event>
 9    1  0.7926126E-001  0.2834928E+03  0.7818608E-02  0.1093796E+00
          2   -1    0    0  501    0  0.00000000000E+00  0.00000000000E+00  0.80015393922E+03  0.80015393922E+03  0.00000000000E+00 0. -1.
         -2   -1    0    0    0  501 -0.00000000000E+00 -0.00000000000E+00 -0.25110215184E+02  0.25110215184E+02  0.00000000000E+00 0. -1.
         35    2    1    2    0    0 -0.21316282073E-13  0.17763568394E-14  0.77504372404E+03  0.82526415440E+03  0.28349276953E+03 0.  0.
         25    2    3    3    0    0 -0.59802024624E+02  0.11147025732E+02  0.32260176481E+03  0.35201098609E+03  0.12704053422E+03 0.  0.
         25    2    3    3    0    0  0.59802024624E+02 -0.11147025732E+02  0.45244195922E+03  0.47325316832E+03  0.12475694980E+03 0.  0.
          5    1    4    4  502    0 -0.81782138442E+01  0.59047686530E+01  0.29071134531E+03  0.29092426122E+03  0.47000000000E+01 0. -1.
         -5    1    4    4    0  502 -0.51623810780E+02  0.52422570793E+01  0.31890419500E+02  0.61086724864E+02  0.47000000000E+01 0. -1.
          5    1    5    5  503    0 -0.26218367356E+02  0.40610563923E+01  0.24358101883E+02  0.36322198353E+02  0.47000000000E+01 0. -1.
         -5    1    5    5    0  503  0.86020391980E+02 -0.15208082125E+02  0.42808385734E+03  0.43693096996E+03  0.47000000000E+01 0. -1.
<mgrwt>
<rscale>  0 0.28349277E+03</rscale>
<asrwt>0</asrwt>
<pdfrwt beam="1">  1        2 0.12310059E+00 0.28349277E+03</pdfrwt>
<pdfrwt beam="2">  1       -2 0.38631106E-02 0.28349277E+03</pdfrwt>
<totfact> 0.10253872E+04</totfact>
</mgrwt>
</event>
<event>
 9    1  0.7926126E-001  0.2735267E+03  0.7818608E-02  0.1099278E+00
         -1   -1    0    0    0  501 -0.00000000000E+00  0.00000000000E+00  0.28928165613E+02  0.28928165613E+02  0.00000000000E+00 0.  1.
          1   -1    0    0  501    0  0.00000000000E+00 -0.00000000000E+00 -0.64657449911E+03  0.64657449911E+03  0.00000000000E+00 0.  1.
         35    2    1    2    0    0  0.00000000000E+00  0.00000000000E+00 -0.61764633350E+03  0.67550266473E+03  0.27352670211E+03 0.  0.
         25    2    3    3    0    0 -0.50519519528E+02 -0.14520928379E+02 -0.33360635276E+03  0.36097478260E+03  0.12746182117E+03 0.  0.
         25    2    3    3    0    0  0.50519519528E+02  0.14520928379E+02 -0.28403998074E+03  0.31452788213E+03  0.12444275295E+03 0.  0.
          5    1    4    4  502    0  0.56060064849E+01  0.33805426310E+02 -0.22789466486E+02  0.41420815292E+02  0.47000000000E+01 0. -1.
         -5    1    4    4    0  502 -0.56125526013E+02 -0.48326354689E+02 -0.31081688627E+03  0.31955396731E+03  0.47000000000E+01 0. -1.
          5    1    5    5  503    0 -0.18676208048E+02  0.33773031437E+02 -0.20059912908E+03  0.20433188441E+03  0.47000000000E+01 0. -1.
         -5    1    5    5    0  503  0.69195727577E+02 -0.19252103058E+02 -0.83440851660E+02  0.11019599772E+03  0.47000000000E+01 0. -1.
<mgrwt>
<rscale>  0 0.27352670E+03</rscale>
<asrwt>0</asrwt>
<pdfrwt beam="1">  1        1 0.99472995E-01 0.27352670E+03</pdfrwt>
<pdfrwt beam="2">  1       -1 0.44504872E-02 0.27352670E+03</pdfrwt>
<totfact> 0.66089467E+03</totfact>
</mgrwt>
</event>
<event>
 9    1  0.7926126E-001  0.2774888E+03  0.7818608E-02  0.1097068E+00
          1   -1    0    0  501    0  0.00000000000E+00  0.00000000000E+00  0.81946755167E+03  0.81946755167E+03  0.00000000000E+00 0.  1.
         -1   -1    0    0    0  501 -0.00000000000E+00 -0.00000000000E+00 -0.23490866237E+02  0.23490866237E+02  0.00000000000E+00 0.  1.
         35    2    1    2    0    0  0.00000000000E+00  0.35527136788E-14  0.79597668543E+03  0.84295841791E+03  0.27748875755E+03 0.  0.
         25    2    3    3    0    0 -0.15320346495E+02  0.31622202499E+02  0.24534294580E+03  0.27733841575E+03  0.12445384321E+03 0.  0.
         25    2    3    3    0    0  0.15320346495E+02 -0.31622202499E+02  0.55063373963E+03  0.56562000216E+03  0.12447407324E+03 0.  0.
          5    1    4    4  502    0  0.42335805573E+02  0.19260142215E+02  0.19225170082E+03  0.19785368326E+03  0.47000000000E+01 0. -1.
         -5    1    4    4    0  502 -0.57656152068E+02  0.12362060284E+02  0.53091244985E+02  0.79484732495E+02  0.47000000000E+01 0. -1.
          5    1    5    5  503    0  0.36312445736E+02  0.12771092753E+02  0.46636147266E+03  0.46797094751E+03  0.47000000000E+01 0.  1.
         -5    1    5    5    0  503 -0.20992099241E+02 -0.44393295252E+02  0.84272266968E+02  0.97649054649E+02  0.47000000000E+01 0.  1.
<mgrwt>
<rscale>  0 0.27748876E+03</rscale>
<asrwt>0</asrwt>
<pdfrwt beam="1">  1        1 0.12607191E+00 0.27748876E+03</pdfrwt>
<pdfrwt beam="2">  1       -1 0.36139800E-02 0.27748876E+03</pdfrwt>
<totfact> 0.63403628E+03</totfact>
</mgrwt>
</event>
<event>
 9    1  0.7926126E-001  0.2751182E+03  0.7818608E-02  0.1098386E+00
          2   -1    0    0  501    0  0.00000000000E+00  0.00000000000E+00  0.16993671166E+04  0.16993671166E+04  0.00000000000E+00 0. -1.
         -2   -1    0    0    0  501 -0.00000000000E+00 -0.00000000000E+00 -0.11135032109E+02  0.11135032109E+02  0.00000000000E+00 0. -1.
         35    2    1    2    0    0  0.00000000000E+00 -0.71054273576E-14  0.16882320844E+04  0.17105021487E+04  0.27511821029E+03 0.  0.
         25    2    3    3    0    0 -0.23052046095E+02 -0.44404099389E+02  0.64407101530E+03  0.65778791625E+03  0.12391266741E+03 0.  0.
         25    2    3    3    0    0  0.23052046095E+02  0.44404099389E+02  0.10441610691E+04  0.10527142324E+04  0.12422477987E+03 0.  0.
          5    1    4    4  502    0 -0.64627499654E+02 -0.32084269537E+02  0.22221074813E+03  0.23367888362E+03  0.47000000000E+01 0.  1.
         -5    1    4    4    0  502  0.41575453559E+02 -0.12319829852E+02  0.42186026717E+03  0.42410903264E+03  0.47000000000E+01 0.  1.
          5    1    5    5  503    0 -0.36955590201E+02 -0.21031035755E+02  0.43510605340E+03  0.43720405741E+03  0.47000000000E+01 0.  1.
         -5    1    5    5    0  503  0.60007636296E+02  0.65435135144E+02  0.60905501575E+03  0.61551017500E+03  0.47000000000E+01 0.  1.
<mgrwt>
<rscale>  0 0.27511821E+03</rscale>
<asrwt>0</asrwt>
<pdfrwt beam="1">  1        2 0.26144089E+00 0.27511821E+03</pdfrwt>
<pdfrwt beam="2">  1       -2 0.17130832E-02 0.27511821E+03</pdfrwt>
<totfact> 0.10380956E+04</totfact>
</mgrwt>
</event>
<event>
 9    1  0.7926126E-001  0.2673484E+03  0.7818608E-02  0.1102807E+00
          2   -1    0    0  501    0  0.00000000000E+00  0.00000000000E+00  0.26158189132E+04  0.26158189132E+04  0.00000000000E+00 0. -1.
         -2   -1    0    0    0  501 -0.00000000000E+00 -0.00000000000E+00 -0.68310532680E+01  0.68310532680E+01  0.00000000000E+00 0. -1.
         35    2    1    2    0    0  0.00000000000E+00  0.00000000000E+00  0.26089878599E+04  0.26226499664E+04  0.26734844930E+03 0.  0.
         25    2    3    3    0    0 -0.50665405201E+01  0.10523449578E+02  0.17435270135E+04  0.17481168764E+04  0.12605456714E+03 0.  0.
         25    2    3    3    0    0  0.50665405201E+01 -0.10523449578E+02  0.86546084638E+03  0.87453309003E+03  0.12509690686E+03 0.  0.
          5    1    4    4  502    0  0.51251209341E+02  0.14947136399E+02  0.42411314772E+03  0.42748585405E+03  0.47000000000E+01 0. -1.
         -5    1    4    4    0  502 -0.56317749861E+02 -0.44236868208E+01  0.13194138658E+04  0.13206310224E+04  0.47000000000E+01 0. -1.
          5    1    5    5  503    0  0.64755084808E+02 -0.50756544375E+00  0.45228488690E+03  0.45692142383E+03  0.47000000000E+01 0.  1.
         -5    1    5    5    0  503 -0.59688544288E+02 -0.10015884134E+02  0.41317595948E+03  0.41761166620E+03  0.47000000000E+01 0.  1.
<mgrwt>
<rscale>  0 0.26734845E+03</rscale>
<asrwt>0</asrwt>
<pdfrwt beam="1">  1        2 0.40243288E+00 0.26734845E+03</pdfrwt>
<pdfrwt beam="2">  1       -2 0.10509334E-02 0.26734845E+03</pdfrwt>
<totfact> 0.68659224E+03</totfact>
</mgrwt>
</event>
<event>
 9    1  0.7926126E-001  0.2704810E+03  0.7818608E-02  0.1101005E+00
          2   -1    0    0  501    0  0.00000000000E+00  0.00000000000E+00  0.11379925725E+04  0.11379925725E+04  0.00000000000E+00 0. -1.
         -2   -1    0    0    0  501 -0.00000000000E+00 -0.00000000000E+00 -0.16072154821E+02  0.16072154821E+02  0.00000000000E+00 0. -1.
         35    2    1    2    0    0  0.10658141036E-13  0.00000000000E+00  0.11219204177E+04  0.11540647273E+04  0.27048099977E+03 0.  0.
         25    2    3    3    0    0  0.22363904691E+02  0.49997642938E+02  0.53846808783E+03  0.55495932788E+03  0.12260532396E+03 0.  0.
         25    2    3    3    0    0 -0.22363904691E+02 -0.49997642938E+02  0.58345232983E+03  0.59910539941E+03  0.12454216110E+03 0.  0.
          5    1    4    4  502    0 -0.49538715248E+02  0.16149440531E+02  0.16479171353E+03  0.17289675412E+03  0.47000000000E+01 0.  1.
         -5    1    4    4    0  502  0.71902619939E+02  0.33848202407E+02  0.37367637430E+03  0.38206257376E+03  0.47000000000E+01 0.  1.
          5    1    5    5  503    0  0.31873181605E+02 -0.25016424549E+02  0.46086825175E+03  0.46266981388E+03  0.47000000000E+01 0.  1.
         -5    1    5    5    0  503 -0.54237086296E+02 -0.24981218389E+02  0.12258407807E+03  0.13643558553E+03  0.47000000000E+01 0.  1.
<mgrwt>
<rscale>  0 0.27048100E+03</rscale>
<asrwt>0</asrwt>
<pdfrwt beam="1">  1        2 0.17507572E+00 0.27048100E+03</pdfrwt>
<pdfrwt beam="2">  1       -2 0.24726401E-02 0.27048100E+03</pdfrwt>
<totfact> 0.12229378E+04</totfact>
</mgrwt>
</event>
<event>
 9    1  0.7926126E-001  0.2770454E+03  0.7818608E-02  0.1097314E+00
         -1   -1    0    0    0  501 -0.00000000000E+00  0.00000000000E+00  0.87910135260E+02  0.87910135260E+02  0.00000000000E+00 0.  1.
          1   -1    0    0  501    0  0.00000000000E+00 -0.00000000000E+00 -0.21827442002E+03  0.21827442002E+03  0.00000000000E+00 0.  1.
         35    2    1    2    0    0  0.00000000000E+00  0.00000000000E+00 -0.13036428476E+03  0.30618455528E+03  0.27704536660E+03 0.  0.
         25    2    3    3    0    0  0.22253904906E+02 -0.45357294225E+02 -0.32810896554E+02  0.14032085718E+03  0.12673147835E+03 0.  0.
         25    2    3    3    0    0 -0.22253904906E+02  0.45357294225E+02 -0.97553388209E+02  0.16586369810E+03  0.12426416367E+03 0.  0.
          5    1    4    4  502    0 -0.29726595679E+02  0.31468146428E+02 -0.11279621053E+02  0.44980379961E+02  0.47000000000E+01 0. -1.
         -5    1    4    4    0  502  0.51980500585E+02 -0.76825440653E+02 -0.21531275501E+02  0.95340477224E+02  0.47000000000E+01 0. -1.
          5    1    5    5  503    0  0.23981717476E+02  0.57080156738E+02 -0.58200640535E+01  0.62363693058E+02  0.47000000000E+01 0. -1.
         -5    1    5    5    0  503 -0.46235622382E+02 -0.11722862513E+02 -0.91733324156E+02  0.10350000504E+03  0.47000000000E+01 0. -1.
<mgrwt>
<rscale>  0 0.27704537E+03</rscale>
<asrwt>0</asrwt>
<pdfrwt beam="1">  1        1 0.33580679E-01 0.27704537E+03</pdfrwt>
<pdfrwt beam="2">  1       -1 0.13524637E-01 0.27704537E+03</pdfrwt>
<totfact> 0.49425983E+03</totfact>
</mgrwt>
</event>
<event>
 9    1  0.7926126E-001  0.2827354E+03  0.7818608E-02  0.1094204E+00
         -3   -1    0    0    0  501 -0.00000000000E+00  0.00000000000E+00  0.30484816250E+02  0.30484816250E+02  0.00000000000E+00 0.  1.
          3   -1    0    0  501    0  0.00000000000E+00 -0.00000000000E+00 -0.65556662097E+03  0.65556662097E+03  0.00000000000E+00 0.  1.
         35    2    1    2    0    0  0.00000000000E+00  0.14210854715E-13 -0.62508180472E+03  0.68605143722E+03  0.28273540974E+03 0.  0.
         25    2    3    3    0    0 -0.16951455020E+02  0.56881208077E+02 -0.37562681155E+03  0.40033729878E+03  0.12510646499E+03 0.  0.
         25    2    3    3    0    0  0.16951455020E+02 -0.56881208077E+02 -0.24945499317E+03  0.28571413844E+03  0.12602361535E+03 0.  0.
          5    1    4    4  502    0  0.18538316360E+02  0.86816777799E+02 -0.20503413448E+03  0.22347686319E+03  0.47000000000E+01 0. -1.
         -5    1    4    4    0  502 -0.35489771380E+02 -0.29935569723E+02 -0.17059267707E+03  0.17686043559E+03  0.47000000000E+01 0. -1.
          5    1    5    5  503    0  0.44350558213E+02 -0.87019797228E+02 -0.16415769544E+03  0.19107395452E+03  0.47000000000E+01 0.  1.
         -5    1    5    5    0  503 -0.27399103193E+02  0.30138589151E+02 -0.85297297737E+02  0.94640183923E+02  0.47000000000E+01 0.  1.
<mgrwt>
<rscale>  0 0.28273541E+03</rscale>
<asrwt>0</asrwt>
<pdfrwt beam="1">  1        3 0.10085640E+00 0.28273541E+03</pdfrwt>
<pdfrwt beam="2">  1       -3 0.46899718E-02 0.28273541E+03</pdfrwt>
<totfact> 0.57102710E+02</totfact>
</mgrwt>
</event>
<event>
 9    1  0.7926126E-001  0.2883385E+03  0.7818608E-02  0.1091220E+00
          1   -1    0    0  501    0  0.00000000000E+00  0.00000000000E+00  0.15459255183E+04  0.15459255183E+04  0.00000000000E+00 0. -1.
         -1   -1    0    0    0  501 -0.00000000000E+00 -0.00000000000E+00 -0.13444874181E+02  0.13444874181E+02  0.00000000000E+00 0. -1.
         35    2    1    2    0    0  0.71054273576E-14 -0.71054273576E-14  0.15324806441E+04  0.15593703925E+04  0.28833850999E+03 0.  0.
         25    2    3    3    0    0 -0.34996502041E+02  0.59200210397E+02  0.70614455202E+03  0.72047954384E+03  0.12538430793E+03 0.  0.
         25    2    3    3    0    0  0.34996502041E+02 -0.59200210397E+02  0.82633609209E+03  0.83889084863E+03  0.12718922424E+03 0.  0.
          5    1    4    4  502    0 -0.65006996270E+02  0.74770664714E+02  0.61884688573E+03  0.62674565802E+03  0.47000000000E+01 0. -1.
         -5    1    4    4    0  502  0.30010494228E+02 -0.15570454316E+02  0.87297666289E+02  0.93733885820E+02  0.47000000000E+01 0. -1.
          5    1    5    5  503    0 -0.27393248313E+02  0.26383069563E+02  0.19808384729E+03  0.20175667763E+03  0.47000000000E+01 0. -1.
         -5    1    5    5    0  503  0.62389750355E+02 -0.85583279960E+02  0.62825224480E+03  0.63713417100E+03  0.47000000000E+01 0. -1.
<mgrwt>
<rscale>  0 0.28833851E+03</rscale>
<asrwt>0</asrwt>
<pdfrwt beam="1">  1        1 0.23783455E+00 0.28833851E+03</pdfrwt>
<pdfrwt beam="2">  1       -1 0.20684434E-02 0.28833851E+03</pdfrwt>
<totfact> 0.43569254E+03</totfact>
</mgrwt>
</event>
<event>
 9    1  0.7926126E-001  0.2751829E+03  0.7818608E-02  0.1098349E+00
         -2   -1    0    0    0  501 -0.00000000000E+00  0.00000000000E+00  0.56543799415E+02  0.56543799415E+02  0.00000000000E+00 0.  1.
          2   -1    0    0  501    0  0.00000000000E+00 -0.00000000000E+00 -0.33480972565E+03  0.33480972565E+03  0.00000000000E+00 0.  1.
         35    2    1    2    0    0  0.00000000000E+00 -0.71054273576E-14 -0.27826592623E+03  0.39135352506E+03  0.27518294983E+03 0.  0.
         25    2    3    3    0    0 -0.42724495355E+01  0.37471679794E+02 -0.75976402958E+02  0.15081839897E+03  0.12470523265E+03 0.  0.
         25    2    3    3    0    0  0.42724495355E+01 -0.37471679794E+02 -0.20228952328E+03  0.24053512609E+03  0.12455406474E+03 0.  0.
          5    1    4    4  502    0  0.18056130566E+02 -0.42801168975E+02 -0.23933655774E+02  0.52467835818E+02  0.47000000000E+01 0. -1.
         -5    1    4    4    0  502 -0.22328580102E+02  0.80272848769E+02 -0.52042747184E+02  0.98350563157E+02  0.47000000000E+01 0. -1.
          5    1    5    5  503    0 -0.18327662019E+02 -0.52702145460E+02 -0.25383230225E+02  0.61480222086E+02  0.47000000000E+01 0. -1.
         -5    1    5    5    0  503  0.22600111554E+02  0.15230465666E+02 -0.17690629305E+03  0.17905490400E+03  0.47000000000E+01 0. -1.
<mgrwt>
<rscale>  0 0.27518295E+03</rscale>
<asrwt>0</asrwt>
<pdfrwt beam="1">  1        2 0.51509188E-01 0.27518295E+03</pdfrwt>
<pdfrwt beam="2">  1       -2 0.86990461E-02 0.27518295E+03</pdfrwt>
<totfact> 0.79786982E+03</totfact>
</mgrwt>
</event>
<event>
 9    1  0.7926126E-001  0.2937136E+03  0.7818608E-02  0.1088426E+00
         -3   -1    0    0    0  501 -0.00000000000E+00  0.00000000000E+00  0.92783660943E+03  0.92783660943E+03  0.00000000000E+00 0. -1.
          3   -1    0    0  501    0  0.00000000000E+00 -0.00000000000E+00 -0.23244311525E+02  0.23244311525E+02  0.00000000000E+00 0. -1.
         35    2    1    2    0    0 -0.14210854715E-13 -0.71054273576E-14  0.90459229791E+03  0.95108092096E+03  0.29371362375E+03 0.  0.
         25    2    3    3    0    0  0.43418942829E+02 -0.43938859127E+02  0.30307528761E+03  0.33386561476E+03  0.12568130657E+03 0.  0.
         25    2    3    3    0    0 -0.43418942829E+02  0.43938859127E+02  0.60151701030E+03  0.61721530620E+03  0.12375860614E+03 0.  0.
          5    1    4    4  502    0 -0.23048023271E+02 -0.65719452143E+02  0.14383323880E+03  0.15987604058E+03  0.47000000000E+01 0. -1.
         -5    1    4    4    0  502  0.66466966100E+02  0.21780593016E+02  0.15924204881E+03  0.17398957418E+03  0.47000000000E+01 0. -1.
          5    1    5    5  503    0 -0.72593813876E+02  0.84423595786E+01  0.19883001879E+03  0.21188818188E+03  0.47000000000E+01 0. -1.
         -5    1    5    5    0  503  0.29174871047E+02  0.35496499548E+02  0.40268699151E+03  0.40532712432E+03  0.47000000000E+01 0. -1.
<mgrwt>
<rscale>  0 0.29371362E+03</rscale>
<asrwt>0</asrwt>
<pdfrwt beam="1">  1        3 0.35760486E-02 0.29371362E+03</pdfrwt>
<pdfrwt beam="2">  1       -3 0.14274406E+00 0.29371362E+03</pdfrwt>
<totfact> 0.38208237E+02</totfact>
</mgrwt>
</event>
<event>
 9    1  0.7926126E-001  0.2703674E+03  0.7818608E-02  0.1101069E+00
         -2   -1    0    0    0  501 -0.00000000000E+00  0.00000000000E+00  0.30845581322E+02  0.30845581322E+02  0.00000000000E+00 0.  1.
          2   -1    0    0  501    0  0.00000000000E+00 -0.00000000000E+00 -0.59245564665E+03  0.59245564665E+03  0.00000000000E+00 0.  1.
         35    2    1    2    0    0  0.00000000000E+00  0.00000000000E+00 -0.56161006532E+03  0.62330122797E+03  0.27036744500E+03 0.  0.
         25    2    3    3    0    0 -0.19922732180E+02 -0.30197161283E+02 -0.19750573785E+03  0.23655405325E+03  0.12506206386E+03 0.  0.
         25    2    3    3    0    0  0.19922732180E+02  0.30197161283E+02 -0.36410432747E+03  0.38674717472E+03  0.12527023614E+03 0.  0.
          5    1    4    4  502    0 -0.47652589894E+02  0.31520748431E+02 -0.58620315772E+02  0.81992428470E+02  0.47000000000E+01 0. -1.
         -5    1    4    4    0  502  0.27729857714E+02 -0.61717909714E+02 -0.13888542208E+03  0.15456162478E+03  0.47000000000E+01 0. -1.
          5    1    5    5  503    0  0.73050556474E+02  0.13013526927E+02 -0.20594125080E+03  0.21895119197E+03  0.47000000000E+01 0.  1.
         -5    1    5    5    0  503 -0.53127824294E+02  0.17183634356E+02 -0.15816307668E+03  0.16779598275E+03  0.47000000000E+01 0.  1.
<mgrwt>
<rscale>  0 0.27036744E+03</rscale>
<asrwt>0</asrwt>
<pdfrwt beam="1">  1        2 0.91147023E-01 0.27036744E+03</pdfrwt>
<pdfrwt beam="2">  1       -2 0.47454740E-02 0.27036744E+03</pdfrwt>
<totfact> 0.10796729E+04</totfact>
</mgrwt>
</event>
<event>
 9    1  0.7926126E-001  0.2676457E+03  0.7818608E-02  0.1102635E+00
          2   -1    0    0  501    0  0.00000000000E+00  0.00000000000E+00  0.66765826160E+03  0.66765826160E+03  0.00000000000E+00 0.  1.
         -2   -1    0    0    0  501 -0.00000000000E+00 -0.00000000000E+00 -0.26822941435E+02  0.26822941435E+02  0.00000000000E+00 0.  1.
         35    2    1    2    0    0  0.00000000000E+00  0.71054273576E-14  0.64083532017E+03  0.69448120304E+03  0.26764572442E+03 0.  0.
         25    2    3    3    0    0 -0.43792736306E+02 -0.19067764465E+02  0.34574366536E+03  0.37038117848E+03  0.12394414806E+03 0.  0.
         25    2    3    3    0    0  0.43792736306E+02  0.19067764465E+02  0.29509165480E+03  0.32410002456E+03  0.12522123538E+03 0.  0.
          5    1    4    4  502    0 -0.25029403580E+02 -0.67629907687E+02  0.13360144653E+03  0.15189375225E+03  0.47000000000E+01 0. -1.
         -5    1    4    4    0  502 -0.18763332726E+02  0.48562143222E+02  0.21214221883E+03  0.21848742623E+03  0.47000000000E+01 0. -1.
          5    1    5    5  503    0 -0.23312597715E+02 -0.38600535636E+02  0.94707956517E+02  0.10500078853E+03  0.47000000000E+01 0.  1.
         -5    1    5    5    0  503  0.67105334021E+02  0.57668300101E+02  0.20038369829E+03  0.21909923603E+03  0.47000000000E+01 0.  1.
<mgrwt>
<rscale>  0 0.26764572E+03</rscale>
<asrwt>0</asrwt>
<pdfrwt beam="1">  1        2 0.10271664E+00 0.26764572E+03</pdfrwt>
<pdfrwt beam="2">  1       -2 0.41266069E-02 0.26764572E+03</pdfrwt>
<totfact> 0.11581828E+04</totfact>
</mgrwt>
</event>
<event>
 9    1  0.7926126E-001  0.2750798E+03  0.7818608E-02  0.1098407E+00
         -1   -1    0    0    0  501 -0.00000000000E+00  0.00000000000E+00  0.23134925853E+02  0.23134925853E+02  0.00000000000E+00 0.  1.
          1   -1    0    0  501    0  0.00000000000E+00 -0.00000000000E+00 -0.81769105983E+03  0.81769105983E+03  0.00000000000E+00 0.  1.
         35    2    1    2    0    0 -0.35527136788E-14  0.00000000000E+00 -0.79455613398E+03  0.84082598569E+03  0.27507978508E+03 0.  0.
         25    2    3    3    0    0  0.11544467878E+02  0.37557462231E+02 -0.52349152918E+03  0.53978523650E+03  0.12562198338E+03 0.  0.
         25    2    3    3    0    0 -0.11544467878E+02 -0.37557462231E+02 -0.27106460480E+03  0.30104074919E+03  0.12492267604E+03 0.  0.
          5    1    4    4  502    0  0.73804200946E+01 -0.46424961098E+02 -0.20124563571E+03  0.20671633585E+03  0.47000000000E+01 0. -1.
         -5    1    4    4    0  502  0.41640477832E+01  0.83982423329E+02 -0.32224589347E+03  0.33306890065E+03  0.47000000000E+01 0. -1.
          5    1    5    5  503    0  0.33599253178E+02 -0.67151701899E+02 -0.17976004441E+03  0.19486924962E+03  0.47000000000E+01 0.  1.
         -5    1    5    5    0  503 -0.45143721056E+02  0.29594239668E+02 -0.91304560387E+02  0.10617149956E+03  0.47000000000E+01 0.  1.
<mgrwt>
<rscale>  0 0.27507979E+03</rscale>
<asrwt>0</asrwt>
<pdfrwt beam="1">  1        1 0.12579862E+00 0.27507979E+03</pdfrwt>
<pdfrwt beam="2">  1       -1 0.35592194E-02 0.27507979E+03</pdfrwt>
<totfact> 0.65060781E+03</totfact>
</mgrwt>
</event>
<event>
 9    1  0.7926126E-001  0.2762863E+03  0.7818608E-02  0.1097735E+00
          2   -1    0    0  501    0  0.00000000000E+00  0.00000000000E+00  0.24003514292E+04  0.24003514292E+04  0.00000000000E+00 0.  1.
         -2   -1    0    0    0  501 -0.00000000000E+00 -0.00000000000E+00 -0.79503050593E+01  0.79503050593E+01  0.00000000000E+00 0.  1.
         35    2    1    2    0    0  0.00000000000E+00 -0.71054273576E-14  0.23924011242E+04  0.24083017343E+04  0.27628627264E+03 0.  0.
         25    2    3    3    0    0  0.42273111957E+02 -0.28762780166E+02  0.98580808779E+03  0.99525288558E+03  0.12687161538E+03 0.  0.
         25    2    3    3    0    0 -0.42273111957E+02  0.28762780166E+02  0.14065930364E+04  0.14130488487E+04  0.12485497716E+03 0.  0.
          5    1    4    4  502    0  0.57697877677E+02  0.21691140091E+02  0.24959202130E+03  0.25713385180E+03  0.47000000000E+01 0.  1.
         -5    1    4    4    0  502 -0.15424765720E+02 -0.50453920257E+02  0.73621606649E+03  0.73811903378E+03  0.47000000000E+01 0.  1.
          5    1    5    5  503    0 -0.30564178738E+02  0.48153552469E+02  0.13582550766E+04  0.13594601417E+04  0.47000000000E+01 0.  1.
         -5    1    5    5    0  503 -0.11708933219E+02 -0.19390772303E+02  0.48337959754E+02  0.53588707027E+02  0.47000000000E+01 0.  1.
<mgrwt>
<rscale>  0 0.27628627E+03</rscale>
<asrwt>0</asrwt>
<pdfrwt beam="1">  1        2 0.36928426E+00 0.27628627E+03</pdfrwt>
<pdfrwt beam="2">  1       -2 0.12231258E-02 0.27628627E+03</pdfrwt>
<totfact> 0.72266766E+03</totfact>
</mgrwt>
</event>
<event>
 9    1  0.7926126E-001  0.2729384E+03  0.7818608E-02  0.1099610E+00
          1   -1    0    0  501    0  0.00000000000E+00  0.00000000000E+00  0.21168189079E+04  0.21168189079E+04  0.00000000000E+00 0. -1.
         -1   -1    0    0    0  501 -0.00000000000E+00 -0.00000000000E+00 -0.87980309451E+01  0.87980309451E+01  0.00000000000E+00 0. -1.
         35    2    1    2    0    0 -0.35527136788E-14  0.35527136788E-14  0.21080208770E+04  0.21256169388E+04  0.27293836855E+03 0.  0.
         25    2    3    3    0    0  0.14565552705E+02  0.14591571326E+02  0.14483800198E+04  0.14539548829E+04  0.12551912443E+03 0.  0.
         25    2    3    3    0    0 -0.14565552705E+02 -0.14591571326E+02  0.65964085717E+03  0.67166205592E+03  0.12481501365E+03 0.  0.
          5    1    4    4  502    0  0.54119438701E+02 -0.33099309803E+02  0.62299693631E+03  0.62623617798E+03  0.47000000000E+01 0.  1.
         -5    1    4    4    0  502 -0.39553885996E+02  0.47690881129E+02  0.82538308347E+03  0.82771870495E+03  0.47000000000E+01 0.  1.
          5    1    5    5  503    0 -0.16707213914E+02 -0.15168587112E+02  0.16137294305E+02  0.28137506983E+02  0.47000000000E+01 0.  1.
         -5    1    5    5    0  503  0.21416612093E+01  0.57701578634E+00  0.64350356287E+03  0.64352454894E+03  0.47000000000E+01 0.  1.
<mgrwt>
<rscale>  0 0.27293837E+03</rscale>
<asrwt>0</asrwt>
<pdfrwt beam="1">  1        1 0.32566404E+00 0.27293837E+03</pdfrwt>
<pdfrwt beam="2">  1       -1 0.13535449E-02 0.27293837E+03</pdfrwt>
<totfact> 0.34331615E+03</totfact>
</mgrwt>
</event>
<event>
 9    1  0.7926126E-001  0.2779005E+03  0.7818608E-02  0.1096841E+00
         -1   -1    0    0    0  501 -0.00000000000E+00  0.00000000000E+00  0.12481116268E+02  0.12481116268E+02  0.00000000000E+00 0. -1.
          1   -1    0    0  501    0  0.00000000000E+00 -0.00000000000E+00 -0.15469108739E+04  0.15469108739E+04  0.00000000000E+00 0. -1.
         35    2    1    2    0    0  0.00000000000E+00 -0.71054273576E-14 -0.15344297576E+04  0.15593919902E+04  0.27790051798E+03 0.  0.
         25    2    3    3    0    0  0.12741703548E+02  0.56504197618E+02 -0.67105805452E+03  0.68517320130E+03  0.12565161313E+03 0.  0.
         25    2    3    3    0    0 -0.12741703548E+02 -0.56504197618E+02 -0.86337170311E+03  0.87421878887E+03  0.12446974621E+03 0.  0.
          5    1    4    4  502    0  0.76130933439E+01  0.82204437482E+01 -0.59300706423E+03  0.59313152261E+03  0.47000000000E+01 0.  1.
         -5    1    4    4    0  502  0.51286102038E+01  0.48283753869E+02 -0.78050990284E+02  0.92041678683E+02  0.47000000000E+01 0.  1.
          5    1    5    5  503    0  0.21537872985E-01  0.12855032271E+02 -0.63527033365E+03  0.63541776740E+03  0.47000000000E+01 0.  1.
         -5    1    5    5    0  503 -0.12763241421E+02 -0.69359229888E+02 -0.22810136946E+03  0.23880102147E+03  0.47000000000E+01 0.  1.
<mgrwt>
<rscale>  0 0.27790052E+03</rscale>
<asrwt>0</asrwt>
<pdfrwt beam="1">  1        1 0.23798627E+00 0.27790052E+03</pdfrwt>
<pdfrwt beam="2">  1       -1 0.19201719E-02 0.27790052E+03</pdfrwt>
<totfact> 0.48497216E+03</totfact>
</mgrwt>
</event>
<event>
 9    1  0.7926126E-001  0.2747668E+03  0.7818608E-02  0.1098582E+00
         -2   -1    0    0    0  501 -0.00000000000E+00  0.00000000000E+00  0.12171596315E+04  0.12171596315E+04  0.00000000000E+00 0. -1.
          2   -1    0    0  501    0  0.00000000000E+00 -0.00000000000E+00 -0.15506752540E+02  0.15506752540E+02  0.00000000000E+00 0. -1.
         35    2    1    2    0    0 -0.14210854715E-13  0.71054273576E-14  0.12016528790E+04  0.12326663841E+04  0.27476676079E+03 0.  0.
         25    2    3    3    0    0  0.53561842077E+02 -0.75349886862E+01  0.67887605557E+03  0.69242810112E+03  0.12513324666E+03 0.  0.
         25    2    3    3    0    0 -0.53561842077E+02  0.75349886862E+01  0.52277682341E+03  0.54023828294E+03  0.12504458514E+03 0.  0.
          5    1    4    4  502    0  0.66283263853E+02  0.44638465879E+02  0.46642082243E+03  0.47324046456E+03  0.47000000000E+01 0. -1.
         -5    1    4    4    0  502 -0.12721421775E+02 -0.52173454565E+02  0.21245523314E+03  0.21918763656E+03  0.47000000000E+01 0. -1.
          5    1    5    5  503    0 -0.43940775258E+01 -0.30975032856E+02  0.41015289818E+03  0.41137118332E+03  0.47000000000E+01 0. -1.
         -5    1    5    5    0  503 -0.49167764552E+02  0.38510021542E+02  0.11262392523E+03  0.12886709962E+03  0.47000000000E+01 0. -1.
<mgrwt>
<rscale>  0 0.27476676E+03</rscale>
<asrwt>0</asrwt>
<pdfrwt beam="1">  1        2 0.23856552E-02 0.27476676E+03</pdfrwt>
<pdfrwt beam="2">  1       -2 0.18725525E+00 0.27476676E+03</pdfrwt>
<totfact> 0.74773195E+02</totfact>
</mgrwt>
</event>
<event>
 9    1  0.7926126E-001  0.2711954E+03  0.7818608E-02  0.1100597E+00
         -2   -1    0    0    0  501 -0.00000000000E+00  0.00000000000E+00  0.27130770641E+02  0.27130770641E+02  0.00000000000E+00 0.  1.
          2   -1    0    0  501    0  0.00000000000E+00 -0.00000000000E+00 -0.67770782646E+03  0.67770782646E+03  0.00000000000E+00 0.  1.
         35    2    1    2    0    0  0.00000000000E+00  0.00000000000E+00 -0.65057705582E+03  0.70483859711E+03  0.27119539525E+03 0.  0.
         25    2    3    3    0    0  0.28573851456E+02  0.44475727298E+02 -0.33692348041E+03  0.36322041637E+03  0.12496833162E+03 0.  0.
         25    2    3    3    0    0 -0.28573851456E+02 -0.44475727298E+02 -0.31365357541E+03  0.34161818074E+03  0.12461886188E+03 0.  0.
          5    1    4    4  502    0  0.36714086146E+02 -0.13210117354E+02 -0.26635907254E+02  0.47476234868E+02  0.47000000000E+01 0.  1.
         -5    1    4    4    0  502 -0.81402346890E+01  0.57685844652E+02 -0.31028757316E+03  0.31574418150E+03  0.47000000000E+01 0.  1.
          5    1    5    5  503    0 -0.34038857162E+01 -0.58772148293E+02 -0.30553344807E+03  0.31118889720E+03  0.47000000000E+01 0. -1.
         -5    1    5    5    0  503 -0.25169965740E+02  0.14296420995E+02 -0.81201273459E+01  0.30429283540E+02  0.47000000000E+01 0. -1.
<mgrwt>
<rscale>  0 0.27119540E+03</rscale>
<asrwt>0</asrwt>
<pdfrwt beam="1">  1        2 0.10426273E+00 0.27119540E+03</pdfrwt>
<pdfrwt beam="2">  1       -2 0.41739650E-02 0.27119540E+03</pdfrwt>
<totfact> 0.11188291E+04</totfact>
</mgrwt>
</event>
<event>
 9    1  0.7926126E-001  0.2812467E+03  0.7818608E-02  0.1095010E+00
          1   -1    0    0  501    0  0.00000000000E+00  0.00000000000E+00  0.13892038137E+03  0.13892038137E+03  0.00000000000E+00 0.  1.
         -1   -1    0    0    0  501 -0.00000000000E+00 -0.00000000000E+00 -0.14234717033E+03  0.14234717033E+03  0.00000000000E+00 0.  1.
         35    2    1    2    0    0 -0.71054273576E-14  0.71054273576E-14 -0.34267889660E+01  0.28126755170E+03  0.28124667599E+03 0.  0.
         25    2    3    3    0    0 -0.45664386015E+02 -0.35000646069E+02 -0.22006365810E+02  0.13926485725E+03  0.12490051623E+03 0.  0.
         25    2    3    3    0    0  0.45664386015E+02  0.35000646069E+02  0.18579576844E+02  0.14200269445E+03  0.12848845543E+03 0.  0.
          5    1    4    4  502    0 -0.50988029175E+02  0.31122884910E+02  0.16845867710E+02  0.62243765496E+02  0.47000000000E+01 0. -1.
         -5    1    4    4    0  502  0.53236431600E+01 -0.66123530979E+02 -0.38852233520E+02  0.77021091755E+02  0.47000000000E+01 0. -1.
          5    1    5    5  503    0  0.64788817594E+02  0.61728138611E+02  0.44340917014E+02  0.99980802674E+02  0.47000000000E+01 0. -1.
         -5    1    5    5    0  503 -0.19124431579E+02 -0.26727492542E+02 -0.25761340170E+02  0.42021891773E+02  0.47000000000E+01 0. -1.
<mgrwt>
<rscale>  0 0.28124668E+03</rscale>
<asrwt>0</asrwt>
<pdfrwt beam="1">  1        1 0.21372366E-01 0.28124668E+03</pdfrwt>
<pdfrwt beam="2">  1       -1 0.21899565E-01 0.28124668E+03</pdfrwt>
<totfact> 0.40473429E+03</totfact>
</mgrwt>
</event>
<event>
 9    1  0.7926126E-001  0.2755710E+03  0.7818608E-02  0.1098133E+00
          1   -1    0    0  501    0  0.00000000000E+00  0.00000000000E+00  0.27408940878E+03  0.27408940878E+03  0.00000000000E+00 0. -1.
         -1   -1    0    0    0  501 -0.00000000000E+00 -0.00000000000E+00 -0.69265137404E+02  0.69265137404E+02  0.00000000000E+00 0. -1.
         35    2    1    2    0    0 -0.35527136788E-14 -0.71054273576E-14  0.20482427137E+03  0.34335454618E+03  0.27557097496E+03 0.  0.
         25    2    3    3    0    0  0.28858650175E+02  0.34235687854E+02  0.55922909282E+02  0.14402786535E+03  0.12494698957E+03 0.  0.
         25    2    3    3    0    0 -0.28858650175E+02 -0.34235687854E+02  0.14890136209E+03  0.19932668083E+03  0.12471810632E+03 0.  0.
          5    1    4    4  502    0  0.10732000486E+02  0.21296084269E+02  0.95406050990E+02  0.98453560652E+02  0.47000000000E+01 0.  1.
         -5    1    4    4    0  502  0.18126649689E+02  0.12939603585E+02 -0.39483141708E+02  0.45574304701E+02  0.47000000000E+01 0.  1.
          5    1    5    5  503    0  0.59455525868E+01 -0.10644724367E+02  0.15589757211E+03  0.15644424803E+03  0.47000000000E+01 0.  1.
         -5    1    5    5    0  503 -0.34804202762E+02 -0.23590963486E+02 -0.69962100162E+01  0.42882432798E+02  0.47000000000E+01 0.  1.
<mgrwt>
<rscale>  0 0.27557097E+03</rscale>
<asrwt>0</asrwt>
<pdfrwt beam="1">  1        1 0.42167601E-01 0.27557097E+03</pdfrwt>
<pdfrwt beam="2">  1       -1 0.10656175E-01 0.27557097E+03</pdfrwt>
<totfact> 0.53883712E+03</totfact>
</mgrwt>
</event>
<event>
 9    1  0.7926126E-001  0.2738915E+03  0.7818608E-02  0.1099073E+00
          2   -1    0    0  501    0  0.00000000000E+00  0.00000000000E+00  0.10697620667E+03  0.10697620667E+03  0.00000000000E+00 0.  1.
         -2   -1    0    0    0  501 -0.00000000000E+00 -0.00000000000E+00 -0.17531127251E+03  0.17531127251E+03  0.00000000000E+00 0.  1.
         35    2    1    2    0    0  0.00000000000E+00  0.00000000000E+00 -0.68335065842E+02  0.28228747918E+03  0.27389147427E+03 0.  0.
         25    2    3    3    0    0  0.48663251925E+02  0.54204337595E+01 -0.61003634856E+01  0.13429887096E+03  0.12490588104E+03 0.  0.
         25    2    3    3    0    0 -0.48663251925E+02 -0.54204337595E+01 -0.62234702357E+02  0.14798860822E+03  0.12501990559E+03 0.  0.
          5    1    4    4  502    0  0.31192711537E+02 -0.36590606298E+02  0.44785694783E+02  0.65876446318E+02  0.47000000000E+01 0.  1.
         -5    1    4    4    0  502  0.17470540388E+02  0.42011040058E+02 -0.50886058268E+02  0.68422424645E+02  0.47000000000E+01 0.  1.
          5    1    5    5  503    0 -0.48282235533E+02  0.55159951080E+02 -0.32127813103E+02  0.80175313196E+02  0.47000000000E+01 0.  1.
         -5    1    5    5    0  503 -0.38101639200E+00 -0.60580384840E+02 -0.30106889254E+02  0.67813295019E+02  0.47000000000E+01 0.  1.
<mgrwt>
<rscale>  0 0.27389147E+03</rscale>
<asrwt>0</asrwt>
<pdfrwt beam="1">  1        2 0.16457878E-01 0.27389147E+03</pdfrwt>
<pdfrwt beam="2">  1       -2 0.26970965E-01 0.27389147E+03</pdfrwt>
<totfact> 0.43029088E+03</totfact>
</mgrwt>
</event>
<event>
 9    1  0.7926126E-001  0.2750615E+03  0.7818608E-02  0.1098417E+00
         -2   -1    0    0    0  501 -0.00000000000E+00  0.00000000000E+00  0.68715765756E+02  0.68715765756E+02  0.00000000000E+00 0.  1.
          2   -1    0    0  501    0  0.00000000000E+00 -0.00000000000E+00 -0.27526011927E+03  0.27526011927E+03  0.00000000000E+00 0.  1.
         35    2    1    2    0    0  0.71054273576E-14  0.00000000000E+00 -0.20654435352E+03  0.34397588503E+03  0.27506151950E+03 0.  0.
         25    2    3    3    0    0  0.48622333056E+02 -0.19270538370E+02 -0.80999405118E+02  0.15787402479E+03  0.12501127610E+03 0.  0.
         25    2    3    3    0    0 -0.48622333056E+02  0.19270538370E+02 -0.12554494840E+03  0.18610186024E+03  0.12703103320E+03 0.  0.
          5    1    4    4  502    0 -0.23622440657E+02  0.33336380185E+02 -0.69328733128E+01  0.41707177785E+02  0.47000000000E+01 0. -1.
         -5    1    4    4    0  502  0.72244773713E+02 -0.52606918555E+02 -0.74066531805E+02  0.11616684700E+03  0.47000000000E+01 0. -1.
          5    1    5    5  503    0 -0.42223677774E+02  0.58884647025E+02 -0.12630935095E+03  0.14569276838E+03  0.47000000000E+01 0.  1.
         -5    1    5    5    0  503 -0.63986552819E+01 -0.39614108655E+02  0.76440255351E+00  0.40409091863E+02  0.47000000000E+01 0.  1.
<mgrwt>
<rscale>  0 0.27506152E+03</rscale>
<asrwt>0</asrwt>
<pdfrwt beam="1">  1        2 0.42347711E-01 0.27506152E+03</pdfrwt>
<pdfrwt beam="2">  1       -2 0.10571656E-01 0.27506152E+03</pdfrwt>
<totfact> 0.72327449E+03</totfact>
</mgrwt>
</event>
<event>
 9    1  0.7926126E-001  0.2843269E+03  0.7818608E-02  0.1093349E+00
          4   -1    0    0  501    0  0.00000000000E+00  0.00000000000E+00  0.52323592363E+02  0.52323592363E+02  0.00000000000E+00 0. -1.
         -4   -1    0    0    0  501 -0.00000000000E+00 -0.00000000000E+00 -0.38625874424E+03  0.38625874424E+03  0.00000000000E+00 0. -1.
         35    2    1    2    0    0  0.71054273576E-14 -0.14210854715E-13 -0.33393515188E+03  0.43858233661E+03  0.28432688990E+03 0.  0.
         25    2    3    3    0    0 -0.32202780817E+02  0.38697284912E+02 -0.99250811703E+02  0.16811939600E+03  0.12601154207E+03 0.  0.
         25    2    3    3    0    0  0.32202780817E+02 -0.38697284912E+02 -0.23468434018E+03  0.27046294061E+03  0.12465538001E+03 0.  0.
          5    1    4    4  502    0 -0.54601772855E+00  0.61299357602E+02 -0.11127945426E+03  0.12713424526E+03  0.47000000000E+01 0. -1.
         -5    1    4    4    0  502 -0.31656763089E+02 -0.22602072691E+02  0.12028642559E+02  0.40985150738E+02  0.47000000000E+01 0. -1.
          5    1    5    5  503    0 -0.40360966251E+01 -0.73085228066E+02 -0.83353541363E+02  0.11102992162E+03  0.47000000000E+01 0.  1.
         -5    1    5    5    0  503  0.36238877442E+02  0.34387943155E+02 -0.15133079882E+03  0.15943301899E+03  0.47000000000E+01 0.  1.
<mgrwt>
<rscale>  0 0.28432689E+03</rscale>
<asrwt>0</asrwt>
<pdfrwt beam="1">  1        4 0.80497832E-02 0.28432689E+03</pdfrwt>
<pdfrwt beam="2">  1       -4 0.59424424E-01 0.28432689E+03</pdfrwt>
<totfact> 0.55680506E+02</totfact>
</mgrwt>
</event>
<event>
 9    1  0.7926126E-001  0.2744084E+03  0.7818608E-02  0.1098783E+00
         -2   -1    0    0    0  501 -0.00000000000E+00  0.00000000000E+00  0.17245189558E+02  0.17245189558E+02  0.00000000000E+00 0.  1.
          2   -1    0    0  501    0  0.00000000000E+00 -0.00000000000E+00 -0.10916085152E+04  0.10916085152E+04  0.00000000000E+00 0.  1.
         35    2    1    2    0    0  0.00000000000E+00  0.00000000000E+00 -0.10743633256E+04  0.11088537048E+04  0.27440842383E+03 0.  0.
         25    2    3    3    0    0  0.30302017624E+02 -0.48396524747E+02 -0.54511102903E+03  0.56209031129E+03  0.12465571868E+03 0.  0.
         25    2    3    3    0    0 -0.30302017624E+02  0.48396524747E+02 -0.52925229660E+03  0.54676339346E+03  0.12482699662E+03 0.  0.
          5    1    4    4  502    0 -0.34788144606E+02 -0.25356292456E+02 -0.72570887476E+02  0.84509054434E+02  0.47000000000E+01 0. -1.
         -5    1    4    4    0  502  0.65090162230E+02 -0.23040232291E+02 -0.47254014156E+03  0.47758125686E+03  0.47000000000E+01 0. -1.
          5    1    5    5  503    0 -0.27026560375E+01  0.69348104941E+02 -0.14392774866E+03  0.15985540605E+03  0.47000000000E+01 0. -1.
         -5    1    5    5    0  503 -0.27599361586E+02 -0.20951580194E+02 -0.38532454794E+03  0.38690798741E+03  0.47000000000E+01 0. -1.
<mgrwt>
<rscale>  0 0.27440842E+03</rscale>
<asrwt>0</asrwt>
<pdfrwt beam="1">  1        2 0.16793976E+00 0.27440842E+03</pdfrwt>
<pdfrwt beam="2">  1       -2 0.26531062E-02 0.27440842E+03</pdfrwt>
<totfact> 0.11732399E+04</totfact>
</mgrwt>
</event>
<event>
 9    1  0.7926126E-001  0.2782721E+03  0.7818608E-02  0.1096636E+00
          2   -1    0    0  501    0  0.00000000000E+00  0.00000000000E+00  0.11708602647E+03  0.11708602647E+03  0.00000000000E+00 0.  1.
         -2   -1    0    0    0  501 -0.00000000000E+00 -0.00000000000E+00 -0.16533862293E+03  0.16533862293E+03  0.00000000000E+00 0.  1.
         35    2    1    2    0    0  0.10658141036E-13  0.00000000000E+00 -0.48252596453E+02  0.28242464940E+03  0.27827211417E+03 0.  0.
         25    2    3    3    0    0  0.31653287348E+02  0.51272358106E+02 -0.14361401658E+02  0.13990944322E+03  0.12544965978E+03 0.  0.
         25    2    3    3    0    0 -0.31653287348E+02 -0.51272358106E+02 -0.33891194795E+02  0.14251520618E+03  0.12462417743E+03 0.  0.
          5    1    4    4  502    0  0.47089361294E+02  0.78066841036E+02  0.19988222573E+02  0.93452975651E+02  0.47000000000E+01 0.  1.
         -5    1    4    4    0  502 -0.15436073946E+02 -0.26794482930E+02 -0.34349624231E+02  0.46456467570E+02  0.47000000000E+01 0.  1.
          5    1    5    5  503    0 -0.32976531142E+02 -0.88514134115E+02 -0.42961819274E+02  0.10387497995E+03  0.47000000000E+01 0.  1.
         -5    1    5    5    0  503  0.13232437935E+01  0.37241776009E+02  0.90706244789E+01  0.38640226227E+02  0.47000000000E+01 0.  1.
<mgrwt>
<rscale>  0 0.27827211E+03</rscale>
<asrwt>0</asrwt>
<pdfrwt beam="1">  1        2 0.18013235E-01 0.27827211E+03</pdfrwt>
<pdfrwt beam="2">  1       -2 0.25436711E-01 0.27827211E+03</pdfrwt>
<totfact> 0.42998038E+03</totfact>
</mgrwt>
</event>
<event>
 9    1  0.7926126E-001  0.2759832E+03  0.7818608E-02  0.1097903E+00
          2   -1    0    0  501    0  0.00000000000E+00  0.00000000000E+00  0.79779407381E+03  0.79779407381E+03  0.00000000000E+00 0.  1.
         -2   -1    0    0    0  501 -0.00000000000E+00 -0.00000000000E+00 -0.23867921898E+02  0.23867921898E+02  0.00000000000E+00 0.  1.
         35    2    1    2    0    0 -0.71054273576E-14  0.00000000000E+00  0.77392615192E+03  0.82166199571E+03  0.27598323605E+03 0.  0.
         25    2    3    3    0    0 -0.31437199660E+02 -0.48198624337E+02  0.37408947569E+03  0.39903825567E+03  0.12640090488E+03 0.  0.
         25    2    3    3    0    0  0.31437199660E+02  0.48198624337E+02  0.39983667622E+03  0.42262374004E+03  0.12421776476E+03 0.  0.
          5    1    4    4  502    0 -0.70816107712E+02 -0.64519445619E+02  0.26477876628E+03  0.28161598863E+03  0.47000000000E+01 0.  1.
         -5    1    4    4    0  502  0.39378908052E+02  0.16320821282E+02  0.10931070941E+03  0.11742226705E+03  0.47000000000E+01 0.  1.
          5    1    5    5  503    0 -0.30521769833E+02 -0.10813924639E+02  0.35224961375E+02  0.48077097497E+02  0.47000000000E+01 0.  1.
         -5    1    5    5    0  503  0.61958969493E+02  0.59012548976E+02  0.36461171485E+03  0.37454664254E+03  0.47000000000E+01 0.  1.
<mgrwt>
<rscale>  0 0.27598324E+03</rscale>
<asrwt>0</asrwt>
<pdfrwt beam="1">  1        2 0.12273753E+00 0.27598324E+03</pdfrwt>
<pdfrwt beam="2">  1       -2 0.36719886E-02 0.27598324E+03</pdfrwt>
<totfact> 0.11097195E+04</totfact>
</mgrwt>
</event>
<event>
 9    1  0.7926126E-001  0.2755548E+03  0.7818608E-02  0.1098142E+00
          3   -1    0    0  501    0  0.00000000000E+00  0.00000000000E+00  0.22876736314E+03  0.22876736314E+03  0.00000000000E+00 0. -1.
         -3   -1    0    0    0  501 -0.00000000000E+00 -0.00000000000E+00 -0.82977820270E+02  0.82977820270E+02  0.00000000000E+00 0. -1.
         35    2    1    2    0    0 -0.71054273576E-14 -0.71054273576E-14  0.14578954287E+03  0.31174518341E+03  0.27555483768E+03 0.  0.
         25    2    3    3    0    0 -0.38973298082E+02  0.37196894927E+02  0.92933408165E+02  0.16524124884E+03  0.12556084186E+03 0.  0.
         25    2    3    3    0    0  0.38973298082E+02 -0.37196894927E+02  0.52856134705E+02  0.14650393457E+03  0.12556713309E+03 0.  0.
          5    1    4    4  502    0  0.28973526078E+02 -0.23757182196E+02  0.44441190673E+01  0.38022481686E+02  0.47000000000E+01 0. -1.
         -5    1    4    4    0  502 -0.67946824160E+02  0.60954077123E+02  0.88489289098E+02  0.12721876715E+03  0.47000000000E+01 0. -1.
          5    1    5    5  503    0  0.79671284689E+02 -0.49432829016E+02  0.36632776999E+02  0.10077285616E+03  0.47000000000E+01 0. -1.
         -5    1    5    5    0  503 -0.40697986607E+02  0.12235934089E+02  0.16223357706E+02  0.45731078406E+02  0.47000000000E+01 0. -1.
<mgrwt>
<rscale>  0 0.27555484E+03</rscale>
<asrwt>0</asrwt>
<pdfrwt beam="1">  1        3 0.35194979E-01 0.27555484E+03</pdfrwt>
<pdfrwt beam="2">  1       -3 0.12765819E-01 0.27555484E+03</pdfrwt>
<totfact> 0.98879340E+02</totfact>
</mgrwt>
</event>
<event>
 9    1  0.7926126E-001  0.2757834E+03  0.7818608E-02  0.1098015E+00
         -1   -1    0    0    0  501 -0.00000000000E+00  0.00000000000E+00  0.14185323110E+02  0.14185323110E+02  0.00000000000E+00 0. -1.
          1   -1    0    0  501    0  0.00000000000E+00 -0.00000000000E+00 -0.13404077095E+04  0.13404077095E+04  0.00000000000E+00 0. -1.
         35    2    1    2    0    0  0.00000000000E+00  0.00000000000E+00 -0.13262223864E+04  0.13545930326E+04  0.27578336758E+03 0.  0.
         25    2    3    3    0    0 -0.47006915695E+02  0.18983863010E+02 -0.52841161088E+03  0.54546266247E+03  0.12546174099E+03 0.  0.
         25    2    3    3    0    0  0.47006915695E+02 -0.18983863010E+02 -0.79781077550E+03  0.80913037013E+03  0.12497953909E+03 0.  0.
          5    1    4    4  502    0 -0.60750867540E+02 -0.40788007011E+02 -0.26429010275E+03  0.27427299874E+03  0.47000000000E+01 0.  1.
         -5    1    4    4    0  502  0.13743951844E+02  0.59771870022E+02 -0.26412150813E+03  0.27118966373E+03  0.47000000000E+01 0.  1.
          5    1    5    5  503    0 -0.18791917778E+01 -0.50867845200E+02 -0.14591669136E+03  0.15461190075E+03  0.47000000000E+01 0. -1.
         -5    1    5    5    0  503  0.48886107473E+02  0.31883982190E+02 -0.65189408414E+03  0.65451846938E+03  0.47000000000E+01 0. -1.
<mgrwt>
<rscale>  0 0.27578337E+03</rscale>
<asrwt>0</asrwt>
<pdfrwt beam="1">  1        1 0.20621660E+00 0.27578337E+03</pdfrwt>
<pdfrwt beam="2">  1       -1 0.21823570E-02 0.27578337E+03</pdfrwt>
<totfact> 0.55250886E+03</totfact>
</mgrwt>
</event>
<event>
 9    1  0.7926126E-001  0.2765677E+03  0.7818608E-02  0.1097578E+00
          3   -1    0    0  501    0  0.00000000000E+00  0.00000000000E+00  0.59853655074E+02  0.59853655074E+02  0.00000000000E+00 0.  1.
         -3   -1    0    0    0  501 -0.00000000000E+00 -0.00000000000E+00 -0.31948630313E+03  0.31948630313E+03  0.00000000000E+00 0.  1.
         35    2    1    2    0    0  0.00000000000E+00  0.00000000000E+00 -0.25963264806E+03  0.37933995820E+03  0.27656769868E+03 0.  0.
         25    2    3    3    0    0 -0.36812277560E+02 -0.95139990373E+01 -0.56385505751E+02  0.13754628553E+03  0.11955749850E+03 0.  0.
         25    2    3    3    0    0  0.36812277560E+02  0.95139990373E+01 -0.20324714230E+03  0.24179367268E+03  0.12533602569E+03 0.  0.
          5    1    4    4  502    0 -0.11833424987E+02 -0.26204950768E+01  0.37682308619E+02  0.39861551955E+02  0.47000000000E+01 0.  1.
         -5    1    4    4    0  502 -0.24978852573E+02 -0.68935039605E+01 -0.94067814370E+02  0.97684733572E+02  0.47000000000E+01 0.  1.
          5    1    5    5  503    0  0.18376584580E+02  0.20021849717E+02  0.85571861002E+01  0.28877132144E+02  0.47000000000E+01 0. -1.
         -5    1    5    5    0  503  0.18435692980E+02 -0.10507850680E+02 -0.21180432841E+03  0.21291654053E+03  0.47000000000E+01 0. -1.
<mgrwt>
<rscale>  0 0.27656770E+03</rscale>
<asrwt>0</asrwt>
<pdfrwt beam="1">  1        3 0.92082548E-02 0.27656770E+03</pdfrwt>
<pdfrwt beam="2">  1       -3 0.49151738E-01 0.27656770E+03</pdfrwt>
<totfact> 0.88992660E+02</totfact>
</mgrwt>
</event>
<event>
 9    1  0.7926126E-001  0.2718548E+03  0.7818608E-02  0.1100223E+00
          1   -1    0    0  501    0  0.00000000000E+00  0.00000000000E+00  0.77119156609E+02  0.77119156609E+02  0.00000000000E+00 0. -1.
         -1   -1    0    0    0  501 -0.00000000000E+00 -0.00000000000E+00 -0.23958062915E+03  0.23958062915E+03  0.00000000000E+00 0. -1.
         35    2    1    2    0    0  0.35527136788E-14  0.00000000000E+00 -0.16246147254E+03  0.31669978576E+03  0.27185478520E+03 0.  0.
         25    2    3    3    0    0 -0.17321166728E+02 -0.51554475878E+02 -0.61028071622E+02  0.14641724556E+03  0.12147303187E+03 0.  0.
         25    2    3    3    0    0  0.17321166728E+02  0.51554475878E+02 -0.10143340092E+03  0.17028254020E+03  0.12549709907E+03 0.  0.
          5    1    4    4  502    0  0.44144346819E+01  0.39036422522E+02 -0.22297067853E+02  0.45415622331E+02  0.47000000000E+01 0. -1.
         -5    1    4    4    0  502 -0.21735601410E+02 -0.90590898400E+02 -0.38731003768E+02  0.10100162323E+03  0.47000000000E+01 0. -1.
          5    1    5    5  503    0  0.45546690760E+02  0.38798998980E+02 -0.11978191084E+03  0.13397633943E+03  0.47000000000E+01 0. -1.
         -5    1    5    5    0  503 -0.28225524032E+02  0.12755476898E+02  0.18348509928E+02  0.36306200770E+02  0.47000000000E+01 0. -1.
<mgrwt>
<rscale>  0 0.27185479E+03</rscale>
<asrwt>0</asrwt>
<pdfrwt beam="1">  1        1 0.11864486E-01 0.27185479E+03</pdfrwt>
<pdfrwt beam="2">  1       -1 0.36858558E-01 0.27185479E+03</pdfrwt>
<totfact> 0.36179537E+03</totfact>
</mgrwt>
</event>
<event>
 9    1  0.7926126E-001  0.2720915E+03  0.7818608E-02  0.1100089E+00
          2   -1    0    0  501    0  0.00000000000E+00  0.00000000000E+00  0.24271485255E+03  0.24271485255E+03  0.00000000000E+00 0.  1.
         -2   -1    0    0    0  501 -0.00000000000E+00 -0.00000000000E+00 -0.76255937715E+02  0.76255937715E+02  0.00000000000E+00 0.  1.
         35    2    1    2    0    0  0.00000000000E+00  0.00000000000E+00  0.16645891484E+03  0.31897079027E+03  0.27209151901E+03 0.  0.
         25    2    3    3    0    0  0.29097103910E+02 -0.39392438906E+02  0.71618049831E+02  0.15251055603E+03  0.12542694663E+03 0.  0.
         25    2    3    3    0    0 -0.29097103910E+02  0.39392438906E+02  0.94840865008E+02  0.16646023424E+03  0.12773337155E+03 0.  0.
          5    1    4    4  502    0  0.17659806834E+01 -0.29405448021E+02 -0.32609186127E+02  0.44195566304E+02  0.47000000000E+01 0. -1.
         -5    1    4    4    0  502  0.27331123226E+02 -0.99869908851E+01  0.10422723596E+03  0.10831498972E+03  0.47000000000E+01 0. -1.
          5    1    5    5  503    0 -0.48857475474E-01  0.28035929197E+02 -0.27840294324E+02  0.39789291286E+02  0.47000000000E+01 0.  1.
         -5    1    5    5    0  503 -0.29048246434E+02  0.11356509708E+02  0.12268115933E+03  0.12667094295E+03  0.47000000000E+01 0.  1.
<mgrwt>
<rscale>  0 0.27209152E+03</rscale>
<asrwt>0</asrwt>
<pdfrwt beam="1">  1        2 0.37340746E-01 0.27209152E+03</pdfrwt>
<pdfrwt beam="2">  1       -2 0.11731683E-01 0.27209152E+03</pdfrwt>
<totfact> 0.70072124E+03</totfact>
</mgrwt>
</event>
<event>
 9    1  0.7926126E-001  0.2758575E+03  0.7818608E-02  0.1097973E+00
         -3   -1    0    0    0  501 -0.00000000000E+00  0.00000000000E+00  0.25197548882E+02  0.25197548882E+02  0.00000000000E+00 0.  1.
          3   -1    0    0  501    0  0.00000000000E+00 -0.00000000000E+00 -0.75500747304E+03  0.75500747304E+03  0.00000000000E+00 0.  1.
         35    2    1    2    0    0 -0.35527136788E-14 -0.71054273576E-14 -0.72980992416E+03  0.78020502192E+03  0.27585748283E+03 0.  0.
         25    2    3    3    0    0 -0.29446334896E+02 -0.49919299317E+02 -0.35117279032E+03  0.37737218542E+03  0.12541297616E+03 0.  0.
         25    2    3    3    0    0  0.29446334896E+02  0.49919299317E+02 -0.37863713384E+03  0.40283283649E+03  0.12469639912E+03 0.  0.
          5    1    4    4  502    0 -0.12446813966E+02 -0.85384556691E+02 -0.15709790969E+03  0.17929665063E+03  0.47000000000E+01 0. -1.
         -5    1    4    4    0  502 -0.16999520930E+02  0.35465257373E+02 -0.19407488063E+03  0.19807553479E+03  0.47000000000E+01 0. -1.
          5    1    5    5  503    0  0.29378414724E+01  0.86115742330E+02 -0.30011673081E+03  0.31227663073E+03  0.47000000000E+01 0. -1.
         -5    1    5    5    0  503  0.26508493424E+02 -0.36196443013E+02 -0.78520403029E+02  0.90556205763E+02  0.47000000000E+01 0. -1.
<mgrwt>
<rscale>  0 0.27585748E+03</rscale>
<asrwt>0</asrwt>
<pdfrwt beam="1">  1        3 0.11615499E+00 0.27585748E+03</pdfrwt>
<pdfrwt beam="2">  1       -3 0.38765461E-02 0.27585748E+03</pdfrwt>
<totfact> 0.55415802E+02</totfact>
</mgrwt>
</event>
<event>
 9    1  0.7926126E-001  0.2748514E+03  0.7818608E-02  0.1098535E+00
         -2   -1    0    0    0  501 -0.00000000000E+00  0.00000000000E+00  0.65729873530E+01  0.65729873530E+01  0.00000000000E+00 0. -1.
          2   -1    0    0  501    0  0.00000000000E+00 -0.00000000000E+00 -0.28732479961E+04  0.28732479961E+04  0.00000000000E+00 0. -1.
         35    2    1    2    0    0  0.00000000000E+00  0.10658141036E-13 -0.28666750087E+04  0.28798209835E+04  0.27485139796E+03 0.  0.
         25    2    3    3    0    0 -0.47582252826E+01 -0.27954955128E+02 -0.19629931222E+04  0.19671814825E+04  0.12512740369E+03 0.  0.
         25    2    3    3    0    0  0.47582252826E+01  0.27954955128E+02 -0.90368188653E+03  0.91263950091E+03  0.12436151478E+03 0.  0.
          5    1    4    4  502    0  0.54785303018E+02  0.11439841505E+02 -0.77110893798E+03  0.77315159163E+03  0.47000000000E+01 0.  1.
         -5    1    4    4    0  502 -0.59543528301E+02 -0.39394796632E+02 -0.11918841842E+04  0.11940298909E+04  0.47000000000E+01 0.  1.
          5    1    5    5  503    0 -0.47485678463E+02  0.36744534575E+02 -0.26549613178E+03  0.27224132029E+03  0.47000000000E+01 0.  1.
         -5    1    5    5    0  503  0.52243903746E+02 -0.87895794473E+01 -0.63818575475E+03  0.64039818062E+03  0.47000000000E+01 0.  1.
<mgrwt>
<rscale>  0 0.27485140E+03</rscale>
<asrwt>0</asrwt>
<pdfrwt beam="1">  1        2 0.44203718E+00 0.27485140E+03</pdfrwt>
<pdfrwt beam="2">  1       -2 0.10112310E-02 0.27485140E+03</pdfrwt>
<totfact> 0.51864042E+03</totfact>
</mgrwt>
</event>
<event>
 9    1  0.7926126E-001  0.2805604E+03  0.7818608E-02  0.1095383E+00
          2   -1    0    0  501    0  0.00000000000E+00  0.00000000000E+00  0.40000718207E+03  0.40000718207E+03  0.00000000000E+00 0. -1.
         -2   -1    0    0    0  501 -0.00000000000E+00 -0.00000000000E+00 -0.49195454931E+02  0.49195454931E+02  0.00000000000E+00 0. -1.
         35    2    1    2    0    0  0.00000000000E+00  0.35527136788E-14  0.35081172714E+03  0.44920263700E+03  0.28056040560E+03 0.  0.
         25    2    3    3    0    0  0.54756303556E+02  0.12512982373E+02  0.17306727165E+03  0.22474033880E+03  0.13191327402E+03 0.  0.
         25    2    3    3    0    0 -0.54756303556E+02 -0.12512982373E+02  0.17774445549E+03  0.22446229820E+03  0.12504161047E+03 0.  0.
          5    1    4    4  502    0 -0.11856163790E+02 -0.48438567817E+02  0.41210009885E+02  0.64863074138E+02  0.47000000000E+01 0.  1.
         -5    1    4    4    0  502  0.66612467346E+02  0.60951550190E+02  0.13185726177E+03  0.15987726467E+03  0.47000000000E+01 0.  1.
          5    1    5    5  503    0 -0.86908858653E+02  0.16417977273E+02  0.14538744611E+03  0.17024188432E+03  0.47000000000E+01 0. -1.
         -5    1    5    5    0  503  0.32152555097E+02 -0.28930959646E+02  0.32357009381E+02  0.54220413880E+02  0.47000000000E+01 0. -1.
<mgrwt>
<rscale>  0 0.28056041E+03</rscale>
<asrwt>0</asrwt>
<pdfrwt beam="1">  1        2 0.61539564E-01 0.28056041E+03</pdfrwt>
<pdfrwt beam="2">  1       -2 0.75685318E-02 0.28056041E+03</pdfrwt>
<totfact> 0.81889286E+03</totfact>
</mgrwt>
</event>
<event>
 9    1  0.7926126E-001  0.2763606E+03  0.7818608E-02  0.1097693E+00
         -2   -1    0    0    0  501 -0.00000000000E+00  0.00000000000E+00  0.19694098029E+03  0.19694098029E+03  0.00000000000E+00 0. -1.
          2   -1    0    0  501    0  0.00000000000E+00 -0.00000000000E+00 -0.96951836952E+02  0.96951836952E+02  0.00000000000E+00 0. -1.
         35    2    1    2    0    0 -0.35527136788E-14 -0.28421709430E-13  0.99989143339E+02  0.29389281724E+03  0.27636056021E+03 0.  0.
         25    2    3    3    0    0 -0.22597475544E+01  0.58657491872E+02  0.55188206923E+02  0.14926136500E+03  0.12564795696E+03 0.  0.
         25    2    3    3    0    0  0.22597475544E+01 -0.58657491872E+02  0.44800936416E+02  0.14463145224E+03  0.12435966091E+03 0.  0.
          5    1    4    4  502    0  0.50541445898E+02  0.44417708240E+02 -0.52065875393E+01  0.67650344511E+02  0.47000000000E+01 0.  1.
         -5    1    4    4    0  502 -0.52801193452E+02  0.14239783632E+02  0.60394794462E+02  0.81611020494E+02  0.47000000000E+01 0.  1.
          5    1    5    5  503    0 -0.18604461107E+02 -0.70041351074E+02 -0.20102566840E+02  0.75353301367E+02  0.47000000000E+01 0. -1.
         -5    1    5    5    0  503  0.20864208662E+02  0.11383859202E+02  0.64903503256E+02  0.69278150872E+02  0.47000000000E+01 0. -1.
<mgrwt>
<rscale>  0 0.27636056E+03</rscale>
<asrwt>0</asrwt>
<pdfrwt beam="1">  1        2 0.14915667E-01 0.27636056E+03</pdfrwt>
<pdfrwt beam="2">  1       -2 0.30298612E-01 0.27636056E+03</pdfrwt>
<totfact> 0.39194812E+03</totfact>
</mgrwt>
</event>
<event>
 9    1  0.7926126E-001  0.2745598E+03  0.7818608E-02  0.1098698E+00
          2   -1    0    0  501    0  0.00000000000E+00  0.00000000000E+00  0.12306650486E+04  0.12306650486E+04  0.00000000000E+00 0.  1.
         -2   -1    0    0    0  501 -0.00000000000E+00 -0.00000000000E+00 -0.15313485171E+02  0.15313485171E+02  0.00000000000E+00 0.  1.
         35    2    1    2    0    0 -0.71054273576E-14 -0.53290705182E-14  0.12153515634E+04  0.12459785338E+04  0.27455980020E+03 0.  0.
         25    2    3    3    0    0  0.23380333311E+02  0.13900690489E+02  0.38300119805E+03  0.40385814454E+03  0.12518631724E+03 0.  0.
         25    2    3    3    0    0 -0.23380333311E+02 -0.13900690489E+02  0.83235036538E+03  0.84212038923E+03  0.12497899833E+03 0.  0.
          5    1    4    4  502    0  0.71722457355E+02  0.15638165112E+01  0.16182877204E+03  0.17707963709E+03  0.47000000000E+01 0. -1.
         -5    1    4    4    0  502 -0.48342124044E+02  0.12336873978E+02  0.22117242601E+03  0.22677850746E+03  0.47000000000E+01 0. -1.
          5    1    5    5  503    0  0.14259529265E+02  0.37835543181E+02  0.11660450983E+03  0.12350532060E+03  0.47000000000E+01 0.  1.
         -5    1    5    5    0  503 -0.37639862576E+02 -0.51736233670E+02  0.71574585555E+03  0.71861506863E+03  0.47000000000E+01 0.  1.
<mgrwt>
<rscale>  0 0.27455980E+03</rscale>
<asrwt>0</asrwt>
<pdfrwt beam="1">  1        2 0.18933301E+00 0.27455980E+03</pdfrwt>
<pdfrwt beam="2">  1       -2 0.23559218E-02 0.27455980E+03</pdfrwt>
<totfact> 0.11633918E+04</totfact>
</mgrwt>
</event>
<event>
 9    1  0.7926126E-001  0.2736516E+03  0.7818608E-02  0.1099208E+00
         -1   -1    0    0    0  501 -0.00000000000E+00  0.00000000000E+00  0.21434624105E+02  0.21434624105E+02  0.00000000000E+00 0.  1.
          1   -1    0    0  501    0  0.00000000000E+00 -0.00000000000E+00 -0.87341393509E+03  0.87341393509E+03  0.00000000000E+00 0.  1.
         35    2    1    2    0    0  0.00000000000E+00  0.71054273576E-14 -0.85197931099E+03  0.89484855920E+03  0.27365159884E+03 0.  0.
         25    2    3    3    0    0 -0.38866377265E+02  0.44107737596E+02 -0.43039022849E+03  0.45221408873E+03  0.12572090304E+03 0.  0.
         25    2    3    3    0    0  0.38866377265E+02 -0.44107737596E+02 -0.42158908249E+03  0.44263447047E+03  0.12137475921E+03 0.  0.
          5    1    4    4  502    0  0.13629214075E+02 -0.99298622254E+01 -0.24604102209E+01  0.17677705127E+02  0.47000000000E+01 0.  1.
         -5    1    4    4    0  502 -0.52495591340E+02  0.54037599821E+02 -0.42792981827E+03  0.43453638360E+03  0.47000000000E+01 0.  1.
          5    1    5    5  503    0 -0.26513799311E+02 -0.21191400906E+02 -0.31930430046E+02  0.46836944703E+02  0.47000000000E+01 0.  1.
         -5    1    5    5    0  503  0.65380176577E+02 -0.22916336690E+02 -0.38965865245E+03  0.39579752577E+03  0.47000000000E+01 0.  1.
<mgrwt>
<rscale>  0 0.27365160E+03</rscale>
<asrwt>0</asrwt>
<pdfrwt beam="1">  1        1 0.13437132E+00 0.27365160E+03</pdfrwt>
<pdfrwt beam="2">  1       -1 0.32976357E-02 0.27365160E+03</pdfrwt>
<totfact> 0.65636928E+03</totfact>
</mgrwt>
</event>
<event>
 9    1  0.7926126E-001  0.2759115E+03  0.7818608E-02  0.1097943E+00
         -2   -1    0    0    0  501 -0.00000000000E+00  0.00000000000E+00  0.46735257731E+02  0.46735257731E+02  0.00000000000E+00 0. -1.
          2   -1    0    0  501    0  0.00000000000E+00 -0.00000000000E+00 -0.40722547910E+03  0.40722547910E+03  0.00000000000E+00 0. -1.
         35    2    1    2    0    0  0.00000000000E+00  0.14210854715E-13 -0.36049022136E+03  0.45396073683E+03  0.27591149103E+03 0.  0.
         25    2    3    3    0    0 -0.46880587460E+02 -0.36262507574E+02 -0.17365132412E+03  0.22151944302E+03  0.12411012179E+03 0.  0.
         25    2    3    3    0    0  0.46880587460E+02  0.36262507574E+02 -0.18683889725E+03  0.23244129381E+03  0.12492967064E+03 0.  0.
          5    1    4    4  502    0 -0.12727713616E+02  0.44644833954E+02 -0.39630563036E+02  0.61219501952E+02  0.47000000000E+01 0.  1.
         -5    1    4    4    0  502 -0.34152873845E+02 -0.80907341528E+02 -0.13402076108E+03  0.16029994107E+03  0.47000000000E+01 0.  1.
          5    1    5    5  503    0 -0.22597154669E+02  0.17975310438E+01 -0.13960620768E+03  0.14151270522E+03  0.47000000000E+01 0.  1.
         -5    1    5    5    0  503  0.69477742129E+02  0.34464976531E+02 -0.47232689572E+02  0.90928588590E+02  0.47000000000E+01 0.  1.
<mgrwt>
<rscale>  0 0.27591149E+03</rscale>
<asrwt>0</asrwt>
<pdfrwt beam="1">  1        2 0.62650072E-01 0.27591149E+03</pdfrwt>
<pdfrwt beam="2">  1       -2 0.71900399E-02 0.27591149E+03</pdfrwt>
<totfact> 0.86921632E+03</totfact>
</mgrwt>
</event>
<event>
 9    1  0.7926126E-001  0.2745566E+03  0.7818608E-02  0.1098700E+00
          1   -1    0    0  501    0  0.00000000000E+00  0.00000000000E+00  0.64201618343E+02  0.64201618343E+02  0.00000000000E+00 0. -1.
         -1   -1    0    0    0  501 -0.00000000000E+00 -0.00000000000E+00 -0.29353361331E+03  0.29353361331E+03  0.00000000000E+00 0. -1.
         35    2    1    2    0    0 -0.17763568394E-14  0.71054273576E-14 -0.22933199497E+03  0.35773523165E+03  0.27455660992E+03 0.  0.
         25    2    3    3    0    0 -0.12359048894E+02  0.51653230392E+02 -0.14541066595E+03  0.19913752534E+03  0.12526248413E+03 0.  0.
         25    2    3    3    0    0  0.12359048894E+02 -0.51653230392E+02 -0.83921329019E+02  0.15859770631E+03  0.12365128662E+03 0.  0.
          5    1    4    4  502    0  0.46594456415E+01  0.47608246744E+02  0.43712288448E+01  0.48264409592E+02  0.47000000000E+01 0. -1.
         -5    1    4    4    0  502 -0.17018494536E+02  0.40449836481E+01 -0.14978189479E+03  0.15087311575E+03  0.47000000000E+01 0. -1.
          5    1    5    5  503    0 -0.14576259266E+02  0.31665468659E+02 -0.56799172156E+02  0.66808720967E+02  0.47000000000E+01 0. -1.
         -5    1    5    5    0  503  0.26935308160E+02 -0.83318699051E+02 -0.27122156862E+02  0.91788985342E+02  0.47000000000E+01 0. -1.
<mgrwt>
<rscale>  0 0.27455661E+03</rscale>
<asrwt>0</asrwt>
<pdfrwt beam="1">  1        1 0.98771722E-02 0.27455661E+03</pdfrwt>
<pdfrwt beam="2">  1       -1 0.45159017E-01 0.27455661E+03</pdfrwt>
<totfact> 0.32208629E+03</totfact>
</mgrwt>
</event>
<event>
 9    1  0.7926126E-001  0.2624150E+03  0.7818608E-02  0.1105701E+00
          1   -1    0    0  501    0  0.00000000000E+00  0.00000000000E+00  0.16375360098E+03  0.16375360098E+03  0.00000000000E+00 0. -1.
         -1   -1    0    0    0  501 -0.00000000000E+00 -0.00000000000E+00 -0.10512993989E+03  0.10512993989E+03  0.00000000000E+00 0. -1.
         35    2    1    2    0    0  0.00000000000E+00  0.00000000000E+00  0.58623661092E+02  0.26888354086E+03  0.26241498606E+03 0.  0.
         25    2    3    3    0    0  0.31327941631E+02  0.18437865427E+02  0.17820107011E+02  0.13272675694E+03  0.12640190262E+03 0.  0.
         25    2    3    3    0    0 -0.31327941631E+02 -0.18437865427E+02  0.40803554081E+02  0.13615678393E+03  0.12470904127E+03 0.  0.
          5    1    4    4  502    0  0.68033291862E+02 -0.84719505589E+01  0.42440126456E+02  0.80768540171E+02  0.47000000000E+01 0.  1.
         -5    1    4    4    0  502 -0.36705350231E+02  0.26909815986E+02 -0.24620019445E+02  0.51958216765E+02  0.47000000000E+01 0.  1.
          5    1    5    5  503    0 -0.38441384897E+02 -0.28252193780E+02  0.80882953648E+02  0.94021639621E+02  0.47000000000E+01 0. -1.
         -5    1    5    5    0  503  0.71134432662E+01  0.98143283526E+01 -0.40079399567E+02  0.42135144307E+02  0.47000000000E+01 0. -1.
<mgrwt>
<rscale>  0 0.26241499E+03</rscale>
<asrwt>0</asrwt>
<pdfrwt beam="1">  1        1 0.25192862E-01 0.26241499E+03</pdfrwt>
<pdfrwt beam="2">  1       -1 0.16173837E-01 0.26241499E+03</pdfrwt>
<totfact> 0.53425506E+03</totfact>
</mgrwt>
</event>
<event>
 9    1  0.7926126E-001  0.2744193E+03  0.7818608E-02  0.1098777E+00
          4   -1    0    0  501    0  0.00000000000E+00  0.00000000000E+00  0.10766728472E+02  0.10766728472E+02  0.00000000000E+00 0. -1.
         -4   -1    0    0    0  501 -0.00000000000E+00 -0.00000000000E+00 -0.17485803277E+04  0.17485803277E+04  0.00000000000E+00 0. -1.
         35    2    1    2    0    0  0.71054273576E-14  0.00000000000E+00 -0.17378135993E+04  0.17593470562E+04  0.27441931127E+03 0.  0.
         25    2    3    3    0    0  0.48697538094E+02  0.16388154957E+02 -0.10215077996E+04  0.10303965837E+04  0.12489560949E+03 0.  0.
         25    2    3    3    0    0 -0.48697538094E+02 -0.16388154957E+02 -0.71630579969E+03  0.72895047251E+03  0.12503907734E+03 0.  0.
          5    1    4    4  502    0 -0.39314461615E+02  0.21679014591E+01 -0.47420327047E+03  0.47585833860E+03  0.47000000000E+01 0. -1.
         -5    1    4    4    0  502  0.88011999709E+02  0.14220253498E+02 -0.54730452910E+03  0.55453824510E+03  0.47000000000E+01 0. -1.
          5    1    5    5  503    0  0.12755128343E+01  0.50946273368E+02 -0.27759253167E+03  0.28227088646E+03  0.47000000000E+01 0. -1.
         -5    1    5    5    0  503 -0.49973050928E+02 -0.67334428325E+02 -0.43871326802E+03  0.44667958605E+03  0.47000000000E+01 0. -1.
<mgrwt>
<rscale>  0 0.27441931E+03</rscale>
<asrwt>0</asrwt>
<pdfrwt beam="1">  1        4 0.16564221E-02 0.27441931E+03</pdfrwt>
<pdfrwt beam="2">  1       -4 0.26901198E+00 0.27441931E+03</pdfrwt>
<totfact> 0.14039058E+02</totfact>
</mgrwt>
</event>
<event>
 9    1  0.7926126E-001  0.2657470E+03  0.7818608E-02  0.1103739E+00
         -1   -1    0    0    0  501 -0.00000000000E+00  0.00000000000E+00  0.11133397173E+03  0.11133397173E+03  0.00000000000E+00 0. -1.
          1   -1    0    0  501    0  0.00000000000E+00 -0.00000000000E+00 -0.15858026220E+03  0.15858026220E+03  0.00000000000E+00 0. -1.
         35    2    1    2    0    0  0.00000000000E+00  0.00000000000E+00 -0.47246290469E+02  0.26991423394E+03  0.26574702580E+03 0.  0.
         25    2    3    3    0    0  0.26699204378E+02 -0.24667731337E+02  0.21565273357E+01  0.13004810713E+03  0.12484596539E+03 0.  0.
         25    2    3    3    0    0 -0.26699204378E+02  0.24667731337E+02 -0.49402817805E+02  0.13986612681E+03  0.12570024080E+03 0.  0.
          5    1    4    4  502    0 -0.41106897411E+02 -0.42770432409E+02 -0.24594081296E+01  0.59558589569E+02  0.47000000000E+01 0.  1.
         -5    1    4    4    0  502  0.67806101789E+02  0.18102701071E+02  0.46159354653E+01  0.70489517561E+02  0.47000000000E+01 0.  1.
          5    1    5    5  503    0  0.28705804298E+02  0.45274555811E+02 -0.58932523646E+02  0.79805644835E+02  0.47000000000E+01 0.  1.
         -5    1    5    5    0  503 -0.55405008676E+02 -0.20606824474E+02  0.95297058412E+01  0.60060481972E+02  0.47000000000E+01 0.  1.
<mgrwt>
<rscale>  0 0.26574703E+03</rscale>
<asrwt>0</asrwt>
<pdfrwt beam="1">  1        1 0.24396963E-01 0.26574703E+03</pdfrwt>
<pdfrwt beam="2">  1       -1 0.17128303E-01 0.26574703E+03</pdfrwt>
<totfact> 0.50801569E+03</totfact>
</mgrwt>
</event>
<event>
 9    1  0.7926126E-001  0.2720825E+03  0.7818608E-02  0.1100094E+00
         -2   -1    0    0    0  501 -0.00000000000E+00  0.00000000000E+00  0.22589638170E+03  0.22589638170E+03  0.00000000000E+00 0. -1.
          2   -1    0    0  501    0  0.00000000000E+00 -0.00000000000E+00 -0.81927926649E+02  0.81927926649E+02  0.00000000000E+00 0. -1.
         35    2    1    2    0    0  0.00000000000E+00  0.14210854715E-13  0.14396845506E+03  0.30782430835E+03  0.27208250359E+03 0.  0.
         25    2    3    3    0    0 -0.10854066234E+02 -0.38403419161E+02  0.11096785411E+03  0.17240895385E+03  0.12577101958E+03 0.  0.
         25    2    3    3    0    0  0.10854066234E+02  0.38403419161E+02  0.33000600947E+02  0.13541535450E+03  0.12512252082E+03 0.  0.
          5    1    4    4  502    0  0.82699546684E+01  0.44666987174E+02  0.29269164335E+02  0.54243026043E+02  0.47000000000E+01 0. -1.
         -5    1    4    4    0  502 -0.19124020902E+02 -0.83070406335E+02  0.81698689773E+02  0.11816592781E+03  0.47000000000E+01 0. -1.
          5    1    5    5  503    0 -0.82909557229E+01 -0.38766780409E+02  0.38651920466E+02  0.55566754141E+02  0.47000000000E+01 0. -1.
         -5    1    5    5    0  503  0.19145021956E+02  0.77170199570E+02 -0.56513195193E+01  0.79848600361E+02  0.47000000000E+01 0. -1.
<mgrwt>
<rscale>  0 0.27208250E+03</rscale>
<asrwt>0</asrwt>
<pdfrwt beam="1">  1        2 0.12604296E-01 0.27208250E+03</pdfrwt>
<pdfrwt beam="2">  1       -2 0.34753289E-01 0.27208250E+03</pdfrwt>
<totfact> 0.37239266E+03</totfact>
</mgrwt>
</event>
<event>
 9    1  0.7926126E-001  0.2810358E+03  0.7818608E-02  0.1095125E+00
         -2   -1    0    0    0  501 -0.00000000000E+00  0.00000000000E+00  0.59236671638E+01  0.59236671638E+01  0.00000000000E+00 0.  1.
          2   -1    0    0  501    0  0.00000000000E+00 -0.00000000000E+00 -0.33332872656E+04  0.33332872656E+04  0.00000000000E+00 0.  1.
         35    2    1    2    0    0  0.35527136788E-14  0.17763568394E-14 -0.33273635985E+04  0.33392109328E+04  0.28103582920E+03 0.  0.
         25    2    3    3    0    0 -0.11130185447E+02 -0.14056874669E+02 -0.92432440949E+03  0.93287635422E+03  0.12474454508E+03 0.  0.
         25    2    3    3    0    0  0.11130185447E+02  0.14056874669E+02 -0.24030391890E+04  0.24063345786E+04  0.12460852114E+03 0.  0.
          5    1    4    4  502    0 -0.33070039751E+02 -0.46422796371E+01 -0.89087356745E+03  0.89151162722E+03  0.47000000000E+01 0.  1.
         -5    1    4    4    0  502  0.21939854304E+02 -0.94145950315E+01 -0.33450842048E+02  0.41364727005E+02  0.47000000000E+01 0.  1.
          5    1    5    5  503    0  0.62288283395E+02  0.29628744352E+02 -0.10831478194E+04  0.10853520080E+04  0.47000000000E+01 0.  1.
         -5    1    5    5    0  503 -0.51158097948E+02 -0.15571869683E+02 -0.13198913696E+04  0.13209825705E+04  0.47000000000E+01 0.  1.
<mgrwt>
<rscale>  0 0.28103583E+03</rscale>
<asrwt>0</asrwt>
<pdfrwt beam="1">  1        2 0.51281497E+00 0.28103583E+03</pdfrwt>
<pdfrwt beam="2">  1       -2 0.91133066E-03 0.28103583E+03</pdfrwt>
<totfact> 0.31722384E+03</totfact>
</mgrwt>
</event>
<event>
 9    1  0.7926126E-001  0.2767437E+03  0.7818608E-02  0.1097481E+00
          1   -1    0    0  501    0  0.00000000000E+00  0.00000000000E+00  0.62764167293E+03  0.62764167293E+03  0.00000000000E+00 0.  1.
         -1   -1    0    0    0  501 -0.00000000000E+00 -0.00000000000E+00 -0.30505898632E+02  0.30505898632E+02  0.00000000000E+00 0.  1.
         35    2    1    2    0    0  0.71054273576E-14  0.00000000000E+00  0.59713577430E+03  0.65814757156E+03  0.27674373165E+03 0.  0.
         25    2    3    3    0    0 -0.42243344726E+02  0.21966952828E+02  0.21577225163E+03  0.25389332389E+03  0.12504842323E+03 0.  0.
         25    2    3    3    0    0  0.42243344726E+02 -0.21966952828E+02  0.38136352266E+03  0.40425424767E+03  0.12536472051E+03 0.  0.
          5    1    4    4  502    0 -0.48668172058E+02  0.49951846500E+02  0.21356703386E+03  0.22471481013E+03  0.47000000000E+01 0. -1.
         -5    1    4    4    0  502  0.64248273322E+01 -0.27984893673E+02  0.22052177754E+01  0.29178513765E+02  0.47000000000E+01 0. -1.
          5    1    5    5  503    0  0.79577093040E+02 -0.69258443160E+00  0.16058193491E+03  0.17928090035E+03  0.47000000000E+01 0. -1.
         -5    1    5    5    0  503 -0.37333748314E+02 -0.21274368396E+02  0.22078158775E+03  0.22497334732E+03  0.47000000000E+01 0. -1.
<mgrwt>
<rscale>  0 0.27674373E+03</rscale>
<asrwt>0</asrwt>
<pdfrwt beam="1">  1        1 0.96560248E-01 0.27674373E+03</pdfrwt>
<pdfrwt beam="2">  1       -1 0.46932156E-02 0.27674373E+03</pdfrwt>
<totfact> 0.63690576E+03</totfact>
</mgrwt>
</event>
<event>
 9    1  0.7926126E-001  0.2727812E+03  0.7818608E-02  0.1099698E+00
         -2   -1    0    0    0  501 -0.00000000000E+00  0.00000000000E+00  0.79403865068E+02  0.79403865068E+02  0.00000000000E+00 0. -1.
          2   -1    0    0  501    0  0.00000000000E+00 -0.00000000000E+00 -0.23427577811E+03  0.23427577811E+03  0.00000000000E+00 0. -1.
         35    2    1    2    0    0  0.00000000000E+00  0.00000000000E+00 -0.15487191304E+03  0.31367964318E+03  0.27278124769E+03 0.  0.
         25    2    3    3    0    0 -0.53240754379E+02  0.15336028760E+02 -0.72575145227E+02  0.15403480888E+03  0.12405562840E+03 0.  0.
         25    2    3    3    0    0  0.53240754379E+02 -0.15336028760E+02 -0.82296767814E+02  0.15964483430E+03  0.12507575073E+03 0.  0.
          5    1    4    4  502    0  0.15604600954E+02  0.52508464234E+02 -0.15649444266E+02  0.57163252995E+02  0.47000000000E+01 0. -1.
         -5    1    4    4    0  502 -0.68845355332E+02 -0.37172435474E+02 -0.56925700960E+02  0.96871555886E+02  0.47000000000E+01 0. -1.
          5    1    5    5  503    0 -0.25548722842E+02  0.34444135918E+02 -0.20862544711E+02  0.47921514060E+02  0.47000000000E+01 0. -1.
         -5    1    5    5    0  503  0.78789477221E+02 -0.49780164678E+02 -0.61434223103E+02  0.11172332023E+03  0.47000000000E+01 0. -1.
<mgrwt>
<rscale>  0 0.27278125E+03</rscale>
<asrwt>0</asrwt>
<pdfrwt beam="1">  1        2 0.36042426E-01 0.27278125E+03</pdfrwt>
<pdfrwt beam="2">  1       -2 0.12215980E-01 0.27278125E+03</pdfrwt>
<totfact> 0.68214120E+03</totfact>
</mgrwt>
</event>
<event>
 9    1  0.7926126E-001  0.2650986E+03  0.7818608E-02  0.1104118E+00
          2   -1    0    0  501    0  0.00000000000E+00  0.00000000000E+00  0.43296790224E+03  0.43296790224E+03  0.00000000000E+00 0. -1.
         -2   -1    0    0    0  501 -0.00000000000E+00 -0.00000000000E+00 -0.40578806209E+02  0.40578806209E+02  0.00000000000E+00 0. -1.
         35    2    1    2    0    0 -0.71054273576E-14  0.14210854715E-13  0.39238909603E+03  0.47354670845E+03  0.26509862768E+03 0.  0.
         25    2    3    3    0    0  0.60020589292E+01 -0.43009801878E+02  0.20494574935E+03  0.24405490862E+03  0.12519652741E+03 0.  0.
         25    2    3    3    0    0 -0.60020589292E+01  0.43009801878E+02  0.18744334667E+03  0.22949179982E+03  0.12508241365E+03 0.  0.
          5    1    4    4  502    0 -0.33609843389E+02 -0.73538793842E+02  0.10950038804E+03  0.13619838749E+03  0.47000000000E+01 0.  1.
         -5    1    4    4    0  502  0.39611902318E+02  0.30528991964E+02  0.95445361313E+02  0.10785652114E+03  0.47000000000E+01 0.  1.
          5    1    5    5  503    0 -0.43996970814E+02  0.57992009377E+02  0.56559806706E+02  0.92303349490E+02  0.47000000000E+01 0.  1.
         -5    1    5    5    0  503  0.37994911885E+02 -0.14982207500E+02  0.13088353997E+03  0.13718845033E+03  0.47000000000E+01 0.  1.
<mgrwt>
<rscale>  0 0.26509863E+03</rscale>
<asrwt>0</asrwt>
<pdfrwt beam="1">  1        2 0.66610443E-01 0.26509863E+03</pdfrwt>
<pdfrwt beam="2">  1       -2 0.62428936E-02 0.26509863E+03</pdfrwt>
<totfact> 0.10094530E+04</totfact>
</mgrwt>
</event>
<event>
 9    1  0.7926126E-001  0.2755287E+03  0.7818608E-02  0.1098156E+00
         -1   -1    0    0    0  501 -0.00000000000E+00  0.00000000000E+00  0.22000982283E+02  0.22000982283E+02  0.00000000000E+00 0. -1.
          1   -1    0    0  501    0  0.00000000000E+00 -0.00000000000E+00 -0.86264432892E+03  0.86264432892E+03  0.00000000000E+00 0. -1.
         35    2    1    2    0    0  0.00000000000E+00  0.17763568394E-14 -0.84064334664E+03  0.88464531121E+03  0.27552874694E+03 0.  0.
         25    2    3    3    0    0  0.41992228267E+02  0.56196348425E+01 -0.30880536631E+03  0.33574959276E+03  0.12478824963E+03 0.  0.
         25    2    3    3    0    0 -0.41992228267E+02 -0.56196348425E+01 -0.53183798033E+03  0.54889571844E+03  0.12899591032E+03 0.  0.
          5    1    4    4  502    0 -0.40039428996E+02  0.37313326294E+01 -0.50742157136E+02  0.64914830573E+02  0.47000000000E+01 0. -1.
         -5    1    4    4    0  502  0.82031657263E+02  0.18883022131E+01 -0.25806320918E+03  0.27083476219E+03  0.47000000000E+01 0. -1.
          5    1    5    5  503    0  0.37955440218E+02  0.15374652482E+02 -0.85178892911E+02  0.94628374067E+02  0.47000000000E+01 0.  1.
         -5    1    5    5    0  503 -0.79947668485E+02 -0.20994287324E+02 -0.44665908742E+03  0.45426734438E+03  0.47000000000E+01 0.  1.
<mgrwt>
<rscale>  0 0.27552875E+03</rscale>
<asrwt>0</asrwt>
<pdfrwt beam="1">  1        1 0.13271450E+00 0.27552875E+03</pdfrwt>
<pdfrwt beam="2">  1       -1 0.33847667E-02 0.27552875E+03</pdfrwt>
<totfact> 0.64428118E+03</totfact>
</mgrwt>
</event>
<event>
 9    1  0.7926126E-001  0.2788560E+03  0.7818608E-02  0.1096315E+00
          1   -1    0    0  501    0  0.00000000000E+00  0.00000000000E+00  0.12635079318E+03  0.12635079318E+03  0.00000000000E+00 0.  1.
         -1   -1    0    0    0  501 -0.00000000000E+00 -0.00000000000E+00 -0.15385868863E+03  0.15385868863E+03  0.00000000000E+00 0.  1.
         35    2    1    2    0    0  0.17763568394E-14 -0.71054273576E-14 -0.27507895457E+02  0.28020948181E+03  0.27885600116E+03 0.  0.
         25    2    3    3    0    0 -0.90154131933E+01 -0.61299758149E+02 -0.12975308975E+02  0.14018520130E+03  0.12507835143E+03 0.  0.
         25    2    3    3    0    0  0.90154131933E+01  0.61299758149E+02 -0.14532586482E+02  0.14002428051E+03  0.12472636064E+03 0.  0.
          5    1    4    4  502    0 -0.10958631904E+02 -0.39134932473E+01  0.51915251625E+02  0.53410583164E+02  0.47000000000E+01 0. -1.
         -5    1    4    4    0  502  0.19432187108E+01 -0.57386264901E+02 -0.64890560600E+02  0.86774618139E+02  0.47000000000E+01 0. -1.
          5    1    5    5  503    0  0.63661377168E+02  0.54454203756E+02 -0.63044608984E+01  0.84141948378E+02  0.47000000000E+01 0. -1.
         -5    1    5    5    0  503 -0.54645963974E+02  0.68455543926E+01 -0.82281255836E+01  0.55882332130E+02  0.47000000000E+01 0. -1.
<mgrwt>
<rscale>  0 0.27885600E+03</rscale>
<asrwt>0</asrwt>
<pdfrwt beam="1">  1        1 0.19438584E-01 0.27885600E+03</pdfrwt>
<pdfrwt beam="2">  1       -1 0.23670567E-01 0.27885600E+03</pdfrwt>
<totfact> 0.40222083E+03</totfact>
</mgrwt>
</event>
<event>
 9    1  0.7926126E-001  0.2761371E+03  0.7818608E-02  0.1097818E+00
          2   -1    0    0  501    0  0.00000000000E+00  0.00000000000E+00  0.38541646688E+02  0.38541646688E+02  0.00000000000E+00 0. -1.
         -2   -1    0    0    0  501 -0.00000000000E+00 -0.00000000000E+00 -0.49460575901E+03  0.49460575901E+03  0.00000000000E+00 0. -1.
         35    2    1    2    0    0  0.35527136788E-14  0.35527136788E-14 -0.45606411232E+03  0.53314740570E+03  0.27613707041E+03 0.  0.
         25    2    3    3    0    0  0.41750175769E+01  0.18876641236E+02 -0.33601177639E+03  0.35919631876E+03  0.12547638496E+03 0.  0.
         25    2    3    3    0    0 -0.41750175769E+01 -0.18876641236E+02 -0.12005233594E+03  0.17395108694E+03  0.12438914313E+03 0.  0.
          5    1    4    4  502    0  0.19884090434E+02 -0.39006051637E+02 -0.48707518500E+02  0.65660958530E+02  0.47000000000E+01 0. -1.
         -5    1    4    4    0  502 -0.15709072857E+02  0.57882692873E+02 -0.28730425789E+03  0.29353536023E+03  0.47000000000E+01 0. -1.
          5    1    5    5  503    0  0.50980604557E+02 -0.40067176403E+02 -0.48926708223E+02  0.81365308599E+02  0.47000000000E+01 0. -1.
         -5    1    5    5    0  503 -0.55155622134E+02  0.21190535167E+02 -0.71125627713E+02  0.92585778342E+02  0.47000000000E+01 0. -1.
<mgrwt>
<rscale>  0 0.27613707E+03</rscale>
<asrwt>0</asrwt>
<pdfrwt beam="1">  1        2 0.59294839E-02 0.27613707E+03</pdfrwt>
<pdfrwt beam="2">  1       -2 0.76093196E-01 0.27613707E+03</pdfrwt>
<totfact> 0.19923872E+03</totfact>
</mgrwt>
</event>
<event>
 9    1  0.7926126E-001  0.2701083E+03  0.7818608E-02  0.1101218E+00
         -2   -1    0    0    0  501 -0.00000000000E+00  0.00000000000E+00  0.36284802981E+02  0.36284802981E+02  0.00000000000E+00 0.  1.
          2   -1    0    0  501    0  0.00000000000E+00 -0.00000000000E+00 -0.50267932969E+03  0.50267932969E+03  0.00000000000E+00 0.  1.
         35    2    1    2    0    0 -0.71054273576E-14 -0.71054273576E-14 -0.46639452671E+03  0.53896413267E+03  0.27010827785E+03 0.  0.
         25    2    3    3    0    0  0.28370512829E+02 -0.28943790164E+02 -0.18032428191E+03  0.22406420732E+03  0.12667001764E+03 0.  0.
         25    2    3    3    0    0 -0.28370512829E+02  0.28943790164E+02 -0.28607024480E+03  0.31489992535E+03  0.12523238015E+03 0.  0.
          5    1    4    4  502    0  0.29540684936E+02 -0.71912247292E+02 -0.66884923634E+02  0.10266307217E+03  0.47000000000E+01 0. -1.
         -5    1    4    4    0  502 -0.11701721069E+01  0.42968457128E+02 -0.11343935828E+03  0.12140113515E+03  0.47000000000E+01 0. -1.
          5    1    5    5  503    0 -0.48257123710E+02  0.44322050691E+02 -0.28132004241E+03  0.28888795480E+03  0.47000000000E+01 0. -1.
         -5    1    5    5    0  503  0.19886610881E+02 -0.15378260527E+02 -0.47502023873E+01  0.26011970550E+02  0.47000000000E+01 0. -1.
<mgrwt>
<rscale>  0 0.27010828E+03</rscale>
<asrwt>0</asrwt>
<pdfrwt beam="1">  1        2 0.77335285E-01 0.27010828E+03</pdfrwt>
<pdfrwt beam="2">  1       -2 0.55822771E-02 0.27010828E+03</pdfrwt>
<totfact> 0.10165173E+04</totfact>
</mgrwt>
</event>
<event>
 9    1  0.7926126E-001  0.2704619E+03  0.7818608E-02  0.1101016E+00
          2   -1    0    0  501    0  0.00000000000E+00  0.00000000000E+00  0.19773887506E+04  0.19773887506E+04  0.00000000000E+00 0. -1.
         -2   -1    0    0    0  501 -0.00000000000E+00 -0.00000000000E+00 -0.92482612685E+01  0.92482612685E+01  0.00000000000E+00 0. -1.
         35    2    1    2    0    0  0.71054273576E-14  0.00000000000E+00  0.19681404893E+04  0.19866370118E+04  0.27046188489E+03 0.  0.
         25    2    3    3    0    0 -0.21369313983E+02 -0.21443897028E+02  0.12858480674E+04  0.12922336517E+04  0.12468388014E+03 0.  0.
         25    2    3    3    0    0  0.21369313983E+02  0.21443897028E+02  0.68229242191E+03  0.69440336010E+03  0.12552525334E+03 0.  0.
          5    1    4    4  502    0 -0.71811782525E+02 -0.21665502902E+02  0.63895976445E+03  0.64336459081E+03  0.47000000000E+01 0. -1.
         -5    1    4    4    0  502  0.50442468542E+02  0.22160587416E+00  0.64688830292E+03  0.64886906091E+03  0.47000000000E+01 0. -1.
          5    1    5    5  503    0  0.27566501879E+02 -0.33950672407E+02  0.97744464876E+02  0.10718502972E+03  0.47000000000E+01 0.  1.
         -5    1    5    5    0  503 -0.61971878960E+01  0.55394569435E+02  0.58454795704E+03  0.58721833038E+03  0.47000000000E+01 0.  1.
<mgrwt>
<rscale>  0 0.27046188E+03</rscale>
<asrwt>0</asrwt>
<pdfrwt beam="1">  1        2 0.30421332E+00 0.27046188E+03</pdfrwt>
<pdfrwt beam="2">  1       -2 0.14228110E-02 0.27046188E+03</pdfrwt>
<totfact> 0.97307226E+03</totfact>
</mgrwt>
</event>
<event>
 9    1  0.7926126E-001  0.2759717E+03  0.7818608E-02  0.1097910E+00
          1   -1    0    0  501    0  0.00000000000E+00  0.00000000000E+00  0.65944377472E+03  0.65944377472E+03  0.00000000000E+00 0.  1.
         -1   -1    0    0    0  501 -0.00000000000E+00 -0.00000000000E+00 -0.28872957540E+02  0.28872957540E+02  0.00000000000E+00 0.  1.
         35    2    1    2    0    0  0.00000000000E+00  0.71054273576E-14  0.63057081718E+03  0.68831673226E+03  0.27597168048E+03 0.  0.
         25    2    3    3    0    0 -0.59374309997E+02  0.23744981648E+02  0.30591039321E+03  0.33659307813E+03  0.12499839491E+03 0.  0.
         25    2    3    3    0    0  0.59374309997E+02 -0.23744981648E+02  0.32466042397E+03  0.35172365413E+03  0.11923089004E+03 0.  0.
          5    1    4    4  502    0 -0.41064997008E+02  0.58502334131E+02  0.28066124016E+03  0.28965786509E+03  0.47000000000E+01 0. -1.
         -5    1    4    4    0  502 -0.18309312989E+02 -0.34757352482E+02  0.25249153045E+02  0.46935213041E+02  0.47000000000E+01 0. -1.
          5    1    5    5  503    0  0.59298513761E+02  0.66539577016E+01  0.31324683203E+03  0.31891418385E+03  0.47000000000E+01 0. -1.
         -5    1    5    5    0  503  0.75796236550E-01 -0.30398939350E+02  0.11413591942E+02  0.32809470274E+02  0.47000000000E+01 0. -1.
<mgrwt>
<rscale>  0 0.27597168E+03</rscale>
<asrwt>0</asrwt>
<pdfrwt beam="1">  1        1 0.10145288E+00 0.27597168E+03</pdfrwt>
<pdfrwt beam="2">  1       -1 0.44419940E-02 0.27597168E+03</pdfrwt>
<totfact> 0.64458279E+03</totfact>
</mgrwt>
</event>
<event>
 9    1  0.7926126E-001  0.2703335E+03  0.7818608E-02  0.1101089E+00
         -1   -1    0    0    0  501 -0.00000000000E+00  0.00000000000E+00  0.12020517309E+03  0.12020517309E+03  0.00000000000E+00 0.  1.
          1   -1    0    0  501    0  0.00000000000E+00 -0.00000000000E+00 -0.15199055339E+03  0.15199055339E+03  0.00000000000E+00 0.  1.
         35    2    1    2    0    0 -0.17763568394E-14  0.00000000000E+00 -0.31785380304E+02  0.27219572648E+03  0.27033350349E+03 0.  0.
         25    2    3    3    0    0  0.41226779907E+01  0.45776423720E+01 -0.65708775282E+02  0.14148812066E+03  0.12515308168E+03 0.  0.
         25    2    3    3    0    0 -0.41226779907E+01 -0.45776423720E+01  0.33923394979E+02  0.13070760582E+03  0.12607827017E+03 0.  0.
          5    1    4    4  502    0  0.56900018347E+01  0.52400469755E+02  0.79655958310E+01  0.53513793254E+02  0.47000000000E+01 0.  1.
         -5    1    4    4    0  502 -0.15673238440E+01 -0.47822827383E+02 -0.73674371113E+02  0.87974327403E+02  0.47000000000E+01 0.  1.
          5    1    5    5  503    0  0.22852711597E+02  0.55318421604E+02  0.20922747462E+02  0.63578499176E+02  0.47000000000E+01 0.  1.
         -5    1    5    5    0  503 -0.26975389588E+02 -0.59896063976E+02  0.13000647517E+02  0.67129106646E+02  0.47000000000E+01 0.  1.
<mgrwt>
<rscale>  0 0.27033350E+03</rscale>
<asrwt>0</asrwt>
<pdfrwt beam="1">  1        1 0.23383162E-01 0.27033350E+03</pdfrwt>
<pdfrwt beam="2">  1       -1 0.18493104E-01 0.27033350E+03</pdfrwt>
<totfact> 0.47435155E+03</totfact>
</mgrwt>
</event>
<event>
 9    1  0.7926126E-001  0.2701597E+03  0.7818608E-02  0.1101188E+00
          1   -1    0    0  501    0  0.00000000000E+00  0.00000000000E+00  0.64604587335E+02  0.64604587335E+02  0.00000000000E+00 0.  1.
         -1   -1    0    0    0  501 -0.00000000000E+00 -0.00000000000E+00 -0.28243451710E+03  0.28243451710E+03  0.00000000000E+00 0.  1.
         35    2    1    2    0    0  0.71054273576E-14  0.00000000000E+00 -0.21782992977E+03  0.34703910444E+03  0.27015969667E+03 0.  0.
         25    2    3    3    0    0 -0.17680871261E+02 -0.19239946399E+02 -0.55160911288E+02  0.14052014655E+03  0.12657170579E+03 0.  0.
         25    2    3    3    0    0  0.17680871261E+02  0.19239946399E+02 -0.16266901848E+03  0.20651895788E+03  0.12452341806E+03 0.  0.
          5    1    4    4  502    0  0.17166607937E+02 -0.64341807283E+02 -0.96914752347E+01  0.67457951975E+02  0.47000000000E+01 0.  1.
         -5    1    4    4    0  502 -0.34847479198E+02  0.45101860884E+02 -0.45469436053E+02  0.73062194578E+02  0.47000000000E+01 0.  1.
          5    1    5    5  503    0 -0.15071914448E+02  0.61977456676E+02 -0.12570175579E+03  0.14103683615E+03  0.47000000000E+01 0.  1.
         -5    1    5    5    0  503  0.32752785709E+02 -0.42737510276E+02 -0.36967262685E+02  0.65482121734E+02  0.47000000000E+01 0.  1.
<mgrwt>
<rscale>  0 0.27015970E+03</rscale>
<asrwt>0</asrwt>
<pdfrwt beam="1">  1        1 0.99391674E-02 0.27015970E+03</pdfrwt>
<pdfrwt beam="2">  1       -1 0.43451464E-01 0.27015970E+03</pdfrwt>
<totfact> 0.34227138E+03</totfact>
</mgrwt>
</event>
<event>
 9    1  0.7926126E-001  0.2773239E+03  0.7818608E-02  0.1097160E+00
         -2   -1    0    0    0  501 -0.00000000000E+00  0.00000000000E+00  0.23259264277E+02  0.23259264277E+02  0.00000000000E+00 0. -1.
          2   -1    0    0  501    0  0.00000000000E+00 -0.00000000000E+00 -0.82664422982E+03  0.82664422982E+03  0.00000000000E+00 0. -1.
         35    2    1    2    0    0  0.00000000000E+00 -0.53290705182E-14 -0.80338496554E+03  0.84990349410E+03  0.27732390164E+03 0.  0.
         25    2    3    3    0    0  0.23677845153E+02 -0.14759172977E+02 -0.21590600595E+03  0.25051097029E+03  0.12394300824E+03 0.  0.
         25    2    3    3    0    0 -0.23677845153E+02  0.14759172977E+02 -0.58747895959E+03  0.59939252381E+03  0.11559150531E+03 0.  0.
          5    1    4    4  502    0 -0.50299830260E+02 -0.82259955121E+01 -0.10696651390E+03  0.11858189163E+03  0.47000000000E+01 0. -1.
         -5    1    4    4    0  502  0.73977675413E+02 -0.65331774645E+01 -0.10893949205E+03  0.13192907866E+03  0.47000000000E+01 0. -1.
          5    1    5    5  503    0  0.16289521224E+02  0.51675686038E+02 -0.17342410715E+03  0.18175185272E+03  0.47000000000E+01 0.  1.
         -5    1    5    5    0  503 -0.39967366377E+02 -0.36916513062E+02 -0.41405485244E+03  0.41764067108E+03  0.47000000000E+01 0.  1.
<mgrwt>
<rscale>  0 0.27732390E+03</rscale>
<asrwt>0</asrwt>
<pdfrwt beam="1">  1        2 0.12717603E+00 0.27732390E+03</pdfrwt>
<pdfrwt beam="2">  1       -2 0.35783484E-02 0.27732390E+03</pdfrwt>
<totfact> 0.11023909E+04</totfact>
</mgrwt>
</event>
<event>
 9    1  0.7926126E-001  0.3058296E+03  0.7818608E-02  0.1082362E+00
          4   -1    0    0  501    0  0.00000000000E+00  0.00000000000E+00  0.82896895962E+03  0.82896895962E+03  0.00000000000E+00 0.  1.
         -4   -1    0    0    0  501 -0.00000000000E+00 -0.00000000000E+00 -0.28207246143E+02  0.28207246143E+02  0.00000000000E+00 0.  1.
         35    2    1    2    0    0 -0.14210854715E-13  0.00000000000E+00  0.80076171348E+03  0.85717620577E+03  0.30582957011E+03 0.  0.
         25    2    3    3    0    0 -0.83447038242E+02  0.29563576921E+02  0.37977063206E+03  0.40936709700E+03  0.12457236396E+03 0.  0.
         25    2    3    3    0    0  0.83447038242E+02 -0.29563576921E+02  0.42099108142E+03  0.44780910876E+03  0.12434666856E+03 0.  0.
          5    1    4    4  502    0 -0.33083586376E+02  0.72139703366E+02  0.14385958761E+03  0.16436645471E+03  0.47000000000E+01 0. -1.
         -5    1    4    4    0  502 -0.50363451867E+02 -0.42576126445E+02  0.23591104445E+03  0.24500064229E+03  0.47000000000E+01 0. -1.
          5    1    5    5  503    0  0.93079879299E+02 -0.53274473277E+01  0.40753169238E+03  0.41808661294E+03  0.47000000000E+01 0. -1.
         -5    1    5    5    0  503 -0.96328410567E+01 -0.24236129593E+02  0.13459389038E+02  0.29722495820E+02  0.47000000000E+01 0. -1.
<mgrwt>
<rscale>  0 0.30582957E+03</rscale>
<asrwt>0</asrwt>
<pdfrwt beam="1">  1        4 0.12753367E+00 0.30582957E+03</pdfrwt>
<pdfrwt beam="2">  1       -4 0.43395770E-02 0.30582957E+03</pdfrwt>
<totfact> 0.27045334E+02</totfact>
</mgrwt>
</event>
<event>
 9    1  0.7926126E-001  0.2734531E+03  0.7818608E-02  0.1099319E+00
         -1   -1    0    0    0  501 -0.00000000000E+00  0.00000000000E+00  0.13393615366E+04  0.13393615366E+04  0.00000000000E+00 0. -1.
          1   -1    0    0  501    0  0.00000000000E+00 -0.00000000000E+00 -0.13957510683E+02  0.13957510683E+02  0.00000000000E+00 0. -1.
         35    2    1    2    0    0 -0.71054273576E-14 -0.35527136788E-14  0.13254040259E+04  0.13533190473E+04  0.27345312546E+03 0.  0.
         25    2    3    3    0    0  0.48000817877E+02 -0.19113859531E+02  0.54949478679E+03  0.56596006627E+03  0.12528710135E+03 0.  0.
         25    2    3    3    0    0 -0.48000817877E+02  0.19113859531E+02  0.77590923911E+03  0.78735898099E+03  0.12340826338E+03 0.  0.
          5    1    4    4  502    0 -0.35387663128E+02 -0.93226618458E+01  0.69812983042E+02  0.78962911084E+02  0.47000000000E+01 0.  1.
         -5    1    4    4    0  502  0.83388481005E+02 -0.97911976852E+01  0.47968180375E+03  0.48699715519E+03  0.47000000000E+01 0.  1.
          5    1    5    5  503    0  0.40872809078E+01  0.64264233634E+02  0.35756296646E+03  0.36334551404E+03  0.47000000000E+01 0.  1.
         -5    1    5    5    0  503 -0.52088098785E+02 -0.45150374103E+02  0.41834627265E+03  0.42401346695E+03  0.47000000000E+01 0.  1.
<mgrwt>
<rscale>  0 0.27345313E+03</rscale>
<asrwt>0</asrwt>
<pdfrwt beam="1">  1        1 0.21473104E-02 0.27345313E+03</pdfrwt>
<pdfrwt beam="2">  1       -1 0.20605552E+00 0.27345313E+03</pdfrwt>
<totfact> 0.83227688E+02</totfact>
</mgrwt>
</event>
<event>
 9    1  0.7926126E-001  0.2763579E+03  0.7818608E-02  0.1097695E+00
          1   -1    0    0  501    0  0.00000000000E+00  0.00000000000E+00  0.94356740731E+03  0.94356740731E+03  0.00000000000E+00 0.  1.
         -1   -1    0    0    0  501 -0.00000000000E+00 -0.00000000000E+00 -0.20235362220E+02  0.20235362220E+02  0.00000000000E+00 0.  1.
         35    2    1    2    0    0  0.35527136788E-14  0.00000000000E+00  0.92333204509E+03  0.96380276953E+03  0.27635794373E+03 0.  0.
         25    2    3    3    0    0 -0.25270496885E+02 -0.24940029710E+02  0.61398820887E+03  0.62774015636E+03  0.12576001028E+03 0.  0.
         25    2    3    3    0    0  0.25270496885E+02  0.24940029710E+02  0.30934383623E+03  0.33606261318E+03  0.12642732247E+03 0.  0.
          5    1    4    4  502    0  0.26107115683E+02  0.39026535332E+02  0.26829313270E+03  0.27241135623E+03  0.47000000000E+01 0.  1.
         -5    1    4    4    0  502 -0.51377612568E+02 -0.63966565042E+02  0.34569507616E+03  0.35532880013E+03  0.47000000000E+01 0.  1.
          5    1    5    5  503    0  0.51949075926E+02  0.58388417794E+02  0.25493703493E+03  0.26668876167E+03  0.47000000000E+01 0.  1.
         -5    1    5    5    0  503 -0.26678579042E+02 -0.33448388084E+02  0.54406801301E+02  0.69373851507E+02  0.47000000000E+01 0.  1.
<mgrwt>
<rscale>  0 0.27635794E+03</rscale>
<asrwt>0</asrwt>
<pdfrwt beam="1">  1        1 0.14516418E+00 0.27635794E+03</pdfrwt>
<pdfrwt beam="2">  1       -1 0.31131334E-02 0.27635794E+03</pdfrwt>
<totfact> 0.62996842E+03</totfact>
</mgrwt>
</event>
<event>
 9    1  0.7926126E-001  0.2681652E+03  0.7818608E-02  0.1102334E+00
         -1   -1    0    0    0  501 -0.00000000000E+00  0.00000000000E+00  0.17848611870E+02  0.17848611870E+02  0.00000000000E+00 0. -1.
          1   -1    0    0  501    0  0.00000000000E+00 -0.00000000000E+00 -0.10072573260E+04  0.10072573260E+04  0.00000000000E+00 0. -1.
         35    2    1    2    0    0 -0.71054273576E-14  0.00000000000E+00 -0.98940871410E+03  0.10251059378E+04  0.26816521075E+03 0.  0.
         25    2    3    3    0    0 -0.51629558967E+02 -0.15361571742E+02 -0.58677920875E+03  0.60240413926E+03  0.12521708324E+03 0.  0.
         25    2    3    3    0    0  0.51629558967E+02  0.15361571742E+02 -0.40262950535E+03  0.42270179857E+03  0.11689611925E+03 0.  0.
          5    1    4    4  502    0 -0.77150580410E+02  0.17050804995E+02 -0.49973072986E+03  0.50596030909E+03  0.47000000000E+01 0. -1.
         -5    1    4    4    0  502  0.25521021443E+02 -0.32412376737E+02 -0.87048478888E+02  0.96443830170E+02  0.47000000000E+01 0. -1.
          5    1    5    5  503    0  0.76475725531E+01 -0.23979187838E+02 -0.13214523124E+02  0.28813199002E+02  0.47000000000E+01 0.  1.
         -5    1    5    5    0  503  0.43981986414E+02  0.39340759580E+02 -0.38941498222E+03  0.39388859957E+03  0.47000000000E+01 0.  1.
<mgrwt>
<rscale>  0 0.26816521E+03</rscale>
<asrwt>0</asrwt>
<pdfrwt beam="1">  1        1 0.15496263E+00 0.26816521E+03</pdfrwt>
<pdfrwt beam="2">  1       -1 0.27459410E-02 0.26816521E+03</pdfrwt>
<totfact> 0.67794162E+03</totfact>
</mgrwt>
</event>
<event>
 9    1  0.7926126E-001  0.2747036E+03  0.7818608E-02  0.1098617E+00
         -2   -1    0    0    0  501 -0.00000000000E+00  0.00000000000E+00  0.22875897803E+02  0.22875897803E+02  0.00000000000E+00 0. -1.
          2   -1    0    0  501    0  0.00000000000E+00 -0.00000000000E+00 -0.82468979622E+03  0.82468979622E+03  0.00000000000E+00 0. -1.
         35    2    1    2    0    0  0.35527136788E-14 -0.71054273576E-14 -0.80181389842E+03  0.84756569402E+03  0.27470361845E+03 0.  0.
         25    2    3    3    0    0  0.16912038470E+02 -0.53517415267E+02 -0.39479011907E+03  0.41809039885E+03  0.12565911315E+03 0.  0.
         25    2    3    3    0    0 -0.16912038470E+02  0.53517415267E+02 -0.40702377935E+03  0.42947529517E+03  0.12502216373E+03 0.  0.
          5    1    4    4  502    0  0.22366877615E+02 -0.15271403882E+02 -0.70171989250E+01  0.28369421417E+02  0.47000000000E+01 0.  1.
         -5    1    4    4    0  502 -0.54548391456E+01 -0.38246011385E+02 -0.38777292015E+03  0.38972097744E+03  0.47000000000E+01 0.  1.
          5    1    5    5  503    0  0.45156681297E+02  0.30514485155E+02 -0.87951254350E+02  0.10357496228E+03  0.47000000000E+01 0.  1.
         -5    1    5    5    0  503 -0.62068719766E+02  0.23002930112E+02 -0.31907252500E+03  0.32590033289E+03  0.47000000000E+01 0.  1.
<mgrwt>
<rscale>  0 0.27470362E+03</rscale>
<asrwt>0</asrwt>
<pdfrwt beam="1">  1        2 0.12687535E+00 0.27470362E+03</pdfrwt>
<pdfrwt beam="2">  1       -2 0.35193690E-02 0.27470362E+03</pdfrwt>
<totfact> 0.11332521E+04</totfact>
</mgrwt>
</event>
<event>
 9    1  0.7926126E-001  0.2751550E+03  0.7818608E-02  0.1098365E+00
         -2   -1    0    0    0  501 -0.00000000000E+00  0.00000000000E+00  0.76652068485E+01  0.76652068485E+01  0.00000000000E+00 0. -1.
          2   -1    0    0  501    0  0.00000000000E+00 -0.00000000000E+00 -0.24692834810E+04  0.24692834810E+04  0.00000000000E+00 0. -1.
         35    2    1    2    0    0  0.00000000000E+00  0.00000000000E+00 -0.24616182742E+04  0.24769486879E+04  0.27515500104E+03 0.  0.
         25    2    3    3    0    0 -0.59496345886E+00  0.51909534435E+02 -0.14439802839E+04  0.14503180928E+04  0.12509418991E+03 0.  0.
         25    2    3    3    0    0  0.59496345886E+00 -0.51909534435E+02 -0.10176379903E+04  0.10266305950E+04  0.12525312643E+03 0.  0.
          5    1    4    4  502    0 -0.31051544463E+02  0.78160021992E+02 -0.66912703566E+03  0.67440808662E+03  0.47000000000E+01 0.  1.
         -5    1    4    4    0  502  0.30456581004E+02 -0.26250487557E+02 -0.77485324824E+03  0.77591000620E+03  0.47000000000E+01 0.  1.
          5    1    5    5  503    0  0.20610201389E+02 -0.22105267291E+02 -0.94474791935E+03  0.94524290230E+03  0.47000000000E+01 0.  1.
         -5    1    5    5    0  503 -0.20015237930E+02 -0.29804267144E+02 -0.72890070914E+02  0.81387692726E+02  0.47000000000E+01 0.  1.
<mgrwt>
<rscale>  0 0.27515500E+03</rscale>
<asrwt>0</asrwt>
<pdfrwt beam="1">  1        2 0.37988983E+00 0.27515500E+03</pdfrwt>
<pdfrwt beam="2">  1       -2 0.11792624E-02 0.27515500E+03</pdfrwt>
<totfact> 0.69913074E+03</totfact>
</mgrwt>
</event>
<event>
 9    1  0.7926126E-001  0.2741824E+03  0.7818608E-02  0.1098909E+00
          2   -1    0    0  501    0  0.00000000000E+00  0.00000000000E+00  0.74303566367E+03  0.74303566367E+03  0.00000000000E+00 0. -1.
         -2   -1    0    0    0  501 -0.00000000000E+00 -0.00000000000E+00 -0.25293538123E+02  0.25293538123E+02  0.00000000000E+00 0. -1.
         35    2    1    2    0    0 -0.71054273576E-14  0.62172489379E-14  0.71774212555E+03  0.76832920179E+03  0.27418242749E+03 0.  0.
         25    2    3    3    0    0 -0.49529764680E+01 -0.27582198195E+00  0.19892039373E+03  0.23454477399E+03  0.12416650075E+03 0.  0.
         25    2    3    3    0    0  0.49529764680E+01  0.27582198195E+00  0.51882173182E+03  0.53378442780E+03  0.12540023089E+03 0.  0.
          5    1    4    4  502    0 -0.62819056348E+02 -0.26056171646E+01  0.12938603973E+03  0.14393005370E+03  0.47000000000E+01 0. -1.
         -5    1    4    4    0  502  0.57866079880E+02  0.23297951826E+01  0.69534353996E+02  0.90614720283E+02  0.47000000000E+01 0. -1.
          5    1    5    5  503    0 -0.32553034200E+02 -0.51643425038E+02  0.26068858462E+03  0.26778232118E+03  0.47000000000E+01 0.  1.
         -5    1    5    5    0  503  0.37506010668E+02  0.51919247020E+02  0.25813314719E+03  0.26600210662E+03  0.47000000000E+01 0.  1.
<mgrwt>
<rscale>  0 0.27418243E+03</rscale>
<asrwt>0</asrwt>
<pdfrwt beam="1">  1        2 0.11431316E+00 0.27418243E+03</pdfrwt>
<pdfrwt beam="2">  1       -2 0.38913141E-02 0.27418243E+03</pdfrwt>
<totfact> 0.11118334E+04</totfact>
</mgrwt>
</event>
<event>
 9    1  0.7926126E-001  0.2757899E+03  0.7818608E-02  0.1098011E+00
          2   -1    0    0  501    0  0.00000000000E+00  0.00000000000E+00  0.22161939949E+04  0.22161939949E+04  0.00000000000E+00 0. -1.
         -2   -1    0    0    0  501 -0.00000000000E+00 -0.00000000000E+00 -0.85800299315E+01  0.85800299315E+01  0.00000000000E+00 0. -1.
         35    2    1    2    0    0  0.00000000000E+00 -0.35527136788E-14  0.22076139649E+04  0.22247740248E+04  0.27578985340E+03 0.  0.
         25    2    3    3    0    0  0.36522525291E+02 -0.14548265164E+02  0.73625579197E+03  0.74768313109E+03  0.12414478013E+03 0.  0.
         25    2    3    3    0    0 -0.36522525291E+02  0.14548265164E+02  0.14713581730E+04  0.14770908937E+04  0.12392371949E+03 0.  0.
          5    1    4    4  502    0  0.77784613265E+02 -0.32456623785E+02  0.51202609540E+03  0.51893804145E+03  0.47000000000E+01 0.  1.
         -5    1    4    4    0  502 -0.41262087974E+02  0.17908358621E+02  0.22422969657E+03  0.22874508964E+03  0.47000000000E+01 0.  1.
          5    1    5    5  503    0  0.15949418194E+02 -0.16850475566E+02  0.61491633416E+02  0.65891072595E+02  0.47000000000E+01 0. -1.
         -5    1    5    5    0  503 -0.52471943485E+02  0.31398740729E+02  0.14098665396E+04  0.14111998211E+04  0.47000000000E+01 0. -1.
<mgrwt>
<rscale>  0 0.27578985E+03</rscale>
<asrwt>0</asrwt>
<pdfrwt beam="1">  1        2 0.34095247E+00 0.27578985E+03</pdfrwt>
<pdfrwt beam="2">  1       -2 0.13200064E-02 0.27578985E+03</pdfrwt>
<totfact> 0.81198430E+03</totfact>
</mgrwt>
</event>
<event>
 9    1  0.7926126E-001  0.2974483E+03  0.7818608E-02  0.1086523E+00
         -1   -1    0    0    0  501 -0.00000000000E+00  0.00000000000E+00  0.22818602995E+02  0.22818602995E+02  0.00000000000E+00 0.  1.
          1   -1    0    0  501    0  0.00000000000E+00 -0.00000000000E+00 -0.96933538686E+03  0.96933538686E+03  0.00000000000E+00 0.  1.
         35    2    1    2    0    0  0.00000000000E+00  0.00000000000E+00 -0.94651678387E+03  0.99215398986E+03  0.29744834416E+03 0.  0.
         25    2    3    3    0    0 -0.61996617519E+02 -0.44766436484E+02 -0.40566715431E+03  0.43143872891E+03  0.12540303940E+03 0.  0.
         25    2    3    3    0    0  0.61996617519E+02  0.44766436484E+02 -0.54084962956E+03  0.56071526095E+03  0.12663201671E+03 0.  0.
          5    1    4    4  502    0 -0.18328518282E+02 -0.84702327022E+02 -0.21946152551E+03  0.23599972450E+03  0.47000000000E+01 0. -1.
         -5    1    4    4    0  502 -0.43668099237E+02  0.39935890538E+02 -0.18620562881E+03  0.19543900441E+03  0.47000000000E+01 0. -1.
          5    1    5    5  503    0  0.95443805305E+02  0.49088920001E+01 -0.34907440341E+03  0.36195116564E+03  0.47000000000E+01 0. -1.
         -5    1    5    5    0  503 -0.33447187786E+02  0.39857544484E+02 -0.19177522614E+03  0.19876409531E+03  0.47000000000E+01 0. -1.
<mgrwt>
<rscale>  0 0.29744834E+03</rscale>
<asrwt>0</asrwt>
<pdfrwt beam="1">  1        1 0.14912847E+00 0.29744834E+03</pdfrwt>
<pdfrwt beam="2">  1       -1 0.35105555E-02 0.29744834E+03</pdfrwt>
<totfact> 0.50456955E+03</totfact>
</mgrwt>
</event>
<event>
 9    1  0.7926126E-001  0.2760399E+03  0.7818608E-02  0.1097872E+00
          1   -1    0    0  501    0  0.00000000000E+00  0.00000000000E+00  0.47784101842E+03  0.47784101842E+03  0.00000000000E+00 0.  1.
         -1   -1    0    0    0  501 -0.00000000000E+00 -0.00000000000E+00 -0.39865794936E+02  0.39865794936E+02  0.00000000000E+00 0.  1.
         35    2    1    2    0    0 -0.71054273576E-14  0.00000000000E+00  0.43797522348E+03  0.51770681335E+03  0.27603993952E+03 0.  0.
         25    2    3    3    0    0 -0.33029213790E+02  0.30157508980E+02  0.28817897926E+03  0.31739445976E+03  0.12526657452E+03 0.  0.
         25    2    3    3    0    0  0.33029213790E+02 -0.30157508980E+02  0.14979624422E+03  0.20031235359E+03  0.12524264412E+03 0.  0.
          5    1    4    4  502    0  0.31316633689E+02  0.14754482741E+02  0.18211310652E+02  0.39397565181E+02  0.47000000000E+01 0.  1.
         -5    1    4    4    0  502 -0.64345847479E+02  0.15403026238E+02  0.26996766861E+03  0.27799689458E+03  0.47000000000E+01 0.  1.
          5    1    5    5  503    0  0.53736854222E+02 -0.19878770528E+02  0.97698472081E+01  0.58312562402E+02  0.47000000000E+01 0. -1.
         -5    1    5    5    0  503 -0.20707640432E+02 -0.10278738451E+02  0.14002639702E+03  0.14199979119E+03  0.47000000000E+01 0. -1.
<mgrwt>
<rscale>  0 0.27603994E+03</rscale>
<asrwt>0</asrwt>
<pdfrwt beam="1">  1        1 0.73513999E-01 0.27603994E+03</pdfrwt>
<pdfrwt beam="2">  1       -1 0.61331996E-02 0.27603994E+03</pdfrwt>
<totfact> 0.61704207E+03</totfact>
</mgrwt>
</event>
<event>
 9    1  0.7926126E-001  0.2770944E+03  0.7818608E-02  0.1097287E+00
         -2   -1    0    0    0  501 -0.00000000000E+00  0.00000000000E+00  0.53250685347E+02  0.53250685347E+02  0.00000000000E+00 0.  1.
          2   -1    0    0  501    0  0.00000000000E+00 -0.00000000000E+00 -0.36047109121E+03  0.36047109121E+03  0.00000000000E+00 0.  1.
         35    2    1    2    0    0  0.71054273576E-14  0.00000000000E+00 -0.30722040586E+03  0.41372177656E+03  0.27709444350E+03 0.  0.
         25    2    3    3    0    0  0.32133735443E+02 -0.49696345551E+02 -0.16901439692E+03  0.21841113919E+03  0.12504101583E+03 0.  0.
         25    2    3    3    0    0 -0.32133735443E+02  0.49696345551E+02 -0.13820600894E+03  0.19531063737E+03  0.12467173075E+03 0.  0.
          5    1    4    4  502    0  0.12824624660E+02 -0.56385312616E+02 -0.18380984248E+03  0.19274834025E+03  0.47000000000E+01 0.  1.
         -5    1    4    4    0  502  0.19309110783E+02  0.66889670651E+01  0.14795445565E+02  0.25662798933E+02  0.47000000000E+01 0.  1.
          5    1    5    5  503    0 -0.73768243173E+02  0.58517158024E+02 -0.84307212235E+02  0.12647453308E+03  0.47000000000E+01 0. -1.
         -5    1    5    5    0  503  0.41634507730E+02 -0.88208124728E+01 -0.53898796709E+02  0.68836104286E+02  0.47000000000E+01 0. -1.
<mgrwt>
<rscale>  0 0.27709444E+03</rscale>
<asrwt>0</asrwt>
<pdfrwt beam="1">  1        2 0.55457093E-01 0.27709444E+03</pdfrwt>
<pdfrwt beam="2">  1       -2 0.81924129E-02 0.27709444E+03</pdfrwt>
<totfact> 0.80966379E+03</totfact>
</mgrwt>
</event>
<event>
 9    1  0.7926126E-001  0.2776002E+03  0.7818608E-02  0.1097007E+00
         -2   -1    0    0    0  501 -0.00000000000E+00  0.00000000000E+00  0.16592024467E+03  0.16592024467E+03  0.00000000000E+00 0. -1.
          2   -1    0    0  501    0  0.00000000000E+00 -0.00000000000E+00 -0.11611281172E+03  0.11611281172E+03  0.00000000000E+00 0. -1.
         35    2    1    2    0    0  0.35527136788E-14 -0.35527136788E-14  0.49807432949E+02  0.28203305639E+03  0.27760018826E+03 0.  0.
         25    2    3    3    0    0 -0.19219906313E+02  0.73705894997E+01  0.81600542043E+02  0.15048562010E+03  0.12475392982E+03 0.  0.
         25    2    3    3    0    0  0.19219906313E+02 -0.73705894997E+01 -0.31793109094E+02  0.13154743630E+03  0.12597696544E+03 0.  0.
          5    1    4    4  502    0  0.26549536678E+02 -0.71637756262E+01 -0.22438672513E+02  0.35801977643E+02  0.47000000000E+01 0. -1.
         -5    1    4    4    0  502 -0.45769442990E+02  0.14534365126E+02  0.10403921456E+03  0.11468364245E+03  0.47000000000E+01 0. -1.
          5    1    5    5  503    0 -0.29566994467E+02 -0.52328533561E+02 -0.22700568787E+02  0.64419627519E+02  0.47000000000E+01 0. -1.
         -5    1    5    5    0  503  0.48786900780E+02  0.44957944061E+02 -0.90925403071E+01  0.67127808777E+02  0.47000000000E+01 0. -1.
<mgrwt>
<rscale>  0 0.27760019E+03</rscale>
<asrwt>0</asrwt>
<pdfrwt beam="1">  1        2 0.17863509E-01 0.27760019E+03</pdfrwt>
<pdfrwt beam="2">  1       -2 0.25526191E-01 0.27760019E+03</pdfrwt>
<totfact> 0.43144248E+03</totfact>
</mgrwt>
</event>
<event>
 9    1  0.7926126E-001  0.2783231E+03  0.7818608E-02  0.1096608E+00
         -1   -1    0    0    0  501 -0.00000000000E+00  0.00000000000E+00  0.11160893033E+02  0.11160893033E+02  0.00000000000E+00 0. -1.
          1   -1    0    0  501    0  0.00000000000E+00 -0.00000000000E+00 -0.17351606191E+04  0.17351606191E+04  0.00000000000E+00 0. -1.
         35    2    1    2    0    0  0.00000000000E+00  0.00000000000E+00 -0.17239997261E+04  0.17463215122E+04  0.27832313641E+03 0.  0.
         25    2    3    3    0    0  0.43979931366E+02 -0.34277635192E+02 -0.10130902282E+04  0.10227496488E+04  0.12866951060E+03 0.  0.
         25    2    3    3    0    0 -0.43979931366E+02  0.34277635192E+02 -0.71090949787E+03  0.72357186337E+03  0.12269774509E+03 0.  0.
          5    1    4    4  502    0  0.10562363708E+02 -0.37025240158E+02 -0.78634274739E+02  0.87680505812E+02  0.47000000000E+01 0. -1.
         -5    1    4    4    0  502  0.33417567658E+02  0.27476049657E+01 -0.93445595350E+03  0.93506914300E+03  0.47000000000E+01 0. -1.
          5    1    5    5  503    0  0.30585116615E+02  0.49642228697E+02 -0.30913640856E+03  0.31462232808E+03  0.47000000000E+01 0.  1.
         -5    1    5    5    0  503 -0.74565047981E+02 -0.15364593506E+02 -0.40177308931E+03  0.40894953529E+03  0.47000000000E+01 0.  1.
<mgrwt>
<rscale>  0 0.27832314E+03</rscale>
<asrwt>0</asrwt>
<pdfrwt beam="1">  1        1 0.26694773E+00 0.27832314E+03</pdfrwt>
<pdfrwt beam="2">  1       -1 0.17170608E-02 0.27832314E+03</pdfrwt>
<totfact> 0.42979536E+03</totfact>
</mgrwt>
</event>
<event>
 9    1  0.7926126E-001  0.2823509E+03  0.7818608E-02  0.1094412E+00
          2   -1    0    0  501    0  0.00000000000E+00  0.00000000000E+00  0.73203730876E+01  0.73203730876E+01  0.00000000000E+00 0.  1.
         -2   -1    0    0    0  501 -0.00000000000E+00 -0.00000000000E+00 -0.27226085145E+04  0.27226085145E+04  0.00000000000E+00 0.  1.
         35    2    1    2    0    0  0.00000000000E+00  0.00000000000E+00 -0.27152881414E+04  0.27299288876E+04  0.28235091710E+03 0.  0.
         25    2    3    3    0    0  0.16837279797E+02  0.61510199660E+01 -0.19746577752E+04  0.19786138566E+04  0.12376645574E+03 0.  0.
         25    2    3    3    0    0 -0.16837279797E+02 -0.61510199660E+01 -0.74063036623E+03  0.75131503095E+03  0.12497842736E+03 0.  0.
          5    1    4    4  502    0 -0.36672272918E+02  0.44417084667E+02 -0.78080700642E+03  0.78294278481E+03  0.47000000000E+01 0. -1.
         -5    1    4    4    0  502  0.53509552715E+02 -0.38266064701E+02 -0.11938507687E+04  0.11956710718E+04  0.47000000000E+01 0. -1.
          5    1    5    5  503    0 -0.45661437870E+02  0.46935914690E+02 -0.37907466780E+03  0.38471761172E+03  0.47000000000E+01 0.  1.
         -5    1    5    5    0  503  0.28824158073E+02 -0.53086934656E+02 -0.36155569843E+03  0.36659741923E+03  0.47000000000E+01 0.  1.
<mgrwt>
<rscale>  0 0.28235092E+03</rscale>
<asrwt>0</asrwt>
<pdfrwt beam="1">  1        2 0.11262107E-02 0.28235092E+03</pdfrwt>
<pdfrwt beam="2">  1       -2 0.41886306E+00 0.28235092E+03</pdfrwt>
<totfact> 0.83262735E+01</totfact>
</mgrwt>
</event>
<event>
 9    1  0.7926126E-001  0.2697627E+03  0.7818608E-02  0.1101416E+00
          1   -1    0    0  501    0  0.00000000000E+00  0.00000000000E+00  0.95665246456E+03  0.95665246456E+03  0.00000000000E+00 0.  1.
         -1   -1    0    0    0  501 -0.00000000000E+00 -0.00000000000E+00 -0.19017330793E+02  0.19017330793E+02  0.00000000000E+00 0.  1.
         35    2    1    2    0    0  0.00000000000E+00 -0.35527136788E-14  0.93763513376E+03  0.97566979535E+03  0.26976268365E+03 0.  0.
         25    2    3    3    0    0 -0.28976947233E+02  0.20770874966E+02  0.62397037705E+03  0.63658884731E+03  0.12097618101E+03 0.  0.
         25    2    3    3    0    0  0.28976947233E+02 -0.20770874966E+02  0.31366475671E+03  0.33908094803E+03  0.12377082450E+03 0.  0.
          5    1    4    4  502    0 -0.71038370716E+02  0.30471220751E+01  0.25476165125E+03  0.26453983446E+03  0.47000000000E+01 0. -1.
         -5    1    4    4    0  502  0.42061423484E+02  0.17723752891E+02  0.36920872580E+03  0.37204901286E+03  0.47000000000E+01 0. -1.
          5    1    5    5  503    0 -0.21506727991E+02  0.29677724567E+02  0.33318697934E+02  0.49754721549E+02  0.47000000000E+01 0. -1.
         -5    1    5    5    0  503  0.50483675223E+02 -0.50448599533E+02  0.28034605878E+03  0.28932622649E+03  0.47000000000E+01 0. -1.
<mgrwt>
<rscale>  0 0.26976268E+03</rscale>
<asrwt>0</asrwt>
<pdfrwt beam="1">  1        1 0.14717726E+00 0.26976268E+03</pdfrwt>
<pdfrwt beam="2">  1       -1 0.29257439E-02 0.26976268E+03</pdfrwt>
<totfact> 0.67429175E+03</totfact>
</mgrwt>
</event>
<event>
 9    1  0.7926126E-001  0.2751593E+03  0.7818608E-02  0.1098363E+00
          1   -1    0    0  501    0  0.00000000000E+00  0.00000000000E+00  0.17135677760E+02  0.17135677760E+02  0.00000000000E+00 0. -1.
         -1   -1    0    0    0  501 -0.00000000000E+00 -0.00000000000E+00 -0.11046052926E+04  0.11046052926E+04  0.00000000000E+00 0. -1.
         35    2    1    2    0    0 -0.35527136788E-14  0.35527136788E-14 -0.10874696148E+04  0.11217409703E+04  0.27515930183E+03 0.  0.
         25    2    3    3    0    0  0.26344497196E+02 -0.29051533668E+02 -0.35427889724E+03  0.37702469245E+03  0.12286601462E+03 0.  0.
         25    2    3    3    0    0 -0.26344497196E+02  0.29051533668E+02 -0.73319071758E+03  0.74471627788E+03  0.12448165352E+03 0.  0.
          5    1    4    4  502    0  0.74174389715E+02 -0.20640981569E+02 -0.17541648015E+03  0.19162703807E+03  0.47000000000E+01 0. -1.
         -5    1    4    4    0  502 -0.47829892519E+02 -0.84105520994E+01 -0.17886241709E+03  0.18539765439E+03  0.47000000000E+01 0. -1.
          5    1    5    5  503    0 -0.49033684855E+02  0.11791354572E+01 -0.11069078494E+03  0.12116200923E+03  0.47000000000E+01 0.  1.
         -5    1    5    5    0  503  0.22689187659E+02  0.27872398211E+02 -0.62249993264E+03  0.62355426865E+03  0.47000000000E+01 0.  1.
<mgrwt>
<rscale>  0 0.27515930E+03</rscale>
<asrwt>0</asrwt>
<pdfrwt beam="1">  1        1 0.26362584E-02 0.27515930E+03</pdfrwt>
<pdfrwt beam="2">  1       -1 0.16993926E+00 0.27515930E+03</pdfrwt>
<totfact> 0.11019551E+03</totfact>
</mgrwt>
</event>
<event>
 9    1  0.7926126E-001  0.2733046E+03  0.7818608E-02  0.1099403E+00
         -2   -1    0    0    0  501 -0.00000000000E+00  0.00000000000E+00  0.58928406309E+02  0.58928406309E+02  0.00000000000E+00 0.  1.
          2   -1    0    0  501    0  0.00000000000E+00 -0.00000000000E+00 -0.31689048874E+03  0.31689048874E+03  0.00000000000E+00 0.  1.
         35    2    1    2    0    0 -0.35527136788E-14 -0.14210854715E-13 -0.25796208243E+03  0.37581889504E+03  0.27330460278E+03 0.  0.
         25    2    3    3    0    0 -0.11439678856E+02  0.51752795728E+02 -0.14176091683E+03  0.19683237741E+03  0.12584756310E+03 0.  0.
         25    2    3    3    0    0  0.11439678856E+02 -0.51752795728E+02 -0.11620116560E+03  0.17898651764E+03  0.12539634959E+03 0.  0.
          5    1    4    4  502    0 -0.25735605263E+02  0.81337348772E+02 -0.49413150854E+02  0.98700735361E+02  0.47000000000E+01 0.  1.
         -5    1    4    4    0  502  0.14295926406E+02 -0.29584553044E+02 -0.92347765974E+02  0.98131642048E+02  0.47000000000E+01 0.  1.
          5    1    5    5  503    0  0.41089408759E+02  0.15255963866E+02 -0.31638922373E+01  0.44194843135E+02  0.47000000000E+01 0. -1.
         -5    1    5    5    0  503 -0.29649729903E+02 -0.67008759594E+02 -0.11303727336E+03  0.13479167450E+03  0.47000000000E+01 0. -1.
<mgrwt>
<rscale>  0 0.27330460E+03</rscale>
<asrwt>0</asrwt>
<pdfrwt beam="1">  1        2 0.48752383E-01 0.27330460E+03</pdfrwt>
<pdfrwt beam="2">  1       -2 0.90659086E-02 0.27330460E+03</pdfrwt>
<totfact> 0.79303837E+03</totfact>
</mgrwt>
</event>
<event>
 9    1  0.7926126E-001  0.2747159E+03  0.7818608E-02  0.1098611E+00
          1   -1    0    0  501    0  0.00000000000E+00  0.00000000000E+00  0.17420153032E+02  0.17420153032E+02  0.00000000000E+00 0.  1.
         -1   -1    0    0    0  501 -0.00000000000E+00 -0.00000000000E+00 -0.10830674782E+04  0.10830674782E+04  0.00000000000E+00 0.  1.
         35    2    1    2    0    0  0.71054273576E-14  0.35527136788E-14 -0.10656473252E+04  0.11004876312E+04  0.27471586204E+03 0.  0.
         25    2    3    3    0    0  0.25251616865E+02  0.28837298608E+02 -0.38287704218E+03  0.40456722041E+03  0.12494227650E+03 0.  0.
         25    2    3    3    0    0 -0.25251616865E+02 -0.28837298608E+02 -0.68277028297E+03  0.69592041081E+03  0.12907643054E+03 0.  0.
          5    1    4    4  502    0 -0.28832069154E+01  0.74525601409E+01 -0.36420475148E+03  0.36432272031E+03  0.47000000000E+01 0. -1.
         -5    1    4    4    0  502  0.28134823781E+02  0.21384738467E+02 -0.18672290705E+02  0.40244500104E+02  0.47000000000E+01 0. -1.
          5    1    5    5  503    0  0.17880236729E+02  0.33923922287E+02 -0.43391108103E+03  0.43562765248E+03  0.47000000000E+01 0. -1.
         -5    1    5    5    0  503 -0.43131853595E+02 -0.62761220895E+02 -0.24885920195E+03  0.26029275832E+03  0.47000000000E+01 0. -1.
<mgrwt>
<rscale>  0 0.27471586E+03</rscale>
<asrwt>0</asrwt>
<pdfrwt beam="1">  1        1 0.26800227E-02 0.27471586E+03</pdfrwt>
<pdfrwt beam="2">  1       -1 0.16662582E+00 0.27471586E+03</pdfrwt>
<totfact> 0.11372859E+03</totfact>
</mgrwt>
</event>
<event>
 9    1  0.7926126E-001  0.2716511E+03  0.7818608E-02  0.1100338E+00
          1   -1    0    0  501    0  0.00000000000E+00  0.00000000000E+00  0.18051441433E+02  0.18051441433E+02  0.00000000000E+00 0.  1.
         -1   -1    0    0    0  501 -0.00000000000E+00 -0.00000000000E+00 -0.10220004772E+04  0.10220004772E+04  0.00000000000E+00 0.  1.
         35    2    1    2    0    0 -0.35527136788E-14 -0.71054273576E-14 -0.10039490358E+04  0.10400519187E+04  0.27165111271E+03 0.  0.
         25    2    3    3    0    0 -0.18591763909E+02 -0.37921311779E+02 -0.36494377239E+03  0.38796021453E+03  0.12468156029E+03 0.  0.
         25    2    3    3    0    0  0.18591763909E+02  0.37921311779E+02 -0.63900526341E+03  0.65209170414E+03  0.12293162478E+03 0.  0.
          5    1    4    4  502    0 -0.27627348774E+01 -0.21651217828E+02 -0.36407901616E+03  0.36476297502E+03  0.47000000000E+01 0.  1.
         -5    1    4    4    0  502 -0.15829029031E+02 -0.16270093950E+02 -0.86475622671E+00  0.23197239503E+02  0.47000000000E+01 0.  1.
          5    1    5    5  503    0 -0.23941340170E+02 -0.35642016917E+02 -0.26738373675E+03  0.27084994705E+03  0.47000000000E+01 0.  1.
         -5    1    5    5    0  503  0.42533104079E+02  0.73563328695E+02 -0.37162152666E+03  0.38124175709E+03  0.47000000000E+01 0.  1.
<mgrwt>
<rscale>  0 0.27165111E+03</rscale>
<asrwt>0</asrwt>
<pdfrwt beam="1">  1        1 0.27771443E-02 0.27165111E+03</pdfrwt>
<pdfrwt beam="2">  1       -1 0.15723087E+00 0.27165111E+03</pdfrwt>
<totfact> 0.12670726E+03</totfact>
</mgrwt>
</event>
<event>
 9    1  0.7926126E-001  0.2761291E+03  0.7818608E-02  0.1097822E+00
         -2   -1    0    0    0  501 -0.00000000000E+00  0.00000000000E+00  0.31492179730E+02  0.31492179730E+02  0.00000000000E+00 0. -1.
          2   -1    0    0  501    0  0.00000000000E+00 -0.00000000000E+00 -0.60528730626E+03  0.60528730626E+03  0.00000000000E+00 0. -1.
         35    2    1    2    0    0  0.71054273576E-14 -0.71054273576E-14 -0.57379512653E+03  0.63677948599E+03  0.27612907588E+03 0.  0.
         25    2    3    3    0    0 -0.32943932390E+02 -0.24386233111E+02 -0.38403216596E+03  0.40600430019E+03  0.12521500003E+03 0.  0.
         25    2    3    3    0    0  0.32943932390E+02  0.24386233111E+02 -0.18976296057E+03  0.23077518580E+03  0.12476864242E+03 0.  0.
          5    1    4    4  502    0 -0.36535926615E+02  0.25914276584E+02 -0.32550243186E+03  0.32860363176E+03  0.47000000000E+01 0.  1.
         -5    1    4    4    0  502  0.35919942248E+01 -0.50300509694E+02 -0.58529734107E+02  0.77400668425E+02  0.47000000000E+01 0.  1.
          5    1    5    5  503    0  0.77452058426E+02 -0.49607871941E+01 -0.11570575484E+03  0.13940352387E+03  0.47000000000E+01 0. -1.
         -5    1    5    5    0  503 -0.44508126036E+02  0.29347020305E+02 -0.74057205728E+02  0.91371661932E+02  0.47000000000E+01 0. -1.
<mgrwt>
<rscale>  0 0.27612908E+03</rscale>
<asrwt>0</asrwt>
<pdfrwt beam="1">  1        2 0.93121122E-01 0.27612908E+03</pdfrwt>
<pdfrwt beam="2">  1       -2 0.48449508E-02 0.27612908E+03</pdfrwt>
<totfact> 0.10213607E+04</totfact>
</mgrwt>
</event>
<event>
 9    1  0.7926126E-001  0.2732524E+03  0.7818608E-02  0.1099432E+00
          1   -1    0    0  501    0  0.00000000000E+00  0.00000000000E+00  0.78345564438E+02  0.78345564438E+02  0.00000000000E+00 0. -1.
         -1   -1    0    0    0  501 -0.00000000000E+00 -0.00000000000E+00 -0.23826133588E+03  0.23826133588E+03  0.00000000000E+00 0. -1.
         35    2    1    2    0    0  0.71054273576E-14 -0.21316282073E-13 -0.15991577145E+03  0.31660690032E+03  0.27325240232E+03 0.  0.
         25    2    3    3    0    0  0.30307340806E+02 -0.38131322107E+02 -0.44188010807E+02  0.13926597528E+03  0.12275951670E+03 0.  0.
         25    2    3    3    0    0 -0.30307340806E+02  0.38131322107E+02 -0.11572776064E+03  0.17734092504E+03  0.12523720086E+03 0.  0.
          5    1    4    4  502    0 -0.38706816835E+01  0.41024583038E+02 -0.31305714341E+02  0.51962836148E+02  0.47000000000E+01 0. -1.
         -5    1    4    4    0  502  0.34178022489E+02 -0.79155905145E+02 -0.12882296466E+02  0.87303139135E+02  0.47000000000E+01 0. -1.
          5    1    5    5  503    0  0.68246144515E+00 -0.35553662668E+02  0.88755641410E+00  0.35880446473E+02  0.47000000000E+01 0.  1.
         -5    1    5    5    0  503 -0.30989802251E+02  0.73684984775E+02 -0.11661531705E+03  0.14146047857E+03  0.47000000000E+01 0.  1.
<mgrwt>
<rscale>  0 0.27325240E+03</rscale>
<asrwt>0</asrwt>
<pdfrwt beam="1">  1        1 0.12053164E-01 0.27325240E+03</pdfrwt>
<pdfrwt beam="2">  1       -1 0.36655590E-01 0.27325240E+03</pdfrwt>
<totfact> 0.35777521E+03</totfact>
</mgrwt>
</event>
<event>
 9    1  0.7926126E-001  0.2771389E+03  0.7818608E-02  0.1097262E+00
         -3   -1    0    0    0  501 -0.00000000000E+00  0.00000000000E+00  0.97764521188E+02  0.97764521188E+02  0.00000000000E+00 0.  1.
          3   -1    0    0  501    0  0.00000000000E+00 -0.00000000000E+00 -0.19640550295E+03  0.19640550295E+03  0.00000000000E+00 0.  1.
         35    2    1    2    0    0  0.00000000000E+00 -0.71054273576E-14 -0.98640981765E+02  0.29417002414E+03  0.27713888183E+03 0.  0.
         25    2    3    3    0    0  0.40521952782E+02 -0.24816736418E+02 -0.14008140906E+02  0.13613981998E+03  0.12680663827E+03 0.  0.
         25    2    3    3    0    0 -0.40521952782E+02  0.24816736418E+02 -0.84632840859E+02  0.15803020416E+03  0.12471138124E+03 0.  0.
          5    1    4    4  502    0 -0.29823643589E+02 -0.81303764304E+01 -0.47065014651E+02  0.56504498422E+02  0.47000000000E+01 0.  1.
         -5    1    4    4    0  502  0.70345596371E+02 -0.16686359988E+02  0.33056873745E+02  0.79635321562E+02  0.47000000000E+01 0.  1.
          5    1    5    5  503    0 -0.57519768732E+02 -0.37325589043E+02 -0.40128852891E+02  0.79587299406E+02  0.47000000000E+01 0.  1.
         -5    1    5    5    0  503  0.16997815950E+02  0.62142325461E+02 -0.44503987968E+02  0.78442904752E+02  0.47000000000E+01 0.  1.
<mgrwt>
<rscale>  0 0.27713888E+03</rscale>
<asrwt>0</asrwt>
<pdfrwt beam="1">  1        3 0.30216231E-01 0.27713888E+03</pdfrwt>
<pdfrwt beam="2">  1       -3 0.15040696E-01 0.27713888E+03</pdfrwt>
<totfact> 0.99623822E+02</totfact>
</mgrwt>
</event>
<event>
 9    1  0.7926126E-001  0.2716295E+03  0.7818608E-02  0.1100351E+00
          2   -1    0    0  501    0  0.00000000000E+00  0.00000000000E+00  0.75158454337E+03  0.75158454337E+03  0.00000000000E+00 0.  1.
         -2   -1    0    0    0  501 -0.00000000000E+00 -0.00000000000E+00 -0.24542344119E+02  0.24542344119E+02  0.00000000000E+00 0.  1.
         35    2    1    2    0    0  0.71054273576E-14  0.00000000000E+00  0.72704219925E+03  0.77612688749E+03  0.27162950133E+03 0.  0.
         25    2    3    3    0    0 -0.48568591936E+02 -0.22330952394E+02  0.33722110763E+03  0.36330899664E+03  0.12416832144E+03 0.  0.
         25    2    3    3    0    0  0.48568591936E+02  0.22330952394E+02  0.38982109162E+03  0.41281789085E+03  0.12490215361E+03 0.  0.
          5    1    4    4  502    0 -0.14346764626E+02 -0.77075925352E+01  0.32260673569E+03  0.32305174903E+03  0.47000000000E+01 0.  1.
         -5    1    4    4    0  502 -0.34221827309E+02 -0.14623359859E+02  0.14614371941E+02  0.40257247611E+02  0.47000000000E+01 0.  1.
          5    1    5    5  503    0 -0.14935277098E+02 -0.29075332106E+02  0.32825894084E+02  0.46562503814E+02  0.47000000000E+01 0. -1.
         -5    1    5    5    0  503  0.63503869034E+02  0.51406284500E+02  0.35699519753E+03  0.36625538703E+03  0.47000000000E+01 0. -1.
<mgrwt>
<rscale>  0 0.27162950E+03</rscale>
<asrwt>0</asrwt>
<pdfrwt beam="1">  1        2 0.11562837E+00 0.27162950E+03</pdfrwt>
<pdfrwt beam="2">  1       -2 0.37757458E-02 0.27162950E+03</pdfrwt>
<totfact> 0.11465354E+04</totfact>
</mgrwt>
</event>
<event>
 9    1  0.7926126E-001  0.2653376E+03  0.7818608E-02  0.1103978E+00
          2   -1    0    0  501    0  0.00000000000E+00  0.00000000000E+00  0.12162945427E+04  0.12162945427E+04  0.00000000000E+00 0.  1.
         -2   -1    0    0    0  501 -0.00000000000E+00 -0.00000000000E+00 -0.14471004790E+02  0.14471004790E+02  0.00000000000E+00 0.  1.
         35    2    1    2    0    0  0.00000000000E+00  0.00000000000E+00  0.12018235379E+04  0.12307655475E+04  0.26533755221E+03 0.  0.
         25    2    3    3    0    0 -0.79007913697E+01  0.17720075368E+02  0.79178293289E+03  0.80189685350E+03  0.12546683728E+03 0.  0.
         25    2    3    3    0    0  0.79007913697E+01 -0.17720075368E+02  0.41004060498E+03  0.42886869396E+03  0.12417179771E+03 0.  0.
          5    1    4    4  502    0  0.25112988975E+02  0.26145288354E+02  0.67211682219E+02  0.76509728435E+02  0.47000000000E+01 0. -1.
         -5    1    4    4    0  502 -0.33013780345E+02 -0.84252129861E+01  0.72457125067E+03  0.72538712506E+03  0.47000000000E+01 0. -1.
          5    1    5    5  503    0  0.31395927618E+02  0.43981139310E+02  0.24737542246E+03  0.25325231396E+03  0.47000000000E+01 0. -1.
         -5    1    5    5    0  503 -0.23495136248E+02 -0.61701214678E+02  0.16266518252E+03  0.17561638000E+03  0.47000000000E+01 0. -1.
<mgrwt>
<rscale>  0 0.26533755E+03</rscale>
<asrwt>0</asrwt>
<pdfrwt beam="1">  1        2 0.18712216E+00 0.26533755E+03</pdfrwt>
<pdfrwt beam="2">  1       -2 0.22263094E-02 0.26533755E+03</pdfrwt>
<totfact> 0.12872799E+04</totfact>
</mgrwt>
</event>
<event>
 9    1  0.7926126E-001  0.2775601E+03  0.7818608E-02  0.1097029E+00
          2   -1    0    0  501    0  0.00000000000E+00  0.00000000000E+00  0.97927048913E+03  0.97927048913E+03  0.00000000000E+00 0.  1.
         -2   -1    0    0    0  501 -0.00000000000E+00 -0.00000000000E+00 -0.19667601064E+02  0.19667601064E+02  0.00000000000E+00 0.  1.
         35    2    1    2    0    0  0.00000000000E+00  0.00000000000E+00  0.95960288807E+03  0.99893809020E+03  0.27756009305E+03 0.  0.
         25    2    3    3    0    0 -0.45279066989E+02 -0.25149779609E+02  0.36188680037E+03  0.38630762021E+03  0.12485517942E+03 0.  0.
         25    2    3    3    0    0  0.45279066989E+02  0.25149779609E+02  0.59771608770E+03  0.61263046999E+03  0.12397123029E+03 0.  0.
          5    1    4    4  502    0 -0.71397766012E+02  0.26073646280E+02  0.17866785355E+03  0.19422092553E+03  0.47000000000E+01 0. -1.
         -5    1    4    4    0  502  0.26118699023E+02 -0.51223425889E+02  0.18321894682E+03  0.19208669468E+03  0.47000000000E+01 0. -1.
          5    1    5    5  503    0  0.64892361178E+02 -0.29556126798E+02  0.40612041075E+03  0.41235962605E+03  0.47000000000E+01 0. -1.
         -5    1    5    5    0  503 -0.19613294189E+02  0.54705906407E+02  0.19159567695E+03  0.20027084394E+03  0.47000000000E+01 0. -1.
<mgrwt>
<rscale>  0 0.27756009E+03</rscale>
<asrwt>0</asrwt>
<pdfrwt beam="1">  1        2 0.15065696E+00 0.27756009E+03</pdfrwt>
<pdfrwt beam="2">  1       -2 0.30257855E-02 0.27756009E+03</pdfrwt>
<totfact> 0.11285161E+04</totfact>
</mgrwt>
</event>
<event>
 9    1  0.7926126E-001  0.2538889E+03  0.7818608E-02  0.1110872E+00
         -2   -1    0    0    0  501 -0.00000000000E+00  0.00000000000E+00  0.15087404025E+02  0.15087404025E+02  0.00000000000E+00 0.  1.
          2   -1    0    0  501    0  0.00000000000E+00 -0.00000000000E+00 -0.10681024151E+04  0.10681024151E+04  0.00000000000E+00 0.  1.
         35    2    1    2    0    0 -0.44408920985E-15  0.35527136788E-14 -0.10530150111E+04  0.10831898191E+04  0.25388889441E+03 0.  0.
         25    2    3    3    0    0 -0.12222044222E+01 -0.14376246902E+02 -0.45276786548E+03  0.46968282018E+03  0.12407675568E+03 0.  0.
         25    2    3    3    0    0  0.12222044222E+01  0.14376246902E+02 -0.60024714560E+03  0.61350699895E+03  0.12603980205E+03 0.  0.
          5    1    4    4  502    0  0.34112504459E+01  0.51313971968E+02 -0.12351624485E+03  0.13387723141E+03  0.47000000000E+01 0.  1.
         -5    1    4    4    0  502 -0.46334548681E+01 -0.65690218870E+02 -0.32925162063E+03  0.33580558877E+03  0.47000000000E+01 0.  1.
          5    1    5    5  503    0  0.78112270825E+01  0.14443152202E+02 -0.44430944386E+01  0.17647974452E+02  0.47000000000E+01 0.  1.
         -5    1    5    5    0  503 -0.65890226603E+01 -0.66905300445E-01 -0.59580405116E+03  0.59585902450E+03  0.47000000000E+01 0.  1.
<mgrwt>
<rscale>  0 0.25388889E+03</rscale>
<asrwt>0</asrwt>
<pdfrwt beam="1">  1        2 0.16432345E+00 0.25388889E+03</pdfrwt>
<pdfrwt beam="2">  1       -2 0.23211391E-02 0.25388889E+03</pdfrwt>
<totfact> 0.14721757E+04</totfact>
</mgrwt>
</event>
<event>
 9    1  0.7926126E-001  0.2741369E+03  0.7818608E-02  0.1098935E+00
          1   -1    0    0  501    0  0.00000000000E+00  0.00000000000E+00  0.40151900461E+03  0.40151900461E+03  0.00000000000E+00 0.  1.
         -1   -1    0    0    0  501 -0.00000000000E+00 -0.00000000000E+00 -0.46791709807E+02  0.46791709807E+02  0.00000000000E+00 0.  1.
         35    2    1    2    0    0  0.00000000000E+00  0.00000000000E+00  0.35472729480E+03  0.44831071441E+03  0.27413690555E+03 0.  0.
         25    2    3    3    0    0  0.11393657154E+02 -0.39089630673E+00  0.90432626532E+02  0.15556240625E+03  0.12606202470E+03 0.  0.
         25    2    3    3    0    0 -0.11393657154E+02  0.39089630673E+00  0.26429466827E+03  0.29274830817E+03  0.12537915312E+03 0.  0.
          5    1    4    4  502    0 -0.64328528757E+01  0.61330852940E+02  0.49775651201E+02  0.79388667774E+02  0.47000000000E+01 0. -1.
         -5    1    4    4    0  502  0.17826510030E+02 -0.61721749247E+02  0.40656975331E+02  0.76173738473E+02  0.47000000000E+01 0. -1.
          5    1    5    5  503    0  0.14231889571E+02 -0.45890065158E+02  0.21477502801E+03  0.22013370351E+03  0.47000000000E+01 0. -1.
         -5    1    5    5    0  503 -0.25625546725E+02  0.46280961464E+02  0.49519640255E+02  0.72614604660E+02  0.47000000000E+01 0. -1.
<mgrwt>
<rscale>  0 0.27413691E+03</rscale>
<asrwt>0</asrwt>
<pdfrwt beam="1">  1        1 0.61772152E-01 0.27413691E+03</pdfrwt>
<pdfrwt beam="2">  1       -1 0.71987249E-02 0.27413691E+03</pdfrwt>
<totfact> 0.60674381E+03</totfact>
</mgrwt>
</event>
<event>
 9    1  0.7926126E-001  0.2794954E+03  0.7818608E-02  0.1095965E+00
          1   -1    0    0  501    0  0.00000000000E+00  0.00000000000E+00  0.13294639560E+04  0.13294639560E+04  0.00000000000E+00 0. -1.
         -1   -1    0    0    0  501 -0.00000000000E+00 -0.00000000000E+00 -0.14689691625E+02  0.14689691625E+02  0.00000000000E+00 0. -1.
         35    2    1    2    0    0 -0.71054273576E-14  0.71054273576E-14  0.13147742644E+04  0.13441536476E+04  0.27949537056E+03 0.  0.
         25    2    3    3    0    0 -0.26230267952E+02  0.37034940843E+02  0.45341358809E+03  0.47251736231E+03  0.12501664698E+03 0.  0.
         25    2    3    3    0    0  0.26230267952E+02 -0.37034940843E+02  0.86136067631E+03  0.87163628533E+03  0.12549097746E+03 0.  0.
          5    1    4    4  502    0  0.36192413787E+02 -0.24946629687E+02  0.17511966256E+03  0.18061343074E+03  0.47000000000E+01 0. -1.
         -5    1    4    4    0  502 -0.62422681739E+02  0.61981570531E+02  0.27829392553E+03  0.29190393157E+03  0.47000000000E+01 0. -1.
          5    1    5    5  503    0  0.11672061036E+02  0.23032696721E+02  0.39396942962E+02  0.47338686524E+02  0.47000000000E+01 0. -1.
         -5    1    5    5    0  503  0.14558206916E+02 -0.60067637564E+02  0.82196373334E+03  0.82429759881E+03  0.47000000000E+01 0. -1.
<mgrwt>
<rscale>  0 0.27949537E+03</rscale>
<asrwt>0</asrwt>
<pdfrwt beam="1">  1        1 0.20453282E+00 0.27949537E+03</pdfrwt>
<pdfrwt beam="2">  1       -1 0.22599536E-02 0.27949537E+03</pdfrwt>
<totfact> 0.53407422E+03</totfact>
</mgrwt>
</event>
<event>
 9    1  0.7926126E-001  0.2775611E+03  0.7818608E-02  0.1097029E+00
         -3   -1    0    0    0  501 -0.00000000000E+00  0.00000000000E+00  0.30914892924E+02  0.30914892924E+02  0.00000000000E+00 0.  1.
          3   -1    0    0  501    0  0.00000000000E+00 -0.00000000000E+00 -0.62300185805E+03  0.62300185805E+03  0.00000000000E+00 0.  1.
         35    2    1    2    0    0  0.00000000000E+00  0.71054273576E-14 -0.59208696513E+03  0.65391675097E+03  0.27756106163E+03 0.  0.
         25    2    3    3    0    0  0.41513128229E+02  0.40917345156E+02 -0.25352185621E+03  0.28831962641E+03  0.12432741631E+03 0.  0.
         25    2    3    3    0    0 -0.41513128229E+02 -0.40917345156E+02 -0.33856510892E+03  0.36559712456E+03  0.12504941249E+03 0.  0.
          5    1    4    4  502    0  0.54345399573E+02  0.51736276467E+02 -0.66152914562E+02  0.10014171390E+03  0.47000000000E+01 0. -1.
         -5    1    4    4    0  502 -0.12832271344E+02 -0.10818931311E+02 -0.18736894165E+03  0.18817791251E+03  0.47000000000E+01 0. -1.
          5    1    5    5  503    0 -0.10327384398E+01  0.36913068501E+02 -0.18472713578E+03  0.18844056322E+03  0.47000000000E+01 0. -1.
         -5    1    5    5    0  503 -0.40480389790E+02 -0.77830413656E+02 -0.15383797314E+03  0.17715656134E+03  0.47000000000E+01 0. -1.
<mgrwt>
<rscale>  0 0.27756106E+03</rscale>
<asrwt>0</asrwt>
<pdfrwt beam="1">  1        3 0.95846451E-01 0.27756106E+03</pdfrwt>
<pdfrwt beam="2">  1       -3 0.47561368E-02 0.27756106E+03</pdfrwt>
<totfact> 0.62630914E+02</totfact>
</mgrwt>
</event>
<event>
 9    1  0.7926126E-001  0.2714850E+03  0.7818608E-02  0.1100433E+00
          3   -1    0    0  501    0  0.00000000000E+00  0.00000000000E+00  0.41153789591E+03  0.41153789591E+03  0.00000000000E+00 0. -1.
         -3   -1    0    0    0  501 -0.00000000000E+00 -0.00000000000E+00 -0.44773595068E+02  0.44773595068E+02  0.00000000000E+00 0. -1.
         35    2    1    2    0    0  0.00000000000E+00 -0.71054273576E-14  0.36676430084E+03  0.45631149098E+03  0.27148503536E+03 0.  0.
         25    2    3    3    0    0  0.30260713726E+02  0.43186479530E+02  0.16104143549E+03  0.20980361004E+03  0.12370298312E+03 0.  0.
         25    2    3    3    0    0 -0.30260713726E+02 -0.43186479530E+02  0.20572286536E+03  0.24650788094E+03  0.12515372637E+03 0.  0.
          5    1    4    4  502    0  0.69828167809E+02  0.48684000187E+02  0.14122820613E+03  0.16496545427E+03  0.47000000000E+01 0.  1.
         -5    1    4    4    0  502 -0.39567454083E+02 -0.54975206572E+01  0.19813229353E+02  0.44838155776E+02  0.47000000000E+01 0.  1.
          5    1    5    5  503    0 -0.63541232009E+02 -0.57606344907E+02  0.86913549344E+02  0.12219670289E+03  0.47000000000E+01 0. -1.
         -5    1    5    5    0  503  0.33280518283E+02  0.14419865377E+02  0.11880931601E+03  0.12431117804E+03  0.47000000000E+01 0. -1.
<mgrwt>
<rscale>  0 0.27148504E+03</rscale>
<asrwt>0</asrwt>
<pdfrwt beam="1">  1        3 0.63313520E-01 0.27148504E+03</pdfrwt>
<pdfrwt beam="2">  1       -3 0.68882457E-02 0.27148504E+03</pdfrwt>
<totfact> 0.85110209E+02</totfact>
</mgrwt>
</event>
<event>
 9    1  0.7926126E-001  0.2752754E+03  0.7818608E-02  0.1098298E+00
         -2   -1    0    0    0  501 -0.00000000000E+00  0.00000000000E+00  0.14216084331E+02  0.14216084331E+02  0.00000000000E+00 0.  1.
          2   -1    0    0  501    0  0.00000000000E+00 -0.00000000000E+00 -0.13325844735E+04  0.13325844735E+04  0.00000000000E+00 0.  1.
         35    2    1    2    0    0 -0.35527136788E-14  0.71054273576E-14 -0.13183683892E+04  0.13468005578E+04  0.27527537670E+03 0.  0.
         25    2    3    3    0    0  0.12800561062E+02  0.16726474875E+02 -0.39920985641E+03  0.41895605239E+03  0.12534765677E+03 0.  0.
         25    2    3    3    0    0 -0.12800561062E+02 -0.16726474875E+02 -0.91915853277E+03  0.92784450545E+03  0.12489751240E+03 0.  0.
          5    1    4    4  502    0  0.15936215835E+00  0.46263815476E+02 -0.50161082278E+02  0.68400220717E+02  0.47000000000E+01 0.  1.
         -5    1    4    4    0  502  0.12641198904E+02 -0.29537340602E+02 -0.34904877413E+03  0.35055583168E+03  0.47000000000E+01 0.  1.
          5    1    5    5  503    0  0.44359921718E+02  0.29078866006E+02 -0.38016362251E+03  0.38387478815E+03  0.47000000000E+01 0. -1.
         -5    1    5    5    0  503 -0.57160482780E+02 -0.45805340881E+02 -0.53899491027E+03  0.54396971730E+03  0.47000000000E+01 0. -1.
<mgrwt>
<rscale>  0 0.27527538E+03</rscale>
<asrwt>0</asrwt>
<pdfrwt beam="1">  1        2 0.20501298E+00 0.27527538E+03</pdfrwt>
<pdfrwt beam="2">  1       -2 0.21870901E-02 0.27527538E+03</pdfrwt>
<totfact> 0.11395185E+04</totfact>
</mgrwt>
</event>
<event>
 9    1  0.7926126E-001  0.2781718E+03  0.7818608E-02  0.1096692E+00
         -2   -1    0    0    0  501 -0.00000000000E+00  0.00000000000E+00  0.32232287757E+03  0.32232287757E+03  0.00000000000E+00 0. -1.
          2   -1    0    0  501    0  0.00000000000E+00 -0.00000000000E+00 -0.60017107437E+02  0.60017107437E+02  0.00000000000E+00 0. -1.
         35    2    1    2    0    0  0.00000000000E+00  0.44408920985E-15  0.26230577013E+03  0.38233998501E+03  0.27817179420E+03 0.  0.
         25    2    3    3    0    0 -0.42557387420E+02  0.19403471914E+01  0.19379334617E+03  0.23371098819E+03  0.12349116895E+03 0.  0.
         25    2    3    3    0    0  0.42557387420E+02 -0.19403471914E+01  0.68512423966E+02  0.14862899682E+03  0.12482680115E+03 0.  0.
          5    1    4    4  502    0  0.32660963251E+01 -0.34199914057E+01  0.18667393502E+03  0.18679296492E+03  0.47000000000E+01 0.  1.
         -5    1    4    4    0  502 -0.45823483745E+02  0.53603385971E+01  0.71194111442E+01  0.46918023268E+02  0.47000000000E+01 0.  1.
          5    1    5    5  503    0 -0.43715713673E+02  0.14063486864E+01  0.33713874356E+02  0.55423431531E+02  0.47000000000E+01 0.  1.
         -5    1    5    5    0  503  0.86273101093E+02 -0.33466958777E+01  0.34798549610E+02  0.93205565287E+02  0.47000000000E+01 0.  1.
<mgrwt>
<rscale>  0 0.27817179E+03</rscale>
<asrwt>0</asrwt>
<pdfrwt beam="1">  1        2 0.92334013E-02 0.27817179E+03</pdfrwt>
<pdfrwt beam="2">  1       -2 0.49588134E-01 0.27817179E+03</pdfrwt>
<totfact> 0.27585740E+03</totfact>
</mgrwt>
</event>
<event>
 9    1  0.7926126E-001  0.2721412E+03  0.7818608E-02  0.1100060E+00
         -2   -1    0    0    0  501 -0.00000000000E+00  0.00000000000E+00  0.26070447254E+03  0.26070447254E+03  0.00000000000E+00 0.  1.
          2   -1    0    0  501    0  0.00000000000E+00 -0.00000000000E+00 -0.71019885025E+02  0.71019885025E+02  0.00000000000E+00 0.  1.
         35    2    1    2    0    0 -0.35527136788E-14  0.71054273576E-14  0.18968458752E+03  0.33172435757E+03  0.27214115209E+03 0.  0.
         25    2    3    3    0    0 -0.34352355349E+01  0.42510693399E+02  0.13700925780E+03  0.18927644998E+03  0.12343045774E+03 0.  0.
         25    2    3    3    0    0  0.34352355349E+01 -0.42510693399E+02  0.52675329713E+02  0.14244790758E+03  0.12529068648E+03 0.  0.
          5    1    4    4  502    0  0.45966269878E+01 -0.43524398931E+02  0.44102629994E+02  0.62310787624E+02  0.47000000000E+01 0. -1.
         -5    1    4    4    0  502 -0.80318625227E+01  0.86035092330E+02  0.92906627809E+02  0.12696566236E+03  0.47000000000E+01 0. -1.
          5    1    5    5  503    0 -0.49836129532E+02  0.18111081092E+01  0.53088640388E+02  0.72989133832E+02  0.47000000000E+01 0. -1.
         -5    1    5    5    0  503  0.53271365067E+02 -0.44321801508E+02 -0.41331067564E+00  0.69458773749E+02  0.47000000000E+01 0. -1.
<mgrwt>
<rscale>  0 0.27214115E+03</rscale>
<asrwt>0</asrwt>
<pdfrwt beam="1">  1        2 0.10926136E-01 0.27214115E+03</pdfrwt>
<pdfrwt beam="2">  1       -2 0.40108380E-01 0.27214115E+03</pdfrwt>
<totfact> 0.33833976E+03</totfact>
</mgrwt>
</event>
<event>
 9    1  0.7926126E-001  0.2740064E+03  0.7818608E-02  0.1099008E+00
          1   -1    0    0  501    0  0.00000000000E+00  0.00000000000E+00  0.24459081319E+03  0.24459081319E+03  0.00000000000E+00 0.  1.
         -1   -1    0    0    0  501 -0.00000000000E+00 -0.00000000000E+00 -0.76739927362E+02  0.76739927362E+02  0.00000000000E+00 0.  1.
         35    2    1    2    0    0  0.71054273576E-14  0.00000000000E+00  0.16785088583E+03  0.32133074055E+03  0.27400643232E+03 0.  0.
         25    2    3    3    0    0  0.10028754366E+02  0.24907256616E+02  0.14177040317E+03  0.19068001997E+03  0.12465582800E+03 0.  0.
         25    2    3    3    0    0 -0.10028754366E+02 -0.24907256616E+02  0.26080482664E+02  0.13065072058E+03  0.12517376669E+03 0.  0.
          5    1    4    4  502    0 -0.19588913528E+02  0.40266184023E+02  0.65064063311E-01  0.45024275034E+02  0.47000000000E+01 0.  1.
         -5    1    4    4    0  502  0.29617667894E+02 -0.15358927406E+02  0.14170533910E+03  0.14565574494E+03  0.47000000000E+01 0.  1.
          5    1    5    5  503    0  0.38529375161E+02 -0.56783517109E+02  0.61309063862E+01  0.69054750587E+02  0.47000000000E+01 0. -1.
         -5    1    5    5    0  503 -0.48558129528E+02  0.31876260492E+02  0.19949576278E+02  0.61595969997E+02  0.47000000000E+01 0. -1.
<mgrwt>
<rscale>  0 0.27400643E+03</rscale>
<asrwt>0</asrwt>
<pdfrwt beam="1">  1        1 0.37629356E-01 0.27400643E+03</pdfrwt>
<pdfrwt beam="2">  1       -1 0.11806143E-01 0.27400643E+03</pdfrwt>
<totfact> 0.52990165E+03</totfact>
</mgrwt>
</event>
<event>
 9    1  0.7926126E-001  0.2778263E+03  0.7818608E-02  0.1096882E+00
         -3   -1    0    0    0  501 -0.00000000000E+00  0.00000000000E+00  0.63468850820E+03  0.63468850820E+03  0.00000000000E+00 0.  1.
          3   -1    0    0  501    0  0.00000000000E+00 -0.00000000000E+00 -0.30403665710E+02  0.30403665710E+02  0.00000000000E+00 0.  1.
         35    2    1    2    0    0 -0.71054273576E-14  0.14210854715E-13  0.60428484249E+03  0.66509217391E+03  0.27782625674E+03 0.  0.
         25    2    3    3    0    0  0.27646987558E+02 -0.52656333653E+02  0.26982031751E+03  0.30327181723E+03  0.12503497906E+03 0.  0.
         25    2    3    3    0    0 -0.27646987558E+02  0.52656333653E+02  0.33446452498E+03  0.36182035668E+03  0.12454078305E+03 0.  0.
          5    1    4    4  502    0  0.15617623045E+02  0.40637878402E+02  0.97804180787E+02  0.10715920441E+03  0.47000000000E+01 0.  1.
         -5    1    4    4    0  502  0.12029364513E+02 -0.93294212054E+02  0.17201613673E+03  0.19611261282E+03  0.47000000000E+01 0.  1.
          5    1    5    5  503    0  0.42463672573E+02  0.21311839605E+02  0.21107285452E+03  0.21640517071E+03  0.47000000000E+01 0. -1.
         -5    1    5    5    0  503 -0.70110660131E+02  0.31344494048E+02  0.12339167045E+03  0.14541518596E+03  0.47000000000E+01 0. -1.
<mgrwt>
<rscale>  0 0.27782626E+03</rscale>
<asrwt>0</asrwt>
<pdfrwt beam="1">  1        3 0.46774875E-02 0.27782626E+03</pdfrwt>
<pdfrwt beam="2">  1       -3 0.97644376E-01 0.27782626E+03</pdfrwt>
<totfact> 0.61536405E+02</totfact>
</mgrwt>
</event>
<event>
 9    1  0.7926126E-001  0.2724302E+03  0.7818608E-02  0.1099897E+00
          3   -1    0    0  501    0  0.00000000000E+00  0.00000000000E+00  0.27700037578E+02  0.27700037578E+02  0.00000000000E+00 0.  1.
         -3   -1    0    0    0  501 -0.00000000000E+00 -0.00000000000E+00 -0.66983871776E+03  0.66983871776E+03  0.00000000000E+00 0.  1.
         35    2    1    2    0    0  0.14210854715E-13 -0.71054273576E-14 -0.64213868018E+03  0.69753875534E+03  0.27243023072E+03 0.  0.
         25    2    3    3    0    0  0.45377897377E+02 -0.28670305434E+02 -0.37862081393E+03  0.40181101669E+03  0.12335814692E+03 0.  0.
         25    2    3    3    0    0 -0.45377897377E+02  0.28670305434E+02 -0.26351786625E+03  0.29572773864E+03  0.12301255865E+03 0.  0.
          5    1    4    4  502    0  0.80443352089E+02 -0.38959899516E+02 -0.32239142618E+03  0.33458530802E+03  0.47000000000E+01 0.  1.
         -5    1    4    4    0  502 -0.35065454712E+02  0.10289594081E+02 -0.56229387746E+02  0.67225708674E+02  0.47000000000E+01 0.  1.
          5    1    5    5  503    0 -0.68600295917E+02 -0.22585542251E+02 -0.18787022056E+03  0.20132912629E+03  0.47000000000E+01 0.  1.
         -5    1    5    5    0  503  0.23222398539E+02  0.51255847686E+02 -0.75647645688E+02  0.94398612352E+02  0.47000000000E+01 0.  1.
<mgrwt>
<rscale>  0 0.27243023E+03</rscale>
<asrwt>0</asrwt>
<pdfrwt beam="1">  1        3 0.42615446E-02 0.27243023E+03</pdfrwt>
<pdfrwt beam="2">  1       -3 0.10305210E+00 0.27243023E+03</pdfrwt>
<totfact> 0.62899548E+02</totfact>
</mgrwt>
</event>
<event>
 9    1  0.7926126E-001  0.2767278E+03  0.7818608E-02  0.1097490E+00
         -2   -1    0    0    0  501 -0.00000000000E+00  0.00000000000E+00  0.90808512121E+01  0.90808512121E+01  0.00000000000E+00 0.  1.
          2   -1    0    0  501    0  0.00000000000E+00 -0.00000000000E+00 -0.21082349345E+04  0.21082349345E+04  0.00000000000E+00 0.  1.
         35    2    1    2    0    0  0.00000000000E+00  0.71054273576E-14 -0.20991540832E+04  0.21173157857E+04  0.27672779232E+03 0.  0.
         25    2    3    3    0    0  0.15462270365E+02  0.23789768647E+02 -0.65111645535E+03  0.66358740404E+03  0.12486220197E+03 0.  0.
         25    2    3    3    0    0 -0.15462270365E+02 -0.23789768647E+02 -0.14480376279E+04  0.14537283816E+04  0.12533236154E+03 0.  0.
          5    1    4    4  502    0  0.17706873116E+02 -0.39464232607E+02 -0.46326872886E+03  0.46530738673E+03  0.47000000000E+01 0. -1.
         -5    1    4    4    0  502 -0.22446027508E+01  0.63254001254E+02 -0.18784772649E+03  0.19828001731E+03  0.47000000000E+01 0. -1.
          5    1    5    5  503    0 -0.33478812715E+02 -0.65354036721E+02 -0.11364819595E+04  0.11388614118E+04  0.47000000000E+01 0.  1.
         -5    1    5    5    0  503  0.18016542350E+02  0.41564268074E+02 -0.31155566837E+03  0.31486696980E+03  0.47000000000E+01 0.  1.
<mgrwt>
<rscale>  0 0.27672779E+03</rscale>
<asrwt>0</asrwt>
<pdfrwt beam="1">  1        2 0.32434405E+00 0.27672779E+03</pdfrwt>
<pdfrwt beam="2">  1       -2 0.13970531E-02 0.27672779E+03</pdfrwt>
<totfact> 0.85283735E+03</totfact>
</mgrwt>
</event>
<event>
 9    1  0.7926126E-001  0.2820474E+03  0.7818608E-02  0.1094576E+00
         -2   -1    0    0    0  501 -0.00000000000E+00  0.00000000000E+00  0.91374359148E+02  0.91374359148E+02  0.00000000000E+00 0. -1.
          2   -1    0    0  501    0  0.00000000000E+00 -0.00000000000E+00 -0.21765056598E+03  0.21765056598E+03  0.00000000000E+00 0. -1.
         35    2    1    2    0    0  0.00000000000E+00 -0.71054273576E-14 -0.12627620683E+03  0.30902492513E+03  0.28204737889E+03 0.  0.
         25    2    3    3    0    0 -0.23252432498E+02  0.11320973215E+02 -0.12675818123E+03  0.18008655977E+03  0.12527845964E+03 0.  0.
         25    2    3    3    0    0  0.23252432498E+02 -0.11320973215E+02  0.48197439842E+00  0.12893836536E+03  0.12631717900E+03 0.  0.
          5    1    4    4  502    0  0.21040713251E+02  0.53498177810E+02 -0.28706865491E+02  0.64427795007E+02  0.47000000000E+01 0. -1.
         -5    1    4    4    0  502 -0.44293145749E+02 -0.42177204595E+02 -0.98051315741E+02  0.11565876476E+03  0.47000000000E+01 0. -1.
          5    1    5    5  503    0  0.61576753439E+02 -0.45010891036E+02 -0.85857613704E+01  0.76899168879E+02  0.47000000000E+01 0. -1.
         -5    1    5    5    0  503 -0.38324320942E+02  0.33689917820E+02  0.90677357688E+01  0.52039196481E+02  0.47000000000E+01 0. -1.
<mgrwt>
<rscale>  0 0.28204738E+03</rscale>
<asrwt>0</asrwt>
<pdfrwt beam="1">  1        2 0.33484702E-01 0.28204738E+03</pdfrwt>
<pdfrwt beam="2">  1       -2 0.14057594E-01 0.28204738E+03</pdfrwt>
<totfact> 0.58854485E+03</totfact>
</mgrwt>
</event>
<event>
 9    1  0.7926126E-001  0.2633162E+03  0.7818608E-02  0.1105167E+00
          2   -1    0    0  501    0  0.00000000000E+00  0.00000000000E+00  0.69879055210E+02  0.69879055210E+02  0.00000000000E+00 0.  1.
         -2   -1    0    0    0  501 -0.00000000000E+00 -0.00000000000E+00 -0.24805509885E+03  0.24805509885E+03  0.00000000000E+00 0.  1.
         35    2    1    2    0    0  0.00000000000E+00  0.00000000000E+00 -0.17817604364E+03  0.31793415407E+03  0.26331620496E+03 0.  0.
         25    2    3    3    0    0  0.35598783594E+02  0.17093971562E+02 -0.69501410856E+02  0.14835481411E+03  0.12497690787E+03 0.  0.
         25    2    3    3    0    0 -0.35598783594E+02 -0.17093971562E+02 -0.10867463279E+03  0.16957933996E+03  0.12404636017E+03 0.  0.
          5    1    4    4  502    0  0.12418661200E+02  0.64288455872E+02 -0.69450795200E+02  0.95565326653E+02  0.47000000000E+01 0.  1.
         -5    1    4    4    0  502  0.23180122394E+02 -0.47194484310E+02 -0.50615655685E-01  0.52789487452E+02  0.47000000000E+01 0.  1.
          5    1    5    5  503    0 -0.12182987335E+02  0.34181984022E+02 -0.10689704976E+03  0.11298629324E+03  0.47000000000E+01 0.  1.
         -5    1    5    5    0  503 -0.23415796259E+02 -0.51275955584E+02 -0.17775830246E+01  0.56593046719E+02  0.47000000000E+01 0.  1.
<mgrwt>
<rscale>  0 0.26331620E+03</rscale>
<asrwt>0</asrwt>
<pdfrwt beam="1">  1        2 0.10750624E-01 0.26331620E+03</pdfrwt>
<pdfrwt beam="2">  1       -2 0.38162322E-01 0.26331620E+03</pdfrwt>
<totfact> 0.37897161E+03</totfact>
</mgrwt>
</event>
<event>
 9    1  0.7926126E-001  0.2745462E+03  0.7818608E-02  0.1098706E+00
          2   -1    0    0  501    0  0.00000000000E+00  0.00000000000E+00  0.47625863197E+03  0.47625863197E+03  0.00000000000E+00 0. -1.
         -2   -1    0    0    0  501 -0.00000000000E+00 -0.00000000000E+00 -0.39566545720E+02  0.39566545720E+02  0.00000000000E+00 0. -1.
         35    2    1    2    0    0  0.17763568394E-14 -0.35527136788E-14  0.43669208625E+03  0.51582517769E+03  0.27454623608E+03 0.  0.
         25    2    3    3    0    0 -0.77896032900E+01  0.17067116219E+01  0.10390497752E+03  0.16009474612E+03  0.12153391542E+03 0.  0.
         25    2    3    3    0    0  0.77896032900E+01 -0.17067116219E+01  0.33278710873E+03  0.35573043157E+03  0.12543240979E+03 0.  0.
          5    1    4    4  502    0  0.41661306003E+00 -0.31412182977E+02 -0.15839846304E+02  0.35494922690E+02  0.47000000000E+01 0. -1.
         -5    1    4    4    0  502 -0.82062163500E+01  0.33118894599E+02  0.11974482383E+03  0.12459982343E+03  0.47000000000E+01 0. -1.
          5    1    5    5  503    0 -0.21709408144E+02  0.24750029215E+02  0.16845562049E+02  0.37279019687E+02  0.47000000000E+01 0.  1.
         -5    1    5    5    0  503  0.29499011434E+02 -0.26456740837E+02  0.31594154668E+03  0.31845141188E+03  0.47000000000E+01 0.  1.
<mgrwt>
<rscale>  0 0.27454624E+03</rscale>
<asrwt>0</asrwt>
<pdfrwt beam="1">  1        2 0.73270555E-01 0.27454624E+03</pdfrwt>
<pdfrwt beam="2">  1       -2 0.60871612E-02 0.27454624E+03</pdfrwt>
<totfact> 0.94610943E+03</totfact>
</mgrwt>
</event>
<event>
 9    1  0.7926126E-001  0.2718084E+03  0.7818608E-02  0.1100249E+00
          2   -1    0    0  501    0  0.00000000000E+00  0.00000000000E+00  0.14994434329E+04  0.14994434329E+04  0.00000000000E+00 0.  1.
         -2   -1    0    0    0  501 -0.00000000000E+00 -0.00000000000E+00 -0.12317871620E+02  0.12317871620E+02  0.00000000000E+00 0.  1.
         35    2    1    2    0    0  0.00000000000E+00  0.35527136788E-14  0.14871255612E+04  0.15117613045E+04  0.27180840095E+03 0.  0.
         25    2    3    3    0    0  0.48233720975E+02 -0.12198413997E+02  0.96736553131E+03  0.97514807223E+03  0.11243842081E+03 0.  0.
         25    2    3    3    0    0 -0.48233720975E+02  0.12198413997E+02  0.51976002994E+03  0.53661323225E+03  0.12380621618E+03 0.  0.
          5    1    4    4  502    0 -0.25073056704E+02  0.19451960963E+02  0.12717059534E+03  0.13115444055E+03  0.47000000000E+01 0.  1.
         -5    1    4    4    0  502  0.73306777679E+02 -0.31650374959E+02  0.84019493597E+03  0.84399363168E+03  0.47000000000E+01 0.  1.
          5    1    5    5  503    0  0.57541299766E+00 -0.19800986578E+02  0.42318646768E+03  0.42367592166E+03  0.47000000000E+01 0. -1.
         -5    1    5    5    0  503 -0.48809133972E+02  0.31999400575E+02  0.96573562263E+02  0.11293731059E+03  0.47000000000E+01 0. -1.
<mgrwt>
<rscale>  0 0.27180840E+03</rscale>
<asrwt>0</asrwt>
<pdfrwt beam="1">  1        2 0.23068346E+00 0.27180840E+03</pdfrwt>
<pdfrwt beam="2">  1       -2 0.18950584E-02 0.27180840E+03</pdfrwt>
<totfact> 0.11423213E+04</totfact>
</mgrwt>
</event>
<event>
 9    1  0.7926126E-001  0.2731935E+03  0.7818608E-02  0.1099466E+00
         -2   -1    0    0    0  501 -0.00000000000E+00  0.00000000000E+00  0.41648477085E+02  0.41648477085E+02  0.00000000000E+00 0.  1.
          2   -1    0    0  501    0  0.00000000000E+00 -0.00000000000E+00 -0.44800381030E+03  0.44800381030E+03  0.00000000000E+00 0.  1.
         35    2    1    2    0    0  0.00000000000E+00  0.00000000000E+00 -0.40635533322E+03  0.48965228739E+03  0.27319353160E+03 0.  0.
         25    2    3    3    0    0 -0.52471748813E+02 -0.10867193873E+02 -0.22036521899E+03  0.25890426936E+03  0.12489679990E+03 0.  0.
         25    2    3    3    0    0  0.52471748813E+02  0.10867193873E+02 -0.18599011423E+03  0.23074801803E+03  0.12562223095E+03 0.  0.
          5    1    4    4  502    0  0.11420979932E+02  0.46148980901E+02 -0.56805396350E+02  0.74223380921E+02  0.47000000000E+01 0.  1.
         -5    1    4    4    0  502 -0.63892728745E+02 -0.57016174775E+02 -0.16355982264E+03  0.18468088844E+03  0.47000000000E+01 0.  1.
          5    1    5    5  503    0  0.40744515111E+02 -0.51400729796E+02 -0.57272378580E+02  0.87203015335E+02  0.47000000000E+01 0.  1.
         -5    1    5    5    0  503  0.11727233702E+02  0.62267923670E+02 -0.12871773565E+03  0.14354500270E+03  0.47000000000E+01 0.  1.
<mgrwt>
<rscale>  0 0.27319353E+03</rscale>
<asrwt>0</asrwt>
<pdfrwt beam="1">  1        2 0.68923667E-01 0.27319353E+03</pdfrwt>
<pdfrwt beam="2">  1       -2 0.64074576E-02 0.27319353E+03</pdfrwt>
<totfact> 0.93531763E+03</totfact>
</mgrwt>
</event>
<event>
 9    1  0.7926126E-001  0.2768179E+03  0.7818608E-02  0.1097440E+00
         -1   -1    0    0    0  501 -0.00000000000E+00  0.00000000000E+00  0.97450899875E+01  0.97450899875E+01  0.00000000000E+00 0. -1.
          1   -1    0    0  501    0  0.00000000000E+00 -0.00000000000E+00 -0.19658145872E+04  0.19658145872E+04  0.00000000000E+00 0. -1.
         35    2    1    2    0    0 -0.35527136788E-14  0.00000000000E+00 -0.19560694972E+04  0.19755596772E+04  0.27681791886E+03 0.  0.
         25    2    3    3    0    0 -0.31783425816E+02  0.45322562552E+02 -0.11506182109E+04  0.11585850985E+04  0.12382585420E+03 0.  0.
         25    2    3    3    0    0  0.31783425816E+02 -0.45322562552E+02 -0.80545128623E+03  0.81697457870E+03  0.12502546506E+03 0.  0.
          5    1    4    4  502    0 -0.41198617259E+02  0.94723496023E+01 -0.10560126894E+04  0.10568689330E+04  0.47000000000E+01 0.  1.
         -5    1    4    4    0  502  0.94151914435E+01  0.35850212950E+02 -0.94605521596E+02  0.10171616546E+03  0.47000000000E+01 0.  1.
          5    1    5    5  503    0  0.75324897990E+02 -0.48694238104E+02 -0.61498739276E+03  0.62151150620E+03  0.47000000000E+01 0.  1.
         -5    1    5    5    0  503 -0.43541472174E+02  0.33716755518E+01 -0.19046389348E+03  0.19546307251E+03  0.47000000000E+01 0.  1.
<mgrwt>
<rscale>  0 0.27681792E+03</rscale>
<asrwt>0</asrwt>
<pdfrwt beam="1">  1        1 0.30243328E+00 0.27681792E+03</pdfrwt>
<pdfrwt beam="2">  1       -1 0.14992433E-02 0.27681792E+03</pdfrwt>
<totfact> 0.37086795E+03</totfact>
</mgrwt>
</event>
<event>
 9    1  0.7926126E-001  0.2751775E+03  0.7818608E-02  0.1098352E+00
          1   -1    0    0  501    0  0.00000000000E+00  0.00000000000E+00  0.54618834315E+03  0.54618834315E+03  0.00000000000E+00 0. -1.
         -1   -1    0    0    0  501 -0.00000000000E+00 -0.00000000000E+00 -0.34659591886E+02  0.34659591886E+02  0.00000000000E+00 0. -1.
         35    2    1    2    0    0  0.00000000000E+00  0.71054273576E-14  0.51152875126E+03  0.58084793503E+03  0.27517750683E+03 0.  0.
         25    2    3    3    0    0  0.15671747848E+02 -0.55376754901E+02  0.25762381022E+03  0.29188961123E+03  0.12456857103E+03 0.  0.
         25    2    3    3    0    0 -0.15671747848E+02  0.55376754901E+02  0.25390494105E+03  0.28895832381E+03  0.12536748041E+03 0.  0.
          5    1    4    4  502    0 -0.20593885724E+02  0.21999114742E+01 -0.39214505193E+01  0.21596655155E+02  0.47000000000E+01 0.  1.
         -5    1    4    4    0  502  0.36265633571E+02 -0.57576666375E+02  0.26154526073E+03  0.27029295607E+03  0.47000000000E+01 0.  1.
          5    1    5    5  503    0  0.13533784373E+02  0.10594848649E+02  0.22917180607E+03  0.22986348304E+03  0.47000000000E+01 0. -1.
         -5    1    5    5    0  503 -0.29205532221E+02  0.44781906251E+02  0.24733134979E+02  0.59094840771E+02  0.47000000000E+01 0. -1.
<mgrwt>
<rscale>  0 0.27517751E+03</rscale>
<asrwt>0</asrwt>
<pdfrwt beam="1">  1        1 0.84028969E-01 0.27517751E+03</pdfrwt>
<pdfrwt beam="2">  1       -1 0.53322453E-02 0.27517751E+03</pdfrwt>
<totfact> 0.63717615E+03</totfact>
</mgrwt>
</event>
<event>
 9    1  0.7926126E-001  0.2749620E+03  0.7818608E-02  0.1098473E+00
         -4   -1    0    0    0  501 -0.00000000000E+00  0.00000000000E+00  0.72027595329E+02  0.72027595329E+02  0.00000000000E+00 0. -1.
          4   -1    0    0  501    0  0.00000000000E+00 -0.00000000000E+00 -0.26241366599E+03  0.26241366599E+03  0.00000000000E+00 0. -1.
         35    2    1    2    0    0  0.00000000000E+00  0.71054273576E-14 -0.19038607066E+03  0.33444126132E+03  0.27496199987E+03 0.  0.
         25    2    3    3    0    0  0.30061966451E+02  0.24603571204E+02 -0.14418948769E+03  0.19465056391E+03  0.12485662229E+03 0.  0.
         25    2    3    3    0    0 -0.30061966451E+02 -0.24603571204E+02 -0.46196582971E+02  0.13979069741E+03  0.12608829153E+03 0.  0.
          5    1    4    4  502    0  0.71627304168E+02  0.12677623534E+01 -0.45624663083E+02  0.85063375228E+02  0.47000000000E+01 0. -1.
         -5    1    4    4    0  502 -0.41565337717E+02  0.23335808851E+02 -0.98564824605E+02  0.10958718868E+03  0.47000000000E+01 0. -1.
          5    1    5    5  503    0  0.49260841328E+02 -0.72292164901E+01 -0.11236191309E+02  0.51256551333E+02  0.47000000000E+01 0.  1.
         -5    1    5    5    0  503 -0.79322807779E+02 -0.17374354714E+02 -0.34960391662E+02  0.88534146073E+02  0.47000000000E+01 0.  1.
<mgrwt>
<rscale>  0 0.27496200E+03</rscale>
<asrwt>0</asrwt>
<pdfrwt beam="1">  1        4 0.40371334E-01 0.27496200E+03</pdfrwt>
<pdfrwt beam="2">  1       -4 0.11081168E-01 0.27496200E+03</pdfrwt>
<totfact> 0.71333327E+02</totfact>
</mgrwt>
</event>
<event>
 9    1  0.7926126E-001  0.2761194E+03  0.7818608E-02  0.1097828E+00
         -2   -1    0    0    0  501 -0.00000000000E+00  0.00000000000E+00  0.73958915723E+02  0.73958915723E+02  0.00000000000E+00 0.  1.
          2   -1    0    0  501    0  0.00000000000E+00 -0.00000000000E+00 -0.25771711784E+03  0.25771711784E+03  0.00000000000E+00 0.  1.
         35    2    1    2    0    0 -0.71054273576E-14  0.00000000000E+00 -0.18375820212E+03  0.33167603357E+03  0.27611938432E+03 0.  0.
         25    2    3    3    0    0  0.22132702835E+02  0.39203849782E+01 -0.26422207367E+02  0.12959918709E+03  0.12487029390E+03 0.  0.
         25    2    3    3    0    0 -0.22132702835E+02 -0.39203849782E+01 -0.15733599475E+03  0.20207684647E+03  0.12480068382E+03 0.  0.
          5    1    4    4  502    0 -0.48871313883E+02  0.18748105483E+02 -0.21378831402E+02  0.56736594998E+02  0.47000000000E+01 0. -1.
         -5    1    4    4    0  502  0.71004016718E+02 -0.14827720505E+02 -0.50433759649E+01  0.72862592094E+02  0.47000000000E+01 0. -1.
          5    1    5    5  503    0  0.22046839161E+02  0.21117875510E+02 -0.14678319347E+03  0.14999807888E+03  0.47000000000E+01 0. -1.
         -5    1    5    5    0  503 -0.44179541996E+02 -0.25038260488E+02 -0.10552801285E+02  0.52078767595E+02  0.47000000000E+01 0. -1.
<mgrwt>
<rscale>  0 0.27611938E+03</rscale>
<asrwt>0</asrwt>
<pdfrwt beam="1">  1        2 0.39648787E-01 0.27611938E+03</pdfrwt>
<pdfrwt beam="2">  1       -2 0.11378295E-01 0.27611938E+03</pdfrwt>
<totfact> 0.69025876E+03</totfact>
</mgrwt>
</event>
<event>
 9    1  0.7926126E-001  0.2757810E+03  0.7818608E-02  0.1098016E+00
          1   -1    0    0  501    0  0.00000000000E+00  0.00000000000E+00  0.15879799796E+03  0.15879799796E+03  0.00000000000E+00 0. -1.
         -1   -1    0    0    0  501 -0.00000000000E+00 -0.00000000000E+00 -0.11973570922E+03  0.11973570922E+03  0.00000000000E+00 0. -1.
         35    2    1    2    0    0  0.00000000000E+00 -0.71054273576E-14  0.39062288733E+02  0.27853370718E+03  0.27578100666E+03 0.  0.
         25    2    3    3    0    0 -0.41950310853E+02 -0.30325172487E+02  0.48482322456E+02  0.14351194509E+03  0.12476256700E+03 0.  0.
         25    2    3    3    0    0  0.41950310853E+02  0.30325172487E+02 -0.94200337232E+01  0.13502176210E+03  0.12434908338E+03 0.  0.
          5    1    4    4  502    0 -0.61625979864E+01 -0.38031968362E+02 -0.34981643424E+02  0.52251445990E+02  0.47000000000E+01 0. -1.
         -5    1    4    4    0  502 -0.35787712867E+02  0.77067958745E+01  0.83463965880E+02  0.91260499097E+02  0.47000000000E+01 0. -1.
          5    1    5    5  503    0 -0.43130800800E+02  0.55374575011E+01  0.83216451186E+01  0.44522681755E+02  0.47000000000E+01 0. -1.
         -5    1    5    5    0  503  0.85081111653E+02  0.24787714986E+02 -0.17741678842E+02  0.90499080341E+02  0.47000000000E+01 0. -1.
<mgrwt>
<rscale>  0 0.27578101E+03</rscale>
<asrwt>0</asrwt>
<pdfrwt beam="1">  1        1 0.24430461E-01 0.27578101E+03</pdfrwt>
<pdfrwt beam="2">  1       -1 0.18420878E-01 0.27578101E+03</pdfrwt>
<totfact> 0.45169623E+03</totfact>
</mgrwt>
</event>
<event>
 9    1  0.7926126E-001  0.2782657E+03  0.7818608E-02  0.1096640E+00
         -2   -1    0    0    0  501 -0.00000000000E+00  0.00000000000E+00  0.69057873704E+02  0.69057873704E+02  0.00000000000E+00 0.  1.
          2   -1    0    0  501    0  0.00000000000E+00 -0.00000000000E+00 -0.28031482081E+03  0.28031482081E+03  0.00000000000E+00 0.  1.
         35    2    1    2    0    0  0.35527136788E-14  0.00000000000E+00 -0.21125694711E+03  0.34937269452E+03  0.27826566797E+03 0.  0.
         25    2    3    3    0    0 -0.22106173573E+02 -0.28298163702E+02 -0.47772933970E+02  0.13894773705E+03  0.12543823752E+03 0.  0.
         25    2    3    3    0    0  0.22106173573E+02  0.28298163702E+02 -0.16348401314E+03  0.21042495747E+03  0.12752321826E+03 0.  0.
          5    1    4    4  502    0 -0.20724924474E+02 -0.77205984376E+02 -0.20184527700E+02  0.82582029985E+02  0.47000000000E+01 0.  1.
         -5    1    4    4    0  502 -0.13812490987E+01  0.48907820674E+02 -0.27588406270E+02  0.56365707063E+02  0.47000000000E+01 0.  1.
          5    1    5    5  503    0  0.35716129886E+02 -0.14172304567E+02  0.22050838525E+01  0.38774328435E+02  0.47000000000E+01 0. -1.
         -5    1    5    5    0  503 -0.13609956313E+02  0.42470468270E+02 -0.16568909699E+03  0.17165062903E+03  0.47000000000E+01 0. -1.
<mgrwt>
<rscale>  0 0.27826567E+03</rscale>
<asrwt>0</asrwt>
<pdfrwt beam="1">  1        2 0.43125357E-01 0.27826567E+03</pdfrwt>
<pdfrwt beam="2">  1       -2 0.10624288E-01 0.27826567E+03</pdfrwt>
<totfact> 0.70395254E+03</totfact>
</mgrwt>
</event>
<event>
 9    1  0.7926126E-001  0.2610374E+03  0.7818608E-02  0.1106522E+00
          1   -1    0    0  501    0  0.00000000000E+00  0.00000000000E+00  0.81655088612E+03  0.81655088612E+03  0.00000000000E+00 0. -1.
         -1   -1    0    0    0  501 -0.00000000000E+00 -0.00000000000E+00 -0.20862298893E+02  0.20862298893E+02  0.00000000000E+00 0. -1.
         35    2    1    2    0    0 -0.71054273576E-14 -0.35527136788E-14  0.79568858723E+03  0.83741318501E+03  0.26103738159E+03 0.  0.
         25    2    3    3    0    0  0.20126435902E+02  0.12089241971E+02  0.30077493352E+03  0.32631745142E+03  0.12436356087E+03 0.  0.
         25    2    3    3    0    0 -0.20126435902E+02 -0.12089241971E+02  0.49491365371E+03  0.51109573359E+03  0.12541172624E+03 0.  0.
          5    1    4    4  502    0  0.14103636996E+02  0.37551966888E+02  0.21449839082E+02  0.45730169367E+02  0.47000000000E+01 0. -1.
         -5    1    4    4    0  502  0.60227989052E+01 -0.25462724917E+02  0.27932509444E+03  0.28058728205E+03  0.47000000000E+01 0. -1.
          5    1    5    5  503    0  0.41944020899E+02 -0.55271889719E+01  0.35836795170E+03  0.36088714235E+03  0.47000000000E+01 0.  1.
         -5    1    5    5    0  503 -0.62070456800E+02 -0.65620529990E+01  0.13654570200E+03  0.15020859124E+03  0.47000000000E+01 0.  1.
<mgrwt>
<rscale>  0 0.26103738E+03</rscale>
<asrwt>0</asrwt>
<pdfrwt beam="1">  1        1 0.12562319E+00 0.26103738E+03</pdfrwt>
<pdfrwt beam="2">  1       -1 0.32095851E-02 0.26103738E+03</pdfrwt>
<totfact> 0.75870293E+03</totfact>
</mgrwt>
</event>
<event>
 9    1  0.7926126E-001  0.2753359E+03  0.7818608E-02  0.1098264E+00
          3   -1    0    0  501    0  0.00000000000E+00  0.00000000000E+00  0.46401262563E+02  0.46401262563E+02  0.00000000000E+00 0.  1.
         -3   -1    0    0    0  501 -0.00000000000E+00 -0.00000000000E+00 -0.40844730452E+03  0.40844730452E+03  0.00000000000E+00 0.  1.
         35    2    1    2    0    0  0.71054273576E-14  0.14210854715E-13 -0.36204604195E+03  0.45484856708E+03  0.27533594477E+03 0.  0.
         25    2    3    3    0    0 -0.32210689736E+02 -0.46122905339E+02 -0.19324053892E+03  0.23710147968E+03  0.12534095442E+03 0.  0.
         25    2    3    3    0    0  0.32210689736E+02  0.46122905339E+02 -0.16880550304E+03  0.21774708740E+03  0.12551352631E+03 0.  0.
          5    1    4    4  502    0 -0.61999226060E+02  0.56815925027E+01 -0.44313094729E+02  0.76563208462E+02  0.47000000000E+01 0. -1.
         -5    1    4    4    0  502  0.29788536325E+02 -0.51804497842E+02 -0.14892744419E+03  0.16053827122E+03  0.47000000000E+01 0. -1.
          5    1    5    5  503    0 -0.75619343409E+01 -0.25025086800E+02  0.37745416664E+01  0.26828622498E+02  0.47000000000E+01 0. -1.
         -5    1    5    5    0  503  0.39772624076E+02  0.71147992139E+02 -0.17258004470E+03  0.19091846490E+03  0.47000000000E+01 0. -1.
<mgrwt>
<rscale>  0 0.27533594E+03</rscale>
<asrwt>0</asrwt>
<pdfrwt beam="1">  1        3 0.71386558E-02 0.27533594E+03</pdfrwt>
<pdfrwt beam="2">  1       -3 0.62838047E-01 0.27533594E+03</pdfrwt>
<totfact> 0.81630235E+02</totfact>
</mgrwt>
</event>
<event>
 9    1  0.7926126E-001  0.2719759E+03  0.7818608E-02  0.1100154E+00
         -2   -1    0    0    0  501 -0.00000000000E+00  0.00000000000E+00  0.11879156392E+02  0.11879156392E+02  0.00000000000E+00 0.  1.
          2   -1    0    0  501    0  0.00000000000E+00 -0.00000000000E+00 -0.15567369921E+04  0.15567369921E+04  0.00000000000E+00 0.  1.
         35    2    1    2    0    0 -0.35527136788E-14  0.35527136788E-14 -0.15448578357E+04  0.15686161484E+04  0.27197589738E+03 0.  0.
         25    2    3    3    0    0 -0.61060038805E+01  0.17424953951E+02 -0.10533115893E+04  0.10610938001E+04  0.12694028608E+03 0.  0.
         25    2    3    3    0    0  0.61060038805E+01 -0.17424953951E+02 -0.49154624638E+03  0.50752234833E+03  0.12498123626E+03 0.  0.
          5    1    4    4  502    0  0.52762112510E+02 -0.21331495152E+02 -0.51942115438E+03  0.52255076196E+03  0.47000000000E+01 0.  1.
         -5    1    4    4    0  502 -0.58868116391E+02  0.38756449103E+02 -0.53389043490E+03  0.53854303816E+03  0.47000000000E+01 0.  1.
          5    1    5    5  503    0  0.22884574137E+02 -0.67693244815E+02 -0.32002900588E+03  0.32794318674E+03  0.47000000000E+01 0. -1.
         -5    1    5    5    0  503 -0.16778570256E+02  0.50268290864E+02 -0.17151724051E+03  0.17957916159E+03  0.47000000000E+01 0. -1.
<mgrwt>
<rscale>  0 0.27197590E+03</rscale>
<asrwt>0</asrwt>
<pdfrwt beam="1">  1        2 0.23949808E+00 0.27197590E+03</pdfrwt>
<pdfrwt beam="2">  1       -2 0.18275619E-02 0.27197590E+03</pdfrwt>
<totfact> 0.11229576E+04</totfact>
</mgrwt>
</event>
<event>
 9    1  0.7926126E-001  0.2730517E+03  0.7818608E-02  0.1099546E+00
         -3   -1    0    0    0  501 -0.00000000000E+00  0.00000000000E+00  0.11248844551E+04  0.11248844551E+04  0.00000000000E+00 0.  1.
          3   -1    0    0  501    0  0.00000000000E+00 -0.00000000000E+00 -0.16569974023E+02  0.16569974023E+02  0.00000000000E+00 0.  1.
         35    2    1    2    0    0  0.00000000000E+00 -0.35527136788E-14  0.11083144810E+04  0.11414544291E+04  0.27305168888E+03 0.  0.
         25    2    3    3    0    0 -0.82963481049E+01  0.25619225228E+02  0.75376768741E+03  0.76464599178E+03  0.12566858026E+03 0.  0.
         25    2    3    3    0    0  0.82963481049E+01 -0.25619225228E+02  0.35454679363E+03  0.37680843731E+03  0.12472367642E+03 0.  0.
          5    1    4    4  502    0  0.32091398370E+02  0.41318838577E+02  0.64969331467E+03  0.65181331483E+03  0.47000000000E+01 0.  1.
         -5    1    4    4    0  502 -0.40387746475E+02 -0.15699613349E+02  0.10407437275E+03  0.11283267695E+03  0.47000000000E+01 0.  1.
          5    1    5    5  503    0 -0.48988078649E+02  0.84134071862E+01  0.23127140220E+03  0.23659917317E+03  0.47000000000E+01 0.  1.
         -5    1    5    5    0  503  0.57284426753E+02 -0.34032632414E+02  0.12327539142E+03  0.14020926413E+03  0.47000000000E+01 0.  1.
<mgrwt>
<rscale>  0 0.27305169E+03</rscale>
<asrwt>0</asrwt>
<pdfrwt beam="1">  1        3 0.25492277E-02 0.27305169E+03</pdfrwt>
<pdfrwt beam="2">  1       -3 0.17305909E+00 0.27305169E+03</pdfrwt>
<totfact> 0.39263207E+02</totfact>
</mgrwt>
</event>
<event>
 9    1  0.7926126E-001  0.2747402E+03  0.7818608E-02  0.1098597E+00
          2   -1    0    0  501    0  0.00000000000E+00  0.00000000000E+00  0.16847747125E+03  0.16847747125E+03  0.00000000000E+00 0. -1.
         -2   -1    0    0    0  501 -0.00000000000E+00 -0.00000000000E+00 -0.11200630510E+03  0.11200630510E+03  0.00000000000E+00 0. -1.
         35    2    1    2    0    0  0.35527136788E-14 -0.71054273576E-14  0.56471166151E+02  0.28048377635E+03  0.27474016122E+03 0.  0.
         25    2    3    3    0    0 -0.31739272593E+02  0.44229146147E+02  0.44063270872E+02  0.14335551030E+03  0.12508249957E+03 0.  0.
         25    2    3    3    0    0  0.31739272593E+02 -0.44229146147E+02  0.12407895279E+02  0.13712826605E+03  0.12524618434E+03 0.  0.
          5    1    4    4  502    0 -0.28569500122E+01 -0.31981623347E+02  0.52042392801E+02  0.61330963173E+02  0.47000000000E+01 0.  1.
         -5    1    4    4    0  502 -0.28882322580E+02  0.76210769494E+02 -0.79791219298E+01  0.82024547127E+02  0.47000000000E+01 0.  1.
          5    1    5    5  503    0  0.21669041469E+02 -0.37139935290E+02  0.67671324243E+02  0.80314508505E+02  0.47000000000E+01 0.  1.
         -5    1    5    5    0  503  0.10070231124E+02 -0.70892108576E+01 -0.55263428964E+02  0.56813757545E+02  0.47000000000E+01 0.  1.
<mgrwt>
<rscale>  0 0.27474016E+03</rscale>
<asrwt>0</asrwt>
<pdfrwt beam="1">  1        2 0.25919611E-01 0.27474016E+03</pdfrwt>
<pdfrwt beam="2">  1       -2 0.17231739E-01 0.27474016E+03</pdfrwt>
<totfact> 0.55592529E+03</totfact>
</mgrwt>
</event>
<event>
 9    1  0.7926126E-001  0.2654213E+03  0.7818608E-02  0.1103929E+00
          2   -1    0    0  501    0  0.00000000000E+00  0.00000000000E+00  0.17738176486E+03  0.17738176486E+03  0.00000000000E+00 0.  1.
         -2   -1    0    0    0  501 -0.00000000000E+00 -0.00000000000E+00 -0.99289301035E+02  0.99289301035E+02  0.00000000000E+00 0.  1.
         35    2    1    2    0    0  0.00000000000E+00 -0.35527136788E-14  0.78092463829E+02  0.27667106590E+03  0.26542126101E+03 0.  0.
         25    2    3    3    0    0  0.17064204836E+02 -0.17805701786E+02  0.75712665686E+02  0.14823442140E+03  0.12503121946E+03 0.  0.
         25    2    3    3    0    0 -0.17064204836E+02  0.17805701786E+02  0.23797981427E+01  0.12843664450E+03  0.12602411717E+03 0.  0.
          5    1    4    4  502    0  0.57430714516E+02 -0.12602453348E+02  0.87569525856E+02  0.10558229330E+03  0.47000000000E+01 0. -1.
         -5    1    4    4    0  502 -0.40366509681E+02 -0.52032484378E+01 -0.11856860169E+02  0.42652128097E+02  0.47000000000E+01 0. -1.
          5    1    5    5  503    0  0.51118773614E+02  0.60041319707E+01  0.22279841233E+02  0.56281968177E+02  0.47000000000E+01 0.  1.
         -5    1    5    5    0  503 -0.68182978449E+02  0.11801569815E+02 -0.19900043090E+02  0.72154676323E+02  0.47000000000E+01 0.  1.
<mgrwt>
<rscale>  0 0.26542126E+03</rscale>
<asrwt>0</asrwt>
<pdfrwt beam="1">  1        2 0.27289502E-01 0.26542126E+03</pdfrwt>
<pdfrwt beam="2">  1       -2 0.15275277E-01 0.26542126E+03</pdfrwt>
<totfact> 0.64095915E+03</totfact>
</mgrwt>
</event>
<event>
 9    1  0.7926126E-001  0.2752132E+03  0.7818608E-02  0.1098332E+00
          2   -1    0    0  501    0  0.00000000000E+00  0.00000000000E+00  0.18287732378E+04  0.18287732378E+04  0.00000000000E+00 0.  1.
         -2   -1    0    0    0  501 -0.00000000000E+00 -0.00000000000E+00 -0.10354251737E+02  0.10354251737E+02  0.00000000000E+00 0.  1.
         35    2    1    2    0    0  0.71054273576E-14 -0.71054273576E-14  0.18184189860E+04  0.18391274895E+04  0.27521321533E+03 0.  0.
         25    2    3    3    0    0 -0.23316791833E+02  0.51927716936E+02  0.93846919327E+03  0.94845961127E+03  0.12494417526E+03 0.  0.
         25    2    3    3    0    0  0.23316791833E+02 -0.51927716936E+02  0.87994979275E+03  0.89066787822E+03  0.12544907718E+03 0.  0.
          5    1    4    4  502    0  0.13218961140E+02  0.45397143823E+02  0.86220801146E+03  0.86351629204E+03  0.47000000000E+01 0. -1.
         -5    1    4    4    0  502 -0.36535752973E+02  0.65305731131E+01  0.76261181809E+02  0.84943319228E+02  0.47000000000E+01 0. -1.
          5    1    5    5  503    0 -0.19422861216E+02 -0.81572850580E+02  0.47548578689E+03  0.48284593922E+03  0.47000000000E+01 0. -1.
         -5    1    5    5    0  503  0.42739653049E+02  0.29645133644E+02  0.40446400586E+03  0.40782193900E+03  0.47000000000E+01 0. -1.
<mgrwt>
<rscale>  0 0.27521322E+03</rscale>
<asrwt>0</asrwt>
<pdfrwt beam="1">  1        2 0.28134947E+00 0.27521322E+03</pdfrwt>
<pdfrwt beam="2">  1       -2 0.15929633E-02 0.27521322E+03</pdfrwt>
<totfact> 0.98740652E+03</totfact>
</mgrwt>
</event>
<event>
 9    1  0.7926126E-001  0.2695754E+03  0.7818608E-02  0.1101523E+00
          1   -1    0    0  501    0  0.00000000000E+00  0.00000000000E+00  0.23497999616E+02  0.23497999616E+02  0.00000000000E+00 0.  1.
         -1   -1    0    0    0  501 -0.00000000000E+00 -0.00000000000E+00 -0.77316047251E+03  0.77316047251E+03  0.00000000000E+00 0.  1.
         35    2    1    2    0    0  0.00000000000E+00  0.71054273576E-14 -0.74966247289E+03  0.79665847212E+03  0.26957540308E+03 0.  0.
         25    2    3    3    0    0 -0.36125817820E+02  0.29133972220E+02 -0.45735104099E+03  0.47532344314E+03  0.12086578446E+03 0.  0.
         25    2    3    3    0    0  0.36125817820E+02 -0.29133972220E+02 -0.29231143190E+03  0.32133502898E+03  0.12512539543E+03 0.  0.
          5    1    4    4  502    0 -0.32993002738E+02 -0.25236915052E+02 -0.36947858639E+03  0.37183592607E+03  0.47000000000E+01 0. -1.
         -5    1    4    4    0  502 -0.31328150811E+01  0.54370887272E+02 -0.87872454599E+02  0.10348751707E+03  0.47000000000E+01 0. -1.
          5    1    5    5  503    0  0.61399796112E+02 -0.47710083240E+02 -0.10171647689E+03  0.12811915811E+03  0.47000000000E+01 0.  1.
         -5    1    5    5    0  503 -0.25273978293E+02  0.18576111020E+02 -0.19059495501E+03  0.19321587087E+03  0.47000000000E+01 0.  1.
<mgrwt>
<rscale>  0 0.26957540E+03</rscale>
<asrwt>0</asrwt>
<pdfrwt beam="1">  1        1 0.36150762E-02 0.26957540E+03</pdfrwt>
<pdfrwt beam="2">  1       -1 0.11894779E+00 0.26957540E+03</pdfrwt>
<totfact> 0.17679742E+03</totfact>
</mgrwt>
</event>
<event>
 9    1  0.7926126E-001  0.2723619E+03  0.7818608E-02  0.1099935E+00
          2   -1    0    0  501    0  0.00000000000E+00  0.00000000000E+00  0.17608099496E+04  0.17608099496E+04  0.00000000000E+00 0.  1.
         -2   -1    0    0    0  501 -0.00000000000E+00 -0.00000000000E+00 -0.10532230816E+02  0.10532230816E+02  0.00000000000E+00 0.  1.
         35    2    1    2    0    0  0.71054273576E-14 -0.71054273576E-14  0.17502777187E+04  0.17713421804E+04  0.27236194163E+03 0.  0.
         25    2    3    3    0    0 -0.37067637949E+01 -0.51867133338E+02  0.98990027894E+03  0.99909972762E+03  0.12487499297E+03 0.  0.
         25    2    3    3    0    0  0.37067637949E+01  0.51867133338E+02  0.76037743980E+03  0.77224245275E+03  0.12442112061E+03 0.  0.
          5    1    4    4  502    0  0.50564600373E+02 -0.25940702863E+02  0.73282676565E+03  0.73504207861E+03  0.47000000000E+01 0. -1.
         -5    1    4    4    0  502 -0.54271364168E+02 -0.25926430474E+02  0.25707351330E+03  0.26405764902E+03  0.47000000000E+01 0. -1.
          5    1    5    5  503    0 -0.56295917980E+02  0.13285821776E+02  0.23683458819E+03  0.24384104578E+03  0.47000000000E+01 0.  1.
         -5    1    5    5    0  503  0.60002681775E+02  0.38581311561E+02  0.52354285161E+03  0.52840140697E+03  0.47000000000E+01 0.  1.
<mgrwt>
<rscale>  0 0.27236194E+03</rscale>
<asrwt>0</asrwt>
<pdfrwt beam="1">  1        2 0.27089360E+00 0.27236194E+03</pdfrwt>
<pdfrwt beam="2">  1       -2 0.16203446E-02 0.27236194E+03</pdfrwt>
<totfact> 0.10453781E+04</totfact>
</mgrwt>
</event>
<event>
 9    1  0.7926126E-001  0.2764072E+03  0.7818608E-02  0.1097668E+00
          1   -1    0    0  501    0  0.00000000000E+00  0.00000000000E+00  0.21583093238E+04  0.21583093238E+04  0.00000000000E+00 0. -1.
         -1   -1    0    0    0  501 -0.00000000000E+00 -0.00000000000E+00 -0.88496267761E+01  0.88496267761E+01  0.00000000000E+00 0. -1.
         35    2    1    2    0    0  0.71054273576E-14  0.17763568394E-14  0.21494596970E+04  0.21671589506E+04  0.27640717779E+03 0.  0.
         25    2    3    3    0    0  0.47728545733E+02  0.30573497200E+01  0.72014358351E+03  0.73160961482E+03  0.11982690081E+03 0.  0.
         25    2    3    3    0    0 -0.47728545733E+02 -0.30573497200E+01  0.14293161135E+04  0.14355493357E+04  0.12477973226E+03 0.  0.
          5    1    4    4  502    0 -0.29871270993E+02 -0.22590118956E+02  0.11705002679E+03  0.12298538562E+03  0.47000000000E+01 0.  1.
         -5    1    4    4    0  502  0.77599816726E+02  0.25647468676E+02  0.60309355672E+03  0.60862422919E+03  0.47000000000E+01 0.  1.
          5    1    5    5  503    0 -0.70386254138E+02  0.82690687243E+01  0.42434434745E+03  0.43024739103E+03  0.47000000000E+01 0. -1.
         -5    1    5    5    0  503  0.22657708405E+02 -0.11326418444E+02  0.10049717660E+04  0.10053019447E+04  0.47000000000E+01 0. -1.
<mgrwt>
<rscale>  0 0.27640718E+03</rscale>
<asrwt>0</asrwt>
<pdfrwt beam="1">  1        1 0.33204717E+00 0.27640718E+03</pdfrwt>
<pdfrwt beam="2">  1       -1 0.13614828E-02 0.27640718E+03</pdfrwt>
<totfact> 0.31984020E+03</totfact>
</mgrwt>
</event>
<event>
 9    1  0.7926126E-001  0.2743133E+03  0.7818608E-02  0.1098836E+00
         -2   -1    0    0    0  501 -0.00000000000E+00  0.00000000000E+00  0.19616850502E+02  0.19616850502E+02  0.00000000000E+00 0. -1.
          2   -1    0    0  501    0  0.00000000000E+00 -0.00000000000E+00 -0.95896890717E+03  0.95896890717E+03  0.00000000000E+00 0. -1.
         35    2    1    2    0    0 -0.35527136788E-14  0.71054273576E-14 -0.93935205667E+03  0.97858575767E+03  0.27431332223E+03 0.  0.
         25    2    3    3    0    0  0.29586090355E+02  0.43942127455E+02 -0.41715411945E+03  0.43876681799E+03  0.12526976446E+03 0.  0.
         25    2    3    3    0    0 -0.29586090355E+02 -0.43942127455E+02 -0.52219793722E+03  0.53981893968E+03  0.12612515489E+03 0.  0.
          5    1    4    4  502    0 -0.46836844321E+01  0.66189599609E+02 -0.37112883011E+03  0.37704336426E+03  0.47000000000E+01 0.  1.
         -5    1    4    4    0  502  0.34269774787E+02 -0.22247472154E+02 -0.46025289344E+02  0.61723453730E+02  0.47000000000E+01 0.  1.
          5    1    5    5  503    0  0.35200087579E+01  0.26164797774E+02 -0.25233797214E+02  0.36821483214E+02  0.47000000000E+01 0.  1.
         -5    1    5    5    0  503 -0.33106099113E+02 -0.70106925229E+02 -0.49696414001E+03  0.50299745647E+03  0.47000000000E+01 0.  1.
<mgrwt>
<rscale>  0 0.27431332E+03</rscale>
<asrwt>0</asrwt>
<pdfrwt beam="1">  1        2 0.14753363E+00 0.27431332E+03</pdfrwt>
<pdfrwt beam="2">  1       -2 0.30179780E-02 0.27431332E+03</pdfrwt>
<totfact> 0.11658508E+04</totfact>
</mgrwt>
</event>
<event>
 9    1  0.7926126E-001  0.2844829E+03  0.7818608E-02  0.1093265E+00
         -2   -1    0    0    0  501 -0.00000000000E+00  0.00000000000E+00  0.32577054378E+02  0.32577054378E+02  0.00000000000E+00 0. -1.
          2   -1    0    0  501    0  0.00000000000E+00 -0.00000000000E+00 -0.62107017330E+03  0.62107017330E+03  0.00000000000E+00 0. -1.
         35    2    1    2    0    0  0.00000000000E+00  0.00000000000E+00 -0.58849311892E+03  0.65364722768E+03  0.28448294717E+03 0.  0.
         25    2    3    3    0    0  0.35934881464E+02  0.21829587530E+02 -0.17974985145E+03  0.22415163454E+03  0.12714597742E+03 0.  0.
         25    2    3    3    0    0 -0.35934881464E+02 -0.21829587530E+02 -0.40874326748E+03  0.42949559314E+03  0.12501023646E+03 0.  0.
          5    1    4    4  502    0 -0.21707686940E+02 -0.16052570502E+02  0.41210923535E+01  0.27712489859E+02  0.47000000000E+01 0.  1.
         -5    1    4    4    0  502  0.57642568403E+02  0.37882158032E+02 -0.18387094380E+03  0.19643914468E+03  0.47000000000E+01 0.  1.
          5    1    5    5  503    0 -0.68613233528E+02 -0.14637650755E+02 -0.12234789070E+03  0.14111390078E+03  0.47000000000E+01 0. -1.
         -5    1    5    5    0  503  0.32678352064E+02 -0.71919367751E+01 -0.28639537678E+03  0.28838169236E+03  0.47000000000E+01 0. -1.
<mgrwt>
<rscale>  0 0.28448295E+03</rscale>
<asrwt>0</asrwt>
<pdfrwt beam="1">  1        2 0.95549254E-01 0.28448295E+03</pdfrwt>
<pdfrwt beam="2">  1       -2 0.50118547E-02 0.28448295E+03</pdfrwt>
<totfact> 0.94237579E+03</totfact>
</mgrwt>
</event>
<event>
 9    1  0.7926126E-001  0.2827134E+03  0.7818608E-02  0.1094216E+00
         -2   -1    0    0    0  501 -0.00000000000E+00  0.00000000000E+00  0.47224953461E+02  0.47224953461E+02  0.00000000000E+00 0.  1.
          2   -1    0    0  501    0  0.00000000000E+00 -0.00000000000E+00 -0.42311769267E+03  0.42311769267E+03  0.00000000000E+00 0.  1.
         35    2    1    2    0    0 -0.71054273576E-14  0.71054273576E-14 -0.37589273920E+03  0.47034264613E+03  0.28271337673E+03 0.  0.
         25    2    3    3    0    0 -0.58883295271E+02  0.13438003461E+02 -0.15604393377E+03  0.20988445145E+03  0.12670418815E+03 0.  0.
         25    2    3    3    0    0  0.58883295271E+02 -0.13438003461E+02 -0.21984880543E+03  0.26045819468E+03  0.12592518226E+03 0.  0.
          5    1    4    4  502    0  0.76756212396E+01  0.47820751414E+02 -0.16408464225E+02  0.51352381886E+02  0.47000000000E+01 0.  1.
         -5    1    4    4    0  502 -0.66558916510E+02 -0.34382747952E+02 -0.13963546955E+03  0.15853206956E+03  0.47000000000E+01 0.  1.
          5    1    5    5  503    0  0.43766587919E+02  0.53502406519E+02 -0.90711974150E+02  0.11414365499E+03  0.47000000000E+01 0.  1.
         -5    1    5    5    0  503  0.15116707352E+02 -0.66940409980E+02 -0.12913683128E+03  0.14631453968E+03  0.47000000000E+01 0.  1.
<mgrwt>
<rscale>  0 0.28271338E+03</rscale>
<asrwt>0</asrwt>
<pdfrwt beam="1">  1        2 0.65095030E-01 0.28271338E+03</pdfrwt>
<pdfrwt beam="2">  1       -2 0.72653774E-02 0.28271338E+03</pdfrwt>
<totfact> 0.82100580E+03</totfact>
</mgrwt>
</event>
<event>
 9    1  0.7926126E-001  0.2797671E+03  0.7818608E-02  0.1095816E+00
          2   -1    0    0  501    0  0.00000000000E+00  0.00000000000E+00  0.22461075988E+02  0.22461075988E+02  0.00000000000E+00 0.  1.
         -2   -1    0    0    0  501 -0.00000000000E+00 -0.00000000000E+00 -0.87116972160E+03  0.87116972160E+03  0.00000000000E+00 0.  1.
         35    2    1    2    0    0  0.00000000000E+00  0.14210854715E-13 -0.84870864561E+03  0.89363079759E+03  0.27976711255E+03 0.  0.
         25    2    3    3    0    0  0.11071253032E+02  0.51002469731E+02 -0.29434753769E+03  0.32278834461E+03  0.12177034904E+03 0.  0.
         25    2    3    3    0    0 -0.11071253032E+02 -0.51002469731E+02 -0.55436110792E+03  0.57084245298E+03  0.12578172997E+03 0.  0.
          5    1    4    4  502    0  0.53296432488E+01 -0.29582102827E+01 -0.25613957020E+03  0.25625519610E+03  0.47000000000E+01 0.  1.
         -5    1    4    4    0  502  0.57416097831E+01  0.53960680014E+02 -0.38207967498E+02  0.66533148511E+02  0.47000000000E+01 0.  1.
          5    1    5    5  503    0  0.16372425256E+02  0.38632640030E+02 -0.16211338122E+03  0.16752126896E+03  0.47000000000E+01 0. -1.
         -5    1    5    5    0  503 -0.27443678288E+02 -0.89635109761E+02 -0.39224772670E+03  0.40332118402E+03  0.47000000000E+01 0. -1.
<mgrwt>
<rscale>  0 0.27976711E+03</rscale>
<asrwt>0</asrwt>
<pdfrwt beam="1">  1        2 0.34555500E-02 0.27976711E+03</pdfrwt>
<pdfrwt beam="2">  1       -2 0.13402612E+00 0.27976711E+03</pdfrwt>
<totfact> 0.10925534E+03</totfact>
</mgrwt>
</event>
<event>
 9    1  0.7926126E-001  0.2711782E+03  0.7818608E-02  0.1100607E+00
         -2   -1    0    0    0  501 -0.00000000000E+00  0.00000000000E+00  0.25742036742E+02  0.25742036742E+02  0.00000000000E+00 0.  1.
          2   -1    0    0  501    0  0.00000000000E+00 -0.00000000000E+00 -0.71417851273E+03  0.71417851273E+03  0.00000000000E+00 0.  1.
         35    2    1    2    0    0  0.00000000000E+00  0.00000000000E+00 -0.68843647599E+03  0.73992054947E+03  0.27117824039E+03 0.  0.
         25    2    3    3    0    0 -0.26731955904E+02 -0.37799312700E+02 -0.31374544433E+03  0.34210468646E+03  0.12828104751E+03 0.  0.
         25    2    3    3    0    0  0.26731955904E+02  0.37799312700E+02 -0.37469103165E+03  0.39781586301E+03  0.12538224019E+03 0.  0.
          5    1    4    4  502    0 -0.62897296233E+02 -0.31582486147E+02 -0.28926906364E+03  0.29774520060E+03  0.47000000000E+01 0.  1.
         -5    1    4    4    0  502  0.36165340329E+02 -0.62168265533E+01 -0.24476380696E+02  0.44359485857E+02  0.47000000000E+01 0.  1.
          5    1    5    5  503    0 -0.19300478668E+02 -0.26012836138E+02 -0.23626299411E+03  0.23851932522E+03  0.47000000000E+01 0. -1.
         -5    1    5    5    0  503  0.46032434572E+02  0.63812148838E+02 -0.13842803754E+03  0.15929653778E+03  0.47000000000E+01 0. -1.
<mgrwt>
<rscale>  0 0.27117824E+03</rscale>
<asrwt>0</asrwt>
<pdfrwt beam="1">  1        2 0.10987361E+00 0.27117824E+03</pdfrwt>
<pdfrwt beam="2">  1       -2 0.39603136E-02 0.27117824E+03</pdfrwt>
<totfact> 0.11364233E+04</totfact>
</mgrwt>
</event>
<event>
 9    1  0.7926126E-001  0.2737828E+03  0.7818608E-02  0.1099134E+00
         -2   -1    0    0    0  501 -0.00000000000E+00  0.00000000000E+00  0.20287758461E+02  0.20287758461E+02  0.00000000000E+00 0. -1.
          2   -1    0    0  501    0  0.00000000000E+00 -0.00000000000E+00 -0.92367291906E+03  0.92367291906E+03  0.00000000000E+00 0. -1.
         35    2    1    2    0    0  0.35527136788E-14  0.00000000000E+00 -0.90338516060E+03  0.94396067752E+03  0.27378278309E+03 0.  0.
         25    2    3    3    0    0  0.22765962214E+02 -0.24347599311E+02 -0.29292714579E+03  0.31999594261E+03  0.12441863173E+03 0.  0.
         25    2    3    3    0    0 -0.22765962214E+02  0.24347599311E+02 -0.61045801482E+03  0.62396473491E+03  0.12474737646E+03 0.  0.
          5    1    4    4  502    0 -0.13012915262E+02  0.34713956586E+02 -0.29449209790E+02  0.47578784166E+02  0.47000000000E+01 0. -1.
         -5    1    4    4    0  502  0.35778877476E+02 -0.59061555897E+02 -0.26347793600E+03  0.27241715844E+03  0.47000000000E+01 0. -1.
          5    1    5    5  503    0 -0.39822396449E+02 -0.42244603329E+02 -0.22623359550E+03  0.23361112881E+03  0.47000000000E+01 0.  1.
         -5    1    5    5    0  503  0.17056434235E+02  0.66592202640E+02 -0.38422441932E+03  0.39035360611E+03  0.47000000000E+01 0.  1.
<mgrwt>
<rscale>  0 0.27378278E+03</rscale>
<asrwt>0</asrwt>
<pdfrwt beam="1">  1        2 0.14210349E+00 0.27378278E+03</pdfrwt>
<pdfrwt beam="2">  1       -2 0.31211944E-02 0.27378278E+03</pdfrwt>
<totfact> 0.11671715E+04</totfact>
</mgrwt>
</event>
<event>
 9    1  0.7926126E-001  0.2741480E+03  0.7818608E-02  0.1098929E+00
         -2   -1    0    0    0  501 -0.00000000000E+00  0.00000000000E+00  0.79166233413E+01  0.79166233413E+01  0.00000000000E+00 0.  1.
          2   -1    0    0  501    0  0.00000000000E+00 -0.00000000000E+00 -0.23733962489E+04  0.23733962489E+04  0.00000000000E+00 0.  1.
         35    2    1    2    0    0  0.00000000000E+00 -0.35527136788E-14 -0.23654796256E+04  0.23813128722E+04  0.27414801945E+03 0.  0.
         25    2    3    3    0    0  0.14908831486E+02  0.11611860711E+02 -0.74193815459E+03  0.75279734490E+03  0.12599408190E+03 0.  0.
         25    2    3    3    0    0 -0.14908831486E+02 -0.11611860711E+02 -0.16235414710E+04  0.16285155273E+04  0.12577283610E+03 0.  0.
          5    1    4    4  502    0 -0.14500844398E+02  0.32587359215E+02 -0.60516917005E+02  0.70403108686E+02  0.47000000000E+01 0.  1.
         -5    1    4    4    0  502  0.29409675884E+02 -0.20975498504E+02 -0.68142123759E+03  0.68239423621E+03  0.47000000000E+01 0.  1.
          5    1    5    5  503    0 -0.88134598864E+01 -0.62951286193E+02 -0.54306890529E+03  0.54679655029E+03  0.47000000000E+01 0. -1.
         -5    1    5    5    0  503 -0.60953715992E+01  0.51339425482E+02 -0.10804725657E+04  0.10817189771E+04  0.47000000000E+01 0. -1.
<mgrwt>
<rscale>  0 0.27414802E+03</rscale>
<asrwt>0</asrwt>
<pdfrwt beam="1">  1        2 0.36513723E+00 0.27414802E+03</pdfrwt>
<pdfrwt beam="2">  1       -2 0.12179442E-02 0.27414802E+03</pdfrwt>
<totfact> 0.75199634E+03</totfact>
</mgrwt>
</event>
<event>
 9    1  0.7926126E-001  0.2930967E+03  0.7818608E-02  0.1088743E+00
         -1   -1    0    0    0  501 -0.00000000000E+00  0.00000000000E+00  0.37148409785E+02  0.37148409785E+02  0.00000000000E+00 0. -1.
          1   -1    0    0  501    0  0.00000000000E+00 -0.00000000000E+00 -0.57812469270E+03  0.57812469270E+03  0.00000000000E+00 0. -1.
         35    2    1    2    0    0 -0.71054273576E-14  0.00000000000E+00 -0.54097628291E+03  0.61527310248E+03  0.29309665976E+03 0.  0.
         25    2    3    3    0    0  0.36199812173E+02 -0.49303013017E+02 -0.36168237992E+03  0.38758259854E+03  0.12515955120E+03 0.  0.
         25    2    3    3    0    0 -0.36199812173E+02  0.49303013017E+02 -0.17929390300E+03  0.22769050394E+03  0.12631487814E+03 0.  0.
          5    1    4    4  502    0  0.70940601511E+02 -0.47120395031E+01 -0.12202735944E+03  0.14130654164E+03  0.47000000000E+01 0. -1.
         -5    1    4    4    0  502 -0.34740789338E+02 -0.44590973514E+02 -0.23965502048E+03  0.24627605690E+03  0.47000000000E+01 0. -1.
          5    1    5    5  503    0 -0.13857498191E+01  0.25156579950E+02 -0.18310717745E+03  0.18489213681E+03  0.47000000000E+01 0. -1.
         -5    1    5    5    0  503 -0.34814062354E+02  0.24146433066E+02  0.38132744569E+01  0.42798367136E+02  0.47000000000E+01 0. -1.
<mgrwt>
<rscale>  0 0.29309666E+03</rscale>
<asrwt>0</asrwt>
<pdfrwt beam="1">  1        1 0.88942259E-01 0.29309666E+03</pdfrwt>
<pdfrwt beam="2">  1       -1 0.57151400E-02 0.29309666E+03</pdfrwt>
<totfact> 0.53203058E+03</totfact>
</mgrwt>
</event>
<event>
 9    1  0.7926126E-001  0.2701442E+03  0.7818608E-02  0.1101197E+00
          1   -1    0    0  501    0  0.00000000000E+00  0.00000000000E+00  0.34649358831E+03  0.34649358831E+03  0.00000000000E+00 0.  1.
         -1   -1    0    0    0  501 -0.00000000000E+00 -0.00000000000E+00 -0.52654562039E+02  0.52654562039E+02  0.00000000000E+00 0.  1.
         35    2    1    2    0    0  0.00000000000E+00  0.00000000000E+00  0.29383902627E+03  0.39914815035E+03  0.27014416997E+03 0.  0.
         25    2    3    3    0    0 -0.44167950631E+02  0.14413129458E+02  0.18244950910E+03  0.22587177597E+03  0.12478657639E+03 0.  0.
         25    2    3    3    0    0  0.44167950631E+02 -0.14413129458E+02  0.11138951717E+03  0.17327637438E+03  0.12433234180E+03 0.  0.
          5    1    4    4  502    0 -0.31246091095E+02 -0.39728565340E+02  0.15602830141E+03  0.16407802398E+03  0.47000000000E+01 0.  1.
         -5    1    4    4    0  502 -0.12921859536E+02  0.54141694798E+02  0.26421207690E+02  0.61793751992E+02  0.47000000000E+01 0.  1.
          5    1    5    5  503    0  0.79974589673E+02 -0.17996348529E+02  0.10959431123E+03  0.13694088728E+03  0.47000000000E+01 0.  1.
         -5    1    5    5    0  503 -0.35806639042E+02  0.35832190713E+01  0.17952059379E+01  0.36335487099E+02  0.47000000000E+01 0.  1.
<mgrwt>
<rscale>  0 0.27014417E+03</rscale>
<asrwt>0</asrwt>
<pdfrwt beam="1">  1        1 0.53306704E-01 0.27014417E+03</pdfrwt>
<pdfrwt beam="2">  1       -1 0.81007021E-02 0.27014417E+03</pdfrwt>
<totfact> 0.61127568E+03</totfact>
</mgrwt>
</event>
<event>
 9    1  0.7926126E-001  0.2756289E+03  0.7818608E-02  0.1098101E+00
         -2   -1    0    0    0  501 -0.00000000000E+00  0.00000000000E+00  0.33238033074E+03  0.33238033074E+03  0.00000000000E+00 0. -1.
          2   -1    0    0  501    0  0.00000000000E+00 -0.00000000000E+00 -0.57141844723E+02  0.57141844723E+02  0.00000000000E+00 0. -1.
         35    2    1    2    0    0  0.17763568394E-14  0.00000000000E+00  0.27523848602E+03  0.38952217547E+03  0.27562891901E+03 0.  0.
         25    2    3    3    0    0  0.30384464638E+01 -0.54453593513E+02  0.17048192841E+03  0.21713661394E+03  0.12292190690E+03 0.  0.
         25    2    3    3    0    0 -0.30384464638E+01  0.54453593513E+02  0.10475655761E+03  0.17238556153E+03  0.12557236741E+03 0.  0.
          5    1    4    4  502    0  0.59710394302E+02 -0.48135003690E+02  0.89148340328E+02  0.11769378213E+03  0.47000000000E+01 0.  1.
         -5    1    4    4    0  502 -0.56671947838E+02 -0.63185898234E+01  0.81333588080E+02  0.99442831814E+02  0.47000000000E+01 0.  1.
          5    1    5    5  503    0 -0.74266853975E+01  0.86338963029E+02  0.31662188542E+02  0.92380497813E+02  0.47000000000E+01 0. -1.
         -5    1    5    5    0  503  0.43882389337E+01 -0.31885369516E+02  0.73094369070E+02  0.80005063714E+02  0.47000000000E+01 0. -1.
<mgrwt>
<rscale>  0 0.27562892E+03</rscale>
<asrwt>0</asrwt>
<pdfrwt beam="1">  1        2 0.87910532E-02 0.27562892E+03</pdfrwt>
<pdfrwt beam="2">  1       -2 0.51135434E-01 0.27562892E+03</pdfrwt>
<totfact> 0.27586081E+03</totfact>
</mgrwt>
</event>
<event>
 9    1  0.7926126E-001  0.2749894E+03  0.7818608E-02  0.1098458E+00
          2   -1    0    0  501    0  0.00000000000E+00  0.00000000000E+00  0.11379537094E+04  0.11379537094E+04  0.00000000000E+00 0.  1.
         -2   -1    0    0    0  501 -0.00000000000E+00 -0.00000000000E+00 -0.16612974230E+02  0.16612974230E+02  0.00000000000E+00 0.  1.
         35    2    1    2    0    0  0.17763568394E-14 -0.17763568394E-14  0.11213407352E+04  0.11545666836E+04  0.27498942270E+03 0.  0.
         25    2    3    3    0    0  0.13251462623E+02 -0.33811151393E+01  0.32554286175E+03  0.34878637642E+03  0.12444576462E+03 0.  0.
         25    2    3    3    0    0 -0.13251462623E+02  0.33811151393E+01  0.79579787340E+03  0.80578030720E+03  0.12570049705E+03 0.  0.
          5    1    4    4  502    0 -0.51198227431E+02  0.70874888278E+01  0.20659615961E+03  0.21301538479E+03  0.47000000000E+01 0.  1.
         -5    1    4    4    0  502  0.64449690054E+02 -0.10468603967E+02  0.11894670214E+03  0.13577099163E+03  0.47000000000E+01 0.  1.
          5    1    5    5  503    0  0.13936548228E+01  0.14856272751E+01  0.78873144787E+03  0.78874808160E+03  0.47000000000E+01 0.  1.
         -5    1    5    5    0  503 -0.14645117446E+02  0.18954878643E+01  0.70664255328E+01  0.17032225605E+02  0.47000000000E+01 0.  1.
<mgrwt>
<rscale>  0 0.27498942E+03</rscale>
<asrwt>0</asrwt>
<pdfrwt beam="1">  1        2 0.17506974E+00 0.27498942E+03</pdfrwt>
<pdfrwt beam="2">  1       -2 0.25558431E-02 0.27498942E+03</pdfrwt>
<totfact> 0.11651162E+04</totfact>
</mgrwt>
</event>
<event>
 9    1  0.7926126E-001  0.2848666E+03  0.7818608E-02  0.1093060E+00
          2   -1    0    0  501    0  0.00000000000E+00  0.00000000000E+00  0.20277972203E+04  0.20277972203E+04  0.00000000000E+00 0.  1.
         -2   -1    0    0    0  501 -0.00000000000E+00 -0.00000000000E+00 -0.10004573733E+02  0.10004573733E+02  0.00000000000E+00 0.  1.
         35    2    1    2    0    0  0.00000000000E+00  0.00000000000E+00  0.20177926465E+04  0.20378017940E+04  0.28486661304E+03 0.  0.
         25    2    3    3    0    0  0.35133147204E+02  0.55337733038E+02  0.11516133053E+04  0.11603437415E+04  0.12604677987E+03 0.  0.
         25    2    3    3    0    0 -0.35133147204E+02 -0.55337733038E+02  0.86617934126E+03  0.87745805254E+03  0.12397330367E+03 0.  0.
          5    1    4    4  502    0  0.62244287343E+02 -0.16090486335E+02  0.45655172929E+03  0.46108006525E+03  0.47000000000E+01 0.  1.
         -5    1    4    4    0  502 -0.27111140139E+02  0.71428219373E+02  0.69506157599E+03  0.69926367620E+03  0.47000000000E+01 0.  1.
          5    1    5    5  503    0 -0.46110106177E+02  0.95642898150E+01  0.13034605464E+03  0.13867155978E+03  0.47000000000E+01 0.  1.
         -5    1    5    5    0  503  0.10976958973E+02 -0.64902022853E+02  0.73583328662E+03  0.73878649276E+03  0.47000000000E+01 0.  1.
<mgrwt>
<rscale>  0 0.28486661E+03</rscale>
<asrwt>0</asrwt>
<pdfrwt beam="1">  1        2 0.31196848E+00 0.28486661E+03</pdfrwt>
<pdfrwt beam="2">  1       -2 0.15391668E-02 0.28486661E+03</pdfrwt>
<totfact> 0.81633043E+03</totfact>
</mgrwt>
</event>
<event>
 9    1  0.7926126E-001  0.2768275E+03  0.7818608E-02  0.1097434E+00
          2   -1    0    0  501    0  0.00000000000E+00  0.00000000000E+00  0.10184099511E+04  0.10184099511E+04  0.00000000000E+00 0.  1.
         -2   -1    0    0    0  501 -0.00000000000E+00 -0.00000000000E+00 -0.18812042907E+02  0.18812042907E+02  0.00000000000E+00 0.  1.
         35    2    1    2    0    0 -0.14210854715E-13  0.35527136788E-14  0.99959790822E+03  0.10372219940E+04  0.27682753980E+03 0.  0.
         25    2    3    3    0    0  0.51285911281E+02 -0.20786036424E+02  0.57910874969E+03  0.59510989666E+03  0.12540550679E+03 0.  0.
         25    2    3    3    0    0 -0.51285911281E+02  0.20786036424E+02  0.42048915853E+03  0.44211209737E+03  0.12485860081E+03 0.  0.
          5    1    4    4  502    0 -0.29947251663E+02 -0.41387252243E+02  0.17441381712E+03  0.18180212356E+03  0.47000000000E+01 0. -1.
         -5    1    4    4    0  502  0.81233162944E+02  0.20601215819E+02  0.40469493258E+03  0.41330777310E+03  0.47000000000E+01 0. -1.
          5    1    5    5  503    0 -0.21251565344E+01  0.51507302468E+02  0.33335577391E+03  0.33735097524E+03  0.47000000000E+01 0. -1.
         -5    1    5    5    0  503 -0.49160754746E+02 -0.30721266044E+02  0.87133384621E+02  0.10476112213E+03  0.47000000000E+01 0. -1.
<mgrwt>
<rscale>  0 0.27682754E+03</rscale>
<asrwt>0</asrwt>
<pdfrwt beam="1">  1        2 0.15667841E+00 0.27682754E+03</pdfrwt>
<pdfrwt beam="2">  1       -2 0.28941612E-02 0.27682754E+03</pdfrwt>
<totfact> 0.11408128E+04</totfact>
</mgrwt>
</event>
<event>
 9    1  0.7926126E-001  0.2759878E+03  0.7818608E-02  0.1097901E+00
         -2   -1    0    0    0  501 -0.00000000000E+00  0.00000000000E+00  0.57779289234E+02  0.57779289234E+02  0.00000000000E+00 0. -1.
          2   -1    0    0  501    0  0.00000000000E+00 -0.00000000000E+00 -0.32956998495E+03  0.32956998495E+03  0.00000000000E+00 0. -1.
         35    2    1    2    0    0 -0.71054273576E-14 -0.71054273576E-14 -0.27179069572E+03  0.38734927419E+03  0.27598782207E+03 0.  0.
         25    2    3    3    0    0  0.11254214940E+02 -0.55233601426E+02 -0.14506351255E+03  0.20051762406E+03  0.12643767953E+03 0.  0.
         25    2    3    3    0    0 -0.11254214940E+02  0.55233601426E+02 -0.12672718317E+03  0.18683165013E+03  0.12517539077E+03 0.  0.
          5    1    4    4  502    0  0.53868183810E+02 -0.68129354522E+02 -0.12289137582E+03  0.15055819614E+03  0.47000000000E+01 0. -1.
         -5    1    4    4    0  502 -0.42613968870E+02  0.12895753096E+02 -0.22172136735E+02  0.49959427921E+02  0.47000000000E+01 0. -1.
          5    1    5    5  503    0  0.84356077765E+01 -0.38205380623E+02 -0.53282094211E+02  0.66271276965E+02  0.47000000000E+01 0. -1.
         -5    1    5    5    0  503 -0.19689822717E+02  0.93438982049E+02 -0.73445088956E+02  0.12056037316E+03  0.47000000000E+01 0. -1.
<mgrwt>
<rscale>  0 0.27598782E+03</rscale>
<asrwt>0</asrwt>
<pdfrwt beam="1">  1        2 0.50703073E-01 0.27598782E+03</pdfrwt>
<pdfrwt beam="2">  1       -2 0.88891216E-02 0.27598782E+03</pdfrwt>
<totfact> 0.78450296E+03</totfact>
</mgrwt>
</event>
<event>
 9    1  0.7926126E-001  0.3126057E+03  0.7818608E-02  0.1079104E+00
         -2   -1    0    0    0  501 -0.00000000000E+00  0.00000000000E+00  0.19586423604E+02  0.19586423604E+02  0.00000000000E+00 0.  1.
          2   -1    0    0  501    0  0.00000000000E+00 -0.00000000000E+00 -0.12473222854E+04  0.12473222854E+04  0.00000000000E+00 0.  1.
         35    2    1    2    0    0  0.00000000000E+00  0.00000000000E+00 -0.12277358617E+04  0.12669087090E+04  0.31260571109E+03 0.  0.
         25    2    3    3    0    0 -0.60506309191E+02 -0.38029758493E+02 -0.85814366531E+03  0.87005437670E+03  0.12440575597E+03 0.  0.
         25    2    3    3    0    0  0.60506309191E+02  0.38029758493E+02 -0.36959219644E+03  0.39685433226E+03  0.12564908826E+03 0.  0.
          5    1    4    4  502    0  0.38356860428E+02 -0.17203192171E+02 -0.26113835829E+03  0.26454211523E+03  0.47000000000E+01 0.  1.
         -5    1    4    4    0  502 -0.98863169620E+02 -0.20826566322E+02 -0.59700530702E+03  0.60551226147E+03  0.47000000000E+01 0.  1.
          5    1    5    5  503    0  0.36045576109E+02 -0.39750347684E+02 -0.21915380607E+03  0.22567643743E+03  0.47000000000E+01 0. -1.
         -5    1    5    5    0  503  0.24460733083E+02  0.77780106177E+02 -0.15043839037E+03  0.17117789482E+03  0.47000000000E+01 0. -1.
<mgrwt>
<rscale>  0 0.31260571E+03</rscale>
<asrwt>0</asrwt>
<pdfrwt beam="1">  1        2 0.19189571E+00 0.31260571E+03</pdfrwt>
<pdfrwt beam="2">  1       -2 0.30132964E-02 0.31260571E+03</pdfrwt>
<totfact> 0.79211967E+03</totfact>
</mgrwt>
</event>
<event>
 9    1  0.7926126E-001  0.2693501E+03  0.7818608E-02  0.1101652E+00
          2   -1    0    0  501    0  0.00000000000E+00  0.00000000000E+00  0.69429230204E+03  0.69429230204E+03  0.00000000000E+00 0.  1.
         -2   -1    0    0    0  501 -0.00000000000E+00 -0.00000000000E+00 -0.26123531958E+02  0.26123531958E+02  0.00000000000E+00 0.  1.
         35    2    1    2    0    0  0.00000000000E+00 -0.35527136788E-14  0.66816877008E+03  0.72041583400E+03  0.26935008551E+03 0.  0.
         25    2    3    3    0    0  0.66743978961E+00  0.12277464939E+02  0.46269617876E+03  0.47954204153E+03  0.12538594076E+03 0.  0.
         25    2    3    3    0    0 -0.66743978961E+00 -0.12277464939E+02  0.20547259132E+03  0.24087379247E+03  0.12510002594E+03 0.  0.
          5    1    4    4  502    0  0.49298256938E+02  0.30759336390E+02  0.12618509500E+03  0.13900080256E+03  0.47000000000E+01 0.  1.
         -5    1    4    4    0  502 -0.48630817148E+02 -0.18481871451E+02  0.33651108376E+03  0.34054123898E+03  0.47000000000E+01 0.  1.
          5    1    5    5  503    0  0.16513349592E+02 -0.19041261308E+02  0.21706324071E+03  0.21857218673E+03  0.47000000000E+01 0. -1.
         -5    1    5    5    0  503 -0.17180789381E+02  0.67637963693E+01 -0.11590649384E+02  0.22301605732E+02  0.47000000000E+01 0. -1.
<mgrwt>
<rscale>  0 0.26935009E+03</rscale>
<asrwt>0</asrwt>
<pdfrwt beam="1">  1        2 0.10681419E+00 0.26935009E+03</pdfrwt>
<pdfrwt beam="2">  1       -2 0.40190054E-02 0.26935009E+03</pdfrwt>
<totfact> 0.11500752E+04</totfact>
</mgrwt>
</event>
<event>
 9    1  0.7926126E-001  0.2794063E+03  0.7818608E-02  0.1096014E+00
         -4   -1    0    0    0  501 -0.00000000000E+00  0.00000000000E+00  0.32597946899E+03  0.32597946899E+03  0.00000000000E+00 0. -1.
          4   -1    0    0  501    0  0.00000000000E+00 -0.00000000000E+00 -0.59871783932E+02  0.59871783932E+02  0.00000000000E+00 0. -1.
         35    2    1    2    0    0  0.00000000000E+00  0.17763568394E-14  0.26610768505E+03  0.38585125292E+03  0.27940631584E+03 0.  0.
         25    2    3    3    0    0  0.60064240919E+02 -0.10237617629E+02  0.11670626165E+03  0.18181329565E+03  0.12539218922E+03 0.  0.
         25    2    3    3    0    0 -0.60064240919E+02  0.10237617629E+02  0.14940142341E+03  0.20403795726E+03  0.12489267727E+03 0.  0.
          5    1    4    4  502    0 -0.37259420403E+02  0.11900013364E+02  0.36088288051E+02  0.53425923121E+02  0.47000000000E+01 0. -1.
         -5    1    4    4    0  502  0.97323661322E+02 -0.22137630992E+02  0.80617973596E+02  0.12838737253E+03  0.47000000000E+01 0. -1.
          5    1    5    5  503    0 -0.89629077946E+01 -0.55004461716E+02  0.58090280859E+02  0.80637430856E+02  0.47000000000E+01 0.  1.
         -5    1    5    5    0  503 -0.51101333125E+02  0.65242079345E+02  0.91311142548E+02  0.12340052641E+03  0.47000000000E+01 0.  1.
<mgrwt>
<rscale>  0 0.27940632E+03</rscale>
<asrwt>0</asrwt>
<pdfrwt beam="1">  1        4 0.92110439E-02 0.27940632E+03</pdfrwt>
<pdfrwt beam="2">  1       -4 0.50150687E-01 0.27940632E+03</pdfrwt>
<totfact> 0.63129594E+02</totfact>
</mgrwt>
</event>
<event>
 9    1  0.7926126E-001  0.2785141E+03  0.7818608E-02  0.1096503E+00
         -2   -1    0    0    0  501 -0.00000000000E+00  0.00000000000E+00  0.18227026740E+02  0.18227026740E+02  0.00000000000E+00 0. -1.
          2   -1    0    0  501    0  0.00000000000E+00 -0.00000000000E+00 -0.10639436061E+04  0.10639436061E+04  0.00000000000E+00 0. -1.
         35    2    1    2    0    0 -0.71054273576E-14  0.00000000000E+00 -0.10457165794E+04  0.10821706329E+04  0.27851411856E+03 0.  0.
         25    2    3    3    0    0  0.11615040360E+02  0.43135086172E+02 -0.37933563750E+03  0.40231723743E+03  0.12636490348E+03 0.  0.
         25    2    3    3    0    0 -0.11615040360E+02 -0.43135086172E+02 -0.66638094187E+03  0.67985339543E+03  0.12704933986E+03 0.  0.
          5    1    4    4  502    0  0.64434265707E+02  0.45273555777E+02 -0.26018118180E+03  0.27187829412E+03  0.47000000000E+01 0.  1.
         -5    1    4    4    0  502 -0.52819225347E+02 -0.21384696045E+01 -0.11915445570E+03  0.13043894331E+03  0.47000000000E+01 0.  1.
          5    1    5    5  503    0  0.37710440592E+02 -0.24133820794E+02 -0.55120167247E+03  0.55303697198E+03  0.47000000000E+01 0.  1.
         -5    1    5    5    0  503 -0.49325480951E+02 -0.19001265378E+02 -0.11517926940E+03  0.12681642345E+03  0.47000000000E+01 0.  1.
<mgrwt>
<rscale>  0 0.27851412E+03</rscale>
<asrwt>0</asrwt>
<pdfrwt beam="1">  1        2 0.16368364E+00 0.27851412E+03</pdfrwt>
<pdfrwt beam="2">  1       -2 0.28041579E-02 0.27851412E+03</pdfrwt>
<totfact> 0.11227609E+04</totfact>
</mgrwt>
</event>
<event>
 9    1  0.7926126E-001  0.2730046E+03  0.7818608E-02  0.1099572E+00
         -2   -1    0    0    0  501 -0.00000000000E+00  0.00000000000E+00  0.16782683037E+03  0.16782683037E+03  0.00000000000E+00 0. -1.
          2   -1    0    0  501    0  0.00000000000E+00 -0.00000000000E+00 -0.11102444513E+03  0.11102444513E+03  0.00000000000E+00 0. -1.
         35    2    1    2    0    0  0.00000000000E+00  0.00000000000E+00  0.56802385239E+02  0.27885127550E+03  0.27300462062E+03 0.  0.
         25    2    3    3    0    0  0.16454470645E+02 -0.48122509620E+02  0.19993425589E+02  0.13791676800E+03  0.12662848136E+03 0.  0.
         25    2    3    3    0    0 -0.16454470645E+02  0.48122509620E+02  0.36808959651E+02  0.14093450750E+03  0.12617888237E+03 0.  0.
          5    1    4    4  502    0 -0.12041097252E+02  0.13916257714E+02  0.57027091791E+02  0.60106817000E+02  0.47000000000E+01 0. -1.
         -5    1    4    4    0  502  0.28495567896E+02 -0.62038767334E+02 -0.37033666202E+02  0.77809950998E+02  0.47000000000E+01 0. -1.
          5    1    5    5  503    0  0.79106669018E+01  0.69111411460E+02 -0.22535852839E+02  0.73272917971E+02  0.47000000000E+01 0. -1.
         -5    1    5    5    0  503 -0.24365137546E+02 -0.20988901840E+02  0.59344812490E+02  0.67661589529E+02  0.47000000000E+01 0. -1.
<mgrwt>
<rscale>  0 0.27300462E+03</rscale>
<asrwt>0</asrwt>
<pdfrwt beam="1">  1        2 0.17080684E-01 0.27300462E+03</pdfrwt>
<pdfrwt beam="2">  1       -2 0.25819512E-01 0.27300462E+03</pdfrwt>
<totfact> 0.44519262E+03</totfact>
</mgrwt>
</event>
<event>
 9    1  0.7926126E-001  0.2756465E+03  0.7818608E-02  0.1098091E+00
          2   -1    0    0  501    0  0.00000000000E+00  0.00000000000E+00  0.16101561095E+04  0.16101561095E+04  0.00000000000E+00 0. -1.
         -2   -1    0    0    0  501 -0.00000000000E+00 -0.00000000000E+00 -0.11797150797E+02  0.11797150797E+02  0.00000000000E+00 0. -1.
         35    2    1    2    0    0 -0.35527136788E-14  0.00000000000E+00  0.15983589587E+04  0.16219532603E+04  0.27564654492E+03 0.  0.
         25    2    3    3    0    0 -0.26278418697E+02  0.19665133504E+02  0.10554216729E+04  0.10632514568E+04  0.12454509257E+03 0.  0.
         25    2    3    3    0    0  0.26278418697E+02 -0.19665133504E+02  0.54293728587E+03  0.55870180352E+03  0.12763046700E+03 0.  0.
          5    1    4    4  502    0 -0.86479365424E+01  0.24181630057E+02  0.10356195396E+04  0.10359485792E+04  0.47000000000E+01 0. -1.
         -5    1    4    4    0  502 -0.17630482154E+02 -0.45164965524E+01  0.19802133319E+02  0.27302877616E+02  0.47000000000E+01 0. -1.
          5    1    5    5  503    0  0.76114725319E+02 -0.15082274694E+02  0.26146902189E+03  0.27278025191E+03  0.47000000000E+01 0. -1.
         -5    1    5    5    0  503 -0.49836306622E+02 -0.45828588103E+01  0.28146826397E+03  0.28592155161E+03  0.47000000000E+01 0. -1.
<mgrwt>
<rscale>  0 0.27564654E+03</rscale>
<asrwt>0</asrwt>
<pdfrwt beam="1">  1        2 0.24771615E+00 0.27564654E+03</pdfrwt>
<pdfrwt beam="2">  1       -2 0.18149476E-02 0.27564654E+03</pdfrwt>
<totfact> 0.10630342E+04</totfact>
</mgrwt>
</event>
<event>
 9    1  0.7926126E-001  0.2748134E+03  0.7818608E-02  0.1098556E+00
          1   -1    0    0  501    0  0.00000000000E+00  0.00000000000E+00  0.42739473977E+03  0.42739473977E+03  0.00000000000E+00 0.  1.
         -1   -1    0    0    0  501 -0.00000000000E+00 -0.00000000000E+00 -0.44176040810E+02  0.44176040810E+02  0.00000000000E+00 0.  1.
         35    2    1    2    0    0  0.00000000000E+00 -0.71054273576E-14  0.38321869896E+03  0.47157078058E+03  0.27481344557E+03 0.  0.
         25    2    3    3    0    0 -0.81236020784E+01 -0.17916767394E+02  0.28419657326E+03  0.31106838632E+03  0.12493536429E+03 0.  0.
         25    2    3    3    0    0  0.81236020784E+01  0.17916767394E+02  0.99022125702E+02  0.16050239426E+03  0.12477433118E+03 0.  0.
          5    1    4    4  502    0  0.28392261343E+02 -0.10573716527E+02  0.26871641426E+03  0.27045984042E+03  0.47000000000E+01 0. -1.
         -5    1    4    4    0  502 -0.36515863422E+02 -0.73430508661E+01  0.15480158995E+02  0.40608545898E+02  0.47000000000E+01 0. -1.
          5    1    5    5  503    0  0.34143139314E+02 -0.42045557493E+02  0.70509621505E+02  0.89035271617E+02  0.47000000000E+01 0.  1.
         -5    1    5    5    0  503 -0.26019537235E+02  0.59962324886E+02  0.28512504197E+02  0.71467122646E+02  0.47000000000E+01 0.  1.
<mgrwt>
<rscale>  0 0.27481345E+03</rscale>
<asrwt>0</asrwt>
<pdfrwt beam="1">  1        1 0.65753034E-01 0.27481345E+03</pdfrwt>
<pdfrwt beam="2">  1       -1 0.67963143E-02 0.27481345E+03</pdfrwt>
<totfact> 0.61097143E+03</totfact>
</mgrwt>
</event>
<event>
 9    1  0.7926126E-001  0.2782192E+03  0.7818608E-02  0.1096666E+00
          2   -1    0    0  501    0  0.00000000000E+00  0.00000000000E+00  0.48989326241E+02  0.48989326241E+02  0.00000000000E+00 0. -1.
         -2   -1    0    0    0  501 -0.00000000000E+00 -0.00000000000E+00 -0.39501435407E+03  0.39501435407E+03  0.00000000000E+00 0. -1.
         35    2    1    2    0    0  0.00000000000E+00  0.00000000000E+00 -0.34602502783E+03  0.44400368031E+03  0.27821924492E+03 0.  0.
         25    2    3    3    0    0  0.55922080099E+02 -0.36215731834E+02 -0.17552641933E+03  0.22282575556E+03  0.12001222931E+03 0.  0.
         25    2    3    3    0    0 -0.55922080099E+02  0.36215731834E+02 -0.17049860850E+03  0.22117792475E+03  0.12414121243E+03 0.  0.
          5    1    4    4  502    0 -0.17455552524E+02  0.16154304858E+01  0.92648678168E+01  0.20377284049E+02  0.47000000000E+01 0. -1.
         -5    1    4    4    0  502  0.73377632622E+02 -0.37831162320E+02 -0.18479128715E+03  0.20244847151E+03  0.47000000000E+01 0. -1.
          5    1    5    5  503    0 -0.83472462712E+02  0.23183394296E+02 -0.57589483353E+02  0.10413337791E+03  0.47000000000E+01 0.  1.
         -5    1    5    5    0  503  0.27550382613E+02  0.13032337538E+02 -0.11290912515E+03  0.11704454684E+03  0.47000000000E+01 0.  1.
<mgrwt>
<rscale>  0 0.27821924E+03</rscale>
<asrwt>0</asrwt>
<pdfrwt beam="1">  1        2 0.75368196E-02 0.27821924E+03</pdfrwt>
<pdfrwt beam="2">  1       -2 0.60771438E-01 0.27821924E+03</pdfrwt>
<totfact> 0.23587358E+03</totfact>
</mgrwt>
</event>
<event>
 9    1  0.7926126E-001  0.2768747E+03  0.7818608E-02  0.1097408E+00
         -2   -1    0    0    0  501 -0.00000000000E+00  0.00000000000E+00  0.24020582526E+02  0.24020582526E+02  0.00000000000E+00 0. -1.
          2   -1    0    0  501    0  0.00000000000E+00 -0.00000000000E+00 -0.79785302984E+03  0.79785302984E+03  0.00000000000E+00 0. -1.
         35    2    1    2    0    0  0.14210854715E-13 -0.35527136788E-14 -0.77383244731E+03  0.82187361237E+03  0.27687466151E+03 0.  0.
         25    2    3    3    0    0  0.51203876986E+02 -0.98542372876E+01 -0.30303301016E+03  0.33187175549E+03  0.12486358089E+03 0.  0.
         25    2    3    3    0    0 -0.51203876986E+02  0.98542372876E+01 -0.47079943715E+03  0.49000185687E+03  0.12542235330E+03 0.  0.
          5    1    4    4  502    0  0.66847895105E+02  0.18960139059E+02 -0.28651762396E+03  0.29486024960E+03  0.47000000000E+01 0. -1.
         -5    1    4    4    0  502 -0.15644018119E+02 -0.28814376347E+02 -0.16515386206E+02  0.37011505896E+02  0.47000000000E+01 0. -1.
          5    1    5    5  503    0 -0.41828232442E+01  0.62391345720E+02 -0.26819319938E+03  0.27542668394E+03  0.47000000000E+01 0. -1.
         -5    1    5    5    0  503 -0.47021053742E+02 -0.52537108433E+02 -0.20260623777E+03  0.21457517293E+03  0.47000000000E+01 0. -1.
<mgrwt>
<rscale>  0 0.27687466E+03</rscale>
<asrwt>0</asrwt>
<pdfrwt beam="1">  1        2 0.12274661E+00 0.27687466E+03</pdfrwt>
<pdfrwt beam="2">  1       -2 0.36954744E-02 0.27687466E+03</pdfrwt>
<totfact> 0.10991808E+04</totfact>
</mgrwt>
</event>
<event>
 9    1  0.7926126E-001  0.2759161E+03  0.7818608E-02  0.1097941E+00
         -2   -1    0    0    0  501 -0.00000000000E+00  0.00000000000E+00  0.14759352656E+02  0.14759352656E+02  0.00000000000E+00 0. -1.
          2   -1    0    0  501    0  0.00000000000E+00 -0.00000000000E+00 -0.12895161417E+04  0.12895161417E+04  0.00000000000E+00 0. -1.
         35    2    1    2    0    0  0.00000000000E+00  0.00000000000E+00 -0.12747567891E+04  0.13042754944E+04  0.27591609951E+03 0.  0.
         25    2    3    3    0    0 -0.15748845315E+02 -0.24533926964E+02 -0.87754067867E+03  0.88685998934E+03  0.12487216766E+03 0.  0.
         25    2    3    3    0    0  0.15748845315E+02  0.24533926964E+02 -0.39721611041E+03  0.41741550506E+03  0.12492047788E+03 0.  0.
          5    1    4    4  502    0 -0.21203914642E+02 -0.72180635827E+02 -0.64424692082E+03  0.64864153056E+03  0.47000000000E+01 0. -1.
         -5    1    4    4    0  502  0.54550693270E+01  0.47646708863E+02 -0.23329375785E+03  0.23821845877E+03  0.47000000000E+01 0. -1.
          5    1    5    5  503    0 -0.31914008323E+00  0.50482203285E+02 -0.37725224466E+03  0.38064406051E+03  0.47000000000E+01 0. -1.
         -5    1    5    5    0  503  0.16067985398E+02 -0.25948276321E+02 -0.19963865750E+02  0.36771444553E+02  0.47000000000E+01 0. -1.
<mgrwt>
<rscale>  0 0.27591610E+03</rscale>
<asrwt>0</asrwt>
<pdfrwt beam="1">  1        2 0.19838702E+00 0.27591610E+03</pdfrwt>
<pdfrwt beam="2">  1       -2 0.22706706E-02 0.27591610E+03</pdfrwt>
<totfact> 0.11389725E+04</totfact>
</mgrwt>
</event>
<event>
 9    1  0.7926126E-001  0.2737757E+03  0.7818608E-02  0.1099138E+00
          1   -1    0    0  501    0  0.00000000000E+00  0.00000000000E+00  0.62828248902E+03  0.62828248902E+03  0.00000000000E+00 0. -1.
         -1   -1    0    0    0  501 -0.00000000000E+00 -0.00000000000E+00 -0.29824610069E+02  0.29824610069E+02  0.00000000000E+00 0. -1.
         35    2    1    2    0    0  0.71054273576E-14  0.00000000000E+00  0.59845787895E+03  0.65810709909E+03  0.27377567641E+03 0.  0.
         25    2    3    3    0    0  0.14248728581E+02 -0.46898925159E+02  0.25448623746E+03  0.28774742880E+03  0.12503120521E+03 0.  0.
         25    2    3    3    0    0 -0.14248728581E+02  0.46898925159E+02  0.34397164149E+03  0.37035967029E+03  0.12824687045E+03 0.  0.
          5    1    4    4  502    0 -0.45231655441E+02 -0.55188871919E+02  0.16550390638E+03  0.18029239380E+03  0.47000000000E+01 0. -1.
         -5    1    4    4    0  502  0.59480384022E+02  0.82899467596E+01  0.88982331084E+02  0.10745503500E+03  0.47000000000E+01 0. -1.
          5    1    5    5  503    0  0.22325936284E+02  0.35140339396E+02  0.32420233382E+03  0.32689835445E+03  0.47000000000E+01 0.  1.
         -5    1    5    5    0  503 -0.36574664865E+02  0.11758585763E+02  0.19769307668E+02  0.43461315843E+02  0.47000000000E+01 0.  1.
<mgrwt>
<rscale>  0 0.27377568E+03</rscale>
<asrwt>0</asrwt>
<pdfrwt beam="1">  1        1 0.96658834E-01 0.27377568E+03</pdfrwt>
<pdfrwt beam="2">  1       -1 0.45884020E-02 0.27377568E+03</pdfrwt>
<totfact> 0.65762291E+03</totfact>
</mgrwt>
</event>
<event>
 9    1  0.7926126E-001  0.2749307E+03  0.7818608E-02  0.1098490E+00
          1   -1    0    0  501    0  0.00000000000E+00  0.00000000000E+00  0.18874689476E+03  0.18874689476E+03  0.00000000000E+00 0.  1.
         -1   -1    0    0    0  501 -0.00000000000E+00 -0.00000000000E+00 -0.10011672486E+03  0.10011672486E+03  0.00000000000E+00 0.  1.
         35    2    1    2    0    0  0.00000000000E+00  0.00000000000E+00  0.88630169898E+02  0.28886361962E+03  0.27493068894E+03 0.  0.
         25    2    3    3    0    0  0.54152110713E+02  0.60619608936E+01  0.27789981693E+02  0.13889207310E+03  0.12469774024E+03 0.  0.
         25    2    3    3    0    0 -0.54152110713E+02 -0.60619608936E+01  0.60840188204E+02  0.14997154652E+03  0.12578051439E+03 0.  0.
          5    1    4    4  502    0  0.41420721443E+02 -0.18940181912E+02  0.72589247457E+02  0.85823630208E+02  0.47000000000E+01 0.  1.
         -5    1    4    4    0  502  0.12731389269E+02  0.25002142805E+02 -0.44799265764E+02  0.53068442888E+02  0.47000000000E+01 0.  1.
          5    1    5    5  503    0 -0.64788086820E+02  0.47619817220E+02  0.47282527922E+02  0.93396309523E+02  0.47000000000E+01 0. -1.
         -5    1    5    5    0  503  0.10635976107E+02 -0.53681778114E+02  0.13557660282E+02  0.56575236999E+02  0.47000000000E+01 0. -1.
<mgrwt>
<rscale>  0 0.27493069E+03</rscale>
<asrwt>0</asrwt>
<pdfrwt beam="1">  1        1 0.29037984E-01 0.27493069E+03</pdfrwt>
<pdfrwt beam="2">  1       -1 0.15402573E-01 0.27493069E+03</pdfrwt>
<totfact> 0.48311792E+03</totfact>
</mgrwt>
</event>
<event>
 9    1  0.7926126E-001  0.2721607E+03  0.7818608E-02  0.1100049E+00
          1   -1    0    0  501    0  0.00000000000E+00  0.00000000000E+00  0.90473288676E+02  0.90473288676E+02  0.00000000000E+00 0.  1.
         -1   -1    0    0    0  501 -0.00000000000E+00 -0.00000000000E+00 -0.20467769360E+03  0.20467769360E+03  0.00000000000E+00 0.  1.
         35    2    1    2    0    0  0.00000000000E+00 -0.71054273576E-14 -0.11420440493E+03  0.29515098228E+03  0.27216071766E+03 0.  0.
         25    2    3    3    0    0  0.35893457488E+02  0.30509851330E+02 -0.29915010374E+02  0.13628794235E+03  0.12433947107E+03 0.  0.
         25    2    3    3    0    0 -0.35893457488E+02 -0.30509851330E+02 -0.84289394553E+02  0.15886303992E+03  0.12614900753E+03 0.  0.
          5    1    4    4  502    0  0.41273664348E+01 -0.17018763256E+02 -0.66050979427E+02  0.68494491309E+02  0.47000000000E+01 0. -1.
         -5    1    4    4    0  502  0.31766091053E+02  0.47528614586E+02  0.36135969053E+02  0.67793451046E+02  0.47000000000E+01 0. -1.
          5    1    5    5  503    0 -0.14659531701E+02  0.16800726558E+02  0.27397104933E+02  0.35635061966E+02  0.47000000000E+01 0. -1.
         -5    1    5    5    0  503 -0.21233925787E+02 -0.47310577888E+02 -0.11168649949E+03  0.12322797796E+03  0.47000000000E+01 0. -1.
<mgrwt>
<rscale>  0 0.27216072E+03</rscale>
<asrwt>0</asrwt>
<pdfrwt beam="1">  1        1 0.13918968E-01 0.27216072E+03</pdfrwt>
<pdfrwt beam="2">  1       -1 0.31488876E-01 0.27216072E+03</pdfrwt>
<totfact> 0.38457611E+03</totfact>
</mgrwt>
</event>
<event>
 9    1  0.7926126E-001  0.2741191E+03  0.7818608E-02  0.1098945E+00
          2   -1    0    0  501    0  0.00000000000E+00  0.00000000000E+00  0.16243793167E+03  0.16243793167E+03  0.00000000000E+00 0.  1.
         -2   -1    0    0    0  501 -0.00000000000E+00 -0.00000000000E+00 -0.11564612561E+03  0.11564612561E+03  0.00000000000E+00 0.  1.
         35    2    1    2    0    0  0.00000000000E+00  0.00000000000E+00  0.46791806052E+02  0.27808405728E+03  0.27411907960E+03 0.  0.
         25    2    3    3    0    0 -0.20296214994E+02  0.46378076454E+02  0.34131544000E+02  0.14315773056E+03  0.12948479140E+03 0.  0.
         25    2    3    3    0    0  0.20296214994E+02 -0.46378076454E+02  0.12660262051E+02  0.13492632672E+03  0.12442656102E+03 0.  0.
          5    1    4    4  502    0  0.44162702977E+02  0.20860283460E+02 -0.22057115147E+02  0.53796859471E+02  0.47000000000E+01 0. -1.
         -5    1    4    4    0  502 -0.64458917971E+02  0.25517792994E+02  0.56188659148E+02  0.89360871091E+02  0.47000000000E+01 0. -1.
          5    1    5    5  503    0 -0.20639903512E+02 -0.10539337235E+02  0.58836411348E+02  0.63410539713E+02  0.47000000000E+01 0.  1.
         -5    1    5    5    0  503  0.40936118506E+02 -0.35838739218E+02 -0.46176149296E+02  0.71515787005E+02  0.47000000000E+01 0.  1.
<mgrwt>
<rscale>  0 0.27411908E+03</rscale>
<asrwt>0</asrwt>
<pdfrwt beam="1">  1        2 0.24990451E-01 0.27411908E+03</pdfrwt>
<pdfrwt beam="2">  1       -2 0.17791712E-01 0.27411908E+03</pdfrwt>
<totfact> 0.54867325E+03</totfact>
</mgrwt>
</event>
<event>
 9    1  0.7926126E-001  0.2729397E+03  0.7818608E-02  0.1099609E+00
          2   -1    0    0  501    0  0.00000000000E+00  0.00000000000E+00  0.15481573266E+04  0.15481573266E+04  0.00000000000E+00 0.  1.
         -2   -1    0    0    0  501 -0.00000000000E+00 -0.00000000000E+00 -0.12029796135E+02  0.12029796135E+02  0.00000000000E+00 0.  1.
         35    2    1    2    0    0 -0.71054273576E-14  0.35527136788E-14  0.15361275304E+04  0.15601871227E+04  0.27293967849E+03 0.  0.
         25    2    3    3    0    0  0.22133345341E+02 -0.30604036449E+02  0.53601142719E+03  0.55159773341E+03  0.12460063161E+03 0.  0.
         25    2    3    3    0    0 -0.22133345341E+02  0.30604036449E+02  0.10001161032E+04  0.10085893893E+04  0.12487531467E+03 0.  0.
          5    1    4    4  502    0  0.17052482290E+02 -0.16974476922E+02  0.53574859009E+03  0.53630920354E+03  0.47000000000E+01 0.  1.
         -5    1    4    4    0  502  0.50808630510E+01 -0.13629559527E+02  0.26283710381E+00  0.15288529870E+02  0.47000000000E+01 0.  1.
          5    1    5    5  503    0  0.39885024360E+02  0.10119244301E+02  0.70859253870E+03  0.70980186684E+03  0.47000000000E+01 0.  1.
         -5    1    5    5    0  503 -0.62018369701E+02  0.20484792148E+02  0.29152356455E+03  0.29878752246E+03  0.47000000000E+01 0.  1.
<mgrwt>
<rscale>  0 0.27293968E+03</rscale>
<asrwt>0</asrwt>
<pdfrwt beam="1">  1        2 0.23817789E+00 0.27293968E+03</pdfrwt>
<pdfrwt beam="2">  1       -2 0.18507391E-02 0.27293968E+03</pdfrwt>
<totfact> 0.11141031E+04</totfact>
</mgrwt>
</event>
<event>
 9    1  0.7926126E-001  0.2713568E+03  0.7818608E-02  0.1100506E+00
         -2   -1    0    0    0  501 -0.00000000000E+00  0.00000000000E+00  0.17280269519E+02  0.17280269519E+02  0.00000000000E+00 0.  1.
          2   -1    0    0  501    0  0.00000000000E+00 -0.00000000000E+00 -0.10652976456E+04  0.10652976456E+04  0.00000000000E+00 0.  1.
         35    2    1    2    0    0 -0.71054273576E-14  0.35527136788E-14 -0.10480173761E+04  0.10825779151E+04  0.27135681627E+03 0.  0.
         25    2    3    3    0    0 -0.36017432191E+02 -0.21433302504E+01 -0.68048088673E+03  0.69274747827E+03  0.12467149700E+03 0.  0.
         25    2    3    3    0    0  0.36017432191E+02  0.21433302504E+01 -0.36753648938E+03  0.38983043687E+03  0.12483128294E+03 0.  0.
          5    1    4    4  502    0 -0.28254868235E+02  0.24803509083E+02 -0.64984967041E+03  0.65095332841E+03  0.47000000000E+01 0. -1.
         -5    1    4    4    0  502 -0.77625639558E+01 -0.26946839333E+02 -0.30631216321E+02  0.41794149860E+02  0.47000000000E+01 0. -1.
          5    1    5    5  503    0  0.46092188365E+02 -0.23254456577E+02 -0.35607760685E+03  0.35983136561E+03  0.47000000000E+01 0.  1.
         -5    1    5    5    0  503 -0.10074756174E+02  0.25397786827E+02 -0.11458882531E+02  0.29999071262E+02  0.47000000000E+01 0.  1.
<mgrwt>
<rscale>  0 0.27135682E+03</rscale>
<asrwt>0</asrwt>
<pdfrwt beam="1">  1        2 0.16389199E+00 0.27135682E+03</pdfrwt>
<pdfrwt beam="2">  1       -2 0.26585022E-02 0.27135682E+03</pdfrwt>
<totfact> 0.12120137E+04</totfact>
</mgrwt>
</event>
<event>
 9    1  0.7926126E-001  0.2756916E+03  0.7818608E-02  0.1098066E+00
         -1   -1    0    0    0  501 -0.00000000000E+00  0.00000000000E+00  0.99576225693E+02  0.99576225693E+02  0.00000000000E+00 0. -1.
          1   -1    0    0  501    0  0.00000000000E+00 -0.00000000000E+00 -0.19082327290E+03  0.19082327290E+03  0.00000000000E+00 0. -1.
         35    2    1    2    0    0 -0.26645352591E-14 -0.14210854715E-13 -0.91247047208E+02  0.29039949859E+03  0.27569157615E+03 0.  0.
         25    2    3    3    0    0 -0.39608418439E+01 -0.20525612416E+02 -0.10241277006E+03  0.16259380956E+03  0.12454470042E+03 0.  0.
         25    2    3    3    0    0  0.39608418439E+01  0.20525612416E+02  0.11165722856E+02  0.12780568903E+03  0.12558913866E+03 0.  0.
          5    1    4    4  502    0 -0.11215538292E+02 -0.70782185854E+02 -0.40742365912E+02  0.82570796978E+02  0.47000000000E+01 0.  1.
         -5    1    4    4    0  502  0.72546964484E+01  0.50256573438E+02 -0.61670404152E+02  0.80023012581E+02  0.47000000000E+01 0.  1.
          5    1    5    5  503    0  0.25052713157E+02 -0.47917249944E+02 -0.40903483553E+01  0.54429056839E+02  0.47000000000E+01 0. -1.
         -5    1    5    5    0  503 -0.21091871313E+02  0.68442862360E+02  0.15256071211E+02  0.73376632196E+02  0.47000000000E+01 0. -1.
<mgrwt>
<rscale>  0 0.27569158E+03</rscale>
<asrwt>0</asrwt>
<pdfrwt beam="1">  1        1 0.29357426E-01 0.27569158E+03</pdfrwt>
<pdfrwt beam="2">  1       -1 0.15319419E-01 0.27569158E+03</pdfrwt>
<totfact> 0.48064773E+03</totfact>
</mgrwt>
</event>
<event>
 9    1  0.7926126E-001  0.2738068E+03  0.7818608E-02  0.1099120E+00
         -2   -1    0    0    0  501 -0.00000000000E+00  0.00000000000E+00  0.16366407139E+02  0.16366407139E+02  0.00000000000E+00 0.  1.
          2   -1    0    0  501    0  0.00000000000E+00 -0.00000000000E+00 -0.11451834690E+04  0.11451834690E+04  0.00000000000E+00 0.  1.
         35    2    1    2    0    0  0.00000000000E+00  0.00000000000E+00 -0.11288170619E+04  0.11615498762E+04  0.27380678518E+03 0.  0.
         25    2    3    3    0    0  0.37131794331E+02 -0.18425444563E+02 -0.59452527667E+03  0.60903759995E+03  0.12549193754E+03 0.  0.
         25    2    3    3    0    0 -0.37131794331E+02  0.18425444563E+02 -0.53429178522E+03  0.55251227622E+03  0.13447615576E+03 0.  0.
          5    1    4    4  502    0  0.74632110996E+02 -0.12064107222E+02 -0.22243009592E+03  0.23497389694E+03  0.47000000000E+01 0.  1.
         -5    1    4    4    0  502 -0.37500316665E+02 -0.63613373412E+01 -0.37209518076E+03  0.37406370301E+03  0.47000000000E+01 0.  1.
          5    1    5    5  503    0 -0.94383545611E+01 -0.58117635743E+02 -0.21330556535E+03  0.22133254693E+03  0.47000000000E+01 0. -1.
         -5    1    5    5    0  503 -0.27693439770E+02  0.76543080306E+02 -0.32098621987E+03  0.33117972929E+03  0.47000000000E+01 0. -1.
<mgrwt>
<rscale>  0 0.27380679E+03</rscale>
<asrwt>0</asrwt>
<pdfrwt beam="1">  1        2 0.17618208E+00 0.27380679E+03</pdfrwt>
<pdfrwt beam="2">  1       -2 0.25179087E-02 0.27380679E+03</pdfrwt>
<totfact> 0.11796277E+04</totfact>
</mgrwt>
</event>
<event>
 9    1  0.7926126E-001  0.2742995E+03  0.7818608E-02  0.1098844E+00
         -1   -1    0    0    0  501 -0.00000000000E+00  0.00000000000E+00  0.49429714424E+02  0.49429714424E+02  0.00000000000E+00 0. -1.
          1   -1    0    0  501    0  0.00000000000E+00 -0.00000000000E+00 -0.38054136080E+03  0.38054136080E+03  0.00000000000E+00 0. -1.
         35    2    1    2    0    0 -0.71054273576E-14  0.71054273576E-14 -0.33111164638E+03  0.42997107522E+03  0.27429947715E+03 0.  0.
         25    2    3    3    0    0 -0.40829185559E+02  0.17238192817E+02 -0.11444156799E+03  0.17543557904E+03  0.12536583357E+03 0.  0.
         25    2    3    3    0    0  0.40829185559E+02 -0.17238192817E+02 -0.21667007839E+03  0.25453549618E+03  0.12600880232E+03 0.  0.
          5    1    4    4  502    0  0.37863138079E+02 -0.23374147450E+01 -0.77060175977E+02  0.86020006129E+02  0.47000000000E+01 0. -1.
         -5    1    4    4    0  502 -0.78692323638E+02  0.19575607562E+02 -0.37381392009E+02  0.89415572913E+02  0.47000000000E+01 0. -1.
          5    1    5    5  503    0  0.66835914809E+02  0.33069477022E+02 -0.14453359577E+03  0.16270427200E+03  0.47000000000E+01 0.  1.
         -5    1    5    5    0  503 -0.26006729250E+02 -0.50307669839E+02 -0.72136482616E+02  0.91831224184E+02  0.47000000000E+01 0.  1.
<mgrwt>
<rscale>  0 0.27429948E+03</rscale>
<asrwt>0</asrwt>
<pdfrwt beam="1">  1        1 0.58544825E-01 0.27429948E+03</pdfrwt>
<pdfrwt beam="2">  1       -1 0.76045714E-02 0.27429948E+03</pdfrwt>
<totfact> 0.59783721E+03</totfact>
</mgrwt>
</event>
<event>
 9    1  0.7926126E-001  0.2751282E+03  0.7818608E-02  0.1098380E+00
         -2   -1    0    0    0  501 -0.00000000000E+00  0.00000000000E+00  0.32354223960E+02  0.32354223960E+02  0.00000000000E+00 0. -1.
          2   -1    0    0  501    0  0.00000000000E+00 -0.00000000000E+00 -0.58489685722E+03  0.58489685722E+03  0.00000000000E+00 0. -1.
         35    2    1    2    0    0 -0.71054273576E-14  0.00000000000E+00 -0.55254263326E+03  0.61725108118E+03  0.27512821674E+03 0.  0.
         25    2    3    3    0    0  0.57077735239E+02  0.14124935565E+02 -0.33619057394E+03  0.36111375586E+03  0.11799008859E+03 0.  0.
         25    2    3    3    0    0 -0.57077735239E+02 -0.14124935565E+02 -0.21635205933E+03  0.25613732532E+03  0.12385771750E+03 0.  0.
          5    1    4    4  502    0  0.56401700157E+02 -0.77897753712E+01 -0.55906263950E+02  0.79933927277E+02  0.47000000000E+01 0. -1.
         -5    1    4    4    0  502  0.67603508160E+00  0.21914710936E+02 -0.28028430999E+03  0.28117982859E+03  0.47000000000E+01 0. -1.
          5    1    5    5  503    0 -0.53730106189E+02 -0.55413558854E+02 -0.71192509965E+02  0.10510970598E+03  0.47000000000E+01 0. -1.
         -5    1    5    5    0  503 -0.33476290505E+01  0.41288623289E+02 -0.14515954936E+03  0.15102761934E+03  0.47000000000E+01 0. -1.
<mgrwt>
<rscale>  0 0.27512822E+03</rscale>
<asrwt>0</asrwt>
<pdfrwt beam="1">  1        2 0.89984123E-01 0.27512822E+03</pdfrwt>
<pdfrwt beam="2">  1       -2 0.49775734E-02 0.27512822E+03</pdfrwt>
<totfact> 0.10199149E+04</totfact>
</mgrwt>
</event>
<event>
 9    1  0.7926126E-001  0.2666635E+03  0.7818608E-02  0.1103204E+00
          2   -1    0    0  501    0  0.00000000000E+00  0.00000000000E+00  0.25734931918E+03  0.25734931918E+03  0.00000000000E+00 0.  1.
         -2   -1    0    0    0  501 -0.00000000000E+00 -0.00000000000E+00 -0.69078694847E+02  0.69078694847E+02  0.00000000000E+00 0.  1.
         35    2    1    2    0    0  0.00000000000E+00  0.00000000000E+00  0.18827062433E+03  0.32642801402E+03  0.26666349648E+03 0.  0.
         25    2    3    3    0    0 -0.15820769405E+02  0.30639607489E+02  0.10441356981E+03  0.17182392041E+03  0.13203099550E+03 0.  0.
         25    2    3    3    0    0  0.15820769405E+02 -0.30639607489E+02  0.83857054516E+02  0.15460409361E+03  0.12522514875E+03 0.  0.
          5    1    4    4  502    0 -0.59879592298E+02  0.22976927648E+02  0.71950565903E+01  0.64709841735E+02  0.47000000000E+01 0.  1.
         -5    1    4    4    0  502  0.44058822894E+02  0.76626798406E+01  0.97218513223E+02  0.10711407867E+03  0.47000000000E+01 0.  1.
          5    1    5    5  503    0  0.13736496187E+02 -0.55029084364E+02  0.10661357128E+03  0.12085294797E+03  0.47000000000E+01 0.  1.
         -5    1    5    5    0  503  0.20842732173E+01  0.24389476875E+02 -0.22756516760E+02  0.33751145642E+02  0.47000000000E+01 0.  1.
<mgrwt>
<rscale>  0 0.26666350E+03</rscale>
<asrwt>0</asrwt>
<pdfrwt beam="1">  1        2 0.39592203E-01 0.26666350E+03</pdfrwt>
<pdfrwt beam="2">  1       -2 0.10627492E-01 0.26666350E+03</pdfrwt>
<totfact> 0.77015791E+03</totfact>
</mgrwt>
</event>
<event>
 9    1  0.7926126E-001  0.2754493E+03  0.7818608E-02  0.1098201E+00
          1   -1    0    0  501    0  0.00000000000E+00  0.00000000000E+00  0.19630065682E+02  0.19630065682E+02  0.00000000000E+00 0. -1.
         -1   -1    0    0    0  501 -0.00000000000E+00 -0.00000000000E+00 -0.96627707989E+03  0.96627707989E+03  0.00000000000E+00 0. -1.
         35    2    1    2    0    0  0.71054273576E-14  0.71054273576E-14 -0.94664701421E+03  0.98590714557E+03  0.27544932416E+03 0.  0.
         25    2    3    3    0    0  0.25523972263E+02  0.22413472978E+02 -0.64237183389E+03  0.65530720395E+03  0.12502848335E+03 0.  0.
         25    2    3    3    0    0 -0.25523972263E+02 -0.22413472978E+02 -0.30427518032E+03  0.33059994162E+03  0.12473611790E+03 0.  0.
          5    1    4    4  502    0  0.47688254193E+02  0.40834983209E+02 -0.15837143153E+03  0.17042671671E+03  0.47000000000E+01 0. -1.
         -5    1    4    4    0  502 -0.22164281930E+02 -0.18421510230E+02 -0.48400040235E+03  0.48488048724E+03  0.47000000000E+01 0. -1.
          5    1    5    5  503    0 -0.25941222520E+02  0.41594866183E+02 -0.57940290127E+02  0.76041088489E+02  0.47000000000E+01 0. -1.
         -5    1    5    5    0  503  0.41725025689E+00 -0.64008339161E+02 -0.24633489019E+03  0.25455885313E+03  0.47000000000E+01 0. -1.
<mgrwt>
<rscale>  0 0.27544932E+03</rscale>
<asrwt>0</asrwt>
<pdfrwt beam="1">  1        1 0.30200100E-02 0.27544932E+03</pdfrwt>
<pdfrwt beam="2">  1       -1 0.14865802E+00 0.27544932E+03</pdfrwt>
<totfact> 0.13067011E+03</totfact>
</mgrwt>
</event>
<event>
 9    1  0.7926126E-001  0.2757757E+03  0.7818608E-02  0.1098019E+00
          2   -1    0    0  501    0  0.00000000000E+00  0.00000000000E+00  0.16552550353E+04  0.16552550353E+04  0.00000000000E+00 0. -1.
         -2   -1    0    0    0  501 -0.00000000000E+00 -0.00000000000E+00 -0.11486479496E+02  0.11486479496E+02  0.00000000000E+00 0. -1.
         35    2    1    2    0    0  0.71054273576E-14  0.00000000000E+00  0.16437685558E+04  0.16667415148E+04  0.27577565537E+03 0.  0.
         25    2    3    3    0    0  0.38461292992E+02  0.27074389905E+02  0.61119279255E+03  0.62558709079E+03  0.12486106220E+03 0.  0.
         25    2    3    3    0    0 -0.38461292992E+02 -0.27074389905E+02  0.10325757632E+04  0.10411544240E+04  0.12480999205E+03 0.  0.
          5    1    4    4  502    0  0.56624013632E+02  0.66358921621E+02  0.46134458000E+03  0.46954307246E+03  0.47000000000E+01 0.  1.
         -5    1    4    4    0  502 -0.18162720640E+02 -0.39284531716E+02  0.14984821254E+03  0.15604401833E+03  0.47000000000E+01 0.  1.
          5    1    5    5  503    0 -0.13154301590E+02 -0.62023092514E+02  0.88623432010E+03  0.88851182309E+03  0.47000000000E+01 0. -1.
         -5    1    5    5    0  503 -0.25306991402E+02  0.34948702609E+02  0.14634144313E+03  0.15264260089E+03  0.47000000000E+01 0. -1.
<mgrwt>
<rscale>  0 0.27577566E+03</rscale>
<asrwt>0</asrwt>
<pdfrwt beam="1">  1        2 0.25465443E+00 0.27577566E+03</pdfrwt>
<pdfrwt beam="2">  1       -2 0.17671520E-02 0.27577566E+03</pdfrwt>
<totfact> 0.10464489E+04</totfact>
</mgrwt>
</event>
<event>
 9    1  0.7926126E-001  0.2771483E+03  0.7818608E-02  0.1097257E+00
          1   -1    0    0  501    0  0.00000000000E+00  0.00000000000E+00  0.60023450365E+03  0.60023450365E+03  0.00000000000E+00 0. -1.
         -1   -1    0    0    0  501 -0.00000000000E+00 -0.00000000000E+00 -0.31992165916E+02  0.31992165916E+02  0.00000000000E+00 0. -1.
         35    2    1    2    0    0  0.00000000000E+00  0.00000000000E+00  0.56824233774E+03  0.63222666957E+03  0.27714834894E+03 0.  0.
         25    2    3    3    0    0  0.38133919914E+01  0.19203249281E+02  0.15059614636E+03  0.19691581653E+03  0.12535283307E+03 0.  0.
         25    2    3    3    0    0 -0.38133919914E+01 -0.19203249281E+02  0.41764619137E+03  0.43531085304E+03  0.12117710536E+03 0.  0.
          5    1    4    4  502    0  0.53381868253E+02 -0.57623985035E+01  0.12397035956E+03  0.13517976603E+03  0.47000000000E+01 0. -1.
         -5    1    4    4    0  502 -0.49568476262E+02  0.24965647785E+02  0.26625786802E+02  0.61736050498E+02  0.47000000000E+01 0. -1.
          5    1    5    5  503    0  0.39376413495E+02 -0.47567394500E+01  0.35748776027E+03  0.35971199209E+03  0.47000000000E+01 0. -1.
         -5    1    5    5    0  503 -0.43189805486E+02 -0.14446509831E+02  0.60158431104E+02  0.75598860951E+02  0.47000000000E+01 0. -1.
<mgrwt>
<rscale>  0 0.27714835E+03</rscale>
<asrwt>0</asrwt>
<pdfrwt beam="1">  1        1 0.92343762E-01 0.27714835E+03</pdfrwt>
<pdfrwt beam="2">  1       -1 0.49218721E-02 0.27714835E+03</pdfrwt>
<totfact> 0.63138189E+03</totfact>
</mgrwt>
</event>
<event>
 9    1  0.7926126E-001  0.2699807E+03  0.7818608E-02  0.1101291E+00
          2   -1    0    0  501    0  0.00000000000E+00  0.00000000000E+00  0.75838937942E+03  0.75838937942E+03  0.00000000000E+00 0.  1.
         -2   -1    0    0    0  501 -0.00000000000E+00 -0.00000000000E+00 -0.24027749662E+02  0.24027749662E+02  0.00000000000E+00 0.  1.
         35    2    1    2    0    0 -0.17763568394E-14 -0.35527136788E-14  0.73436162976E+03  0.78241712908E+03  0.26998066712E+03 0.  0.
         25    2    3    3    0    0  0.71216727745E+01 -0.26735524623E+02  0.48573415594E+03  0.50311045155E+03  0.12812864519E+03 0.  0.
         25    2    3    3    0    0 -0.71216727745E+01  0.26735524623E+02  0.24862747382E+03  0.27930667753E+03  0.12422195005E+03 0.  0.
          5    1    4    4  502    0  0.65830786455E+01 -0.78431031715E+02  0.30993047448E+03  0.31980267772E+03  0.47000000000E+01 0.  1.
         -5    1    4    4    0  502  0.53859412893E+00  0.51695507092E+02  0.17580368145E+03  0.18330777384E+03  0.47000000000E+01 0.  1.
          5    1    5    5  503    0 -0.62761159422E+02  0.31889497890E+02  0.12453374791E+03  0.14313157435E+03  0.47000000000E+01 0.  1.
         -5    1    5    5    0  503  0.55639486648E+02 -0.51539732671E+01  0.12409372591E+03  0.13617510318E+03  0.47000000000E+01 0.  1.
<mgrwt>
<rscale>  0 0.26998067E+03</rscale>
<asrwt>0</asrwt>
<pdfrwt beam="1">  1        2 0.11667527E+00 0.26998067E+03</pdfrwt>
<pdfrwt beam="2">  1       -2 0.36965774E-02 0.26998067E+03</pdfrwt>
<totfact> 0.11700885E+04</totfact>
</mgrwt>
</event>
<event>
 9    1  0.7926126E-001  0.3009273E+03  0.7818608E-02  0.1084778E+00
         -1   -1    0    0    0  501 -0.00000000000E+00  0.00000000000E+00  0.16885900839E+03  0.16885900839E+03  0.00000000000E+00 0.  1.
          1   -1    0    0  501    0  0.00000000000E+00 -0.00000000000E+00 -0.13407228995E+03  0.13407228995E+03  0.00000000000E+00 0.  1.
         35    2    1    2    0    0 -0.35527136788E-14  0.35527136788E-14  0.34786718435E+02  0.30293129834E+03  0.30092732633E+03 0.  0.
         25    2    3    3    0    0  0.81213979239E+01  0.86245292314E+01 -0.65625117883E+02  0.14156647098E+03  0.12487621871E+03 0.  0.
         25    2    3    3    0    0 -0.81213979239E+01 -0.86245292314E+01  0.10041183632E+03  0.16136482736E+03  0.12576061000E+03 0.  0.
          5    1    4    4  502    0  0.37011708101E+02  0.53516582445E+02 -0.58271101615E+02  0.87472866745E+02  0.47000000000E+01 0.  1.
         -5    1    4    4    0  502 -0.28890310177E+02 -0.44892053214E+02 -0.73540162683E+01  0.54093604236E+02  0.47000000000E+01 0.  1.
          5    1    5    5  503    0  0.31273276047E+02 -0.35999949958E+02 -0.22286093610E+01  0.47969478748E+02  0.47000000000E+01 0. -1.
         -5    1    5    5    0  503 -0.39394673971E+02  0.27375420726E+02  0.10264044568E+03  0.11339534861E+03  0.47000000000E+01 0. -1.
<mgrwt>
<rscale>  0 0.30092733E+03</rscale>
<asrwt>0</asrwt>
<pdfrwt beam="1">  1        1 0.20626506E-01 0.30092733E+03</pdfrwt>
<pdfrwt beam="2">  1       -1 0.25978309E-01 0.30092733E+03</pdfrwt>
<totfact> 0.31974058E+03</totfact>
</mgrwt>
</event>
<event>
 9    1  0.7926126E-001  0.2752400E+03  0.7818608E-02  0.1098318E+00
         -2   -1    0    0    0  501 -0.00000000000E+00  0.00000000000E+00  0.22463669622E+02  0.22463669622E+02  0.00000000000E+00 0. -1.
          2   -1    0    0  501    0  0.00000000000E+00 -0.00000000000E+00 -0.84310656619E+03  0.84310656619E+03  0.00000000000E+00 0. -1.
         35    2    1    2    0    0  0.35527136788E-14  0.71054273576E-14 -0.82064289657E+03  0.86557023581E+03  0.27524002150E+03 0.  0.
         25    2    3    3    0    0 -0.17191603221E+02 -0.28431422807E+02 -0.26153206862E+03  0.29164759939E+03  0.12472129847E+03 0.  0.
         25    2    3    3    0    0  0.17191603221E+02  0.28431422807E+02 -0.55911082795E+03  0.57392263642E+03  0.12521332852E+03 0.  0.
          5    1    4    4  502    0 -0.34377593137E+02 -0.72543146827E+02 -0.14552939760E+03  0.16626852567E+03  0.47000000000E+01 0.  1.
         -5    1    4    4    0  502  0.17185989917E+02  0.44111724019E+02 -0.11600267102E+03  0.12537907373E+03  0.47000000000E+01 0.  1.
          5    1    5    5  503    0  0.45993069210E+02  0.66070269435E+02 -0.31117670220E+03  0.32145555356E+03  0.47000000000E+01 0.  1.
         -5    1    5    5    0  503 -0.28801465990E+02 -0.37638846628E+02 -0.24793412575E+03  0.25246708286E+03  0.47000000000E+01 0.  1.
<mgrwt>
<rscale>  0 0.27524002E+03</rscale>
<asrwt>0</asrwt>
<pdfrwt beam="1">  1        2 0.12970870E+00 0.27524002E+03</pdfrwt>
<pdfrwt beam="2">  1       -2 0.34559493E-02 0.27524002E+03</pdfrwt>
<totfact> 0.11317613E+04</totfact>
</mgrwt>
</event>
<event>
 9    1  0.7926126E-001  0.2802025E+03  0.7818608E-02  0.1095578E+00
          1   -1    0    0  501    0  0.00000000000E+00  0.00000000000E+00  0.16631840091E+04  0.16631840091E+04  0.00000000000E+00 0.  1.
         -1   -1    0    0    0  501 -0.00000000000E+00 -0.00000000000E+00 -0.11801680637E+02  0.11801680637E+02  0.00000000000E+00 0.  1.
         35    2    1    2    0    0  0.71054273576E-14  0.00000000000E+00  0.16513823285E+04  0.16749856897E+04  0.28020254472E+03 0.  0.
         25    2    3    3    0    0  0.29702930193E+02 -0.20468529652E+02  0.51397618338E+03  0.52989307398E+03  0.12374945656E+03 0.  0.
         25    2    3    3    0    0 -0.29702930193E+02  0.20468529652E+02  0.11374061451E+04  0.11450926158E+04  0.12744855837E+03 0.  0.
          5    1    4    4  502    0 -0.40668298567E+00 -0.70313539310E+02  0.27856635079E+03  0.28734206269E+03  0.47000000000E+01 0.  1.
         -5    1    4    4    0  502  0.30109613178E+02  0.49845009658E+02  0.23540983259E+03  0.24255101128E+03  0.47000000000E+01 0.  1.
          5    1    5    5  503    0  0.38433743567E+02  0.42399183831E+02  0.63509622392E+03  0.63768655864E+03  0.47000000000E+01 0. -1.
         -5    1    5    5    0  503 -0.68136673760E+02 -0.21930654179E+02  0.50230992118E+03  0.50740605714E+03  0.47000000000E+01 0. -1.
<mgrwt>
<rscale>  0 0.28020254E+03</rscale>
<asrwt>0</asrwt>
<pdfrwt beam="1">  1        1 0.25587428E+00 0.28020254E+03</pdfrwt>
<pdfrwt beam="2">  1       -1 0.18156445E-02 0.28020254E+03</pdfrwt>
<totfact> 0.44144114E+03</totfact>
</mgrwt>
</event>
<event>
 9    1  0.7926126E-001  0.3324180E+03  0.7818608E-02  0.1070072E+00
          4   -1    0    0  501    0  0.00000000000E+00  0.00000000000E+00  0.81387544962E+02  0.81387544962E+02  0.00000000000E+00 0. -1.
         -4   -1    0    0    0  501 -0.00000000000E+00 -0.00000000000E+00 -0.33943067060E+03  0.33943067060E+03  0.00000000000E+00 0. -1.
         35    2    1    2    0    0  0.00000000000E+00 -0.14210854715E-13 -0.25804312564E+03  0.42081821556E+03  0.33241798366E+03 0.  0.
         25    2    3    3    0    0  0.84460085450E+02  0.61125842888E+02 -0.17113998181E+03  0.23604744182E+03  0.12473823277E+03 0.  0.
         25    2    3    3    0    0 -0.84460085450E+02 -0.61125842888E+02 -0.86903143830E+02  0.18477077374E+03  0.12537227651E+03 0.  0.
          5    1    4    4  502    0  0.40791111006E+02  0.94896837574E+02 -0.13438635951E+03  0.16956151727E+03  0.47000000000E+01 0. -1.
         -5    1    4    4    0  502  0.43668974443E+02 -0.33770994686E+02 -0.36753622300E+02  0.66485924549E+02  0.47000000000E+01 0. -1.
          5    1    5    5  503    0 -0.54145312472E+02 -0.98431101377E+02 -0.74580582421E+02  0.13492497862E+03  0.47000000000E+01 0.  1.
         -5    1    5    5    0  503 -0.30314772978E+02  0.37305258488E+02 -0.12322561409E+02  0.49845795121E+02  0.47000000000E+01 0.  1.
<mgrwt>
<rscale>  0 0.33241798E+03</rscale>
<asrwt>0</asrwt>
<pdfrwt beam="1">  1        4 0.12521160E-01 0.33241798E+03</pdfrwt>
<pdfrwt beam="2">  1       -4 0.52220104E-01 0.33241798E+03</pdfrwt>
<totfact> 0.35052073E+02</totfact>
</mgrwt>
</event>
<event>
 9    1  0.7926126E-001  0.2719464E+03  0.7818608E-02  0.1100171E+00
         -1   -1    0    0    0  501 -0.00000000000E+00  0.00000000000E+00  0.50147328548E+02  0.50147328548E+02  0.00000000000E+00 0.  1.
          1   -1    0    0  501    0  0.00000000000E+00 -0.00000000000E+00 -0.36868794991E+03  0.36868794991E+03  0.00000000000E+00 0.  1.
         35    2    1    2    0    0  0.00000000000E+00  0.00000000000E+00 -0.31854062137E+03  0.41883527846E+03  0.27194643411E+03 0.  0.
         25    2    3    3    0    0  0.42819477128E+02  0.11670496629E+02 -0.10146511258E+03  0.16440231330E+03  0.12150408814E+03 0.  0.
         25    2    3    3    0    0 -0.42819477128E+02 -0.11670496629E+02 -0.21707550878E+03  0.25443296516E+03  0.12507857184E+03 0.  0.
          5    1    4    4  502    0 -0.32945514261E+01 -0.37522692617E+02 -0.87506433267E+02  0.95384864594E+02  0.47000000000E+01 0. -1.
         -5    1    4    4    0  502  0.46114028554E+02  0.49193189247E+02 -0.13958679314E+02  0.69017448706E+02  0.47000000000E+01 0. -1.
          5    1    5    5  503    0 -0.73130171830E+02 -0.92374724460E+01 -0.62294448075E+02  0.96623191781E+02  0.47000000000E+01 0.  1.
         -5    1    5    5    0  503  0.30310694702E+02 -0.24330241831E+01 -0.15478106071E+03  0.15780977338E+03  0.47000000000E+01 0.  1.
<mgrwt>
<rscale>  0 0.27194643E+03</rscale>
<asrwt>0</asrwt>
<pdfrwt beam="1">  1        1 0.56721227E-01 0.27194643E+03</pdfrwt>
<pdfrwt beam="2">  1       -1 0.77149732E-02 0.27194643E+03</pdfrwt>
<totfact> 0.60874003E+03</totfact>
</mgrwt>
</event>
<event>
 9    1  0.7926126E-001  0.2778763E+03  0.7818608E-02  0.1096855E+00
          1   -1    0    0  501    0  0.00000000000E+00  0.00000000000E+00  0.12288020153E+03  0.12288020153E+03  0.00000000000E+00 0. -1.
         -1   -1    0    0    0  501 -0.00000000000E+00 -0.00000000000E+00 -0.15709458425E+03  0.15709458425E+03  0.00000000000E+00 0. -1.
         35    2    1    2    0    0  0.10658141036E-13  0.00000000000E+00 -0.34214382721E+02  0.27997478578E+03  0.27787633345E+03 0.  0.
         25    2    3    3    0    0 -0.27031377257E+02 -0.24350611823E+01 -0.67052366946E+02  0.14478933744E+03  0.12542450895E+03 0.  0.
         25    2    3    3    0    0  0.27031377257E+02  0.24350611823E+01  0.32837984225E+02  0.13518544834E+03  0.12829710580E+03 0.  0.
          5    1    4    4  502    0 -0.97769080670E+01  0.61205074338E+02 -0.30220745837E+02  0.69116080148E+02  0.47000000000E+01 0.  1.
         -5    1    4    4    0  502 -0.17254469190E+02 -0.63640135520E+02 -0.36831621109E+02  0.75673257295E+02  0.47000000000E+01 0.  1.
          5    1    5    5  503    0 -0.27086486502E+02  0.47557659455E+02 -0.48403199702E+01  0.55144604643E+02  0.47000000000E+01 0.  1.
         -5    1    5    5    0  503  0.54117863759E+02 -0.45122598272E+02  0.37678304195E+02  0.80040843697E+02  0.47000000000E+01 0.  1.
<mgrwt>
<rscale>  0 0.27787633E+03</rscale>
<asrwt>0</asrwt>
<pdfrwt beam="1">  1        1 0.18904646E-01 0.27787633E+03</pdfrwt>
<pdfrwt beam="2">  1       -1 0.24168398E-01 0.27787633E+03</pdfrwt>
<totfact> 0.40279573E+03</totfact>
</mgrwt>
</event>
<event>
 9    1  0.7926126E-001  0.2817790E+03  0.7818608E-02  0.1094721E+00
         -1   -1    0    0    0  501 -0.00000000000E+00  0.00000000000E+00  0.87807221789E+02  0.87807221789E+02  0.00000000000E+00 0. -1.
          1   -1    0    0  501    0  0.00000000000E+00 -0.00000000000E+00 -0.22606168127E+03  0.22606168127E+03  0.00000000000E+00 0. -1.
         35    2    1    2    0    0  0.00000000000E+00 -0.17763568394E-14 -0.13825445948E+03  0.31386890306E+03  0.28177897853E+03 0.  0.
         25    2    3    3    0    0 -0.58836835541E+02  0.62482436568E+01 -0.96954375156E+02  0.16957199950E+03  0.12591147043E+03 0.  0.
         25    2    3    3    0    0  0.58836835541E+02 -0.62482436568E+01 -0.41300084327E+02  0.14429690356E+03  0.12496033630E+03 0.  0.
          5    1    4    4  502    0  0.38038097889E+02  0.18588153830E+01 -0.46070542155E+02  0.59957792989E+02  0.47000000000E+01 0. -1.
         -5    1    4    4    0  502 -0.96874933430E+02  0.43894282738E+01 -0.50883833001E+02  0.10961420651E+03  0.47000000000E+01 0. -1.
          5    1    5    5  503    0  0.92431470311E+02 -0.22119842341E+02 -0.47470100220E+02  0.10634079435E+03  0.47000000000E+01 0. -1.
         -5    1    5    5    0  503 -0.33594634770E+02  0.15871598684E+02  0.61700158936E+01  0.37956109208E+02  0.47000000000E+01 0. -1.
<mgrwt>
<rscale>  0 0.28177898E+03</rscale>
<asrwt>0</asrwt>
<pdfrwt beam="1">  1        1 0.34778720E-01 0.28177898E+03</pdfrwt>
<pdfrwt beam="2">  1       -1 0.13508803E-01 0.28177898E+03</pdfrwt>
<totfact> 0.47406138E+03</totfact>
</mgrwt>
</event>
<event>
 9    1  0.7926126E-001  0.2932011E+03  0.7818608E-02  0.1088690E+00
         -1   -1    0    0    0  501 -0.00000000000E+00  0.00000000000E+00  0.23912107023E+03  0.23912107023E+03  0.00000000000E+00 0. -1.
          1   -1    0    0  501    0  0.00000000000E+00 -0.00000000000E+00 -0.89878008992E+02  0.89878008992E+02  0.00000000000E+00 0. -1.
         35    2    1    2    0    0  0.00000000000E+00  0.00000000000E+00  0.14924306124E+03  0.32899907923E+03  0.29320113029E+03 0.  0.
         25    2    3    3    0    0  0.33738671533E+02  0.74401456152E+02  0.76854896113E+02  0.16611748222E+03  0.12253353912E+03 0.  0.
         25    2    3    3    0    0 -0.33738671533E+02 -0.74401456152E+02  0.72388165127E+02  0.16288159700E+03  0.12089869130E+03 0.  0.
          5    1    4    4  502    0  0.63736745896E+02  0.33320146218E+01  0.58450949265E+02  0.86672247974E+02  0.47000000000E+01 0.  1.
         -5    1    4    4    0  502 -0.29998074363E+02  0.71069441530E+02  0.18403946848E+02  0.79445234247E+02  0.47000000000E+01 0.  1.
          5    1    5    5  503    0 -0.11874794590E+02 -0.44195438113E+02 -0.29251410445E+02  0.54515892266E+02  0.47000000000E+01 0. -1.
         -5    1    5    5    0  503 -0.21863876943E+02 -0.30206018039E+02  0.10163957557E+03  0.10836570474E+03  0.47000000000E+01 0. -1.
<mgrwt>
<rscale>  0 0.29320113E+03</rscale>
<asrwt>0</asrwt>
<pdfrwt beam="1">  1        1 0.13827386E-01 0.29320113E+03</pdfrwt>
<pdfrwt beam="2">  1       -1 0.36787857E-01 0.29320113E+03</pdfrwt>
<totfact> 0.29688106E+03</totfact>
</mgrwt>
</event>
<event>
 9    1  0.7926126E-001  0.2768778E+03  0.7818608E-02  0.1097407E+00
         -2   -1    0    0    0  501 -0.00000000000E+00  0.00000000000E+00  0.10597693576E+02  0.10597693576E+02  0.00000000000E+00 0. -1.
          2   -1    0    0  501    0  0.00000000000E+00 -0.00000000000E+00 -0.18084434016E+04  0.18084434016E+04  0.00000000000E+00 0. -1.
         35    2    1    2    0    0 -0.35527136788E-14  0.00000000000E+00 -0.17978457080E+04  0.18190410951E+04  0.27687779990E+03 0.  0.
         25    2    3    3    0    0 -0.24334619042E+02  0.44294116796E+02 -0.72099777833E+03  0.73376659290E+03  0.12657596152E+03 0.  0.
         25    2    3    3    0    0  0.24334619042E+02 -0.44294116796E+02 -0.10768479297E+04  0.10852745022E+04  0.12516045356E+03 0.  0.
          5    1    4    4  502    0 -0.40805290731E+02  0.91997842131E+01 -0.70588004052E+02  0.82185546766E+02  0.47000000000E+01 0.  1.
         -5    1    4    4    0  502  0.16470671689E+02  0.35094332583E+02 -0.65040977428E+03  0.65158104613E+03  0.47000000000E+01 0.  1.
          5    1    5    5  503    0  0.43962355040E+02  0.30998027139E+02 -0.33247335413E+03  0.33682961205E+03  0.47000000000E+01 0. -1.
         -5    1    5    5    0  503 -0.19627735998E+02 -0.75292143935E+02 -0.74437457553E+03  0.74844489019E+03  0.47000000000E+01 0. -1.
<mgrwt>
<rscale>  0 0.27687780E+03</rscale>
<asrwt>0</asrwt>
<pdfrwt beam="1">  1        2 0.27822184E+00 0.27687780E+03</pdfrwt>
<pdfrwt beam="2">  1       -2 0.16304157E-02 0.27687780E+03</pdfrwt>
<totfact> 0.97818279E+03</totfact>
</mgrwt>
</event>
<event>
 9    1  0.7926126E-001  0.2748469E+03  0.7818608E-02  0.1098537E+00
         -3   -1    0    0    0  501 -0.00000000000E+00  0.00000000000E+00  0.40087805821E+02  0.40087805821E+02  0.00000000000E+00 0. -1.
          3   -1    0    0  501    0  0.00000000000E+00 -0.00000000000E+00 -0.47109610656E+03  0.47109610656E+03  0.00000000000E+00 0. -1.
         35    2    1    2    0    0  0.00000000000E+00  0.00000000000E+00 -0.43100830074E+03  0.51118391238E+03  0.27484693371E+03 0.  0.
         25    2    3    3    0    0  0.42077511218E+02  0.28899820719E+02 -0.30321823583E+03  0.33188325062E+03  0.12489786594E+03 0.  0.
         25    2    3    3    0    0 -0.42077511218E+02 -0.28899820719E+02 -0.12779006491E+03  0.17930066176E+03  0.11494655293E+03 0.  0.
          5    1    4    4  502    0  0.79359606001E+02  0.30219528054E+02 -0.13532780045E+03  0.15983388412E+03  0.47000000000E+01 0.  1.
         -5    1    4    4    0  502 -0.37282094783E+02 -0.13197073347E+01 -0.16789043539E+03  0.17204936650E+03  0.47000000000E+01 0.  1.
          5    1    5    5  503    0 -0.57854971543E+01 -0.69146325559E+01  0.21630559228E+02  0.23900945864E+02  0.47000000000E+01 0.  1.
         -5    1    5    5    0  503 -0.36292014063E+02 -0.21985188163E+02 -0.14942062414E+03  0.15539971590E+03  0.47000000000E+01 0.  1.
<mgrwt>
<rscale>  0 0.27484693E+03</rscale>
<asrwt>0</asrwt>
<pdfrwt beam="1">  1        3 0.72476322E-01 0.27484693E+03</pdfrwt>
<pdfrwt beam="2">  1       -3 0.61673549E-02 0.27484693E+03</pdfrwt>
<totfact> 0.76493933E+02</totfact>
</mgrwt>
</event>
<event>
 9    1  0.7926126E-001  0.2771223E+03  0.7818608E-02  0.1097271E+00
          1   -1    0    0  501    0  0.00000000000E+00  0.00000000000E+00  0.12053118161E+04  0.12053118161E+04  0.00000000000E+00 0.  1.
         -1   -1    0    0    0  501 -0.00000000000E+00 -0.00000000000E+00 -0.15928815741E+02  0.15928815741E+02  0.00000000000E+00 0.  1.
         35    2    1    2    0    0  0.00000000000E+00  0.00000000000E+00  0.11893830004E+04  0.12212406319E+04  0.27712228225E+03 0.  0.
         25    2    3    3    0    0 -0.37692711275E+02  0.39918344896E+02  0.52742049053E+03  0.54529680047E+03  0.12712990219E+03 0.  0.
         25    2    3    3    0    0  0.37692711275E+02 -0.39918344896E+02  0.66196250985E+03  0.67594383140E+03  0.12526565374E+03 0.  0.
          5    1    4    4  502    0 -0.84896707157E+02  0.24771222144E+02  0.32658878027E+03  0.33838348915E+03  0.47000000000E+01 0.  1.
         -5    1    4    4    0  502  0.47203995882E+02  0.15147122751E+02  0.20083171026E+03  0.20691331132E+03  0.47000000000E+01 0.  1.
          5    1    5    5  503    0  0.66796155060E+02 -0.44323769924E+02  0.24304858554E+03  0.25597075584E+03  0.47000000000E+01 0. -1.
         -5    1    5    5    0  503 -0.29103443785E+02  0.44054250286E+01  0.41891392431E+03  0.41997307556E+03  0.47000000000E+01 0. -1.
<mgrwt>
<rscale>  0 0.27712228E+03</rscale>
<asrwt>0</asrwt>
<pdfrwt beam="1">  1        1 0.18543252E+00 0.27712228E+03</pdfrwt>
<pdfrwt beam="2">  1       -1 0.24505880E-02 0.27712228E+03</pdfrwt>
<totfact> 0.57740371E+03</totfact>
</mgrwt>
</event>
<event>
 9    1  0.7926126E-001  0.2679199E+03  0.7818608E-02  0.1102476E+00
         -3   -1    0    0    0  501 -0.00000000000E+00  0.00000000000E+00  0.32611817307E+02  0.32611817307E+02  0.00000000000E+00 0.  1.
          3   -1    0    0  501    0  0.00000000000E+00 -0.00000000000E+00 -0.55026885729E+03  0.55026885729E+03  0.00000000000E+00 0.  1.
         35    2    1    2    0    0 -0.71054273576E-14 -0.17763568394E-14 -0.51765703998E+03  0.58288067460E+03  0.26791989432E+03 0.  0.
         25    2    3    3    0    0 -0.40350734124E+02 -0.13810202606E+02 -0.32728993934E+03  0.35312987107E+03  0.12555117686E+03 0.  0.
         25    2    3    3    0    0  0.40350734124E+02  0.13810202606E+02 -0.19036710064E+03  0.22975080352E+03  0.12135442008E+03 0.  0.
          5    1    4    4  502    0 -0.81360350950E+02 -0.22315300341E+02 -0.26314746518E+03  0.27638045836E+03  0.47000000000E+01 0. -1.
         -5    1    4    4    0  502  0.41009616826E+02  0.85050977349E+01 -0.64142474161E+02  0.76749412709E+02  0.47000000000E+01 0. -1.
          5    1    5    5  503    0  0.81033200305E+02  0.85300019561E+00 -0.15124271611E+03  0.17164951598E+03  0.47000000000E+01 0.  1.
         -5    1    5    5    0  503 -0.40682466180E+02  0.12957202411E+02 -0.39124384537E+02  0.58101287544E+02  0.47000000000E+01 0.  1.
<mgrwt>
<rscale>  0 0.26791989E+03</rscale>
<asrwt>0</asrwt>
<pdfrwt beam="1">  1        3 0.84656750E-01 0.26791989E+03</pdfrwt>
<pdfrwt beam="2">  1       -3 0.50172025E-02 0.26791989E+03</pdfrwt>
<totfact> 0.75709952E+02</totfact>
</mgrwt>
</event>
<event>
 9    1  0.7926126E-001  0.2738007E+03  0.7818608E-02  0.1099124E+00
         -1   -1    0    0    0  501 -0.00000000000E+00  0.00000000000E+00  0.59725305617E+03  0.59725305617E+03  0.00000000000E+00 0.  1.
          1   -1    0    0  501    0  0.00000000000E+00 -0.00000000000E+00 -0.31379833981E+02  0.31379833981E+02  0.00000000000E+00 0.  1.
         35    2    1    2    0    0  0.71054273576E-14  0.00000000000E+00  0.56587322219E+03  0.62863289015E+03  0.27380067018E+03 0.  0.
         25    2    3    3    0    0 -0.36521362830E+02  0.38529940862E+02  0.24458691554E+03  0.27949153888E+03  0.12439612037E+03 0.  0.
         25    2    3    3    0    0  0.36521362830E+02 -0.38529940862E+02  0.32128630665E+03  0.34914135128E+03  0.12592230161E+03 0.  0.
          5    1    4    4  502    0  0.40619581003E+01 -0.16404356375E+02  0.19293675060E+03  0.19373250152E+03  0.47000000000E+01 0.  1.
         -5    1    4    4    0  502 -0.40583320930E+02  0.54934297237E+02  0.51650164941E+02  0.85759037361E+02  0.47000000000E+01 0.  1.
          5    1    5    5  503    0  0.50734253717E+02 -0.38848877967E+01  0.30286350885E+03  0.30714402460E+03  0.47000000000E+01 0.  1.
         -5    1    5    5    0  503 -0.14212890887E+02 -0.34645053065E+02  0.18422797801E+02  0.41997326678E+02  0.47000000000E+01 0.  1.
<mgrwt>
<rscale>  0 0.27380067E+03</rscale>
<asrwt>0</asrwt>
<pdfrwt beam="1">  1        1 0.48276672E-02 0.27380067E+03</pdfrwt>
<pdfrwt beam="2">  1       -1 0.91885077E-01 0.27380067E+03</pdfrwt>
<totfact> 0.21201230E+03</totfact>
</mgrwt>
</event>
<event>
 9    1  0.7926126E-001  0.2736145E+03  0.7818608E-02  0.1099229E+00
         -1   -1    0    0    0  501 -0.00000000000E+00  0.00000000000E+00  0.43821278377E+02  0.43821278377E+02  0.00000000000E+00 0. -1.
          1   -1    0    0  501    0  0.00000000000E+00 -0.00000000000E+00 -0.42710350042E+03  0.42710350042E+03  0.00000000000E+00 0. -1.
         35    2    1    2    0    0  0.35527136788E-14 -0.71054273576E-14 -0.38328222204E+03  0.47092477879E+03  0.27361448344E+03 0.  0.
         25    2    3    3    0    0 -0.17033948049E+02  0.43041477618E+02 -0.12282910420E+03  0.18114024931E+03  0.12482818952E+03 0.  0.
         25    2    3    3    0    0  0.17033948049E+02 -0.43041477618E+02 -0.26045311784E+03  0.28978452948E+03  0.11830690070E+03 0.  0.
          5    1    4    4  502    0  0.38817314365E+02 -0.85559257205E+01 -0.89390201685E+02  0.97942258074E+02  0.47000000000E+01 0.  1.
         -5    1    4    4    0  502 -0.55851262414E+02  0.51597403338E+02 -0.33438902519E+02  0.83197991239E+02  0.47000000000E+01 0.  1.
          5    1    5    5  503    0 -0.19018024389E+02 -0.37340226183E+02 -0.24704327903E+03  0.25061613966E+03  0.47000000000E+01 0. -1.
         -5    1    5    5    0  503  0.36051972437E+02 -0.57012514354E+01 -0.13409838807E+02  0.39168389824E+02  0.47000000000E+01 0. -1.
<mgrwt>
<rscale>  0 0.27361448E+03</rscale>
<asrwt>0</asrwt>
<pdfrwt beam="1">  1        1 0.65708231E-01 0.27361448E+03</pdfrwt>
<pdfrwt beam="2">  1       -1 0.67417351E-02 0.27361448E+03</pdfrwt>
<totfact> 0.61894461E+03</totfact>
</mgrwt>
</event>
<event>
 9    1  0.7926126E-001  0.2749787E+03  0.7818608E-02  0.1098464E+00
          1   -1    0    0  501    0  0.00000000000E+00  0.00000000000E+00  0.25954752591E+03  0.25954752591E+03  0.00000000000E+00 0. -1.
         -1   -1    0    0    0  501 -0.00000000000E+00 -0.00000000000E+00 -0.72831833300E+02  0.72831833300E+02  0.00000000000E+00 0. -1.
         35    2    1    2    0    0 -0.17763568394E-14  0.00000000000E+00  0.18671569261E+03  0.33237935921E+03  0.27497870565E+03 0.  0.
         25    2    3    3    0    0  0.67874650147E+01  0.34019415109E+02  0.14830634468E+03  0.19739239532E+03  0.12556112285E+03 0.  0.
         25    2    3    3    0    0 -0.67874650147E+01 -0.34019415109E+02  0.38409347927E+02  0.13498696389E+03  0.12467081505E+03 0.  0.
          5    1    4    4  502    0 -0.42281765744E+02 -0.13210284481E+01  0.12562078609E+03  0.13263545804E+03  0.47000000000E+01 0. -1.
         -5    1    4    4    0  502  0.49069230759E+02  0.35340443557E+02  0.22685558593E+02  0.64756937287E+02  0.47000000000E+01 0. -1.
          5    1    5    5  503    0 -0.22209058262E+02  0.34471453642E+01 -0.40274276859E+02  0.46359815105E+02  0.47000000000E+01 0.  1.
         -5    1    5    5    0  503  0.15421593247E+02 -0.37466560473E+02  0.78683624786E+02  0.88627148783E+02  0.47000000000E+01 0.  1.
<mgrwt>
<rscale>  0 0.27497871E+03</rscale>
<asrwt>0</asrwt>
<pdfrwt beam="1">  1        1 0.39930388E-01 0.27497871E+03</pdfrwt>
<pdfrwt beam="2">  1       -1 0.11204898E-01 0.27497871E+03</pdfrwt>
<totfact> 0.53364898E+03</totfact>
</mgrwt>
</event>
<event>
 9    1  0.7926126E-001  0.2748068E+03  0.7818608E-02  0.1098560E+00
         -2   -1    0    0    0  501 -0.00000000000E+00  0.00000000000E+00  0.26502945545E+02  0.26502945545E+02  0.00000000000E+00 0. -1.
          2   -1    0    0  501    0  0.00000000000E+00 -0.00000000000E+00 -0.71236199281E+03  0.71236199281E+03  0.00000000000E+00 0. -1.
         35    2    1    2    0    0 -0.71054273576E-14  0.71054273576E-14 -0.68585904726E+03  0.73886493835E+03  0.27480677651E+03 0.  0.
         25    2    3    3    0    0  0.24658081034E+02 -0.52896147699E+02 -0.32482125190E+03  0.35254666397E+03  0.12399306912E+03 0.  0.
         25    2    3    3    0    0 -0.24658081034E+02  0.52896147699E+02 -0.36103779536E+03  0.38631827438E+03  0.12444876873E+03 0.  0.
          5    1    4    4  502    0  0.62497140214E+02 -0.24642110769E+02 -0.86908162936E+02  0.10994655494E+03  0.47000000000E+01 0. -1.
         -5    1    4    4    0  502 -0.37839059181E+02 -0.28254036930E+02 -0.23791308896E+03  0.24260010903E+03  0.47000000000E+01 0. -1.
          5    1    5    5  503    0 -0.19992044927E+02  0.81523620832E+02 -0.33984543311E+03  0.35008968996E+03  0.47000000000E+01 0.  1.
         -5    1    5    5    0  503 -0.46660361065E+01 -0.28627473133E+02 -0.21192362256E+02  0.36228584418E+02  0.47000000000E+01 0.  1.
<mgrwt>
<rscale>  0 0.27480678E+03</rscale>
<asrwt>0</asrwt>
<pdfrwt beam="1">  1        2 0.10959414E+00 0.27480678E+03</pdfrwt>
<pdfrwt beam="2">  1       -2 0.40773765E-02 0.27480678E+03</pdfrwt>
<totfact> 0.10916246E+04</totfact>
</mgrwt>
</event>
<event>
 9    1  0.7926126E-001  0.2724688E+03  0.7818608E-02  0.1099875E+00
         -2   -1    0    0    0  501 -0.00000000000E+00  0.00000000000E+00  0.47856579908E+02  0.47856579908E+02  0.00000000000E+00 0. -1.
          2   -1    0    0  501    0  0.00000000000E+00 -0.00000000000E+00 -0.38782165746E+03  0.38782165746E+03  0.00000000000E+00 0. -1.
         35    2    1    2    0    0  0.00000000000E+00  0.00000000000E+00 -0.33996507755E+03  0.43567823736E+03  0.27246884696E+03 0.  0.
         25    2    3    3    0    0  0.31017926050E+02 -0.42638587896E+02 -0.14910384448E+03  0.20144083088E+03  0.12476494296E+03 0.  0.
         25    2    3    3    0    0 -0.31017926050E+02  0.42638587896E+02 -0.19086123306E+03  0.23423740648E+03  0.12513589171E+03 0.  0.
          5    1    4    4  502    0  0.62175785158E+02 -0.45678724510E+02 -0.38415595186E+02  0.86314669010E+02  0.47000000000E+01 0. -1.
         -5    1    4    4    0  502 -0.31157859108E+02  0.30401366139E+01 -0.11068824930E+03  0.11512616187E+03  0.47000000000E+01 0. -1.
          5    1    5    5  503    0 -0.67826393790E+02  0.15460915324E+02 -0.16997869781E+03  0.18372345334E+03  0.47000000000E+01 0. -1.
         -5    1    5    5    0  503  0.36808467739E+02  0.27177672572E+02 -0.20882535256E+02  0.50513953146E+02  0.47000000000E+01 0. -1.
<mgrwt>
<rscale>  0 0.27246885E+03</rscale>
<asrwt>0</asrwt>
<pdfrwt beam="1">  1        2 0.59664868E-01 0.27246885E+03</pdfrwt>
<pdfrwt beam="2">  1       -2 0.73625511E-02 0.27246885E+03</pdfrwt>
<totfact> 0.88300764E+03</totfact>
</mgrwt>
</event>
<event>
 9    1  0.7926126E-001  0.2811632E+03  0.7818608E-02  0.1095055E+00
         -4   -1    0    0    0  501 -0.00000000000E+00  0.00000000000E+00  0.45802513790E+03  0.45802513790E+03  0.00000000000E+00 0. -1.
          4   -1    0    0  501    0  0.00000000000E+00 -0.00000000000E+00 -0.43148691030E+02  0.43148691030E+02  0.00000000000E+00 0. -1.
         35    2    1    2    0    0  0.00000000000E+00 -0.17763568394E-14  0.41487644687E+03  0.50117382893E+03  0.28116319218E+03 0.  0.
         25    2    3    3    0    0  0.24322898594E+02  0.13829354105E+02  0.10037873479E+03  0.16218972716E+03  0.12428500621E+03 0.  0.
         25    2    3    3    0    0 -0.24322898594E+02 -0.13829354105E+02  0.31449771208E+03  0.33898410176E+03  0.12336351128E+03 0.  0.
          5    1    4    4  502    0  0.33236302540E+02 -0.49651442373E+02  0.66535385146E+02  0.89548673987E+02  0.47000000000E+01 0. -1.
         -5    1    4    4    0  502 -0.89134039459E+01  0.63480796478E+02  0.33843349640E+02  0.72641053174E+02  0.47000000000E+01 0. -1.
          5    1    5    5  503    0  0.36173156306E+02  0.11316574490E+02  0.34771353283E+02  0.51649773518E+02  0.47000000000E+01 0. -1.
         -5    1    5    5    0  503 -0.60496054900E+02 -0.25145928595E+02  0.27972635880E+03  0.28733432825E+03  0.47000000000E+01 0. -1.
<mgrwt>
<rscale>  0 0.28116319E+03</rscale>
<asrwt>0</asrwt>
<pdfrwt beam="1">  1        4 0.66382605E-02 0.28116319E+03</pdfrwt>
<pdfrwt beam="2">  1       -4 0.70465402E-01 0.28116319E+03</pdfrwt>
<totfact> 0.53089010E+02</totfact>
</mgrwt>
</event>
<event>
 9    1  0.7926126E-001  0.2776311E+03  0.7818608E-02  0.1096990E+00
          2   -1    0    0  501    0  0.00000000000E+00  0.00000000000E+00  0.38142749224E+02  0.38142749224E+02  0.00000000000E+00 0.  1.
         -2   -1    0    0    0  501 -0.00000000000E+00 -0.00000000000E+00 -0.50520095279E+03  0.50520095279E+03  0.00000000000E+00 0.  1.
         35    2    1    2    0    0 -0.88817841970E-15  0.35527136788E-14 -0.46705820356E+03  0.54334370201E+03  0.27763107355E+03 0.  0.
         25    2    3    3    0    0 -0.67799599494E+01 -0.17672437886E+02 -0.11839954638E+03  0.17242849892E+03  0.12391469541E+03 0.  0.
         25    2    3    3    0    0  0.67799599494E+01  0.17672437886E+02 -0.34865865718E+03  0.37091520309E+03  0.12512771771E+03 0.  0.
          5    1    4    4  502    0  0.67221612474E+01  0.40156221922E+02 -0.10306714785E+03  0.11091725103E+03  0.47000000000E+01 0.  1.
         -5    1    4    4    0  502 -0.13502121197E+02 -0.57828659808E+02 -0.15332398533E+02  0.61511247889E+02  0.47000000000E+01 0.  1.
          5    1    5    5  503    0 -0.34037067891E+02  0.47163615613E+02 -0.27777882638E+03  0.28384167244E+03  0.47000000000E+01 0. -1.
         -5    1    5    5    0  503  0.40817027841E+02 -0.29491177727E+02 -0.70879830794E+02  0.87073530644E+02  0.47000000000E+01 0. -1.
<mgrwt>
<rscale>  0 0.27763107E+03</rscale>
<asrwt>0</asrwt>
<pdfrwt beam="1">  1        2 0.58681152E-02 0.27763107E+03</pdfrwt>
<pdfrwt beam="2">  1       -2 0.77723225E-01 0.27763107E+03</pdfrwt>
<totfact> 0.19284464E+03</totfact>
</mgrwt>
</event>
<event>
 9    1  0.7926126E-001  0.2749758E+03  0.7818608E-02  0.1098465E+00
          1   -1    0    0  501    0  0.00000000000E+00  0.00000000000E+00  0.71362424717E+02  0.71362424717E+02  0.00000000000E+00 0.  1.
         -1   -1    0    0    0  501 -0.00000000000E+00 -0.00000000000E+00 -0.26488631033E+03  0.26488631033E+03  0.00000000000E+00 0.  1.
         35    2    1    2    0    0  0.00000000000E+00  0.14210854715E-13 -0.19352388561E+03  0.33624873504E+03  0.27497584897E+03 0.  0.
         25    2    3    3    0    0 -0.13616555357E+02 -0.53042030145E+02 -0.11784755284E+03  0.18005008263E+03  0.12462391024E+03 0.  0.
         25    2    3    3    0    0  0.13616555357E+02  0.53042030145E+02 -0.75676332765E+02  0.15619865241E+03  0.12518883389E+03 0.  0.
          5    1    4    4  502    0 -0.42325092453E+02  0.26139352959E+02 -0.58357630759E+02  0.76826963314E+02  0.47000000000E+01 0.  1.
         -5    1    4    4    0  502  0.28708537096E+02 -0.79181383104E+02 -0.59489922085E+02  0.10322311932E+03  0.47000000000E+01 0.  1.
          5    1    5    5  503    0  0.98318566855E+00  0.13245045763E+02 -0.10437104540E+03  0.10531762914E+03  0.47000000000E+01 0. -1.
         -5    1    5    5    0  503  0.12633369689E+02  0.39796984382E+02  0.28694712631E+02  0.50881023265E+02  0.47000000000E+01 0. -1.
<mgrwt>
<rscale>  0 0.27497585E+03</rscale>
<asrwt>0</asrwt>
<pdfrwt beam="1">  1        1 0.10978835E-01 0.27497585E+03</pdfrwt>
<pdfrwt beam="2">  1       -1 0.40751740E-01 0.27497585E+03</pdfrwt>
<totfact> 0.33616449E+03</totfact>
</mgrwt>
</event>
<event>
 9    1  0.7926126E-001  0.2849774E+03  0.7818608E-02  0.1093001E+00
          2   -1    0    0  501    0  0.00000000000E+00  0.00000000000E+00  0.14280672130E+04  0.14280672130E+04  0.00000000000E+00 0. -1.
         -2   -1    0    0    0  501 -0.00000000000E+00 -0.00000000000E+00 -0.14217140614E+02  0.14217140614E+02  0.00000000000E+00 0. -1.
         35    2    1    2    0    0  0.00000000000E+00 -0.71054273576E-14  0.14138500723E+04  0.14422843536E+04  0.28497741926E+03 0.  0.
         25    2    3    3    0    0 -0.33856044316E+02  0.40901084949E+02  0.92797745732E+03  0.93780215340E+03  0.12454552235E+03 0.  0.
         25    2    3    3    0    0  0.33856044316E+02 -0.40901084949E+02  0.48587261501E+03  0.50448220016E+03  0.12494383448E+03 0.  0.
          5    1    4    4  502    0  0.24758016203E+02  0.49478586074E+02  0.20500730090E+03  0.21239391062E+03  0.47000000000E+01 0.  1.
         -5    1    4    4    0  502 -0.58614060519E+02 -0.85775011256E+01  0.72297015642E+03  0.72540824278E+03  0.47000000000E+01 0.  1.
          5    1    5    5  503    0  0.65766580520E+01 -0.13887642851E+01  0.43234161128E+03  0.43241940283E+03  0.47000000000E+01 0.  1.
         -5    1    5    5    0  503  0.27279386264E+02 -0.39512320663E+02  0.53531003735E+02  0.72062797337E+02  0.47000000000E+01 0.  1.
<mgrwt>
<rscale>  0 0.28497742E+03</rscale>
<asrwt>0</asrwt>
<pdfrwt beam="1">  1        2 0.21970254E+00 0.28497742E+03</pdfrwt>
<pdfrwt beam="2">  1       -2 0.21872535E-02 0.28497742E+03</pdfrwt>
<totfact> 0.10114004E+04</totfact>
</mgrwt>
</event>
<event>
 9    1  0.7926126E-001  0.2630276E+03  0.7818608E-02  0.1105338E+00
          2   -1    0    0  501    0  0.00000000000E+00  0.00000000000E+00  0.11406662098E+03  0.11406662098E+03  0.00000000000E+00 0.  1.
         -2   -1    0    0    0  501 -0.00000000000E+00 -0.00000000000E+00 -0.15162959587E+03  0.15162959587E+03  0.00000000000E+00 0.  1.
         35    2    1    2    0    0  0.00000000000E+00  0.14210854715E-13 -0.37562974884E+02  0.26569621685E+03  0.26302756998E+03 0.  0.
         25    2    3    3    0    0 -0.12394929366E+02 -0.36352762177E+02 -0.33675078282E+02  0.13467219341E+03  0.12460911358E+03 0.  0.
         25    2    3    3    0    0  0.12394929366E+02  0.36352762177E+02 -0.38878966021E+01  0.13102402345E+03  0.12520791264E+03 0.  0.
          5    1    4    4  502    0  0.11978773771E+02  0.29863957002E+02  0.26398018087E+02  0.41884272798E+02  0.47000000000E+01 0. -1.
         -5    1    4    4    0  502 -0.24373703138E+02 -0.66216719179E+02 -0.60073096369E+02  0.92787920608E+02  0.47000000000E+01 0. -1.
          5    1    5    5  503    0 -0.42507267830E+02 -0.19293187764E+01  0.33368522001E+02  0.54278341443E+02  0.47000000000E+01 0. -1.
         -5    1    5    5    0  503  0.54902197196E+02  0.38282080953E+02 -0.37256418603E+02  0.76745682003E+02  0.47000000000E+01 0. -1.
<mgrwt>
<rscale>  0 0.26302757E+03</rscale>
<asrwt>0</asrwt>
<pdfrwt beam="1">  1        2 0.17548711E-01 0.26302757E+03</pdfrwt>
<pdfrwt beam="2">  1       -2 0.23327630E-01 0.26302757E+03</pdfrwt>
<totfact> 0.51502418E+03</totfact>
</mgrwt>
</event>
<event>
 9    1  0.7926126E-001  0.2765855E+03  0.7818608E-02  0.1097569E+00
          2   -1    0    0  501    0  0.00000000000E+00  0.00000000000E+00  0.37863676991E+03  0.37863676991E+03  0.00000000000E+00 0. -1.
         -2   -1    0    0    0  501 -0.00000000000E+00 -0.00000000000E+00 -0.50509858275E+02  0.50509858275E+02  0.00000000000E+00 0. -1.
         35    2    1    2    0    0  0.35527136788E-14  0.00000000000E+00  0.32812691164E+03  0.42914662819E+03  0.27658553531E+03 0.  0.
         25    2    3    3    0    0  0.27948130761E+02  0.25720334041E+02  0.94796518287E+02  0.16186468426E+03  0.12558328923E+03 0.  0.
         25    2    3    3    0    0 -0.27948130761E+02 -0.25720334041E+02  0.23333039335E+03  0.26728194393E+03  0.12471540199E+03 0.  0.
          5    1    4    4  502    0 -0.43934120153E+01  0.71111348125E+02  0.33452912216E+02  0.78849941262E+02  0.47000000000E+01 0.  1.
         -5    1    4    4    0  502  0.32341542777E+02 -0.45391014084E+02  0.61343606072E+02  0.83014742996E+02  0.47000000000E+01 0.  1.
          5    1    5    5  503    0  0.28246906881E+02 -0.73542765222E+01  0.19372198533E+03  0.19596497322E+03  0.47000000000E+01 0. -1.
         -5    1    5    5    0  503 -0.56195037642E+02 -0.18366057519E+02  0.39608408020E+02  0.71316970703E+02  0.47000000000E+01 0. -1.
<mgrwt>
<rscale>  0 0.27658554E+03</rscale>
<asrwt>0</asrwt>
<pdfrwt beam="1">  1        2 0.58251809E-01 0.27658554E+03</pdfrwt>
<pdfrwt beam="2">  1       -2 0.77707476E-02 0.27658554E+03</pdfrwt>
<totfact> 0.83372191E+03</totfact>
</mgrwt>
</event>
<event>
 9    1  0.7926126E-001  0.2754642E+03  0.7818608E-02  0.1098192E+00
          2   -1    0    0  501    0  0.00000000000E+00  0.00000000000E+00  0.60294132483E+03  0.60294132483E+03  0.00000000000E+00 0. -1.
         -2   -1    0    0    0  501 -0.00000000000E+00 -0.00000000000E+00 -0.31462659465E+02  0.31462659465E+02  0.00000000000E+00 0. -1.
         35    2    1    2    0    0  0.00000000000E+00  0.00000000000E+00  0.57147866536E+03  0.63440398429E+03  0.27546424509E+03 0.  0.
         25    2    3    3    0    0 -0.35480008173E+02 -0.34866419429E+02  0.35260348242E+03  0.37742662214E+03  0.12508853307E+03 0.  0.
         25    2    3    3    0    0  0.35480008173E+02  0.34866419429E+02  0.21887518294E+03  0.25697736215E+03  0.12512601954E+03 0.  0.
          5    1    4    4  502    0  0.17285478069E+02 -0.30888342738E+02  0.20647246528E+02  0.41246530259E+02  0.47000000000E+01 0.  1.
         -5    1    4    4    0  502 -0.52765486241E+02 -0.39780766902E+01  0.33195623589E+03  0.33618009188E+03  0.47000000000E+01 0.  1.
          5    1    5    5  503    0  0.24815148564E+02  0.62478858832E+02  0.46166517205E+02  0.81687432999E+02  0.47000000000E+01 0.  1.
         -5    1    5    5    0  503  0.10664859608E+02 -0.27612439404E+02  0.17270866574E+03  0.17528992915E+03  0.47000000000E+01 0.  1.
<mgrwt>
<rscale>  0 0.27546425E+03</rscale>
<asrwt>0</asrwt>
<pdfrwt beam="1">  1        2 0.92760195E-01 0.27546425E+03</pdfrwt>
<pdfrwt beam="2">  1       -2 0.48404096E-02 0.27546425E+03</pdfrwt>
<totfact> 0.10273546E+04</totfact>
</mgrwt>
</event>
<event>
 9    1  0.7926126E-001  0.2753761E+03  0.7818608E-02  0.1098242E+00
          1   -1    0    0  501    0  0.00000000000E+00  0.00000000000E+00  0.32958098050E+03  0.32958098050E+03  0.00000000000E+00 0. -1.
         -1   -1    0    0    0  501 -0.00000000000E+00 -0.00000000000E+00 -0.57521511351E+02  0.57521511351E+02  0.00000000000E+00 0. -1.
         35    2    1    2    0    0 -0.35527136788E-14  0.71054273576E-14  0.27205946915E+03  0.38710249185E+03  0.27537607820E+03 0.  0.
         25    2    3    3    0    0  0.17124722675E+02  0.46316818243E+02  0.16629446788E+03  0.21658216705E+03  0.12967452046E+03 0.  0.
         25    2    3    3    0    0 -0.17124722675E+02 -0.46316818243E+02  0.10576500126E+03  0.17052032480E+03  0.12430785131E+03 0.  0.
          5    1    4    4  502    0 -0.28687738938E+02  0.77368220838E+02  0.10890662263E+03  0.13671711822E+03  0.47000000000E+01 0. -1.
         -5    1    4    4    0  502  0.45812461613E+02 -0.31051402595E+02  0.57387845250E+02  0.79865048830E+02  0.47000000000E+01 0. -1.
          5    1    5    5  503    0 -0.44738925841E+02  0.54409723577E+01 -0.44968997782E+01  0.45535566025E+02  0.47000000000E+01 0. -1.
         -5    1    5    5    0  503  0.27614203166E+02 -0.51757790600E+02  0.11026190104E+03  0.12498475877E+03  0.47000000000E+01 0. -1.
<mgrwt>
<rscale>  0 0.27537608E+03</rscale>
<asrwt>0</asrwt>
<pdfrwt beam="1">  1        1 0.50704765E-01 0.27537608E+03</pdfrwt>
<pdfrwt beam="2">  1       -1 0.88494635E-02 0.27537608E+03</pdfrwt>
<totfact> 0.56912043E+03</totfact>
</mgrwt>
</event>
<event>
 9    1  0.7926126E-001  0.2739205E+03  0.7818608E-02  0.1099057E+00
          1   -1    0    0  501    0  0.00000000000E+00  0.00000000000E+00  0.54425371471E+02  0.54425371471E+02  0.00000000000E+00 0. -1.
         -1   -1    0    0    0  501 -0.00000000000E+00 -0.00000000000E+00 -0.34465756791E+03  0.34465756791E+03  0.00000000000E+00 0. -1.
         35    2    1    2    0    0  0.35527136788E-14 -0.17763568394E-14 -0.29023219644E+03  0.39908293938E+03  0.27392054442E+03 0.  0.
         25    2    3    3    0    0  0.18391073860E+02 -0.81986986514E+01 -0.68472752341E+02  0.14348390269E+03  0.12447354041E+03 0.  0.
         25    2    3    3    0    0 -0.18391073860E+02  0.81986986514E+01 -0.22175944410E+03  0.25559903669E+03  0.12549169794E+03 0.  0.
          5    1    4    4  502    0 -0.21957156580E+02  0.84051458614E+01  0.28380679318E+02  0.37152606377E+02  0.47000000000E+01 0. -1.
         -5    1    4    4    0  502  0.40348230440E+02 -0.16603844513E+02 -0.96853431659E+02  0.10633129632E+03  0.47000000000E+01 0. -1.
          5    1    5    5  503    0 -0.59631734188E+02  0.27197433711E+02 -0.65385917621E+02  0.92698718146E+02  0.47000000000E+01 0. -1.
         -5    1    5    5    0  503  0.41240660328E+02 -0.18998735060E+02 -0.15637352648E+03  0.16290031854E+03  0.47000000000E+01 0. -1.
<mgrwt>
<rscale>  0 0.27392054E+03</rscale>
<asrwt>0</asrwt>
<pdfrwt beam="1">  1        1 0.83731342E-02 0.27392054E+03</pdfrwt>
<pdfrwt beam="2">  1       -1 0.53024241E-01 0.27392054E+03</pdfrwt>
<totfact> 0.29953895E+03</totfact>
</mgrwt>
</event>
<event>
 9    1  0.7926126E-001  0.2721140E+03  0.7818608E-02  0.1100076E+00
          1   -1    0    0  501    0  0.00000000000E+00  0.00000000000E+00  0.49530771394E+02  0.49530771394E+02  0.00000000000E+00 0. -1.
         -1   -1    0    0    0  501 -0.00000000000E+00 -0.00000000000E+00 -0.37373747771E+03  0.37373747771E+03  0.00000000000E+00 0. -1.
         35    2    1    2    0    0  0.00000000000E+00  0.00000000000E+00 -0.32420670632E+03  0.42326824911E+03  0.27211398766E+03 0.  0.
         25    2    3    3    0    0 -0.52228694839E+02 -0.11036554118E+02 -0.17605105301E+03  0.22229451697E+03  0.12478476236E+03 0.  0.
         25    2    3    3    0    0  0.52228694839E+02  0.11036554118E+02 -0.14815565330E+03  0.20097373213E+03  0.12486272987E+03 0.  0.
          5    1    4    4  502    0  0.12482868012E+01  0.30696241016E+02  0.25540810904E+01  0.31183822131E+02  0.47000000000E+01 0. -1.
         -5    1    4    4    0  502 -0.53476981641E+02 -0.41732795135E+02 -0.17860513410E+03  0.19111069484E+03  0.47000000000E+01 0. -1.
          5    1    5    5  503    0  0.10272512773E+01  0.53230130432E+02 -0.11465502823E+03  0.12650046454E+03  0.47000000000E+01 0. -1.
         -5    1    5    5    0  503  0.51201443562E+02 -0.42193576314E+02 -0.33500625074E+02  0.74473267589E+02  0.47000000000E+01 0. -1.
<mgrwt>
<rscale>  0 0.27211399E+03</rscale>
<asrwt>0</asrwt>
<pdfrwt beam="1">  1        1 0.76201186E-02 0.27211399E+03</pdfrwt>
<pdfrwt beam="2">  1       -1 0.57498074E-01 0.27211399E+03</pdfrwt>
<totfact> 0.29216519E+03</totfact>
</mgrwt>
</event>
<event>
 9    1  0.7926126E-001  0.2711155E+03  0.7818608E-02  0.1100643E+00
          2   -1    0    0  501    0  0.00000000000E+00  0.00000000000E+00  0.21884439476E+04  0.21884439476E+04  0.00000000000E+00 0. -1.
         -2   -1    0    0    0  501 -0.00000000000E+00 -0.00000000000E+00 -0.83967909587E+01  0.83967909587E+01  0.00000000000E+00 0. -1.
         35    2    1    2    0    0  0.35527136788E-14  0.00000000000E+00  0.21800471567E+04  0.21968407386E+04  0.27111552042E+03 0.  0.
         25    2    3    3    0    0  0.27500290249E+02  0.29588919415E+02  0.13873458781E+04  0.13933453471E+04  0.12268211180E+03 0.  0.
         25    2    3    3    0    0 -0.27500290249E+02 -0.29588919415E+02  0.79270127859E+03  0.80349539155E+03  0.12489098068E+03 0.  0.
          5    1    4    4  502    0  0.38514018857E+01 -0.40470633913E+02  0.22868781431E+03  0.23232070920E+03  0.47000000000E+01 0. -1.
         -5    1    4    4    0  502  0.23648888364E+02  0.70059553328E+02  0.11586580638E+04  0.11610246379E+04  0.47000000000E+01 0. -1.
          5    1    5    5  503    0 -0.55211810802E+02  0.18004787046E+02  0.20260389251E+03  0.21081495125E+03  0.47000000000E+01 0.  1.
         -5    1    5    5    0  503  0.27711520553E+02 -0.47593706462E+02  0.59009738608E+03  0.59268044030E+03  0.47000000000E+01 0.  1.
<mgrwt>
<rscale>  0 0.27111552E+03</rscale>
<asrwt>0</asrwt>
<pdfrwt beam="1">  1        2 0.33668323E+00 0.27111552E+03</pdfrwt>
<pdfrwt beam="2">  1       -2 0.12918157E-02 0.27111552E+03</pdfrwt>
<totfact> 0.86687128E+03</totfact>
</mgrwt>
</event>
<event>
 9    1  0.7926126E-001  0.2833439E+03  0.7818608E-02  0.1093876E+00
         -1   -1    0    0    0  501 -0.00000000000E+00  0.00000000000E+00  0.12651930482E+03  0.12651930482E+03  0.00000000000E+00 0.  1.
          1   -1    0    0  501    0  0.00000000000E+00 -0.00000000000E+00 -0.15863938687E+03  0.15863938687E+03  0.00000000000E+00 0.  1.
         35    2    1    2    0    0  0.71054273576E-14  0.00000000000E+00 -0.32120082046E+02  0.28515869169E+03  0.28334392490E+03 0.  0.
         25    2    3    3    0    0  0.38779289191E+02 -0.55177985669E+02 -0.35990183446E+02  0.14263853123E+03  0.12042430783E+03 0.  0.
         25    2    3    3    0    0 -0.38779289191E+02  0.55177985669E+02  0.38701013996E+01  0.14252016046E+03  0.12549332683E+03 0.  0.
          5    1    4    4  502    0  0.18076288420E+02  0.53532348109E+01 -0.68161753641E+02  0.70876822625E+02  0.47000000000E+01 0. -1.
         -5    1    4    4    0  502  0.20703000772E+02 -0.60531220480E+02  0.32171570195E+02  0.71761708610E+02  0.47000000000E+01 0. -1.
          5    1    5    5  503    0 -0.19480267050E+02  0.63410757762E+02  0.55483080051E+02  0.86607546878E+02  0.47000000000E+01 0.  1.
         -5    1    5    5    0  503 -0.19299022142E+02 -0.82327720926E+01 -0.51612978651E+02  0.55912613579E+02  0.47000000000E+01 0.  1.
<mgrwt>
<rscale>  0 0.28334392E+03</rscale>
<asrwt>0</asrwt>
<pdfrwt beam="1">  1        1 0.24406060E-01 0.28334392E+03</pdfrwt>
<pdfrwt beam="2">  1       -1 0.19464508E-01 0.28334392E+03</pdfrwt>
<totfact> 0.41401522E+03</totfact>
</mgrwt>
</event>
<event>
 9    1  0.7926126E-001  0.2748011E+03  0.7818608E-02  0.1098563E+00
         -2   -1    0    0    0  501 -0.00000000000E+00  0.00000000000E+00  0.16688748438E+02  0.16688748438E+02  0.00000000000E+00 0.  1.
          2   -1    0    0  501    0  0.00000000000E+00 -0.00000000000E+00 -0.11312359577E+04  0.11312359577E+04  0.00000000000E+00 0.  1.
         35    2    1    2    0    0  0.14210854715E-13 -0.35527136788E-14 -0.11145472093E+04  0.11479247062E+04  0.27480110861E+03 0.  0.
         25    2    3    3    0    0 -0.53520250796E+02 -0.15145565734E+02 -0.57461902670E+03  0.59094537658E+03  0.12623631352E+03 0.  0.
         25    2    3    3    0    0  0.53520250796E+02  0.15145565734E+02 -0.53992818259E+03  0.55697932959E+03  0.12493888835E+03 0.  0.
          5    1    4    4  502    0 -0.67860550188E+02 -0.38639424013E+02 -0.19224416058E+03  0.20755232265E+03  0.47000000000E+01 0. -1.
         -5    1    4    4    0  502  0.14340299392E+02  0.23493858279E+02 -0.38237486612E+03  0.38339305393E+03  0.47000000000E+01 0. -1.
          5    1    5    5  503    0  0.75170747796E+02  0.41034153091E+02 -0.23517971998E+03  0.25033184722E+03  0.47000000000E+01 0.  1.
         -5    1    5    5    0  503 -0.21650497000E+02 -0.25888587357E+02 -0.30474846261E+03  0.30664748237E+03  0.47000000000E+01 0.  1.
<mgrwt>
<rscale>  0 0.27480111E+03</rscale>
<asrwt>0</asrwt>
<pdfrwt beam="1">  1        2 0.17403632E+00 0.27480111E+03</pdfrwt>
<pdfrwt beam="2">  1       -2 0.25674995E-02 0.27480111E+03</pdfrwt>
<totfact> 0.11676991E+04</totfact>
</mgrwt>
</event>
<event>
 9    1  0.7926126E-001  0.2744371E+03  0.7818608E-02  0.1098767E+00
         -2   -1    0    0    0  501 -0.00000000000E+00  0.00000000000E+00  0.46248331059E+02  0.46248331059E+02  0.00000000000E+00 0.  1.
          2   -1    0    0  501    0  0.00000000000E+00 -0.00000000000E+00 -0.40712658359E+03  0.40712658359E+03  0.00000000000E+00 0.  1.
         35    2    1    2    0    0 -0.71054273576E-14  0.00000000000E+00 -0.36087825253E+03  0.45337491464E+03  0.27443706033E+03 0.  0.
         25    2    3    3    0    0 -0.38904989359E+02 -0.34263102900E+02 -0.15009050841E+03  0.20221176921E+03  0.12519936292E+03 0.  0.
         25    2    3    3    0    0  0.38904989359E+02  0.34263102900E+02 -0.21078774412E+03  0.25116314544E+03  0.12634830485E+03 0.  0.
          5    1    4    4  502    0  0.41209565333E+01 -0.66443011062E+02 -0.35563826751E+02  0.75620974438E+02  0.47000000000E+01 0. -1.
         -5    1    4    4    0  502 -0.43025945892E+02  0.32179908162E+02 -0.11452668166E+03  0.12659079477E+03  0.47000000000E+01 0. -1.
          5    1    5    5  503    0  0.15078041638E+02 -0.47829635496E+02 -0.67042720862E+02  0.83856053997E+02  0.47000000000E+01 0. -1.
         -5    1    5    5    0  503  0.23826947721E+02  0.82092738396E+02 -0.14374502326E+03  0.16730709144E+03  0.47000000000E+01 0. -1.
<mgrwt>
<rscale>  0 0.27443706E+03</rscale>
<asrwt>0</asrwt>
<pdfrwt beam="1">  1        2 0.62634860E-01 0.27443706E+03</pdfrwt>
<pdfrwt beam="2">  1       -2 0.71151277E-02 0.27443706E+03</pdfrwt>
<totfact> 0.88349967E+03</totfact>
</mgrwt>
</event>
<event>
 9    1  0.7926126E-001  0.2740529E+03  0.7818608E-02  0.1098982E+00
          1   -1    0    0  501    0  0.00000000000E+00  0.00000000000E+00  0.45066966203E+02  0.45066966203E+02  0.00000000000E+00 0.  1.
         -1   -1    0    0    0  501 -0.00000000000E+00 -0.00000000000E+00 -0.41662999981E+03  0.41662999981E+03  0.00000000000E+00 0.  1.
         35    2    1    2    0    0 -0.35527136788E-14  0.00000000000E+00 -0.37156303361E+03  0.46169696601E+03  0.27405291548E+03 0.  0.
         25    2    3    3    0    0 -0.94455503190E+01 -0.22539324819E+02 -0.27665293391E+03  0.30363694241E+03  0.12272451823E+03 0.  0.
         25    2    3    3    0    0  0.94455503190E+01  0.22539324819E+02 -0.94910099699E+02  0.15806002360E+03  0.12400727580E+03 0.  0.
          5    1    4    4  502    0 -0.38565241475E+02 -0.25587166149E+02 -0.26902573001E+03  0.27301815751E+03  0.47000000000E+01 0. -1.
         -5    1    4    4    0  502  0.29119691156E+02  0.30478413301E+01 -0.76272038973E+01  0.30618784906E+02  0.47000000000E+01 0. -1.
          5    1    5    5  503    0 -0.54373453053E+02 -0.76995373153E+01 -0.48560505290E+02  0.73457252507E+02  0.47000000000E+01 0.  1.
         -5    1    5    5    0  503  0.63819003372E+02  0.30238862134E+02 -0.46349594409E+02  0.84602771093E+02  0.47000000000E+01 0.  1.
<mgrwt>
<rscale>  0 0.27405292E+03</rscale>
<asrwt>0</asrwt>
<pdfrwt beam="1">  1        1 0.69333796E-02 0.27405292E+03</pdfrwt>
<pdfrwt beam="2">  1       -1 0.64096922E-01 0.27405292E+03</pdfrwt>
<totfact> 0.26956776E+03</totfact>
</mgrwt>
</event>
<event>
 9    1  0.7926126E-001  0.2717669E+03  0.7818608E-02  0.1100273E+00
         -2   -1    0    0    0  501 -0.00000000000E+00  0.00000000000E+00  0.15956491278E+02  0.15956491278E+02  0.00000000000E+00 0.  1.
          2   -1    0    0  501    0  0.00000000000E+00 -0.00000000000E+00 -0.11571659596E+04  0.11571659596E+04  0.00000000000E+00 0.  1.
         35    2    1    2    0    0  0.00000000000E+00  0.71054273576E-14 -0.11412094683E+04  0.11731224509E+04  0.27176687467E+03 0.  0.
         25    2    3    3    0    0  0.32042819614E+02 -0.43989542988E+02 -0.52662895484E+03  0.54377802421E+03  0.12407522460E+03 0.  0.
         25    2    3    3    0    0 -0.32042819614E+02  0.43989542988E+02 -0.61458051350E+03  0.62934442668E+03  0.12411034463E+03 0.  0.
          5    1    4    4  502    0  0.20287328244E+02 -0.68564481610E+02 -0.50094384931E+03  0.50604297642E+03  0.47000000000E+01 0. -1.
         -5    1    4    4    0  502  0.11755491370E+02  0.24574938622E+02 -0.25685105535E+02  0.37735047794E+02  0.47000000000E+01 0. -1.
          5    1    5    5  503    0 -0.60153061749E+02  0.36283928886E+02 -0.57829566295E+03  0.58256577150E+03  0.47000000000E+01 0. -1.
         -5    1    5    5    0  503  0.28110242135E+02  0.77056141019E+01 -0.36284850547E+02  0.46778655184E+02  0.47000000000E+01 0. -1.
<mgrwt>
<rscale>  0 0.27176687E+03</rscale>
<asrwt>0</asrwt>
<pdfrwt beam="1">  1        2 0.17802557E+00 0.27176687E+03</pdfrwt>
<pdfrwt beam="2">  1       -2 0.24548443E-02 0.27176687E+03</pdfrwt>
<totfact> 0.12051352E+04</totfact>
</mgrwt>
</event>
<event>
 9    1  0.7926126E-001  0.2688684E+03  0.7818608E-02  0.1101929E+00
         -1   -1    0    0    0  501 -0.00000000000E+00  0.00000000000E+00  0.98946642795E+01  0.98946642795E+01  0.00000000000E+00 0.  1.
          1   -1    0    0  501    0  0.00000000000E+00 -0.00000000000E+00 -0.18264947656E+04  0.18264947656E+04  0.00000000000E+00 0.  1.
         35    2    1    2    0    0  0.35527136788E-14 -0.71054273576E-14 -0.18166001013E+04  0.18363894299E+04  0.26886838798E+03 0.  0.
         25    2    3    3    0    0  0.19001869958E+02  0.48442428500E+02 -0.10006138698E+04  0.10092943517E+04  0.12140523836E+03 0.  0.
         25    2    3    3    0    0 -0.19001869958E+02 -0.48442428500E+02 -0.81598623145E+03  0.82709507816E+03  0.12467958315E+03 0.  0.
          5    1    4    4  502    0  0.32957827409E+02  0.69227960807E+02 -0.94508115993E+03  0.94819787903E+03  0.47000000000E+01 0.  1.
         -5    1    4    4    0  502 -0.13955957451E+02 -0.20785532308E+02 -0.55532709909E+02  0.61096472660E+02  0.47000000000E+01 0.  1.
          5    1    5    5  503    0  0.44189170357E+02 -0.28794315956E+02 -0.17912404977E+03  0.18678680525E+03  0.47000000000E+01 0.  1.
         -5    1    5    5    0  503 -0.63191040315E+02 -0.19648112544E+02 -0.63686218168E+03  0.64030827291E+03  0.47000000000E+01 0.  1.
<mgrwt>
<rscale>  0 0.26886839E+03</rscale>
<asrwt>0</asrwt>
<pdfrwt beam="1">  1        1 0.28099923E+00 0.26886839E+03</pdfrwt>
<pdfrwt beam="2">  1       -1 0.15222559E-02 0.26886839E+03</pdfrwt>
<totfact> 0.44671006E+03</totfact>
</mgrwt>
</event>
<event>
 9    1  0.7926126E-001  0.2748885E+03  0.7818608E-02  0.1098514E+00
          2   -1    0    0  501    0  0.00000000000E+00  0.00000000000E+00  0.22330294550E+04  0.22330294550E+04  0.00000000000E+00 0. -1.
         -2   -1    0    0    0  501 -0.00000000000E+00 -0.00000000000E+00 -0.84597731080E+01  0.84597731080E+01  0.00000000000E+00 0. -1.
         35    2    1    2    0    0 -0.14210854715E-13  0.35527136788E-14  0.22245696818E+04  0.22414892281E+04  0.27488850491E+03 0.  0.
         25    2    3    3    0    0  0.48487781880E+02 -0.27274176870E+02  0.11784705610E+04  0.11864503900E+04  0.12560540990E+03 0.  0.
         25    2    3    3    0    0 -0.48487781880E+02  0.27274176870E+02  0.10460991208E+04  0.10550388381E+04  0.12525427553E+03 0.  0.
          5    1    4    4  502    0 -0.24663090047E+02 -0.53064793789E+02  0.43885433122E+03  0.44276331643E+03  0.47000000000E+01 0. -1.
         -5    1    4    4    0  502  0.73150871926E+02  0.25790616918E+02  0.73961622981E+03  0.74368707356E+03  0.47000000000E+01 0. -1.
          5    1    5    5  503    0 -0.12532690460E+02  0.27899953803E+02  0.97247445288E+03  0.97296666297E+03  0.47000000000E+01 0.  1.
         -5    1    5    5    0  503 -0.35955091419E+02 -0.62577693305E+00  0.73624667944E+02  0.82072175100E+02  0.47000000000E+01 0.  1.
<mgrwt>
<rscale>  0 0.27488850E+03</rscale>
<asrwt>0</asrwt>
<pdfrwt beam="1">  1        2 0.34354252E+00 0.27488850E+03</pdfrwt>
<pdfrwt beam="2">  1       -2 0.13015053E-02 0.27488850E+03</pdfrwt>
<totfact> 0.81192484E+03</totfact>
</mgrwt>
</event>
<event>
 9    1  0.7926126E-001  0.2736946E+03  0.7818608E-02  0.1099184E+00
          2   -1    0    0  501    0  0.00000000000E+00  0.00000000000E+00  0.58794885053E+03  0.58794885053E+03  0.00000000000E+00 0.  1.
         -2   -1    0    0    0  501 -0.00000000000E+00 -0.00000000000E+00 -0.31851725673E+02  0.31851725673E+02  0.00000000000E+00 0.  1.
         35    2    1    2    0    0  0.00000000000E+00  0.71054273576E-14  0.55609712485E+03  0.61980057620E+03  0.27369461446E+03 0.  0.
         25    2    3    3    0    0 -0.44753127754E+02  0.11535380142E+02  0.30826322288E+03  0.33652687960E+03  0.12683934200E+03 0.  0.
         25    2    3    3    0    0  0.44753127754E+02 -0.11535380142E+02  0.24783390198E+03  0.28327369660E+03  0.12917599148E+03 0.  0.
          5    1    4    4  502    0 -0.77246361204E+02  0.43827442799E+02  0.20134329949E+03  0.22011147019E+03  0.47000000000E+01 0. -1.
         -5    1    4    4    0  502  0.32493233450E+02 -0.32292062657E+02  0.10691992339E+03  0.11641540941E+03  0.47000000000E+01 0. -1.
          5    1    5    5  503    0  0.83185053656E+01 -0.66148664770E+02  0.88669662887E+02  0.11103712217E+03  0.47000000000E+01 0.  1.
         -5    1    5    5    0  503  0.36434622389E+02  0.54613284628E+02  0.15916423909E+03  0.17223657443E+03  0.47000000000E+01 0.  1.
<mgrwt>
<rscale>  0 0.27369461E+03</rscale>
<asrwt>0</asrwt>
<pdfrwt beam="1">  1        2 0.90453662E-01 0.27369461E+03</pdfrwt>
<pdfrwt beam="2">  1       -2 0.49002659E-02 0.27369461E+03</pdfrwt>
<totfact> 0.10379845E+04</totfact>
</mgrwt>
</event>
<event>
 9    1  0.7926126E-001  0.2768744E+03  0.7818608E-02  0.1097408E+00
          2   -1    0    0  501    0  0.00000000000E+00  0.00000000000E+00  0.97775040716E+01  0.97775040716E+01  0.00000000000E+00 0.  1.
         -2   -1    0    0    0  501 -0.00000000000E+00 -0.00000000000E+00 -0.19600970365E+04  0.19600970365E+04  0.00000000000E+00 0.  1.
         35    2    1    2    0    0  0.00000000000E+00  0.14210854715E-13 -0.19503195324E+04  0.19698745406E+04  0.27687438853E+03 0.  0.
         25    2    3    3    0    0  0.39708837399E+02 -0.34665833303E+02 -0.78516835826E+03  0.79678285918E+03  0.12488019099E+03 0.  0.
         25    2    3    3    0    0 -0.39708837399E+02  0.34665833303E+02 -0.11651511742E+04  0.11730916814E+04  0.12565159180E+03 0.  0.
          5    1    4    4  502    0  0.81750970985E+02 -0.16771878899E+01 -0.47495428783E+03  0.48196441751E+03  0.47000000000E+01 0.  1.
         -5    1    4    4    0  502 -0.42042133586E+02 -0.32988645413E+02 -0.31021407044E+03  0.31481844168E+03  0.47000000000E+01 0.  1.
          5    1    5    5  503    0 -0.48870858248E+01 -0.24973970753E+02 -0.54992297295E+02  0.60776850731E+02  0.47000000000E+01 0. -1.
         -5    1    5    5    0  503 -0.34821751574E+02  0.59639804055E+02 -0.11101588769E+04  0.11123148307E+04  0.47000000000E+01 0. -1.
<mgrwt>
<rscale>  0 0.27687439E+03</rscale>
<asrwt>0</asrwt>
<pdfrwt beam="1">  1        2 0.15042305E-02 0.27687439E+03</pdfrwt>
<pdfrwt beam="2">  1       -2 0.30155357E+00 0.27687439E+03</pdfrwt>
<totfact> 0.29177205E+02</totfact>
</mgrwt>
</event>
<event>
 9    1  0.7926126E-001  0.2696031E+03  0.7818608E-02  0.1101507E+00
          1   -1    0    0  501    0  0.00000000000E+00  0.00000000000E+00  0.72303852374E+02  0.72303852374E+02  0.00000000000E+00 0. -1.
         -1   -1    0    0    0  501 -0.00000000000E+00 -0.00000000000E+00 -0.25132074160E+03  0.25132074160E+03  0.00000000000E+00 0. -1.
         35    2    1    2    0    0  0.00000000000E+00  0.00000000000E+00 -0.17901688923E+03  0.32362459398E+03  0.26960309938E+03 0.  0.
         25    2    3    3    0    0 -0.25087581766E+02 -0.46013667384E+02 -0.11908362245E+03  0.18058930229E+03  0.12523954097E+03 0.  0.
         25    2    3    3    0    0  0.25087581766E+02  0.46013667384E+02 -0.59933266783E+02  0.14303529169E+03  0.11882951593E+03 0.  0.
          5    1    4    4  502    0 -0.64363180767E+02 -0.12993587649E+02 -0.11010909523E+03  0.12828700328E+03  0.47000000000E+01 0. -1.
         -5    1    4    4    0  502  0.39275599001E+02 -0.33020079735E+02 -0.89745272138E+01  0.52302299006E+02  0.47000000000E+01 0. -1.
          5    1    5    5  503    0  0.41406567598E+02 -0.22853794218E+02  0.37977645151E+01  0.47679269769E+02  0.47000000000E+01 0.  1.
         -5    1    5    5    0  503 -0.16318985832E+02  0.68867461601E+02 -0.63731031298E+02  0.95356021919E+02  0.47000000000E+01 0.  1.
<mgrwt>
<rscale>  0 0.26960310E+03</rscale>
<asrwt>0</asrwt>
<pdfrwt beam="1">  1        1 0.11123670E-01 0.26960310E+03</pdfrwt>
<pdfrwt beam="2">  1       -1 0.38664729E-01 0.26960310E+03</pdfrwt>
<totfact> 0.36238685E+03</totfact>
</mgrwt>
</event>
<event>
 9    1  0.7926126E-001  0.2739793E+03  0.7818608E-02  0.1099023E+00
         -2   -1    0    0    0  501 -0.00000000000E+00  0.00000000000E+00  0.96516620594E+01  0.96516620594E+01  0.00000000000E+00 0. -1.
          2   -1    0    0  501    0  0.00000000000E+00 -0.00000000000E+00 -0.19443457043E+04  0.19443457043E+04  0.00000000000E+00 0. -1.
         35    2    1    2    0    0  0.00000000000E+00  0.10658141036E-13 -0.19346940422E+04  0.19539973664E+04  0.27397932524E+03 0.  0.
         25    2    3    3    0    0 -0.10085323868E+02  0.20769521900E+02 -0.60354705471E+03  0.61676969196E+03  0.12491084369E+03 0.  0.
         25    2    3    3    0    0  0.10085323868E+02 -0.20769521900E+02 -0.13311469875E+04  0.13372276744E+04  0.12526956525E+03 0.  0.
          5    1    4    4  502    0  0.11555801998E+02 -0.29169597939E+02 -0.42325215776E+02  0.52895329607E+02  0.47000000000E+01 0.  1.
         -5    1    4    4    0  502 -0.21641125866E+02  0.49939119840E+02 -0.56122183894E+03  0.56387436236E+03  0.47000000000E+01 0.  1.
          5    1    5    5  503    0  0.38378861407E+02 -0.30972631920E+02 -0.12427249399E+04  0.12437120275E+04  0.47000000000E+01 0. -1.
         -5    1    5    5    0  503 -0.28293537539E+02  0.10203110019E+02 -0.88422047584E+02  0.93515646923E+02  0.47000000000E+01 0. -1.
<mgrwt>
<rscale>  0 0.27397933E+03</rscale>
<asrwt>0</asrwt>
<pdfrwt beam="1">  1        2 0.29913020E+00 0.27397933E+03</pdfrwt>
<pdfrwt beam="2">  1       -2 0.14848706E-02 0.27397933E+03</pdfrwt>
<totfact> 0.95162210E+03</totfact>
</mgrwt>
</event>
<event>
 9    1  0.7926126E-001  0.2747849E+03  0.7818608E-02  0.1098572E+00
         -2   -1    0    0    0  501 -0.00000000000E+00  0.00000000000E+00  0.25206501282E+02  0.25206501282E+02  0.00000000000E+00 0.  1.
          2   -1    0    0  501    0  0.00000000000E+00 -0.00000000000E+00 -0.74888161149E+03  0.74888161149E+03  0.00000000000E+00 0.  1.
         35    2    1    2    0    0  0.00000000000E+00  0.00000000000E+00 -0.72367511021E+03  0.77408811277E+03  0.27478489987E+03 0.  0.
         25    2    3    3    0    0  0.68086618806E+01 -0.23987892442E+02 -0.51209800898E+03  0.52703481628E+03  0.12206371253E+03 0.  0.
         25    2    3    3    0    0 -0.68086618806E+01  0.23987892442E+02 -0.21157710123E+03  0.24705329649E+03  0.12509470284E+03 0.  0.
          5    1    4    4  502    0  0.19605060851E+02 -0.56897206231E+02 -0.45987699794E+03  0.46382172623E+03  0.47000000000E+01 0. -1.
         -5    1    4    4    0  502 -0.12796398970E+02  0.32909313789E+02 -0.52221011038E+02  0.63213090057E+02  0.47000000000E+01 0. -1.
          5    1    5    5  503    0  0.10848257134E+02 -0.38662330527E+02 -0.20889053362E+02  0.45507175643E+02  0.47000000000E+01 0.  1.
         -5    1    5    5    0  503 -0.17656919014E+02  0.62650222969E+02 -0.19068804787E+03  0.20154612085E+03  0.47000000000E+01 0.  1.
<mgrwt>
<rscale>  0 0.27478490E+03</rscale>
<asrwt>0</asrwt>
<pdfrwt beam="1">  1        2 0.11521254E+00 0.27478490E+03</pdfrwt>
<pdfrwt beam="2">  1       -2 0.38779239E-02 0.27478490E+03</pdfrwt>
<totfact> 0.11068881E+04</totfact>
</mgrwt>
</event>
<event>
 9    1  0.7926126E-001  0.2751343E+03  0.7818608E-02  0.1098377E+00
         -1   -1    0    0    0  501 -0.00000000000E+00  0.00000000000E+00  0.29533925468E+02  0.29533925468E+02  0.00000000000E+00 0. -1.
          1   -1    0    0  501    0  0.00000000000E+00 -0.00000000000E+00 -0.64077900272E+03  0.64077900272E+03  0.00000000000E+00 0. -1.
         35    2    1    2    0    0  0.71054273576E-14 -0.14210854715E-13 -0.61124507725E+03  0.67031292819E+03  0.27513428945E+03 0.  0.
         25    2    3    3    0    0 -0.15490875933E+02  0.41815156811E+02 -0.39137321875E+03  0.41329476554E+03  0.12510432563E+03 0.  0.
         25    2    3    3    0    0  0.15490875933E+02 -0.41815156811E+02 -0.21987185850E+03  0.25701816265E+03  0.12540425509E+03 0.  0.
          5    1    4    4  502    0 -0.38800402842E+02 -0.16099345118E+02 -0.29732273013E+03  0.30031243069E+03  0.47000000000E+01 0. -1.
         -5    1    4    4    0  502  0.23309526909E+02  0.57914501929E+02 -0.94050488617E+02  0.11298233485E+03  0.47000000000E+01 0. -1.
          5    1    5    5  503    0  0.32493787476E+02  0.29750926874E+01 -0.20352773408E+03  0.20618032385E+03  0.47000000000E+01 0.  1.
         -5    1    5    5    0  503 -0.17002911544E+02 -0.44790249498E+02 -0.16344124420E+02  0.50837838803E+02  0.47000000000E+01 0.  1.
<mgrwt>
<rscale>  0 0.27513429E+03</rscale>
<asrwt>0</asrwt>
<pdfrwt beam="1">  1        1 0.98581371E-01 0.27513429E+03</pdfrwt>
<pdfrwt beam="2">  1       -1 0.45436815E-02 0.27513429E+03</pdfrwt>
<totfact> 0.64910500E+03</totfact>
</mgrwt>
</event>
<event>
 9    1  0.7926126E-001  0.2752481E+03  0.7818608E-02  0.1098313E+00
         -2   -1    0    0    0  501 -0.00000000000E+00  0.00000000000E+00  0.92743035895E+01  0.92743035895E+01  0.00000000000E+00 0.  1.
          2   -1    0    0  501    0  0.00000000000E+00 -0.00000000000E+00 -0.20422429787E+04  0.20422429787E+04  0.00000000000E+00 0.  1.
         35    2    1    2    0    0 -0.71054273576E-14  0.35527136788E-14 -0.20329686751E+04  0.20515172823E+04  0.27524811634E+03 0.  0.
         25    2    3    3    0    0  0.29742254851E+02 -0.19222236162E+02 -0.66622187551E+03  0.67862511572E+03  0.12420291538E+03 0.  0.
         25    2    3    3    0    0 -0.29742254851E+02  0.19222236162E+02 -0.13667467996E+04  0.13728921666E+04  0.12482784437E+03 0.  0.
          5    1    4    4  502    0 -0.22066261559E+02 -0.14285569286E+02 -0.29612253169E+02  0.39874464595E+02  0.47000000000E+01 0.  1.
         -5    1    4    4    0  502  0.51808516410E+02 -0.49366668755E+01 -0.63660962234E+03  0.63875065112E+03  0.47000000000E+01 0.  1.
          5    1    5    5  503    0 -0.33296535656E+02 -0.34585758874E+02 -0.10802606759E+04  0.10813371592E+04  0.47000000000E+01 0. -1.
         -5    1    5    5    0  503  0.35542808047E+01  0.53807995036E+02 -0.28648612371E+03  0.29155500737E+03  0.47000000000E+01 0. -1.
<mgrwt>
<rscale>  0 0.27524812E+03</rscale>
<asrwt>0</asrwt>
<pdfrwt beam="1">  1        2 0.31419100E+00 0.27524812E+03</pdfrwt>
<pdfrwt beam="2">  1       -2 0.14268170E-02 0.27524812E+03</pdfrwt>
<totfact> 0.89600372E+03</totfact>
</mgrwt>
</event>
<event>
 9    1  0.7926126E-001  0.2733067E+03  0.7818608E-02  0.1099402E+00
         -2   -1    0    0    0  501 -0.00000000000E+00  0.00000000000E+00  0.10392392851E+02  0.10392392851E+02  0.00000000000E+00 0.  1.
          2   -1    0    0  501    0  0.00000000000E+00 -0.00000000000E+00 -0.17969045552E+04  0.17969045552E+04  0.00000000000E+00 0.  1.
         35    2    1    2    0    0  0.17763568394E-14  0.71054273576E-14 -0.17865121624E+04  0.18072969481E+04  0.27330669990E+03 0.  0.
         25    2    3    3    0    0  0.28309649142E+00  0.53042339572E+02 -0.10207268793E+04  0.10296111825E+04  0.12410582203E+03 0.  0.
         25    2    3    3    0    0 -0.28309649142E+00 -0.53042339572E+02 -0.76578528308E+03  0.77768576559E+03  0.12471760214E+03 0.  0.
          5    1    4    4  502    0  0.10058429935E+02 -0.38081337195E+01 -0.83484715955E+03  0.83492966393E+03  0.47000000000E+01 0.  1.
         -5    1    4    4    0  502 -0.97753334435E+01  0.56850473292E+02 -0.18587971972E+03  0.19468151854E+03  0.47000000000E+01 0.  1.
          5    1    5    5  503    0  0.49506472432E+02 -0.27877007351E+02 -0.17060666856E+03  0.17987980350E+03  0.47000000000E+01 0. -1.
         -5    1    5    5    0  503 -0.49789568923E+02 -0.25165332222E+02 -0.59517861452E+03  0.59780596208E+03  0.47000000000E+01 0. -1.
<mgrwt>
<rscale>  0 0.27330670E+03</rscale>
<asrwt>0</asrwt>
<pdfrwt beam="1">  1        2 0.27644706E+00 0.27330670E+03</pdfrwt>
<pdfrwt beam="2">  1       -2 0.15988285E-02 0.27330670E+03</pdfrwt>
<totfact> 0.10205707E+04</totfact>
</mgrwt>
</event>
<event>
 9    1  0.7926126E-001  0.3313018E+03  0.7818608E-02  0.1070562E+00
          1   -1    0    0  501    0  0.00000000000E+00  0.00000000000E+00  0.34004671597E+03  0.34004671597E+03  0.00000000000E+00 0. -1.
         -1   -1    0    0    0  501 -0.00000000000E+00 -0.00000000000E+00 -0.80695463818E+02  0.80695463818E+02  0.00000000000E+00 0. -1.
         35    2    1    2    0    0  0.71054273576E-14  0.00000000000E+00  0.25935125215E+03  0.42074217979E+03  0.33130184102E+03 0.  0.
         25    2    3    3    0    0  0.60609848136E+02  0.89502873703E+02  0.14802547936E+03  0.22141049359E+03  0.12420445258E+03 0.  0.
         25    2    3    3    0    0 -0.60609848136E+02 -0.89502873703E+02  0.11132577279E+03  0.19933168620E+03  0.12512144237E+03 0.  0.
          5    1    4    4  502    0  0.82396703233E+02  0.78854647779E+02  0.57958521570E+02  0.12801778159E+03  0.47000000000E+01 0. -1.
         -5    1    4    4    0  502 -0.21786855097E+02  0.10648225924E+02  0.90066957790E+02  0.93392712006E+02  0.47000000000E+01 0. -1.
          5    1    5    5  503    0 -0.30408683014E+02  0.15202735357E+02  0.78099359500E+02  0.85307743607E+02  0.47000000000E+01 0. -1.
         -5    1    5    5    0  503 -0.30201165122E+02 -0.10470560906E+03  0.33226413293E+02  0.11402394259E+03  0.47000000000E+01 0. -1.
<mgrwt>
<rscale>  0 0.33130184E+03</rscale>
<asrwt>0</asrwt>
<pdfrwt beam="1">  1        1 0.52314879E-01 0.33130184E+03</pdfrwt>
<pdfrwt beam="2">  1       -1 0.12414687E-01 0.33130184E+03</pdfrwt>
<totfact> 0.32473923E+03</totfact>
</mgrwt>
</event>
<event>
 9    1  0.7926126E-001  0.2736879E+03  0.7818608E-02  0.1099187E+00
         -1   -1    0    0    0  501 -0.00000000000E+00  0.00000000000E+00  0.36244241670E+02  0.36244241670E+02  0.00000000000E+00 0.  1.
          1   -1    0    0  501    0  0.00000000000E+00 -0.00000000000E+00 -0.51666865213E+03  0.51666865213E+03  0.00000000000E+00 0.  1.
         35    2    1    2    0    0  0.00000000000E+00  0.00000000000E+00 -0.48042441046E+03  0.55291289380E+03  0.27368787690E+03 0.  0.
         25    2    3    3    0    0 -0.45132246426E+02  0.16220501018E+02 -0.18379013839E+03  0.22753630043E+03  0.12527541149E+03 0.  0.
         25    2    3    3    0    0  0.45132246426E+02 -0.16220501018E+02 -0.29663427207E+03  0.32537659337E+03  0.12481190579E+03 0.  0.
          5    1    4    4  502    0 -0.87733947854E+02  0.22466561464E+02 -0.11942012429E+03  0.14995081886E+03  0.47000000000E+01 0.  1.
         -5    1    4    4    0  502  0.42601701429E+02 -0.62460604463E+01 -0.64370014100E+02  0.77585481573E+02  0.47000000000E+01 0.  1.
          5    1    5    5  503    0 -0.18293897397E+02 -0.95084593678E+01 -0.23697501752E+03  0.23791663753E+03  0.47000000000E+01 0. -1.
         -5    1    5    5    0  503  0.63426143823E+02 -0.67120416499E+01 -0.59659254546E+02  0.87459955845E+02  0.47000000000E+01 0. -1.
<mgrwt>
<rscale>  0 0.27368788E+03</rscale>
<asrwt>0</asrwt>
<pdfrwt beam="1">  1        1 0.79487478E-01 0.27368788E+03</pdfrwt>
<pdfrwt beam="2">  1       -1 0.55760376E-02 0.27368788E+03</pdfrwt>
<totfact> 0.64194031E+03</totfact>
</mgrwt>
</event>
<event>
 9    1  0.7926126E-001  0.2756327E+03  0.7818608E-02  0.1098098E+00
          2   -1    0    0  501    0  0.00000000000E+00  0.00000000000E+00  0.87606808450E+03  0.87606808450E+03  0.00000000000E+00 0. -1.
         -2   -1    0    0    0  501 -0.00000000000E+00 -0.00000000000E+00 -0.21680217813E+02  0.21680217813E+02  0.00000000000E+00 0. -1.
         35    2    1    2    0    0 -0.71054273576E-14 -0.35527136788E-14  0.85438786669E+03  0.89774830232E+03  0.27563270409E+03 0.  0.
         25    2    3    3    0    0  0.50348130857E+02  0.12445968261E+02  0.33866562371E+03  0.36444049022E+03  0.12422813621E+03 0.  0.
         25    2    3    3    0    0 -0.50348130857E+02 -0.12445968261E+02  0.51572224299E+03  0.53330781210E+03  0.12553068998E+03 0.  0.
          5    1    4    4  502    0  0.31547408873E+02  0.12324658513E+02  0.34290241549E+03  0.34460309453E+03  0.47000000000E+01 0. -1.
         -5    1    4    4    0  502  0.18800721984E+02  0.12130974822E+00 -0.42367917799E+01  0.19837395690E+02  0.47000000000E+01 0. -1.
          5    1    5    5  503    0  0.12930685032E+02  0.38360930418E+02  0.30041892027E+03  0.30317054813E+03  0.47000000000E+01 0.  1.
         -5    1    5    5    0  503 -0.63278815889E+02 -0.50806898679E+02  0.21530332272E+03  0.23013726397E+03  0.47000000000E+01 0.  1.
<mgrwt>
<rscale>  0 0.27563270E+03</rscale>
<asrwt>0</asrwt>
<pdfrwt beam="1">  1        2 0.13477968E+00 0.27563270E+03</pdfrwt>
<pdfrwt beam="2">  1       -2 0.33354188E-02 0.27563270E+03</pdfrwt>
<totfact> 0.11349547E+04</totfact>
</mgrwt>
</event>
<event>
 9    1  0.7926126E-001  0.2745617E+03  0.7818608E-02  0.1098697E+00
          2   -1    0    0  501    0  0.00000000000E+00  0.00000000000E+00  0.24987959223E+03  0.24987959223E+03  0.00000000000E+00 0.  1.
         -2   -1    0    0    0  501 -0.00000000000E+00 -0.00000000000E+00 -0.75420457231E+02  0.75420457231E+02  0.00000000000E+00 0.  1.
         35    2    1    2    0    0  0.00000000000E+00  0.14210854715E-13  0.17445913500E+03  0.32530004946E+03  0.27456170963E+03 0.  0.
         25    2    3    3    0    0  0.16420889113E+02 -0.37732799054E+02  0.40431589020E+02  0.13763190206E+03  0.12495766223E+03 0.  0.
         25    2    3    3    0    0 -0.16420889113E+02  0.37732799054E+02  0.13402754598E+03  0.18766814740E+03  0.12474991280E+03 0.  0.
          5    1    4    4  502    0  0.17580723276E+02  0.29825501946E+02  0.57953343007E+02  0.67670690576E+02  0.47000000000E+01 0. -1.
         -5    1    4    4    0  502 -0.11598341634E+01 -0.67558301000E+02 -0.17521753988E+02  0.69961211482E+02  0.47000000000E+01 0. -1.
          5    1    5    5  503    0 -0.42864963887E+02  0.67648168683E+02  0.12143062142E+03  0.14553750607E+03  0.47000000000E+01 0. -1.
         -5    1    5    5    0  503  0.26444074774E+02 -0.29915369629E+02  0.12596924561E+02  0.42130641333E+02  0.47000000000E+01 0. -1.
<mgrwt>
<rscale>  0 0.27456171E+03</rscale>
<asrwt>0</asrwt>
<pdfrwt beam="1">  1        2 0.38443014E-01 0.27456171E+03</pdfrwt>
<pdfrwt beam="2">  1       -2 0.11603147E-01 0.27456171E+03</pdfrwt>
<totfact> 0.69141074E+03</totfact>
</mgrwt>
</event>
<event>
 9    1  0.7926126E-001  0.2752818E+03  0.7818608E-02  0.1098294E+00
         -2   -1    0    0    0  501 -0.00000000000E+00  0.00000000000E+00  0.89580670996E+02  0.89580670996E+02  0.00000000000E+00 0.  1.
          2   -1    0    0  501    0  0.00000000000E+00 -0.00000000000E+00 -0.21148549186E+03  0.21148549186E+03  0.00000000000E+00 0.  1.
         35    2    1    2    0    0  0.71054273576E-14 -0.35527136788E-14 -0.12190482086E+03  0.30106616285E+03  0.27528176305E+03 0.  0.
         25    2    3    3    0    0 -0.46710311774E+02  0.24735509831E+02 -0.83329424424E+02  0.15951310735E+03  0.12532733049E+03 0.  0.
         25    2    3    3    0    0  0.46710311774E+02 -0.24735509831E+02 -0.38575396435E+02  0.14155305550E+03  0.12552094502E+03 0.  0.
          5    1    4    4  502    0  0.42744153016E+02  0.56612884992E+01 -0.36295133503E+02  0.56555632085E+02  0.47000000000E+01 0.  1.
         -5    1    4    4    0  502 -0.89454464789E+02  0.19074221332E+02 -0.47034290921E+02  0.10295747526E+03  0.47000000000E+01 0.  1.
          5    1    5    5  503    0  0.14894437541E+02 -0.70024739125E+02  0.35594626263E+01  0.71833614231E+02  0.47000000000E+01 0.  1.
         -5    1    5    5    0  503  0.31815874233E+02  0.45289229294E+02 -0.42134859061E+02  0.69719441273E+02  0.47000000000E+01 0.  1.
<mgrwt>
<rscale>  0 0.27528176E+03</rscale>
<asrwt>0</asrwt>
<pdfrwt beam="1">  1        2 0.32536229E-01 0.27528176E+03</pdfrwt>
<pdfrwt beam="2">  1       -2 0.13781642E-01 0.27528176E+03</pdfrwt>
<totfact> 0.62679624E+03</totfact>
</mgrwt>
</event>
<event>
 9    1  0.7926126E-001  0.2746603E+03  0.7818608E-02  0.1098642E+00
         -2   -1    0    0    0  501 -0.00000000000E+00  0.00000000000E+00  0.13975645440E+02  0.13975645440E+02  0.00000000000E+00 0. -1.
          2   -1    0    0  501    0  0.00000000000E+00 -0.00000000000E+00 -0.13494601133E+04  0.13494601133E+04  0.00000000000E+00 0. -1.
         35    2    1    2    0    0  0.00000000000E+00 -0.35527136788E-14 -0.13354844678E+04  0.13634357587E+04  0.27466034354E+03 0.  0.
         25    2    3    3    0    0  0.52187464240E+02 -0.23593977540E+02 -0.74167333554E+03  0.75415114905E+03  0.12403391374E+03 0.  0.
         25    2    3    3    0    0 -0.52187464240E+02  0.23593977540E+02 -0.59381113230E+03  0.60928460967E+03  0.12383806984E+03 0.  0.
          5    1    4    4  502    0 -0.37291456649E+02  0.12561186911E+02 -0.19145475738E+03  0.19551329949E+03  0.47000000000E+01 0.  1.
         -5    1    4    4    0  502  0.89478920889E+02 -0.36155164451E+02 -0.55021857816E+03  0.55863784956E+03  0.47000000000E+01 0.  1.
          5    1    5    5  503    0  0.18531566243E+02 -0.29134273558E+02 -0.71314003360E+02  0.79372551416E+02  0.47000000000E+01 0.  1.
         -5    1    5    5    0  503 -0.70719030483E+02  0.52728251097E+02 -0.52249712894E+03  0.52991205826E+03  0.47000000000E+01 0.  1.
<mgrwt>
<rscale>  0 0.27466034E+03</rscale>
<asrwt>0</asrwt>
<pdfrwt beam="1">  1        2 0.20760926E+00 0.27466034E+03</pdfrwt>
<pdfrwt beam="2">  1       -2 0.21500992E-02 0.27466034E+03</pdfrwt>
<totfact> 0.11438107E+04</totfact>
</mgrwt>
</event>
<event>
 9    1  0.7926126E-001  0.2804098E+03  0.7818608E-02  0.1095465E+00
          3   -1    0    0  501    0  0.00000000000E+00  0.00000000000E+00  0.47198048711E+02  0.47198048711E+02  0.00000000000E+00 0. -1.
         -3   -1    0    0    0  501 -0.00000000000E+00 -0.00000000000E+00 -0.41648799526E+03  0.41648799526E+03  0.00000000000E+00 0. -1.
         35    2    1    2    0    0  0.00000000000E+00  0.00000000000E+00 -0.36928994655E+03  0.46368604397E+03  0.28040984782E+03 0.  0.
         25    2    3    3    0    0  0.28876446251E+02  0.54501945569E+02 -0.20356449679E+03  0.24675371769E+03  0.12507830195E+03 0.  0.
         25    2    3    3    0    0 -0.28876446251E+02 -0.54501945569E+02 -0.16572544976E+03  0.21693232629E+03  0.12565985147E+03 0.  0.
          5    1    4    4  502    0  0.47495174065E+02  0.88163215628E+02 -0.15543886140E+03  0.18496452033E+03  0.47000000000E+01 0.  1.
         -5    1    4    4    0  502 -0.18618727814E+02 -0.33661270059E+02 -0.48125635398E+02  0.61789197355E+02  0.47000000000E+01 0.  1.
          5    1    5    5  503    0  0.45075350855E+02 -0.79637048414E+01 -0.28320914057E+02  0.54031213410E+02  0.47000000000E+01 0. -1.
         -5    1    5    5    0  503 -0.73951797107E+02 -0.46538240728E+02 -0.13740453570E+03  0.16290111288E+03  0.47000000000E+01 0. -1.
<mgrwt>
<rscale>  0 0.28040985E+03</rscale>
<asrwt>0</asrwt>
<pdfrwt beam="1">  1        3 0.72612384E-02 0.28040985E+03</pdfrwt>
<pdfrwt beam="2">  1       -3 0.64075075E-01 0.28040985E+03</pdfrwt>
<totfact> 0.76348743E+02</totfact>
</mgrwt>
</event>
<event>
 9    1  0.7926126E-001  0.2793230E+03  0.7818608E-02  0.1096059E+00
         -2   -1    0    0    0  501 -0.00000000000E+00  0.00000000000E+00  0.14327390536E+02  0.14327390536E+02  0.00000000000E+00 0. -1.
          2   -1    0    0  501    0  0.00000000000E+00 -0.00000000000E+00 -0.13614021757E+04  0.13614021757E+04  0.00000000000E+00 0. -1.
         35    2    1    2    0    0  0.35527136788E-14  0.00000000000E+00 -0.13470747852E+04  0.13757295663E+04  0.27932304343E+03 0.  0.
         25    2    3    3    0    0  0.17345025363E+02  0.53971250904E+02 -0.45959045893E+03  0.47784888336E+03  0.11790852199E+03 0.  0.
         25    2    3    3    0    0 -0.17345025363E+02 -0.53971250904E+02 -0.88748432625E+03  0.89788068289E+03  0.12388521116E+03 0.  0.
          5    1    4    4  502    0  0.33178356687E+02  0.42093366317E+02 -0.72800801578E+02  0.90524590863E+02  0.47000000000E+01 0.  1.
         -5    1    4    4    0  502 -0.15833331324E+02  0.11877884587E+02 -0.38678965735E+03  0.38732429250E+03  0.47000000000E+01 0.  1.
          5    1    5    5  503    0 -0.55910961154E+02 -0.62686315190E+02 -0.75128177251E+03  0.75597751381E+03  0.47000000000E+01 0.  1.
         -5    1    5    5    0  503  0.38565935791E+02  0.87150642855E+01 -0.13620255374E+03  0.14190316908E+03  0.47000000000E+01 0.  1.
<mgrwt>
<rscale>  0 0.27932304E+03</rscale>
<asrwt>0</asrwt>
<pdfrwt beam="1">  1        2 0.20944650E+00 0.27932304E+03</pdfrwt>
<pdfrwt beam="2">  1       -2 0.22042138E-02 0.27932304E+03</pdfrwt>
<totfact> 0.10865923E+04</totfact>
</mgrwt>
</event>
<event>
 9    1  0.7926126E-001  0.2748705E+03  0.7818608E-02  0.1098524E+00
         -2   -1    0    0    0  501 -0.00000000000E+00  0.00000000000E+00  0.11969683476E+04  0.11969683476E+04  0.00000000000E+00 0.  1.
          2   -1    0    0  501    0  0.00000000000E+00 -0.00000000000E+00 -0.15780236202E+02  0.15780236202E+02  0.00000000000E+00 0.  1.
         35    2    1    2    0    0  0.00000000000E+00  0.14210854715E-13  0.11811881114E+04  0.12127485838E+04  0.27487046587E+03 0.  0.
         25    2    3    3    0    0  0.36673262179E+01  0.64669786463E+02  0.52795965874E+03  0.54638105322E+03  0.12488083720E+03 0.  0.
         25    2    3    3    0    0 -0.36673262179E+01 -0.64669786463E+02  0.65322845266E+03  0.66636753058E+03  0.11464137076E+03 0.  0.
          5    1    4    4  502    0  0.38111784060E+02  0.28740513097E+02  0.45738377347E+03  0.45989186926E+03  0.47000000000E+01 0.  1.
         -5    1    4    4    0  502 -0.34444457843E+02  0.35929273366E+02  0.70575885273E+02  0.86489183964E+02  0.47000000000E+01 0.  1.
          5    1    5    5  503    0 -0.44642902833E+02 -0.15760088093E+00  0.37902229958E+03  0.38167133399E+03  0.47000000000E+01 0. -1.
         -5    1    5    5    0  503  0.40975576615E+02 -0.64512185582E+02  0.27420615308E+03  0.28469619659E+03  0.47000000000E+01 0. -1.
<mgrwt>
<rscale>  0 0.27487047E+03</rscale>
<asrwt>0</asrwt>
<pdfrwt beam="1">  1        2 0.24277296E-02 0.27487047E+03</pdfrwt>
<pdfrwt beam="2">  1       -2 0.18414890E+00 0.27487047E+03</pdfrwt>
<totfact> 0.76510580E+02</totfact>
</mgrwt>
</event>
<event>
 9    1  0.7926126E-001  0.2759387E+03  0.7818608E-02  0.1097928E+00
         -2   -1    0    0    0  501 -0.00000000000E+00  0.00000000000E+00  0.51687000502E+02  0.51687000502E+02  0.00000000000E+00 0.  1.
          2   -1    0    0  501    0  0.00000000000E+00 -0.00000000000E+00 -0.36828482157E+03  0.36828482157E+03  0.00000000000E+00 0.  1.
         35    2    1    2    0    0 -0.71054273576E-14  0.35527136788E-14 -0.31659782107E+03  0.41997182207E+03  0.27593867259E+03 0.  0.
         25    2    3    3    0    0  0.32705722270E+02 -0.13480522801E+02 -0.87126678514E+02  0.15599681717E+03  0.12446911302E+03 0.  0.
         25    2    3    3    0    0 -0.32705722270E+02  0.13480522801E+02 -0.22947114255E+03  0.26397500490E+03  0.12559621484E+03 0.  0.
          5    1    4    4  502    0 -0.46902306649E+02 -0.34552759822E+01 -0.20172699781E+02  0.51388647750E+02  0.47000000000E+01 0.  1.
         -5    1    4    4    0  502  0.79608028919E+02 -0.10025246819E+02 -0.66953978733E+02  0.10460816942E+03  0.47000000000E+01 0.  1.
          5    1    5    5  503    0 -0.64878122315E+02 -0.17581920397E+02 -0.19783216121E+03  0.20899270008E+03  0.47000000000E+01 0. -1.
         -5    1    5    5    0  503  0.32172400045E+02  0.31062443198E+02 -0.31638981346E+02  0.54982304814E+02  0.47000000000E+01 0. -1.
<mgrwt>
<rscale>  0 0.27593867E+03</rscale>
<asrwt>0</asrwt>
<pdfrwt beam="1">  1        2 0.56659205E-01 0.27593867E+03</pdfrwt>
<pdfrwt beam="2">  1       -2 0.79518460E-02 0.27593867E+03</pdfrwt>
<totfact> 0.82869906E+03</totfact>
</mgrwt>
</event>
<event>
 9    1  0.7926126E-001  0.2758460E+03  0.7818608E-02  0.1097980E+00
          2   -1    0    0  501    0  0.00000000000E+00  0.00000000000E+00  0.57405954627E+03  0.57405954627E+03  0.00000000000E+00 0. -1.
         -2   -1    0    0    0  501 -0.00000000000E+00 -0.00000000000E+00 -0.33137251748E+02  0.33137251748E+02  0.00000000000E+00 0. -1.
         35    2    1    2    0    0  0.71054273576E-14  0.00000000000E+00  0.54092229452E+03  0.60719679802E+03  0.27584601286E+03 0.  0.
         25    2    3    3    0    0 -0.21163671412E+02  0.55566050617E+02  0.21678985698E+03  0.25477383493E+03  0.11990153422E+03 0.  0.
         25    2    3    3    0    0  0.21163671412E+02 -0.55566050617E+02  0.32413243755E+03  0.35242296309E+03  0.12491845689E+03 0.  0.
          5    1    4    4  502    0 -0.69078247124E+02  0.16580644372E+02  0.10295708197E+03  0.12517576731E+03  0.47000000000E+01 0. -1.
         -5    1    4    4    0  502  0.47914575712E+02  0.38985406245E+02  0.11383277501E+03  0.12959806763E+03  0.47000000000E+01 0. -1.
          5    1    5    5  503    0  0.58555320443E+02  0.12830309141E+02  0.14855061920E+03  0.16025828793E+03  0.47000000000E+01 0.  1.
         -5    1    5    5    0  503 -0.37391649030E+02 -0.68396359758E+02  0.17558181835E+03  0.19216467516E+03  0.47000000000E+01 0.  1.
<mgrwt>
<rscale>  0 0.27584601E+03</rscale>
<asrwt>0</asrwt>
<pdfrwt beam="1">  1        2 0.88316846E-01 0.27584601E+03</pdfrwt>
<pdfrwt beam="2">  1       -2 0.50980392E-02 0.27584601E+03</pdfrwt>
<totfact> 0.10050188E+04</totfact>
</mgrwt>
</event>
<event>
 9    1  0.7926126E-001  0.2759432E+03  0.7818608E-02  0.1097926E+00
          2   -1    0    0  501    0  0.00000000000E+00  0.00000000000E+00  0.20498316903E+04  0.20498316903E+04  0.00000000000E+00 0.  1.
         -2   -1    0    0    0  501 -0.00000000000E+00 -0.00000000000E+00 -0.92866975515E+01  0.92866975515E+01  0.00000000000E+00 0.  1.
         35    2    1    2    0    0 -0.71054273576E-14  0.00000000000E+00  0.20405449928E+04  0.20591183879E+04  0.27594323285E+03 0.  0.
         25    2    3    3    0    0  0.44476586984E+02  0.34946161792E+02  0.11826385926E+04  0.11905386151E+04  0.12469463626E+03 0.  0.
         25    2    3    3    0    0 -0.44476586984E+02 -0.34946161792E+02  0.85790640015E+03  0.86857977276E+03  0.12340190117E+03 0.  0.
          5    1    4    4  502    0  0.45915370556E+02 -0.24505397161E+02  0.90768687657E+03  0.90918990956E+03  0.47000000000E+01 0. -1.
         -5    1    4    4    0  502 -0.14387835722E+01  0.59451558953E+02  0.27495171604E+03  0.28134870555E+03  0.47000000000E+01 0. -1.
          5    1    5    5  503    0 -0.65405395178E+02  0.20196035075E+02  0.60328485554E+03  0.60717415333E+03  0.47000000000E+01 0. -1.
         -5    1    5    5    0  503  0.20928808194E+02 -0.55142196867E+02  0.25462154462E+03  0.26140561943E+03  0.47000000000E+01 0. -1.
<mgrwt>
<rscale>  0 0.27594323E+03</rscale>
<asrwt>0</asrwt>
<pdfrwt beam="1">  1        2 0.31535836E+00 0.27594323E+03</pdfrwt>
<pdfrwt beam="2">  1       -2 0.14287243E-02 0.27594323E+03</pdfrwt>
<totfact> 0.88607501E+03</totfact>
</mgrwt>
</event>
<event>
 9    1  0.7926126E-001  0.2763586E+03  0.7818608E-02  0.1097695E+00
          1   -1    0    0  501    0  0.00000000000E+00  0.00000000000E+00  0.25265353388E+03  0.25265353388E+03  0.00000000000E+00 0.  1.
         -1   -1    0    0    0  501 -0.00000000000E+00 -0.00000000000E+00 -0.75571918700E+02  0.75571918700E+02  0.00000000000E+00 0.  1.
         35    2    1    2    0    0 -0.53290705182E-14  0.71054273576E-14  0.17708161518E+03  0.32822545258E+03  0.27635855204E+03 0.  0.
         25    2    3    3    0    0  0.13012765037E+02  0.48083084802E+02  0.13483688109E+03  0.19045729592E+03  0.12494671653E+03 0.  0.
         25    2    3    3    0    0 -0.13012765037E+02 -0.48083084802E+02  0.42244734097E+02  0.13776815666E+03  0.12130182328E+03 0.  0.
          5    1    4    4  502    0 -0.38321367198E+02  0.65214846366E+02  0.10167989432E+03  0.12681638017E+03  0.47000000000E+01 0. -1.
         -5    1    4    4    0  502  0.51334132235E+02 -0.17131761564E+02  0.33156986765E+02  0.63640915753E+02  0.47000000000E+01 0. -1.
          5    1    5    5  503    0 -0.15337361711E+02 -0.88508970633E+02  0.34102347715E+02  0.96198402619E+02  0.47000000000E+01 0.  1.
         -5    1    5    5    0  503  0.23245966738E+01  0.40425885831E+02  0.81423863813E+01  0.41569754039E+02  0.47000000000E+01 0.  1.
<mgrwt>
<rscale>  0 0.27635855E+03</rscale>
<asrwt>0</asrwt>
<pdfrwt beam="1">  1        1 0.38869774E-01 0.27635855E+03</pdfrwt>
<pdfrwt beam="2">  1       -1 0.11626449E-01 0.27635855E+03</pdfrwt>
<totfact> 0.52121852E+03</totfact>
</mgrwt>
</event>
<event>
 9    1  0.7926126E-001  0.2758795E+03  0.7818608E-02  0.1097961E+00
          2   -1    0    0  501    0  0.00000000000E+00  0.00000000000E+00  0.77534480673E+03  0.77534480673E+03  0.00000000000E+00 0. -1.
         -2   -1    0    0    0  501 -0.00000000000E+00 -0.00000000000E+00 -0.24540525918E+02  0.24540525918E+02  0.00000000000E+00 0. -1.
         35    2    1    2    0    0  0.71054273576E-14  0.71054273576E-14  0.75080428081E+03  0.79988533264E+03  0.27587946154E+03 0.  0.
         25    2    3    3    0    0 -0.23573300673E+02 -0.38755614371E+02  0.26462781165E+03  0.29577616352E+03  0.12408852511E+03 0.  0.
         25    2    3    3    0    0  0.23573300673E+02  0.38755614371E+02  0.48617646916E+03  0.50410916912E+03  0.12530282149E+03 0.  0.
          5    1    4    4  502    0  0.34181184638E+02 -0.60678031239E+02  0.15111045950E+03  0.16645311000E+03  0.47000000000E+01 0.  1.
         -5    1    4    4    0  502 -0.57754485312E+02  0.21922416868E+02  0.11351735214E+03  0.12932305352E+03  0.47000000000E+01 0.  1.
          5    1    5    5  503    0  0.44254742619E+02 -0.34406016604E+02  0.17912502565E+03  0.18775015589E+03  0.47000000000E+01 0. -1.
         -5    1    5    5    0  503 -0.20681441945E+02  0.73161630975E+02  0.30705144352E+03  0.31635901323E+03  0.47000000000E+01 0. -1.
<mgrwt>
<rscale>  0 0.27587946E+03</rscale>
<asrwt>0</asrwt>
<pdfrwt beam="1">  1        2 0.11928380E+00 0.27587946E+03</pdfrwt>
<pdfrwt beam="2">  1       -2 0.37754661E-02 0.27587946E+03</pdfrwt>
<totfact> 0.11035227E+04</totfact>
</mgrwt>
</event>
<event>
 9    1  0.7926126E-001  0.2869731E+03  0.7818608E-02  0.1091940E+00
         -2   -1    0    0    0  501 -0.00000000000E+00  0.00000000000E+00  0.37108695629E+02  0.37108695629E+02  0.00000000000E+00 0. -1.
          2   -1    0    0  501    0  0.00000000000E+00 -0.00000000000E+00 -0.55481310229E+03  0.55481310229E+03  0.00000000000E+00 0. -1.
         35    2    1    2    0    0 -0.71054273576E-14  0.00000000000E+00 -0.51770440666E+03  0.59192179792E+03  0.28697310357E+03 0.  0.
         25    2    3    3    0    0 -0.32895099858E+02  0.61194336933E+02 -0.27955424981E+03  0.31404021404E+03  0.12507534921E+03 0.  0.
         25    2    3    3    0    0  0.32895099858E+02 -0.61194336933E+02 -0.23815015685E+03  0.27788158388E+03  0.12520320676E+03 0.  0.
          5    1    4    4  502    0  0.46005741054E+02  0.40208482707E+02 -0.12205829767E+03  0.13657806676E+03  0.47000000000E+01 0.  1.
         -5    1    4    4    0  502 -0.78900840912E+02  0.20985854225E+02 -0.15749595214E+03  0.17746214727E+03  0.47000000000E+01 0.  1.
          5    1    5    5  503    0  0.84676325004E+01  0.26633804349E+02 -0.67574459074E+01  0.29134402507E+02  0.47000000000E+01 0.  1.
         -5    1    5    5    0  503  0.24427467358E+02 -0.87828141282E+02 -0.23139271095E+03  0.24874718137E+03  0.47000000000E+01 0.  1.
<mgrwt>
<rscale>  0 0.28697310E+03</rscale>
<asrwt>0</asrwt>
<pdfrwt beam="1">  1        2 0.85355865E-01 0.28697310E+03</pdfrwt>
<pdfrwt beam="2">  1       -2 0.57090299E-02 0.28697310E+03</pdfrwt>
<totfact> 0.88047949E+03</totfact>
</mgrwt>
</event>
<event>
 9    1  0.7926126E-001  0.2628047E+03  0.7818608E-02  0.1105470E+00
         -1   -1    0    0    0  501 -0.00000000000E+00  0.00000000000E+00  0.59119305580E+02  0.59119305580E+02  0.00000000000E+00 0.  1.
          1   -1    0    0  501    0  0.00000000000E+00 -0.00000000000E+00 -0.29206325445E+03  0.29206325445E+03  0.00000000000E+00 0.  1.
         35    2    1    2    0    0 -0.17763568394E-14  0.14210854715E-13 -0.23294394887E+03  0.35118256003E+03  0.26280469393E+03 0.  0.
         25    2    3    3    0    0  0.57273614760E+01  0.22897310077E+02 -0.14175898253E+03  0.19040618735E+03  0.12490723588E+03 0.  0.
         25    2    3    3    0    0 -0.57273614760E+01 -0.22897310077E+02 -0.91184966343E+02  0.16077637268E+03  0.13029679370E+03 0.  0.
          5    1    4    4  502    0  0.12570391860E+01  0.74656992067E+02 -0.79134772875E+02  0.10890201509E+03  0.47000000000E+01 0. -1.
         -5    1    4    4    0  502  0.44703222900E+01 -0.51759681990E+02 -0.62624209652E+02  0.81504172259E+02  0.47000000000E+01 0. -1.
          5    1    5    5  503    0  0.28957721827E+02  0.39250062382E+02 -0.55311403365E+01  0.49313289931E+02  0.47000000000E+01 0. -1.
         -5    1    5    5    0  503 -0.34685083303E+02 -0.62147372459E+02 -0.85653826006E+02  0.11146308275E+03  0.47000000000E+01 0. -1.
<mgrwt>
<rscale>  0 0.26280469E+03</rscale>
<asrwt>0</asrwt>
<pdfrwt beam="1">  1        1 0.44932808E-01 0.26280469E+03</pdfrwt>
<pdfrwt beam="2">  1       -1 0.90952779E-02 0.26280469E+03</pdfrwt>
<totfact> 0.63430789E+03</totfact>
</mgrwt>
</event>
<event>
 9    1  0.7926126E-001  0.2827372E+03  0.7818608E-02  0.1094203E+00
          1   -1    0    0  501    0  0.00000000000E+00  0.00000000000E+00  0.87898162177E+03  0.87898162177E+03  0.00000000000E+00 0. -1.
         -1   -1    0    0    0  501 -0.00000000000E+00 -0.00000000000E+00 -0.22736632609E+02  0.22736632609E+02  0.00000000000E+00 0. -1.
         35    2    1    2    0    0  0.00000000000E+00  0.00000000000E+00  0.85624498916E+03  0.90171825438E+03  0.28273720805E+03 0.  0.
         25    2    3    3    0    0 -0.20590818866E+02  0.21566109935E+02  0.24146208398E+03  0.27325786981E+03  0.12440597451E+03 0.  0.
         25    2    3    3    0    0  0.20590818866E+02 -0.21566109935E+02  0.61478290517E+03  0.62846038457E+03  0.12694627034E+03 0.  0.
          5    1    4    4  502    0 -0.42146259330E+02 -0.41425244217E+02  0.90353512773E+02  0.10806574529E+03  0.47000000000E+01 0. -1.
         -5    1    4    4    0  502  0.21555440465E+02  0.62991354152E+02  0.15110857121E+03  0.16519212453E+03  0.47000000000E+01 0. -1.
          5    1    5    5  503    0 -0.18478743919E+02 -0.56306222180E+02  0.48241958757E+03  0.48606851688E+03  0.47000000000E+01 0. -1.
         -5    1    5    5    0  503  0.39069562785E+02  0.34740112246E+02  0.13236331760E+03  0.14239186768E+03  0.47000000000E+01 0. -1.
<mgrwt>
<rscale>  0 0.28273721E+03</rscale>
<asrwt>0</asrwt>
<pdfrwt beam="1">  1        1 0.13522792E+00 0.28273721E+03</pdfrwt>
<pdfrwt beam="2">  1       -1 0.34979442E-02 0.28273721E+03</pdfrwt>
<totfact> 0.59581550E+03</totfact>
</mgrwt>
</event>
<event>
 9    1  0.7926126E-001  0.2736168E+03  0.7818608E-02  0.1099227E+00
          2   -1    0    0  501    0  0.00000000000E+00  0.00000000000E+00  0.10967676939E+04  0.10967676939E+04  0.00000000000E+00 0.  1.
         -2   -1    0    0    0  501 -0.00000000000E+00 -0.00000000000E+00 -0.17065180321E+02  0.17065180321E+02  0.00000000000E+00 0.  1.
         35    2    1    2    0    0  0.71054273576E-14  0.14210854715E-13  0.10797025136E+04  0.11138328743E+04  0.27361680114E+03 0.  0.
         25    2    3    3    0    0  0.36908479528E+02 -0.34131738429E+02  0.63289300482E+03  0.64714671017E+03  0.12537183698E+03 0.  0.
         25    2    3    3    0    0 -0.36908479528E+02  0.34131738429E+02  0.44680950881E+03  0.46668616410E+03  0.12502010706E+03 0.  0.
          5    1    4    4  502    0  0.73266894071E+02 -0.36416832682E+02  0.55510738175E+03  0.56112433448E+03  0.47000000000E+01 0. -1.
         -5    1    4    4    0  502 -0.36358414543E+02  0.22850942524E+01  0.77785623065E+02  0.86022375690E+02  0.47000000000E+01 0. -1.
          5    1    5    5  503    0  0.73772760556E+00  0.58572270241E+02  0.38866682969E+03  0.39308427796E+03  0.47000000000E+01 0. -1.
         -5    1    5    5    0  503 -0.37646207134E+02 -0.24440531812E+02  0.58142679119E+02  0.73601886131E+02  0.47000000000E+01 0. -1.
<mgrwt>
<rscale>  0 0.27361680E+03</rscale>
<asrwt>0</asrwt>
<pdfrwt beam="1">  1        2 0.16873344E+00 0.27361680E+03</pdfrwt>
<pdfrwt beam="2">  1       -2 0.26254132E-02 0.27361680E+03</pdfrwt>
<totfact> 0.11832225E+04</totfact>
</mgrwt>
</event>
<event>
 9    1  0.7926126E-001  0.2764922E+03  0.7818608E-02  0.1097620E+00
         -2   -1    0    0    0  501 -0.00000000000E+00  0.00000000000E+00  0.12515483045E+02  0.12515483045E+02  0.00000000000E+00 0.  1.
          2   -1    0    0  501    0  0.00000000000E+00 -0.00000000000E+00 -0.15270673898E+04  0.15270673898E+04  0.00000000000E+00 0.  1.
         35    2    1    2    0    0 -0.71054273576E-14  0.71054273576E-14 -0.15145519067E+04  0.15395828728E+04  0.27649221346E+03 0.  0.
         25    2    3    3    0    0  0.38288268325E+02  0.34006274378E+02 -0.59240237599E+03  0.60759500519E+03  0.12493477123E+03 0.  0.
         25    2    3    3    0    0 -0.38288268325E+02 -0.34006274378E+02 -0.92214953074E+03  0.93198786763E+03  0.12497683858E+03 0.  0.
          5    1    4    4  502    0  0.60062675146E+02  0.49607518644E+02 -0.20681409737E+03  0.22104884466E+03  0.47000000000E+01 0. -1.
         -5    1    4    4    0  502 -0.21774406821E+02 -0.15601244266E+02 -0.38558827862E+03  0.38654616053E+03  0.47000000000E+01 0. -1.
          5    1    5    5  503    0  0.36195079944E+02  0.18327776164E+02 -0.20158530335E+03  0.20568110199E+03  0.47000000000E+01 0. -1.
         -5    1    5    5    0  503 -0.74483348269E+02 -0.52334050541E+02 -0.72056422739E+03  0.72630676563E+03  0.47000000000E+01 0. -1.
<mgrwt>
<rscale>  0 0.27649221E+03</rscale>
<asrwt>0</asrwt>
<pdfrwt beam="1">  1        2 0.23493323E+00 0.27649221E+03</pdfrwt>
<pdfrwt beam="2">  1       -2 0.19254607E-02 0.27649221E+03</pdfrwt>
<totfact> 0.10790075E+04</totfact>
</mgrwt>
</event>
<event>
 9    1  0.7926126E-001  0.2762835E+03  0.7818608E-02  0.1097736E+00
          2   -1    0    0  501    0  0.00000000000E+00  0.00000000000E+00  0.77197091142E+03  0.77197091142E+03  0.00000000000E+00 0.  1.
         -2   -1    0    0    0  501 -0.00000000000E+00 -0.00000000000E+00 -0.24720027459E+02  0.24720027459E+02  0.00000000000E+00 0.  1.
         35    2    1    2    0    0 -0.71054273576E-14  0.00000000000E+00  0.74725088396E+03  0.79669093888E+03  0.27628349301E+03 0.  0.
         25    2    3    3    0    0 -0.43610726185E+02  0.22045584844E+02  0.46611346765E+03  0.48510273174E+03  0.12519980978E+03 0.  0.
         25    2    3    3    0    0  0.43610726185E+02 -0.22045584844E+02  0.28113741631E+03  0.31158820713E+03  0.12514415978E+03 0.  0.
          5    1    4    4  502    0 -0.40291172082E+02  0.20085817320E+02  0.47343088718E+03  0.47558985853E+03  0.47000000000E+01 0.  1.
         -5    1    4    4    0  502 -0.33195541036E+01  0.19597675245E+01 -0.73174195260E+01  0.95128732103E+01  0.47000000000E+01 0.  1.
          5    1    5    5  503    0  0.33616455417E+02  0.33761404798E+02  0.35902718749E+02  0.59841404916E+02  0.47000000000E+01 0.  1.
         -5    1    5    5    0  503  0.99942707685E+01 -0.55806989642E+02  0.24523469756E+03  0.25174680222E+03  0.47000000000E+01 0.  1.
<mgrwt>
<rscale>  0 0.27628349E+03</rscale>
<asrwt>0</asrwt>
<pdfrwt beam="1">  1        2 0.11876474E+00 0.27628349E+03</pdfrwt>
<pdfrwt beam="2">  1       -2 0.38030817E-02 0.27628349E+03</pdfrwt>
<totfact> 0.10975722E+04</totfact>
</mgrwt>
</event>
<event>
 9    1  0.7926126E-001  0.2793469E+03  0.7818608E-02  0.1096046E+00
          1   -1    0    0  501    0  0.00000000000E+00  0.00000000000E+00  0.93128013912E+03  0.93128013912E+03  0.00000000000E+00 0.  1.
         -1   -1    0    0    0  501 -0.00000000000E+00 -0.00000000000E+00 -0.20948230637E+02  0.20948230637E+02  0.00000000000E+00 0.  1.
         35    2    1    2    0    0  0.71054273576E-14  0.00000000000E+00  0.91033190849E+03  0.95222836976E+03  0.27934688931E+03 0.  0.
         25    2    3    3    0    0 -0.88149667185E+00 -0.75778048582E+01  0.25088712574E+03  0.28069454289E+03  0.12564583711E+03 0.  0.
         25    2    3    3    0    0  0.88149667185E+00  0.75778048582E+01  0.65944478275E+03  0.67153382687E+03  0.12661776723E+03 0.  0.
          5    1    4    4  502    0 -0.44100770743E+02 -0.31223546735E+02  0.20879960476E+03  0.21572935080E+03  0.47000000000E+01 0. -1.
         -5    1    4    4    0  502  0.43219274071E+02  0.23645741877E+02  0.42087520978E+02  0.64965192082E+02  0.47000000000E+01 0. -1.
          5    1    5    5  503    0 -0.10770222149E+02 -0.36836196598E+02  0.67480697793E+02  0.77772987853E+02  0.47000000000E+01 0. -1.
         -5    1    5    5    0  503  0.11651718821E+02  0.44414001456E+02  0.59196408496E+03  0.59376083902E+03  0.47000000000E+01 0. -1.
<mgrwt>
<rscale>  0 0.27934689E+03</rscale>
<asrwt>0</asrwt>
<pdfrwt beam="1">  1        1 0.14327384E+00 0.27934689E+03</pdfrwt>
<pdfrwt beam="2">  1       -1 0.32228054E-02 0.27934689E+03</pdfrwt>
<totfact> 0.61188073E+03</totfact>
</mgrwt>
</event>
<event>
 9    1  0.7926126E-001  0.2752401E+03  0.7818608E-02  0.1098317E+00
          2   -1    0    0  501    0  0.00000000000E+00  0.00000000000E+00  0.48623747906E+03  0.48623747906E+03  0.00000000000E+00 0.  1.
         -2   -1    0    0    0  501 -0.00000000000E+00 -0.00000000000E+00 -0.38950676689E+02  0.38950676689E+02  0.00000000000E+00 0.  1.
         35    2    1    2    0    0 -0.35527136788E-14  0.35527136788E-14  0.44728680237E+03  0.52518815574E+03  0.27524010493E+03 0.  0.
         25    2    3    3    0    0  0.63021793612E+01 -0.90076358348E+01  0.32144158042E+03  0.34662523677E+03  0.12924206041E+03 0.  0.
         25    2    3    3    0    0 -0.63021793612E+01  0.90076358348E+01  0.12584522195E+03  0.17856291897E+03  0.12620158944E+03 0.  0.
          5    1    4    4  502    0 -0.35001779706E+02  0.16326965423E+02  0.28000747821E+03  0.28269766931E+03  0.47000000000E+01 0. -1.
         -5    1    4    4    0  502  0.41303959067E+02 -0.25334601258E+02  0.41434102210E+02  0.63927567461E+02  0.47000000000E+01 0. -1.
          5    1    5    5  503    0  0.11551933271E+02  0.39043775160E+02  0.13586282688E+03  0.14191075107E+03  0.47000000000E+01 0. -1.
         -5    1    5    5    0  503 -0.17854112632E+02 -0.30036139325E+02 -0.10017604930E+02  0.36652167903E+02  0.47000000000E+01 0. -1.
<mgrwt>
<rscale>  0 0.27524010E+03</rscale>
<asrwt>0</asrwt>
<pdfrwt beam="1">  1        2 0.74805762E-01 0.27524010E+03</pdfrwt>
<pdfrwt beam="2">  1       -2 0.59924121E-02 0.27524010E+03</pdfrwt>
<totfact> 0.94716803E+03</totfact>
</mgrwt>
</event>
<event>
 9    1  0.7926126E-001  0.2728758E+03  0.7818608E-02  0.1099645E+00
          2   -1    0    0  501    0  0.00000000000E+00  0.00000000000E+00  0.18997521556E+03  0.18997521556E+03  0.00000000000E+00 0.  1.
         -2   -1    0    0    0  501 -0.00000000000E+00 -0.00000000000E+00 -0.97988050912E+02  0.97988050912E+02  0.00000000000E+00 0.  1.
         35    2    1    2    0    0  0.35527136788E-14  0.00000000000E+00  0.91987164646E+02  0.28796326647E+03  0.27287580394E+03 0.  0.
         25    2    3    3    0    0 -0.24417896516E+02  0.47188270836E+02  0.30975831641E+02  0.13921353010E+03  0.12489170605E+03 0.  0.
         25    2    3    3    0    0  0.24417896516E+02 -0.47188270836E+02  0.61011333006E+02  0.14874973637E+03  0.12482441565E+03 0.  0.
          5    1    4    4  502    0 -0.31576922569E+02 -0.29371374550E+02  0.43189275960E+02  0.61214240499E+02  0.47000000000E+01 0.  1.
         -5    1    4    4    0  502  0.71590260534E+01  0.76559645386E+02 -0.12213444319E+02  0.77999289598E+02  0.47000000000E+01 0.  1.
          5    1    5    5  503    0  0.32095107543E+02 -0.83932956855E+02  0.64567889324E+02  0.11075170205E+03  0.47000000000E+01 0.  1.
         -5    1    5    5    0  503 -0.76772110266E+01  0.36744686019E+02 -0.35565563178E+01  0.37998034326E+02  0.47000000000E+01 0.  1.
<mgrwt>
<rscale>  0 0.27287580E+03</rscale>
<asrwt>0</asrwt>
<pdfrwt beam="1">  1        2 0.29226956E-01 0.27287580E+03</pdfrwt>
<pdfrwt beam="2">  1       -2 0.15075085E-01 0.27287580E+03</pdfrwt>
<totfact> 0.60801226E+03</totfact>
</mgrwt>
</event>
