<event>
 4    1  0.1726503E-004  0.3401661E+03  0.7818608E-02  0.1066725E+00
          2   -1    0    0  501    0  0.00000000000E+00  0.00000000000E+00  0.96242374185E+03  0.96242374185E+03  0.00000000000E+00 0.  1.
         -2   -1    0    0    0  501 -0.00000000000E+00 -0.00000000000E+00 -0.30057697277E+02  0.30057697277E+02  0.00000000000E+00 0.  1.
         25    1    1    2    0    0 -0.11590782462E+03 -0.28900991554E+02  0.41928700939E+03  0.45218523568E+03  0.12000000000E+03 0.  0.
         25    1    1    2    0    0  0.11590782462E+03  0.28900991554E+02  0.51307903518E+03  0.54029620345E+03  0.12000000000E+03 0.  0.
<mgrwt>
<rscale>  0 0.34016609E+03</rscale>
<asrwt>0</asrwt>
<pdfrwt beam="1">  1        2 0.14806517E+00 0.34016609E+03</pdfrwt>
<pdfrwt beam="2">  1       -2 0.46242619E-02 0.34016609E+03</pdfrwt>
<totfact> 0.61352918E+03</totfact>
</mgrwt>
</event>
<event>
 4    1  0.1726503E-004  0.2763275E+03  0.7818608E-02  0.1097712E+00
         -2   -1    0    0    0  501 -0.00000000000E+00  0.00000000000E+00  0.73787349933E+02  0.73787349933E+02  0.00000000000E+00 0.  1.
          2   -1    0    0  501    0  0.00000000000E+00 -0.00000000000E+00 -0.25870593322E+03  0.25870593322E+03  0.00000000000E+00 0.  1.
         25    1    1    2    0    0  0.47938782169E+02  0.32843128974E+02 -0.48868339815E+02  0.14200321332E+03  0.12000000000E+03 0.  0.
         25    1    1    2    0    0 -0.47938782169E+02 -0.32843128974E+02 -0.13605024347E+03  0.19049006983E+03  0.12000000000E+03 0.  0.
<mgrwt>
<rscale>  0 0.27632752E+03</rscale>
<asrwt>0</asrwt>
<pdfrwt beam="1">  1        2 0.39800914E-01 0.27632752E+03</pdfrwt>
<pdfrwt beam="2">  1       -2 0.11351900E-01 0.27632752E+03</pdfrwt>
<totfact> 0.69000488E+03</totfact>
</mgrwt>
</event>
<event>
 4    1  0.1726503E-004  0.2517800E+03  0.7818608E-02  0.1112185E+00
          2   -1    0    0  501    0  0.00000000000E+00  0.00000000000E+00  0.71283093300E+03  0.71283093300E+03  0.00000000000E+00 0. -1.
         -2   -1    0    0    0  501 -0.00000000000E+00 -0.00000000000E+00 -0.22232889685E+02  0.22232889685E+02  0.00000000000E+00 0. -1.
         25    1    1    2    0    0 -0.19046191702E+02  0.32439265346E+02  0.32847007769E+03  0.35172099069E+03  0.12000000000E+03 0.  0.
         25    1    1    2    0    0  0.19046191702E+02 -0.32439265346E+02  0.36212796563E+03  0.38334283200E+03  0.12000000000E+03 0.  0.
<mgrwt>
<rscale>  0 0.25178000E+03</rscale>
<asrwt>0</asrwt>
<pdfrwt beam="1">  1        2 0.10966628E+00 0.25178000E+03</pdfrwt>
<pdfrwt beam="2">  1       -2 0.34204451E-02 0.25178000E+03</pdfrwt>
<totfact> 0.14143258E+04</totfact>
</mgrwt>
</event>
<event>
 4    1  0.1726503E-004  0.5756847E+03  0.7818608E-02  0.9957177E-01
          3   -1    0    0  501    0  0.00000000000E+00  0.00000000000E+00  0.19699502199E+04  0.19699502199E+04  0.00000000000E+00 0. -1.
         -3   -1    0    0    0  501 -0.00000000000E+00 -0.00000000000E+00 -0.42058537903E+02  0.42058537903E+02  0.00000000000E+00 0. -1.
         25    1    1    2    0    0 -0.21866779381E+03  0.13546869068E+03  0.79684848666E+03  0.84589294884E+03  0.12000000000E+03 0.  0.
         25    1    1    2    0    0  0.21866779381E+03 -0.13546869068E+03  0.11310431954E+04  0.11661158090E+04  0.12000000000E+03 0.  0.
<mgrwt>
<rscale>  0 0.57568473E+03</rscale>
<asrwt>0</asrwt>
<pdfrwt beam="1">  1        3 0.30306919E+00 0.57568473E+03</pdfrwt>
<pdfrwt beam="2">  1       -3 0.64705458E-02 0.57568473E+03</pdfrwt>
<totfact> 0.16183453E+01</totfact>
</mgrwt>
</event>
<event>
 4    1  0.1726503E-004  0.3735918E+03  0.7818608E-02  0.1053328E+00
          3   -1    0    0  501    0  0.00000000000E+00  0.00000000000E+00  0.19719755470E+03  0.19719755470E+03  0.00000000000E+00 0. -1.
         -3   -1    0    0    0  501 -0.00000000000E+00 -0.00000000000E+00 -0.17694294804E+03  0.17694294804E+03  0.00000000000E+00 0. -1.
         25    1    1    2    0    0  0.33079285559E+02 -0.19799895393E+02 -0.12793901577E+03  0.17959584279E+03  0.12000000000E+03 0.  0.
         25    1    1    2    0    0 -0.33079285559E+02  0.19799895393E+02  0.14819362242E+03  0.19454465996E+03  0.12000000000E+03 0.  0.
<mgrwt>
<rscale>  0 0.37359185E+03</rscale>
<asrwt>0</asrwt>
<pdfrwt beam="1">  1        3 0.30338085E-01 0.37359185E+03</pdfrwt>
<pdfrwt beam="2">  1       -3 0.27221992E-01 0.37359185E+03</pdfrwt>
<totfact> 0.35135843E+02</totfact>
</mgrwt>
</event>
<event>
 4    1  0.1726503E-004  0.3998454E+03  0.7818608E-02  0.1043833E+00
          1   -1    0    0  501    0  0.00000000000E+00  0.00000000000E+00  0.24761030636E+02  0.24761030636E+02  0.00000000000E+00 0. -1.
         -1   -1    0    0    0  501 -0.00000000000E+00 -0.00000000000E+00 -0.16141928664E+04  0.16141928664E+04  0.00000000000E+00 0. -1.
         25    1    1    2    0    0 -0.19369139510E+01 -0.12958618110E+03 -0.11786374978E+04  0.11917980875E+04  0.12000000000E+03 0.  0.
         25    1    1    2    0    0  0.19369139510E+01  0.12958618110E+03 -0.41079433798E+03  0.44715580963E+03  0.12000000000E+03 0.  0.
<mgrwt>
<rscale>  0 0.39984537E+03</rscale>
<asrwt>0</asrwt>
<pdfrwt beam="1">  1        1 0.38093891E-02 0.39984537E+03</pdfrwt>
<pdfrwt beam="2">  1       -1 0.24833738E+00 0.39984537E+03</pdfrwt>
<totfact> 0.19632317E+02</totfact>
</mgrwt>
</event>
<event>
 4    1  0.1726503E-004  0.2712072E+03  0.7818608E-02  0.1100591E+00
          1   -1    0    0  501    0  0.00000000000E+00  0.00000000000E+00  0.15096142611E+04  0.15096142611E+04  0.00000000000E+00 0. -1.
         -1   -1    0    0    0  501 -0.00000000000E+00 -0.00000000000E+00 -0.12180820067E+02  0.12180820067E+02  0.00000000000E+00 0. -1.
         25    1    1    2    0    0 -0.33650218503E+02  0.28740974459E+01  0.10481535702E+04  0.10555408587E+04  0.12000000000E+03 0.  0.
         25    1    1    2    0    0  0.33650218503E+02 -0.28740974459E+01  0.44927987084E+03  0.46625422249E+03  0.12000000000E+03 0.  0.
<mgrwt>
<rscale>  0 0.27120722E+03</rscale>
<asrwt>0</asrwt>
<pdfrwt beam="1">  1        1 0.23224820E+00 0.27120722E+03</pdfrwt>
<pdfrwt beam="2">  1       -1 0.18739735E-02 0.27120722E+03</pdfrwt>
<totfact> 0.53178367E+03</totfact>
</mgrwt>
</event>
<event>
 4    1  0.1726503E-004  0.3159388E+03  0.7818608E-02  0.1077534E+00
         -2   -1    0    0    0  501 -0.00000000000E+00  0.00000000000E+00  0.17656945891E+02  0.17656945891E+02  0.00000000000E+00 0.  1.
          2   -1    0    0  501    0  0.00000000000E+00 -0.00000000000E+00 -0.14132872947E+04  0.14132872947E+04  0.00000000000E+00 0.  1.
         25    1    1    2    0    0  0.28282154021E+02  0.60509944378E+02 -0.10513526165E+04  0.10602847060E+04  0.12000000000E+03 0.  0.
         25    1    1    2    0    0 -0.28282154021E+02 -0.60509944378E+02 -0.34427773235E+03  0.37065953461E+03  0.12000000000E+03 0.  0.
<mgrwt>
<rscale>  0 0.31593884E+03</rscale>
<asrwt>0</asrwt>
<pdfrwt beam="1">  1        2 0.21742882E+00 0.31593884E+03</pdfrwt>
<pdfrwt beam="2">  1       -2 0.27164532E-02 0.31593884E+03</pdfrwt>
<totfact> 0.74842117E+03</totfact>
</mgrwt>
</event>
<event>
 4    1  0.1726503E-004  0.2914108E+03  0.7818608E-02  0.1089615E+00
         -2   -1    0    0    0  501 -0.00000000000E+00  0.00000000000E+00  0.25397655960E+02  0.25397655960E+02  0.00000000000E+00 0. -1.
          2   -1    0    0  501    0  0.00000000000E+00 -0.00000000000E+00 -0.83590647628E+03  0.83590647628E+03  0.00000000000E+00 0. -1.
         25    1    1    2    0    0  0.62492764846E+02 -0.19773180889E+02 -0.55403009604E+03  0.57065372307E+03  0.12000000000E+03 0.  0.
         25    1    1    2    0    0 -0.62492764846E+02  0.19773180889E+02 -0.25647872429E+03  0.29065040917E+03  0.12000000000E+03 0.  0.
<mgrwt>
<rscale>  0 0.29141081E+03</rscale>
<asrwt>0</asrwt>
<pdfrwt beam="1">  1        2 0.12860101E+00 0.29141081E+03</pdfrwt>
<pdfrwt beam="2">  1       -2 0.39073314E-02 0.29141081E+03</pdfrwt>
<totfact> 0.95364114E+03</totfact>
</mgrwt>
</event>
<event>
 4    1  0.1726503E-004  0.2901972E+03  0.7818608E-02  0.1090246E+00
         -1   -1    0    0    0  501 -0.00000000000E+00  0.00000000000E+00  0.27347253112E+02  0.27347253112E+02  0.00000000000E+00 0. -1.
          1   -1    0    0  501    0  0.00000000000E+00 -0.00000000000E+00 -0.76986196180E+03  0.76986196180E+03  0.00000000000E+00 0. -1.
         25    1    1    2    0    0 -0.45913644107E+02  0.12490020419E+02 -0.55326467668E+03  0.56812486813E+03  0.12000000000E+03 0.  0.
         25    1    1    2    0    0  0.45913644107E+02 -0.12490020419E+02 -0.18925003201E+03  0.22908434678E+03  0.12000000000E+03 0.  0.
<mgrwt>
<rscale>  0 0.29019724E+03</rscale>
<asrwt>0</asrwt>
<pdfrwt beam="1">  1        1 0.11844028E+00 0.29019724E+03</pdfrwt>
<pdfrwt beam="2">  1       -1 0.42072703E-02 0.29019724E+03</pdfrwt>
<totfact> 0.55724752E+03</totfact>
</mgrwt>
</event>
<event>
 4    1  0.1726503E-004  0.3346610E+03  0.7818608E-02  0.1069093E+00
          1   -1    0    0  501    0  0.00000000000E+00  0.00000000000E+00  0.35205444287E+03  0.35205444287E+03  0.00000000000E+00 0. -1.
         -1   -1    0    0    0  501 -0.00000000000E+00 -0.00000000000E+00 -0.79531700478E+02  0.79531700478E+02  0.00000000000E+00 0. -1.
         25    1    1    2    0    0  0.10503318968E+03  0.15650417561E+02  0.19841235049E+03  0.25503797233E+03  0.12000000000E+03 0.  0.
         25    1    1    2    0    0 -0.10503318968E+03 -0.15650417561E+02  0.74110391911E+02  0.17654817103E+03  0.12000000000E+03 0.  0.
<mgrwt>
<rscale>  0 0.33466095E+03</rscale>
<asrwt>0</asrwt>
<pdfrwt beam="1">  1        1 0.54162221E-01 0.33466095E+03</pdfrwt>
<pdfrwt beam="2">  1       -1 0.12235646E-01 0.33466095E+03</pdfrwt>
<totfact> 0.31792037E+03</totfact>
</mgrwt>
</event>
<event>
 4    1  0.1726503E-004  0.2948636E+03  0.7818608E-02  0.1087837E+00
          2   -1    0    0  501    0  0.00000000000E+00  0.00000000000E+00  0.11926492862E+03  0.11926492862E+03  0.00000000000E+00 0. -1.
         -2   -1    0    0    0  501 -0.00000000000E+00 -0.00000000000E+00 -0.18225091561E+03  0.18225091561E+03  0.00000000000E+00 0. -1.
         25    1    1    2    0    0 -0.35957326942E+02  0.47233883091E+02 -0.94628726770E+02  0.16394683590E+03  0.12000000000E+03 0.  0.
         25    1    1    2    0    0  0.35957326942E+02 -0.47233883091E+02  0.31642739781E+02  0.13756900833E+03  0.12000000000E+03 0.  0.
<mgrwt>
<rscale>  0 0.29486365E+03</rscale>
<asrwt>0</asrwt>
<pdfrwt beam="1">  1        2 0.18348451E-01 0.29486365E+03</pdfrwt>
<pdfrwt beam="2">  1       -2 0.28038602E-01 0.29486365E+03</pdfrwt>
<totfact> 0.35434272E+03</totfact>
</mgrwt>
</event>
<event>
 4    1  0.1726503E-004  0.3657234E+03  0.7818608E-02  0.1056340E+00
          2   -1    0    0  501    0  0.00000000000E+00  0.00000000000E+00  0.43709943331E+03  0.43709943331E+03  0.00000000000E+00 0. -1.
         -2   -1    0    0    0  501 -0.00000000000E+00 -0.00000000000E+00 -0.76500679402E+02  0.76500679402E+02  0.00000000000E+00 0. -1.
         25    1    1    2    0    0 -0.12486801686E+03  0.58211873178E+02  0.16962640920E+03  0.24930656331E+03  0.12000000000E+03 0.  0.
         25    1    1    2    0    0  0.12486801686E+03 -0.58211873178E+02  0.19097234472E+03  0.26429354941E+03  0.12000000000E+03 0.  0.
<mgrwt>
<rscale>  0 0.36572341E+03</rscale>
<asrwt>0</asrwt>
<pdfrwt beam="1">  1        2 0.67246065E-01 0.36572341E+03</pdfrwt>
<pdfrwt beam="2">  1       -2 0.11769336E-01 0.36572341E+03</pdfrwt>
<totfact> 0.37098719E+03</totfact>
</mgrwt>
</event>
<event>
 4    1  0.1726503E-004  0.2881384E+03  0.7818608E-02  0.1091325E+00
         -2   -1    0    0    0  501 -0.00000000000E+00  0.00000000000E+00  0.37722238953E+02  0.37722238953E+02  0.00000000000E+00 0.  1.
          2   -1    0    0  501    0  0.00000000000E+00 -0.00000000000E+00 -0.55023069696E+03  0.55023069696E+03  0.00000000000E+00 0.  1.
         25    1    1    2    0    0  0.61959667352E+02 -0.11505131299E+02 -0.15661140020E+03  0.20711952853E+03  0.12000000000E+03 0.  0.
         25    1    1    2    0    0 -0.61959667352E+02  0.11505131299E+02 -0.35589705781E+03  0.38083340739E+03  0.12000000000E+03 0.  0.
<mgrwt>
<rscale>  0 0.28813840E+03</rscale>
<asrwt>0</asrwt>
<pdfrwt beam="1">  1        2 0.84650869E-01 0.28813840E+03</pdfrwt>
<pdfrwt beam="2">  1       -2 0.58034219E-02 0.28813840E+03</pdfrwt>
<totfact> 0.86691327E+03</totfact>
</mgrwt>
</event>
<event>
 4    1  0.1726503E-004  0.4879606E+03  0.7818608E-02  0.1016970E+00
         -2   -1    0    0    0  501 -0.00000000000E+00  0.00000000000E+00  0.15402243742E+03  0.15402243742E+03  0.00000000000E+00 0.  1.
          2   -1    0    0  501    0  0.00000000000E+00 -0.00000000000E+00 -0.38647867525E+03  0.38647867525E+03  0.00000000000E+00 0.  1.
         25    1    1    2    0    0 -0.68494729827E+02 -0.18675795697E+03 -0.19879495742E+03  0.30576052329E+03  0.12000000000E+03 0.  0.
         25    1    1    2    0    0  0.68494729827E+02  0.18675795697E+03 -0.33661280403E+02  0.23474058938E+03  0.12000000000E+03 0.  0.
<mgrwt>
<rscale>  0 0.48796060E+03</rscale>
<asrwt>0</asrwt>
<pdfrwt beam="1">  1        2 0.59458257E-01 0.48796060E+03</pdfrwt>
<pdfrwt beam="2">  1       -2 0.23695760E-01 0.48796060E+03</pdfrwt>
<totfact> 0.13037985E+03</totfact>
</mgrwt>
</event>
<event>
 4    1  0.1726503E-004  0.3949588E+03  0.7818608E-02  0.1045539E+00
         -1   -1    0    0    0  501 -0.00000000000E+00  0.00000000000E+00  0.94158472970E+02  0.94158472970E+02  0.00000000000E+00 0. -1.
          1   -1    0    0  501    0  0.00000000000E+00 -0.00000000000E+00 -0.41417519739E+03  0.41417519739E+03  0.00000000000E+00 0. -1.
         25    1    1    2    0    0 -0.40127266538E+02  0.11930054632E+03 -0.39579021453E+02  0.17835166613E+03  0.12000000000E+03 0.  0.
         25    1    1    2    0    0  0.40127266538E+02 -0.11930054632E+03 -0.28043770297E+03  0.32998200423E+03  0.12000000000E+03 0.  0.
<mgrwt>
<rscale>  0 0.39495875E+03</rscale>
<asrwt>0</asrwt>
<pdfrwt beam="1">  1        1 0.63719261E-01 0.39495875E+03</pdfrwt>
<pdfrwt beam="2">  1       -1 0.14485919E-01 0.39495875E+03</pdfrwt>
<totfact> 0.19766185E+03</totfact>
</mgrwt>
</event>
<event>
 4    1  0.1726503E-004  0.3073973E+03  0.7818608E-02  0.1081600E+00
          1   -1    0    0  501    0  0.00000000000E+00  0.00000000000E+00  0.81249901728E+02  0.81249901728E+02  0.00000000000E+00 0. -1.
         -1   -1    0    0    0  501 -0.00000000000E+00 -0.00000000000E+00 -0.29074839145E+03  0.29074839145E+03  0.00000000000E+00 0. -1.
         25    1    1    2    0    0  0.86641717874E+01  0.24788107228E+02  0.70428473087E+01  0.12304113065E+03  0.12000000000E+03 0.  0.
         25    1    1    2    0    0 -0.86641717874E+01 -0.24788107228E+02 -0.21654133703E+03  0.24895716253E+03  0.12000000000E+03 0.  0.
<mgrwt>
<rscale>  0 0.30739732E+03</rscale>
<asrwt>0</asrwt>
<pdfrwt beam="1">  1        1 0.12499985E-01 0.30739732E+03</pdfrwt>
<pdfrwt beam="2">  1       -1 0.44730521E-01 0.30739732E+03</pdfrwt>
<totfact> 0.23970470E+03</totfact>
</mgrwt>
</event>
<event>
 4    1  0.1726503E-004  0.2518965E+03  0.7818608E-02  0.1112112E+00
          2   -1    0    0  501    0  0.00000000000E+00  0.00000000000E+00  0.29752004907E+03  0.29752004907E+03  0.00000000000E+00 0.  1.
         -2   -1    0    0    0  501 -0.00000000000E+00 -0.00000000000E+00 -0.53317291119E+02  0.53317291119E+02  0.00000000000E+00 0.  1.
         25    1    1    2    0    0  0.20636968402E+02 -0.32093900734E+02  0.12580213401E+03  0.17799460624E+03  0.12000000000E+03 0.  0.
         25    1    1    2    0    0 -0.20636968402E+02  0.32093900734E+02  0.11840062394E+03  0.17284273395E+03  0.12000000000E+03 0.  0.
<mgrwt>
<rscale>  0 0.25189651E+03</rscale>
<asrwt>0</asrwt>
<pdfrwt beam="1">  1        2 0.45772314E-01 0.25189651E+03</pdfrwt>
<pdfrwt beam="2">  1       -2 0.82026603E-02 0.25189651E+03</pdfrwt>
<totfact> 0.98953369E+03</totfact>
</mgrwt>
</event>
<event>
 4    1  0.1726503E-004  0.2848775E+03  0.7818608E-02  0.1093054E+00
         -2   -1    0    0    0  501 -0.00000000000E+00  0.00000000000E+00  0.68796499791E+02  0.68796499791E+02  0.00000000000E+00 0. -1.
          2   -1    0    0  501    0  0.00000000000E+00 -0.00000000000E+00 -0.29491026260E+03  0.29491026260E+03  0.00000000000E+00 0. -1.
         25    1    1    2    0    0  0.46120183108E+02 -0.56131585669E+02 -0.81499397974E+02  0.16223433074E+03  0.12000000000E+03 0.  0.
         25    1    1    2    0    0 -0.46120183108E+02  0.56131585669E+02 -0.14461436483E+03  0.20147243165E+03  0.12000000000E+03 0.  0.
<mgrwt>
<rscale>  0 0.28487747E+03</rscale>
<asrwt>0</asrwt>
<pdfrwt beam="1">  1        2 0.45370810E-01 0.28487747E+03</pdfrwt>
<pdfrwt beam="2">  1       -2 0.10584077E-01 0.28487747E+03</pdfrwt>
<totfact> 0.67113027E+03</totfact>
</mgrwt>
</event>
<event>
 4    1  0.1726503E-004  0.2682319E+03  0.7818608E-02  0.1102296E+00
          2   -1    0    0  501    0  0.00000000000E+00  0.00000000000E+00  0.26440190626E+03  0.26440190626E+03  0.00000000000E+00 0.  1.
         -2   -1    0    0    0  501 -0.00000000000E+00 -0.00000000000E+00 -0.68029356137E+02  0.68029356137E+02  0.00000000000E+00 0.  1.
         25    1    1    2    0    0  0.44062774668E+02 -0.27148776091E+02  0.13554186505E+03  0.18828218539E+03  0.12000000000E+03 0.  0.
         25    1    1    2    0    0 -0.44062774668E+02  0.27148776091E+02  0.60830685070E+02  0.14414907700E+03  0.12000000000E+03 0.  0.
<mgrwt>
<rscale>  0 0.26823193E+03</rscale>
<asrwt>0</asrwt>
<pdfrwt beam="1">  1        2 0.40677216E-01 0.26823193E+03</pdfrwt>
<pdfrwt beam="2">  1       -2 0.10466055E-01 0.26823193E+03</pdfrwt>
<totfact> 0.76673587E+03</totfact>
</mgrwt>
</event>
<event>
 4    1  0.1726503E-004  0.3098795E+03  0.7818608E-02  0.1080404E+00
         -2   -1    0    0    0  501 -0.00000000000E+00  0.00000000000E+00  0.32703788419E+02  0.32703788419E+02  0.00000000000E+00 0. -1.
          2   -1    0    0  501    0  0.00000000000E+00 -0.00000000000E+00 -0.73405343051E+03  0.73405343051E+03  0.00000000000E+00 0. -1.
         25    1    1    2    0    0  0.31463586156E+02  0.51003151726E+02 -0.54257907698E+03  0.55891263496E+03  0.12000000000E+03 0.  0.
         25    1    1    2    0    0 -0.31463586156E+02 -0.51003151726E+02 -0.15877056511E+03  0.20784458397E+03  0.12000000000E+03 0.  0.
<mgrwt>
<rscale>  0 0.30987951E+03</rscale>
<asrwt>0</asrwt>
<pdfrwt beam="1">  1        2 0.11293130E+00 0.30987951E+03</pdfrwt>
<pdfrwt beam="2">  1       -2 0.50313518E-02 0.30987951E+03</pdfrwt>
<totfact> 0.76794629E+03</totfact>
</mgrwt>
</event>
<event>
 4    1  0.1726503E-004  0.3035580E+03  0.7818608E-02  0.1083475E+00
          4   -1    0    0  501    0  0.00000000000E+00  0.00000000000E+00  0.34223910105E+03  0.34223910105E+03  0.00000000000E+00 0. -1.
         -4   -1    0    0    0  501 -0.00000000000E+00 -0.00000000000E+00 -0.67312191681E+02  0.67312191681E+02  0.00000000000E+00 0. -1.
         25    1    1    2    0    0  0.52708263796E+02  0.56572480653E+02  0.67902563619E+02  0.15808024793E+03  0.12000000000E+03 0.  0.
         25    1    1    2    0    0 -0.52708263796E+02 -0.56572480653E+02  0.20702434575E+03  0.25147104480E+03  0.12000000000E+03 0.  0.
<mgrwt>
<rscale>  0 0.30355799E+03</rscale>
<asrwt>0</asrwt>
<pdfrwt beam="1">  1        4 0.52652168E-01 0.30355799E+03</pdfrwt>
<pdfrwt beam="2">  1       -4 0.10355722E-01 0.30355799E+03</pdfrwt>
<totfact> 0.47275481E+02</totfact>
</mgrwt>
</event>
<event>
 4    1  0.1726503E-004  0.2663843E+03  0.7818608E-02  0.1103367E+00
          2   -1    0    0  501    0  0.00000000000E+00  0.00000000000E+00  0.76707745281E+03  0.76707745281E+03  0.00000000000E+00 0. -1.
         -2   -1    0    0    0  501 -0.00000000000E+00 -0.00000000000E+00 -0.23126931284E+02  0.23126931284E+02  0.00000000000E+00 0. -1.
         25    1    1    2    0    0  0.47612851023E+02  0.17713967057E+02  0.45372007497E+03  0.47206215125E+03  0.12000000000E+03 0.  0.
         25    1    1    2    0    0 -0.47612851023E+02 -0.17713967057E+02  0.29023044656E+03  0.31814223285E+03  0.12000000000E+03 0.  0.
<mgrwt>
<rscale>  0 0.26638429E+03</rscale>
<asrwt>0</asrwt>
<pdfrwt beam="1">  1        2 0.11801190E+00 0.26638429E+03</pdfrwt>
<pdfrwt beam="2">  1       -2 0.35579900E-02 0.26638429E+03</pdfrwt>
<totfact> 0.12208825E+04</totfact>
</mgrwt>
</event>
<event>
 4    1  0.1726503E-004  0.2820039E+03  0.7818608E-02  0.1094599E+00
         -2   -1    0    0    0  501 -0.00000000000E+00  0.00000000000E+00  0.26495525587E+02  0.26495525587E+02  0.00000000000E+00 0.  1.
          2   -1    0    0  501    0  0.00000000000E+00 -0.00000000000E+00 -0.75037387401E+03  0.75037387401E+03  0.00000000000E+00 0.  1.
         25    1    1    2    0    0 -0.43991969819E+02  0.49466899035E+01 -0.19845548012E+03  0.23610239461E+03  0.12000000000E+03 0.  0.
         25    1    1    2    0    0  0.43991969819E+02 -0.49466899035E+01 -0.52542286830E+03  0.54076700498E+03  0.12000000000E+03 0.  0.
<mgrwt>
<rscale>  0 0.28200390E+03</rscale>
<asrwt>0</asrwt>
<pdfrwt beam="1">  1        2 0.11544212E+00 0.28200390E+03</pdfrwt>
<pdfrwt beam="2">  1       -2 0.40762351E-02 0.28200390E+03</pdfrwt>
<totfact> 0.10252706E+04</totfact>
</mgrwt>
</event>
<event>
 4    1  0.1726503E-004  0.2476653E+03  0.7818608E-02  0.1114789E+00
         -1   -1    0    0    0  501 -0.00000000000E+00  0.00000000000E+00  0.10111294397E+03  0.10111294397E+03  0.00000000000E+00 0.  1.
          1   -1    0    0  501    0  0.00000000000E+00 -0.00000000000E+00 -0.15165745011E+03  0.15165745011E+03  0.00000000000E+00 0.  1.
         25    1    1    2    0    0 -0.16151527951E+02 -0.25918511491E+02 -0.23869082086E+02  0.12610461598E+03  0.12000000000E+03 0.  0.
         25    1    1    2    0    0  0.16151527951E+02  0.25918511491E+02 -0.26675424054E+02  0.12666577810E+03  0.12000000000E+03 0.  0.
<mgrwt>
<rscale>  0 0.24766535E+03</rscale>
<asrwt>0</asrwt>
<pdfrwt beam="1">  1        1 0.23331915E-01 0.24766535E+03</pdfrwt>
<pdfrwt beam="2">  1       -1 0.15555838E-01 0.24766535E+03</pdfrwt>
<totfact> 0.62536961E+03</totfact>
</mgrwt>
</event>
<event>
 4    1  0.1726503E-004  0.2704505E+03  0.7818608E-02  0.1101022E+00
         -2   -1    0    0    0  501 -0.00000000000E+00  0.00000000000E+00  0.96918165653E+02  0.96918165653E+02  0.00000000000E+00 0.  1.
          2   -1    0    0  501    0  0.00000000000E+00 -0.00000000000E+00 -0.18867328180E+03  0.18867328180E+03  0.00000000000E+00 0.  1.
         25    1    1    2    0    0 -0.39491964808E+02 -0.47560938832E+02 -0.37415823590E+02  0.14007712890E+03  0.12000000000E+03 0.  0.
         25    1    1    2    0    0  0.39491964808E+02  0.47560938832E+02 -0.54339292555E+02  0.14551431855E+03  0.12000000000E+03 0.  0.
<mgrwt>
<rscale>  0 0.27045050E+03</rscale>
<asrwt>0</asrwt>
<pdfrwt beam="1">  1        2 0.29026658E-01 0.27045050E+03</pdfrwt>
<pdfrwt beam="2">  1       -2 0.14910487E-01 0.27045050E+03</pdfrwt>
<totfact> 0.62363124E+03</totfact>
</mgrwt>
</event>
<event>
 4    1  0.1726503E-004  0.3182367E+03  0.7818608E-02  0.1076464E+00
          3   -1    0    0  501    0  0.00000000000E+00  0.00000000000E+00  0.32068326291E+03  0.32068326291E+03  0.00000000000E+00 0.  1.
         -3   -1    0    0    0  501 -0.00000000000E+00 -0.00000000000E+00 -0.78952179326E+02  0.78952179326E+02  0.00000000000E+00 0.  1.
         25    1    1    2    0    0  0.15960761378E+02  0.10312350511E+03  0.11405193121E+03  0.19569631122E+03  0.12000000000E+03 0.  0.
         25    1    1    2    0    0 -0.15960761378E+02 -0.10312350511E+03  0.12767915238E+03  0.20393913102E+03  0.12000000000E+03 0.  0.
<mgrwt>
<rscale>  0 0.31823666E+03</rscale>
<asrwt>0</asrwt>
<pdfrwt beam="1">  1        3 0.49335886E-01 0.31823666E+03</pdfrwt>
<pdfrwt beam="2">  1       -3 0.12146489E-01 0.31823666E+03</pdfrwt>
<totfact> 0.56249419E+02</totfact>
</mgrwt>
</event>
<event>
 4    1  0.1726503E-004  0.2755550E+03  0.7818608E-02  0.1098142E+00
          1   -1    0    0  501    0  0.00000000000E+00  0.00000000000E+00  0.23339773467E+03  0.23339773467E+03  0.00000000000E+00 0. -1.
         -1   -1    0    0    0  501 -0.00000000000E+00 -0.00000000000E+00 -0.81331722435E+02  0.81331722435E+02  0.00000000000E+00 0. -1.
         25    1    1    2    0    0  0.51939254901E+02  0.42896018254E+02  0.68380906155E+02  0.15366750765E+03  0.12000000000E+03 0.  0.
         25    1    1    2    0    0 -0.51939254901E+02 -0.42896018254E+02  0.83685106079E+02  0.16106194945E+03  0.12000000000E+03 0.  0.
<mgrwt>
<rscale>  0 0.27555500E+03</rscale>
<asrwt>0</asrwt>
<pdfrwt beam="1">  1        1 0.35907343E-01 0.27555500E+03</pdfrwt>
<pdfrwt beam="2">  1       -1 0.12512573E-01 0.27555500E+03</pdfrwt>
<totfact> 0.51329477E+03</totfact>
</mgrwt>
</event>
<event>
 4    1  0.1726503E-004  0.3469753E+03  0.7818608E-02  0.1063863E+00
          2   -1    0    0  501    0  0.00000000000E+00  0.00000000000E+00  0.70302656871E+03  0.70302656871E+03  0.00000000000E+00 0. -1.
         -2   -1    0    0    0  501 -0.00000000000E+00 -0.00000000000E+00 -0.42811997484E+02  0.42811997484E+02  0.00000000000E+00 0. -1.
         25    1    1    2    0    0  0.52475138008E+02  0.98841406817E+02  0.20899223613E+03  0.26570852183E+03  0.12000000000E+03 0.  0.
         25    1    1    2    0    0 -0.52475138008E+02 -0.98841406817E+02  0.45122233509E+03  0.48013004436E+03  0.12000000000E+03 0.  0.
<mgrwt>
<rscale>  0 0.34697534E+03</rscale>
<asrwt>0</asrwt>
<pdfrwt beam="1">  1        2 0.10815793E+00 0.34697534E+03</pdfrwt>
<pdfrwt beam="2">  1       -2 0.65864616E-02 0.34697534E+03</pdfrwt>
<totfact> 0.53662516E+03</totfact>
</mgrwt>
</event>
<event>
 4    1  0.1726503E-004  0.2638254E+03  0.7818608E-02  0.1104866E+00
         -2   -1    0    0    0  501 -0.00000000000E+00  0.00000000000E+00  0.13348434746E+03  0.13348434746E+03  0.00000000000E+00 0. -1.
          2   -1    0    0  501    0  0.00000000000E+00 -0.00000000000E+00 -0.13035953225E+03  0.13035953225E+03  0.00000000000E+00 0. -1.
         25    1    1    2    0    0  0.52275033091E+02 -0.16316810421E+02  0.13412319534E+00  0.13190502407E+03  0.12000000000E+03 0.  0.
         25    1    1    2    0    0 -0.52275033091E+02  0.16316810421E+02  0.29906920109E+01  0.13193885563E+03  0.12000000000E+03 0.  0.
<mgrwt>
<rscale>  0 0.26382537E+03</rscale>
<asrwt>0</asrwt>
<pdfrwt beam="1">  1        2 0.20055313E-01 0.26382537E+03</pdfrwt>
<pdfrwt beam="2">  1       -2 0.20536054E-01 0.26382537E+03</pdfrwt>
<totfact> 0.55054564E+03</totfact>
</mgrwt>
</event>
<event>
 4    1  0.1726503E-004  0.3964115E+03  0.7818608E-02  0.1045029E+00
          2   -1    0    0  501    0  0.00000000000E+00  0.00000000000E+00  0.35512139903E+03  0.35512139903E+03  0.00000000000E+00 0.  1.
         -2   -1    0    0    0  501 -0.00000000000E+00 -0.00000000000E+00 -0.11062558837E+03  0.11062558837E+03  0.00000000000E+00 0.  1.
         25    1    1    2    0    0 -0.24967783557E+02  0.10985581785E+03 -0.74920607123E+01  0.16476596100E+03  0.12000000000E+03 0.  0.
         25    1    1    2    0    0  0.24967783557E+02 -0.10985581785E+03  0.25198787137E+03  0.30098102639E+03  0.12000000000E+03 0.  0.
<mgrwt>
<rscale>  0 0.39641147E+03</rscale>
<asrwt>0</asrwt>
<pdfrwt beam="1">  1        2 0.54634061E-01 0.39641147E+03</pdfrwt>
<pdfrwt beam="2">  1       -2 0.17019321E-01 0.39641147E+03</pdfrwt>
<totfact> 0.25343620E+03</totfact>
</mgrwt>
</event>
<event>
 4    1  0.1726503E-004  0.2807134E+03  0.7818608E-02  0.1095300E+00
          2   -1    0    0  501    0  0.00000000000E+00  0.00000000000E+00  0.67916051296E+02  0.67916051296E+02  0.00000000000E+00 0.  1.
         -2   -1    0    0    0  501 -0.00000000000E+00 -0.00000000000E+00 -0.29006412307E+03  0.29006412307E+03  0.00000000000E+00 0.  1.
         25    1    1    2    0    0  0.68285266844E+02 -0.24983638200E+02 -0.11566317165E+03  0.18183791992E+03  0.12000000000E+03 0.  0.
         25    1    1    2    0    0 -0.68285266844E+02  0.24983638200E+02 -0.10648490012E+03  0.17614225444E+03  0.12000000000E+03 0.  0.
<mgrwt>
<rscale>  0 0.28071345E+03</rscale>
<asrwt>0</asrwt>
<pdfrwt beam="1">  1        2 0.10448623E-01 0.28071345E+03</pdfrwt>
<pdfrwt beam="2">  1       -2 0.44625250E-01 0.28071345E+03</pdfrwt>
<totfact> 0.29121909E+03</totfact>
</mgrwt>
</event>
<event>
 4    1  0.1726503E-004  0.3985167E+03  0.7818608E-02  0.1044294E+00
          2   -1    0    0  501    0  0.00000000000E+00  0.00000000000E+00  0.95424043858E+02  0.95424043858E+02  0.00000000000E+00 0. -1.
         -2   -1    0    0    0  501 -0.00000000000E+00 -0.00000000000E+00 -0.41607854395E+03  0.41607854395E+03  0.00000000000E+00 0. -1.
         25    1    1    2    0    0  0.15520396498E+03  0.26741492516E+02 -0.18904243252E+03  0.27375247845E+03  0.12000000000E+03 0.  0.
         25    1    1    2    0    0 -0.15520396498E+03 -0.26741492516E+02 -0.13161206758E+03  0.23775010936E+03  0.12000000000E+03 0.  0.
<mgrwt>
<rscale>  0 0.39851674E+03</rscale>
<asrwt>0</asrwt>
<pdfrwt beam="1">  1        2 0.14680622E-01 0.39851674E+03</pdfrwt>
<pdfrwt beam="2">  1       -2 0.64012084E-01 0.39851674E+03</pdfrwt>
<totfact> 0.92953727E+02</totfact>
</mgrwt>
</event>
<event>
 4    1  0.1726503E-004  0.2777506E+03  0.7818608E-02  0.1096924E+00
          2   -1    0    0  501    0  0.00000000000E+00  0.00000000000E+00  0.12917050276E+04  0.12917050276E+04  0.00000000000E+00 0. -1.
         -2   -1    0    0    0  501 -0.00000000000E+00 -0.00000000000E+00 -0.14930921185E+02  0.14930921185E+02  0.00000000000E+00 0. -1.
         25    1    1    2    0    0 -0.92254289918E+01  0.32501807094E+02  0.35050273993E+03  0.37201296578E+03  0.12000000000E+03 0.  0.
         25    1    1    2    0    0  0.92254289918E+01 -0.32501807094E+02  0.92627136647E+03  0.93462298299E+03  0.12000000000E+03 0.  0.
<mgrwt>
<rscale>  0 0.27775058E+03</rscale>
<asrwt>0</asrwt>
<pdfrwt beam="1">  1        2 0.19872376E+00 0.27775058E+03</pdfrwt>
<pdfrwt beam="2">  1       -2 0.22970658E-02 0.27775058E+03</pdfrwt>
<totfact> 0.11167583E+04</totfact>
</mgrwt>
</event>
<event>
 4    1  0.1726503E-004  0.2922610E+03  0.7818608E-02  0.1089175E+00
         -3   -1    0    0    0  501 -0.00000000000E+00  0.00000000000E+00  0.45236907782E+03  0.45236907782E+03  0.00000000000E+00 0.  1.
          3   -1    0    0  501    0  0.00000000000E+00 -0.00000000000E+00 -0.47205094331E+02  0.47205094331E+02  0.00000000000E+00 0.  1.
         25    1    1    2    0    0  0.54590966208E+02  0.35004069345E+02  0.11296505014E+03  0.17710607278E+03  0.12000000000E+03 0.  0.
         25    1    1    2    0    0 -0.54590966208E+02 -0.35004069345E+02  0.29219893334E+03  0.32246809937E+03  0.12000000000E+03 0.  0.
<mgrwt>
<rscale>  0 0.29226101E+03</rscale>
<asrwt>0</asrwt>
<pdfrwt beam="1">  1        3 0.72623225E-02 0.29226101E+03</pdfrwt>
<pdfrwt beam="2">  1       -3 0.69595240E-01 0.29226101E+03</pdfrwt>
<totfact> 0.64296728E+02</totfact>
</mgrwt>
</event>
<event>
 4    1  0.1726503E-004  0.2763339E+03  0.7818608E-02  0.1097708E+00
         -2   -1    0    0    0  501 -0.00000000000E+00  0.00000000000E+00  0.12677497485E+02  0.12677497485E+02  0.00000000000E+00 0.  1.
          2   -1    0    0  501    0  0.00000000000E+00 -0.00000000000E+00 -0.15058256772E+04  0.15058256772E+04  0.00000000000E+00 0.  1.
         25    1    1    2    0    0  0.83040005848E+01 -0.16967859588E+02 -0.11083068079E+04  0.11149443238E+04  0.12000000000E+03 0.  0.
         25    1    1    2    0    0 -0.83040005848E+01  0.16967859588E+02 -0.38484137180E+03  0.40355885089E+03  0.12000000000E+03 0.  0.
<mgrwt>
<rscale>  0 0.27633386E+03</rscale>
<asrwt>0</asrwt>
<pdfrwt beam="1">  1        2 0.23166547E+00 0.27633386E+03</pdfrwt>
<pdfrwt beam="2">  1       -2 0.19503844E-02 0.27633386E+03</pdfrwt>
<totfact> 0.10868181E+04</totfact>
</mgrwt>
</event>
<event>
 4    1  0.1726503E-004  0.7235664E+03  0.7818608E-02  0.9677758E-01
          2   -1    0    0  501    0  0.00000000000E+00  0.00000000000E+00  0.16160751144E+04  0.16160751144E+04  0.00000000000E+00 0. -1.
         -2   -1    0    0    0  501 -0.00000000000E+00 -0.00000000000E+00 -0.80990715650E+02  0.80990715650E+02  0.00000000000E+00 0. -1.
         25    1    1    2    0    0  0.33104148018E+03 -0.55971897958E+02  0.91147073840E+03  0.97872377202E+03  0.12000000000E+03 0.  0.
         25    1    1    2    0    0 -0.33104148018E+03  0.55971897958E+02  0.62361366038E+03  0.71834205806E+03  0.12000000000E+03 0.  0.
<mgrwt>
<rscale>  0 0.72356639E+03</rscale>
<asrwt>0</asrwt>
<pdfrwt beam="1">  1        2 0.24862692E+00 0.72356639E+03</pdfrwt>
<pdfrwt beam="2">  1       -2 0.12460111E-01 0.72356639E+03</pdfrwt>
<totfact> 0.53077303E+02</totfact>
</mgrwt>
</event>
<event>
 4    1  0.1726503E-004  0.2558239E+03  0.7818608E-02  0.1109679E+00
         -1   -1    0    0    0  501 -0.00000000000E+00  0.00000000000E+00  0.97582100036E+02  0.97582100036E+02  0.00000000000E+00 0. -1.
          1   -1    0    0  501    0  0.00000000000E+00 -0.00000000000E+00 -0.16766878124E+03  0.16766878124E+03  0.00000000000E+00 0. -1.
         25    1    1    2    0    0  0.24626148251E+01  0.42224869157E+02 -0.48659969068E+02  0.13622333367E+03  0.12000000000E+03 0.  0.
         25    1    1    2    0    0 -0.24626148251E+01 -0.42224869157E+02 -0.21426712134E+02  0.12902754760E+03  0.12000000000E+03 0.  0.
<mgrwt>
<rscale>  0 0.25582394E+03</rscale>
<asrwt>0</asrwt>
<pdfrwt beam="1">  1        1 0.25795197E-01 0.25582394E+03</pdfrwt>
<pdfrwt beam="2">  1       -1 0.15012631E-01 0.25582394E+03</pdfrwt>
<totfact> 0.58309829E+03</totfact>
</mgrwt>
</event>
<event>
 4    1  0.1726503E-004  0.3108153E+03  0.7818608E-02  0.1079956E+00
         -2   -1    0    0    0  501 -0.00000000000E+00  0.00000000000E+00  0.15683489228E+02  0.15683489228E+02  0.00000000000E+00 0. -1.
          2   -1    0    0  501    0  0.00000000000E+00 -0.00000000000E+00 -0.15399339807E+04  0.15399339807E+04  0.00000000000E+00 0. -1.
         25    1    1    2    0    0 -0.47668730171E+02 -0.86412222491E+02 -0.77957667009E+03  0.79490827432E+03  0.12000000000E+03 0.  0.
         25    1    1    2    0    0  0.47668730171E+02  0.86412222491E+02 -0.74467382136E+03  0.76070919559E+03  0.12000000000E+03 0.  0.
<mgrwt>
<rscale>  0 0.31081530E+03</rscale>
<asrwt>0</asrwt>
<pdfrwt beam="1">  1        2 0.23691294E+00 0.31081530E+03</pdfrwt>
<pdfrwt beam="2">  1       -2 0.24128443E-02 0.31081530E+03</pdfrwt>
<totfact> 0.76241983E+03</totfact>
</mgrwt>
</event>
<event>
 4    1  0.1726503E-004  0.2810290E+03  0.7818608E-02  0.1095128E+00
          4   -1    0    0  501    0  0.00000000000E+00  0.00000000000E+00  0.22919365191E+03  0.22919365191E+03  0.00000000000E+00 0.  1.
         -4   -1    0    0    0  501 -0.00000000000E+00 -0.00000000000E+00 -0.86146884696E+02  0.86146884696E+02  0.00000000000E+00 0.  1.
         25    1    1    2    0    0 -0.22205517858E+02  0.20307815391E+02 -0.32355024438E+01  0.12375766993E+03  0.12000000000E+03 0.  0.
         25    1    1    2    0    0  0.22205517858E+02 -0.20307815391E+02  0.14628226966E+03  0.19158286668E+03  0.12000000000E+03 0.  0.
<mgrwt>
<rscale>  0 0.28102896E+03</rscale>
<asrwt>0</asrwt>
<pdfrwt beam="1">  1        4 0.35260561E-01 0.28102896E+03</pdfrwt>
<pdfrwt beam="2">  1       -4 0.13253367E-01 0.28102896E+03</pdfrwt>
<totfact> 0.68564051E+02</totfact>
</mgrwt>
</event>
<event>
 4    1  0.1726503E-004  0.3712806E+03  0.7818608E-02  0.1054204E+00
          2   -1    0    0  501    0  0.00000000000E+00  0.00000000000E+00  0.99084074815E+03  0.99084074815E+03  0.00000000000E+00 0.  1.
         -2   -1    0    0    0  501 -0.00000000000E+00 -0.00000000000E+00 -0.34780885520E+02  0.34780885520E+02  0.00000000000E+00 0.  1.
         25    1    1    2    0    0 -0.10286366711E+03 -0.59231128485E+02  0.69152276313E+03  0.71182370888E+03  0.12000000000E+03 0.  0.
         25    1    1    2    0    0  0.10286366711E+03  0.59231128485E+02  0.26453709950E+03  0.31379792479E+03  0.12000000000E+03 0.  0.
<mgrwt>
<rscale>  0 0.37128059E+03</rscale>
<asrwt>0</asrwt>
<pdfrwt beam="1">  1        2 0.15243702E+00 0.37128059E+03</pdfrwt>
<pdfrwt beam="2">  1       -2 0.53509062E-02 0.37128059E+03</pdfrwt>
<totfact> 0.47158202E+03</totfact>
</mgrwt>
</event>
<event>
 4    1  0.1726503E-004  0.2762654E+03  0.7818608E-02  0.1097746E+00
         -1   -1    0    0    0  501 -0.00000000000E+00  0.00000000000E+00  0.26392813134E+02  0.26392813134E+02  0.00000000000E+00 0. -1.
          1   -1    0    0  501    0  0.00000000000E+00 -0.00000000000E+00 -0.72294857802E+03  0.72294857802E+03  0.00000000000E+00 0. -1.
         25    1    1    2    0    0 -0.59262828787E+02  0.19976672702E+02 -0.27303655022E+03  0.30472956549E+03  0.12000000000E+03 0.  0.
         25    1    1    2    0    0  0.59262828787E+02 -0.19976672702E+02 -0.42351921467E+03  0.44461182566E+03  0.12000000000E+03 0.  0.
<mgrwt>
<rscale>  0 0.27626543E+03</rscale>
<asrwt>0</asrwt>
<pdfrwt beam="1">  1        1 0.11122286E+00 0.27626543E+03</pdfrwt>
<pdfrwt beam="2">  1       -1 0.40604328E-02 0.27626543E+03</pdfrwt>
<totfact> 0.64475632E+03</totfact>
</mgrwt>
</event>
<event>
 4    1  0.1726503E-004  0.3147074E+03  0.7818608E-02  0.1078111E+00
          1   -1    0    0  501    0  0.00000000000E+00  0.00000000000E+00  0.12835054165E+04  0.12835054165E+04  0.00000000000E+00 0.  1.
         -1   -1    0    0    0  501 -0.00000000000E+00 -0.00000000000E+00 -0.19291063739E+02  0.19291063739E+02  0.00000000000E+00 0.  1.
         25    1    1    2    0    0 -0.42285128367E+02  0.14109005940E+02  0.25330498286E+03  0.28381421823E+03  0.12000000000E+03 0.  0.
         25    1    1    2    0    0  0.42285128367E+02 -0.14109005940E+02  0.10109093699E+04  0.10189822620E+04  0.12000000000E+03 0.  0.
<mgrwt>
<rscale>  0 0.31470739E+03</rscale>
<asrwt>0</asrwt>
<pdfrwt beam="1">  1        1 0.19746230E+00 0.31470739E+03</pdfrwt>
<pdfrwt beam="2">  1       -1 0.29678570E-02 0.31470739E+03</pdfrwt>
<totfact> 0.38468248E+03</totfact>
</mgrwt>
</event>
<event>
 4    1  0.1726503E-004  0.2598154E+03  0.7818608E-02  0.1107254E+00
         -2   -1    0    0    0  501 -0.00000000000E+00  0.00000000000E+00  0.55119957066E+01  0.55119957066E+01  0.00000000000E+00 0.  1.
          2   -1    0    0  501    0  0.00000000000E+00 -0.00000000000E+00 -0.30616884793E+04  0.30616884793E+04  0.00000000000E+00 0.  1.
         25    1    1    2    0    0 -0.16980455361E+02 -0.55677735402E+01 -0.97984932038E+03  0.98733177130E+03  0.12000000000E+03 0.  0.
         25    1    1    2    0    0  0.16980455361E+02  0.55677735402E+01 -0.20763271632E+04  0.20798687037E+04  0.12000000000E+03 0.  0.
<mgrwt>
<rscale>  0 0.25981542E+03</rscale>
<asrwt>0</asrwt>
<pdfrwt beam="1">  1        2 0.47102850E+00 0.25981542E+03</pdfrwt>
<pdfrwt beam="2">  1       -2 0.84800024E-03 0.25981542E+03</pdfrwt>
<totfact> 0.51902746E+03</totfact>
</mgrwt>
</event>
<event>
 4    1  0.1726503E-004  0.2874098E+03  0.7818608E-02  0.1091709E+00
         -2   -1    0    0    0  501 -0.00000000000E+00  0.00000000000E+00  0.68080354427E+01  0.68080354427E+01  0.00000000000E+00 0.  1.
          2   -1    0    0  501    0  0.00000000000E+00 -0.00000000000E+00 -0.30333418232E+04  0.30333418232E+04  0.00000000000E+00 0.  1.
         25    1    1    2    0    0 -0.18664562304E+02 -0.57919506401E+02 -0.97931941288E+03  0.98851886555E+03  0.12000000000E+03 0.  0.
         25    1    1    2    0    0  0.18664562304E+02  0.57919506401E+02 -0.20472143748E+04  0.20516309931E+04  0.12000000000E+03 0.  0.
<mgrwt>
<rscale>  0 0.28740980E+03</rscale>
<asrwt>0</asrwt>
<pdfrwt beam="1">  1        2 0.46666813E+00 0.28740980E+03</pdfrwt>
<pdfrwt beam="2">  1       -2 0.10473897E-02 0.28740980E+03</pdfrwt>
<totfact> 0.39638155E+03</totfact>
</mgrwt>
</event>
<event>
 4    1  0.1726503E-004  0.3433291E+03  0.7818608E-02  0.1065387E+00
         -4   -1    0    0    0  501 -0.00000000000E+00  0.00000000000E+00  0.82348940853E+03  0.82348940853E+03  0.00000000000E+00 0. -1.
          4   -1    0    0  501    0  0.00000000000E+00 -0.00000000000E+00 -0.35785172973E+02  0.35785172973E+02  0.00000000000E+00 0. -1.
         25    1    1    2    0    0  0.11337522590E+03  0.17701436269E+02  0.50298644337E+03  0.52968164487E+03  0.12000000000E+03 0.  0.
         25    1    1    2    0    0 -0.11337522590E+03 -0.17701436269E+02  0.28471779219E+03  0.32959293664E+03  0.12000000000E+03 0.  0.
<mgrwt>
<rscale>  0 0.34332906E+03</rscale>
<asrwt>0</asrwt>
<pdfrwt beam="1">  1        4 0.55054119E-02 0.34332906E+03</pdfrwt>
<pdfrwt beam="2">  1       -4 0.12669066E+00 0.34332906E+03</pdfrwt>
<totfact> 0.18903478E+02</totfact>
</mgrwt>
</event>
<event>
 4    1  0.1726503E-004  0.3717421E+03  0.7818608E-02  0.1054029E+00
         -1   -1    0    0    0  501 -0.00000000000E+00  0.00000000000E+00  0.61840395617E+02  0.61840395617E+02  0.00000000000E+00 0.  1.
          1   -1    0    0  501    0  0.00000000000E+00 -0.00000000000E+00 -0.55866475263E+03  0.55866475263E+03  0.00000000000E+00 0.  1.
         25    1    1    2    0    0  0.10587046264E+03  0.17820152373E+02 -0.40340302180E+03  0.43435021663E+03  0.12000000000E+03 0.  0.
         25    1    1    2    0    0 -0.10587046264E+03 -0.17820152373E+02 -0.93421335210E+02  0.18615493161E+03  0.12000000000E+03 0.  0.
<mgrwt>
<rscale>  0 0.37174211E+03</rscale>
<asrwt>0</asrwt>
<pdfrwt beam="1">  1        1 0.85948424E-01 0.37174211E+03</pdfrwt>
<pdfrwt beam="2">  1       -1 0.95139070E-02 0.37174211E+03</pdfrwt>
<totfact> 0.25673438E+03</totfact>
</mgrwt>
</event>
<event>
 4    1  0.1726503E-004  0.2484722E+03  0.7818608E-02  0.1114274E+00
         -2   -1    0    0    0  501 -0.00000000000E+00  0.00000000000E+00  0.50236616087E+02  0.50236616087E+02  0.00000000000E+00 0. -1.
          2   -1    0    0  501    0  0.00000000000E+00 -0.00000000000E+00 -0.30723813108E+03  0.30723813108E+03  0.00000000000E+00 0. -1.
         25    1    1    2    0    0 -0.23781836812E+02  0.16808340912E+02 -0.14814866487E+03  0.19286296427E+03  0.12000000000E+03 0.  0.
         25    1    1    2    0    0  0.23781836812E+02 -0.16808340912E+02 -0.10885285012E+03  0.16461178289E+03  0.12000000000E+03 0.  0.
<mgrwt>
<rscale>  0 0.24847216E+03</rscale>
<asrwt>0</asrwt>
<pdfrwt beam="1">  1        2 0.47267405E-01 0.24847216E+03</pdfrwt>
<pdfrwt beam="2">  1       -2 0.77287101E-02 0.24847216E+03</pdfrwt>
<totfact> 0.10482795E+04</totfact>
</mgrwt>
</event>
<event>
 4    1  0.1726503E-004  0.3719524E+03  0.7818608E-02  0.1053949E+00
          2   -1    0    0  501    0  0.00000000000E+00  0.00000000000E+00  0.30674635912E+04  0.30674635912E+04  0.00000000000E+00 0. -1.
         -2   -1    0    0    0  501 -0.00000000000E+00 -0.00000000000E+00 -0.11275486018E+02  0.11275486018E+02  0.00000000000E+00 0. -1.
         25    1    1    2    0    0  0.82329766671E+02  0.41045462959E+02  0.24243407479E+04  0.24290514573E+04  0.12000000000E+03 0.  0.
         25    1    1    2    0    0 -0.82329766671E+02 -0.41045462959E+02  0.63184735727E+03  0.64968761986E+03  0.12000000000E+03 0.  0.
<mgrwt>
<rscale>  0 0.37195238E+03</rscale>
<asrwt>0</asrwt>
<pdfrwt beam="1">  1        2 0.47191681E+00 0.37195238E+03</pdfrwt>
<pdfrwt beam="2">  1       -2 0.17346926E-02 0.37195238E+03</pdfrwt>
<totfact> 0.17880471E+03</totfact>
</mgrwt>
</event>
<event>
 4    1  0.1726503E-004  0.3246647E+03  0.7818608E-02  0.1073522E+00
         -2   -1    0    0    0  501 -0.00000000000E+00  0.00000000000E+00  0.22749626935E+03  0.22749626935E+03  0.00000000000E+00 0.  1.
          2   -1    0    0  501    0  0.00000000000E+00 -0.00000000000E+00 -0.11583395347E+03  0.11583395347E+03  0.00000000000E+00 0.  1.
         25    1    1    2    0    0 -0.36124218604E+02  0.34298117020E+02  0.15874239034E+03  0.20513523951E+03  0.12000000000E+03 0.  0.
         25    1    1    2    0    0  0.36124218604E+02 -0.34298117020E+02 -0.47080074459E+02  0.13819498331E+03  0.12000000000E+03 0.  0.
<mgrwt>
<rscale>  0 0.32466470E+03</rscale>
<asrwt>0</asrwt>
<pdfrwt beam="1">  1        2 0.17820608E-01 0.32466470E+03</pdfrwt>
<pdfrwt beam="2">  1       -2 0.34999426E-01 0.32466470E+03</pdfrwt>
<totfact> 0.24462368E+03</totfact>
</mgrwt>
</event>
<event>
 4    1  0.1726503E-004  0.3153336E+03  0.7818608E-02  0.1077817E+00
         -2   -1    0    0    0  501 -0.00000000000E+00  0.00000000000E+00  0.25469667996E+02  0.25469667996E+02  0.00000000000E+00 0.  1.
          2   -1    0    0  501    0  0.00000000000E+00 -0.00000000000E+00 -0.97601657414E+03  0.97601657414E+03  0.00000000000E+00 0.  1.
         25    1    1    2    0    0 -0.55548040096E+02 -0.28140415175E+02 -0.21762219949E+03  0.25619697390E+03  0.12000000000E+03 0.  0.
         25    1    1    2    0    0  0.55548040096E+02  0.28140415175E+02 -0.73292470665E+03  0.74528926823E+03  0.12000000000E+03 0.  0.
<mgrwt>
<rscale>  0 0.31533359E+03</rscale>
<asrwt>0</asrwt>
<pdfrwt beam="1">  1        2 0.15015639E+00 0.31533359E+03</pdfrwt>
<pdfrwt beam="2">  1       -2 0.39184105E-02 0.31533359E+03</pdfrwt>
<totfact> 0.77215209E+03</totfact>
</mgrwt>
</event>
<event>
 4    1  0.1726503E-004  0.2700630E+03  0.7818608E-02  0.1101244E+00
          2   -1    0    0  501    0  0.00000000000E+00  0.00000000000E+00  0.14498115300E+04  0.14498115300E+04  0.00000000000E+00 0. -1.
         -2   -1    0    0    0  501 -0.00000000000E+00 -0.00000000000E+00 -0.12576466229E+02  0.12576466229E+02  0.00000000000E+00 0. -1.
         25    1    1    2    0    0  0.52607701375E+02 -0.17421739451E+01  0.89515780742E+03  0.90469779794E+03  0.12000000000E+03 0.  0.
         25    1    1    2    0    0 -0.52607701375E+02  0.17421739451E+01  0.54207725637E+03  0.55769019831E+03  0.12000000000E+03 0.  0.
<mgrwt>
<rscale>  0 0.27006300E+03</rscale>
<asrwt>0</asrwt>
<pdfrwt beam="1">  1        2 0.22304780E+00 0.27006300E+03</pdfrwt>
<pdfrwt beam="2">  1       -2 0.19348421E-02 0.27006300E+03</pdfrwt>
<totfact> 0.11778974E+04</totfact>
</mgrwt>
</event>
<event>
 4    1  0.1726503E-004  0.2756221E+03  0.7818608E-02  0.1098104E+00
         -2   -1    0    0    0  501 -0.00000000000E+00  0.00000000000E+00  0.82995145456E+02  0.82995145456E+02  0.00000000000E+00 0.  1.
          2   -1    0    0  501    0  0.00000000000E+00 -0.00000000000E+00 -0.22883133252E+03  0.22883133252E+03  0.00000000000E+00 0.  1.
         25    1    1    2    0    0  0.14692614646E+02  0.28640425990E+02 -0.14038084868E+03  0.18746447557E+03  0.12000000000E+03 0.  0.
         25    1    1    2    0    0 -0.14692614646E+02 -0.28640425990E+02 -0.54553383914E+01  0.12436200241E+03  0.12000000000E+03 0.  0.
<mgrwt>
<rscale>  0 0.27562213E+03</rscale>
<asrwt>0</asrwt>
<pdfrwt beam="1">  1        2 0.35204820E-01 0.27562213E+03</pdfrwt>
<pdfrwt beam="2">  1       -2 0.12768484E-01 0.27562213E+03</pdfrwt>
<totfact> 0.65160404E+03</totfact>
</mgrwt>
</event>
<event>
 4    1  0.1726503E-004  0.2967928E+03  0.7818608E-02  0.1086855E+00
         -1   -1    0    0    0  501 -0.00000000000E+00  0.00000000000E+00  0.90367544092E+02  0.90367544092E+02  0.00000000000E+00 0. -1.
          1   -1    0    0  501    0  0.00000000000E+00 -0.00000000000E+00 -0.24368803940E+03  0.24368803940E+03  0.00000000000E+00 0. -1.
         25    1    1    2    0    0 -0.74802871820E+02 -0.13261927789E+02 -0.12507389915E+03  0.18924806105E+03  0.12000000000E+03 0.  0.
         25    1    1    2    0    0  0.74802871820E+02  0.13261927789E+02 -0.28246596153E+02  0.14480752244E+03  0.12000000000E+03 0.  0.
<mgrwt>
<rscale>  0 0.29679279E+03</rscale>
<asrwt>0</asrwt>
<pdfrwt beam="1">  1        1 0.37490467E-01 0.29679279E+03</pdfrwt>
<pdfrwt beam="2">  1       -1 0.13902699E-01 0.29679279E+03</pdfrwt>
<totfact> 0.41276475E+03</totfact>
</mgrwt>
</event>
<event>
 4    1  0.1726503E-004  0.8940802E+03  0.7818608E-02  0.9433012E-01
         -3   -1    0    0    0  501 -0.00000000000E+00  0.00000000000E+00  0.39753178904E+03  0.39753178904E+03  0.00000000000E+00 0. -1.
          3   -1    0    0  501    0  0.00000000000E+00 -0.00000000000E+00 -0.50271408336E+03  0.50271408336E+03  0.00000000000E+00 0. -1.
         25    1    1    2    0    0 -0.29746584758E+03  0.30909911227E+03 -0.90488948397E+02  0.45455081285E+03  0.12000000000E+03 0.  0.
         25    1    1    2    0    0  0.29746584758E+03 -0.30909911227E+03 -0.14693345924E+02  0.44569505954E+03  0.12000000000E+03 0.  0.
<mgrwt>
<rscale>  0 0.89408015E+03</rscale>
<asrwt>0</asrwt>
<pdfrwt beam="1">  1        3 0.77340628E-01 0.89408015E+03</pdfrwt>
<pdfrwt beam="2">  1       -3 0.61158737E-01 0.89408015E+03</pdfrwt>
<totfact> 0.10750007E+01</totfact>
</mgrwt>
</event>
<event>
 4    1  0.1726503E-004  0.3398045E+03  0.7818608E-02  0.1066879E+00
         -2   -1    0    0    0  501 -0.00000000000E+00  0.00000000000E+00  0.69146666606E+02  0.69146666606E+02  0.00000000000E+00 0. -1.
          2   -1    0    0  501    0  0.00000000000E+00 -0.00000000000E+00 -0.41747170160E+03  0.41747170160E+03  0.00000000000E+00 0. -1.
         25    1    1    2    0    0 -0.47226406480E+02  0.11015989827E+03 -0.15975347117E+03  0.23299508194E+03  0.12000000000E+03 0.  0.
         25    1    1    2    0    0  0.47226406480E+02 -0.11015989827E+03 -0.18857156382E+03  0.25362328627E+03  0.12000000000E+03 0.  0.
<mgrwt>
<rscale>  0 0.33980451E+03</rscale>
<asrwt>0</asrwt>
<pdfrwt beam="1">  1        2 0.64226416E-01 0.33980451E+03</pdfrwt>
<pdfrwt beam="2">  1       -2 0.10637949E-01 0.33980451E+03</pdfrwt>
<totfact> 0.45882744E+03</totfact>
</mgrwt>
</event>
<event>
 4    1  0.1726503E-004  0.2793551E+03  0.7818608E-02  0.1096042E+00
          1   -1    0    0  501    0  0.00000000000E+00  0.00000000000E+00  0.16419431587E+03  0.16419431587E+03  0.00000000000E+00 0.  1.
         -1   -1    0    0    0  501 -0.00000000000E+00 -0.00000000000E+00 -0.11882154411E+03  0.11882154411E+03  0.00000000000E+00 0.  1.
         25    1    1    2    0    0  0.42339332255E+02 -0.49966652942E+02 -0.63339960658E+01  0.13685541629E+03  0.12000000000E+03 0.  0.
         25    1    1    2    0    0 -0.42339332255E+02  0.49966652942E+02  0.51706767821E+02  0.14616044369E+03  0.12000000000E+03 0.  0.
<mgrwt>
<rscale>  0 0.27935513E+03</rscale>
<asrwt>0</asrwt>
<pdfrwt beam="1">  1        1 0.25260664E-01 0.27935513E+03</pdfrwt>
<pdfrwt beam="2">  1       -1 0.18280237E-01 0.27935513E+03</pdfrwt>
<totfact> 0.43843425E+03</totfact>
</mgrwt>
</event>
<event>
 4    1  0.1726503E-004  0.3132122E+03  0.7818608E-02  0.1078816E+00
         -1   -1    0    0    0  501 -0.00000000000E+00  0.00000000000E+00  0.10135638729E+03  0.10135638729E+03  0.00000000000E+00 0.  1.
          1   -1    0    0  501    0  0.00000000000E+00 -0.00000000000E+00 -0.24197255665E+03  0.24197255665E+03  0.00000000000E+00 0.  1.
         25    1    1    2    0    0  0.40578900803E+01 -0.99305110428E+02 -0.87552681029E+02  0.17872728774E+03  0.12000000000E+03 0.  0.
         25    1    1    2    0    0 -0.40578900803E+01  0.99305110428E+02 -0.53063488335E+02  0.16460165620E+03  0.12000000000E+03 0.  0.
<mgrwt>
<rscale>  0 0.31321216E+03</rscale>
<asrwt>0</asrwt>
<pdfrwt beam="1">  1        1 0.37226547E-01 0.31321216E+03</pdfrwt>
<pdfrwt beam="2">  1       -1 0.15593290E-01 0.31321216E+03</pdfrwt>
<totfact> 0.34747948E+03</totfact>
</mgrwt>
</event>
<event>
 4    1  0.1726503E-004  0.3684441E+03  0.7818608E-02  0.1055289E+00
         -2   -1    0    0    0  501 -0.00000000000E+00  0.00000000000E+00  0.19995511984E+03  0.19995511984E+03  0.00000000000E+00 0.  1.
          2   -1    0    0  501    0  0.00000000000E+00 -0.00000000000E+00 -0.16972691383E+03  0.16972691383E+03  0.00000000000E+00 0.  1.
         25    1    1    2    0    0 -0.84594683358E+02  0.25208279296E+02 -0.93629221353E+02  0.17594927931E+03  0.12000000000E+03 0.  0.
         25    1    1    2    0    0  0.84594683358E+02 -0.25208279296E+02  0.12385742737E+03  0.19373275436E+03  0.12000000000E+03 0.  0.
<mgrwt>
<rscale>  0 0.36844411E+03</rscale>
<asrwt>0</asrwt>
<pdfrwt beam="1">  1        2 0.26111833E-01 0.36844411E+03</pdfrwt>
<pdfrwt beam="2">  1       -2 0.30762326E-01 0.36844411E+03</pdfrwt>
<totfact> 0.20114825E+03</totfact>
</mgrwt>
</event>
<event>
 4    1  0.1726503E-004  0.2493081E+03  0.7818608E-02  0.1113743E+00
          2   -1    0    0  501    0  0.00000000000E+00  0.00000000000E+00  0.17944114425E+04  0.17944114425E+04  0.00000000000E+00 0.  1.
         -2   -1    0    0    0  501 -0.00000000000E+00 -0.00000000000E+00 -0.86594579031E+01  0.86594579031E+01  0.00000000000E+00 0.  1.
         25    1    1    2    0    0  0.24169929591E+02 -0.22023360235E+02  0.83261897156E+03  0.84185721218E+03  0.12000000000E+03 0.  0.
         25    1    1    2    0    0 -0.24169929591E+02  0.22023360235E+02  0.95313301301E+03  0.96121368820E+03  0.12000000000E+03 0.  0.
<mgrwt>
<rscale>  0 0.24930809E+03</rscale>
<asrwt>0</asrwt>
<pdfrwt beam="1">  1        2 0.27606300E+00 0.24930809E+03</pdfrwt>
<pdfrwt beam="2">  1       -2 0.13322257E-02 0.24930809E+03</pdfrwt>
<totfact> 0.13336875E+04</totfact>
</mgrwt>
</event>
<event>
 4    1  0.1726503E-004  0.2556387E+03  0.7818608E-02  0.1109792E+00
          1   -1    0    0  501    0  0.00000000000E+00  0.00000000000E+00  0.83105135373E+01  0.83105135373E+01  0.00000000000E+00 0.  1.
         -1   -1    0    0    0  501 -0.00000000000E+00 -0.00000000000E+00 -0.19659181819E+04  0.19659181819E+04  0.00000000000E+00 0.  1.
         25    1    1    2    0    0 -0.12802175977E+02 -0.29322934223E+02 -0.12122883280E+04  0.12186331361E+04  0.12000000000E+03 0.  0.
         25    1    1    2    0    0  0.12802175977E+02  0.29322934223E+02 -0.74531934038E+03  0.75559555936E+03  0.12000000000E+03 0.  0.
<mgrwt>
<rscale>  0 0.25563873E+03</rscale>
<asrwt>0</asrwt>
<pdfrwt beam="1">  1        1 0.12785420E-02 0.25563873E+03</pdfrwt>
<pdfrwt beam="2">  1       -1 0.30244862E+00 0.25563873E+03</pdfrwt>
<totfact> 0.42587882E+02</totfact>
</mgrwt>
</event>
<event>
 4    1  0.1726503E-004  0.2631897E+03  0.7818608E-02  0.1105242E+00
         -1   -1    0    0    0  501 -0.00000000000E+00  0.00000000000E+00  0.70006027368E+01  0.70006027368E+01  0.00000000000E+00 0. -1.
          1   -1    0    0  501    0  0.00000000000E+00 -0.00000000000E+00 -0.24736734021E+04  0.24736734021E+04  0.00000000000E+00 0. -1.
         25    1    1    2    0    0 -0.20479832332E+01 -0.47935517169E+02 -0.99955614965E+03  0.10078762346E+04  0.12000000000E+03 0.  0.
         25    1    1    2    0    0  0.20479832332E+01  0.47935517169E+02 -0.14671166497E+04  0.14727977702E+04  0.12000000000E+03 0.  0.
<mgrwt>
<rscale>  0 0.26318970E+03</rscale>
<asrwt>0</asrwt>
<pdfrwt beam="1">  1        1 0.38056532E+00 0.26318970E+03</pdfrwt>
<pdfrwt beam="2">  1       -1 0.10770153E-02 0.26318970E+03</pdfrwt>
<totfact> 0.27901728E+03</totfact>
</mgrwt>
</event>
<event>
 4    1  0.1726503E-004  0.2759861E+03  0.7818608E-02  0.1097902E+00
          2   -1    0    0  501    0  0.00000000000E+00  0.00000000000E+00  0.25283104612E+04  0.25283104612E+04  0.00000000000E+00 0. -1.
         -2   -1    0    0    0  501 -0.00000000000E+00 -0.00000000000E+00 -0.75315456129E+01  0.75315456129E+01  0.00000000000E+00 0. -1.
         25    1    1    2    0    0  0.65668699862E+02 -0.16579825282E+02  0.13284181050E+04  0.13355455554E+04  0.12000000000E+03 0.  0.
         25    1    1    2    0    0 -0.65668699862E+02  0.16579825282E+02  0.11923608105E+04  0.12002964514E+04  0.12000000000E+03 0.  0.
<mgrwt>
<rscale>  0 0.27598613E+03</rscale>
<asrwt>0</asrwt>
<pdfrwt beam="1">  1        2 0.38897016E+00 0.27598613E+03</pdfrwt>
<pdfrwt beam="2">  1       -2 0.11587013E-02 0.27598613E+03</pdfrwt>
<totfact> 0.66577998E+03</totfact>
</mgrwt>
</event>
<event>
 4    1  0.1726503E-004  0.2723391E+03  0.7818608E-02  0.1099948E+00
         -2   -1    0    0    0  501 -0.00000000000E+00  0.00000000000E+00  0.85588512816E+01  0.85588512816E+01  0.00000000000E+00 0. -1.
          2   -1    0    0  501    0  0.00000000000E+00 -0.00000000000E+00 -0.21664298890E+04  0.21664298890E+04  0.00000000000E+00 0. -1.
         25    1    1    2    0    0 -0.32594060057E+02  0.55492851213E+02 -0.10834669794E+04  0.10919901669E+04  0.12000000000E+03 0.  0.
         25    1    1    2    0    0  0.32594060057E+02 -0.55492851213E+02 -0.10744040584E+04  0.10829985734E+04  0.12000000000E+03 0.  0.
<mgrwt>
<rscale>  0 0.27233914E+03</rscale>
<asrwt>0</asrwt>
<pdfrwt beam="1">  1        2 0.33329685E+00 0.27233914E+03</pdfrwt>
<pdfrwt beam="2">  1       -2 0.13167466E-02 0.27233914E+03</pdfrwt>
<totfact> 0.86604812E+03</totfact>
</mgrwt>
</event>
<event>
 4    1  0.1726503E-004  0.2502584E+03  0.7818608E-02  0.1113142E+00
          2   -1    0    0  501    0  0.00000000000E+00  0.00000000000E+00  0.18437362350E+04  0.18437362350E+04  0.00000000000E+00 0.  1.
         -2   -1    0    0    0  501 -0.00000000000E+00 -0.00000000000E+00 -0.84921641839E+01  0.84921641839E+01  0.00000000000E+00 0.  1.
         25    1    1    2    0    0  0.14090207434E+02 -0.26665624338E+02  0.10556355568E+04  0.10628621822E+04  0.12000000000E+03 0.  0.
         25    1    1    2    0    0 -0.14090207434E+02  0.26665624338E+02  0.77960851404E+03  0.78936621706E+03  0.12000000000E+03 0.  0.
<mgrwt>
<rscale>  0 0.25025835E+03</rscale>
<asrwt>0</asrwt>
<pdfrwt beam="1">  1        2 0.28365141E+00 0.25025835E+03</pdfrwt>
<pdfrwt beam="2">  1       -2 0.13064883E-02 0.25025835E+03</pdfrwt>
<totfact> 0.12930783E+04</totfact>
</mgrwt>
</event>
<event>
 4    1  0.1726503E-004  0.2614390E+03  0.7818608E-02  0.1106282E+00
          1   -1    0    0  501    0  0.00000000000E+00  0.00000000000E+00  0.28209899990E+03  0.28209899990E+03  0.00000000000E+00 0.  1.
         -1   -1    0    0    0  501 -0.00000000000E+00 -0.00000000000E+00 -0.60573007685E+02  0.60573007685E+02  0.00000000000E+00 0.  1.
         25    1    1    2    0    0 -0.82340998264E+01  0.33089409930E+02  0.59580027012E+02  0.13824792609E+03  0.12000000000E+03 0.  0.
         25    1    1    2    0    0  0.82340998264E+01 -0.33089409930E+02  0.16194596520E+03  0.20442408150E+03  0.12000000000E+03 0.  0.
<mgrwt>
<rscale>  0 0.26143898E+03</rscale>
<asrwt>0</asrwt>
<pdfrwt beam="1">  1        1 0.43399846E-01 0.26143898E+03</pdfrwt>
<pdfrwt beam="2">  1       -1 0.93189244E-02 0.26143898E+03</pdfrwt>
<totfact> 0.63813678E+03</totfact>
</mgrwt>
</event>
<event>
 4    1  0.1726503E-004  0.3098183E+03  0.7818608E-02  0.1080433E+00
          2   -1    0    0  501    0  0.00000000000E+00  0.00000000000E+00  0.80142492438E+03  0.80142492438E+03  0.00000000000E+00 0.  1.
         -2   -1    0    0    0  501 -0.00000000000E+00 -0.00000000000E+00 -0.29942715092E+02  0.29942715092E+02  0.00000000000E+00 0.  1.
         25    1    1    2    0    0  0.81588647592E+02  0.18399357921E+02  0.52261035938E+03  0.54269404965E+03  0.12000000000E+03 0.  0.
         25    1    1    2    0    0 -0.81588647592E+02 -0.18399357921E+02  0.24887184991E+03  0.28867358983E+03  0.12000000000E+03 0.  0.
<mgrwt>
<rscale>  0 0.30981826E+03</rscale>
<asrwt>0</asrwt>
<pdfrwt beam="1">  1        2 0.12329613E+00 0.30981826E+03</pdfrwt>
<pdfrwt beam="2">  1       -2 0.46065722E-02 0.30981826E+03</pdfrwt>
<totfact> 0.78634311E+03</totfact>
</mgrwt>
</event>
<event>
 4    1  0.1726503E-004  0.2421727E+03  0.7818608E-02  0.1118354E+00
         -2   -1    0    0    0  501 -0.00000000000E+00  0.00000000000E+00  0.46699903712E+02  0.46699903712E+02  0.00000000000E+00 0. -1.
          2   -1    0    0  501    0  0.00000000000E+00 -0.00000000000E+00 -0.31396014325E+03  0.31396014325E+03  0.00000000000E+00 0. -1.
         25    1    1    2    0    0 -0.98881648102E+01  0.12757260174E+02 -0.13538276015E+03  0.18162878416E+03  0.12000000000E+03 0.  0.
         25    1    1    2    0    0  0.98881648102E+01 -0.12757260174E+02 -0.13187747939E+03  0.17903126280E+03  0.12000000000E+03 0.  0.
<mgrwt>
<rscale>  0 0.24217274E+03</rscale>
<asrwt>0</asrwt>
<pdfrwt beam="1">  1        2 0.48301559E-01 0.24217274E+03</pdfrwt>
<pdfrwt beam="2">  1       -2 0.71846008E-02 0.24217274E+03</pdfrwt>
<totfact> 0.11456467E+04</totfact>
</mgrwt>
</event>
<event>
 4    1  0.1726503E-004  0.3074142E+03  0.7818608E-02  0.1081592E+00
         -1   -1    0    0    0  501 -0.00000000000E+00  0.00000000000E+00  0.17389010842E+02  0.17389010842E+02  0.00000000000E+00 0. -1.
          1   -1    0    0  501    0  0.00000000000E+00 -0.00000000000E+00 -0.13586672366E+04  0.13586672366E+04  0.00000000000E+00 0. -1.
         25    1    1    2    0    0 -0.23471639054E+02  0.81887181718E+02 -0.47199084460E+03  0.49440043058E+03  0.12000000000E+03 0.  0.
         25    1    1    2    0    0  0.23471639054E+02 -0.81887181718E+02 -0.86928738118E+03  0.88165581688E+03  0.12000000000E+03 0.  0.
<mgrwt>
<rscale>  0 0.30741424E+03</rscale>
<asrwt>0</asrwt>
<pdfrwt beam="1">  1        1 0.20902579E+00 0.30741424E+03</pdfrwt>
<pdfrwt beam="2">  1       -1 0.26752317E-02 0.30741424E+03</pdfrwt>
<totfact> 0.39837432E+03</totfact>
</mgrwt>
</event>
<event>
 4    1  0.1726503E-004  0.2853246E+03  0.7818608E-02  0.1092816E+00
         -2   -1    0    0    0  501 -0.00000000000E+00  0.00000000000E+00  0.68449175954E+01  0.68449175954E+01  0.00000000000E+00 0. -1.
          2   -1    0    0  501    0  0.00000000000E+00 -0.00000000000E+00 -0.29733788896E+04  0.29733788896E+04  0.00000000000E+00 0. -1.
         25    1    1    2    0    0 -0.18197567089E+02 -0.61355251567E+02 -0.10331704472E+04  0.10420829100E+04  0.12000000000E+03 0.  0.
         25    1    1    2    0    0  0.18197567089E+02  0.61355251567E+02 -0.19333635249E+04  0.19381408973E+04  0.12000000000E+03 0.  0.
<mgrwt>
<rscale>  0 0.28532461E+03</rscale>
<asrwt>0</asrwt>
<pdfrwt beam="1">  1        2 0.45744245E+00 0.28532461E+03</pdfrwt>
<pdfrwt beam="2">  1       -2 0.10530653E-02 0.28532461E+03</pdfrwt>
<totfact> 0.42696108E+03</totfact>
</mgrwt>
</event>
<event>
 4    1  0.1726503E-004  0.3235421E+03  0.7818608E-02  0.1074031E+00
         -2   -1    0    0    0  501 -0.00000000000E+00  0.00000000000E+00  0.11362041309E+03  0.11362041309E+03  0.00000000000E+00 0.  1.
          2   -1    0    0  501    0  0.00000000000E+00 -0.00000000000E+00 -0.23032722356E+03  0.23032722356E+03  0.00000000000E+00 0.  1.
         25    1    1    2    0    0 -0.54372519009E+01  0.10750202138E+03 -0.43947897272E+02  0.16708580425E+03  0.12000000000E+03 0.  0.
         25    1    1    2    0    0  0.54372519009E+01 -0.10750202138E+03 -0.72758913203E+02  0.17686183240E+03  0.12000000000E+03 0.  0.
<mgrwt>
<rscale>  0 0.32354211E+03</rscale>
<asrwt>0</asrwt>
<pdfrwt beam="1">  1        2 0.35434958E-01 0.32354211E+03</pdfrwt>
<pdfrwt beam="2">  1       -2 0.17480064E-01 0.32354211E+03</pdfrwt>
<totfact> 0.38654598E+03</totfact>
</mgrwt>
</event>
<event>
 4    1  0.1726503E-004  0.2727489E+03  0.7818608E-02  0.1099717E+00
          2   -1    0    0  501    0  0.00000000000E+00  0.00000000000E+00  0.38011694818E+03  0.38011694818E+03  0.00000000000E+00 0. -1.
         -2   -1    0    0    0  501 -0.00000000000E+00 -0.00000000000E+00 -0.48927013201E+02  0.48927013201E+02  0.00000000000E+00 0. -1.
         25    1    1    2    0    0 -0.15427435224E+02 -0.15738996983E+02  0.26143750943E+03  0.28850527399E+03  0.12000000000E+03 0.  0.
         25    1    1    2    0    0  0.15427435224E+02  0.15738996983E+02  0.69752425550E+02  0.14053868739E+03  0.12000000000E+03 0.  0.
<mgrwt>
<rscale>  0 0.27274887E+03</rscale>
<asrwt>0</asrwt>
<pdfrwt beam="1">  1        2 0.58479529E-01 0.27274887E+03</pdfrwt>
<pdfrwt beam="2">  1       -2 0.75272330E-02 0.27274887E+03</pdfrwt>
<totfact> 0.87194209E+03</totfact>
</mgrwt>
</event>
<event>
 4    1  0.1726503E-004  0.3135246E+03  0.7818608E-02  0.1078669E+00
          2   -1    0    0  501    0  0.00000000000E+00  0.00000000000E+00  0.53615091168E+03  0.53615091168E+03  0.00000000000E+00 0. -1.
         -2   -1    0    0    0  501 -0.00000000000E+00 -0.00000000000E+00 -0.45834882381E+02  0.45834882381E+02  0.00000000000E+00 0. -1.
         25    1    1    2    0    0  0.86111078842E+02  0.32645540756E+02  0.32154892848E+03  0.35535132283E+03  0.12000000000E+03 0.  0.
         25    1    1    2    0    0 -0.86111078842E+02 -0.32645540756E+02  0.16876710082E+03  0.22663447123E+03  0.12000000000E+03 0.  0.
<mgrwt>
<rscale>  0 0.31352457E+03</rscale>
<asrwt>0</asrwt>
<pdfrwt beam="1">  1        2 0.82484751E-01 0.31352457E+03</pdfrwt>
<pdfrwt beam="2">  1       -2 0.70515208E-02 0.31352457E+03</pdfrwt>
<totfact> 0.66270090E+03</totfact>
</mgrwt>
</event>
<event>
 4    1  0.1726503E-004  0.4298114E+03  0.7818608E-02  0.1033920E+00
         -2   -1    0    0    0  501 -0.00000000000E+00  0.00000000000E+00  0.76154359107E+02  0.76154359107E+02  0.00000000000E+00 0. -1.
          2   -1    0    0  501    0  0.00000000000E+00 -0.00000000000E+00 -0.60645860648E+03  0.60645860648E+03  0.00000000000E+00 0. -1.
         25    1    1    2    0    0  0.16720329463E+02  0.69857184500E+02 -0.60086197186E+01  0.13998463899E+03  0.12000000000E+03 0.  0.
         25    1    1    2    0    0 -0.16720329463E+02 -0.69857184500E+02 -0.52429562765E+03  0.54262832659E+03  0.12000000000E+03 0.  0.
<mgrwt>
<rscale>  0 0.42981143E+03</rscale>
<asrwt>0</asrwt>
<pdfrwt beam="1">  1        2 0.93301322E-01 0.42981143E+03</pdfrwt>
<pdfrwt beam="2">  1       -2 0.11716055E-01 0.42981143E+03</pdfrwt>
<totfact> 0.25758507E+03</totfact>
</mgrwt>
</event>
<event>
 4    1  0.1726503E-004  0.2563756E+03  0.7818608E-02  0.1109341E+00
          1   -1    0    0  501    0  0.00000000000E+00  0.00000000000E+00  0.49297016614E+03  0.49297016614E+03  0.00000000000E+00 0.  1.
         -1   -1    0    0    0  501 -0.00000000000E+00 -0.00000000000E+00 -0.33332865558E+02  0.33332865558E+02  0.00000000000E+00 0.  1.
         25    1    1    2    0    0 -0.13652164641E+02 -0.34609512380E+02  0.28207222574E+03  0.30878623752E+03  0.12000000000E+03 0.  0.
         25    1    1    2    0    0  0.13652164641E+02  0.34609512380E+02  0.17756507484E+03  0.21751679418E+03  0.12000000000E+03 0.  0.
<mgrwt>
<rscale>  0 0.25637557E+03</rscale>
<asrwt>0</asrwt>
<pdfrwt beam="1">  1        1 0.75841559E-01 0.25637557E+03</pdfrwt>
<pdfrwt beam="2">  1       -1 0.51281335E-02 0.25637557E+03</pdfrwt>
<totfact> 0.77308218E+03</totfact>
</mgrwt>
</event>
<event>
 4    1  0.1726503E-004  0.3613529E+03  0.7818608E-02  0.1058049E+00
          2   -1    0    0  501    0  0.00000000000E+00  0.00000000000E+00  0.84668963652E+02  0.84668963652E+02  0.00000000000E+00 0.  1.
         -2   -1    0    0    0  501 -0.00000000000E+00 -0.00000000000E+00 -0.38554841438E+03  0.38554841438E+03  0.00000000000E+00 0.  1.
         25    1    1    2    0    0 -0.34381857547E+02 -0.91467815090E+01  0.19116224481E+02  0.12661439799E+03  0.12000000000E+03 0.  0.
         25    1    1    2    0    0  0.34381857547E+02  0.91467815090E+01 -0.31999567520E+03  0.34360298004E+03  0.12000000000E+03 0.  0.
<mgrwt>
<rscale>  0 0.36135293E+03</rscale>
<asrwt>0</asrwt>
<pdfrwt beam="1">  1        2 0.13025994E-01 0.36135293E+03</pdfrwt>
<pdfrwt beam="2">  1       -2 0.59315141E-01 0.36135293E+03</pdfrwt>
<totfact> 0.12590624E+03</totfact>
</mgrwt>
</event>
<event>
 4    1  0.1726503E-004  0.2523979E+03  0.7818608E-02  0.1111799E+00
         -2   -1    0    0    0  501 -0.00000000000E+00  0.00000000000E+00  0.78604889432E+01  0.78604889432E+01  0.00000000000E+00 0.  1.
          2   -1    0    0  501    0  0.00000000000E+00 -0.00000000000E+00 -0.20261043411E+04  0.20261043411E+04  0.00000000000E+00 0.  1.
         25    1    1    2    0    0  0.37482868300E+02 -0.90743720699E+01 -0.10593579727E+04  0.10668301758E+04  0.12000000000E+03 0.  0.
         25    1    1    2    0    0 -0.37482868300E+02  0.90743720699E+01 -0.95888587950E+03  0.96713465430E+03  0.12000000000E+03 0.  0.
<mgrwt>
<rscale>  0 0.25239787E+03</rscale>
<asrwt>0</asrwt>
<pdfrwt beam="1">  1        2 0.31170847E+00 0.25239787E+03</pdfrwt>
<pdfrwt beam="2">  1       -2 0.12093055E-02 0.25239787E+03</pdfrwt>
<totfact> 0.11615520E+04</totfact>
</mgrwt>
</event>
<event>
 4    1  0.1726503E-004  0.3215940E+03  0.7818608E-02  0.1074918E+00
         -2   -1    0    0    0  501 -0.00000000000E+00  0.00000000000E+00  0.65086000574E+02  0.65086000574E+02  0.00000000000E+00 0. -1.
          2   -1    0    0  501    0  0.00000000000E+00 -0.00000000000E+00 -0.39725411643E+03  0.39725411643E+03  0.00000000000E+00 0. -1.
         25    1    1    2    0    0  0.39628489583E+02  0.84715861477E+02 -0.24090393443E+03  0.28492437592E+03  0.12000000000E+03 0.  0.
         25    1    1    2    0    0 -0.39628489583E+02 -0.84715861477E+02 -0.91264181434E+02  0.17741574109E+03  0.12000000000E+03 0.  0.
<mgrwt>
<rscale>  0 0.32159404E+03</rscale>
<asrwt>0</asrwt>
<pdfrwt beam="1">  1        2 0.61116018E-01 0.32159404E+03</pdfrwt>
<pdfrwt beam="2">  1       -2 0.10013231E-01 0.32159404E+03</pdfrwt>
<totfact> 0.53303719E+03</totfact>
</mgrwt>
</event>
<event>
 4    1  0.1726503E-004  0.2778597E+03  0.7818608E-02  0.1096864E+00
          2   -1    0    0  501    0  0.00000000000E+00  0.00000000000E+00  0.77873276266E+03  0.77873276266E+03  0.00000000000E+00 0.  1.
         -2   -1    0    0    0  501 -0.00000000000E+00 -0.00000000000E+00 -0.24785784531E+02  0.24785784531E+02  0.00000000000E+00 0.  1.
         25    1    1    2    0    0  0.56283825744E+02  0.38719815755E+02  0.42124840665E+03  0.44330273322E+03  0.12000000000E+03 0.  0.
         25    1    1    2    0    0 -0.56283825744E+02 -0.38719815755E+02  0.33269857147E+03  0.36021581397E+03  0.12000000000E+03 0.  0.
<mgrwt>
<rscale>  0 0.27785969E+03</rscale>
<asrwt>0</asrwt>
<pdfrwt beam="1">  1        2 0.11980502E+00 0.27785969E+03</pdfrwt>
<pdfrwt beam="2">  1       -2 0.38131982E-02 0.27785969E+03</pdfrwt>
<totfact> 0.10814889E+04</totfact>
</mgrwt>
</event>
<event>
 4    1  0.1726503E-004  0.2908396E+03  0.7818608E-02  0.1089912E+00
          2   -1    0    0  501    0  0.00000000000E+00  0.00000000000E+00  0.10167916201E+03  0.10167916201E+03  0.00000000000E+00 0.  1.
         -2   -1    0    0    0  501 -0.00000000000E+00 -0.00000000000E+00 -0.20797696398E+03  0.20797696398E+03  0.00000000000E+00 0.  1.
         25    1    1    2    0    0 -0.96910064531E+01  0.80492289863E+02 -0.39104618331E+02  0.15000698487E+03  0.12000000000E+03 0.  0.
         25    1    1    2    0    0  0.96910064531E+01 -0.80492289863E+02 -0.67193183636E+02  0.15964914112E+03  0.12000000000E+03 0.  0.
<mgrwt>
<rscale>  0 0.29083964E+03</rscale>
<asrwt>0</asrwt>
<pdfrwt beam="1">  1        2 0.15642948E-01 0.29083964E+03</pdfrwt>
<pdfrwt beam="2">  1       -2 0.31996456E-01 0.29083964E+03</pdfrwt>
<totfact> 0.33580399E+03</totfact>
</mgrwt>
</event>
<event>
 4    1  0.1726503E-004  0.3256297E+03  0.7818608E-02  0.1073087E+00
          1   -1    0    0  501    0  0.00000000000E+00  0.00000000000E+00  0.19550415561E+03  0.19550415561E+03  0.00000000000E+00 0. -1.
         -1   -1    0    0    0  501 -0.00000000000E+00 -0.00000000000E+00 -0.13559135850E+03  0.13559135850E+03  0.00000000000E+00 0. -1.
         25    1    1    2    0    0  0.69164204848E+02  0.32896492942E+02  0.11029407609E+03  0.18008511794E+03  0.12000000000E+03 0.  0.
         25    1    1    2    0    0 -0.69164204848E+02 -0.32896492942E+02 -0.50381278985E+02  0.15101039617E+03  0.12000000000E+03 0.  0.
<mgrwt>
<rscale>  0 0.32562969E+03</rscale>
<asrwt>0</asrwt>
<pdfrwt beam="1">  1        1 0.30077562E-01 0.32562969E+03</pdfrwt>
<pdfrwt beam="2">  1       -1 0.20860209E-01 0.32562969E+03</pdfrwt>
<totfact> 0.28440883E+03</totfact>
</mgrwt>
</event>
<event>
 4    1  0.1726503E-004  0.2451968E+03  0.7818608E-02  0.1116379E+00
          2   -1    0    0  501    0  0.00000000000E+00  0.00000000000E+00  0.11151189953E+04  0.11151189953E+04  0.00000000000E+00 0. -1.
         -2   -1    0    0    0  501 -0.00000000000E+00 -0.00000000000E+00 -0.13478709754E+02  0.13478709754E+02  0.00000000000E+00 0. -1.
         25    1    1    2    0    0  0.23686217636E+02  0.64299397530E+01  0.57516914805E+03  0.58806626319E+03  0.12000000000E+03 0.  0.
         25    1    1    2    0    0 -0.23686217636E+02 -0.64299397530E+01  0.52647113752E+03  0.54053144189E+03  0.12000000000E+03 0.  0.
<mgrwt>
<rscale>  0 0.24519678E+03</rscale>
<asrwt>0</asrwt>
<pdfrwt beam="1">  1        2 0.17155670E+00 0.24519678E+03</pdfrwt>
<pdfrwt beam="2">  1       -2 0.20736485E-02 0.24519678E+03</pdfrwt>
<totfact> 0.16286287E+04</totfact>
</mgrwt>
</event>
<event>
 4    1  0.1726503E-004  0.2727050E+03  0.7818608E-02  0.1099741E+00
         -4   -1    0    0    0  501 -0.00000000000E+00  0.00000000000E+00  0.81536698992E+02  0.81536698992E+02  0.00000000000E+00 0.  1.
          4   -1    0    0  501    0  0.00000000000E+00 -0.00000000000E+00 -0.22802012652E+03  0.22802012652E+03  0.00000000000E+00 0.  1.
         25    1    1    2    0    0 -0.34639554323E+02 -0.21452893554E+02 -0.13035919609E+03  0.18180661531E+03  0.12000000000E+03 0.  0.
         25    1    1    2    0    0  0.34639554323E+02  0.21452893554E+02 -0.16124231430E+02  0.12775021019E+03  0.12000000000E+03 0.  0.
<mgrwt>
<rscale>  0 0.27270503E+03</rscale>
<asrwt>0</asrwt>
<pdfrwt beam="1">  1        4 0.35080019E-01 0.27270503E+03</pdfrwt>
<pdfrwt beam="2">  1       -4 0.12544108E-01 0.27270503E+03</pdfrwt>
<totfact> 0.75878229E+02</totfact>
</mgrwt>
</event>
<event>
 4    1  0.1726503E-004  0.3502735E+03  0.7818608E-02  0.1062503E+00
          1   -1    0    0  501    0  0.00000000000E+00  0.00000000000E+00  0.99843945898E+03  0.99843945898E+03  0.00000000000E+00 0. -1.
         -1   -1    0    0    0  501 -0.00000000000E+00 -0.00000000000E+00 -0.30720819840E+02  0.30720819840E+02  0.00000000000E+00 0. -1.
         25    1    1    2    0    0  0.10135345924E+03 -0.60929573222E+02  0.62439877641E+03  0.64672928538E+03  0.12000000000E+03 0.  0.
         25    1    1    2    0    0 -0.10135345924E+03  0.60929573222E+02  0.34331986273E+03  0.38243099343E+03  0.12000000000E+03 0.  0.
<mgrwt>
<rscale>  0 0.35027349E+03</rscale>
<asrwt>0</asrwt>
<pdfrwt beam="1">  1        1 0.15360605E+00 0.35027349E+03</pdfrwt>
<pdfrwt beam="2">  1       -1 0.47262807E-02 0.35027349E+03</pdfrwt>
<totfact> 0.30794276E+03</totfact>
</mgrwt>
</event>
<event>
 4    1  0.1726503E-004  0.2439937E+03  0.7818608E-02  0.1117161E+00
          2   -1    0    0  501    0  0.00000000000E+00  0.00000000000E+00  0.51638753337E+02  0.51638753337E+02  0.00000000000E+00 0.  1.
         -2   -1    0    0    0  501 -0.00000000000E+00 -0.00000000000E+00 -0.28821836606E+03  0.28821836606E+03  0.00000000000E+00 0.  1.
         25    1    1    2    0    0  0.30524340696E+01 -0.11838008845E+02 -0.92842097934E+02  0.15221403009E+03  0.12000000000E+03 0.  0.
         25    1    1    2    0    0 -0.30524340696E+01  0.11838008845E+02 -0.14373751479E+03  0.18764308931E+03  0.12000000000E+03 0.  0.
<mgrwt>
<rscale>  0 0.24399375E+03</rscale>
<asrwt>0</asrwt>
<pdfrwt beam="1">  1        2 0.79444235E-02 0.24399375E+03</pdfrwt>
<pdfrwt beam="2">  1       -2 0.44341287E-01 0.24399375E+03</pdfrwt>
<totfact> 0.41369460E+03</totfact>
</mgrwt>
</event>
<event>
 4    1  0.1726503E-004  0.2596834E+03  0.7818608E-02  0.1107334E+00
          2   -1    0    0  501    0  0.00000000000E+00  0.00000000000E+00  0.16027218037E+03  0.16027218037E+03  0.00000000000E+00 0. -1.
         -2   -1    0    0    0  501 -0.00000000000E+00 -0.00000000000E+00 -0.10518901862E+03  0.10518901862E+03  0.00000000000E+00 0. -1.
         25    1    1    2    0    0  0.25053049761E+02 -0.38251881670E+01 -0.16028138527E+02  0.12368988880E+03  0.12000000000E+03 0.  0.
         25    1    1    2    0    0 -0.25053049761E+02  0.38251881670E+01  0.71111300276E+02  0.14177131019E+03  0.12000000000E+03 0.  0.
<mgrwt>
<rscale>  0 0.25968345E+03</rscale>
<asrwt>0</asrwt>
<pdfrwt beam="1">  1        2 0.24657259E-01 0.25968345E+03</pdfrwt>
<pdfrwt beam="2">  1       -2 0.16182926E-01 0.25968345E+03</pdfrwt>
<totfact> 0.65141072E+03</totfact>
</mgrwt>
</event>
<event>
 4    1  0.1726503E-004  0.2607484E+03  0.7818608E-02  0.1106694E+00
         -1   -1    0    0    0  501 -0.00000000000E+00  0.00000000000E+00  0.20607875611E+02  0.20607875611E+02  0.00000000000E+00 0.  1.
          1   -1    0    0  501    0  0.00000000000E+00 -0.00000000000E+00 -0.82480292977E+03  0.82480292977E+03  0.00000000000E+00 0.  1.
         25    1    1    2    0    0 -0.32801791371E+02  0.49274221315E+01 -0.27664313263E+03  0.30336720297E+03  0.12000000000E+03 0.  0.
         25    1    1    2    0    0  0.32801791371E+02 -0.49274221315E+01 -0.52755192153E+03  0.54204360242E+03  0.12000000000E+03 0.  0.
<mgrwt>
<rscale>  0 0.26074843E+03</rscale>
<asrwt>0</asrwt>
<pdfrwt beam="1">  1        1 0.12689275E+00 0.26074843E+03</pdfrwt>
<pdfrwt beam="2">  1       -1 0.31704427E-02 0.26074843E+03</pdfrwt>
<totfact> 0.76056046E+03</totfact>
</mgrwt>
</event>
<event>
 4    1  0.1726503E-004  0.3550222E+03  0.7818608E-02  0.1060572E+00
          1   -1    0    0  501    0  0.00000000000E+00  0.00000000000E+00  0.39427039519E+03  0.39427039519E+03  0.00000000000E+00 0. -1.
         -1   -1    0    0    0  501 -0.00000000000E+00 -0.00000000000E+00 -0.79920267429E+02  0.79920267429E+02  0.00000000000E+00 0. -1.
         25    1    1    2    0    0  0.57904468717E+02  0.10084646924E+03  0.23717299106E+03  0.29012749877E+03  0.12000000000E+03 0.  0.
         25    1    1    2    0    0 -0.57904468717E+02 -0.10084646924E+03  0.77177136704E+02  0.18406316385E+03  0.12000000000E+03 0.  0.
<mgrwt>
<rscale>  0 0.35502223E+03</rscale>
<asrwt>0</asrwt>
<pdfrwt beam="1">  1        1 0.60656982E-01 0.35502223E+03</pdfrwt>
<pdfrwt beam="2">  1       -1 0.12295426E-01 0.35502223E+03</pdfrwt>
<totfact> 0.27302638E+03</totfact>
</mgrwt>
</event>
<event>
 4    1  0.1726503E-004  0.2425974E+03  0.7818608E-02  0.1118075E+00
          2   -1    0    0  501    0  0.00000000000E+00  0.00000000000E+00  0.35392042172E+03  0.35392042172E+03  0.00000000000E+00 0. -1.
         -2   -1    0    0    0  501 -0.00000000000E+00 -0.00000000000E+00 -0.41572535773E+02  0.41572535773E+02  0.00000000000E+00 0. -1.
         25    1    1    2    0    0  0.12899605720E+02  0.58588946772E+01  0.17347627475E+03  0.21141131563E+03  0.12000000000E+03 0.  0.
         25    1    1    2    0    0 -0.12899605720E+02 -0.58588946772E+01  0.13887161119E+03  0.18408164186E+03  0.12000000000E+03 0.  0.
<mgrwt>
<rscale>  0 0.24259736E+03</rscale>
<asrwt>0</asrwt>
<pdfrwt beam="1">  1        2 0.54449293E-01 0.24259736E+03</pdfrwt>
<pdfrwt beam="2">  1       -2 0.63957750E-02 0.24259736E+03</pdfrwt>
<totfact> 0.12052511E+04</totfact>
</mgrwt>
</event>
<event>
 4    1  0.1726503E-004  0.2817267E+03  0.7818608E-02  0.1094750E+00
          2   -1    0    0  501    0  0.00000000000E+00  0.00000000000E+00  0.92938263656E+02  0.92938263656E+02  0.00000000000E+00 0.  1.
         -2   -1    0    0    0  501 -0.00000000000E+00 -0.00000000000E+00 -0.21350173951E+03  0.21350173951E+03  0.00000000000E+00 0.  1.
         25    1    1    2    0    0 -0.18089443294E+02  0.46627030028E+02 -0.11927165244E+03  0.17642855484E+03  0.12000000000E+03 0.  0.
         25    1    1    2    0    0  0.18089443294E+02 -0.46627030028E+02 -0.12918234160E+01  0.13001144833E+03  0.12000000000E+03 0.  0.
<mgrwt>
<rscale>  0 0.28172668E+03</rscale>
<asrwt>0</asrwt>
<pdfrwt beam="1">  1        2 0.14298195E-01 0.28172668E+03</pdfrwt>
<pdfrwt beam="2">  1       -2 0.32846421E-01 0.28172668E+03</pdfrwt>
<totfact> 0.35570847E+03</totfact>
</mgrwt>
</event>
<event>
 4    1  0.1726503E-004  0.2826655E+03  0.7818608E-02  0.1094242E+00
         -1   -1    0    0    0  501 -0.00000000000E+00  0.00000000000E+00  0.42521897494E+03  0.42521897494E+03  0.00000000000E+00 0. -1.
          1   -1    0    0  501    0  0.00000000000E+00 -0.00000000000E+00 -0.46975655458E+02  0.46975655458E+02  0.00000000000E+00 0. -1.
         25    1    1    2    0    0  0.55326717162E+02 -0.30580094992E+02  0.25549677575E+03  0.28926595074E+03  0.12000000000E+03 0.  0.
         25    1    1    2    0    0 -0.55326717162E+02  0.30580094992E+02  0.12274654373E+03  0.18292867965E+03  0.12000000000E+03 0.  0.
<mgrwt>
<rscale>  0 0.28266546E+03</rscale>
<asrwt>0</asrwt>
<pdfrwt beam="1">  1        1 0.72270242E-02 0.28266546E+03</pdfrwt>
<pdfrwt beam="2">  1       -1 0.65418301E-01 0.28266546E+03</pdfrwt>
<totfact> 0.24488824E+03</totfact>
</mgrwt>
</event>
<event>
 4    1  0.1726503E-004  0.5250787E+03  0.7818608E-02  0.1007433E+00
         -1   -1    0    0    0  501 -0.00000000000E+00  0.00000000000E+00  0.26655996274E+02  0.26655996274E+02  0.00000000000E+00 0. -1.
          1   -1    0    0  501    0  0.00000000000E+00 -0.00000000000E+00 -0.25857937010E+04  0.25857937010E+04  0.00000000000E+00 0. -1.
         25    1    1    2    0    0  0.17000918667E+03 -0.10883329901E+03 -0.18635971894E+04  0.18783349794E+04  0.12000000000E+03 0.  0.
         25    1    1    2    0    0 -0.17000918667E+03  0.10883329901E+03 -0.69554051535E+03  0.73411471788E+03  0.12000000000E+03 0.  0.
<mgrwt>
<rscale>  0 0.52507869E+03</rscale>
<asrwt>0</asrwt>
<pdfrwt beam="1">  1        1 0.39781460E+00 0.52507869E+03</pdfrwt>
<pdfrwt beam="2">  1       -1 0.41009206E-02 0.52507869E+03</pdfrwt>
<totfact> 0.31703550E+02</totfact>
</mgrwt>
</event>
<event>
 4    1  0.1726503E-004  0.2467312E+03  0.7818608E-02  0.1115388E+00
          1   -1    0    0  501    0  0.00000000000E+00  0.00000000000E+00  0.38919169277E+03  0.38919169277E+03  0.00000000000E+00 0.  1.
         -1   -1    0    0    0  501 -0.00000000000E+00 -0.00000000000E+00 -0.39104321035E+02  0.39104321035E+02  0.00000000000E+00 0.  1.
         25    1    1    2    0    0 -0.13927916903E+02 -0.94938254794E+01  0.13489425042E+03  0.18133002616E+03  0.12000000000E+03 0.  0.
         25    1    1    2    0    0  0.13927916903E+02  0.94938254794E+01  0.21519312131E+03  0.24696598764E+03  0.12000000000E+03 0.  0.
<mgrwt>
<rscale>  0 0.24673125E+03</rscale>
<asrwt>0</asrwt>
<pdfrwt beam="1">  1        1 0.59875642E-01 0.24673125E+03</pdfrwt>
<pdfrwt beam="2">  1       -1 0.60160497E-02 0.24673125E+03</pdfrwt>
<totfact> 0.82518263E+03</totfact>
</mgrwt>
</event>
<event>
 4    1  0.1726503E-004  0.3324999E+03  0.7818608E-02  0.1070036E+00
          2   -1    0    0  501    0  0.00000000000E+00  0.00000000000E+00  0.47574931732E+03  0.47574931732E+03  0.00000000000E+00 0.  1.
         -2   -1    0    0    0  501 -0.00000000000E+00 -0.00000000000E+00 -0.58095818732E+02  0.58095818732E+02  0.00000000000E+00 0.  1.
         25    1    1    2    0    0 -0.97934270522E+02 -0.55060879543E+02  0.16897079794E+03  0.23574128267E+03  0.12000000000E+03 0.  0.
         25    1    1    2    0    0  0.97934270522E+02  0.55060879543E+02  0.24868270065E+03  0.29810385338E+03  0.12000000000E+03 0.  0.
<mgrwt>
<rscale>  0 0.33249990E+03</rscale>
<asrwt>0</asrwt>
<pdfrwt beam="1">  1        2 0.73192200E-01 0.33249990E+03</pdfrwt>
<pdfrwt beam="2">  1       -2 0.89378186E-02 0.33249990E+03</pdfrwt>
<totfact> 0.52371673E+03</totfact>
</mgrwt>
</event>
<event>
 4    1  0.1726503E-004  0.2570336E+03  0.7818608E-02  0.1108939E+00
         -2   -1    0    0    0  501 -0.00000000000E+00  0.00000000000E+00  0.22252614115E+02  0.22252614115E+02  0.00000000000E+00 0. -1.
          2   -1    0    0  501    0  0.00000000000E+00 -0.00000000000E+00 -0.74223035841E+03  0.74223035841E+03  0.00000000000E+00 0. -1.
         25    1    1    2    0    0 -0.14591470159E+02  0.41675675741E+02 -0.32157690081E+03  0.34606571064E+03  0.12000000000E+03 0.  0.
         25    1    1    2    0    0  0.14591470159E+02 -0.41675675741E+02 -0.39840084349E+03  0.41841726189E+03  0.12000000000E+03 0.  0.
<mgrwt>
<rscale>  0 0.25703358E+03</rscale>
<asrwt>0</asrwt>
<pdfrwt beam="1">  1        2 0.11418929E+00 0.25703358E+03</pdfrwt>
<pdfrwt beam="2">  1       -2 0.34234790E-02 0.25703358E+03</pdfrwt>
<totfact> 0.13453719E+04</totfact>
</mgrwt>
</event>
<event>
 4    1  0.1726503E-004  0.3049423E+03  0.7818608E-02  0.1082796E+00
         -1   -1    0    0    0  501 -0.00000000000E+00  0.00000000000E+00  0.91841424714E+02  0.91841424714E+02  0.00000000000E+00 0. -1.
          1   -1    0    0  501    0  0.00000000000E+00 -0.00000000000E+00 -0.25312605558E+03  0.25312605558E+03  0.00000000000E+00 0. -1.
         25    1    1    2    0    0 -0.42103337635E+02 -0.64608947353E+02 -0.19717649729E+02  0.14399928065E+03  0.12000000000E+03 0.  0.
         25    1    1    2    0    0  0.42103337635E+02  0.64608947353E+02 -0.14156698113E+03  0.20096819964E+03  0.12000000000E+03 0.  0.
<mgrwt>
<rscale>  0 0.30494234E+03</rscale>
<asrwt>0</asrwt>
<pdfrwt beam="1">  1        1 0.38942469E-01 0.30494234E+03</pdfrwt>
<pdfrwt beam="2">  1       -1 0.14129450E-01 0.30494234E+03</pdfrwt>
<totfact> 0.38378559E+03</totfact>
</mgrwt>
</event>
<event>
 4    1  0.1726503E-004  0.3396839E+03  0.7818608E-02  0.1066931E+00
         -2   -1    0    0    0  501 -0.00000000000E+00  0.00000000000E+00  0.51466491991E+02  0.51466491991E+02  0.00000000000E+00 0.  1.
          2   -1    0    0  501    0  0.00000000000E+00 -0.00000000000E+00 -0.56048674850E+03  0.56048674850E+03  0.00000000000E+00 0.  1.
         25    1    1    2    0    0 -0.13337730357E+02  0.93614490046E+01 -0.46904256294E+03  0.48442384089E+03  0.12000000000E+03 0.  0.
         25    1    1    2    0    0  0.13337730357E+02 -0.93614490046E+01 -0.39977693571E+02  0.12752939960E+03  0.12000000000E+03 0.  0.
<mgrwt>
<rscale>  0 0.33968389E+03</rscale>
<asrwt>0</asrwt>
<pdfrwt beam="1">  1        2 0.86228735E-01 0.33968389E+03</pdfrwt>
<pdfrwt beam="2">  1       -2 0.79179214E-02 0.33968389E+03</pdfrwt>
<totfact> 0.52662517E+03</totfact>
</mgrwt>
</event>
<event>
 4    1  0.1726503E-004  0.2584374E+03  0.7818608E-02  0.1108086E+00
          2   -1    0    0  501    0  0.00000000000E+00  0.00000000000E+00  0.12147892482E+04  0.12147892482E+04  0.00000000000E+00 0.  1.
         -2   -1    0    0    0  501 -0.00000000000E+00 -0.00000000000E+00 -0.13745160664E+02  0.13745160664E+02  0.00000000000E+00 0.  1.
         25    1    1    2    0    0  0.30199433169E+02  0.29205384937E+02  0.49082444944E+03  0.50702426021E+03  0.12000000000E+03 0.  0.
         25    1    1    2    0    0 -0.30199433169E+02 -0.29205384937E+02  0.71021963804E+03  0.72151014860E+03  0.12000000000E+03 0.  0.
<mgrwt>
<rscale>  0 0.25843741E+03</rscale>
<asrwt>0</asrwt>
<pdfrwt beam="1">  1        2 0.18689057E+00 0.25843741E+03</pdfrwt>
<pdfrwt beam="2">  1       -2 0.21146411E-02 0.25843741E+03</pdfrwt>
<totfact> 0.13901873E+04</totfact>
</mgrwt>
</event>
<event>
 4    1  0.1726503E-004  0.4650250E+03  0.7818608E-02  0.1023334E+00
         -2   -1    0    0    0  501 -0.00000000000E+00  0.00000000000E+00  0.24218651204E+02  0.24218651204E+02  0.00000000000E+00 0.  1.
          2   -1    0    0  501    0  0.00000000000E+00 -0.00000000000E+00 -0.22322493763E+04  0.22322493763E+04  0.00000000000E+00 0.  1.
         25    1    1    2    0    0 -0.18401135272E+03 -0.29307262758E+02 -0.14451667050E+04  0.14620622076E+04  0.12000000000E+03 0.  0.
         25    1    1    2    0    0  0.18401135272E+03  0.29307262758E+02 -0.76286402012E+03  0.79440581995E+03  0.12000000000E+03 0.  0.
<mgrwt>
<rscale>  0 0.46502503E+03</rscale>
<asrwt>0</asrwt>
<pdfrwt beam="1">  1        2 0.34342302E+00 0.46502503E+03</pdfrwt>
<pdfrwt beam="2">  1       -2 0.37259459E-02 0.46502503E+03</pdfrwt>
<totfact> 0.16861050E+03</totfact>
</mgrwt>
</event>
<event>
 4    1  0.1726503E-004  0.2789334E+03  0.7818608E-02  0.1096273E+00
          2   -1    0    0  501    0  0.00000000000E+00  0.00000000000E+00  0.18072130888E+03  0.18072130888E+03  0.00000000000E+00 0.  1.
         -2   -1    0    0    0  501 -0.00000000000E+00 -0.00000000000E+00 -0.10762961721E+03  0.10762961721E+03  0.00000000000E+00 0.  1.
         25    1    1    2    0    0  0.61761387518E+02  0.32846439824E+02  0.23567794463E+02  0.14088576413E+03  0.12000000000E+03 0.  0.
         25    1    1    2    0    0 -0.61761387518E+02 -0.32846439824E+02  0.49523897214E+02  0.14746516196E+03  0.12000000000E+03 0.  0.
<mgrwt>
<rscale>  0 0.27893344E+03</rscale>
<asrwt>0</asrwt>
<pdfrwt beam="1">  1        2 0.27803278E-01 0.27893344E+03</pdfrwt>
<pdfrwt beam="2">  1       -2 0.16558403E-01 0.27893344E+03</pdfrwt>
<totfact> 0.55008977E+03</totfact>
</mgrwt>
</event>
<event>
 4    1  0.1726503E-004  0.3510863E+03  0.7818608E-02  0.1062170E+00
         -1   -1    0    0    0  501 -0.00000000000E+00  0.00000000000E+00  0.23350044885E+02  0.23350044885E+02  0.00000000000E+00 0.  1.
          1   -1    0    0  501    0  0.00000000000E+00 -0.00000000000E+00 -0.13197150046E+04  0.13197150046E+04  0.00000000000E+00 0.  1.
         25    1    1    2    0    0  0.39056301394E+01 -0.12239579459E+03 -0.50405772145E+03  0.53241916854E+03  0.12000000000E+03 0.  0.
         25    1    1    2    0    0 -0.39056301394E+01  0.12239579459E+03 -0.79230723823E+03  0.81064588091E+03  0.12000000000E+03 0.  0.
<mgrwt>
<rscale>  0 0.35108634E+03</rscale>
<asrwt>0</asrwt>
<pdfrwt beam="1">  1        1 0.20303308E+00 0.35108634E+03</pdfrwt>
<pdfrwt beam="2">  1       -1 0.35923146E-02 0.35108634E+03</pdfrwt>
<totfact> 0.27346096E+03</totfact>
</mgrwt>
</event>
<event>
 4    1  0.1726503E-004  0.2716773E+03  0.7818608E-02  0.1100323E+00
          2   -1    0    0  501    0  0.00000000000E+00  0.00000000000E+00  0.35593366134E+03  0.35593366134E+03  0.00000000000E+00 0. -1.
         -2   -1    0    0    0  501 -0.00000000000E+00 -0.00000000000E+00 -0.51841514490E+02  0.51841514490E+02  0.00000000000E+00 0. -1.
         25    1    1    2    0    0  0.18573959076E+02 -0.58980076030E+01  0.61088233894E+02  0.13605715994E+03  0.12000000000E+03 0.  0.
         25    1    1    2    0    0 -0.18573959076E+02  0.58980076030E+01  0.24300391295E+03  0.27171801589E+03  0.12000000000E+03 0.  0.
<mgrwt>
<rscale>  0 0.27167731E+03</rscale>
<asrwt>0</asrwt>
<pdfrwt beam="1">  1        2 0.54759023E-01 0.27167731E+03</pdfrwt>
<pdfrwt beam="2">  1       -2 0.79756178E-02 0.27167731E+03</pdfrwt>
<totfact> 0.85531395E+03</totfact>
</mgrwt>
</event>
<event>
 4    1  0.1726503E-004  0.2515825E+03  0.7818608E-02  0.1112309E+00
         -1   -1    0    0    0  501 -0.00000000000E+00  0.00000000000E+00  0.25671663838E+02  0.25671663838E+02  0.00000000000E+00 0.  1.
          1   -1    0    0  501    0  0.00000000000E+00 -0.00000000000E+00 -0.61637770425E+03  0.61637770425E+03  0.00000000000E+00 0.  1.
         25    1    1    2    0    0 -0.24559909873E+02  0.25949475982E+02 -0.32628192039E+03  0.34948026561E+03  0.12000000000E+03 0.  0.
         25    1    1    2    0    0  0.24559909873E+02 -0.25949475982E+02 -0.26442412003E+03  0.29256910249E+03  0.12000000000E+03 0.  0.
<mgrwt>
<rscale>  0 0.25158252E+03</rscale>
<asrwt>0</asrwt>
<pdfrwt beam="1">  1        1 0.94827328E-01 0.25158252E+03</pdfrwt>
<pdfrwt beam="2">  1       -1 0.39494872E-02 0.25158252E+03</pdfrwt>
<totfact> 0.84210737E+03</totfact>
</mgrwt>
</event>
<event>
 4    1  0.1726503E-004  0.2936058E+03  0.7818608E-02  0.1088481E+00
         -2   -1    0    0    0  501 -0.00000000000E+00  0.00000000000E+00  0.10108017429E+02  0.10108017429E+02  0.00000000000E+00 0.  1.
          2   -1    0    0  501    0  0.00000000000E+00 -0.00000000000E+00 -0.21320782559E+04  0.21320782559E+04  0.00000000000E+00 0.  1.
         25    1    1    2    0    0 -0.20056275855E+02 -0.20140899973E+02 -0.16420785841E+04  0.16467027621E+04  0.12000000000E+03 0.  0.
         25    1    1    2    0    0  0.20056275855E+02  0.20140899973E+02 -0.47989165437E+03  0.49548351132E+03  0.12000000000E+03 0.  0.
<mgrwt>
<rscale>  0 0.29360575E+03</rscale>
<asrwt>0</asrwt>
<pdfrwt beam="1">  1        2 0.32801202E+00 0.29360575E+03</pdfrwt>
<pdfrwt beam="2">  1       -2 0.15550797E-02 0.29360575E+03</pdfrwt>
<totfact> 0.70828450E+03</totfact>
</mgrwt>
</event>
<event>
 4    1  0.1726503E-004  0.2844966E+03  0.7818608E-02  0.1093258E+00
          1   -1    0    0  501    0  0.00000000000E+00  0.00000000000E+00  0.38060095244E+03  0.38060095244E+03  0.00000000000E+00 0. -1.
         -1   -1    0    0    0  501 -0.00000000000E+00 -0.00000000000E+00 -0.53164808895E+02  0.53164808895E+02  0.00000000000E+00 0. -1.
         25    1    1    2    0    0 -0.75623661798E+02 -0.10451291128E+02  0.16757800550E+03  0.21979662335E+03  0.12000000000E+03 0.  0.
         25    1    1    2    0    0  0.75623661798E+02  0.10451291128E+02  0.15985813805E+03  0.21396913799E+03  0.12000000000E+03 0.  0.
<mgrwt>
<rscale>  0 0.28449659E+03</rscale>
<asrwt>0</asrwt>
<pdfrwt beam="1">  1        1 0.58553991E-01 0.28449659E+03</pdfrwt>
<pdfrwt beam="2">  1       -1 0.81792016E-02 0.28449659E+03</pdfrwt>
<totfact> 0.53538532E+03</totfact>
</mgrwt>
</event>
<event>
 4    1  0.1726503E-004  0.3059414E+03  0.7818608E-02  0.1082308E+00
          2   -1    0    0  501    0  0.00000000000E+00  0.00000000000E+00  0.14961121370E+03  0.14961121370E+03  0.00000000000E+00 0.  1.
         -2   -1    0    0    0  501 -0.00000000000E+00 -0.00000000000E+00 -0.15640563454E+03  0.15640563454E+03  0.00000000000E+00 0.  1.
         25    1    1    2    0    0 -0.54068634117E+02 -0.77153836503E+02 -0.14531223237E+02  0.15325563001E+03  0.12000000000E+03 0.  0.
         25    1    1    2    0    0  0.54068634117E+02  0.77153836503E+02  0.77368023945E+01  0.15276121823E+03  0.12000000000E+03 0.  0.
<mgrwt>
<rscale>  0 0.30594141E+03</rscale>
<asrwt>0</asrwt>
<pdfrwt beam="1">  1        2 0.23017110E-01 0.30594141E+03</pdfrwt>
<pdfrwt beam="2">  1       -2 0.24062405E-01 0.30594141E+03</pdfrwt>
<totfact> 0.35914253E+03</totfact>
</mgrwt>
</event>
<event>
 4    1  0.1726503E-004  0.2512019E+03  0.7818608E-02  0.1112548E+00
          1   -1    0    0  501    0  0.00000000000E+00  0.00000000000E+00  0.53557443622E+03  0.53557443622E+03  0.00000000000E+00 0.  1.
         -1   -1    0    0    0  501 -0.00000000000E+00 -0.00000000000E+00 -0.29455463075E+02  0.29455463075E+02  0.00000000000E+00 0.  1.
         25    1    1    2    0    0 -0.22197231331E+02 -0.29411201519E+02  0.24355442393E+03  0.27400090013E+03  0.12000000000E+03 0.  0.
         25    1    1    2    0    0  0.22197231331E+02  0.29411201519E+02  0.26256454921E+03  0.29102899917E+03  0.12000000000E+03 0.  0.
<mgrwt>
<rscale>  0 0.25120186E+03</rscale>
<asrwt>0</asrwt>
<pdfrwt beam="1">  1        1 0.82396060E-01 0.25120186E+03</pdfrwt>
<pdfrwt beam="2">  1       -1 0.45316101E-02 0.25120186E+03</pdfrwt>
<totfact> 0.83200593E+03</totfact>
</mgrwt>
</event>
<event>
 4    1  0.1726503E-004  0.2923508E+03  0.7818608E-02  0.1089128E+00
         -2   -1    0    0    0  501 -0.00000000000E+00  0.00000000000E+00  0.25855126062E+02  0.25855126062E+02  0.00000000000E+00 0.  1.
          2   -1    0    0  501    0  0.00000000000E+00 -0.00000000000E+00 -0.82642186715E+03  0.82642186715E+03  0.00000000000E+00 0.  1.
         25    1    1    2    0    0 -0.27360823760E+02  0.70463276702E+01 -0.62925574349E+03  0.64121841530E+03  0.12000000000E+03 0.  0.
         25    1    1    2    0    0  0.27360823760E+02 -0.70463276702E+01 -0.17131099760E+03  0.21105857791E+03  0.12000000000E+03 0.  0.
<mgrwt>
<rscale>  0 0.29235076E+03</rscale>
<asrwt>0</asrwt>
<pdfrwt beam="1">  1        2 0.12714182E+00 0.29235076E+03</pdfrwt>
<pdfrwt beam="2">  1       -2 0.39777120E-02 0.29235076E+03</pdfrwt>
<totfact> 0.94226755E+03</totfact>
</mgrwt>
</event>
<event>
 4    1  0.1726503E-004  0.2451747E+03  0.7818608E-02  0.1116393E+00
          2   -1    0    0  501    0  0.00000000000E+00  0.00000000000E+00  0.53404103352E+03  0.53404103352E+03  0.00000000000E+00 0.  1.
         -2   -1    0    0    0  501 -0.00000000000E+00 -0.00000000000E+00 -0.28139522165E+02  0.28139522165E+02  0.00000000000E+00 0.  1.
         25    1    1    2    0    0  0.22865460995E+02 -0.48264115158E+01  0.23224578090E+03  0.26245804674E+03  0.12000000000E+03 0.  0.
         25    1    1    2    0    0 -0.22865460995E+02  0.48264115158E+01  0.27365573046E+03  0.29972250894E+03  0.12000000000E+03 0.  0.
<mgrwt>
<rscale>  0 0.24517471E+03</rscale>
<asrwt>0</asrwt>
<pdfrwt beam="1">  1        2 0.82160152E-01 0.24517471E+03</pdfrwt>
<pdfrwt beam="2">  1       -2 0.43291576E-02 0.24517471E+03</pdfrwt>
<totfact> 0.13904726E+04</totfact>
</mgrwt>
</event>
<event>
 4    1  0.1726503E-004  0.2900312E+03  0.7818608E-02  0.1090333E+00
          2   -1    0    0  501    0  0.00000000000E+00  0.00000000000E+00  0.54306732387E+03  0.54306732387E+03  0.00000000000E+00 0. -1.
         -2   -1    0    0    0  501 -0.00000000000E+00 -0.00000000000E+00 -0.38723601663E+02  0.38723601663E+02  0.00000000000E+00 0. -1.
         25    1    1    2    0    0  0.35663905632E+02  0.52058874968E+02  0.35538589583E+03  0.38036978795E+03  0.12000000000E+03 0.  0.
         25    1    1    2    0    0 -0.35663905632E+02 -0.52058874968E+02  0.14895782638E+03  0.20142113759E+03  0.12000000000E+03 0.  0.
<mgrwt>
<rscale>  0 0.29003119E+03</rscale>
<asrwt>0</asrwt>
<pdfrwt beam="1">  1        2 0.83548814E-01 0.29003119E+03</pdfrwt>
<pdfrwt beam="2">  1       -2 0.59574776E-02 0.29003119E+03</pdfrwt>
<totfact> 0.84546058E+03</totfact>
</mgrwt>
</event>
<event>
 4    1  0.1726503E-004  0.2626731E+03  0.7818608E-02  0.1105548E+00
          2   -1    0    0  501    0  0.00000000000E+00  0.00000000000E+00  0.13560966616E+04  0.13560966616E+04  0.00000000000E+00 0.  1.
         -2   -1    0    0    0  501 -0.00000000000E+00 -0.00000000000E+00 -0.12719812989E+02  0.12719812989E+02  0.00000000000E+00 0.  1.
         25    1    1    2    0    0 -0.14433002503E+02 -0.32616985307E+02  0.46474032202E+03  0.48130629147E+03  0.12000000000E+03 0.  0.
         25    1    1    2    0    0  0.14433002503E+02  0.32616985307E+02  0.87863652662E+03  0.88751018315E+03  0.12000000000E+03 0.  0.
<mgrwt>
<rscale>  0 0.26267315E+03</rscale>
<asrwt>0</asrwt>
<pdfrwt beam="1">  1        2 0.20863014E+00 0.26267315E+03</pdfrwt>
<pdfrwt beam="2">  1       -2 0.19568954E-02 0.26267315E+03</pdfrwt>
<totfact> 0.13013042E+04</totfact>
</mgrwt>
</event>
<event>
 4    1  0.1726503E-004  0.2446439E+03  0.7818608E-02  0.1116737E+00
          1   -1    0    0  501    0  0.00000000000E+00  0.00000000000E+00  0.17675615221E+02  0.17675615221E+02  0.00000000000E+00 0. -1.
         -1   -1    0    0    0  501 -0.00000000000E+00 -0.00000000000E+00 -0.84651441120E+03  0.84651441120E+03  0.00000000000E+00 0. -1.
         25    1    1    2    0    0  0.98190934001E+01 -0.21584766854E+02 -0.41234078521E+03  0.43010142978E+03  0.12000000000E+03 0.  0.
         25    1    1    2    0    0 -0.98190934001E+01  0.21584766854E+02 -0.41649801077E+03  0.43408859664E+03  0.12000000000E+03 0.  0.
<mgrwt>
<rscale>  0 0.24464393E+03</rscale>
<asrwt>0</asrwt>
<pdfrwt beam="1">  1        1 0.27193262E-02 0.24464393E+03</pdfrwt>
<pdfrwt beam="2">  1       -1 0.13023295E+00 0.24464393E+03</pdfrwt>
<totfact> 0.21119501E+03</totfact>
</mgrwt>
</event>
<event>
 4    1  0.1726503E-004  0.2554071E+03  0.7818608E-02  0.1109935E+00
          1   -1    0    0  501    0  0.00000000000E+00  0.00000000000E+00  0.72884757006E+03  0.72884757006E+03  0.00000000000E+00 0. -1.
         -1   -1    0    0    0  501 -0.00000000000E+00 -0.00000000000E+00 -0.22375321515E+02  0.22375321515E+02  0.00000000000E+00 0. -1.
         25    1    1    2    0    0  0.27086515880E+02  0.26184313859E+02  0.28820124790E+03  0.31445072257E+03  0.12000000000E+03 0.  0.
         25    1    1    2    0    0 -0.27086515880E+02 -0.26184313859E+02  0.41827100064E+03  0.43677216900E+03  0.12000000000E+03 0.  0.
<mgrwt>
<rscale>  0 0.25540712E+03</rscale>
<asrwt>0</asrwt>
<pdfrwt beam="1">  1        1 0.11213038E+00 0.25540712E+03</pdfrwt>
<pdfrwt beam="2">  1       -1 0.34423577E-02 0.25540712E+03</pdfrwt>
<totfact> 0.81195708E+03</totfact>
</mgrwt>
</event>
<event>
 4    1  0.1726503E-004  0.2420924E+03  0.7818608E-02  0.1118407E+00
         -2   -1    0    0    0  501 -0.00000000000E+00  0.00000000000E+00  0.31581437102E+02  0.31581437102E+02  0.00000000000E+00 0.  1.
          2   -1    0    0  501    0  0.00000000000E+00 -0.00000000000E+00 -0.46394923716E+03  0.46394923716E+03  0.00000000000E+00 0.  1.
         25    1    1    2    0    0 -0.10068189116E+02  0.12013719163E+02 -0.22139668955E+03  0.25231367784E+03  0.12000000000E+03 0.  0.
         25    1    1    2    0    0  0.10068189116E+02 -0.12013719163E+02 -0.21097111051E+03  0.24321699642E+03  0.12000000000E+03 0.  0.
<mgrwt>
<rscale>  0 0.24209241E+03</rscale>
<asrwt>0</asrwt>
<pdfrwt beam="1">  1        2 0.71376804E-01 0.24209241E+03</pdfrwt>
<pdfrwt beam="2">  1       -2 0.48586827E-02 0.24209241E+03</pdfrwt>
<totfact> 0.13656033E+04</totfact>
</mgrwt>
</event>
<event>
 4    1  0.1726503E-004  0.4209197E+03  0.7818608E-02  0.1036767E+00
         -1   -1    0    0    0  501 -0.00000000000E+00  0.00000000000E+00  0.29426332399E+03  0.29426332399E+03  0.00000000000E+00 0.  1.
          1   -1    0    0  501    0  0.00000000000E+00 -0.00000000000E+00 -0.15052285557E+03  0.15052285557E+03  0.00000000000E+00 0.  1.
         25    1    1    2    0    0 -0.48113729960E+02  0.16117022695E+03  0.11417236348E+03  0.23606376606E+03  0.12000000000E+03 0.  0.
         25    1    1    2    0    0  0.48113729960E+02 -0.16117022695E+03  0.29568104947E+02  0.20872241350E+03  0.12000000000E+03 0.  0.
<mgrwt>
<rscale>  0 0.42091973E+03</rscale>
<asrwt>0</asrwt>
<pdfrwt beam="1">  1        1 0.23157362E-01 0.42091973E+03</pdfrwt>
<pdfrwt beam="2">  1       -1 0.45271281E-01 0.42091973E+03</pdfrwt>
<totfact> 0.10467059E+03</totfact>
</mgrwt>
</event>
<event>
 4    1  0.1726503E-004  0.3073317E+03  0.7818608E-02  0.1081632E+00
          3   -1    0    0  501    0  0.00000000000E+00  0.00000000000E+00  0.48751753752E+03  0.48751753752E+03  0.00000000000E+00 0. -1.
         -3   -1    0    0    0  501 -0.00000000000E+00 -0.00000000000E+00 -0.48435591671E+02  0.48435591671E+02  0.00000000000E+00 0. -1.
         25    1    1    2    0    0 -0.18859022575E+02  0.62192340087E+02  0.96356930612E+02  0.16705749901E+03  0.12000000000E+03 0.  0.
         25    1    1    2    0    0  0.18859022575E+02 -0.62192340087E+02  0.34272501524E+03  0.36889563018E+03  0.12000000000E+03 0.  0.
<mgrwt>
<rscale>  0 0.30733175E+03</rscale>
<asrwt>0</asrwt>
<pdfrwt beam="1">  1        3 0.75002695E-01 0.30733175E+03</pdfrwt>
<pdfrwt beam="2">  1       -3 0.74516298E-02 0.30733175E+03</pdfrwt>
<totfact> 0.52762822E+02</totfact>
</mgrwt>
</event>
<event>
 4    1  0.1726503E-004  0.4013309E+03  0.7818608E-02  0.1043320E+00
         -2   -1    0    0    0  501 -0.00000000000E+00  0.00000000000E+00  0.16392431309E+02  0.16392431309E+02  0.00000000000E+00 0.  1.
          2   -1    0    0  501    0  0.00000000000E+00 -0.00000000000E+00 -0.24564150851E+04  0.24564150851E+04  0.00000000000E+00 0.  1.
         25    1    1    2    0    0  0.12486264872E+03 -0.30280639276E+02 -0.18160890335E+04  0.18245785748E+04  0.12000000000E+03 0.  0.
         25    1    1    2    0    0 -0.12486264872E+03  0.30280639276E+02 -0.62393362031E+03  0.64822894159E+03  0.12000000000E+03 0.  0.
<mgrwt>
<rscale>  0 0.40133086E+03</rscale>
<asrwt>0</asrwt>
<pdfrwt beam="1">  1        2 0.37790982E+00 0.40133086E+03</pdfrwt>
<pdfrwt beam="2">  1       -2 0.25219138E-02 0.40133086E+03</pdfrwt>
<totfact> 0.23005469E+03</totfact>
</mgrwt>
</event>
<event>
 4    1  0.1726503E-004  0.2782506E+03  0.7818608E-02  0.1096648E+00
          2   -1    0    0  501    0  0.00000000000E+00  0.00000000000E+00  0.10767307221E+04  0.10767307221E+04  0.00000000000E+00 0.  1.
         -2   -1    0    0    0  501 -0.00000000000E+00 -0.00000000000E+00 -0.17976503592E+02  0.17976503592E+02  0.00000000000E+00 0.  1.
         25    1    1    2    0    0 -0.60442673133E+02 -0.29912726477E+02  0.44993199442E+03  0.47051768038E+03  0.12000000000E+03 0.  0.
         25    1    1    2    0    0  0.60442673133E+02  0.29912726477E+02  0.60882222408E+03  0.62418954531E+03  0.12000000000E+03 0.  0.
<mgrwt>
<rscale>  0 0.27825063E+03</rscale>
<asrwt>0</asrwt>
<pdfrwt beam="1">  1        2 0.16565083E+00 0.27825063E+03</pdfrwt>
<pdfrwt beam="2">  1       -2 0.27656168E-02 0.27825063E+03</pdfrwt>
<totfact> 0.11261603E+04</totfact>
</mgrwt>
</event>
<event>
 4    1  0.1726503E-004  0.2953131E+03  0.7818608E-02  0.1087607E+00
          2   -1    0    0  501    0  0.00000000000E+00  0.00000000000E+00  0.94650117839E+03  0.94650117839E+03  0.00000000000E+00 0. -1.
         -2   -1    0    0    0  501 -0.00000000000E+00 -0.00000000000E+00 -0.23034796569E+02  0.23034796569E+02  0.00000000000E+00 0. -1.
         25    1    1    2    0    0 -0.15165200918E+01  0.39485691946E+02  0.71264802746E+03  0.72376006434E+03  0.12000000000E+03 0.  0.
         25    1    1    2    0    0  0.15165200918E+01 -0.39485691946E+02  0.21081835436E+03  0.24577591062E+03  0.12000000000E+03 0.  0.
<mgrwt>
<rscale>  0 0.29531314E+03</rscale>
<asrwt>0</asrwt>
<pdfrwt beam="1">  1        2 0.14561554E+00 0.29531314E+03</pdfrwt>
<pdfrwt beam="2">  1       -2 0.35438156E-02 0.29531314E+03</pdfrwt>
<totfact> 0.93578826E+03</totfact>
</mgrwt>
</event>
<event>
 4    1  0.1726503E-004  0.3181978E+03  0.7818608E-02  0.1076482E+00
         -1   -1    0    0    0  501 -0.00000000000E+00  0.00000000000E+00  0.43076455789E+03  0.43076455789E+03  0.00000000000E+00 0. -1.
          1   -1    0    0  501    0  0.00000000000E+00 -0.00000000000E+00 -0.58761696130E+02  0.58761696130E+02  0.00000000000E+00 0. -1.
         25    1    1    2    0    0 -0.81969974702E+01  0.10075598969E+03  0.14548783644E+03  0.21397586494E+03  0.12000000000E+03 0.  0.
         25    1    1    2    0    0  0.81969974702E+01 -0.10075598969E+03  0.22651502532E+03  0.27555038908E+03  0.12000000000E+03 0.  0.
<mgrwt>
<rscale>  0 0.31819778E+03</rscale>
<asrwt>0</asrwt>
<pdfrwt beam="1">  1        1 0.90402612E-02 0.31819778E+03</pdfrwt>
<pdfrwt beam="2">  1       -1 0.66271468E-01 0.31819778E+03</pdfrwt>
<totfact> 0.17631222E+03</totfact>
</mgrwt>
</event>
<event>
 4    1  0.1726503E-004  0.2857129E+03  0.7818608E-02  0.1092609E+00
          1   -1    0    0  501    0  0.00000000000E+00  0.00000000000E+00  0.27289620511E+03  0.27289620511E+03  0.00000000000E+00 0.  1.
         -1   -1    0    0    0  501 -0.00000000000E+00 -0.00000000000E+00 -0.74782890807E+02  0.74782890807E+02  0.00000000000E+00 0.  1.
         25    1    1    2    0    0 -0.18594960287E+02  0.67377018061E+02  0.58285965805E+02  0.15060773194E+03  0.12000000000E+03 0.  0.
         25    1    1    2    0    0  0.18594960287E+02 -0.67377018061E+02  0.13982734850E+03  0.19707136397E+03  0.12000000000E+03 0.  0.
<mgrwt>
<rscale>  0 0.28571291E+03</rscale>
<asrwt>0</asrwt>
<pdfrwt beam="1">  1        1 0.41984031E-01 0.28571291E+03</pdfrwt>
<pdfrwt beam="2">  1       -1 0.11505060E-01 0.28571291E+03</pdfrwt>
<totfact> 0.48143413E+03</totfact>
</mgrwt>
</event>
<event>
 4    1  0.1726503E-004  0.2599220E+03  0.7818608E-02  0.1107190E+00
          1   -1    0    0  501    0  0.00000000000E+00  0.00000000000E+00  0.19698254186E+04  0.19698254186E+04  0.00000000000E+00 0.  1.
         -1   -1    0    0    0  501 -0.00000000000E+00 -0.00000000000E+00 -0.85742943091E+01  0.85742943091E+01  0.00000000000E+00 0.  1.
         25    1    1    2    0    0 -0.38343813767E+02 -0.21076461900E+02  0.79804480790E+03  0.80820169556E+03  0.12000000000E+03 0.  0.
         25    1    1    2    0    0  0.38343813767E+02  0.21076461900E+02  0.11632063164E+04  0.11701980173E+04  0.12000000000E+03 0.  0.
<mgrwt>
<rscale>  0 0.25992201E+03</rscale>
<asrwt>0</asrwt>
<pdfrwt beam="1">  1        1 0.30304970E+00 0.25992201E+03</pdfrwt>
<pdfrwt beam="2">  1       -1 0.13191238E-02 0.25992201E+03</pdfrwt>
<totfact> 0.44403893E+03</totfact>
</mgrwt>
</event>
<event>
 4    1  0.1726503E-004  0.2422576E+03  0.7818608E-02  0.1118298E+00
         -1   -1    0    0    0  501 -0.00000000000E+00  0.00000000000E+00  0.19338225586E+02  0.19338225586E+02  0.00000000000E+00 0. -1.
          1   -1    0    0  501    0  0.00000000000E+00 -0.00000000000E+00 -0.75871424706E+03  0.75871424706E+03  0.00000000000E+00 0. -1.
         25    1    1    2    0    0 -0.60197833976E+01  0.65714965635E+00 -0.32039978672E+03  0.34218809589E+03  0.12000000000E+03 0.  0.
         25    1    1    2    0    0  0.60197833976E+01 -0.65714965635E+00 -0.41897623476E+03  0.43586437676E+03  0.12000000000E+03 0.  0.
<mgrwt>
<rscale>  0 0.24225761E+03</rscale>
<asrwt>0</asrwt>
<pdfrwt beam="1">  1        1 0.11672526E+00 0.24225761E+03</pdfrwt>
<pdfrwt beam="2">  1       -1 0.29751120E-02 0.24225761E+03</pdfrwt>
<totfact> 0.94667857E+03</totfact>
</mgrwt>
</event>
<event>
 4    1  0.1726503E-004  0.2741721E+03  0.7818608E-02  0.1098915E+00
         -2   -1    0    0    0  501 -0.00000000000E+00  0.00000000000E+00  0.13673987051E+02  0.13673987051E+02  0.00000000000E+00 0.  1.
          2   -1    0    0  501    0  0.00000000000E+00 -0.00000000000E+00 -0.13743308793E+04  0.13743308793E+04  0.00000000000E+00 0.  1.
         25    1    1    2    0    0 -0.62597983943E+02 -0.10351107661E+02 -0.58335358949E+03  0.59893828013E+03  0.12000000000E+03 0.  0.
         25    1    1    2    0    0  0.62597983943E+02  0.10351107661E+02 -0.77730330278E+03  0.78906658625E+03  0.12000000000E+03 0.  0.
<mgrwt>
<rscale>  0 0.27417208E+03</rscale>
<asrwt>0</asrwt>
<pdfrwt beam="1">  1        2 0.21143555E+00 0.27417208E+03</pdfrwt>
<pdfrwt beam="2">  1       -2 0.21036900E-02 0.27417208E+03</pdfrwt>
<totfact> 0.11447256E+04</totfact>
</mgrwt>
</event>
<event>
 4    1  0.1726503E-004  0.2972274E+03  0.7818608E-02  0.1086635E+00
         -2   -1    0    0    0  501 -0.00000000000E+00  0.00000000000E+00  0.13459089630E+02  0.13459089630E+02  0.00000000000E+00 0. -1.
          2   -1    0    0  501    0  0.00000000000E+00 -0.00000000000E+00 -0.16409753163E+04  0.16409753163E+04  0.00000000000E+00 0. -1.
         25    1    1    2    0    0 -0.72904876396E+02  0.47798019986E+02 -0.76206046122E+03  0.77636068826E+03  0.12000000000E+03 0.  0.
         25    1    1    2    0    0  0.72904876396E+02 -0.47798019986E+02 -0.86545576546E+03  0.87807371768E+03  0.12000000000E+03 0.  0.
<mgrwt>
<rscale>  0 0.29722741E+03</rscale>
<asrwt>0</asrwt>
<pdfrwt beam="1">  1        2 0.25245753E+00 0.29722741E+03</pdfrwt>
<pdfrwt beam="2">  1       -2 0.20706309E-02 0.29722741E+03</pdfrwt>
<totfact> 0.84422564E+03</totfact>
</mgrwt>
</event>
<event>
 4    1  0.1726503E-004  0.2765170E+03  0.7818608E-02  0.1097607E+00
          2   -1    0    0  501    0  0.00000000000E+00  0.00000000000E+00  0.18160173135E+04  0.18160173135E+04  0.00000000000E+00 0. -1.
         -2   -1    0    0    0  501 -0.00000000000E+00 -0.00000000000E+00 -0.10526004251E+02  0.10526004251E+02  0.00000000000E+00 0. -1.
         25    1    1    2    0    0  0.41006353223E+02 -0.54949014859E+02  0.92789074800E+03  0.93812693996E+03  0.12000000000E+03 0.  0.
         25    1    1    2    0    0 -0.41006353223E+02  0.54949014859E+02  0.87760056128E+03  0.88841637783E+03  0.12000000000E+03 0.  0.
<mgrwt>
<rscale>  0 0.27651695E+03</rscale>
<asrwt>0</asrwt>
<pdfrwt beam="1">  1        2 0.27938703E+00 0.27651695E+03</pdfrwt>
<pdfrwt beam="2">  1       -2 0.16193867E-02 0.27651695E+03</pdfrwt>
<totfact> 0.97893666E+03</totfact>
</mgrwt>
</event>
<event>
 4    1  0.1726503E-004  0.3026261E+03  0.7818608E-02  0.1083935E+00
          2   -1    0    0  501    0  0.00000000000E+00  0.00000000000E+00  0.75940889165E+02  0.75940889165E+02  0.00000000000E+00 0.  1.
         -2   -1    0    0    0  501 -0.00000000000E+00 -0.00000000000E+00 -0.30149284880E+03  0.30149284880E+03  0.00000000000E+00 0.  1.
         25    1    1    2    0    0 -0.60812034237E+02  0.66836794672E+02 -0.90106708541E+02  0.17516985915E+03  0.12000000000E+03 0.  0.
         25    1    1    2    0    0  0.60812034237E+02 -0.66836794672E+02 -0.13544525109E+03  0.20226387882E+03  0.12000000000E+03 0.  0.
<mgrwt>
<rscale>  0 0.30262607E+03</rscale>
<asrwt>0</asrwt>
<pdfrwt beam="1">  1        2 0.11683214E-01 0.30262607E+03</pdfrwt>
<pdfrwt beam="2">  1       -2 0.46383515E-01 0.30262607E+03</pdfrwt>
<totfact> 0.23573065E+03</totfact>
</mgrwt>
</event>
<event>
 4    1  0.1726503E-004  0.2916263E+03  0.7818608E-02  0.1089503E+00
          1   -1    0    0  501    0  0.00000000000E+00  0.00000000000E+00  0.12146118058E+04  0.12146118058E+04  0.00000000000E+00 0.  1.
         -1   -1    0    0    0  501 -0.00000000000E+00 -0.00000000000E+00 -0.17504750006E+02  0.17504750006E+02  0.00000000000E+00 0.  1.
         25    1    1    2    0    0 -0.47763831884E+02 -0.48806020377E+02  0.40047138155E+03  0.42360446020E+03  0.12000000000E+03 0.  0.
         25    1    1    2    0    0  0.47763831884E+02  0.48806020377E+02  0.79663567421E+03  0.80851209557E+03  0.12000000000E+03 0.  0.
<mgrwt>
<rscale>  0 0.29162631E+03</rscale>
<asrwt>0</asrwt>
<pdfrwt beam="1">  1        1 0.18686329E+00 0.29162631E+03</pdfrwt>
<pdfrwt beam="2">  1       -1 0.26930394E-02 0.29162631E+03</pdfrwt>
<totfact> 0.49543614E+03</totfact>
</mgrwt>
</event>
<event>
 4    1  0.1726503E-004  0.2592435E+03  0.7818608E-02  0.1107599E+00
          1   -1    0    0  501    0  0.00000000000E+00  0.00000000000E+00  0.83437245740E+03  0.83437245740E+03  0.00000000000E+00 0. -1.
         -1   -1    0    0    0  501 -0.00000000000E+00 -0.00000000000E+00 -0.20137046190E+02  0.20137046190E+02  0.00000000000E+00 0. -1.
         25    1    1    2    0    0 -0.36487176531E+02 -0.12688656827E+02  0.50652214274E+03  0.52197413456E+03  0.12000000000E+03 0.  0.
         25    1    1    2    0    0  0.36487176531E+02  0.12688656827E+02  0.30771326847E+03  0.33253536903E+03  0.12000000000E+03 0.  0.
<mgrwt>
<rscale>  0 0.25924349E+03</rscale>
<asrwt>0</asrwt>
<pdfrwt beam="1">  1        1 0.12836497E+00 0.25924349E+03</pdfrwt>
<pdfrwt beam="2">  1       -1 0.30980077E-02 0.25924349E+03</pdfrwt>
<totfact> 0.77275463E+03</totfact>
</mgrwt>
</event>
<event>
 4    1  0.1726503E-004  0.2684169E+03  0.7818608E-02  0.1102189E+00
         -1   -1    0    0    0  501 -0.00000000000E+00  0.00000000000E+00  0.95446185864E+02  0.95446185864E+02  0.00000000000E+00 0. -1.
          1   -1    0    0  501    0  0.00000000000E+00 -0.00000000000E+00 -0.18871265671E+03  0.18871265671E+03  0.00000000000E+00 0. -1.
         25    1    1    2    0    0 -0.34932159137E+02  0.26589713535E+02 -0.90084682753E+02  0.15634103324E+03  0.12000000000E+03 0.  0.
         25    1    1    2    0    0  0.34932159137E+02 -0.26589713535E+02 -0.31817880952E+01  0.12781780934E+03  0.12000000000E+03 0.  0.
<mgrwt>
<rscale>  0 0.26841686E+03</rscale>
<asrwt>0</asrwt>
<pdfrwt beam="1">  1        1 0.29032716E-01 0.26841686E+03</pdfrwt>
<pdfrwt beam="2">  1       -1 0.14684029E-01 0.26841686E+03</pdfrwt>
<totfact> 0.52086931E+03</totfact>
</mgrwt>
</event>
<event>
 4    1  0.1726503E-004  0.2480221E+03  0.7818608E-02  0.1114561E+00
         -1   -1    0    0    0  501 -0.00000000000E+00  0.00000000000E+00  0.99394126756E+01  0.99394126756E+01  0.00000000000E+00 0.  1.
          1   -1    0    0  501    0  0.00000000000E+00 -0.00000000000E+00 -0.15472487264E+04  0.15472487264E+04  0.00000000000E+00 0.  1.
         25    1    1    2    0    0  0.12957933330E+01 -0.28225250779E+02 -0.68432727466E+03  0.69534319778E+03  0.12000000000E+03 0.  0.
         25    1    1    2    0    0 -0.12957933330E+01  0.28225250779E+02 -0.85298203905E+03  0.86184494127E+03  0.12000000000E+03 0.  0.
<mgrwt>
<rscale>  0 0.24802212E+03</rscale>
<asrwt>0</asrwt>
<pdfrwt beam="1">  1        1 0.23803806E+00 0.24802212E+03</pdfrwt>
<pdfrwt beam="2">  1       -1 0.15291417E-02 0.24802212E+03</pdfrwt>
<totfact> 0.67450693E+03</totfact>
</mgrwt>
</event>
<event>
 4    1  0.1726503E-004  0.2596137E+03  0.7818608E-02  0.1107376E+00
          2   -1    0    0  501    0  0.00000000000E+00  0.00000000000E+00  0.18023736859E+04  0.18023736859E+04  0.00000000000E+00 0. -1.
         -2   -1    0    0    0  501 -0.00000000000E+00 -0.00000000000E+00 -0.93486821940E+01  0.93486821940E+01  0.00000000000E+00 0. -1.
         25    1    1    2    0    0  0.32728974181E+02 -0.19067702040E+02  0.11188480912E+04  0.11259022223E+04  0.12000000000E+03 0.  0.
         25    1    1    2    0    0 -0.32728974181E+02  0.19067702040E+02  0.67417691248E+03  0.68582014576E+03  0.12000000000E+03 0.  0.
<mgrwt>
<rscale>  0 0.25961370E+03</rscale>
<asrwt>0</asrwt>
<pdfrwt beam="1">  1        2 0.27728798E+00 0.25961370E+03</pdfrwt>
<pdfrwt beam="2">  1       -2 0.14382602E-02 0.25961370E+03</pdfrwt>
<totfact> 0.11824586E+04</totfact>
</mgrwt>
</event>
<event>
 4    1  0.1726503E-004  0.2528753E+03  0.7818608E-02  0.1111501E+00
         -2   -1    0    0    0  501 -0.00000000000E+00  0.00000000000E+00  0.19816103975E+02  0.19816103975E+02  0.00000000000E+00 0. -1.
          2   -1    0    0  501    0  0.00000000000E+00 -0.00000000000E+00 -0.80674188900E+03  0.80674188900E+03  0.00000000000E+00 0. -1.
         25    1    1    2    0    0  0.30641452111E+02 -0.23549252565E+02 -0.42498708847E+03  0.44329165484E+03  0.12000000000E+03 0.  0.
         25    1    1    2    0    0 -0.30641452111E+02  0.23549252565E+02 -0.36193869656E+03  0.38326633814E+03  0.12000000000E+03 0.  0.
<mgrwt>
<rscale>  0 0.25287531E+03</rscale>
<asrwt>0</asrwt>
<pdfrwt beam="1">  1        2 0.12411409E+00 0.25287531E+03</pdfrwt>
<pdfrwt beam="2">  1       -2 0.30486325E-02 0.25287531E+03</pdfrwt>
<totfact> 0.14394427E+04</totfact>
</mgrwt>
</event>
<event>
 4    1  0.1726503E-004  0.2828524E+03  0.7818608E-02  0.1094141E+00
         -3   -1    0    0    0  501 -0.00000000000E+00  0.00000000000E+00  0.14217215051E+03  0.14217215051E+03  0.00000000000E+00 0. -1.
          1   -1    0    0  501    0  0.00000000000E+00 -0.00000000000E+00 -0.14068416933E+03  0.14068416933E+03  0.00000000000E+00 0. -1.
         25    1    1    2    0    0 -0.11889572078E+02 -0.73662915562E+02  0.65564580300E+01  0.14145873672E+03  0.12000000000E+03 0.  0.
         25    1    1    2    0    0  0.11889572078E+02  0.73662915562E+02 -0.50684768585E+01  0.14139758312E+03  0.12000000000E+03 0.  0.
<mgrwt>
<rscale>  0 0.28285241E+03</rscale>
<asrwt>0</asrwt>
<pdfrwt beam="1">  1        1 0.21643718E-01 0.28285241E+03</pdfrwt>
<pdfrwt beam="2">  1       -3 0.21872639E-01 0.28285241E+03</pdfrwt>
<totfact> 0.24193317E+03</totfact>
</mgrwt>
</event>
<event>
 4    1  0.1726503E-004  0.2635476E+03  0.7818608E-02  0.1105030E+00
          2   -1    0    0  501    0  0.00000000000E+00  0.00000000000E+00  0.20376878676E+04  0.20376878676E+04  0.00000000000E+00 0. -1.
         -2   -1    0    0    0  501 -0.00000000000E+00 -0.00000000000E+00 -0.85215890556E+01  0.85215890556E+01  0.00000000000E+00 0. -1.
         25    1    1    2    0    0 -0.21734976905E+02  0.44298221436E+02  0.83590816773E+03  0.84591796678E+03  0.12000000000E+03 0.  0.
         25    1    1    2    0    0  0.21734976905E+02 -0.44298221436E+02  0.11932581108E+04  0.12002914899E+04  0.12000000000E+03 0.  0.
<mgrwt>
<rscale>  0 0.26354763E+03</rscale>
<asrwt>0</asrwt>
<pdfrwt beam="1">  1        2 0.31349005E+00 0.26354763E+03</pdfrwt>
<pdfrwt beam="2">  1       -2 0.13110153E-02 0.26354763E+03</pdfrwt>
<totfact> 0.10189894E+04</totfact>
</mgrwt>
</event>
<event>
 4    1  0.1726503E-004  0.2468110E+03  0.7818608E-02  0.1115337E+00
         -1   -1    0    0    0  501 -0.00000000000E+00  0.00000000000E+00  0.36083440192E+02  0.36083440192E+02  0.00000000000E+00 0.  1.
          1   -1    0    0  501    0  0.00000000000E+00 -0.00000000000E+00 -0.42204720033E+03  0.42204720033E+03  0.00000000000E+00 0.  1.
         25    1    1    2    0    0  0.26888762369E+02 -0.29448679692E+01 -0.17467809481E+03  0.21364483283E+03  0.12000000000E+03 0.  0.
         25    1    1    2    0    0 -0.26888762369E+02  0.29448679692E+01 -0.21128566533E+03  0.24448580769E+03  0.12000000000E+03 0.  0.
<mgrwt>
<rscale>  0 0.24681098E+03</rscale>
<asrwt>0</asrwt>
<pdfrwt beam="1">  1        1 0.64930340E-01 0.24681098E+03</pdfrwt>
<pdfrwt beam="2">  1       -1 0.55512984E-02 0.24681098E+03</pdfrwt>
<totfact> 0.83932847E+03</totfact>
</mgrwt>
</event>
<event>
 4    1  0.1726503E-004  0.3957021E+03  0.7818608E-02  0.1045278E+00
         -2   -1    0    0    0  501 -0.00000000000E+00  0.00000000000E+00  0.22265571335E+03  0.22265571335E+03  0.00000000000E+00 0.  1.
          2   -1    0    0  501    0  0.00000000000E+00 -0.00000000000E+00 -0.17580973432E+03  0.17580973432E+03  0.00000000000E+00 0.  1.
         25    1    1    2    0    0  0.13092553655E+03  0.69249446110E+02  0.76784175807E+02  0.20550618375E+03  0.12000000000E+03 0.  0.
         25    1    1    2    0    0 -0.13092553655E+03 -0.69249446110E+02 -0.29938196776E+02  0.19295926392E+03  0.12000000000E+03 0.  0.
<mgrwt>
<rscale>  0 0.39570212E+03</rscale>
<asrwt>0</asrwt>
<pdfrwt beam="1">  1        2 0.27047651E-01 0.39570212E+03</pdfrwt>
<pdfrwt beam="2">  1       -2 0.34254725E-01 0.39570212E+03</pdfrwt>
<totfact> 0.15854705E+03</totfact>
</mgrwt>
</event>
<event>
 4    1  0.1726503E-004  0.2598648E+03  0.7818608E-02  0.1107225E+00
         -2   -1    0    0    0  501 -0.00000000000E+00  0.00000000000E+00  0.14802843555E+02  0.14802843555E+02  0.00000000000E+00 0. -1.
          2   -1    0    0  501    0  0.00000000000E+00 -0.00000000000E+00 -0.11404851582E+04  0.11404851582E+04  0.00000000000E+00 0. -1.
         25    1    1    2    0    0  0.10088032954E+00 -0.40921330387E+01 -0.34208636425E+03  0.36254632302E+03  0.12000000000E+03 0.  0.
         25    1    1    2    0    0 -0.10088032954E+00  0.40921330387E+01 -0.78359595042E+03  0.79274167876E+03  0.12000000000E+03 0.  0.
<mgrwt>
<rscale>  0 0.25986476E+03</rscale>
<asrwt>0</asrwt>
<pdfrwt beam="1">  1        2 0.17545919E+00 0.25986476E+03</pdfrwt>
<pdfrwt beam="2">  1       -2 0.22773614E-02 0.25986476E+03</pdfrwt>
<totfact> 0.13745478E+04</totfact>
</mgrwt>
</event>
<event>
 4    1  0.1726503E-004  0.2626848E+03  0.7818608E-02  0.1105541E+00
          2   -1    0    0  501    0  0.00000000000E+00  0.00000000000E+00  0.66902109391E+02  0.66902109391E+02  0.00000000000E+00 0. -1.
         -2   -1    0    0    0  501 -0.00000000000E+00 -0.00000000000E+00 -0.25785170514E+03  0.25785170514E+03  0.00000000000E+00 0. -1.
         25    1    1    2    0    0  0.34244735669E+02 -0.40683309781E+02 -0.10140245227E+03  0.16586226497E+03  0.12000000000E+03 0.  0.
         25    1    1    2    0    0 -0.34244735669E+02  0.40683309781E+02 -0.89547143482E+02  0.15889154956E+03  0.12000000000E+03 0.  0.
<mgrwt>
<rscale>  0 0.26268478E+03</rscale>
<asrwt>0</asrwt>
<pdfrwt beam="1">  1        2 0.10292632E-01 0.26268478E+03</pdfrwt>
<pdfrwt beam="2">  1       -2 0.39669494E-01 0.26268478E+03</pdfrwt>
<totfact> 0.37150847E+03</totfact>
</mgrwt>
</event>
<event>
 4    1  0.1726503E-004  0.2533451E+03  0.7818608E-02  0.1111209E+00
          1   -1    0    0  501    0  0.00000000000E+00  0.00000000000E+00  0.24335218972E+04  0.24335218972E+04  0.00000000000E+00 0.  1.
         -1   -1    0    0    0  501 -0.00000000000E+00 -0.00000000000E+00 -0.65937087597E+01  0.65937087597E+01  0.00000000000E+00 0.  1.
         25    1    1    2    0    0 -0.27190321740E+02 -0.23742775912E+02  0.13918180236E+04  0.13974478323E+04  0.12000000000E+03 0.  0.
         25    1    1    2    0    0  0.27190321740E+02  0.23742775912E+02  0.10351101648E+04  0.10426677736E+04  0.12000000000E+03 0.  0.
<mgrwt>
<rscale>  0 0.25334510E+03</rscale>
<asrwt>0</asrwt>
<pdfrwt beam="1">  1        1 0.37438727E+00 0.25334510E+03</pdfrwt>
<pdfrwt beam="2">  1       -1 0.10144187E-02 0.25334510E+03</pdfrwt>
<totfact> 0.32356988E+03</totfact>
</mgrwt>
</event>
<event>
 4    1  0.1726503E-004  0.3696634E+03  0.7818608E-02  0.1054822E+00
         -1   -1    0    0    0  501 -0.00000000000E+00  0.00000000000E+00  0.13356658739E+02  0.13356658739E+02  0.00000000000E+00 0. -1.
          1   -1    0    0  501    0  0.00000000000E+00 -0.00000000000E+00 -0.25577325834E+04  0.25577325834E+04  0.00000000000E+00 0. -1.
         25    1    1    2    0    0 -0.12902077663E+03 -0.27312484496E+02 -0.93355898707E+03  0.95043396138E+03  0.12000000000E+03 0.  0.
         25    1    1    2    0    0  0.12902077663E+03  0.27312484496E+02 -0.16108169376E+04  0.16206552807E+04  0.12000000000E+03 0.  0.
<mgrwt>
<rscale>  0 0.36966342E+03</rscale>
<asrwt>0</asrwt>
<pdfrwt beam="1">  1        1 0.39349755E+00 0.36966342E+03</pdfrwt>
<pdfrwt beam="2">  1       -1 0.20548694E-02 0.36966342E+03</pdfrwt>
<totfact> 0.94604940E+02</totfact>
</mgrwt>
</event>
<event>
 4    1  0.1726503E-004  0.2448015E+03  0.7818608E-02  0.1116635E+00
         -1   -1    0    0    0  501 -0.00000000000E+00  0.00000000000E+00  0.33086558656E+01  0.33086558656E+01  0.00000000000E+00 0.  1.
          1   -1    0    0  501    0  0.00000000000E+00 -0.00000000000E+00 -0.45281070653E+04  0.45281070653E+04  0.00000000000E+00 0.  1.
         25    1    1    2    0    0  0.17194157439E+02  0.13068597221E+02 -0.24613518459E+04  0.24643699674E+04  0.12000000000E+03 0.  0.
         25    1    1    2    0    0 -0.17194157439E+02 -0.13068597221E+02 -0.20634465636E+04  0.20670457538E+04  0.12000000000E+03 0.  0.
<mgrwt>
<rscale>  0 0.24480154E+03</rscale>
<asrwt>0</asrwt>
<pdfrwt beam="1">  1        1 0.69662749E+00 0.24480154E+03</pdfrwt>
<pdfrwt beam="2">  1       -1 0.50902717E-03 0.24480154E+03</pdfrwt>
<totfact> 0.20818629E+02</totfact>
</mgrwt>
</event>
<event>
 4    1  0.1726503E-004  0.2872268E+03  0.7818608E-02  0.1091806E+00
         -1   -1    0    0    0  501 -0.00000000000E+00  0.00000000000E+00  0.33885581394E+02  0.33885581394E+02  0.00000000000E+00 0. -1.
          1   -1    0    0  501    0  0.00000000000E+00 -0.00000000000E+00 -0.60866022736E+03  0.60866022736E+03  0.00000000000E+00 0. -1.
         25    1    1    2    0    0  0.17500891181E+02  0.75901794279E+02 -0.25931750379E+03  0.29616369011E+03  0.12000000000E+03 0.  0.
         25    1    1    2    0    0 -0.17500891181E+02 -0.75901794279E+02 -0.31545714217E+03  0.34638211864E+03  0.12000000000E+03 0.  0.
<mgrwt>
<rscale>  0 0.28722678E+03</rscale>
<asrwt>0</asrwt>
<pdfrwt beam="1">  1        1 0.93640029E-01 0.28722678E+03</pdfrwt>
<pdfrwt beam="2">  1       -1 0.52131667E-02 0.28722678E+03</pdfrwt>
<totfact> 0.56860346E+03</totfact>
</mgrwt>
</event>
<event>
 4    1  0.1726503E-004  0.2879552E+03  0.7818608E-02  0.1091422E+00
         -2   -1    0    0    0  501 -0.00000000000E+00  0.00000000000E+00  0.14743591525E+04  0.14743591525E+04  0.00000000000E+00 0. -1.
          2   -1    0    0  501    0  0.00000000000E+00 -0.00000000000E+00 -0.14060039138E+02  0.14060039138E+02  0.00000000000E+00 0. -1.
         25    1    1    2    0    0  0.93585891222E+01 -0.87528402183E+00  0.32179788429E+03  0.34357273996E+03  0.12000000000E+03 0.  0.
         25    1    1    2    0    0 -0.93585891222E+01  0.87528402183E+00  0.11385012290E+04  0.11448464516E+04  0.12000000000E+03 0.  0.
<mgrwt>
<rscale>  0 0.28795519E+03</rscale>
<asrwt>0</asrwt>
<pdfrwt beam="1">  1        2 0.21630841E-02 0.28795519E+03</pdfrwt>
<pdfrwt beam="2">  1       -2 0.22682436E+00 0.28795519E+03</pdfrwt>
<totfact> 0.48436754E+02</totfact>
</mgrwt>
</event>
<event>
 4    1  0.1726503E-004  0.4149595E+03  0.7818608E-02  0.1038719E+00
         -1   -1    0    0    0  501 -0.00000000000E+00  0.00000000000E+00  0.13364721717E+03  0.13364721717E+03  0.00000000000E+00 0.  1.
          1   -1    0    0  501    0  0.00000000000E+00 -0.00000000000E+00 -0.32210062139E+03  0.32210062139E+03  0.00000000000E+00 0.  1.
         25    1    1    2    0    0  0.63616171920E+02  0.14059781578E+03 -0.17872796402E+02  0.19630129898E+03  0.12000000000E+03 0.  0.
         25    1    1    2    0    0 -0.63616171920E+02 -0.14059781578E+03 -0.17058060782E+03  0.25944653957E+03  0.12000000000E+03 0.  0.
<mgrwt>
<rscale>  0 0.41495952E+03</rscale>
<asrwt>0</asrwt>
<pdfrwt beam="1">  1        1 0.49553942E-01 0.41495952E+03</pdfrwt>
<pdfrwt beam="2">  1       -1 0.20561110E-01 0.41495952E+03</pdfrwt>
<totfact> 0.15496668E+03</totfact>
</mgrwt>
</event>
<event>
 4    1  0.1726503E-004  0.2577681E+03  0.7818608E-02  0.1108492E+00
          1   -1    0    0  501    0  0.00000000000E+00  0.00000000000E+00  0.12513718511E+03  0.12513718511E+03  0.00000000000E+00 0. -1.
         -1   -1    0    0    0  501 -0.00000000000E+00 -0.00000000000E+00 -0.13274308413E+03  0.13274308413E+03  0.00000000000E+00 0. -1.
         25    1    1    2    0    0 -0.47860897010E+01  0.41890867365E+02  0.17023038063E+02  0.12832589469E+03  0.12000000000E+03 0.  0.
         25    1    1    2    0    0  0.47860897010E+01 -0.41890867365E+02 -0.24628937076E+02  0.12955437455E+03  0.12000000000E+03 0.  0.
<mgrwt>
<rscale>  0 0.25776808E+03</rscale>
<asrwt>0</asrwt>
<pdfrwt beam="1">  1        1 0.19251875E-01 0.25776808E+03</pdfrwt>
<pdfrwt beam="2">  1       -1 0.20422013E-01 0.25776808E+03</pdfrwt>
<totfact> 0.51750118E+03</totfact>
</mgrwt>
</event>
<event>
 4    1  0.1726503E-004  0.2785671E+03  0.7818608E-02  0.1096474E+00
          1   -1    0    0  501    0  0.00000000000E+00  0.00000000000E+00  0.38584965171E+03  0.38584965171E+03  0.00000000000E+00 0. -1.
         -1   -1    0    0    0  501 -0.00000000000E+00 -0.00000000000E+00 -0.50278415004E+02  0.50278415004E+02  0.00000000000E+00 0. -1.
         25    1    1    2    0    0 -0.19826338491E+01 -0.29778231991E+02  0.67424686898E+02  0.14084304151E+03  0.12000000000E+03 0.  0.
         25    1    1    2    0    0  0.19826338491E+01  0.29778231991E+02  0.26814654981E+03  0.29528502520E+03  0.12000000000E+03 0.  0.
<mgrwt>
<rscale>  0 0.27856711E+03</rscale>
<asrwt>0</asrwt>
<pdfrwt beam="1">  1        1 0.59361483E-01 0.27856711E+03</pdfrwt>
<pdfrwt beam="2">  1       -1 0.77351410E-02 0.27856711E+03</pdfrwt>
<totfact> 0.57258486E+03</totfact>
</mgrwt>
</event>
<event>
 4    1  0.1726503E-004  0.2735175E+03  0.7818608E-02  0.1099283E+00
          2   -1    0    0  501    0  0.00000000000E+00  0.00000000000E+00  0.23777152679E+03  0.23777152679E+03  0.00000000000E+00 0. -1.
         -2   -1    0    0    0  501 -0.00000000000E+00 -0.00000000000E+00 -0.78659378651E+02  0.78659378651E+02  0.00000000000E+00 0. -1.
         25    1    1    2    0    0 -0.62419551854E+02  0.13288633817E+02  0.62004330599E+02  0.14938984321E+03  0.12000000000E+03 0.  0.
         25    1    1    2    0    0  0.62419551854E+02 -0.13288633817E+02  0.97107817539E+02  0.16704106223E+03  0.12000000000E+03 0.  0.
<mgrwt>
<rscale>  0 0.27351754E+03</rscale>
<asrwt>0</asrwt>
<pdfrwt beam="1">  1        2 0.36580234E-01 0.27351754E+03</pdfrwt>
<pdfrwt beam="2">  1       -2 0.12101443E-01 0.27351754E+03</pdfrwt>
<totfact> 0.68165088E+03</totfact>
</mgrwt>
</event>
<event>
 4    1  0.1726503E-004  0.2807109E+03  0.7818608E-02  0.1095301E+00
         -1   -1    0    0    0  501 -0.00000000000E+00  0.00000000000E+00  0.61467993739E+02  0.61467993739E+02  0.00000000000E+00 0.  1.
          1   -1    0    0  501    0  0.00000000000E+00 -0.00000000000E+00 -0.32048633094E+03  0.32048633094E+03  0.00000000000E+00 0.  1.
         25    1    1    2    0    0 -0.31667693595E+02 -0.58617866550E+02 -0.89589046647E+02  0.16390574845E+03  0.12000000000E+03 0.  0.
         25    1    1    2    0    0  0.31667693595E+02  0.58617866550E+02 -0.16942929055E+03  0.21804857622E+03  0.12000000000E+03 0.  0.
<mgrwt>
<rscale>  0 0.28071090E+03</rscale>
<asrwt>0</asrwt>
<pdfrwt beam="1">  1        1 0.49305589E-01 0.28071090E+03</pdfrwt>
<pdfrwt beam="2">  1       -1 0.94566145E-02 0.28071090E+03</pdfrwt>
<totfact> 0.53269415E+03</totfact>
</mgrwt>
</event>
<event>
 4    1  0.1726503E-004  0.2701256E+03  0.7818608E-02  0.1101208E+00
         -3   -1    0    0    0  501 -0.00000000000E+00  0.00000000000E+00  0.14087680677E+04  0.14087680677E+04  0.00000000000E+00 0.  1.
          3   -1    0    0  501    0  0.00000000000E+00 -0.00000000000E+00 -0.12948878525E+02  0.12948878525E+02  0.00000000000E+00 0.  1.
         25    1    1    2    0    0 -0.24681759507E+02 -0.56395329716E+02  0.65983097172E+03  0.67347348404E+03  0.12000000000E+03 0.  0.
         25    1    1    2    0    0  0.24681759507E+02  0.56395329716E+02  0.73598821744E+03  0.74824346216E+03  0.12000000000E+03 0.  0.
<mgrwt>
<rscale>  0 0.27012565E+03</rscale>
<asrwt>0</asrwt>
<pdfrwt beam="1">  1        3 0.19921363E-02 0.27012565E+03</pdfrwt>
<pdfrwt beam="2">  1       -3 0.21673343E+00 0.27012565E+03</pdfrwt>
<totfact> 0.30708099E+02</totfact>
</mgrwt>
</event>
<event>
 4    1  0.1726503E-004  0.3457906E+03  0.7818608E-02  0.1064356E+00
         -1   -1    0    0    0  501 -0.00000000000E+00  0.00000000000E+00  0.94601891069E+02  0.94601891069E+02  0.00000000000E+00 0.  1.
          1   -1    0    0  501    0  0.00000000000E+00 -0.00000000000E+00 -0.31598510324E+03  0.31598510324E+03  0.00000000000E+00 0.  1.
         25    1    1    2    0    0 -0.87769905909E+01 -0.72962618222E+02  0.85931919287E+01  0.14097667243E+03  0.12000000000E+03 0.  0.
         25    1    1    2    0    0  0.87769905909E+01  0.72962618222E+02 -0.22997640410E+03  0.26961032188E+03  0.12000000000E+03 0.  0.
<mgrwt>
<rscale>  0 0.34579062E+03</rscale>
<asrwt>0</asrwt>
<pdfrwt beam="1">  1        1 0.48613092E-01 0.34579062E+03</pdfrwt>
<pdfrwt beam="2">  1       -1 0.14554137E-01 0.34579062E+03</pdfrwt>
<totfact> 0.27737567E+03</totfact>
</mgrwt>
</event>
<event>
 4    1  0.1726503E-004  0.3195579E+03  0.7818608E-02  0.1075853E+00
          3   -1    0    0  501    0  0.00000000000E+00  0.00000000000E+00  0.97124155913E+01  0.97124155913E+01  0.00000000000E+00 0. -1.
         -3   -1    0    0    0  501 -0.00000000000E+00 -0.00000000000E+00 -0.26285237022E+04  0.26285237022E+04  0.00000000000E+00 0. -1.
         25    1    1    2    0    0 -0.10860173577E+02 -0.80689609934E+02 -0.75554912268E+03  0.76933947858E+03  0.12000000000E+03 0.  0.
         25    1    1    2    0    0  0.10860173577E+02  0.80689609934E+02 -0.18632621639E+04  0.18688966392E+04  0.12000000000E+03 0.  0.
<mgrwt>
<rscale>  0 0.31955791E+03</rscale>
<asrwt>0</asrwt>
<pdfrwt beam="1">  1        3 0.14942159E-02 0.31955791E+03</pdfrwt>
<pdfrwt beam="2">  1       -3 0.40438876E+00 0.31955791E+03</pdfrwt>
<totfact> 0.45855259E+01</totfact>
</mgrwt>
</event>
<event>
 4    1  0.1726503E-004  0.2717399E+03  0.7818608E-02  0.1100288E+00
         -2   -1    0    0    0  501 -0.00000000000E+00  0.00000000000E+00  0.53024505330E+02  0.53024505330E+02  0.00000000000E+00 0.  1.
          2   -1    0    0  501    0  0.00000000000E+00 -0.00000000000E+00 -0.34815307080E+03  0.34815307080E+03  0.00000000000E+00 0.  1.
         25    1    1    2    0    0  0.15025265286E+02 -0.39902029734E+02 -0.21747924905E+03  0.25202213065E+03  0.12000000000E+03 0.  0.
         25    1    1    2    0    0 -0.15025265286E+02  0.39902029734E+02 -0.77649316424E+02  0.14915544548E+03  0.12000000000E+03 0.  0.
<mgrwt>
<rscale>  0 0.27173991E+03</rscale>
<asrwt>0</asrwt>
<pdfrwt beam="1">  1        2 0.53562010E-01 0.27173991E+03</pdfrwt>
<pdfrwt beam="2">  1       -2 0.81576164E-02 0.27173991E+03</pdfrwt>
<totfact> 0.84562181E+03</totfact>
</mgrwt>
</event>
<event>
 4    1  0.1726503E-004  0.2606620E+03  0.7818608E-02  0.1106746E+00
         -1   -1    0    0    0  501 -0.00000000000E+00  0.00000000000E+00  0.90035605788E+02  0.90035605788E+02  0.00000000000E+00 0.  1.
          1   -1    0    0  501    0  0.00000000000E+00 -0.00000000000E+00 -0.18866062514E+03  0.18866062514E+03  0.00000000000E+00 0.  1.
         25    1    1    2    0    0 -0.26859066204E+02 -0.22220838533E+02 -0.97237568254E+01  0.12533844801E+03  0.12000000000E+03 0.  0.
         25    1    1    2    0    0  0.26859066204E+02  0.22220838533E+02 -0.88901262522E+02  0.15335778291E+03  0.12000000000E+03 0.  0.
<mgrwt>
<rscale>  0 0.26066203E+03</rscale>
<asrwt>0</asrwt>
<pdfrwt beam="1">  1        1 0.29024712E-01 0.26066203E+03</pdfrwt>
<pdfrwt beam="2">  1       -1 0.13851632E-01 0.26066203E+03</pdfrwt>
<totfact> 0.57077720E+03</totfact>
</mgrwt>
</event>
<event>
 4    1  0.1726503E-004  0.3108671E+03  0.7818608E-02  0.1079931E+00
          4   -1    0    0  501    0  0.00000000000E+00  0.00000000000E+00  0.30758813153E+03  0.30758813153E+03  0.00000000000E+00 0. -1.
         -4   -1    0    0    0  501 -0.00000000000E+00 -0.00000000000E+00 -0.78545265130E+02  0.78545265130E+02  0.00000000000E+00 0. -1.
         25    1    1    2    0    0 -0.83553263243E+02  0.27879600146E+02  0.17008686910E+03  0.22602646514E+03  0.12000000000E+03 0.  0.
         25    1    1    2    0    0  0.83553263243E+02 -0.27879600146E+02  0.58955997296E+02  0.16010693152E+03  0.12000000000E+03 0.  0.
<mgrwt>
<rscale>  0 0.31086712E+03</rscale>
<asrwt>0</asrwt>
<pdfrwt beam="1">  1        4 0.47321251E-01 0.31086712E+03</pdfrwt>
<pdfrwt beam="2">  1       -4 0.12083887E-01 0.31086712E+03</pdfrwt>
<totfact> 0.45312650E+02</totfact>
</mgrwt>
</event>
<event>
 4    1  0.1726503E-004  0.4666863E+03  0.7818608E-02  0.1022860E+00
          2   -1    0    0  501    0  0.00000000000E+00  0.00000000000E+00  0.12201083748E+03  0.12201083748E+03  0.00000000000E+00 0. -1.
         -2   -1    0    0    0  501 -0.00000000000E+00 -0.00000000000E+00 -0.44626389246E+03  0.44626389246E+03  0.00000000000E+00 0. -1.
         25    1    1    2    0    0 -0.17364389520E+03  0.87733127789E+02 -0.21923725374E+03  0.31672429253E+03  0.12000000000E+03 0.  0.
         25    1    1    2    0    0  0.17364389520E+03 -0.87733127789E+02 -0.10501580124E+03  0.25155043741E+03  0.12000000000E+03 0.  0.
<mgrwt>
<rscale>  0 0.46668632E+03</rscale>
<asrwt>0</asrwt>
<pdfrwt beam="1">  1        2 0.18770898E-01 0.46668632E+03</pdfrwt>
<pdfrwt beam="2">  1       -2 0.68655984E-01 0.46668632E+03</pdfrwt>
<totfact> 0.59800047E+02</totfact>
</mgrwt>
</event>
<event>
 4    1  0.1726503E-004  0.2778279E+03  0.7818608E-02  0.1096881E+00
         -2   -1    0    0    0  501 -0.00000000000E+00  0.00000000000E+00  0.13611284107E+03  0.13611284107E+03  0.00000000000E+00 0. -1.
          2   -1    0    0  501    0  0.00000000000E+00 -0.00000000000E+00 -0.14177273045E+03  0.14177273045E+03  0.00000000000E+00 0. -1.
         25    1    1    2    0    0 -0.52505638549E+02  0.86471726594E+01  0.42626965206E+02  0.13801693315E+03  0.12000000000E+03 0.  0.
         25    1    1    2    0    0  0.52505638549E+02 -0.86471726594E+01 -0.48286854582E+02  0.13986863837E+03  0.12000000000E+03 0.  0.
<mgrwt>
<rscale>  0 0.27782793E+03</rscale>
<asrwt>0</asrwt>
<pdfrwt beam="1">  1        2 0.21811189E-01 0.27782793E+03</pdfrwt>
<pdfrwt beam="2">  1       -2 0.20940437E-01 0.27782793E+03</pdfrwt>
<totfact> 0.48477061E+03</totfact>
</mgrwt>
</event>
<event>
 4    1  0.1726503E-004  0.3640153E+03  0.7818608E-02  0.1057005E+00
         -2   -1    0    0    0  501 -0.00000000000E+00  0.00000000000E+00  0.88733559998E+02  0.88733559998E+02  0.00000000000E+00 0. -1.
          2   -1    0    0  501    0  0.00000000000E+00 -0.00000000000E+00 -0.37332876681E+03  0.37332876681E+03  0.00000000000E+00 0. -1.
         25    1    1    2    0    0  0.12281176570E+03 -0.38272176420E+02 -0.83040622896E+02  0.19453337589E+03  0.12000000000E+03 0.  0.
         25    1    1    2    0    0 -0.12281176570E+03  0.38272176420E+02 -0.20155458392E+03  0.26752895092E+03  0.12000000000E+03 0.  0.
<mgrwt>
<rscale>  0 0.36401533E+03</rscale>
<asrwt>0</asrwt>
<pdfrwt beam="1">  1        2 0.57435193E-01 0.36401533E+03</pdfrwt>
<pdfrwt beam="2">  1       -2 0.13651317E-01 0.36401533E+03</pdfrwt>
<totfact> 0.34619029E+03</totfact>
</mgrwt>
</event>
<event>
 4    1  0.1726503E-004  0.2932166E+03  0.7818608E-02  0.1088682E+00
          1   -1    0    0  501    0  0.00000000000E+00  0.00000000000E+00  0.34965688440E+03  0.34965688440E+03  0.00000000000E+00 0. -1.
         -1   -1    0    0    0  501 -0.00000000000E+00 -0.00000000000E+00 -0.61471668357E+02  0.61471668357E+02  0.00000000000E+00 0. -1.
         25    1    1    2    0    0  0.39328562198E+02 -0.35276889770E+02  0.52118720246E+02  0.14109413792E+03  0.12000000000E+03 0.  0.
         25    1    1    2    0    0 -0.39328562198E+02  0.35276889770E+02  0.23606649580E+03  0.27003441484E+03  0.12000000000E+03 0.  0.
<mgrwt>
<rscale>  0 0.29321659E+03</rscale>
<asrwt>0</asrwt>
<pdfrwt beam="1">  1        1 0.53793365E-01 0.29321659E+03</pdfrwt>
<pdfrwt beam="2">  1       -1 0.94571800E-02 0.29321659E+03</pdfrwt>
<totfact> 0.47758501E+03</totfact>
</mgrwt>
</event>
<event>
 4    1  0.1726503E-004  0.3048974E+03  0.7818608E-02  0.1082818E+00
          1   -1    0    0  501    0  0.00000000000E+00  0.00000000000E+00  0.81751391335E+03  0.81751391335E+03  0.00000000000E+00 0.  1.
         -1   -1    0    0    0  501 -0.00000000000E+00 -0.00000000000E+00 -0.28428385012E+02  0.28428385012E+02  0.00000000000E+00 0.  1.
         25    1    1    2    0    0 -0.76758351995E+02  0.39102439206E+02  0.49908547734E+03  0.52048742448E+03  0.12000000000E+03 0.  0.
         25    1    1    2    0    0  0.76758351995E+02 -0.39102439206E+02  0.29000005100E+03  0.32545487388E+03  0.12000000000E+03 0.  0.
<mgrwt>
<rscale>  0 0.30489736E+03</rscale>
<asrwt>0</asrwt>
<pdfrwt beam="1">  1        1 0.12577135E+00 0.30489736E+03</pdfrwt>
<pdfrwt beam="2">  1       -1 0.43735983E-02 0.30489736E+03</pdfrwt>
<totfact> 0.47990180E+03</totfact>
</mgrwt>
</event>
<event>
 4    1  0.1726503E-004  0.3197778E+03  0.7818608E-02  0.1075752E+00
          1   -1    0    0  501    0  0.00000000000E+00  0.00000000000E+00  0.26313287630E+03  0.26313287630E+03  0.00000000000E+00 0.  1.
         -1   -1    0    0    0  501 -0.00000000000E+00 -0.00000000000E+00 -0.97154159479E+02  0.97154159479E+02  0.00000000000E+00 0.  1.
         25    1    1    2    0    0 -0.85760390728E+00 -0.97636858596E+02  0.12848770835E+03  0.20110391055E+03  0.12000000000E+03 0.  0.
         25    1    1    2    0    0  0.85760390728E+00  0.97636858596E+02  0.37491008465E+02  0.15918312523E+03  0.12000000000E+03 0.  0.
<mgrwt>
<rscale>  0 0.31977776E+03</rscale>
<asrwt>0</asrwt>
<pdfrwt beam="1">  1        1 0.40481981E-01 0.31977776E+03</pdfrwt>
<pdfrwt beam="2">  1       -1 0.14946794E-01 0.31977776E+03</pdfrwt>
<totfact> 0.33461292E+03</totfact>
</mgrwt>
</event>
<event>
 4    1  0.1726503E-004  0.2424382E+03  0.7818608E-02  0.1118179E+00
         -2   -1    0    0    0  501 -0.00000000000E+00  0.00000000000E+00  0.15959403153E+04  0.15959403153E+04  0.00000000000E+00 0.  1.
          2   -1    0    0  501    0  0.00000000000E+00 -0.00000000000E+00 -0.92071538707E+01  0.92071538707E+01  0.00000000000E+00 0.  1.
         25    1    1    2    0    0 -0.55624314281E+01  0.69417754421E+01  0.89043360022E+03  0.89852719785E+03  0.12000000000E+03 0.  0.
         25    1    1    2    0    0  0.55624314281E+01 -0.69417754421E+01  0.69629956120E+03  0.70662027130E+03  0.12000000000E+03 0.  0.
<mgrwt>
<rscale>  0 0.24243818E+03</rscale>
<asrwt>0</asrwt>
<pdfrwt beam="1">  1        2 0.14164865E-02 0.24243818E+03</pdfrwt>
<pdfrwt beam="2">  1       -2 0.24552906E+00 0.24243818E+03</pdfrwt>
<totfact> 0.67310621E+02</totfact>
</mgrwt>
</event>
<event>
 4    1  0.1726503E-004  0.3027884E+03  0.7818608E-02  0.1083855E+00
          1   -1    0    0  501    0  0.00000000000E+00  0.00000000000E+00  0.45747191338E+03  0.45747191338E+03  0.00000000000E+00 0. -1.
         -1   -1    0    0    0  501 -0.00000000000E+00 -0.00000000000E+00 -0.50101874826E+02  0.50101874826E+02  0.00000000000E+00 0. -1.
         25    1    1    2    0    0  0.71179720223E+02  0.36346066068E+02  0.28109836767E+03  0.31591752309E+03  0.12000000000E+03 0.  0.
         25    1    1    2    0    0 -0.71179720223E+02 -0.36346066068E+02  0.12627167088E+03  0.19165626511E+03  0.12000000000E+03 0.  0.
<mgrwt>
<rscale>  0 0.30278838E+03</rscale>
<asrwt>0</asrwt>
<pdfrwt beam="1">  1        1 0.70380291E-01 0.30278838E+03</pdfrwt>
<pdfrwt beam="2">  1       -1 0.77079811E-02 0.30278838E+03</pdfrwt>
<totfact> 0.46286024E+03</totfact>
</mgrwt>
</event>
<event>
 4    1  0.1726503E-004  0.4228037E+03  0.7818608E-02  0.1036158E+00
          3   -1    0    0  501    0  0.00000000000E+00  0.00000000000E+00  0.10686807769E+03  0.10686807769E+03  0.00000000000E+00 0.  1.
         -3   -1    0    0    0  501 -0.00000000000E+00 -0.00000000000E+00 -0.41818613371E+03  0.41818613371E+03  0.00000000000E+00 0.  1.
         25    1    1    2    0    0  0.26392334115E+02 -0.11186030386E+03  0.66444774171E+01  0.16629321080E+03  0.12000000000E+03 0.  0.
         25    1    1    2    0    0 -0.26392334115E+02  0.11186030386E+03 -0.31796253344E+03  0.35876100059E+03  0.12000000000E+03 0.  0.
<mgrwt>
<rscale>  0 0.42280373E+03</rscale>
<asrwt>0</asrwt>
<pdfrwt beam="1">  1        3 0.16441243E-01 0.42280373E+03</pdfrwt>
<pdfrwt beam="2">  1       -3 0.64336328E-01 0.42280373E+03</pdfrwt>
<totfact> 0.19636983E+02</totfact>
</mgrwt>
</event>
<event>
 4    1  0.1726503E-004  0.3798561E+03  0.7818608E-02  0.1050987E+00
          1   -1    0    0  501    0  0.00000000000E+00  0.00000000000E+00  0.35052843829E+03  0.35052843829E+03  0.00000000000E+00 0.  1.
         -1   -1    0    0    0  501 -0.00000000000E+00 -0.00000000000E+00 -0.10290937308E+03  0.10290937308E+03  0.00000000000E+00 0.  1.
         25    1    1    2    0    0  0.17049243244E+02 -0.28686023947E+02  0.29496889541E+03  0.32018777916E+03  0.12000000000E+03 0.  0.
         25    1    1    2    0    0 -0.17049243244E+02  0.28686023947E+02 -0.47349830202E+02  0.13325003221E+03  0.12000000000E+03 0.  0.
<mgrwt>
<rscale>  0 0.37985609E+03</rscale>
<asrwt>0</asrwt>
<pdfrwt beam="1">  1        1 0.53927452E-01 0.37985609E+03</pdfrwt>
<pdfrwt beam="2">  1       -1 0.15832211E-01 0.37985609E+03</pdfrwt>
<totfact> 0.21261009E+03</totfact>
</mgrwt>
</event>
<event>
 4    1  0.1726503E-004  0.2754270E+03  0.7818608E-02  0.1098213E+00
         -2   -1    0    0    0  501 -0.00000000000E+00  0.00000000000E+00  0.25952952259E+02  0.25952952259E+02  0.00000000000E+00 0.  1.
          2   -1    0    0  501    0  0.00000000000E+00 -0.00000000000E+00 -0.73074581035E+03  0.73074581035E+03  0.00000000000E+00 0.  1.
         25    1    1    2    0    0 -0.50217152180E+02  0.43320011717E+02 -0.38786037065E+03  0.41138066667E+03  0.12000000000E+03 0.  0.
         25    1    1    2    0    0  0.50217152180E+02 -0.43320011717E+02 -0.31693248744E+03  0.34531809594E+03  0.12000000000E+03 0.  0.
<mgrwt>
<rscale>  0 0.27542702E+03</rscale>
<asrwt>0</asrwt>
<pdfrwt beam="1">  1        2 0.11242244E+00 0.27542702E+03</pdfrwt>
<pdfrwt beam="2">  1       -2 0.39927617E-02 0.27542702E+03</pdfrwt>
<totfact> 0.10920693E+04</totfact>
</mgrwt>
</event>
<event>
 4    1  0.1726503E-004  0.2455266E+03  0.7818608E-02  0.1116165E+00
         -3   -1    0    0    0  501 -0.00000000000E+00  0.00000000000E+00  0.23785326192E+02  0.23785326192E+02  0.00000000000E+00 0.  1.
          3   -1    0    0  501    0  0.00000000000E+00 -0.00000000000E+00 -0.63361889290E+03  0.63361889290E+03  0.00000000000E+00 0.  1.
         25    1    1    2    0    0 -0.98213845651E+01 -0.15553151885E+02 -0.25609525592E+03  0.28341337342E+03  0.12000000000E+03 0.  0.
         25    1    1    2    0    0  0.98213845651E+01  0.15553151885E+02 -0.35373831078E+03  0.37399084567E+03  0.12000000000E+03 0.  0.
<mgrwt>
<rscale>  0 0.24552663E+03</rscale>
<asrwt>0</asrwt>
<pdfrwt beam="1">  1        3 0.97479821E-01 0.24552663E+03</pdfrwt>
<pdfrwt beam="2">  1       -3 0.36592813E-02 0.24552663E+03</pdfrwt>
<totfact> 0.90092704E+02</totfact>
</mgrwt>
</event>
<event>
 4    1  0.1726503E-004  0.2929017E+03  0.7818608E-02  0.1088844E+00
         -2   -1    0    0    0  501 -0.00000000000E+00  0.00000000000E+00  0.26672876421E+02  0.26672876421E+02  0.00000000000E+00 0.  1.
          2   -1    0    0  501    0  0.00000000000E+00 -0.00000000000E+00 -0.80410713556E+03  0.80410713556E+03  0.00000000000E+00 0.  1.
         25    1    1    2    0    0  0.20144555159E+02  0.32218110251E+02 -0.60104880795E+03  0.61408751760E+03  0.12000000000E+03 0.  0.
         25    1    1    2    0    0 -0.20144555159E+02 -0.32218110251E+02 -0.17638545118E+03  0.21669249438E+03  0.12000000000E+03 0.  0.
<mgrwt>
<rscale>  0 0.29290169E+03</rscale>
<asrwt>0</asrwt>
<pdfrwt beam="1">  1        2 0.12370878E+00 0.29290169E+03</pdfrwt>
<pdfrwt beam="2">  1       -2 0.41035199E-02 0.29290169E+03</pdfrwt>
<totfact> 0.93132333E+03</totfact>
</mgrwt>
</event>
<event>
 4    1  0.1726503E-004  0.2969110E+03  0.7818608E-02  0.1086795E+00
          2   -1    0    0  501    0  0.00000000000E+00  0.00000000000E+00  0.96756417225E+03  0.96756417225E+03  0.00000000000E+00 0.  1.
         -2   -1    0    0    0  501 -0.00000000000E+00 -0.00000000000E+00 -0.22777858719E+02  0.22777858719E+02  0.00000000000E+00 0.  1.
         25    1    1    2    0    0 -0.82733078287E+02 -0.27591409491E+02  0.45323461202E+03  0.47689376349E+03  0.12000000000E+03 0.  0.
         25    1    1    2    0    0  0.82733078287E+02  0.27591409491E+02  0.49155170151E+03  0.51344826748E+03  0.12000000000E+03 0.  0.
<mgrwt>
<rscale>  0 0.29691103E+03</rscale>
<asrwt>0</asrwt>
<pdfrwt beam="1">  1        2 0.14885599E+00 0.29691103E+03</pdfrwt>
<pdfrwt beam="2">  1       -2 0.35042867E-02 0.29691103E+03</pdfrwt>
<totfact> 0.92325663E+03</totfact>
</mgrwt>
</event>
<event>
 4    1  0.1726503E-004  0.3783758E+03  0.7818608E-02  0.1051536E+00
          1   -1    0    0  501    0  0.00000000000E+00  0.00000000000E+00  0.53953400679E+03  0.53953400679E+03  0.00000000000E+00 0. -1.
         -1   -1    0    0    0  501 -0.00000000000E+00 -0.00000000000E+00 -0.66338834476E+02  0.66338834476E+02  0.00000000000E+00 0. -1.
         25    1    1    2    0    0  0.28245014178E+02  0.49916844741E+02  0.21156536375E+02  0.13467394420E+03  0.12000000000E+03 0.  0.
         25    1    1    2    0    0 -0.28245014178E+02 -0.49916844741E+02  0.45203863594E+03  0.47119889707E+03  0.12000000000E+03 0.  0.
<mgrwt>
<rscale>  0 0.37837578E+03</rscale>
<asrwt>0</asrwt>
<pdfrwt beam="1">  1        1 0.83005229E-01 0.37837578E+03</pdfrwt>
<pdfrwt beam="2">  1       -1 0.10205975E-01 0.37837578E+03</pdfrwt>
<totfact> 0.24145258E+03</totfact>
</mgrwt>
</event>
<event>
 4    1  0.1726503E-004  0.2510585E+03  0.7818608E-02  0.1112638E+00
          2   -1    0    0  501    0  0.00000000000E+00  0.00000000000E+00  0.27733105122E+04  0.27733105122E+04  0.00000000000E+00 0.  1.
         -2   -1    0    0    0  501 -0.00000000000E+00 -0.00000000000E+00 -0.56818718961E+01  0.56818718961E+01  0.00000000000E+00 0.  1.
         25    1    1    2    0    0 -0.99245423384E+01  0.23270395525E+02  0.10872972244E+04  0.10941916021E+04  0.12000000000E+03 0.  0.
         25    1    1    2    0    0  0.99245423384E+01 -0.23270395525E+02  0.16803314159E+04  0.16848007820E+04  0.12000000000E+03 0.  0.
<mgrwt>
<rscale>  0 0.25105852E+03</rscale>
<asrwt>0</asrwt>
<pdfrwt beam="1">  1        2 0.42666207E+00 0.25105852E+03</pdfrwt>
<pdfrwt beam="2">  1       -2 0.87413635E-03 0.25105852E+03</pdfrwt>
<totfact> 0.73170749E+03</totfact>
</mgrwt>
</event>
<event>
 4    1  0.1726503E-004  0.3665032E+03  0.7818608E-02  0.1056038E+00
          2   -1    0    0  501    0  0.00000000000E+00  0.00000000000E+00  0.58431523287E+03  0.58431523287E+03  0.00000000000E+00 0.  1.
         -2   -1    0    0    0  501 -0.00000000000E+00 -0.00000000000E+00 -0.57470931445E+02  0.57470931445E+02  0.00000000000E+00 0.  1.
         25    1    1    2    0    0 -0.65052919185E+02 -0.59992992389E+02  0.44997954291E+03  0.47403863816E+03  0.12000000000E+03 0.  0.
         25    1    1    2    0    0  0.65052919185E+02  0.59992992389E+02  0.76864758515E+02  0.16774752616E+03  0.12000000000E+03 0.  0.
<mgrwt>
<rscale>  0 0.36650316E+03</rscale>
<asrwt>0</asrwt>
<pdfrwt beam="1">  1        2 0.89894647E-01 0.36650316E+03</pdfrwt>
<pdfrwt beam="2">  1       -2 0.88416821E-02 0.36650316E+03</pdfrwt>
<totfact> 0.42223325E+03</totfact>
</mgrwt>
</event>
<event>
 4    1  0.1726503E-004  0.2688369E+03  0.7818608E-02  0.1101947E+00
         -2   -1    0    0    0  501 -0.00000000000E+00  0.00000000000E+00  0.14177022569E+02  0.14177022569E+02  0.00000000000E+00 0. -1.
          2   -1    0    0  501    0  0.00000000000E+00 -0.00000000000E+00 -0.12744787131E+04  0.12744787131E+04  0.00000000000E+00 0. -1.
         25    1    1    2    0    0  0.37251976890E+02  0.35436288558E+02 -0.78360659485E+03  0.79440715997E+03  0.12000000000E+03 0.  0.
         25    1    1    2    0    0 -0.37251976890E+02 -0.35436288558E+02 -0.47669509570E+03  0.49424857571E+03  0.12000000000E+03 0.  0.
<mgrwt>
<rscale>  0 0.26883685E+03</rscale>
<asrwt>0</asrwt>
<pdfrwt beam="1">  1        2 0.19607365E+00 0.26883685E+03</pdfrwt>
<pdfrwt beam="2">  1       -2 0.21810804E-02 0.26883685E+03</pdfrwt>
<totfact> 0.12312805E+04</totfact>
</mgrwt>
</event>
<event>
 4    1  0.1726503E-004  0.3196863E+03  0.7818608E-02  0.1075794E+00
          2   -1    0    0  501    0  0.00000000000E+00  0.00000000000E+00  0.65641587619E+03  0.65641587619E+03  0.00000000000E+00 0.  1.
         -2   -1    0    0    0  501 -0.00000000000E+00 -0.00000000000E+00 -0.38923243863E+02  0.38923243863E+02  0.00000000000E+00 0.  1.
         25    1    1    2    0    0  0.30849709610E+02 -0.60119531081E+02  0.48523222187E+03  0.50439703780E+03  0.12000000000E+03 0.  0.
         25    1    1    2    0    0 -0.30849709610E+02  0.60119531081E+02  0.13226041045E+03  0.19094208225E+03  0.12000000000E+03 0.  0.
<mgrwt>
<rscale>  0 0.31968632E+03</rscale>
<asrwt>0</asrwt>
<pdfrwt beam="1">  1        2 0.10098705E+00 0.31968632E+03</pdfrwt>
<pdfrwt beam="2">  1       -2 0.59881918E-02 0.31968632E+03</pdfrwt>
<totfact> 0.67440688E+03</totfact>
</mgrwt>
</event>
<event>
 4    1  0.1726503E-004  0.2721614E+03  0.7818608E-02  0.1100049E+00
          2   -1    0    0  501    0  0.00000000000E+00  0.00000000000E+00  0.31835667367E+02  0.31835667367E+02  0.00000000000E+00 0.  1.
         -2   -1    0    0    0  501 -0.00000000000E+00 -0.00000000000E+00 -0.58167346683E+03  0.58167346683E+03  0.00000000000E+00 0.  1.
         25    1    1    2    0    0  0.47283512958E+01 -0.20672235322E+02 -0.41144784844E+03  0.42911423957E+03  0.12000000000E+03 0.  0.
         25    1    1    2    0    0 -0.47283512958E+01  0.20672235322E+02 -0.13838995102E+03  0.18439489462E+03  0.12000000000E+03 0.  0.
<mgrwt>
<rscale>  0 0.27216144E+03</rscale>
<asrwt>0</asrwt>
<pdfrwt beam="1">  1        2 0.48977951E-02 0.27216144E+03</pdfrwt>
<pdfrwt beam="2">  1       -2 0.89488224E-01 0.27216144E+03</pdfrwt>
<totfact> 0.17863950E+03</totfact>
</mgrwt>
</event>
<event>
 4    1  0.1726503E-004  0.2854525E+03  0.7818608E-02  0.1092748E+00
         -2   -1    0    0    0  501 -0.00000000000E+00  0.00000000000E+00  0.35524762765E+02  0.35524762765E+02  0.00000000000E+00 0. -1.
          2   -1    0    0  501    0  0.00000000000E+00 -0.00000000000E+00 -0.57342494597E+03  0.57342494597E+03  0.00000000000E+00 0. -1.
         25    1    1    2    0    0 -0.35286074143E+02  0.68699798963E+02 -0.27418239498E+03  0.30909667601E+03  0.12000000000E+03 0.  0.
         25    1    1    2    0    0  0.35286074143E+02 -0.68699798963E+02 -0.26371778823E+03  0.29985303272E+03  0.12000000000E+03 0.  0.
<mgrwt>
<rscale>  0 0.28545252E+03</rscale>
<asrwt>0</asrwt>
<pdfrwt beam="1">  1        2 0.88219220E-01 0.28545252E+03</pdfrwt>
<pdfrwt beam="2">  1       -2 0.54653483E-02 0.28545252E+03</pdfrwt>
<totfact> 0.90613634E+03</totfact>
</mgrwt>
</event>
<event>
 4    1  0.1726503E-004  0.3545766E+03  0.7818608E-02  0.1060752E+00
          2   -1    0    0  501    0  0.00000000000E+00  0.00000000000E+00  0.34975889848E+04  0.34975889848E+04  0.00000000000E+00 0. -1.
         -2   -1    0    0    0  501 -0.00000000000E+00 -0.00000000000E+00 -0.89865160147E+01  0.89865160147E+01  0.00000000000E+00 0. -1.
         25    1    1    2    0    0 -0.41949545726E+02 -0.11487463430E+03  0.21948091522E+04  0.22014865797E+04  0.12000000000E+03 0.  0.
         25    1    1    2    0    0  0.41949545726E+02  0.11487463430E+03  0.12937933166E+04  0.13050889212E+04  0.12000000000E+03 0.  0.
<mgrwt>
<rscale>  0 0.35457659E+03</rscale>
<asrwt>0</asrwt>
<pdfrwt beam="1">  1        2 0.53808953E+00 0.35457659E+03</pdfrwt>
<pdfrwt beam="2">  1       -2 0.13825437E-02 0.35457659E+03</pdfrwt>
<totfact> 0.13351420E+03</totfact>
</mgrwt>
</event>
<event>
 4    1  0.1726503E-004  0.2541420E+03  0.7818608E-02  0.1110715E+00
         -2   -1    0    0    0  501 -0.00000000000E+00  0.00000000000E+00  0.48554167919E+02  0.48554167919E+02  0.00000000000E+00 0. -1.
          2   -1    0    0  501    0  0.00000000000E+00 -0.00000000000E+00 -0.33255731774E+03  0.33255731774E+03  0.00000000000E+00 0. -1.
         25    1    1    2    0    0  0.39931084851E+02 -0.71780423088E+01 -0.12692868769E+03  0.17932347194E+03  0.12000000000E+03 0.  0.
         25    1    1    2    0    0 -0.39931084851E+02  0.71780423088E+01 -0.15707446213E+03  0.20178801373E+03  0.12000000000E+03 0.  0.
<mgrwt>
<rscale>  0 0.25414204E+03</rscale>
<asrwt>0</asrwt>
<pdfrwt beam="1">  1        2 0.51162666E-01 0.25414204E+03</pdfrwt>
<pdfrwt beam="2">  1       -2 0.74698718E-02 0.25414204E+03</pdfrwt>
<totfact> 0.10162215E+04</totfact>
</mgrwt>
</event>
<event>
 4    1  0.1726503E-004  0.3155951E+03  0.7818608E-02  0.1077695E+00
         -2   -1    0    0    0  501 -0.00000000000E+00  0.00000000000E+00  0.62485950496E+01  0.62485950496E+01  0.00000000000E+00 0.  1.
          2   -1    0    0  501    0  0.00000000000E+00 -0.00000000000E+00 -0.39849055279E+04  0.39849055279E+04  0.00000000000E+00 0.  1.
         25    1    1    2    0    0 -0.43393260709E+02 -0.37219302374E+02 -0.30647823301E+04  0.30676634402E+04  0.12000000000E+03 0.  0.
         25    1    1    2    0    0  0.43393260709E+02  0.37219302374E+02 -0.91387460277E+03  0.92349068275E+03  0.12000000000E+03 0.  0.
<mgrwt>
<rscale>  0 0.31559506E+03</rscale>
<asrwt>0</asrwt>
<pdfrwt beam="1">  1        2 0.61306315E+00 0.31559506E+03</pdfrwt>
<pdfrwt beam="2">  1       -2 0.96132112E-03 0.31559506E+03</pdfrwt>
<totfact> 0.10278736E+03</totfact>
</mgrwt>
</event>
<event>
 4    1  0.1726503E-004  0.3216620E+03  0.7818608E-02  0.1074887E+00
         -1   -1    0    0    0  501 -0.00000000000E+00  0.00000000000E+00  0.26452676058E+03  0.26452676058E+03  0.00000000000E+00 0. -1.
          1   -1    0    0  501    0  0.00000000000E+00 -0.00000000000E+00 -0.97784494940E+02  0.97784494940E+02  0.00000000000E+00 0. -1.
         25    1    1    2    0    0 -0.53778646210E+02  0.92577224899E+02  0.85604171209E+02  0.18218331287E+03  0.12000000000E+03 0.  0.
         25    1    1    2    0    0  0.53778646210E+02 -0.92577224899E+02  0.81138094435E+02  0.18012794266E+03  0.12000000000E+03 0.  0.
<mgrwt>
<rscale>  0 0.32166203E+03</rscale>
<asrwt>0</asrwt>
<pdfrwt beam="1">  1        1 0.15043769E-01 0.32166203E+03</pdfrwt>
<pdfrwt beam="2">  1       -1 0.40696424E-01 0.32166203E+03</pdfrwt>
<totfact> 0.22253248E+03</totfact>
</mgrwt>
</event>
<event>
 4    1  0.1726503E-004  0.2679076E+03  0.7818608E-02  0.1102483E+00
         -2   -1    0    0    0  501 -0.00000000000E+00  0.00000000000E+00  0.14121687134E+02  0.14121687134E+02  0.00000000000E+00 0.  1.
          2   -1    0    0  501    0  0.00000000000E+00 -0.00000000000E+00 -0.12706423879E+04  0.12706423879E+04  0.00000000000E+00 0.  1.
         25    1    1    2    0    0  0.20693320846E+02  0.51231995736E+02 -0.73448837004E+03  0.74627481308E+03  0.12000000000E+03 0.  0.
         25    1    1    2    0    0 -0.20693320846E+02 -0.51231995736E+02 -0.52203233069E+03  0.53848926192E+03  0.12000000000E+03 0.  0.
<mgrwt>
<rscale>  0 0.26790755E+03</rscale>
<asrwt>0</asrwt>
<pdfrwt beam="1">  1        2 0.19548350E+00 0.26790755E+03</pdfrwt>
<pdfrwt beam="2">  1       -2 0.21725667E-02 0.26790755E+03</pdfrwt>
<totfact> 0.12443818E+04</totfact>
</mgrwt>
</event>
<event>
 4    1  0.1726503E-004  0.3340197E+03  0.7818608E-02  0.1069372E+00
         -1   -1    0    0    0  501 -0.00000000000E+00  0.00000000000E+00  0.18123251339E+02  0.18123251339E+02  0.00000000000E+00 0. -1.
          1   -1    0    0  501    0  0.00000000000E+00 -0.00000000000E+00 -0.15390332622E+04  0.15390332622E+04  0.00000000000E+00 0. -1.
         25    1    1    2    0    0 -0.17001744353E+02 -0.16113598854E+02 -0.23007468067E+03  0.26054378915E+03  0.12000000000E+03 0.  0.
         25    1    1    2    0    0  0.17001744353E+02  0.16113598854E+02 -0.12908353302E+04  0.12966127244E+04  0.12000000000E+03 0.  0.
<mgrwt>
<rscale>  0 0.33401968E+03</rscale>
<asrwt>0</asrwt>
<pdfrwt beam="1">  1        1 0.23677437E+00 0.33401968E+03</pdfrwt>
<pdfrwt beam="2">  1       -1 0.27881922E-02 0.33401968E+03</pdfrwt>
<totfact> 0.28357700E+03</totfact>
</mgrwt>
</event>
<event>
 4    1  0.1726503E-004  0.3086922E+03  0.7818608E-02  0.1080974E+00
          2   -1    0    0  501    0  0.00000000000E+00  0.00000000000E+00  0.37737229660E+03  0.37737229660E+03  0.00000000000E+00 0.  1.
         -2   -1    0    0    0  501 -0.00000000000E+00 -0.00000000000E+00 -0.63127909333E+02  0.63127909333E+02  0.00000000000E+00 0.  1.
         25    1    1    2    0    0 -0.85867583430E+02  0.12373099218E+02  0.21926403010E+03  0.26458089569E+03  0.12000000000E+03 0.  0.
         25    1    1    2    0    0  0.85867583430E+02 -0.12373099218E+02  0.94980357168E+02  0.17591931024E+03  0.12000000000E+03 0.  0.
<mgrwt>
<rscale>  0 0.30869224E+03</rscale>
<asrwt>0</asrwt>
<pdfrwt beam="1">  1        2 0.58057275E-01 0.30869224E+03</pdfrwt>
<pdfrwt beam="2">  1       -2 0.97119863E-02 0.30869224E+03</pdfrwt>
<totfact> 0.59113635E+03</totfact>
</mgrwt>
</event>
<event>
 4    1  0.1726503E-004  0.2631347E+03  0.7818608E-02  0.1105274E+00
         -2   -1    0    0    0  501 -0.00000000000E+00  0.00000000000E+00  0.30447832041E+02  0.30447832041E+02  0.00000000000E+00 0.  1.
          2   -1    0    0  501    0  0.00000000000E+00 -0.00000000000E+00 -0.56851235771E+03  0.56851235771E+03  0.00000000000E+00 0.  1.
         25    1    1    2    0    0  0.45182659171E+02 -0.16571720067E+02 -0.21356112895E+03  0.24964865390E+03  0.12000000000E+03 0.  0.
         25    1    1    2    0    0 -0.45182659171E+02  0.16571720067E+02 -0.32450339672E+03  0.34931153585E+03  0.12000000000E+03 0.  0.
<mgrwt>
<rscale>  0 0.26313471E+03</rscale>
<asrwt>0</asrwt>
<pdfrwt beam="1">  1        2 0.87463441E-01 0.26313471E+03</pdfrwt>
<pdfrwt beam="2">  1       -2 0.46842818E-02 0.26313471E+03</pdfrwt>
<totfact> 0.11533884E+04</totfact>
</mgrwt>
</event>
<event>
 4    1  0.1726503E-004  0.3683216E+03  0.7818608E-02  0.1055337E+00
         -1   -1    0    0    0  501 -0.00000000000E+00  0.00000000000E+00  0.22056915667E+03  0.22056915667E+03  0.00000000000E+00 0.  1.
          1   -1    0    0  501    0  0.00000000000E+00 -0.00000000000E+00 -0.15376217556E+03  0.15376217556E+03  0.00000000000E+00 0.  1.
         25    1    1    2    0    0  0.13306934968E+03 -0.45232693922E+01 -0.95625691254E+01  0.17949750561E+03  0.12000000000E+03 0.  0.
         25    1    1    2    0    0 -0.13306934968E+03  0.45232693922E+01  0.76369550239E+02  0.19483382662E+03  0.12000000000E+03 0.  0.
<mgrwt>
<rscale>  0 0.36832156E+03</rscale>
<asrwt>0</asrwt>
<pdfrwt beam="1">  1        1 0.23655719E-01 0.36832156E+03</pdfrwt>
<pdfrwt beam="2">  1       -1 0.33933717E-01 0.36832156E+03</pdfrwt>
<totfact> 0.17033850E+03</totfact>
</mgrwt>
</event>
<event>
 4    1  0.1726503E-004  0.2446187E+03  0.7818608E-02  0.1116754E+00
          1   -1    0    0  501    0  0.00000000000E+00  0.00000000000E+00  0.27147084199E+03  0.27147084199E+03  0.00000000000E+00 0.  1.
         -1   -1    0    0    0  501 -0.00000000000E+00 -0.00000000000E+00 -0.55105645178E+02  0.55105645178E+02  0.00000000000E+00 0.  1.
         25    1    1    2    0    0 -0.13723280627E+02 -0.19258659901E+02  0.10739110523E+03  0.16276385930E+03  0.12000000000E+03 0.  0.
         25    1    1    2    0    0  0.13723280627E+02  0.19258659901E+02  0.10897409159E+03  0.16381262787E+03  0.12000000000E+03 0.  0.
<mgrwt>
<rscale>  0 0.24461869E+03</rscale>
<asrwt>0</asrwt>
<pdfrwt beam="1">  1        1 0.41764744E-01 0.24461869E+03</pdfrwt>
<pdfrwt beam="2">  1       -1 0.84777917E-02 0.24461869E+03</pdfrwt>
<totfact> 0.77204350E+03</totfact>
</mgrwt>
</event>
<event>
 4    1  0.1726503E-004  0.3013801E+03  0.7818608E-02  0.1084553E+00
         -2   -1    0    0    0  501 -0.00000000000E+00  0.00000000000E+00  0.12401616352E+03  0.12401616352E+03  0.00000000000E+00 0.  1.
          2   -1    0    0  501    0  0.00000000000E+00 -0.00000000000E+00 -0.18310101041E+03  0.18310101041E+03  0.00000000000E+00 0.  1.
         25    1    1    2    0    0  0.78386568495E+02 -0.45652349331E+02 -0.20491126140E+02  0.15181724991E+03  0.12000000000E+03 0.  0.
         25    1    1    2    0    0 -0.78386568495E+02  0.45652349331E+02 -0.38593720744E+02  0.15529992402E+03  0.12000000000E+03 0.  0.
<mgrwt>
<rscale>  0 0.30138006E+03</rscale>
<asrwt>0</asrwt>
<pdfrwt beam="1">  1        2 0.28169386E-01 0.30138006E+03</pdfrwt>
<pdfrwt beam="2">  1       -2 0.19079410E-01 0.30138006E+03</pdfrwt>
<totfact> 0.42790648E+03</totfact>
</mgrwt>
</event>
<event>
 4    1  0.1726503E-004  0.2985514E+03  0.7818608E-02  0.1085967E+00
          2   -1    0    0  501    0  0.00000000000E+00  0.00000000000E+00  0.91644156978E+02  0.91644156978E+02  0.00000000000E+00 0. -1.
         -2   -1    0    0    0  501 -0.00000000000E+00 -0.00000000000E+00 -0.24314951900E+03  0.24314951900E+03  0.00000000000E+00 0. -1.
         25    1    1    2    0    0  0.13033611066E+02 -0.13895749915E+02  0.21493991071E+02  0.12338945877E+03  0.12000000000E+03 0.  0.
         25    1    1    2    0    0 -0.13033611066E+02  0.13895749915E+02 -0.17299935309E+03  0.21140421720E+03  0.12000000000E+03 0.  0.
<mgrwt>
<rscale>  0 0.29855139E+03</rscale>
<asrwt>0</asrwt>
<pdfrwt beam="1">  1        2 0.14099101E-01 0.29855139E+03</pdfrwt>
<pdfrwt beam="2">  1       -2 0.37407618E-01 0.29855139E+03</pdfrwt>
<totfact> 0.28417660E+03</totfact>
</mgrwt>
</event>
<event>
 4    1  0.1726503E-004  0.3196595E+03  0.7818608E-02  0.1075806E+00
         -2   -1    0    0    0  501 -0.00000000000E+00  0.00000000000E+00  0.10622757431E+03  0.10622757431E+03  0.00000000000E+00 0. -1.
          2   -1    0    0  501    0  0.00000000000E+00 -0.00000000000E+00 -0.24047940669E+03  0.24047940669E+03  0.00000000000E+00 0. -1.
         25    1    1    2    0    0  0.91521072378E+02  0.50369500471E+02 -0.83658741519E+02  0.17975532899E+03  0.12000000000E+03 0.  0.
         25    1    1    2    0    0 -0.91521072378E+02 -0.50369500471E+02 -0.50593090869E+02  0.16695165202E+03  0.12000000000E+03 0.  0.
<mgrwt>
<rscale>  0 0.31965947E+03</rscale>
<asrwt>0</asrwt>
<pdfrwt beam="1">  1        2 0.36996831E-01 0.31965947E+03</pdfrwt>
<pdfrwt beam="2">  1       -2 0.16342704E-01 0.31965947E+03</pdfrwt>
<totfact> 0.41282732E+03</totfact>
</mgrwt>
</event>
<event>
 4    1  0.1726503E-004  0.3984654E+03  0.7818608E-02  0.1044312E+00
          2   -1    0    0  501    0  0.00000000000E+00  0.00000000000E+00  0.33863173388E+04  0.33863173388E+04  0.00000000000E+00 0.  1.
         -2   -1    0    0    0  501 -0.00000000000E+00 -0.00000000000E+00 -0.11721781552E+02  0.11721781552E+02  0.00000000000E+00 0.  1.
         25    1    1    2    0    0 -0.14584801088E+03  0.50734841242E+02  0.13627916688E+04  0.13767522649E+04  0.12000000000E+03 0.  0.
         25    1    1    2    0    0  0.14584801088E+03 -0.50734841242E+02  0.20118038885E+04  0.20212868555E+04  0.12000000000E+03 0.  0.
<mgrwt>
<rscale>  0 0.39846542E+03</rscale>
<asrwt>0</asrwt>
<pdfrwt beam="1">  1        2 0.52097112E+00 0.39846542E+03</pdfrwt>
<pdfrwt beam="2">  1       -2 0.18033537E-02 0.39846542E+03</pdfrwt>
<totfact> 0.10606938E+03</totfact>
</mgrwt>
</event>
<event>
 4    1  0.1726503E-004  0.3631888E+03  0.7818608E-02  0.1057328E+00
         -2   -1    0    0    0  501 -0.00000000000E+00  0.00000000000E+00  0.15335214283E+03  0.15335214283E+03  0.00000000000E+00 0.  1.
          2   -1    0    0  501    0  0.00000000000E+00 -0.00000000000E+00 -0.21503791697E+03  0.21503791697E+03  0.00000000000E+00 0.  1.
         25    1    1    2    0    0 -0.16394485109E+02 -0.41826491806E+02 -0.16136473490E+03  0.20605050893E+03  0.12000000000E+03 0.  0.
         25    1    1    2    0    0  0.16394485109E+02  0.41826491806E+02  0.99678960765E+02  0.16233955087E+03  0.12000000000E+03 0.  0.
<mgrwt>
<rscale>  0 0.36318880E+03</rscale>
<asrwt>0</asrwt>
<pdfrwt beam="1">  1        2 0.33082756E-01 0.36318880E+03</pdfrwt>
<pdfrwt beam="2">  1       -2 0.23592637E-01 0.36318880E+03</pdfrwt>
<totfact> 0.24914607E+03</totfact>
</mgrwt>
</event>
<event>
 4    1  0.1726503E-004  0.2778648E+03  0.7818608E-02  0.1096861E+00
         -2   -1    0    0    0  501 -0.00000000000E+00  0.00000000000E+00  0.14487397373E+02  0.14487397373E+02  0.00000000000E+00 0.  1.
          2   -1    0    0  501    0  0.00000000000E+00 -0.00000000000E+00 -0.13323448706E+04  0.13323448706E+04  0.00000000000E+00 0.  1.
         25    1    1    2    0    0  0.35784482528E+02  0.28548530880E+02 -0.40214054809E+03  0.42215230453E+03  0.12000000000E+03 0.  0.
         25    1    1    2    0    0 -0.35784482528E+02 -0.28548530880E+02 -0.91571692517E+03  0.92467996347E+03  0.12000000000E+03 0.  0.
<mgrwt>
<rscale>  0 0.27786478E+03</rscale>
<asrwt>0</asrwt>
<pdfrwt beam="1">  1        2 0.20497619E+00 0.27786478E+03</pdfrwt>
<pdfrwt beam="2">  1       -2 0.22288298E-02 0.27786478E+03</pdfrwt>
<totfact> 0.11087655E+04</totfact>
</mgrwt>
</event>
<event>
 4    1  0.1726503E-004  0.3015082E+03  0.7818608E-02  0.1084489E+00
          2   -1    0    0  501    0  0.00000000000E+00  0.00000000000E+00  0.97534480732E+03  0.97534480732E+03  0.00000000000E+00 0.  1.
         -2   -1    0    0    0  501 -0.00000000000E+00 -0.00000000000E+00 -0.23301291941E+02  0.23301291941E+02  0.00000000000E+00 0.  1.
         25    1    1    2    0    0 -0.73458496972E+02 -0.48031861086E+02  0.55873211229E+03  0.57817366229E+03  0.12000000000E+03 0.  0.
         25    1    1    2    0    0  0.73458496972E+02  0.48031861086E+02  0.39331140308E+03  0.42047243697E+03  0.12000000000E+03 0.  0.
<mgrwt>
<rscale>  0 0.30150817E+03</rscale>
<asrwt>0</asrwt>
<pdfrwt beam="1">  1        2 0.15005302E+00 0.30150817E+03</pdfrwt>
<pdfrwt beam="2">  1       -2 0.35848149E-02 0.30150817E+03</pdfrwt>
<totfact> 0.88273936E+03</totfact>
</mgrwt>
</event>
<event>
 4    1  0.1726503E-004  0.3095156E+03  0.7818608E-02  0.1080578E+00
          1   -1    0    0  501    0  0.00000000000E+00  0.00000000000E+00  0.24376573293E+04  0.24376573293E+04  0.00000000000E+00 0.  1.
         -1   -1    0    0    0  501 -0.00000000000E+00 -0.00000000000E+00 -0.98249959019E+01  0.98249959019E+01  0.00000000000E+00 0.  1.
         25    1    1    2    0    0 -0.55109671714E+02 -0.70613982773E+02  0.90496176413E+03  0.91726724841E+03  0.12000000000E+03 0.  0.
         25    1    1    2    0    0  0.55109671714E+02  0.70613982773E+02  0.15228705693E+04  0.15302150768E+04  0.12000000000E+03 0.  0.
<mgrwt>
<rscale>  0 0.30951558E+03</rscale>
<asrwt>0</asrwt>
<pdfrwt beam="1">  1        1 0.37502372E+00 0.30951558E+03</pdfrwt>
<pdfrwt beam="2">  1       -1 0.15115398E-02 0.30951558E+03</pdfrwt>
<totfact> 0.17960919E+03</totfact>
</mgrwt>
</event>
<event>
 4    1  0.1726503E-004  0.2726360E+03  0.7818608E-02  0.1099780E+00
         -1   -1    0    0    0  501 -0.00000000000E+00  0.00000000000E+00  0.86370439431E+02  0.86370439431E+02  0.00000000000E+00 0. -1.
          1   -1    0    0  501    0  0.00000000000E+00 -0.00000000000E+00 -0.21514995439E+03  0.21514995439E+03  0.00000000000E+00 0. -1.
         25    1    1    2    0    0 -0.18405150965E+02  0.21357702816E+02 -0.12876007586E+03  0.17825279293E+03  0.12000000000E+03 0.  0.
         25    1    1    2    0    0  0.18405150965E+02 -0.21357702816E+02 -0.19439097249E-01  0.12326760089E+03  0.12000000000E+03 0.  0.
<mgrwt>
<rscale>  0 0.27263599E+03</rscale>
<asrwt>0</asrwt>
<pdfrwt beam="1">  1        1 0.33099993E-01 0.27263599E+03</pdfrwt>
<pdfrwt beam="2">  1       -1 0.13287760E-01 0.27263599E+03</pdfrwt>
<totfact> 0.51723099E+03</totfact>
</mgrwt>
</event>
<event>
 4    1  0.1726503E-004  0.2442843E+03  0.7818608E-02  0.1116971E+00
          1   -1    0    0  501    0  0.00000000000E+00  0.00000000000E+00  0.80711077567E+03  0.80711077567E+03  0.00000000000E+00 0. -1.
         -1   -1    0    0    0  501 -0.00000000000E+00 -0.00000000000E+00 -0.18484083139E+02  0.18484083139E+02  0.00000000000E+00 0. -1.
         25    1    1    2    0    0  0.20809388009E+02 -0.90924094783E+01  0.38845948772E+03  0.40720569266E+03  0.12000000000E+03 0.  0.
         25    1    1    2    0    0 -0.20809388009E+02  0.90924094783E+01  0.40016720481E+03  0.41838916614E+03  0.12000000000E+03 0.  0.
<mgrwt>
<rscale>  0 0.24428428E+03</rscale>
<asrwt>0</asrwt>
<pdfrwt beam="1">  1        1 0.12417086E+00 0.24428428E+03</pdfrwt>
<pdfrwt beam="2">  1       -1 0.28437057E-02 0.24428428E+03</pdfrwt>
<totfact> 0.92124058E+03</totfact>
</mgrwt>
</event>
<event>
 4    1  0.1726503E-004  0.2564481E+03  0.7818608E-02  0.1109296E+00
          3   -1    0    0  501    0  0.00000000000E+00  0.00000000000E+00  0.53639598494E+02  0.53639598494E+02  0.00000000000E+00 0.  1.
         -3   -1    0    0    0  501 -0.00000000000E+00 -0.00000000000E+00 -0.30651619751E+03  0.30651619751E+03  0.00000000000E+00 0.  1.
         25    1    1    2    0    0 -0.19484239220E+02  0.37814366736E+02 -0.14782228915E+03  0.19509226299E+03  0.12000000000E+03 0.  0.
         25    1    1    2    0    0  0.19484239220E+02 -0.37814366736E+02 -0.10505430987E+03  0.16506353302E+03  0.12000000000E+03 0.  0.
<mgrwt>
<rscale>  0 0.25644809E+03</rscale>
<asrwt>0</asrwt>
<pdfrwt beam="1">  1        3 0.82522456E-02 0.25644809E+03</pdfrwt>
<pdfrwt beam="2">  1       -3 0.47156340E-01 0.25644809E+03</pdfrwt>
<totfact> 0.11494012E+03</totfact>
</mgrwt>
</event>
<event>
 4    1  0.1726503E-004  0.3107714E+03  0.7818608E-02  0.1079977E+00
          1   -1    0    0  501    0  0.00000000000E+00  0.00000000000E+00  0.53057324341E+03  0.53057324341E+03  0.00000000000E+00 0. -1.
         -1   -1    0    0    0  501 -0.00000000000E+00 -0.00000000000E+00 -0.45506840907E+02  0.45506840907E+02  0.00000000000E+00 0. -1.
         25    1    1    2    0    0 -0.30560003339E+02  0.19335891153E+02  0.72264878321E+02  0.14467205373E+03  0.12000000000E+03 0.  0.
         25    1    1    2    0    0  0.30560003339E+02 -0.19335891153E+02  0.41280152418E+03  0.43140803059E+03  0.12000000000E+03 0.  0.
<mgrwt>
<rscale>  0 0.31077138E+03</rscale>
<asrwt>0</asrwt>
<pdfrwt beam="1">  1        1 0.81626648E-01 0.31077138E+03</pdfrwt>
<pdfrwt beam="2">  1       -1 0.70010528E-02 0.31077138E+03</pdfrwt>
<totfact> 0.44033997E+03</totfact>
</mgrwt>
</event>
<event>
 4    1  0.1726503E-004  0.3043652E+03  0.7818608E-02  0.1083079E+00
          1   -1    0    0  501    0  0.00000000000E+00  0.00000000000E+00  0.25098456579E+03  0.25098456579E+03  0.00000000000E+00 0.  1.
         -1   -1    0    0    0  501 -0.00000000000E+00 -0.00000000000E+00 -0.92274787776E+02  0.92274787776E+02  0.00000000000E+00 0.  1.
         25    1    1    2    0    0 -0.43650509509E+02 -0.76452270316E+02  0.43526884138E+02  0.15506420045E+03  0.12000000000E+03 0.  0.
         25    1    1    2    0    0  0.43650509509E+02  0.76452270316E+02  0.11518289388E+03  0.18819515313E+03  0.12000000000E+03 0.  0.
<mgrwt>
<rscale>  0 0.30436522E+03</rscale>
<asrwt>0</asrwt>
<pdfrwt beam="1">  1        1 0.38613010E-01 0.30436522E+03</pdfrwt>
<pdfrwt beam="2">  1       -1 0.14196121E-01 0.30436522E+03</pdfrwt>
<totfact> 0.38501538E+03</totfact>
</mgrwt>
</event>
<event>
 4    1  0.1726503E-004  0.5616433E+03  0.7818608E-02  0.9988343E-01
         -2   -1    0    0    0  501 -0.00000000000E+00  0.00000000000E+00  0.32978518590E+03  0.32978518590E+03  0.00000000000E+00 0.  1.
          2   -1    0    0  501    0  0.00000000000E+00 -0.00000000000E+00 -0.23912779374E+03  0.23912779374E+03  0.00000000000E+00 0.  1.
         25    1    1    2    0    0  0.14201369913E+03  0.20739244009E+03  0.90702832429E+01  0.27867864107E+03  0.12000000000E+03 0.  0.
         25    1    1    2    0    0 -0.14201369913E+03 -0.20739244009E+03  0.81587108909E+02  0.29023433857E+03  0.12000000000E+03 0.  0.
<mgrwt>
<rscale>  0 0.56164332E+03</rscale>
<asrwt>0</asrwt>
<pdfrwt beam="1">  1        2 0.36788891E-01 0.56164332E+03</pdfrwt>
<pdfrwt beam="2">  1       -2 0.50736182E-01 0.56164332E+03</pdfrwt>
<totfact> 0.52367918E+02</totfact>
</mgrwt>
</event>
<event>
 4    1  0.1726503E-004  0.3467539E+03  0.7818608E-02  0.1063955E+00
          2   -1    0    0  501    0  0.00000000000E+00  0.00000000000E+00  0.66258247804E+03  0.66258247804E+03  0.00000000000E+00 0.  1.
         -2   -1    0    0    0  501 -0.00000000000E+00 -0.00000000000E+00 -0.45367276304E+02  0.45367276304E+02  0.00000000000E+00 0.  1.
         25    1    1    2    0    0  0.26083513745E+02 -0.20266637201E+02  0.62180665686E+02  0.13913131013E+03  0.12000000000E+03 0.  0.
         25    1    1    2    0    0 -0.26083513745E+02  0.20266637201E+02  0.55503453605E+03  0.56881844422E+03  0.12000000000E+03 0.  0.
<mgrwt>
<rscale>  0 0.34675387E+03</rscale>
<asrwt>0</asrwt>
<pdfrwt beam="1">  1        2 0.10193576E+00 0.34675387E+03</pdfrwt>
<pdfrwt beam="2">  1       -2 0.69795815E-02 0.34675387E+03</pdfrwt>
<totfact> 0.52697494E+03</totfact>
</mgrwt>
</event>
<event>
 4    1  0.1726503E-004  0.3177577E+03  0.7818608E-02  0.1076686E+00
         -1   -1    0    0    0  501 -0.00000000000E+00  0.00000000000E+00  0.64570491270E+02  0.64570491270E+02  0.00000000000E+00 0.  1.
          1   -1    0    0  501    0  0.00000000000E+00 -0.00000000000E+00 -0.39092920900E+03  0.39092920900E+03  0.00000000000E+00 0.  1.
         25    1    1    2    0    0  0.89826446434E+02  0.45920762375E+02 -0.12621376811E+03  0.20126455762E+03  0.12000000000E+03 0.  0.
         25    1    1    2    0    0 -0.89826446434E+02 -0.45920762375E+02 -0.20014494963E+03  0.25423514265E+03  0.12000000000E+03 0.  0.
<mgrwt>
<rscale>  0 0.31775771E+03</rscale>
<asrwt>0</asrwt>
<pdfrwt beam="1">  1        1 0.60142955E-01 0.31775771E+03</pdfrwt>
<pdfrwt beam="2">  1       -1 0.99339218E-02 0.31775771E+03</pdfrwt>
<totfact> 0.38450022E+03</totfact>
</mgrwt>
</event>
<event>
 4    1  0.1726503E-004  0.2774857E+03  0.7818608E-02  0.1097070E+00
         -1   -1    0    0    0  501 -0.00000000000E+00  0.00000000000E+00  0.17578957226E+02  0.17578957226E+02  0.00000000000E+00 0. -1.
          1   -1    0    0  501    0  0.00000000000E+00 -0.00000000000E+00 -0.10950355326E+04  0.10950355326E+04  0.00000000000E+00 0. -1.
         25    1    1    2    0    0  0.58638883561E+02  0.37512204392E+02 -0.53081128192E+03  0.54864041153E+03  0.12000000000E+03 0.  0.
         25    1    1    2    0    0 -0.58638883561E+02 -0.37512204392E+02 -0.54664529349E+03  0.56397407834E+03  0.12000000000E+03 0.  0.
<mgrwt>
<rscale>  0 0.27748573E+03</rscale>
<asrwt>0</asrwt>
<pdfrwt beam="1">  1        1 0.16846700E+00 0.27748573E+03</pdfrwt>
<pdfrwt beam="2">  1       -1 0.27044550E-02 0.27748573E+03</pdfrwt>
<totfact> 0.59819062E+03</totfact>
</mgrwt>
</event>
<event>
 4    1  0.1726503E-004  0.2583573E+03  0.7818608E-02  0.1108134E+00
          2   -1    0    0  501    0  0.00000000000E+00  0.00000000000E+00  0.22587431232E+04  0.22587431232E+04  0.00000000000E+00 0.  1.
         -2   -1    0    0    0  501 -0.00000000000E+00 -0.00000000000E+00 -0.73877896399E+01  0.73877896399E+01  0.00000000000E+00 0.  1.
         25    1    1    2    0    0  0.31724630431E+02 -0.35345250209E+02  0.10765425636E+04  0.10842507230E+04  0.12000000000E+03 0.  0.
         25    1    1    2    0    0 -0.31724630431E+02  0.35345250209E+02  0.11748127699E+04  0.11818801899E+04  0.12000000000E+03 0.  0.
<mgrwt>
<rscale>  0 0.25835726E+03</rscale>
<asrwt>0</asrwt>
<pdfrwt beam="1">  1        2 0.34749839E+00 0.25835726E+03</pdfrwt>
<pdfrwt beam="2">  1       -2 0.11365848E-02 0.25835726E+03</pdfrwt>
<totfact> 0.95795160E+03</totfact>
</mgrwt>
</event>
<event>
 4    1  0.1726503E-004  0.2865817E+03  0.7818608E-02  0.1092147E+00
         -1   -1    0    0    0  501 -0.00000000000E+00  0.00000000000E+00  0.96465473733E+02  0.96465473733E+02  0.00000000000E+00 0.  1.
          1   -1    0    0  501    0  0.00000000000E+00 -0.00000000000E+00 -0.21284581114E+03  0.21284581114E+03  0.00000000000E+00 0.  1.
         25    1    1    2    0    0 -0.30609924568E+02  0.69095601248E+01 -0.13562709017E+03  0.18379177645E+03  0.12000000000E+03 0.  0.
         25    1    1    2    0    0  0.30609924568E+02 -0.69095601248E+01  0.19246752759E+02  0.12551950842E+03  0.12000000000E+03 0.  0.
<mgrwt>
<rscale>  0 0.28658173E+03</rscale>
<asrwt>0</asrwt>
<pdfrwt beam="1">  1        1 0.32745509E-01 0.28658173E+03</pdfrwt>
<pdfrwt beam="2">  1       -1 0.14840842E-01 0.28658173E+03</pdfrwt>
<totfact> 0.44094306E+03</totfact>
</mgrwt>
</event>
<event>
 4    1  0.1726503E-004  0.2811867E+03  0.7818608E-02  0.1095043E+00
          2   -1    0    0  501    0  0.00000000000E+00  0.00000000000E+00  0.21284635092E+04  0.21284635092E+04  0.00000000000E+00 0. -1.
         -2   -1    0    0    0  501 -0.00000000000E+00 -0.00000000000E+00 -0.92867429783E+01  0.92867429783E+01  0.00000000000E+00 0. -1.
         25    1    1    2    0    0 -0.42883588250E+02  0.40548245840E+02  0.72965557764E+03  0.74180888669E+03  0.12000000000E+03 0.  0.
         25    1    1    2    0    0  0.42883588250E+02 -0.40548245840E+02  0.13895211886E+04  0.13959413655E+04  0.12000000000E+03 0.  0.
<mgrwt>
<rscale>  0 0.28118672E+03</rscale>
<asrwt>0</asrwt>
<pdfrwt beam="1">  1        2 0.32745554E+00 0.28118672E+03</pdfrwt>
<pdfrwt beam="2">  1       -2 0.14287314E-02 0.28118672E+03</pdfrwt>
<totfact> 0.80530162E+03</totfact>
</mgrwt>
</event>
<event>
 4    1  0.1726503E-004  0.3384834E+03  0.7818608E-02  0.1067444E+00
         -2   -1    0    0    0  501 -0.00000000000E+00  0.00000000000E+00  0.11104085153E+02  0.11104085153E+02  0.00000000000E+00 0.  1.
          2   -1    0    0  501    0  0.00000000000E+00 -0.00000000000E+00 -0.25794782106E+04  0.25794782106E+04  0.00000000000E+00 0.  1.
         25    1    1    2    0    0 -0.10060342299E+02  0.11287058620E+03 -0.99763876510E+03  0.10111993302E+04  0.12000000000E+03 0.  0.
         25    1    1    2    0    0  0.10060342299E+02 -0.11287058620E+03 -0.15707353603E+04  0.15793829656E+04  0.12000000000E+03 0.  0.
<mgrwt>
<rscale>  0 0.33848336E+03</rscale>
<asrwt>0</asrwt>
<pdfrwt beam="1">  1        2 0.39684315E+00 0.33848336E+03</pdfrwt>
<pdfrwt beam="2">  1       -2 0.17083193E-02 0.33848336E+03</pdfrwt>
<totfact> 0.35212428E+03</totfact>
</mgrwt>
</event>
<event>
 4    1  0.1726503E-004  0.2770517E+03  0.7818608E-02  0.1097310E+00
         -2   -1    0    0    0  501 -0.00000000000E+00  0.00000000000E+00  0.27741236332E+02  0.27741236332E+02  0.00000000000E+00 0. -1.
          2   -1    0    0  501    0  0.00000000000E+00 -0.00000000000E+00 -0.69172862087E+03  0.69172862087E+03  0.00000000000E+00 0. -1.
         25    1    1    2    0    0  0.33427705037E+02 -0.30114170758E+02 -0.46854938036E+03  0.48576001954E+03  0.12000000000E+03 0.  0.
         25    1    1    2    0    0 -0.33427705037E+02  0.30114170758E+02 -0.19543800417E+03  0.23370983766E+03  0.12000000000E+03 0.  0.
<mgrwt>
<rscale>  0 0.27705167E+03</rscale>
<asrwt>0</asrwt>
<pdfrwt beam="1">  1        2 0.10641978E+00 0.27705167E+03</pdfrwt>
<pdfrwt beam="2">  1       -2 0.42678827E-02 0.27705167E+03</pdfrwt>
<totfact> 0.10563845E+04</totfact>
</mgrwt>
</event>
<event>
 4    1  0.1726503E-004  0.3379548E+03  0.7818608E-02  0.1067670E+00
         -2   -1    0    0    0  501 -0.00000000000E+00  0.00000000000E+00  0.46801415035E+03  0.46801415035E+03  0.00000000000E+00 0.  1.
          2   -1    0    0  501    0  0.00000000000E+00 -0.00000000000E+00 -0.61009610158E+02  0.61009610158E+02  0.00000000000E+00 0.  1.
         25    1    1    2    0    0 -0.27257822265E+02 -0.11573919640E+03  0.20952647862E+03  0.26914660633E+03  0.12000000000E+03 0.  0.
         25    1    1    2    0    0  0.27257822265E+02  0.11573919640E+03  0.19747806158E+03  0.25987715418E+03  0.12000000000E+03 0.  0.
<mgrwt>
<rscale>  0 0.33795479E+03</rscale>
<asrwt>0</asrwt>
<pdfrwt beam="1">  1        2 0.93860942E-02 0.33795479E+03</pdfrwt>
<pdfrwt beam="2">  1       -2 0.72002175E-01 0.33795479E+03</pdfrwt>
<totfact> 0.12512853E+03</totfact>
</mgrwt>
</event>
<event>
 4    1  0.1726503E-004  0.3002445E+03  0.7818608E-02  0.1085118E+00
         -4   -1    0    0    0  501 -0.00000000000E+00  0.00000000000E+00  0.63661743226E+03  0.63661743226E+03  0.00000000000E+00 0. -1.
          4   -1    0    0  501    0  0.00000000000E+00 -0.00000000000E+00 -0.35400675135E+02  0.35400675135E+02  0.00000000000E+00 0. -1.
         25    1    1    2    0    0 -0.17875189161E+01 -0.82933171829E+02  0.37991843484E+03  0.40696329484E+03  0.12000000000E+03 0.  0.
         25    1    1    2    0    0  0.17875189161E+01  0.82933171829E+02  0.22129832228E+03  0.26505481255E+03  0.12000000000E+03 0.  0.
<mgrwt>
<rscale>  0 0.30024448E+03</rscale>
<asrwt>0</asrwt>
<pdfrwt beam="1">  1        4 0.54462582E-02 0.30024448E+03</pdfrwt>
<pdfrwt beam="2">  1       -4 0.97941135E-01 0.30024448E+03</pdfrwt>
<totfact> 0.35238793E+02</totfact>
</mgrwt>
</event>
<event>
 4    1  0.1726503E-004  0.2638199E+03  0.7818608E-02  0.1104870E+00
         -1   -1    0    0    0  501 -0.00000000000E+00  0.00000000000E+00  0.20126449454E+02  0.20126449454E+02  0.00000000000E+00 0. -1.
          1   -1    0    0  501    0  0.00000000000E+00 -0.00000000000E+00 -0.86454578128E+03  0.86454578128E+03  0.00000000000E+00 0. -1.
         25    1    1    2    0    0  0.24043863449E+02 -0.22667215848E+02 -0.27572195013E+03  0.30251364239E+03  0.12000000000E+03 0.  0.
         25    1    1    2    0    0 -0.24043863449E+02  0.22667215848E+02 -0.56869738170E+03  0.58215858835E+03  0.12000000000E+03 0.  0.
<mgrwt>
<rscale>  0 0.26381992E+03</rscale>
<asrwt>0</asrwt>
<pdfrwt beam="1">  1        1 0.13300701E+00 0.26381992E+03</pdfrwt>
<pdfrwt beam="2">  1       -1 0.30963776E-02 0.26381992E+03</pdfrwt>
<totfact> 0.73151337E+03</totfact>
</mgrwt>
</event>
<event>
 4    1  0.1726503E-004  0.2598154E+03  0.7818608E-02  0.1107254E+00
          1   -1    0    0  501    0  0.00000000000E+00  0.00000000000E+00  0.10183084459E+03  0.10183084459E+03  0.00000000000E+00 0. -1.
         -1   -1    0    0    0  501 -0.00000000000E+00 -0.00000000000E+00 -0.16572589231E+03  0.16572589231E+03  0.00000000000E+00 0. -1.
         25    1    1    2    0    0 -0.11991019378E+02  0.22586598652E+02 -0.75905065980E+02  0.14427584006E+03  0.12000000000E+03 0.  0.
         25    1    1    2    0    0  0.11991019378E+02 -0.22586598652E+02  0.12010018261E+02  0.12328089683E+03  0.12000000000E+03 0.  0.
<mgrwt>
<rscale>  0 0.25981538E+03</rscale>
<asrwt>0</asrwt>
<pdfrwt beam="1">  1        1 0.15666284E-01 0.25981538E+03</pdfrwt>
<pdfrwt beam="2">  1       -1 0.25496291E-01 0.25981538E+03</pdfrwt>
<totfact> 0.46954083E+03</totfact>
</mgrwt>
</event>
<event>
 4    1  0.1726503E-004  0.3192845E+03  0.7818608E-02  0.1075979E+00
         -2   -1    0    0    0  501 -0.00000000000E+00  0.00000000000E+00  0.21201322914E+02  0.21201322914E+02  0.00000000000E+00 0.  1.
          2   -1    0    0  501    0  0.00000000000E+00 -0.00000000000E+00 -0.12020782883E+04  0.12020782883E+04  0.00000000000E+00 0.  1.
         25    1    1    2    0    0  0.26546880246E+02  0.10154102526E+03 -0.55830717719E+03  0.58062227030E+03  0.12000000000E+03 0.  0.
         25    1    1    2    0    0 -0.26546880246E+02 -0.10154102526E+03 -0.62256978823E+03  0.64265734095E+03  0.12000000000E+03 0.  0.
<mgrwt>
<rscale>  0 0.31928451E+03</rscale>
<asrwt>0</asrwt>
<pdfrwt beam="1">  1        2 0.18493513E+00 0.31928451E+03</pdfrwt>
<pdfrwt beam="2">  1       -2 0.32617418E-02 0.31928451E+03</pdfrwt>
<totfact> 0.74668593E+03</totfact>
</mgrwt>
</event>
<event>
 4    1  0.1726503E-004  0.2671509E+03  0.7818608E-02  0.1102921E+00
         -1   -1    0    0    0  501 -0.00000000000E+00  0.00000000000E+00  0.10474485720E+03  0.10474485720E+03  0.00000000000E+00 0.  1.
          1   -1    0    0  501    0  0.00000000000E+00 -0.00000000000E+00 -0.17034155651E+03  0.17034155651E+03  0.00000000000E+00 0.  1.
         25    1    1    2    0    0  0.47167120826E+02  0.84462407374E+01 -0.67661490326E+02  0.14585661981E+03  0.12000000000E+03 0.  0.
         25    1    1    2    0    0 -0.47167120826E+02 -0.84462407374E+01  0.20647910103E+01  0.12922979390E+03  0.12000000000E+03 0.  0.
<mgrwt>
<rscale>  0 0.26715091E+03</rscale>
<asrwt>0</asrwt>
<pdfrwt beam="1">  1        1 0.26206393E-01 0.26715091E+03</pdfrwt>
<pdfrwt beam="2">  1       -1 0.16114593E-01 0.26715091E+03</pdfrwt>
<totfact> 0.51145099E+03</totfact>
</mgrwt>
</event>
<event>
 4    1  0.1726503E-004  0.2610443E+03  0.7818608E-02  0.1106517E+00
         -1   -1    0    0    0  501 -0.00000000000E+00  0.00000000000E+00  0.26396679607E+03  0.26396679607E+03  0.00000000000E+00 0. -1.
          1   -1    0    0  501    0  0.00000000000E+00 -0.00000000000E+00 -0.64538561390E+02  0.64538561390E+02  0.00000000000E+00 0. -1.
         25    1    1    2    0    0  0.25012560432E+02  0.43399438024E+02  0.85538063924E+02  0.15564671465E+03  0.12000000000E+03 0.  0.
         25    1    1    2    0    0 -0.25012560432E+02 -0.43399438024E+02  0.11389017075E+03  0.17285864281E+03  0.12000000000E+03 0.  0.
<mgrwt>
<rscale>  0 0.26104434E+03</rscale>
<asrwt>0</asrwt>
<pdfrwt beam="1">  1        1 0.99290096E-02 0.26104434E+03</pdfrwt>
<pdfrwt beam="2">  1       -1 0.40610276E-01 0.26104434E+03</pdfrwt>
<totfact> 0.38642363E+03</totfact>
</mgrwt>
</event>
<event>
 4    1  0.1726503E-004  0.2541473E+03  0.7818608E-02  0.1110712E+00
         -2   -1    0    0    0  501 -0.00000000000E+00  0.00000000000E+00  0.13765259721E+02  0.13765259721E+02  0.00000000000E+00 0. -1.
          2   -1    0    0  501    0  0.00000000000E+00 -0.00000000000E+00 -0.11730772168E+04  0.11730772168E+04  0.00000000000E+00 0. -1.
         25    1    1    2    0    0  0.88647167647E+01 -0.72164577649E+00 -0.77041488204E+03  0.77975521443E+03  0.12000000000E+03 0.  0.
         25    1    1    2    0    0 -0.88647167647E+01  0.72164577649E+00 -0.38889707504E+03  0.40708726208E+03  0.12000000000E+03 0.  0.
<mgrwt>
<rscale>  0 0.25414730E+03</rscale>
<asrwt>0</asrwt>
<pdfrwt beam="1">  1        2 0.18047340E+00 0.25414730E+03</pdfrwt>
<pdfrwt beam="2">  1       -2 0.21177325E-02 0.25414730E+03</pdfrwt>
<totfact> 0.14641210E+04</totfact>
</mgrwt>
</event>
<event>
 4    1  0.1726503E-004  0.2990813E+03  0.7818608E-02  0.1085701E+00
         -2   -1    0    0    0  501 -0.00000000000E+00  0.00000000000E+00  0.12316250851E+02  0.12316250851E+02  0.00000000000E+00 0.  1.
          2   -1    0    0  501    0  0.00000000000E+00 -0.00000000000E+00 -0.18156829806E+04  0.18156829806E+04  0.00000000000E+00 0.  1.
         25    1    1    2    0    0 -0.43113890829E+02 -0.42701569491E+02 -0.13015521691E+04  0.13084801415E+04  0.12000000000E+03 0.  0.
         25    1    1    2    0    0  0.43113890829E+02  0.42701569491E+02 -0.50181456060E+03  0.51951908997E+03  0.12000000000E+03 0.  0.
<mgrwt>
<rscale>  0 0.29908131E+03</rscale>
<asrwt>0</asrwt>
<pdfrwt beam="1">  1        2 0.27933572E+00 0.29908131E+03</pdfrwt>
<pdfrwt beam="2">  1       -2 0.18948087E-02 0.29908131E+03</pdfrwt>
<totfact> 0.77817690E+03</totfact>
</mgrwt>
</event>
<event>
 4    1  0.1726503E-004  0.4258418E+03  0.7818608E-02  0.1035182E+00
         -1   -1    0    0    0  501 -0.00000000000E+00  0.00000000000E+00  0.19497999047E+03  0.19497999047E+03  0.00000000000E+00 0. -1.
          1   -1    0    0  501    0  0.00000000000E+00 -0.00000000000E+00 -0.23251262636E+03  0.23251262636E+03  0.00000000000E+00 0. -1.
         25    1    1    2    0    0  0.82065894377E+02  0.49858141303E+02 -0.16669653360E+03  0.22673416061E+03  0.12000000000E+03 0.  0.
         25    1    1    2    0    0 -0.82065894377E+02 -0.49858141303E+02  0.12916389771E+03  0.20075845622E+03  0.12000000000E+03 0.  0.
<mgrwt>
<rscale>  0 0.42584180E+03</rscale>
<asrwt>0</asrwt>
<pdfrwt beam="1">  1        1 0.35771173E-01 0.42584180E+03</pdfrwt>
<pdfrwt beam="2">  1       -1 0.29996922E-01 0.42584180E+03</pdfrwt>
<totfact> 0.12435628E+03</totfact>
</mgrwt>
</event>
<event>
 4    1  0.1726503E-004  0.2454910E+03  0.7818608E-02  0.1116188E+00
          1   -1    0    0  501    0  0.00000000000E+00  0.00000000000E+00  0.13668718240E+04  0.13668718240E+04  0.00000000000E+00 0.  1.
         -1   -1    0    0    0  501 -0.00000000000E+00 -0.00000000000E+00 -0.11022586746E+02  0.11022586746E+02  0.00000000000E+00 0.  1.
         25    1    1    2    0    0  0.20902259105E+02  0.14160924762E+02  0.64768463486E+03  0.65919103639E+03  0.12000000000E+03 0.  0.
         25    1    1    2    0    0 -0.20902259105E+02 -0.14160924762E+02  0.70816460241E+03  0.71870337437E+03  0.12000000000E+03 0.  0.
<mgrwt>
<rscale>  0 0.24549104E+03</rscale>
<asrwt>0</asrwt>
<pdfrwt beam="1">  1        1 0.21028784E+00 0.24549104E+03</pdfrwt>
<pdfrwt beam="2">  1       -1 0.16957837E-02 0.24549104E+03</pdfrwt>
<totfact> 0.76468093E+03</totfact>
</mgrwt>
</event>
<event>
 4    1  0.1726503E-004  0.2623793E+03  0.7818608E-02  0.1105722E+00
          2   -1    0    0  501    0  0.00000000000E+00  0.00000000000E+00  0.13660254956E+03  0.13660254956E+03  0.00000000000E+00 0.  1.
         -2   -1    0    0    0  501 -0.00000000000E+00 -0.00000000000E+00 -0.12599126819E+03  0.12599126819E+03  0.00000000000E+00 0.  1.
         25    1    1    2    0    0  0.52098279400E+02  0.20681116460E+01 -0.43053681833E+01  0.13090853294E+03  0.12000000000E+03 0.  0.
         25    1    1    2    0    0 -0.52098279400E+02 -0.20681116460E+01  0.14916649557E+02  0.13168528481E+03  0.12000000000E+03 0.  0.
<mgrwt>
<rscale>  0 0.26237933E+03</rscale>
<asrwt>0</asrwt>
<pdfrwt beam="1">  1        2 0.21015777E-01 0.26237933E+03</pdfrwt>
<pdfrwt beam="2">  1       -2 0.19383272E-01 0.26237933E+03</pdfrwt>
<totfact> 0.57597551E+03</totfact>
</mgrwt>
</event>
<event>
 4    1  0.1726503E-004  0.3316610E+03  0.7818608E-02  0.1070404E+00
          3   -1    0    0  501    0  0.00000000000E+00  0.00000000000E+00  0.23956151275E+03  0.23956151275E+03  0.00000000000E+00 0.  1.
         -3   -1    0    0    0  501 -0.00000000000E+00 -0.00000000000E+00 -0.11479202740E+03  0.11479202740E+03  0.00000000000E+00 0.  1.
         25    1    1    2    0    0  0.56613953254E+02  0.82602940127E+02  0.31729510480E+01  0.15632803024E+03  0.12000000000E+03 0.  0.
         25    1    1    2    0    0 -0.56613953254E+02 -0.82602940127E+02  0.12159653431E+03  0.19802550991E+03  0.12000000000E+03 0.  0.
<mgrwt>
<rscale>  0 0.33166098E+03</rscale>
<asrwt>0</asrwt>
<pdfrwt beam="1">  1        3 0.36855617E-01 0.33166098E+03</pdfrwt>
<pdfrwt beam="2">  1       -3 0.17660312E-01 0.33166098E+03</pdfrwt>
<totfact> 0.52509696E+02</totfact>
</mgrwt>
</event>
<event>
 4    1  0.1726503E-004  0.2606651E+03  0.7818608E-02  0.1106744E+00
         -1   -1    0    0    0  501 -0.00000000000E+00  0.00000000000E+00  0.28948442331E+02  0.28948442331E+02  0.00000000000E+00 0.  1.
          1   -1    0    0  501    0  0.00000000000E+00 -0.00000000000E+00 -0.58678696734E+03  0.58678696734E+03  0.00000000000E+00 0.  1.
         25    1    1    2    0    0 -0.57512536267E+01 -0.27538410180E+02 -0.37900195540E+03  0.39853973848E+03  0.12000000000E+03 0.  0.
         25    1    1    2    0    0  0.57512536267E+01  0.27538410180E+02 -0.17883656962E+03  0.21719567119E+03  0.12000000000E+03 0.  0.
<mgrwt>
<rscale>  0 0.26066506E+03</rscale>
<asrwt>0</asrwt>
<pdfrwt beam="1">  1        1 0.90274910E-01 0.26066506E+03</pdfrwt>
<pdfrwt beam="2">  1       -1 0.44536069E-02 0.26066506E+03</pdfrwt>
<totfact> 0.75501020E+03</totfact>
</mgrwt>
</event>
<event>
 4    1  0.1726503E-004  0.3057931E+03  0.7818608E-02  0.1082380E+00
         -1   -1    0    0    0  501 -0.00000000000E+00  0.00000000000E+00  0.31630483141E+03  0.31630483141E+03  0.00000000000E+00 0.  1.
          1   -1    0    0  501    0  0.00000000000E+00 -0.00000000000E+00 -0.73907663735E+02  0.73907663735E+02  0.00000000000E+00 0.  1.
         25    1    1    2    0    0  0.97002818996E+01  0.26168844503E+02  0.56567305998E+01  0.12333248758E+03  0.12000000000E+03 0.  0.
         25    1    1    2    0    0 -0.97002818996E+01 -0.26168844503E+02  0.23674043708E+03  0.26688000757E+03  0.12000000000E+03 0.  0.
<mgrwt>
<rscale>  0 0.30579307E+03</rscale>
<asrwt>0</asrwt>
<pdfrwt beam="1">  1        1 0.11370410E-01 0.30579307E+03</pdfrwt>
<pdfrwt beam="2">  1       -1 0.48662281E-01 0.30579307E+03</pdfrwt>
<totfact> 0.23313511E+03</totfact>
</mgrwt>
</event>
<event>
 4    1  0.1726503E-004  0.2545762E+03  0.7818608E-02  0.1110446E+00
          1   -1    0    0  501    0  0.00000000000E+00  0.00000000000E+00  0.60449981074E+03  0.60449981074E+03  0.00000000000E+00 0. -1.
         -1   -1    0    0    0  501 -0.00000000000E+00 -0.00000000000E+00 -0.26802761174E+02  0.26802761174E+02  0.00000000000E+00 0. -1.
         25    1    1    2    0    0 -0.12479231490E+02 -0.39720693643E+02  0.26827958857E+03  0.29682891093E+03  0.12000000000E+03 0.  0.
         25    1    1    2    0    0  0.12479231490E+02  0.39720693643E+02  0.30941746100E+03  0.33447366098E+03  0.12000000000E+03 0.  0.
<mgrwt>
<rscale>  0 0.25457623E+03</rscale>
<asrwt>0</asrwt>
<pdfrwt beam="1">  1        1 0.92999960E-01 0.25457623E+03</pdfrwt>
<pdfrwt beam="2">  1       -1 0.41235022E-02 0.25457623E+03</pdfrwt>
<totfact> 0.81191781E+03</totfact>
</mgrwt>
</event>
<event>
 4    1  0.1726503E-004  0.3259721E+03  0.7818608E-02  0.1072933E+00
          2   -1    0    0  501    0  0.00000000000E+00  0.00000000000E+00  0.15716640568E+04  0.15716640568E+04  0.00000000000E+00 0. -1.
         -2   -1    0    0    0  501 -0.00000000000E+00 -0.00000000000E+00 -0.16902123040E+02  0.16902123040E+02  0.00000000000E+00 0. -1.
         25    1    1    2    0    0 -0.29649069892E+02  0.90109082338E+02  0.50318389972E+03  0.52592086002E+03  0.12000000000E+03 0.  0.
         25    1    1    2    0    0  0.29649069892E+02 -0.90109082338E+02  0.10515780341E+04  0.10626453199E+04  0.12000000000E+03 0.  0.
<mgrwt>
<rscale>  0 0.32597214E+03</rscale>
<asrwt>0</asrwt>
<pdfrwt beam="1">  1        2 0.24179436E+00 0.32597214E+03</pdfrwt>
<pdfrwt beam="2">  1       -2 0.26003279E-02 0.32597214E+03</pdfrwt>
<totfact> 0.65628355E+03</totfact>
</mgrwt>
</event>
<event>
 4    1  0.1726503E-004  0.2634912E+03  0.7818608E-02  0.1105064E+00
         -2   -1    0    0    0  501 -0.00000000000E+00  0.00000000000E+00  0.24878609973E+03  0.24878609973E+03  0.00000000000E+00 0. -1.
          2   -1    0    0  501    0  0.00000000000E+00 -0.00000000000E+00 -0.69766345739E+02  0.69766345739E+02  0.00000000000E+00 0. -1.
         25    1    1    2    0    0 -0.34405938602E+02 -0.28738331738E+02  0.12671854884E+03  0.18018671134E+03  0.12000000000E+03 0.  0.
         25    1    1    2    0    0  0.34405938602E+02  0.28738331738E+02  0.52301205155E+02  0.13836573414E+03  0.12000000000E+03 0.  0.
<mgrwt>
<rscale>  0 0.26349115E+03</rscale>
<asrwt>0</asrwt>
<pdfrwt beam="1">  1        2 0.10733284E-01 0.26349115E+03</pdfrwt>
<pdfrwt beam="2">  1       -2 0.38274784E-01 0.26349115E+03</pdfrwt>
<totfact> 0.37762553E+03</totfact>
</mgrwt>
</event>
<event>
 4    1  0.1726503E-004  0.3071853E+03  0.7818608E-02  0.1081703E+00
         -2   -1    0    0    0  501 -0.00000000000E+00  0.00000000000E+00  0.11059339063E+03  0.11059339063E+03  0.00000000000E+00 0.  1.
          2   -1    0    0  501    0  0.00000000000E+00 -0.00000000000E+00 -0.21331024967E+03  0.21331024967E+03  0.00000000000E+00 0.  1.
         25    1    1    2    0    0  0.79825110137E+02  0.40927174859E+02 -0.15700459175E+02  0.15064390551E+03  0.12000000000E+03 0.  0.
         25    1    1    2    0    0 -0.79825110137E+02 -0.40927174859E+02 -0.87016399863E+02  0.17325973478E+03  0.12000000000E+03 0.  0.
<mgrwt>
<rscale>  0 0.30718531E+03</rscale>
<asrwt>0</asrwt>
<pdfrwt beam="1">  1        2 0.32816961E-01 0.30718531E+03</pdfrwt>
<pdfrwt beam="2">  1       -2 0.17014368E-01 0.30718531E+03</pdfrwt>
<totfact> 0.43931132E+03</totfact>
</mgrwt>
</event>
<event>
 4    1  0.1726503E-004  0.2910943E+03  0.7818608E-02  0.1089779E+00
         -2   -1    0    0    0  501 -0.00000000000E+00  0.00000000000E+00  0.19007478525E+03  0.19007478525E+03  0.00000000000E+00 0.  1.
          2   -1    0    0  501    0  0.00000000000E+00 -0.00000000000E+00 -0.11145075474E+03  0.11145075474E+03  0.00000000000E+00 0.  1.
         25    1    1    2    0    0 -0.36451454889E+02  0.72056718162E+02  0.56113590829E+02  0.15514385025E+03  0.12000000000E+03 0.  0.
         25    1    1    2    0    0  0.36451454889E+02 -0.72056718162E+02  0.22510439681E+02  0.14638168974E+03  0.12000000000E+03 0.  0.
<mgrwt>
<rscale>  0 0.29109434E+03</rscale>
<asrwt>0</asrwt>
<pdfrwt beam="1">  1        2 0.17146270E-01 0.29109434E+03</pdfrwt>
<pdfrwt beam="2">  1       -2 0.29242275E-01 0.29109434E+03</pdfrwt>
<totfact> 0.35529078E+03</totfact>
</mgrwt>
</event>
<event>
 4    1  0.1726503E-004  0.4399753E+03  0.7818608E-02  0.1030754E+00
          2   -1    0    0  501    0  0.00000000000E+00  0.00000000000E+00  0.55588520230E+03  0.55588520230E+03  0.00000000000E+00 0. -1.
         -2   -1    0    0    0  501 -0.00000000000E+00 -0.00000000000E+00 -0.87058575652E+02  0.87058575652E+02  0.00000000000E+00 0. -1.
         25    1    1    2    0    0 -0.81437934307E+02 -0.47983452373E+02  0.46574515617E+03  0.49015619892E+03  0.12000000000E+03 0.  0.
         25    1    1    2    0    0  0.81437934307E+02  0.47983452373E+02  0.30814704790E+01  0.15278757903E+03  0.12000000000E+03 0.  0.
<mgrwt>
<rscale>  0 0.43997534E+03</rscale>
<asrwt>0</asrwt>
<pdfrwt beam="1">  1        2 0.85520798E-01 0.43997534E+03</pdfrwt>
<pdfrwt beam="2">  1       -2 0.13393627E-01 0.43997534E+03</pdfrwt>
<totfact> 0.22910623E+03</totfact>
</mgrwt>
</event>
<event>
 4    1  0.1726503E-004  0.2718740E+03  0.7818608E-02  0.1100212E+00
          2   -1    0    0  501    0  0.00000000000E+00  0.00000000000E+00  0.44795138484E+02  0.44795138484E+02  0.00000000000E+00 0.  1.
         -2   -1    0    0    0  501 -0.00000000000E+00 -0.00000000000E+00 -0.41251941018E+03  0.41251941018E+03  0.00000000000E+00 0.  1.
         25    1    1    2    0    0 -0.14689927594E+02 -0.59783636441E+02 -0.21245689879E+03  0.25165017584E+03  0.12000000000E+03 0.  0.
         25    1    1    2    0    0  0.14689927594E+02  0.59783636441E+02 -0.15526737291E+03  0.20566437283E+03  0.12000000000E+03 0.  0.
<mgrwt>
<rscale>  0 0.27187397E+03</rscale>
<asrwt>0</asrwt>
<pdfrwt beam="1">  1        2 0.68915600E-02 0.27187397E+03</pdfrwt>
<pdfrwt beam="2">  1       -2 0.63464523E-01 0.27187397E+03</pdfrwt>
<totfact> 0.24154640E+03</totfact>
</mgrwt>
</event>
<event>
 4    1  0.1726503E-004  0.2493781E+03  0.7818608E-02  0.1113698E+00
         -2   -1    0    0    0  501 -0.00000000000E+00  0.00000000000E+00  0.68173195003E+02  0.68173195003E+02  0.00000000000E+00 0.  1.
          2   -1    0    0  501    0  0.00000000000E+00 -0.00000000000E+00 -0.22805673084E+03  0.22805673084E+03  0.00000000000E+00 0.  1.
         25    1    1    2    0    0 -0.10890280829E+02 -0.30111447561E+02 -0.93065418638E+02  0.15519816248E+03  0.12000000000E+03 0.  0.
         25    1    1    2    0    0  0.10890280829E+02  0.30111447561E+02 -0.66818117196E+02  0.14103176336E+03  0.12000000000E+03 0.  0.
<mgrwt>
<rscale>  0 0.24937807E+03</rscale>
<asrwt>0</asrwt>
<pdfrwt beam="1">  1        2 0.35085650E-01 0.24937807E+03</pdfrwt>
<pdfrwt beam="2">  1       -2 0.10488184E-01 0.24937807E+03</pdfrwt>
<totfact> 0.89371116E+03</totfact>
</mgrwt>
</event>
<event>
 4    1  0.1726503E-004  0.3253249E+03  0.7818608E-02  0.1073224E+00
          2   -1    0    0  501    0  0.00000000000E+00  0.00000000000E+00  0.11736614066E+04  0.11736614066E+04  0.00000000000E+00 0.  1.
         -2   -1    0    0    0  501 -0.00000000000E+00 -0.00000000000E+00 -0.22544042541E+02  0.22544042541E+02  0.00000000000E+00 0.  1.
         25    1    1    2    0    0  0.10645085568E+02  0.51167176542E+02  0.93067871407E+03  0.93983736180E+03  0.12000000000E+03 0.  0.
         25    1    1    2    0    0 -0.10645085568E+02 -0.51167176542E+02  0.22043865000E+03  0.25636808736E+03  0.12000000000E+03 0.  0.
<mgrwt>
<rscale>  0 0.32532490E+03</rscale>
<asrwt>0</asrwt>
<pdfrwt beam="1">  1        2 0.18056325E+00 0.32532490E+03</pdfrwt>
<pdfrwt beam="2">  1       -2 0.34683151E-02 0.32532490E+03</pdfrwt>
<totfact> 0.70722478E+03</totfact>
</mgrwt>
</event>
<event>
 4    1  0.1726503E-004  0.2787087E+03  0.7818608E-02  0.1096396E+00
         -1   -1    0    0    0  501 -0.00000000000E+00  0.00000000000E+00  0.16111884649E+02  0.16111884649E+02  0.00000000000E+00 0. -1.
          1   -1    0    0  501    0  0.00000000000E+00 -0.00000000000E+00 -0.12052989429E+04  0.12052989429E+04  0.00000000000E+00 0. -1.
         25    1    1    2    0    0  0.10653703187E+01  0.68233278227E+02 -0.67805736037E+03  0.69196726746E+03  0.12000000000E+03 0.  0.
         25    1    1    2    0    0 -0.10653703187E+01 -0.68233278227E+02 -0.51112969784E+03  0.52944356006E+03  0.12000000000E+03 0.  0.
<mgrwt>
<rscale>  0 0.27870872E+03</rscale>
<asrwt>0</asrwt>
<pdfrwt beam="1">  1        1 0.18543060E+00 0.27870872E+03</pdfrwt>
<pdfrwt beam="2">  1       -1 0.24787516E-02 0.27870872E+03</pdfrwt>
<totfact> 0.56785201E+03</totfact>
</mgrwt>
</event>
<event>
 4    1  0.1726503E-004  0.3214290E+03  0.7818608E-02  0.1074993E+00
         -2   -1    0    0    0  501 -0.00000000000E+00  0.00000000000E+00  0.52759945329E+02  0.52759945329E+02  0.00000000000E+00 0. -1.
          2   -1    0    0  501    0  0.00000000000E+00 -0.00000000000E+00 -0.48955998763E+03  0.48955998763E+03  0.00000000000E+00 0. -1.
         25    1    1    2    0    0 -0.13420862704E+02 -0.93347245648E+02 -0.13344525989E+03  0.20273496298E+03  0.12000000000E+03 0.  0.
         25    1    1    2    0    0  0.13420862704E+02  0.93347245648E+02 -0.30335478241E+03  0.33958496998E+03  0.12000000000E+03 0.  0.
<mgrwt>
<rscale>  0 0.32142905E+03</rscale>
<asrwt>0</asrwt>
<pdfrwt beam="1">  1        2 0.75316924E-01 0.32142905E+03</pdfrwt>
<pdfrwt beam="2">  1       -2 0.81169143E-02 0.32142905E+03</pdfrwt>
<totfact> 0.58986926E+03</totfact>
</mgrwt>
</event>
<event>
 4    1  0.1726503E-004  0.2400901E+03  0.7818608E-02  0.1119733E+00
          2   -1    0    0  501    0  0.00000000000E+00  0.00000000000E+00  0.25117342868E+03  0.25117342868E+03  0.00000000000E+00 0.  1.
         -2   -1    0    0    0  501 -0.00000000000E+00 -0.00000000000E+00 -0.57373976430E+02  0.57373976430E+02  0.00000000000E+00 0.  1.
         25    1    1    2    0    0 -0.24827752111E+00 -0.26174119756E+01  0.94359879046E+02  0.15267841780E+03  0.12000000000E+03 0.  0.
         25    1    1    2    0    0  0.24827752111E+00  0.26174119756E+01  0.99439573200E+02  0.15586898731E+03  0.12000000000E+03 0.  0.
<mgrwt>
<rscale>  0 0.24009014E+03</rscale>
<asrwt>0</asrwt>
<pdfrwt beam="1">  1        2 0.38642065E-01 0.24009014E+03</pdfrwt>
<pdfrwt beam="2">  1       -2 0.88267657E-02 0.24009014E+03</pdfrwt>
<totfact> 0.10557257E+04</totfact>
</mgrwt>
</event>
<event>
 4    1  0.1726503E-004  0.3162399E+03  0.7818608E-02  0.1077393E+00
         -1   -1    0    0    0  501 -0.00000000000E+00  0.00000000000E+00  0.51002931740E+02  0.51002931740E+02  0.00000000000E+00 0.  1.
          1   -1    0    0  501    0  0.00000000000E+00 -0.00000000000E+00 -0.49020540441E+03  0.49020540441E+03  0.00000000000E+00 0.  1.
         25    1    1    2    0    0  0.64683796824E+02  0.41695230436E+02 -0.10253161852E+03  0.17559959741E+03  0.12000000000E+03 0.  0.
         25    1    1    2    0    0 -0.64683796824E+02 -0.41695230436E+02 -0.33667085414E+03  0.36560873874E+03  0.12000000000E+03 0.  0.
<mgrwt>
<rscale>  0 0.31623986E+03</rscale>
<asrwt>0</asrwt>
<pdfrwt beam="1">  1        1 0.75416215E-01 0.31623986E+03</pdfrwt>
<pdfrwt beam="2">  1       -1 0.78466050E-02 0.31623986E+03</pdfrwt>
<totfact> 0.41150550E+03</totfact>
</mgrwt>
</event>
<event>
 4    1  0.1726503E-004  0.2485480E+03  0.7818608E-02  0.1114226E+00
         -2   -1    0    0    0  501 -0.00000000000E+00  0.00000000000E+00  0.26248209245E+02  0.26248209245E+02  0.00000000000E+00 0.  1.
          2   -1    0    0  501    0  0.00000000000E+00 -0.00000000000E+00 -0.58838421256E+03  0.58838421256E+03  0.00000000000E+00 0.  1.
         25    1    1    2    0    0 -0.26830033346E+02 -0.14875838883E+02 -0.30615178801E+03  0.33025756399E+03  0.12000000000E+03 0.  0.
         25    1    1    2    0    0  0.26830033346E+02  0.14875838883E+02 -0.25598421531E+03  0.28437485782E+03  0.12000000000E+03 0.  0.
<mgrwt>
<rscale>  0 0.24854804E+03</rscale>
<asrwt>0</asrwt>
<pdfrwt beam="1">  1        2 0.90520648E-01 0.24854804E+03</pdfrwt>
<pdfrwt beam="2">  1       -2 0.40381860E-02 0.24854804E+03</pdfrwt>
<totfact> 0.13833037E+04</totfact>
</mgrwt>
</event>
<event>
 4    1  0.1726503E-004  0.2858912E+03  0.7818608E-02  0.1092514E+00
          4   -1    0    0  501    0  0.00000000000E+00  0.00000000000E+00  0.14130111247E+03  0.14130111247E+03  0.00000000000E+00 0.  1.
         -4   -1    0    0    0  501 -0.00000000000E+00 -0.00000000000E+00 -0.14460922228E+03  0.14460922228E+03  0.00000000000E+00 0.  1.
         25    1    1    2    0    0  0.51563344203E+02  0.57782833852E+02  0.43304603442E+01  0.14288592387E+03  0.12000000000E+03 0.  0.
         25    1    1    2    0    0 -0.51563344203E+02 -0.57782833852E+02 -0.76385701541E+01  0.14302441088E+03  0.12000000000E+03 0.  0.
<mgrwt>
<rscale>  0 0.28589120E+03</rscale>
<asrwt>0</asrwt>
<pdfrwt beam="1">  1        4 0.21738633E-01 0.28589120E+03</pdfrwt>
<pdfrwt beam="2">  1       -4 0.22247573E-01 0.28589120E+03</pdfrwt>
<totfact> 0.67891832E+02</totfact>
</mgrwt>
</event>
<event>
 4    1  0.1726503E-004  0.2755769E+03  0.7818608E-02  0.1098130E+00
         -2   -1    0    0    0  501 -0.00000000000E+00  0.00000000000E+00  0.27666954118E+02  0.27666954118E+02  0.00000000000E+00 0. -1.
          2   -1    0    0  501    0  0.00000000000E+00 -0.00000000000E+00 -0.68622134860E+03  0.68622134860E+03  0.00000000000E+00 0. -1.
         25    1    1    2    0    0 -0.17316598285E+02 -0.44591919422E+02 -0.20511164266E+03  0.24240274299E+03  0.12000000000E+03 0.  0.
         25    1    1    2    0    0  0.17316598285E+02  0.44591919422E+02 -0.45344275182E+03  0.47148555973E+03  0.12000000000E+03 0.  0.
<mgrwt>
<rscale>  0 0.27557688E+03</rscale>
<asrwt>0</asrwt>
<pdfrwt beam="1">  1        2 0.10557251E+00 0.27557688E+03</pdfrwt>
<pdfrwt beam="2">  1       -2 0.42564549E-02 0.27557688E+03</pdfrwt>
<totfact> 0.10707474E+04</totfact>
</mgrwt>
</event>
<event>
 4    1  0.1726503E-004  0.2854481E+03  0.7818608E-02  0.1092750E+00
         -2   -1    0    0    0  501 -0.00000000000E+00  0.00000000000E+00  0.92168153713E+01  0.92168153713E+01  0.00000000000E+00 0.  1.
          2   -1    0    0  501    0  0.00000000000E+00 -0.00000000000E+00 -0.22101083160E+04  0.22101083160E+04  0.00000000000E+00 0.  1.
         25    1    1    2    0    0 -0.71127292290E+01  0.16788357717E+02 -0.16842207334E+04  0.16885887358E+04  0.12000000000E+03 0.  0.
         25    1    1    2    0    0  0.71127292290E+01 -0.16788357717E+02 -0.51667076728E+03  0.53073639562E+03  0.12000000000E+03 0.  0.
<mgrwt>
<rscale>  0 0.28544814E+03</rscale>
<asrwt>0</asrwt>
<pdfrwt beam="1">  1        2 0.34001690E+00 0.28544814E+03</pdfrwt>
<pdfrwt beam="2">  1       -2 0.14179706E-02 0.28544814E+03</pdfrwt>
<totfact> 0.73687839E+03</totfact>
</mgrwt>
</event>
<event>
 4    1  0.1726503E-004  0.3117020E+03  0.7818608E-02  0.1079533E+00
          1   -1    0    0  501    0  0.00000000000E+00  0.00000000000E+00  0.92323035248E+03  0.92323035248E+03  0.00000000000E+00 0.  1.
         -1   -1    0    0    0  501 -0.00000000000E+00 -0.00000000000E+00 -0.26309286698E+02  0.26309286698E+02  0.00000000000E+00 0.  1.
         25    1    1    2    0    0 -0.96380390330E+02 -0.98957737982E+01  0.38017800271E+03  0.41027115390E+03  0.12000000000E+03 0.  0.
         25    1    1    2    0    0  0.96380390330E+02  0.98957737982E+01  0.51674306307E+03  0.53926848528E+03  0.12000000000E+03 0.  0.
<mgrwt>
<rscale>  0 0.31170199E+03</rscale>
<asrwt>0</asrwt>
<pdfrwt beam="1">  1        1 0.14203541E+00 0.31170199E+03</pdfrwt>
<pdfrwt beam="2">  1       -1 0.40475833E-02 0.31170199E+03</pdfrwt>
<totfact> 0.44327979E+03</totfact>
</mgrwt>
</event>
<event>
 4    1  0.1726503E-004  0.2496566E+03  0.7818608E-02  0.1113522E+00
         -2   -1    0    0    0  501 -0.00000000000E+00  0.00000000000E+00  0.66018753534E+01  0.66018753534E+01  0.00000000000E+00 0. -1.
          2   -1    0    0  501    0  0.00000000000E+00 -0.00000000000E+00 -0.23602533965E+04  0.23602533965E+04  0.00000000000E+00 0. -1.
         25    1    1    2    0    0 -0.44731836239E+01 -0.33524124232E+02 -0.12354379557E+04  0.12417128568E+04  0.12000000000E+03 0.  0.
         25    1    1    2    0    0  0.44731836239E+01  0.33524124232E+02 -0.11182135654E+04  0.11251424151E+04  0.12000000000E+03 0.  0.
<mgrwt>
<rscale>  0 0.24965655E+03</rscale>
<asrwt>0</asrwt>
<pdfrwt beam="1">  1        2 0.36311574E+00 0.24965655E+03</pdfrwt>
<pdfrwt beam="2">  1       -2 0.10156736E-02 0.24965655E+03</pdfrwt>
<totfact> 0.99489656E+03</totfact>
</mgrwt>
</event>
<event>
 4    1  0.1726503E-004  0.3544735E+03  0.7818608E-02  0.1060794E+00
         -3   -1    0    0    0  501 -0.00000000000E+00  0.00000000000E+00  0.15988557543E+03  0.15988557543E+03  0.00000000000E+00 0. -1.
          3   -1    0    0  501    0  0.00000000000E+00 -0.00000000000E+00 -0.19647090981E+03  0.19647090981E+03  0.00000000000E+00 0. -1.
         25    1    1    2    0    0 -0.11640379746E+03 -0.17165250699E+02  0.38294657314E+02  0.17236870561E+03  0.12000000000E+03 0.  0.
         25    1    1    2    0    0  0.11640379746E+03  0.17165250699E+02 -0.74879991698E+02  0.18398777963E+03  0.12000000000E+03 0.  0.
<mgrwt>
<rscale>  0 0.35447349E+03</rscale>
<asrwt>0</asrwt>
<pdfrwt beam="1">  1        3 0.30226294E-01 0.35447349E+03</pdfrwt>
<pdfrwt beam="2">  1       -3 0.24597781E-01 0.35447349E+03</pdfrwt>
<totfact> 0.42479711E+02</totfact>
</mgrwt>
</event>
<event>
 4    1  0.1726503E-004  0.2464158E+03  0.7818608E-02  0.1115591E+00
         -2   -1    0    0    0  501 -0.00000000000E+00  0.00000000000E+00  0.10374197697E+02  0.10374197697E+02  0.00000000000E+00 0. -1.
          2   -1    0    0  501    0  0.00000000000E+00 -0.00000000000E+00 -0.14632633092E+04  0.14632633092E+04  0.00000000000E+00 0. -1.
         25    1    1    2    0    0 -0.21899069362E+02  0.17129883764E+02 -0.71041928270E+03  0.72101911167E+03  0.12000000000E+03 0.  0.
         25    1    1    2    0    0  0.21899069362E+02 -0.17129883764E+02 -0.74246982883E+03  0.75261839526E+03  0.12000000000E+03 0.  0.
<mgrwt>
<rscale>  0 0.24641577E+03</rscale>
<asrwt>0</asrwt>
<pdfrwt beam="1">  1        2 0.22511753E+00 0.24641577E+03</pdfrwt>
<pdfrwt beam="2">  1       -2 0.15960297E-02 0.24641577E+03</pdfrwt>
<totfact> 0.15319106E+04</totfact>
</mgrwt>
</event>
<event>
 4    1  0.1726503E-004  0.2622216E+03  0.7818608E-02  0.1105816E+00
          1   -1    0    0  501    0  0.00000000000E+00  0.00000000000E+00  0.84115885858E+02  0.84115885858E+02  0.00000000000E+00 0.  1.
         -1   -1    0    0    0  501 -0.00000000000E+00 -0.00000000000E+00 -0.20436147382E+03  0.20436147382E+03  0.00000000000E+00 0.  1.
         25    1    1    2    0    0  0.40053268861E+02 -0.33327480653E+02 -0.69654061423E+02  0.14821158384E+03  0.12000000000E+03 0.  0.
         25    1    1    2    0    0 -0.40053268861E+02  0.33327480653E+02 -0.50591526543E+02  0.14026577584E+03  0.12000000000E+03 0.  0.
<mgrwt>
<rscale>  0 0.26222163E+03</rscale>
<asrwt>0</asrwt>
<pdfrwt beam="1">  1        1 0.12940906E-01 0.26222163E+03</pdfrwt>
<pdfrwt beam="2">  1       -1 0.31440226E-01 0.26222163E+03</pdfrwt>
<totfact> 0.42403587E+03</totfact>
</mgrwt>
</event>
<event>
 4    1  0.1726503E-004  0.2969845E+03  0.7818608E-02  0.1086758E+00
          1   -1    0    0  501    0  0.00000000000E+00  0.00000000000E+00  0.54863769798E+02  0.54863769798E+02  0.00000000000E+00 0. -1.
         -1   -1    0    0    0  501 -0.00000000000E+00 -0.00000000000E+00 -0.40190365109E+03  0.40190365109E+03  0.00000000000E+00 0. -1.
         25    1    1    2    0    0  0.75053921666E+02  0.35943568002E+02 -0.21492999633E+03  0.25984598238E+03  0.12000000000E+03 0.  0.
         25    1    1    2    0    0 -0.75053921666E+02 -0.35943568002E+02 -0.13210988496E+03  0.19692143851E+03  0.12000000000E+03 0.  0.
<mgrwt>
<rscale>  0 0.29698451E+03</rscale>
<asrwt>0</asrwt>
<pdfrwt beam="1">  1        1 0.84405803E-02 0.29698451E+03</pdfrwt>
<pdfrwt beam="2">  1       -1 0.61831328E-01 0.29698451E+03</pdfrwt>
<totfact> 0.22147452E+03</totfact>
</mgrwt>
</event>
<event>
 4    1  0.1726503E-004  0.2483139E+03  0.7818608E-02  0.1114375E+00
         -1   -1    0    0    0  501 -0.00000000000E+00  0.00000000000E+00  0.61976103230E+02  0.61976103230E+02  0.00000000000E+00 0.  1.
          1   -1    0    0  501    0  0.00000000000E+00 -0.00000000000E+00 -0.24872414501E+03  0.24872414501E+03  0.00000000000E+00 0.  1.
         25    1    1    2    0    0  0.18849626069E+02 -0.24063030311E+02 -0.82139626749E+02  0.14859763159E+03  0.12000000000E+03 0.  0.
         25    1    1    2    0    0 -0.18849626069E+02  0.24063030311E+02 -0.10460841503E+03  0.16210261666E+03  0.12000000000E+03 0.  0.
<mgrwt>
<rscale>  0 0.24831394E+03</rscale>
<asrwt>0</asrwt>
<pdfrwt beam="1">  1        1 0.38265253E-01 0.24831394E+03</pdfrwt>
<pdfrwt beam="2">  1       -1 0.95347851E-02 0.24831394E+03</pdfrwt>
<totfact> 0.71984794E+03</totfact>
</mgrwt>
</event>
<event>
 4    1  0.1726503E-004  0.2587794E+03  0.7818608E-02  0.1107879E+00
          2   -1    0    0  501    0  0.00000000000E+00  0.00000000000E+00  0.23006718395E+03  0.23006718395E+03  0.00000000000E+00 0. -1.
         -2   -1    0    0    0  501 -0.00000000000E+00 -0.00000000000E+00 -0.72768732122E+02  0.72768732122E+02  0.00000000000E+00 0. -1.
         25    1    1    2    0    0  0.37895198325E+02 -0.18717003662E+02  0.51071957002E+02  0.13709382581E+03  0.12000000000E+03 0.  0.
         25    1    1    2    0    0 -0.37895198325E+02  0.18717003662E+02  0.10622649482E+03  0.16574209026E+03  0.12000000000E+03 0.  0.
<mgrwt>
<rscale>  0 0.25877942E+03</rscale>
<asrwt>0</asrwt>
<pdfrwt beam="1">  1        2 0.35394951E-01 0.25877942E+03</pdfrwt>
<pdfrwt beam="2">  1       -2 0.11195190E-01 0.25877942E+03</pdfrwt>
<totfact> 0.79891823E+03</totfact>
</mgrwt>
</event>
<event>
 4    1  0.1726503E-004  0.2689546E+03  0.7818608E-02  0.1101879E+00
          1   -1    0    0  501    0  0.00000000000E+00  0.00000000000E+00  0.45333927404E+03  0.45333927404E+03  0.00000000000E+00 0.  1.
         -1   -1    0    0    0  501 -0.00000000000E+00 -0.00000000000E+00 -0.39890980333E+02  0.39890980333E+02  0.00000000000E+00 0.  1.
         25    1    1    2    0    0 -0.18942693843E+02  0.57168826412E+02  0.19287287159E+03  0.23500435094E+03  0.12000000000E+03 0.  0.
         25    1    1    2    0    0  0.18942693843E+02 -0.57168826412E+02  0.22057542211E+03  0.25822590343E+03  0.12000000000E+03 0.  0.
<mgrwt>
<rscale>  0 0.26895463E+03</rscale>
<asrwt>0</asrwt>
<pdfrwt beam="1">  1        1 0.69744500E-01 0.26895463E+03</pdfrwt>
<pdfrwt beam="2">  1       -1 0.61370742E-02 0.26895463E+03</pdfrwt>
<totfact> 0.65993888E+03</totfact>
</mgrwt>
</event>
<event>
 4    1  0.1726503E-004  0.2754460E+03  0.7818608E-02  0.1098203E+00
         -1   -1    0    0    0  501 -0.00000000000E+00  0.00000000000E+00  0.91202923979E+03  0.91202923979E+03  0.00000000000E+00 0.  1.
          1   -1    0    0  501    0  0.00000000000E+00 -0.00000000000E+00 -0.20797161967E+02  0.20797161967E+02  0.00000000000E+00 0.  1.
         25    1    1    2    0    0  0.47985359929E+02 -0.24010355450E+02  0.30645472074E+03  0.33345702542E+03  0.12000000000E+03 0.  0.
         25    1    1    2    0    0 -0.47985359929E+02  0.24010355450E+02  0.58477735708E+03  0.59936937634E+03  0.12000000000E+03 0.  0.
<mgrwt>
<rscale>  0 0.27544596E+03</rscale>
<asrwt>0</asrwt>
<pdfrwt beam="1">  1        1 0.31995641E-02 0.27544596E+03</pdfrwt>
<pdfrwt beam="2">  1       -1 0.14031216E+00 0.27544596E+03</pdfrwt>
<totfact> 0.13986162E+03</totfact>
</mgrwt>
</event>
<event>
 4    1  0.1726503E-004  0.2871737E+03  0.7818608E-02  0.1091834E+00
          2   -1    0    0  501    0  0.00000000000E+00  0.00000000000E+00  0.12368236489E+04  0.12368236489E+04  0.00000000000E+00 0. -1.
         -2   -1    0    0    0  501 -0.00000000000E+00 -0.00000000000E+00 -0.16669466485E+02  0.16669466485E+02  0.00000000000E+00 0. -1.
         25    1    1    2    0    0  0.10890255792E+02 -0.43039648425E+02  0.32564638054E+03  0.34988079994E+03  0.12000000000E+03 0.  0.
         25    1    1    2    0    0 -0.10890255792E+02  0.43039648425E+02  0.89450780192E+03  0.90361231548E+03  0.12000000000E+03 0.  0.
<mgrwt>
<rscale>  0 0.28717375E+03</rscale>
<asrwt>0</asrwt>
<pdfrwt beam="1">  1        2 0.19028049E+00 0.28717375E+03</pdfrwt>
<pdfrwt beam="2">  1       -2 0.25645343E-02 0.28717375E+03</pdfrwt>
<totfact> 0.10190726E+04</totfact>
</mgrwt>
</event>
<event>
 4    1  0.1726503E-004  0.2518895E+03  0.7818608E-02  0.1112116E+00
          1   -1    0    0  501    0  0.00000000000E+00  0.00000000000E+00  0.13696913880E+04  0.13696913880E+04  0.00000000000E+00 0. -1.
         -1   -1    0    0    0  501 -0.00000000000E+00 -0.00000000000E+00 -0.11580769995E+02  0.11580769995E+02  0.00000000000E+00 0. -1.
         25    1    1    2    0    0 -0.63471999069E+01  0.25254243591E+02  0.83259899654E+03  0.84160510502E+03  0.12000000000E+03 0.  0.
         25    1    1    2    0    0  0.63471999069E+01 -0.25254243591E+02  0.52551162150E+03  0.53966705300E+03  0.12000000000E+03 0.  0.
<mgrwt>
<rscale>  0 0.25188951E+03</rscale>
<asrwt>0</asrwt>
<pdfrwt beam="1">  1        1 0.21072162E+00 0.25188951E+03</pdfrwt>
<pdfrwt beam="2">  1       -1 0.17816580E-02 0.25188951E+03</pdfrwt>
<totfact> 0.70892090E+03</totfact>
</mgrwt>
</event>
<event>
 4    1  0.1726503E-004  0.2711368E+03  0.7818608E-02  0.1100631E+00
          1   -1    0    0  501    0  0.00000000000E+00  0.00000000000E+00  0.97120074738E+02  0.97120074738E+02  0.00000000000E+00 0.  1.
         -1   -1    0    0    0  501 -0.00000000000E+00 -0.00000000000E+00 -0.18923784897E+03  0.18923784897E+03  0.00000000000E+00 0.  1.
         25    1    1    2    0    0  0.51167430598E+02  0.36886027271E+02 -0.46407690074E+02  0.14329116742E+03  0.12000000000E+03 0.  0.
         25    1    1    2    0    0 -0.51167430598E+02 -0.36886027271E+02 -0.45710084157E+02  0.14306675629E+03  0.12000000000E+03 0.  0.
<mgrwt>
<rscale>  0 0.27113682E+03</rscale>
<asrwt>0</asrwt>
<pdfrwt beam="1">  1        1 0.14941550E-01 0.27113682E+03</pdfrwt>
<pdfrwt beam="2">  1       -1 0.29113515E-01 0.27113682E+03</pdfrwt>
<totfact> 0.40035948E+03</totfact>
</mgrwt>
</event>
<event>
 4    1  0.1726503E-004  0.2951165E+03  0.7818608E-02  0.1087708E+00
         -2   -1    0    0    0  501 -0.00000000000E+00  0.00000000000E+00  0.94315775685E+03  0.94315775685E+03  0.00000000000E+00 0.  1.
          2   -1    0    0  501    0  0.00000000000E+00 -0.00000000000E+00 -0.23085677104E+02  0.23085677104E+02  0.00000000000E+00 0.  1.
         25    1    1    2    0    0  0.47392214103E+02  0.30705198584E+02  0.24823880917E+03  0.28144508799E+03  0.12000000000E+03 0.  0.
         25    1    1    2    0    0 -0.47392214103E+02 -0.30705198584E+02  0.67183327057E+03  0.68479834596E+03  0.12000000000E+03 0.  0.
<mgrwt>
<rscale>  0 0.29511649E+03</rscale>
<asrwt>0</asrwt>
<pdfrwt beam="1">  1        2 0.35516434E-02 0.29511649E+03</pdfrwt>
<pdfrwt beam="2">  1       -2 0.14510116E+00 0.29511649E+03</pdfrwt>
<totfact> 0.86186874E+02</totfact>
</mgrwt>
</event>
<event>
 4    1  0.1726503E-004  0.2475366E+03  0.7818608E-02  0.1114872E+00
          1   -1    0    0  501    0  0.00000000000E+00  0.00000000000E+00  0.29616106206E+04  0.29616106206E+04  0.00000000000E+00 0.  1.
         -1   -1    0    0    0  501 -0.00000000000E+00 -0.00000000000E+00 -0.51723839814E+01  0.51723839814E+01  0.00000000000E+00 0.  1.
         25    1    1    2    0    0 -0.93449796569E+01  0.26351523318E+02  0.16184288643E+04  0.16231123560E+04  0.12000000000E+03 0.  0.
         25    1    1    2    0    0  0.93449796569E+01 -0.26351523318E+02  0.13380093724E+04  0.13436706486E+04  0.12000000000E+03 0.  0.
<mgrwt>
<rscale>  0 0.24753656E+03</rscale>
<asrwt>0</asrwt>
<pdfrwt beam="1">  1        1 0.45563105E+00 0.24753656E+03</pdfrwt>
<pdfrwt beam="2">  1       -1 0.79575375E-03 0.24753656E+03</pdfrwt>
<totfact> 0.20192975E+03</totfact>
</mgrwt>
</event>
<event>
 4    1  0.1726503E-004  0.3268510E+03  0.7818608E-02  0.1072539E+00
         -2   -1    0    0    0  501 -0.00000000000E+00  0.00000000000E+00  0.11164269671E+02  0.11164269671E+02  0.00000000000E+00 0. -1.
          2   -1    0    0  501    0  0.00000000000E+00 -0.00000000000E+00 -0.23922657305E+04  0.23922657305E+04  0.00000000000E+00 0. -1.
         25    1    1    2    0    0  0.64891696153E+02 -0.48258996701E+02 -0.63208616438E+03  0.64843872662E+03  0.12000000000E+03 0.  0.
         25    1    1    2    0    0 -0.64891696153E+02  0.48258996701E+02 -0.17490152965E+04  0.17549912736E+04  0.12000000000E+03 0.  0.
<mgrwt>
<rscale>  0 0.32685103E+03</rscale>
<asrwt>0</asrwt>
<pdfrwt beam="1">  1        2 0.36804109E+00 0.32685103E+03</pdfrwt>
<pdfrwt beam="2">  1       -2 0.17175790E-02 0.32685103E+03</pdfrwt>
<totfact> 0.44327152E+03</totfact>
</mgrwt>
</event>
<event>
 4    1  0.1726503E-004  0.2576735E+03  0.7818608E-02  0.1108549E+00
          2   -1    0    0  501    0  0.00000000000E+00  0.00000000000E+00  0.10385083439E+04  0.10385083439E+04  0.00000000000E+00 0. -1.
         -2   -1    0    0    0  501 -0.00000000000E+00 -0.00000000000E+00 -0.15983409004E+02  0.15983409004E+02  0.00000000000E+00 0. -1.
         25    1    1    2    0    0  0.94833621966E+00  0.46076128645E+02  0.54670205097E+03  0.56161111235E+03  0.12000000000E+03 0.  0.
         25    1    1    2    0    0 -0.94833621966E+00 -0.46076128645E+02  0.47582288396E+03  0.49288064059E+03  0.12000000000E+03 0.  0.
<mgrwt>
<rscale>  0 0.25767346E+03</rscale>
<asrwt>0</asrwt>
<pdfrwt beam="1">  1        2 0.15977046E+00 0.25767346E+03</pdfrwt>
<pdfrwt beam="2">  1       -2 0.24589868E-02 0.25767346E+03</pdfrwt>
<totfact> 0.14089146E+04</totfact>
</mgrwt>
</event>
<event>
 4    1  0.1726503E-004  0.2557280E+03  0.7818608E-02  0.1109737E+00
         -1   -1    0    0    0  501 -0.00000000000E+00  0.00000000000E+00  0.57190261527E+03  0.57190261527E+03  0.00000000000E+00 0.  1.
          1   -1    0    0  501    0  0.00000000000E+00 -0.00000000000E+00 -0.28587392390E+02  0.28587392390E+02  0.00000000000E+00 0.  1.
         25    1    1    2    0    0  0.25991202362E+02  0.94985284428E+01  0.35243700107E+03  0.37333310109E+03  0.12000000000E+03 0.  0.
         25    1    1    2    0    0 -0.25991202362E+02 -0.94985284428E+01  0.19087822181E+03  0.22715690657E+03  0.12000000000E+03 0.  0.
<mgrwt>
<rscale>  0 0.25572802E+03</rscale>
<asrwt>0</asrwt>
<pdfrwt beam="1">  1        1 0.43980608E-02 0.25572802E+03</pdfrwt>
<pdfrwt beam="2">  1       -1 0.87985009E-01 0.25572802E+03</pdfrwt>
<totfact> 0.26440871E+03</totfact>
</mgrwt>
</event>
<event>
 4    1  0.1726503E-004  0.2495911E+03  0.7818608E-02  0.1113564E+00
         -2   -1    0    0    0  501 -0.00000000000E+00  0.00000000000E+00  0.15274780291E+02  0.15274780291E+02  0.00000000000E+00 0.  1.
          2   -1    0    0  501    0  0.00000000000E+00 -0.00000000000E+00 -0.10195844237E+04  0.10195844237E+04  0.00000000000E+00 0.  1.
         25    1    1    2    0    0 -0.30351201755E+02 -0.25299125313E+01 -0.56722960672E+03  0.58058334685E+03  0.12000000000E+03 0.  0.
         25    1    1    2    0    0  0.30351201755E+02  0.25299125313E+01 -0.43708003670E+03  0.45427585715E+03  0.12000000000E+03 0.  0.
<mgrwt>
<rscale>  0 0.24959109E+03</rscale>
<asrwt>0</asrwt>
<pdfrwt beam="1">  1        2 0.15685913E+00 0.24959109E+03</pdfrwt>
<pdfrwt beam="2">  1       -2 0.23499664E-02 0.24959109E+03</pdfrwt>
<totfact> 0.15446240E+04</totfact>
</mgrwt>
</event>
<event>
 4    1  0.1726503E-004  0.3185632E+03  0.7818608E-02  0.1076312E+00
          2   -1    0    0  501    0  0.00000000000E+00  0.00000000000E+00  0.28831566460E+04  0.28831566460E+04  0.00000000000E+00 0. -1.
         -2   -1    0    0    0  501 -0.00000000000E+00 -0.00000000000E+00 -0.87996009324E+01  0.87996009324E+01  0.00000000000E+00 0. -1.
         25    1    1    2    0    0  0.94130818531E+02  0.45544205864E+02  0.13829051374E+04  0.13920350228E+04  0.12000000000E+03 0.  0.
         25    1    1    2    0    0 -0.94130818531E+02 -0.45544205864E+02  0.14914519077E+04  0.14999212242E+04  0.12000000000E+03 0.  0.
<mgrwt>
<rscale>  0 0.31856320E+03</rscale>
<asrwt>0</asrwt>
<pdfrwt beam="1">  1        2 0.44356181E+00 0.31856320E+03</pdfrwt>
<pdfrwt beam="2">  1       -2 0.13537871E-02 0.31856320E+03</pdfrwt>
<totfact> 0.33333079E+03</totfact>
</mgrwt>
</event>
<event>
 4    1  0.1726503E-004  0.3800008E+03  0.7818608E-02  0.1050933E+00
          1   -1    0    0  501    0  0.00000000000E+00  0.00000000000E+00  0.17514117098E+02  0.17514117098E+02  0.00000000000E+00 0. -1.
         -1   -1    0    0    0  501 -0.00000000000E+00 -0.00000000000E+00 -0.20612034117E+04  0.20612034117E+04  0.00000000000E+00 0. -1.
         25    1    1    2    0    0  0.10134853661E+03  0.35206630868E+02 -0.15740230051E+04  0.15822324271E+04  0.12000000000E+03 0.  0.
         25    1    1    2    0    0 -0.10134853661E+03 -0.35206630868E+02 -0.46966628949E+03  0.49648510170E+03  0.12000000000E+03 0.  0.
<mgrwt>
<rscale>  0 0.38000083E+03</rscale>
<asrwt>0</asrwt>
<pdfrwt beam="1">  1        1 0.26944801E-02 0.38000083E+03</pdfrwt>
<pdfrwt beam="2">  1       -1 0.31710816E+00 0.38000083E+03</pdfrwt>
<totfact> 0.11829511E+02</totfact>
</mgrwt>
</event>
<event>
 4    1  0.1726503E-004  0.2649526E+03  0.7818608E-02  0.1104204E+00
          2   -1    0    0  501    0  0.00000000000E+00  0.00000000000E+00  0.29203410877E+04  0.29203410877E+04  0.00000000000E+00 0. -1.
         -2   -1    0    0    0  501 -0.00000000000E+00 -0.00000000000E+00 -0.60095620089E+01  0.60095620089E+01  0.00000000000E+00 0. -1.
         25    1    1    2    0    0 -0.22148251491E+02  0.49706145447E+02  0.16088962274E+04  0.16142826011E+04  0.12000000000E+03 0.  0.
         25    1    1    2    0    0  0.22148251491E+02 -0.49706145447E+02  0.13054352984E+04  0.13120680486E+04  0.12000000000E+03 0.  0.
<mgrwt>
<rscale>  0 0.26495261E+03</rscale>
<asrwt>0</asrwt>
<pdfrwt beam="1">  1        2 0.44928211E+00 0.26495261E+03</pdfrwt>
<pdfrwt beam="2">  1       -2 0.92455033E-03 0.26495261E+03</pdfrwt>
<totfact> 0.55491536E+03</totfact>
</mgrwt>
</event>
<event>
 4    1  0.1726503E-004  0.2910604E+03  0.7818608E-02  0.1089797E+00
          1   -1    0    0  501    0  0.00000000000E+00  0.00000000000E+00  0.23112457662E+03  0.23112457662E+03  0.00000000000E+00 0. -1.
         -1   -1    0    0    0  501 -0.00000000000E+00 -0.00000000000E+00 -0.91634725648E+02  0.91634725648E+02  0.00000000000E+00 0. -1.
         25    1    1    2    0    0  0.42552927328E+02 -0.54975818610E+02  0.20827799075E+02  0.14023868750E+03  0.12000000000E+03 0.  0.
         25    1    1    2    0    0 -0.42552927328E+02  0.54975818610E+02  0.11866205189E+03  0.18252061477E+03  0.12000000000E+03 0.  0.
<mgrwt>
<rscale>  0 0.29106039E+03</rscale>
<asrwt>0</asrwt>
<pdfrwt beam="1">  1        1 0.35557627E-01 0.29106039E+03</pdfrwt>
<pdfrwt beam="2">  1       -1 0.14097650E-01 0.29106039E+03</pdfrwt>
<totfact> 0.43137596E+03</totfact>
</mgrwt>
</event>
<event>
 4    1  0.1726503E-004  0.2857653E+03  0.7818608E-02  0.1092581E+00
         -1   -1    0    0    0  501 -0.00000000000E+00  0.00000000000E+00  0.30173878717E+02  0.30173878717E+02  0.00000000000E+00 0. -1.
          1   -1    0    0  501    0  0.00000000000E+00 -0.00000000000E+00 -0.67659334103E+03  0.67659334103E+03  0.00000000000E+00 0. -1.
         25    1    1    2    0    0 -0.28147774979E+02 -0.41528890377E+02 -0.17692200905E+03  0.21958675565E+03  0.12000000000E+03 0.  0.
         25    1    1    2    0    0  0.28147774979E+02  0.41528890377E+02 -0.46949745326E+03  0.48718046409E+03  0.12000000000E+03 0.  0.
<mgrwt>
<rscale>  0 0.28576526E+03</rscale>
<asrwt>0</asrwt>
<pdfrwt beam="1">  1        1 0.10409128E+00 0.28576526E+03</pdfrwt>
<pdfrwt beam="2">  1       -1 0.46421353E-02 0.28576526E+03</pdfrwt>
<totfact> 0.58215737E+03</totfact>
</mgrwt>
</event>
<event>
 4    1  0.1726503E-004  0.3053410E+03  0.7818608E-02  0.1082601E+00
          1   -1    0    0  501    0  0.00000000000E+00  0.00000000000E+00  0.47523688765E+03  0.47523688765E+03  0.00000000000E+00 0. -1.
         -1   -1    0    0    0  501 -0.00000000000E+00 -0.00000000000E+00 -0.49045621362E+02  0.49045621362E+02  0.00000000000E+00 0. -1.
         25    1    1    2    0    0 -0.68431837939E+02  0.64416420029E+02  0.22805426990E+03  0.27430118781E+03  0.12000000000E+03 0.  0.
         25    1    1    2    0    0  0.68431837939E+02 -0.64416420029E+02  0.19813699639E+03  0.24998132120E+03  0.12000000000E+03 0.  0.
<mgrwt>
<rscale>  0 0.30534105E+03</rscale>
<asrwt>0</asrwt>
<pdfrwt beam="1">  1        1 0.73113364E-01 0.30534105E+03</pdfrwt>
<pdfrwt beam="2">  1       -1 0.75454805E-02 0.30534105E+03</pdfrwt>
<totfact> 0.45488108E+03</totfact>
</mgrwt>
</event>
<event>
 4    1  0.1726503E-004  0.2740776E+03  0.7818608E-02  0.1098968E+00
         -1   -1    0    0    0  501 -0.00000000000E+00  0.00000000000E+00  0.18063857557E+02  0.18063857557E+02  0.00000000000E+00 0.  1.
          1   -1    0    0  501    0  0.00000000000E+00 -0.00000000000E+00 -0.10396250440E+04  0.10396250440E+04  0.00000000000E+00 0.  1.
         25    1    1    2    0    0 -0.60837732275E+02  0.73894733631E+00 -0.41030622167E+03  0.43180200468E+03  0.12000000000E+03 0.  0.
         25    1    1    2    0    0  0.60837732275E+02 -0.73894733631E+00 -0.61125496476E+03  0.62588689685E+03  0.12000000000E+03 0.  0.
<mgrwt>
<rscale>  0 0.27407764E+03</rscale>
<asrwt>0</asrwt>
<pdfrwt beam="1">  1        1 0.15994229E+00 0.27407764E+03</pdfrwt>
<pdfrwt beam="2">  1       -1 0.27790554E-02 0.27407764E+03</pdfrwt>
<totfact> 0.63058815E+03</totfact>
</mgrwt>
</event>
<event>
 4    1  0.1726503E-004  0.2746456E+03  0.7818608E-02  0.1098650E+00
         -3   -1    0    0    0  501 -0.00000000000E+00  0.00000000000E+00  0.11279874969E+03  0.11279874969E+03  0.00000000000E+00 0.  1.
          3   -1    0    0  501    0  0.00000000000E+00 -0.00000000000E+00 -0.16717877988E+03  0.16717877988E+03  0.00000000000E+00 0.  1.
         25    1    1    2    0    0  0.51252340456E+02 -0.38373152191E+02 -0.78949041252E+01  0.13624107575E+03  0.12000000000E+03 0.  0.
         25    1    1    2    0    0 -0.51252340456E+02  0.38373152191E+02 -0.46485126055E+02  0.14373645382E+03  0.12000000000E+03 0.  0.
<mgrwt>
<rscale>  0 0.27464564E+03</rscale>
<asrwt>0</asrwt>
<pdfrwt beam="1">  1        3 0.25719812E-01 0.27464564E+03</pdfrwt>
<pdfrwt beam="2">  1       -3 0.17353654E-01 0.27464564E+03</pdfrwt>
<totfact> 0.10454905E+03</totfact>
</mgrwt>
</event>
<event>
 4    1  0.1726503E-004  0.2911902E+03  0.7818608E-02  0.1089729E+00
          1   -1    0    0  501    0  0.00000000000E+00  0.00000000000E+00  0.52895282712E+03  0.52895282712E+03  0.00000000000E+00 0. -1.
         -1   -1    0    0    0  501 -0.00000000000E+00 -0.00000000000E+00 -0.40075284178E+02  0.40075284178E+02  0.00000000000E+00 0. -1.
         25    1    1    2    0    0  0.34580992688E+02 -0.74654788709E+02  0.23396040753E+03  0.27551162375E+03  0.12000000000E+03 0.  0.
         25    1    1    2    0    0 -0.34580992688E+02  0.74654788709E+02  0.25491713541E+03  0.29351648754E+03  0.12000000000E+03 0.  0.
<mgrwt>
<rscale>  0 0.29119021E+03</rscale>
<asrwt>0</asrwt>
<pdfrwt beam="1">  1        1 0.81377353E-01 0.29119021E+03</pdfrwt>
<pdfrwt beam="2">  1       -1 0.61654287E-02 0.29119021E+03</pdfrwt>
<totfact> 0.53546039E+03</totfact>
</mgrwt>
</event>
<event>
 4    1  0.1726503E-004  0.2584451E+03  0.7818608E-02  0.1108081E+00
          1   -1    0    0  501    0  0.00000000000E+00  0.00000000000E+00  0.19949772821E+04  0.19949772821E+04  0.00000000000E+00 0. -1.
         -1   -1    0    0    0  501 -0.00000000000E+00 -0.00000000000E+00 -0.83702553285E+01  0.83702553285E+01  0.00000000000E+00 0. -1.
         25    1    1    2    0    0  0.25352428071E+02  0.16151412578E+01  0.13084696117E+04  0.13142062544E+04  0.12000000000E+03 0.  0.
         25    1    1    2    0    0 -0.25352428071E+02 -0.16151412578E+01  0.67813741501E+03  0.68914128299E+03  0.12000000000E+03 0.  0.
<mgrwt>
<rscale>  0 0.25844511E+03</rscale>
<asrwt>0</asrwt>
<pdfrwt beam="1">  1        1 0.30691920E+00 0.25844511E+03</pdfrwt>
<pdfrwt beam="2">  1       -1 0.12877332E-02 0.25844511E+03</pdfrwt>
<totfact> 0.44287897E+03</totfact>
</mgrwt>
</event>
<event>
 4    1  0.1726503E-004  0.3623273E+03  0.7818608E-02  0.1057666E+00
         -2   -1    0    0    0  501 -0.00000000000E+00  0.00000000000E+00  0.53735410889E+02  0.53735410889E+02  0.00000000000E+00 0.  1.
          2   -1    0    0  501    0  0.00000000000E+00 -0.00000000000E+00 -0.61077533119E+03  0.61077533119E+03  0.00000000000E+00 0.  1.
         25    1    1    2    0    0 -0.66165624290E+02  0.53084379363E+02 -0.84215407472E+02  0.16937554731E+03  0.12000000000E+03 0.  0.
         25    1    1    2    0    0  0.66165624290E+02 -0.53084379363E+02 -0.47282451283E+03  0.49513519478E+03  0.12000000000E+03 0.  0.
<mgrwt>
<rscale>  0 0.36232727E+03</rscale>
<asrwt>0</asrwt>
<pdfrwt beam="1">  1        2 0.93965439E-01 0.36232727E+03</pdfrwt>
<pdfrwt beam="2">  1       -2 0.82669860E-02 0.36232727E+03</pdfrwt>
<totfact> 0.44570702E+03</totfact>
</mgrwt>
</event>
<event>
 4    1  0.1726503E-004  0.2603258E+03  0.7818608E-02  0.1106948E+00
          2   -1    0    0  501    0  0.00000000000E+00  0.00000000000E+00  0.18454821968E+02  0.18454821968E+02  0.00000000000E+00 0.  1.
         -2   -1    0    0    0  501 -0.00000000000E+00 -0.00000000000E+00 -0.91804626668E+03  0.91804626668E+03  0.00000000000E+00 0.  1.
         25    1    1    2    0    0 -0.26140192282E+02  0.18997022065E+02 -0.31055263605E+03  0.33449534565E+03  0.12000000000E+03 0.  0.
         25    1    1    2    0    0  0.26140192282E+02 -0.18997022065E+02 -0.58903880866E+03  0.60200574300E+03  0.12000000000E+03 0.  0.
<mgrwt>
<rscale>  0 0.26032580E+03</rscale>
<asrwt>0</asrwt>
<pdfrwt beam="1">  1        2 0.28392031E-02 0.26032580E+03</pdfrwt>
<pdfrwt beam="2">  1       -2 0.14123790E+00 0.26032580E+03</pdfrwt>
<totfact> 0.12479750E+03</totfact>
</mgrwt>
</event>
<event>
 4    1  0.1726503E-004  0.2812268E+03  0.7818608E-02  0.1095021E+00
         -4   -1    0    0    0  501 -0.00000000000E+00  0.00000000000E+00  0.29593061359E+03  0.29593061359E+03  0.00000000000E+00 0.  1.
          4   -1    0    0  501    0  0.00000000000E+00 -0.00000000000E+00 -0.66813400831E+02  0.66813400831E+02  0.00000000000E+00 0.  1.
         25    1    1    2    0    0  0.67200262213E+02 -0.25984667779E+02  0.13191445245E+03  0.19233434682E+03  0.12000000000E+03 0.  0.
         25    1    1    2    0    0 -0.67200262213E+02  0.25984667779E+02  0.97202760312E+02  0.17040966761E+03  0.12000000000E+03 0.  0.
<mgrwt>
<rscale>  0 0.28122682E+03</rscale>
<asrwt>0</asrwt>
<pdfrwt beam="1">  1        4 0.10278985E-01 0.28122682E+03</pdfrwt>
<pdfrwt beam="2">  1       -4 0.45527786E-01 0.28122682E+03</pdfrwt>
<totfact> 0.63911898E+02</totfact>
</mgrwt>
</event>
<event>
 4    1  0.1726503E-004  0.2564199E+03  0.7818608E-02  0.1109314E+00
          1   -1    0    0  501    0  0.00000000000E+00  0.00000000000E+00  0.16053116165E+03  0.16053116165E+03  0.00000000000E+00 0.  1.
         -1   -1    0    0    0  501 -0.00000000000E+00 -0.00000000000E+00 -0.10239624474E+03  0.10239624474E+03  0.00000000000E+00 0.  1.
         25    1    1    2    0    0 -0.75472077315E+01 -0.13748731502E+02  0.72471378779E+02  0.14106058523E+03  0.12000000000E+03 0.  0.
         25    1    1    2    0    0  0.75472077315E+01  0.13748731502E+02 -0.14336461862E+02  0.12186682117E+03  0.12000000000E+03 0.  0.
<mgrwt>
<rscale>  0 0.25641988E+03</rscale>
<asrwt>0</asrwt>
<pdfrwt beam="1">  1        1 0.24697102E-01 0.25641988E+03</pdfrwt>
<pdfrwt beam="2">  1       -1 0.15753269E-01 0.25641988E+03</pdfrwt>
<totfact> 0.57092376E+03</totfact>
</mgrwt>
</event>
<event>
 4    1  0.1726503E-004  0.2587887E+03  0.7818608E-02  0.1107873E+00
          2   -1    0    0  501    0  0.00000000000E+00  0.00000000000E+00  0.13331681987E+04  0.13331681987E+04  0.00000000000E+00 0. -1.
         -2   -1    0    0    0  501 -0.00000000000E+00 -0.00000000000E+00 -0.12558724086E+02  0.12558724086E+02  0.00000000000E+00 0. -1.
         25    1    1    2    0    0  0.41004812548E+02 -0.22833071217E+02  0.72186561692E+03  0.73327533211E+03  0.12000000000E+03 0.  0.
         25    1    1    2    0    0 -0.41004812548E+02  0.22833071217E+02  0.59874385771E+03  0.61245159069E+03  0.12000000000E+03 0.  0.
<mgrwt>
<rscale>  0 0.25878865E+03</rscale>
<asrwt>0</asrwt>
<pdfrwt beam="1">  1        2 0.20510269E+00 0.25878865E+03</pdfrwt>
<pdfrwt beam="2">  1       -2 0.19321125E-02 0.25878865E+03</pdfrwt>
<totfact> 0.13641780E+04</totfact>
</mgrwt>
</event>
<event>
 4    1  0.1726503E-004  0.2560392E+03  0.7818608E-02  0.1109547E+00
          2   -1    0    0  501    0  0.00000000000E+00  0.00000000000E+00  0.17621905596E+04  0.17621905596E+04  0.00000000000E+00 0. -1.
         -2   -1    0    0    0  501 -0.00000000000E+00 -0.00000000000E+00 -0.93003654680E+01  0.93003654680E+01  0.00000000000E+00 0. -1.
         25    1    1    2    0    0  0.18774897425E+01  0.63243965023E+01  0.57127121666E+03  0.58377592100E+03  0.12000000000E+03 0.  0.
         25    1    1    2    0    0 -0.18774897425E+01 -0.63243965023E+01  0.11816189775E+04  0.11877150041E+04  0.12000000000E+03 0.  0.
<mgrwt>
<rscale>  0 0.25603919E+03</rscale>
<asrwt>0</asrwt>
<pdfrwt beam="1">  1        2 0.27110597E+00 0.25603919E+03</pdfrwt>
<pdfrwt beam="2">  1       -2 0.14308269E-02 0.25603919E+03</pdfrwt>
<totfact> 0.12502556E+04</totfact>
</mgrwt>
</event>
<event>
 4    1  0.1726503E-004  0.3467767E+03  0.7818608E-02  0.1063946E+00
          2   -1    0    0  501    0  0.00000000000E+00  0.00000000000E+00  0.15209270126E+04  0.15209270126E+04  0.00000000000E+00 0.  1.
         -2   -1    0    0    0  501 -0.00000000000E+00 -0.00000000000E+00 -0.19766578970E+02  0.19766578970E+02  0.00000000000E+00 0.  1.
         25    1    1    2    0    0  0.10506949815E+03 -0.64161668666E+02  0.65052079539E+03  0.67285483160E+03  0.12000000000E+03 0.  0.
         25    1    1    2    0    0 -0.10506949815E+03  0.64161668666E+02  0.85063963824E+03  0.86783875997E+03  0.12000000000E+03 0.  0.
<mgrwt>
<rscale>  0 0.34677672E+03</rscale>
<asrwt>0</asrwt>
<pdfrwt beam="1">  1        2 0.23398868E+00 0.34677672E+03</pdfrwt>
<pdfrwt beam="2">  1       -2 0.30410133E-02 0.34677672E+03</pdfrwt>
<totfact> 0.55324475E+03</totfact>
</mgrwt>
</event>
<event>
 4    1  0.1726503E-004  0.2488389E+03  0.7818608E-02  0.1114041E+00
          3   -1    0    0  501    0  0.00000000000E+00  0.00000000000E+00  0.60952355488E+02  0.60952355488E+02  0.00000000000E+00 0. -1.
         -3   -1    0    0    0  501 -0.00000000000E+00 -0.00000000000E+00 -0.25397204792E+03  0.25397204792E+03  0.00000000000E+00 0. -1.
         25    1    1    2    0    0  0.26060011406E+02  0.63212090106E+01 -0.72460156581E+02  0.14272195406E+03  0.12000000000E+03 0.  0.
         25    1    1    2    0    0 -0.26060011406E+02 -0.63212090106E+01 -0.12055953585E+03  0.17220244935E+03  0.12000000000E+03 0.  0.
<mgrwt>
<rscale>  0 0.24883886E+03</rscale>
<asrwt>0</asrwt>
<pdfrwt beam="1">  1        3 0.93772854E-02 0.24883886E+03</pdfrwt>
<pdfrwt beam="2">  1       -3 0.39072623E-01 0.24883886E+03</pdfrwt>
<totfact> 0.13422683E+03</totfact>
</mgrwt>
</event>
<event>
 4    1  0.1726503E-004  0.4054787E+03  0.7818608E-02  0.1041899E+00
         -2   -1    0    0    0  501 -0.00000000000E+00  0.00000000000E+00  0.96531487498E+03  0.96531487498E+03  0.00000000000E+00 0. -1.
          2   -1    0    0  501    0  0.00000000000E+00 -0.00000000000E+00 -0.42580149692E+02  0.42580149692E+02  0.00000000000E+00 0. -1.
         25    1    1    2    0    0 -0.40661668980E+02 -0.15617228345E+03  0.39750403185E+03  0.44548020021E+03  0.12000000000E+03 0.  0.
         25    1    1    2    0    0  0.40661668980E+02  0.15617228345E+03  0.52523069344E+03  0.56241482446E+03  0.12000000000E+03 0.  0.
<mgrwt>
<rscale>  0 0.40547874E+03</rscale>
<asrwt>0</asrwt>
<pdfrwt beam="1">  1        2 0.65507930E-02 0.40547874E+03</pdfrwt>
<pdfrwt beam="2">  1       -2 0.14850996E+00 0.40547874E+03</pdfrwt>
<totfact> 0.35949810E+02</totfact>
</mgrwt>
</event>
<event>
 4    1  0.1726503E-004  0.3225170E+03  0.7818608E-02  0.1074497E+00
         -2   -1    0    0    0  501 -0.00000000000E+00  0.00000000000E+00  0.38100676071E+02  0.38100676071E+02  0.00000000000E+00 0. -1.
          2   -1    0    0  501    0  0.00000000000E+00 -0.00000000000E+00 -0.68251571388E+03  0.68251571388E+03  0.00000000000E+00 0. -1.
         25    1    1    2    0    0 -0.28356082212E+02 -0.71922766996E+02 -0.15459604069E+03  0.21042073949E+03  0.12000000000E+03 0.  0.
         25    1    1    2    0    0  0.28356082212E+02  0.71922766996E+02 -0.48981899712E+03  0.51019565046E+03  0.12000000000E+03 0.  0.
<mgrwt>
<rscale>  0 0.32251704E+03</rscale>
<asrwt>0</asrwt>
<pdfrwt beam="1">  1        2 0.10500243E+00 0.32251704E+03</pdfrwt>
<pdfrwt beam="2">  1       -2 0.58616419E-02 0.32251704E+03</pdfrwt>
<totfact> 0.66512410E+03</totfact>
</mgrwt>
</event>
<event>
 4    1  0.1726503E-004  0.3179534E+03  0.7818608E-02  0.1076595E+00
          4   -1    0    0  501    0  0.00000000000E+00  0.00000000000E+00  0.11356226148E+03  0.11356226148E+03  0.00000000000E+00 0.  1.
         -4   -1    0    0    0  501 -0.00000000000E+00 -0.00000000000E+00 -0.22255273863E+03  0.22255273863E+03  0.00000000000E+00 0.  1.
         25    1    1    2    0    0  0.37935260258E+01 -0.92014173762E+02 -0.10620337082E+03  0.18482466012E+03  0.12000000000E+03 0.  0.
         25    1    1    2    0    0 -0.37935260258E+01  0.92014173762E+02 -0.27871063237E+01  0.15129033999E+03  0.12000000000E+03 0.  0.
<mgrwt>
<rscale>  0 0.31795341E+03</rscale>
<asrwt>0</asrwt>
<pdfrwt beam="1">  1        4 0.17471117E-01 0.31795341E+03</pdfrwt>
<pdfrwt beam="2">  1       -4 0.34238883E-01 0.31795341E+03</pdfrwt>
<totfact> 0.45254239E+02</totfact>
</mgrwt>
</event>
<event>
 4    1  0.1726503E-004  0.2836899E+03  0.7818608E-02  0.1093690E+00
         -2   -1    0    0    0  501 -0.00000000000E+00  0.00000000000E+00  0.21074426011E+03  0.21074426011E+03  0.00000000000E+00 0. -1.
          2   -1    0    0  501    0  0.00000000000E+00 -0.00000000000E+00 -0.95471123116E+02  0.95471123116E+02  0.00000000000E+00 0. -1.
         25    1    1    2    0    0  0.58881846379E+02 -0.39453879641E+02  0.29153638272E+02  0.14238544545E+03  0.12000000000E+03 0.  0.
         25    1    1    2    0    0 -0.58881846379E+02  0.39453879641E+02  0.86119498726E+02  0.16382993778E+03  0.12000000000E+03 0.  0.
<mgrwt>
<rscale>  0 0.28368991E+03</rscale>
<asrwt>0</asrwt>
<pdfrwt beam="1">  1        2 0.14687865E-01 0.28368991E+03</pdfrwt>
<pdfrwt beam="2">  1       -2 0.32422194E-01 0.28368991E+03</pdfrwt>
<totfact> 0.35291547E+03</totfact>
</mgrwt>
</event>
<event>
 4    1  0.1726503E-004  0.3827091E+03  0.7818608E-02  0.1049937E+00
         -2   -1    0    0    0  501 -0.00000000000E+00  0.00000000000E+00  0.13553705434E+02  0.13553705434E+02  0.00000000000E+00 0. -1.
          2   -1    0    0  501    0  0.00000000000E+00 -0.00000000000E+00 -0.27015910425E+04  0.27015910425E+04  0.00000000000E+00 0. -1.
         25    1    1    2    0    0 -0.30641507624E+02  0.12141571427E+03 -0.19175756686E+04  0.19254031065E+04  0.12000000000E+03 0.  0.
         25    1    1    2    0    0  0.30641507624E+02 -0.12141571427E+03 -0.77046166848E+03  0.78974164146E+03  0.12000000000E+03 0.  0.
<mgrwt>
<rscale>  0 0.38270913E+03</rscale>
<asrwt>0</asrwt>
<pdfrwt beam="1">  1        2 0.41562940E+00 0.38270913E+03</pdfrwt>
<pdfrwt beam="2">  1       -2 0.20851854E-02 0.38270913E+03</pdfrwt>
<totfact> 0.22294671E+03</totfact>
</mgrwt>
</event>
<event>
 4    1  0.1726503E-004  0.3457008E+03  0.7818608E-02  0.1064394E+00
         -2   -1    0    0    0  501 -0.00000000000E+00  0.00000000000E+00  0.64834969446E+03  0.64834969446E+03  0.00000000000E+00 0.  1.
          2   -1    0    0  501    0  0.00000000000E+00 -0.00000000000E+00 -0.46082003624E+02  0.46082003624E+02  0.00000000000E+00 0.  1.
         25    1    1    2    0    0 -0.40443016621E+02  0.49316263981E+02  0.86566847992E+02  0.16112588451E+03  0.12000000000E+03 0.  0.
         25    1    1    2    0    0  0.40443016621E+02 -0.49316263981E+02  0.51570084284E+03  0.53330581358E+03  0.12000000000E+03 0.  0.
<mgrwt>
<rscale>  0 0.34570075E+03</rscale>
<asrwt>0</asrwt>
<pdfrwt beam="1">  1        2 0.70895395E-02 0.34570075E+03</pdfrwt>
<pdfrwt beam="2">  1       -2 0.99746100E-01 0.34570075E+03</pdfrwt>
<totfact> 0.86179243E+02</totfact>
</mgrwt>
</event>
<event>
 4    1  0.1726503E-004  0.3065006E+03  0.7818608E-02  0.1082035E+00
          2   -1    0    0  501    0  0.00000000000E+00  0.00000000000E+00  0.79660545188E+03  0.79660545188E+03  0.00000000000E+00 0. -1.
         -2   -1    0    0    0  501 -0.00000000000E+00 -0.00000000000E+00 -0.29482168431E+02  0.29482168431E+02  0.00000000000E+00 0. -1.
         25    1    1    2    0    0 -0.70690877548E+02  0.38371526494E+02  0.52141597968E+03  0.54105840542E+03  0.12000000000E+03 0.  0.
         25    1    1    2    0    0  0.70690877548E+02 -0.38371526494E+02  0.24570730377E+03  0.28502921489E+03  0.12000000000E+03 0.  0.
<mgrwt>
<rscale>  0 0.30650061E+03</rscale>
<asrwt>0</asrwt>
<pdfrwt beam="1">  1        2 0.12255467E+00 0.30650061E+03</pdfrwt>
<pdfrwt beam="2">  1       -2 0.45357188E-02 0.30650061E+03</pdfrwt>
<totfact> 0.81106863E+03</totfact>
</mgrwt>
</event>
<event>
 4    1  0.1726503E-004  0.2687969E+03  0.7818608E-02  0.1101970E+00
          2   -1    0    0  501    0  0.00000000000E+00  0.00000000000E+00  0.21117063993E+03  0.21117063993E+03  0.00000000000E+00 0. -1.
         -2   -1    0    0    0  501 -0.00000000000E+00 -0.00000000000E+00 -0.85537219273E+02  0.85537219273E+02  0.00000000000E+00 0. -1.
         25    1    1    2    0    0  0.25790155910E+02  0.37830719607E+01  0.25235361724E+01  0.12282431360E+03  0.12000000000E+03 0.  0.
         25    1    1    2    0    0 -0.25790155910E+02 -0.37830719607E+01  0.12310988448E+03  0.17388354561E+03  0.12000000000E+03 0.  0.
<mgrwt>
<rscale>  0 0.26879694E+03</rscale>
<asrwt>0</asrwt>
<pdfrwt beam="1">  1        2 0.32487791E-01 0.26879694E+03</pdfrwt>
<pdfrwt beam="2">  1       -2 0.13159572E-01 0.26879694E+03</pdfrwt>
<totfact> 0.67640133E+03</totfact>
</mgrwt>
</event>
<event>
 4    1  0.1726503E-004  0.2753311E+03  0.7818608E-02  0.1098267E+00
         -1   -1    0    0    0  501 -0.00000000000E+00  0.00000000000E+00  0.94931003253E+01  0.94931003253E+01  0.00000000000E+00 0.  1.
          1   -1    0    0  501    0  0.00000000000E+00 -0.00000000000E+00 -0.19963767240E+04  0.19963767240E+04  0.00000000000E+00 0.  1.
         25    1    1    2    0    0  0.93442348771E+01  0.37031731931E+02 -0.58826246666E+03  0.60159071933E+03  0.12000000000E+03 0.  0.
         25    1    1    2    0    0 -0.93442348771E+01 -0.37031731931E+02 -0.13986211570E+04  0.14042791050E+04  0.12000000000E+03 0.  0.
<mgrwt>
<rscale>  0 0.27533111E+03</rscale>
<asrwt>0</asrwt>
<pdfrwt beam="1">  1        1 0.30713500E+00 0.27533111E+03</pdfrwt>
<pdfrwt beam="2">  1       -1 0.14604764E-02 0.27533111E+03</pdfrwt>
<totfact> 0.36808236E+03</totfact>
</mgrwt>
</event>
<event>
 4    1  0.1726503E-004  0.2797167E+03  0.7818608E-02  0.1095844E+00
         -2   -1    0    0    0  501 -0.00000000000E+00  0.00000000000E+00  0.54649861572E+01  0.54649861572E+01  0.00000000000E+00 0.  1.
          2   -1    0    0  501    0  0.00000000000E+00 -0.00000000000E+00 -0.35792155220E+04  0.35792155220E+04  0.00000000000E+00 0.  1.
         25    1    1    2    0    0  0.66170572789E+02 -0.33571389402E+01 -0.14311359200E+04  0.14376855834E+04  0.12000000000E+03 0.  0.
         25    1    1    2    0    0 -0.66170572789E+02  0.33571389402E+01 -0.21426146158E+04  0.21469949248E+04  0.12000000000E+03 0.  0.
<mgrwt>
<rscale>  0 0.27971674E+03</rscale>
<asrwt>0</asrwt>
<pdfrwt beam="1">  1        2 0.55064736E+00 0.27971674E+03</pdfrwt>
<pdfrwt beam="2">  1       -2 0.84076891E-03 0.27971674E+03</pdfrwt>
<totfact> 0.24598457E+03</totfact>
</mgrwt>
</event>
<event>
 4    1  0.1726503E-004  0.2946301E+03  0.7818608E-02  0.1087956E+00
         -1   -1    0    0    0  501 -0.00000000000E+00  0.00000000000E+00  0.21808946893E+02  0.21808946893E+02  0.00000000000E+00 0. -1.
          1   -1    0    0  501    0  0.00000000000E+00 -0.00000000000E+00 -0.99508369228E+03  0.99508369228E+03  0.00000000000E+00 0. -1.
         25    1    1    2    0    0 -0.41100867420E+02  0.60053469812E+02 -0.33205273660E+03  0.36049233060E+03  0.12000000000E+03 0.  0.
         25    1    1    2    0    0  0.41100867420E+02 -0.60053469812E+02 -0.64122200879E+03  0.65640030857E+03  0.12000000000E+03 0.  0.
<mgrwt>
<rscale>  0 0.29463012E+03</rscale>
<asrwt>0</asrwt>
<pdfrwt beam="1">  1        1 0.15308977E+00 0.29463012E+03</pdfrwt>
<pdfrwt beam="2">  1       -1 0.33552231E-02 0.29463012E+03</pdfrwt>
<totfact> 0.51587387E+03</totfact>
</mgrwt>
</event>
<event>
 4    1  0.1726503E-004  0.2459221E+03  0.7818608E-02  0.1115909E+00
         -4   -1    0    0    0  501 -0.00000000000E+00  0.00000000000E+00  0.65573447917E+02  0.65573447917E+02  0.00000000000E+00 0.  1.
          4   -1    0    0  501    0  0.00000000000E+00 -0.00000000000E+00 -0.23057235085E+03  0.23057235085E+03  0.00000000000E+00 0.  1.
         25    1    1    2    0    0 -0.22303805677E+02 -0.10172656185E+02 -0.69391556029E+02  0.14076977918E+03  0.12000000000E+03 0.  0.
         25    1    1    2    0    0  0.22303805677E+02  0.10172656185E+02 -0.95607346907E+02  0.15537601959E+03  0.12000000000E+03 0.  0.
<mgrwt>
<rscale>  0 0.24592213E+03</rscale>
<asrwt>0</asrwt>
<pdfrwt beam="1">  1        4 0.35472669E-01 0.24592213E+03</pdfrwt>
<pdfrwt beam="2">  1       -4 0.10088223E-01 0.24592213E+03</pdfrwt>
<totfact> 0.10627833E+03</totfact>
</mgrwt>
</event>
<event>
 4    1  0.1726503E-004  0.3429854E+03  0.7818608E-02  0.1065531E+00
          2   -1    0    0  501    0  0.00000000000E+00  0.00000000000E+00  0.12411544568E+04  0.12411544568E+04  0.00000000000E+00 0. -1.
         -2   -1    0    0    0  501 -0.00000000000E+00 -0.00000000000E+00 -0.23695480332E+02  0.23695480332E+02  0.00000000000E+00 0. -1.
         25    1    1    2    0    0  0.51181425618E+02  0.65207591097E+02  0.27604921223E+03  0.31220944226E+03  0.12000000000E+03 0.  0.
         25    1    1    2    0    0 -0.51181425618E+02 -0.65207591097E+02  0.94140976428E+03  0.95264049491E+03  0.12000000000E+03 0.  0.
<mgrwt>
<rscale>  0 0.34298543E+03</rscale>
<asrwt>0</asrwt>
<pdfrwt beam="1">  1        2 0.19094679E+00 0.34298543E+03</pdfrwt>
<pdfrwt beam="2">  1       -2 0.36454595E-02 0.34298543E+03</pdfrwt>
<totfact> 0.60075465E+03</totfact>
</mgrwt>
</event>
<event>
 4    1  0.1726503E-004  0.2539575E+03  0.7818608E-02  0.1110829E+00
          1   -1    0    0  501    0  0.00000000000E+00  0.00000000000E+00  0.48463323609E+03  0.48463323609E+03  0.00000000000E+00 0.  1.
         -1   -1    0    0    0  501 -0.00000000000E+00 -0.00000000000E+00 -0.33269696943E+02  0.33269696943E+02  0.00000000000E+00 0.  1.
         25    1    1    2    0    0 -0.34528537260E+02  0.23017913959E+02  0.22822615075E+03  0.26116894941E+03  0.12000000000E+03 0.  0.
         25    1    1    2    0    0  0.34528537260E+02 -0.23017913959E+02  0.22313738840E+03  0.25673398363E+03  0.12000000000E+03 0.  0.
<mgrwt>
<rscale>  0 0.25395748E+03</rscale>
<asrwt>0</asrwt>
<pdfrwt beam="1">  1        1 0.74558955E-01 0.25395748E+03</pdfrwt>
<pdfrwt beam="2">  1       -1 0.51184152E-02 0.25395748E+03</pdfrwt>
<totfact> 0.79265431E+03</totfact>
</mgrwt>
</event>
<event>
 4    1  0.1726503E-004  0.3250983E+03  0.7818608E-02  0.1073327E+00
         -2   -1    0    0    0  501 -0.00000000000E+00  0.00000000000E+00  0.13528483935E+03  0.13528483935E+03  0.00000000000E+00 0.  1.
          2   -1    0    0  501    0  0.00000000000E+00 -0.00000000000E+00 -0.19530812569E+03  0.19530812569E+03  0.00000000000E+00 0.  1.
         25    1    1    2    0    0  0.43208860556E+02 -0.48815276944E+02 -0.11966229083E+03  0.18157367854E+03  0.12000000000E+03 0.  0.
         25    1    1    2    0    0 -0.43208860556E+02  0.48815276944E+02  0.59639004487E+02  0.14901928650E+03  0.12000000000E+03 0.  0.
<mgrwt>
<rscale>  0 0.32509831E+03</rscale>
<asrwt>0</asrwt>
<pdfrwt beam="1">  1        2 0.30047404E-01 0.32509831E+03</pdfrwt>
<pdfrwt beam="2">  1       -2 0.20813052E-01 0.32509831E+03</pdfrwt>
<totfact> 0.34391513E+03</totfact>
</mgrwt>
</event>
<event>
 4    1  0.1726503E-004  0.2583872E+03  0.7818608E-02  0.1108116E+00
          2   -1    0    0  501    0  0.00000000000E+00  0.00000000000E+00  0.12180649826E+04  0.12180649826E+04  0.00000000000E+00 0.  1.
         -2   -1    0    0    0  501 -0.00000000000E+00 -0.00000000000E+00 -0.13702867173E+02  0.13702867173E+02  0.00000000000E+00 0.  1.
         25    1    1    2    0    0 -0.41567663934E+02 -0.70822575708E+01  0.71014953094E+03  0.72145019603E+03  0.12000000000E+03 0.  0.
         25    1    1    2    0    0  0.41567663934E+02  0.70822575708E+01  0.49421258453E+03  0.51031765379E+03  0.12000000000E+03 0.  0.
<mgrwt>
<rscale>  0 0.25838717E+03</rscale>
<asrwt>0</asrwt>
<pdfrwt beam="1">  1        2 0.18739453E+00 0.25838717E+03</pdfrwt>
<pdfrwt beam="2">  1       -2 0.21081344E-02 0.25838717E+03</pdfrwt>
<totfact> 0.13905643E+04</totfact>
</mgrwt>
</event>
<event>
 4    1  0.1726503E-004  0.2586301E+03  0.7818608E-02  0.1107969E+00
         -2   -1    0    0    0  501 -0.00000000000E+00  0.00000000000E+00  0.17230044717E+02  0.17230044717E+02  0.00000000000E+00 0.  1.
          2   -1    0    0  501    0  0.00000000000E+00 -0.00000000000E+00 -0.97053593572E+03  0.97053593572E+03  0.00000000000E+00 0.  1.
         25    1    1    2    0    0 -0.35885630893E+02 -0.18543263366E+02 -0.57702998614E+03  0.59075818744E+03  0.12000000000E+03 0.  0.
         25    1    1    2    0    0  0.35885630893E+02  0.18543263366E+02 -0.37627590486E+03  0.39700779299E+03  0.12000000000E+03 0.  0.
<mgrwt>
<rscale>  0 0.25863006E+03</rscale>
<asrwt>0</asrwt>
<pdfrwt beam="1">  1        2 0.14931318E+00 0.25863006E+03</pdfrwt>
<pdfrwt beam="2">  1       -2 0.26507768E-02 0.25863006E+03</pdfrwt>
<totfact> 0.13873270E+04</totfact>
</mgrwt>
</event>
<event>
 4    1  0.1726503E-004  0.2488932E+03  0.7818608E-02  0.1114006E+00
          1   -1    0    0  501    0  0.00000000000E+00  0.00000000000E+00  0.45366265228E+03  0.45366265228E+03  0.00000000000E+00 0. -1.
         -1   -1    0    0    0  501 -0.00000000000E+00 -0.00000000000E+00 -0.34137605500E+02  0.34137605500E+02  0.00000000000E+00 0. -1.
         25    1    1    2    0    0 -0.18761833752E+02  0.24512480775E+02  0.18706780437E+03  0.22438188776E+03  0.12000000000E+03 0.  0.
         25    1    1    2    0    0  0.18761833752E+02 -0.24512480775E+02  0.23245724240E+03  0.26341837002E+03  0.12000000000E+03 0.  0.
<mgrwt>
<rscale>  0 0.24889320E+03</rscale>
<asrwt>0</asrwt>
<pdfrwt beam="1">  1        1 0.69794250E-01 0.24889320E+03</pdfrwt>
<pdfrwt beam="2">  1       -1 0.52519396E-02 0.24889320E+03</pdfrwt>
<totfact> 0.83091549E+03</totfact>
</mgrwt>
</event>
<event>
 4    1  0.1726503E-004  0.2802397E+03  0.7818608E-02  0.1095558E+00
         -2   -1    0    0    0  501 -0.00000000000E+00  0.00000000000E+00  0.20642510291E+02  0.20642510291E+02  0.00000000000E+00 0. -1.
          2   -1    0    0  501    0  0.00000000000E+00 -0.00000000000E+00 -0.95112353583E+03  0.95112353583E+03  0.00000000000E+00 0. -1.
         25    1    1    2    0    0 -0.57308093967E+02  0.74725745132E+01 -0.31434824112E+03  0.34140133816E+03  0.12000000000E+03 0.  0.
         25    1    1    2    0    0  0.57308093967E+02 -0.74725745132E+01 -0.61613278441E+03  0.63036470795E+03  0.12000000000E+03 0.  0.
<mgrwt>
<rscale>  0 0.28023974E+03</rscale>
<asrwt>0</asrwt>
<pdfrwt beam="1">  1        2 0.14632663E+00 0.28023974E+03</pdfrwt>
<pdfrwt beam="2">  1       -2 0.31757723E-02 0.28023974E+03</pdfrwt>
<totfact> 0.10936297E+04</totfact>
</mgrwt>
</event>
<event>
 4    1  0.1726503E-004  0.2965004E+03  0.7818608E-02  0.1087003E+00
          3   -1    0    0  501    0  0.00000000000E+00  0.00000000000E+00  0.18585656894E+03  0.18585656894E+03  0.00000000000E+00 0. -1.
         -3   -1    0    0    0  501 -0.00000000000E+00 -0.00000000000E+00 -0.11825316024E+03  0.11825316024E+03  0.00000000000E+00 0. -1.
         25    1    1    2    0    0 -0.38072084493E+02  0.39936058328E+02  0.10286288065E+03  0.16740712227E+03  0.12000000000E+03 0.  0.
         25    1    1    2    0    0  0.38072084493E+02 -0.39936058328E+02 -0.35259471952E+02  0.13670260691E+03  0.12000000000E+03 0.  0.
<mgrwt>
<rscale>  0 0.29650043E+03</rscale>
<asrwt>0</asrwt>
<pdfrwt beam="1">  1        3 0.28593318E-01 0.29650043E+03</pdfrwt>
<pdfrwt beam="2">  1       -3 0.18192794E-01 0.29650043E+03</pdfrwt>
<totfact> 0.79754966E+02</totfact>
</mgrwt>
</event>
<event>
 4    1  0.1726503E-004  0.2668062E+03  0.7818608E-02  0.1103122E+00
         -2   -1    0    0    0  501 -0.00000000000E+00  0.00000000000E+00  0.17712102046E+02  0.17712102046E+02  0.00000000000E+00 0. -1.
          2   -1    0    0  501    0  0.00000000000E+00 -0.00000000000E+00 -0.10047585499E+04  0.10047585499E+04  0.00000000000E+00 0. -1.
         25    1    1    2    0    0 -0.28796930652E+02 -0.50576654892E+02 -0.48194705083E+03  0.50006021741E+03  0.12000000000E+03 0.  0.
         25    1    1    2    0    0  0.28796930652E+02  0.50576654892E+02 -0.50509939704E+03  0.52241043454E+03  0.12000000000E+03 0.  0.
<mgrwt>
<rscale>  0 0.26680619E+03</rscale>
<asrwt>0</asrwt>
<pdfrwt beam="1">  1        2 0.15457829E+00 0.26680619E+03</pdfrwt>
<pdfrwt beam="2">  1       -2 0.27249378E-02 0.26680619E+03</pdfrwt>
<totfact> 0.12701496E+04</totfact>
</mgrwt>
</event>
<event>
 4    1  0.1726503E-004  0.2917072E+03  0.7818608E-02  0.1089461E+00
          2   -1    0    0  501    0  0.00000000000E+00  0.00000000000E+00  0.19042631214E+04  0.19042631214E+04  0.00000000000E+00 0. -1.
         -2   -1    0    0    0  501 -0.00000000000E+00 -0.00000000000E+00 -0.11171392979E+02  0.11171392979E+02  0.00000000000E+00 0. -1.
         25    1    1    2    0    0  0.63507249837E+02  0.48038353129E+02  0.79503410699E+03  0.80797282468E+03  0.12000000000E+03 0.  0.
         25    1    1    2    0    0 -0.63507249837E+02 -0.48038353129E+02  0.10980576214E+04  0.11074616897E+04  0.12000000000E+03 0.  0.
<mgrwt>
<rscale>  0 0.29170719E+03</rscale>
<asrwt>0</asrwt>
<pdfrwt beam="1">  1        2 0.29296330E+00 0.29170719E+03</pdfrwt>
<pdfrwt beam="2">  1       -2 0.17186774E-02 0.29170719E+03</pdfrwt>
<totfact> 0.80669519E+03</totfact>
</mgrwt>
</event>
<event>
 4    1  0.1726503E-004  0.2702874E+03  0.7818608E-02  0.1101115E+00
          2   -1    0    0  501    0  0.00000000000E+00  0.00000000000E+00  0.93562527336E+03  0.93562527336E+03  0.00000000000E+00 0. -1.
         -2   -1    0    0    0  501 -0.00000000000E+00 -0.00000000000E+00 -0.19520438356E+02  0.19520438356E+02  0.00000000000E+00 0. -1.
         25    1    1    2    0    0  0.59367570511E+01  0.53019675624E+02  0.57077417611E+03  0.58568719570E+03  0.12000000000E+03 0.  0.
         25    1    1    2    0    0 -0.59367570511E+01 -0.53019675624E+02  0.34533065890E+03  0.36945851602E+03  0.12000000000E+03 0.  0.
<mgrwt>
<rscale>  0 0.27028737E+03</rscale>
<asrwt>0</asrwt>
<pdfrwt beam="1">  1        2 0.14394231E+00 0.27028737E+03</pdfrwt>
<pdfrwt beam="2">  1       -2 0.30031451E-02 0.27028737E+03</pdfrwt>
<totfact> 0.12142029E+04</totfact>
</mgrwt>
</event>
<event>
 4    1  0.1726503E-004  0.3043654E+03  0.7818608E-02  0.1083079E+00
          1   -1    0    0  501    0  0.00000000000E+00  0.00000000000E+00  0.25350457111E+03  0.25350457111E+03  0.00000000000E+00 0. -1.
         -1   -1    0    0    0  501 -0.00000000000E+00 -0.00000000000E+00 -0.91357634942E+02  0.91357634942E+02  0.00000000000E+00 0. -1.
         25    1    1    2    0    0  0.73730943963E+02 -0.25647537935E+02  0.22575328684E+02  0.14492651160E+03  0.12000000000E+03 0.  0.
         25    1    1    2    0    0 -0.73730943963E+02  0.25647537935E+02  0.13957160749E+03  0.19993569445E+03  0.12000000000E+03 0.  0.
<mgrwt>
<rscale>  0 0.30436543E+03</rscale>
<asrwt>0</asrwt>
<pdfrwt beam="1">  1        1 0.39000703E-01 0.30436543E+03</pdfrwt>
<pdfrwt beam="2">  1       -1 0.14055021E-01 0.30436543E+03</pdfrwt>
<totfact> 0.38626433E+03</totfact>
</mgrwt>
</event>
<event>
 4    1  0.1726503E-004  0.2724329E+03  0.7818608E-02  0.1099895E+00
          2   -1    0    0  501    0  0.00000000000E+00  0.00000000000E+00  0.24996130566E+04  0.24996130566E+04  0.00000000000E+00 0.  1.
         -2   -1    0    0    0  501 -0.00000000000E+00 -0.00000000000E+00 -0.74231195743E+01  0.74231195743E+01  0.00000000000E+00 0.  1.
         25    1    1    2    0    0 -0.59616423337E+02  0.22671187336E+02  0.13318433114E+04  0.13387586439E+04  0.12000000000E+03 0.  0.
         25    1    1    2    0    0  0.59616423337E+02 -0.22671187336E+02  0.11603466256E+04  0.11682775322E+04  0.12000000000E+03 0.  0.
<mgrwt>
<rscale>  0 0.27243294E+03</rscale>
<asrwt>0</asrwt>
<pdfrwt beam="1">  1        2 0.38455518E+00 0.27243294E+03</pdfrwt>
<pdfrwt beam="2">  1       -2 0.11420204E-02 0.27243294E+03</pdfrwt>
<totfact> 0.70515248E+03</totfact>
</mgrwt>
</event>
<event>
 4    1  0.1726503E-004  0.2724658E+03  0.7818608E-02  0.1099877E+00
         -2   -1    0    0    0  501 -0.00000000000E+00  0.00000000000E+00  0.15210750369E+03  0.15210750369E+03  0.00000000000E+00 0. -1.
          2   -1    0    0  501    0  0.00000000000E+00 -0.00000000000E+00 -0.12201507473E+03  0.12201507473E+03  0.00000000000E+00 0. -1.
         25    1    1    2    0    0  0.49400976554E+02 -0.40333073009E+02  0.24706430171E+02  0.13812176134E+03  0.12000000000E+03 0.  0.
         25    1    1    2    0    0 -0.49400976554E+02  0.40333073009E+02  0.53859987919E+01  0.13600081708E+03  0.12000000000E+03 0.  0.
<mgrwt>
<rscale>  0 0.27246584E+03</rscale>
<asrwt>0</asrwt>
<pdfrwt beam="1">  1        2 0.18771550E-01 0.27246584E+03</pdfrwt>
<pdfrwt beam="2">  1       -2 0.23401154E-01 0.27246584E+03</pdfrwt>
<totfact> 0.47435906E+03</totfact>
</mgrwt>
</event>
<event>
 4    1  0.1726503E-004  0.2888196E+03  0.7818608E-02  0.1090967E+00
          2   -1    0    0  501    0  0.00000000000E+00  0.00000000000E+00  0.15849326386E+04  0.15849326386E+04  0.00000000000E+00 0.  1.
         -2   -1    0    0    0  501 -0.00000000000E+00 -0.00000000000E+00 -0.13157776145E+02  0.13157776145E+02  0.00000000000E+00 0.  1.
         25    1    1    2    0    0 -0.67408756975E+02 -0.39660353411E+02  0.68426586007E+03  0.69909702574E+03  0.12000000000E+03 0.  0.
         25    1    1    2    0    0  0.67408756975E+02  0.39660353411E+02  0.88750900235E+03  0.89899338897E+03  0.12000000000E+03 0.  0.
<mgrwt>
<rscale>  0 0.28881959E+03</rscale>
<asrwt>0</asrwt>
<pdfrwt beam="1">  1        2 0.24383564E+00 0.28881959E+03</pdfrwt>
<pdfrwt beam="2">  1       -2 0.20242745E-02 0.28881959E+03</pdfrwt>
<totfact> 0.93441723E+03</totfact>
</mgrwt>
</event>
<event>
 4    1  0.1726503E-004  0.2460718E+03  0.7818608E-02  0.1115813E+00
         -2   -1    0    0    0  501 -0.00000000000E+00  0.00000000000E+00  0.91098987655E+01  0.91098987655E+01  0.00000000000E+00 0. -1.
          2   -1    0    0  501    0  0.00000000000E+00 -0.00000000000E+00 -0.16616902171E+04  0.16616902171E+04  0.00000000000E+00 0. -1.
         25    1    1    2    0    0 -0.87617765173E+01  0.12691338306E+01 -0.65192741082E+03  0.66293870637E+03  0.12000000000E+03 0.  0.
         25    1    1    2    0    0  0.87617765173E+01 -0.12691338306E+01 -0.10006529076E+04  0.10078614095E+04  0.12000000000E+03 0.  0.
<mgrwt>
<rscale>  0 0.24607178E+03</rscale>
<asrwt>0</asrwt>
<pdfrwt beam="1">  1        2 0.25564472E+00 0.24607178E+03</pdfrwt>
<pdfrwt beam="2">  1       -2 0.14015225E-02 0.24607178E+03</pdfrwt>
<totfact> 0.14534349E+04</totfact>
</mgrwt>
</event>
<event>
 4    1  0.1726503E-004  0.2605632E+03  0.7818608E-02  0.1106805E+00
          1   -1    0    0  501    0  0.00000000000E+00  0.00000000000E+00  0.71960630604E+02  0.71960630604E+02  0.00000000000E+00 0.  1.
         -1   -1    0    0    0  501 -0.00000000000E+00 -0.00000000000E+00 -0.23586914448E+03  0.23586914448E+03  0.00000000000E+00 0.  1.
         25    1    1    2    0    0  0.33322590192E+02  0.13066635132E+02 -0.12442166917E+03  0.17652728891E+03  0.12000000000E+03 0.  0.
         25    1    1    2    0    0 -0.33322590192E+02 -0.13066635132E+02 -0.39486844706E+02  0.13130248617E+03  0.12000000000E+03 0.  0.
<mgrwt>
<rscale>  0 0.26056318E+03</rscale>
<asrwt>0</asrwt>
<pdfrwt beam="1">  1        1 0.11070866E-01 0.26056318E+03</pdfrwt>
<pdfrwt beam="2">  1       -1 0.36287560E-01 0.26056318E+03</pdfrwt>
<totfact> 0.40721424E+03</totfact>
</mgrwt>
</event>
<event>
 4    1  0.1726503E-004  0.2929951E+03  0.7818608E-02  0.1088796E+00
         -2   -1    0    0    0  501 -0.00000000000E+00  0.00000000000E+00  0.39618359220E+02  0.39618359220E+02  0.00000000000E+00 0.  1.
          2   -1    0    0  501    0  0.00000000000E+00 -0.00000000000E+00 -0.54170666806E+03  0.54170666806E+03  0.00000000000E+00 0.  1.
         25    1    1    2    0    0 -0.81571435381E+02  0.19725039102E+02 -0.25959024078E+03  0.29804373731E+03  0.12000000000E+03 0.  0.
         25    1    1    2    0    0  0.81571435381E+02 -0.19725039102E+02 -0.24249806806E+03  0.28328128998E+03  0.12000000000E+03 0.  0.
<mgrwt>
<rscale>  0 0.29299508E+03</rscale>
<asrwt>0</asrwt>
<pdfrwt beam="1">  1        2 0.83339478E-01 0.29299508E+03</pdfrwt>
<pdfrwt beam="2">  1       -2 0.60951329E-02 0.29299508E+03</pdfrwt>
<totfact> 0.81889560E+03</totfact>
</mgrwt>
</event>
<event>
 4    1  0.1726503E-004  0.2809972E+03  0.7818608E-02  0.1095146E+00
         -2   -1    0    0    0  501 -0.00000000000E+00  0.00000000000E+00  0.49375346084E+02  0.49375346084E+02  0.00000000000E+00 0.  1.
          2   -1    0    0  501    0  0.00000000000E+00 -0.00000000000E+00 -0.39979173896E+03  0.39979173896E+03  0.00000000000E+00 0.  1.
         25    1    1    2    0    0 -0.89148140705E+01  0.64396968396E+02 -0.12187054398E+03  0.18297232834E+03  0.12000000000E+03 0.  0.
         25    1    1    2    0    0  0.89148140705E+01 -0.64396968396E+02 -0.22854584889E+03  0.26619475670E+03  0.12000000000E+03 0.  0.
<mgrwt>
<rscale>  0 0.28099719E+03</rscale>
<asrwt>0</asrwt>
<pdfrwt beam="1">  1        2 0.61506424E-01 0.28099719E+03</pdfrwt>
<pdfrwt beam="2">  1       -2 0.75962068E-02 0.28099719E+03</pdfrwt>
<totfact> 0.81477573E+03</totfact>
</mgrwt>
</event>
<event>
 4    1  0.1726503E-004  0.2435758E+03  0.7818608E-02  0.1117433E+00
          1   -1    0    0  501    0  0.00000000000E+00  0.00000000000E+00  0.78419996460E+03  0.78419996460E+03  0.00000000000E+00 0.  1.
         -1   -1    0    0    0  501 -0.00000000000E+00 -0.00000000000E+00 -0.18913923906E+02  0.18913923906E+02  0.00000000000E+00 0.  1.
         25    1    1    2    0    0 -0.29403630456E+01 -0.14008617258E+02  0.43236506684E+03  0.44893700908E+03  0.12000000000E+03 0.  0.
         25    1    1    2    0    0  0.29403630456E+01  0.14008617258E+02  0.33292097385E+03  0.35417687943E+03  0.12000000000E+03 0.  0.
<mgrwt>
<rscale>  0 0.24357585E+03</rscale>
<asrwt>0</asrwt>
<pdfrwt beam="1">  1        1 0.12064612E+00 0.24357585E+03</pdfrwt>
<pdfrwt beam="2">  1       -1 0.29098351E-02 0.24357585E+03</pdfrwt>
<totfact> 0.93066881E+03</totfact>
</mgrwt>
</event>
<event>
 4    1  0.1726503E-004  0.2545777E+03  0.7818608E-02  0.1110446E+00
         -1   -1    0    0    0  501 -0.00000000000E+00  0.00000000000E+00  0.42191458712E+03  0.42191458712E+03  0.00000000000E+00 0. -1.
          1   -1    0    0  501    0  0.00000000000E+00 -0.00000000000E+00 -0.38402209107E+02  0.38402209107E+02  0.00000000000E+00 0. -1.
         25    1    1    2    0    0 -0.65600297254E+01 -0.41573657687E+02  0.18168080443E+03  0.22176410373E+03  0.12000000000E+03 0.  0.
         25    1    1    2    0    0  0.65600297254E+01  0.41573657687E+02  0.20183157358E+03  0.23855269250E+03  0.12000000000E+03 0.  0.
<mgrwt>
<rscale>  0 0.25457771E+03</rscale>
<asrwt>0</asrwt>
<pdfrwt beam="1">  1        1 0.59080325E-02 0.25457771E+03</pdfrwt>
<pdfrwt beam="2">  1       -1 0.64909933E-01 0.25457771E+03</pdfrwt>
<totfact> 0.32690564E+03</totfact>
</mgrwt>
</event>
<event>
 4    1  0.1726503E-004  0.3049819E+03  0.7818608E-02  0.1082776E+00
         -1   -1    0    0    0  501 -0.00000000000E+00  0.00000000000E+00  0.15260143032E+02  0.15260143032E+02  0.00000000000E+00 0. -1.
          1   -1    0    0  501    0  0.00000000000E+00 -0.00000000000E+00 -0.15238050684E+04  0.15238050684E+04  0.00000000000E+00 0. -1.
         25    1    1    2    0    0  0.36855234873E+02  0.65709574905E+02 -0.10387321897E+04  0.10483513812E+04  0.12000000000E+03 0.  0.
         25    1    1    2    0    0 -0.36855234873E+02 -0.65709574905E+02 -0.46981273563E+03  0.49071383018E+03  0.12000000000E+03 0.  0.
<mgrwt>
<rscale>  0 0.30498186E+03</rscale>
<asrwt>0</asrwt>
<pdfrwt beam="1">  1        1 0.23443155E+00 0.30498186E+03</pdfrwt>
<pdfrwt beam="2">  1       -1 0.23477143E-02 0.30498186E+03</pdfrwt>
<totfact> 0.37421616E+03</totfact>
</mgrwt>
</event>
<event>
 4    1  0.1726503E-004  0.2813635E+03  0.7818608E-02  0.1094947E+00
         -4   -1    0    0    0  501 -0.00000000000E+00  0.00000000000E+00  0.21031780696E+03  0.21031780696E+03  0.00000000000E+00 0.  1.
          4   -1    0    0  501    0  0.00000000000E+00 -0.00000000000E+00 -0.94102123464E+02  0.94102123464E+02  0.00000000000E+00 0.  1.
         25    1    1    2    0    0 -0.19718159804E+02  0.69850210176E+02  0.46084387708E+02  0.14761987833E+03  0.12000000000E+03 0.  0.
         25    1    1    2    0    0  0.19718159804E+02 -0.69850210176E+02  0.70131295787E+02  0.15680005209E+03  0.12000000000E+03 0.  0.
<mgrwt>
<rscale>  0 0.28136348E+03</rscale>
<asrwt>0</asrwt>
<pdfrwt beam="1">  1        4 0.14477250E-01 0.28136348E+03</pdfrwt>
<pdfrwt beam="2">  1       -4 0.32356586E-01 0.28136348E+03</pdfrwt>
<totfact> 0.69414906E+02</totfact>
</mgrwt>
</event>
<event>
 4    1  0.1726503E-004  0.3253591E+03  0.7818608E-02  0.1073209E+00
          2   -1    0    0  501    0  0.00000000000E+00  0.00000000000E+00  0.49704304919E+03  0.49704304919E+03  0.00000000000E+00 0. -1.
         -2   -1    0    0    0  501 -0.00000000000E+00 -0.00000000000E+00 -0.53244155620E+02  0.53244155620E+02  0.00000000000E+00 0. -1.
         25    1    1    2    0    0 -0.74333468401E+02 -0.80722074386E+02  0.21376707912E+03  0.26858496222E+03  0.12000000000E+03 0.  0.
         25    1    1    2    0    0  0.74333468401E+02  0.80722074386E+02  0.23003181445E+03  0.28170224258E+03  0.12000000000E+03 0.  0.
<mgrwt>
<rscale>  0 0.32535911E+03</rscale>
<asrwt>0</asrwt>
<pdfrwt beam="1">  1        2 0.76468158E-01 0.32535911E+03</pdfrwt>
<pdfrwt beam="2">  1       -2 0.81914089E-02 0.32535911E+03</pdfrwt>
<totfact> 0.57182418E+03</totfact>
</mgrwt>
</event>
<event>
 4    1  0.1726503E-004  0.4187121E+03  0.7818608E-02  0.1037486E+00
          1   -1    0    0  501    0  0.00000000000E+00  0.00000000000E+00  0.19674854709E+04  0.19674854709E+04  0.00000000000E+00 0.  1.
         -1   -1    0    0    0  501 -0.00000000000E+00 -0.00000000000E+00 -0.22277139315E+02  0.22277139315E+02  0.00000000000E+00 0.  1.
         25    1    1    2    0    0 -0.16754243085E+03  0.34662679750E+02  0.91287486316E+03  0.93648944644E+03  0.12000000000E+03 0.  0.
         25    1    1    2    0    0  0.16754243085E+03 -0.34662679750E+02  0.10323334685E+04  0.10532731638E+04  0.12000000000E+03 0.  0.
<mgrwt>
<rscale>  0 0.41871206E+03</rscale>
<asrwt>0</asrwt>
<pdfrwt beam="1">  1        1 0.30268994E+00 0.41871206E+03</pdfrwt>
<pdfrwt beam="2">  1       -1 0.34272538E-02 0.41871206E+03</pdfrwt>
<totfact> 0.10843123E+03</totfact>
</mgrwt>
</event>
<event>
 4    1  0.1726503E-004  0.2584733E+03  0.7818608E-02  0.1108064E+00
          1   -1    0    0  501    0  0.00000000000E+00  0.00000000000E+00  0.32766753086E+03  0.32766753086E+03  0.00000000000E+00 0.  1.
         -1   -1    0    0    0  501 -0.00000000000E+00 -0.00000000000E+00 -0.50972724553E+02  0.50972724553E+02  0.00000000000E+00 0.  1.
         25    1    1    2    0    0  0.98436530013E+01  0.35204699815E+02  0.18387381209E+03  0.22258896461E+03  0.12000000000E+03 0.  0.
         25    1    1    2    0    0 -0.98436530013E+01 -0.35204699815E+02  0.92820994215E+02  0.15605129080E+03  0.12000000000E+03 0.  0.
<mgrwt>
<rscale>  0 0.25847326E+03</rscale>
<asrwt>0</asrwt>
<pdfrwt beam="1">  1        1 0.50410388E-01 0.25847326E+03</pdfrwt>
<pdfrwt beam="2">  1       -1 0.78419578E-02 0.25847326E+03</pdfrwt>
<totfact> 0.68821218E+03</totfact>
</mgrwt>
</event>
<event>
 4    1  0.1726503E-004  0.3390218E+03  0.7818608E-02  0.1067213E+00
          1   -1    0    0  501    0  0.00000000000E+00  0.00000000000E+00  0.70019251724E+03  0.70019251724E+03  0.00000000000E+00 0.  1.
         -1   -1    0    0    0  501 -0.00000000000E+00 -0.00000000000E+00 -0.41037206645E+02  0.41037206645E+02  0.00000000000E+00 0.  1.
         25    1    1    2    0    0  0.44915680906E+02  0.58267287860E+02  0.12306678327E+03  0.18697039437E+03  0.12000000000E+03 0.  0.
         25    1    1    2    0    0 -0.44915680906E+02 -0.58267287860E+02  0.53608852733E+03  0.55425932952E+03  0.12000000000E+03 0.  0.
<mgrwt>
<rscale>  0 0.33902180E+03</rscale>
<asrwt>0</asrwt>
<pdfrwt beam="1">  1        1 0.10772192E+00 0.33902180E+03</pdfrwt>
<pdfrwt beam="2">  1       -1 0.63134169E-02 0.33902180E+03</pdfrwt>
<totfact> 0.34939419E+03</totfact>
</mgrwt>
</event>
<event>
 4    1  0.1726503E-004  0.2534971E+03  0.7818608E-02  0.1111114E+00
          1   -1    0    0  501    0  0.00000000000E+00  0.00000000000E+00  0.88022756680E+03  0.88022756680E+03  0.00000000000E+00 0. -1.
         -1   -1    0    0    0  501 -0.00000000000E+00 -0.00000000000E+00 -0.18251189517E+02  0.18251189517E+02  0.00000000000E+00 0. -1.
         25    1    1    2    0    0 -0.39847311656E+02  0.68809269655E+01  0.45041577978E+03  0.46787768709E+03  0.12000000000E+03 0.  0.
         25    1    1    2    0    0  0.39847311656E+02 -0.68809269655E+01  0.41156059750E+03  0.43060106923E+03  0.12000000000E+03 0.  0.
<mgrwt>
<rscale>  0 0.25349714E+03</rscale>
<asrwt>0</asrwt>
<pdfrwt beam="1">  1        1 0.13541959E+00 0.25349714E+03</pdfrwt>
<pdfrwt beam="2">  1       -1 0.28078760E-02 0.25349714E+03</pdfrwt>
<totfact> 0.81995823E+03</totfact>
</mgrwt>
</event>
<event>
 4    1  0.1726503E-004  0.2524487E+03  0.7818608E-02  0.1111767E+00
          1   -1    0    0  501    0  0.00000000000E+00  0.00000000000E+00  0.36763270209E+03  0.36763270209E+03  0.00000000000E+00 0. -1.
         -1   -1    0    0    0  501 -0.00000000000E+00 -0.00000000000E+00 -0.43338343128E+02  0.43338343128E+02  0.00000000000E+00 0. -1.
         25    1    1    2    0    0  0.13744027805E+02  0.78430682169E+00  0.10248642403E+03  0.15840764044E+03  0.12000000000E+03 0.  0.
         25    1    1    2    0    0 -0.13744027805E+02 -0.78430682169E+00  0.22180793493E+03  0.25256340478E+03  0.12000000000E+03 0.  0.
<mgrwt>
<rscale>  0 0.25244874E+03</rscale>
<asrwt>0</asrwt>
<pdfrwt beam="1">  1        1 0.56558875E-01 0.25244874E+03</pdfrwt>
<pdfrwt beam="2">  1       -1 0.66674376E-02 0.25244874E+03</pdfrwt>
<totfact> 0.76045574E+03</totfact>
</mgrwt>
</event>
<event>
 4    1  0.1726503E-004  0.2506206E+03  0.7818608E-02  0.1112913E+00
         -2   -1    0    0    0  501 -0.00000000000E+00  0.00000000000E+00  0.19644888762E+02  0.19644888762E+02  0.00000000000E+00 0.  1.
          2   -1    0    0  501    0  0.00000000000E+00 -0.00000000000E+00 -0.79932600068E+03  0.79932600068E+03  0.00000000000E+00 0.  1.
         25    1    1    2    0    0 -0.26512639026E+02  0.19702927574E+02 -0.43736894330E+03  0.45473367805E+03  0.12000000000E+03 0.  0.
         25    1    1    2    0    0  0.26512639026E+02 -0.19702927574E+02 -0.34231216861E+03  0.36423721139E+03  0.12000000000E+03 0.  0.
<mgrwt>
<rscale>  0 0.25062059E+03</rscale>
<asrwt>0</asrwt>
<pdfrwt beam="1">  1        2 0.12297321E+00 0.25062059E+03</pdfrwt>
<pdfrwt beam="2">  1       -2 0.30222912E-02 0.25062059E+03</pdfrwt>
<totfact> 0.14747783E+04</totfact>
</mgrwt>
</event>
<event>
 4    1  0.1726503E-004  0.3352407E+03  0.7818608E-02  0.1068841E+00
         -2   -1    0    0    0  501 -0.00000000000E+00  0.00000000000E+00  0.89365776931E+02  0.89365776931E+02  0.00000000000E+00 0.  1.
          2   -1    0    0  501    0  0.00000000000E+00 -0.00000000000E+00 -0.31439974995E+03  0.31439974995E+03  0.00000000000E+00 0.  1.
         25    1    1    2    0    0  0.19961052380E+02 -0.27200153577E+02 -0.24748713047E+03  0.27710678756E+03  0.12000000000E+03 0.  0.
         25    1    1    2    0    0 -0.19961052380E+02  0.27200153577E+02  0.22453157446E+02  0.12665873932E+03  0.12000000000E+03 0.  0.
<mgrwt>
<rscale>  0 0.33524068E+03</rscale>
<asrwt>0</asrwt>
<pdfrwt beam="1">  1        2 0.48369192E-01 0.33524068E+03</pdfrwt>
<pdfrwt beam="2">  1       -2 0.13748581E-01 0.33524068E+03</pdfrwt>
<totfact> 0.41180599E+03</totfact>
</mgrwt>
</event>
<event>
 4    1  0.1726503E-004  0.2570775E+03  0.7818608E-02  0.1108912E+00
          1   -1    0    0  501    0  0.00000000000E+00  0.00000000000E+00  0.21442871526E+04  0.21442871526E+04  0.00000000000E+00 0.  1.
         -1   -1    0    0    0  501 -0.00000000000E+00 -0.00000000000E+00 -0.77052224723E+01  0.77052224723E+01  0.00000000000E+00 0.  1.
         25    1    1    2    0    0  0.35730378429E+02  0.24545810712E+02  0.11987959118E+04  0.12055665867E+04  0.12000000000E+03 0.  0.
         25    1    1    2    0    0 -0.35730378429E+02 -0.24545810712E+02  0.93778601829E+03  0.94642578836E+03  0.12000000000E+03 0.  0.
<mgrwt>
<rscale>  0 0.25707749E+03</rscale>
<asrwt>0</asrwt>
<pdfrwt beam="1">  1        1 0.32988986E+00 0.25707749E+03</pdfrwt>
<pdfrwt beam="2">  1       -1 0.11854205E-02 0.25707749E+03</pdfrwt>
<totfact> 0.39945864E+03</totfact>
</mgrwt>
</event>
<event>
 4    1  0.1726503E-004  0.3511934E+03  0.7818608E-02  0.1062126E+00
         -2   -1    0    0    0  501 -0.00000000000E+00  0.00000000000E+00  0.10106881633E+03  0.10106881633E+03  0.00000000000E+00 0. -1.
          2   -1    0    0  501    0  0.00000000000E+00 -0.00000000000E+00 -0.30508120260E+03  0.30508120260E+03  0.00000000000E+00 0. -1.
         25    1    1    2    0    0  0.93269131087E+01 -0.10959850036E+03 -0.17815330290E+03  0.24132430861E+03  0.12000000000E+03 0.  0.
         25    1    1    2    0    0 -0.93269131087E+01  0.10959850036E+03 -0.25859083363E+02  0.16482571032E+03  0.12000000000E+03 0.  0.
<mgrwt>
<rscale>  0 0.35119337E+03</rscale>
<asrwt>0</asrwt>
<pdfrwt beam="1">  1        2 0.46935569E-01 0.35119337E+03</pdfrwt>
<pdfrwt beam="2">  1       -2 0.15549049E-01 0.35119337E+03</pdfrwt>
<totfact> 0.34732845E+03</totfact>
</mgrwt>
</event>
<event>
 4    1  0.1726503E-004  0.3411768E+03  0.7818608E-02  0.1066296E+00
         -2   -1    0    0    0  501 -0.00000000000E+00  0.00000000000E+00  0.43011778156E+02  0.43011778156E+02  0.00000000000E+00 0. -1.
          2   -1    0    0  501    0  0.00000000000E+00 -0.00000000000E+00 -0.67656814354E+03  0.67656814354E+03  0.00000000000E+00 0. -1.
         25    1    1    2    0    0 -0.11957773998E+03 -0.16853528391E+02 -0.33964250739E+03  0.37992092618E+03  0.12000000000E+03 0.  0.
         25    1    1    2    0    0  0.11957773998E+03  0.16853528391E+02 -0.29391385799E+03  0.33965899552E+03  0.12000000000E+03 0.  0.
<mgrwt>
<rscale>  0 0.34117678E+03</rscale>
<asrwt>0</asrwt>
<pdfrwt beam="1">  1        2 0.10408741E+00 0.34117678E+03</pdfrwt>
<pdfrwt beam="2">  1       -2 0.66171962E-02 0.34117678E+03</pdfrwt>
<totfact> 0.55808680E+03</totfact>
</mgrwt>
</event>
<event>
 4    1  0.1726503E-004  0.2841813E+03  0.7818608E-02  0.1093427E+00
          2   -1    0    0  501    0  0.00000000000E+00  0.00000000000E+00  0.12388517928E+04  0.12388517928E+04  0.00000000000E+00 0. -1.
         -2   -1    0    0    0  501 -0.00000000000E+00 -0.00000000000E+00 -0.16297155043E+02  0.16297155043E+02  0.00000000000E+00 0. -1.
         25    1    1    2    0    0  0.29043958247E+02 -0.21973896615E+02  0.31620364498E+03  0.34016341476E+03  0.12000000000E+03 0.  0.
         25    1    1    2    0    0 -0.29043958247E+02  0.21973896615E+02  0.90635099276E+03  0.91498553307E+03  0.12000000000E+03 0.  0.
<mgrwt>
<rscale>  0 0.28418135E+03</rscale>
<asrwt>0</asrwt>
<pdfrwt beam="1">  1        2 0.19059251E+00 0.28418135E+03</pdfrwt>
<pdfrwt beam="2">  1       -2 0.25072556E-02 0.28418135E+03</pdfrwt>
<totfact> 0.10507431E+04</totfact>
</mgrwt>
</event>
<event>
 4    1  0.1726503E-004  0.3152209E+03  0.7818608E-02  0.1077870E+00
         -2   -1    0    0    0  501 -0.00000000000E+00  0.00000000000E+00  0.17039389593E+02  0.17039389593E+02  0.00000000000E+00 0.  1.
          2   -1    0    0  501    0  0.00000000000E+00 -0.00000000000E+00 -0.14578606292E+04  0.14578606292E+04  0.00000000000E+00 0.  1.
         25    1    1    2    0    0 -0.65430746065E+02 -0.67805209501E+02 -0.53546952143E+03  0.55678212736E+03  0.12000000000E+03 0.  0.
         25    1    1    2    0    0  0.65430746065E+02  0.67805209501E+02 -0.90535171819E+03  0.91811789145E+03  0.12000000000E+03 0.  0.
<mgrwt>
<rscale>  0 0.31522091E+03</rscale>
<asrwt>0</asrwt>
<pdfrwt beam="1">  1        2 0.22428621E+00 0.31522091E+03</pdfrwt>
<pdfrwt beam="2">  1       -2 0.26214450E-02 0.31522091E+03</pdfrwt>
<totfact> 0.74634693E+03</totfact>
</mgrwt>
</event>
<event>
 4    1  0.1726503E-004  0.2772283E+03  0.7818608E-02  0.1097212E+00
         -2   -1    0    0    0  501 -0.00000000000E+00  0.00000000000E+00  0.70987684354E+01  0.70987684354E+01  0.00000000000E+00 0. -1.
          2   -1    0    0  501    0  0.00000000000E+00 -0.00000000000E+00 -0.27066509768E+04  0.27066509768E+04  0.00000000000E+00 0. -1.
         25    1    1    2    0    0 -0.35800149156E+02 -0.47433102805E+02 -0.99923937978E+03  0.10081720528E+04  0.12000000000E+03 0.  0.
         25    1    1    2    0    0  0.35800149156E+02  0.47433102805E+02 -0.17003128285E+04  0.17055776924E+04  0.12000000000E+03 0.  0.
<mgrwt>
<rscale>  0 0.27722834E+03</rscale>
<asrwt>0</asrwt>
<pdfrwt beam="1">  1        2 0.41640799E+00 0.27722834E+03</pdfrwt>
<pdfrwt beam="2">  1       -2 0.10921178E-02 0.27722834E+03</pdfrwt>
<totfact> 0.57732451E+03</totfact>
</mgrwt>
</event>
<event>
 4    1  0.1726503E-004  0.2631954E+03  0.7818608E-02  0.1105238E+00
          1   -1    0    0  501    0  0.00000000000E+00  0.00000000000E+00  0.53001604801E+03  0.53001604801E+03  0.00000000000E+00 0. -1.
         -1   -1    0    0    0  501 -0.00000000000E+00 -0.00000000000E+00 -0.32674388379E+02  0.32674388379E+02  0.00000000000E+00 0. -1.
         25    1    1    2    0    0 -0.97724584349E+00 -0.42002101235E+02  0.17608166529E+03  0.21718628955E+03  0.12000000000E+03 0.  0.
         25    1    1    2    0    0  0.97724584349E+00  0.42002101235E+02  0.32125999434E+03  0.34550414684E+03  0.12000000000E+03 0.  0.
<mgrwt>
<rscale>  0 0.26319537E+03</rscale>
<asrwt>0</asrwt>
<pdfrwt beam="1">  1        1 0.81540925E-01 0.26319537E+03</pdfrwt>
<pdfrwt beam="2">  1       -1 0.50268293E-02 0.26319537E+03</pdfrwt>
<totfact> 0.72387513E+03</totfact>
</mgrwt>
</event>
<event>
 4    1  0.1726503E-004  0.2895701E+03  0.7818608E-02  0.1090574E+00
         -2   -1    0    0    0  501 -0.00000000000E+00  0.00000000000E+00  0.29687920600E+03  0.29687920600E+03  0.00000000000E+00 0. -1.
          2   -1    0    0  501    0  0.00000000000E+00 -0.00000000000E+00 -0.70610217758E+02  0.70610217758E+02  0.00000000000E+00 0. -1.
         25    1    1    2    0    0  0.38474002086E+02 -0.12813132544E+02  0.20213609463E+03  0.23854438990E+03  0.12000000000E+03 0.  0.
         25    1    1    2    0    0 -0.38474002086E+02  0.12813132544E+02  0.24132893615E+02  0.12894503386E+03  0.12000000000E+03 0.  0.
<mgrwt>
<rscale>  0 0.28957006E+03</rscale>
<asrwt>0</asrwt>
<pdfrwt beam="1">  1        2 0.10863111E-01 0.28957006E+03</pdfrwt>
<pdfrwt beam="2">  1       -2 0.45673723E-01 0.28957006E+03</pdfrwt>
<totfact> 0.26544034E+03</totfact>
</mgrwt>
</event>
<event>
 4    1  0.1726503E-004  0.2534200E+03  0.7818608E-02  0.1111162E+00
         -1   -1    0    0    0  501 -0.00000000000E+00  0.00000000000E+00  0.25448539524E+03  0.25448539524E+03  0.00000000000E+00 0. -1.
          1   -1    0    0  501    0  0.00000000000E+00 -0.00000000000E+00 -0.63089759966E+02  0.63089759966E+02  0.00000000000E+00 0. -1.
         25    1    1    2    0    0  0.85037559730E+01 -0.39788297684E+02  0.95696020229E+02  0.15878649434E+03  0.12000000000E+03 0.  0.
         25    1    1    2    0    0 -0.85037559730E+01  0.39788297684E+02  0.95699615040E+02  0.15878866086E+03  0.12000000000E+03 0.  0.
<mgrwt>
<rscale>  0 0.25341999E+03</rscale>
<asrwt>0</asrwt>
<pdfrwt beam="1">  1        1 0.97061170E-02 0.25341999E+03</pdfrwt>
<pdfrwt beam="2">  1       -1 0.39151599E-01 0.25341999E+03</pdfrwt>
<totfact> 0.42465630E+03</totfact>
</mgrwt>
</event>
<event>
 4    1  0.1726503E-004  0.2727577E+03  0.7818608E-02  0.1099712E+00
          2   -1    0    0  501    0  0.00000000000E+00  0.00000000000E+00  0.46160618991E+02  0.46160618991E+02  0.00000000000E+00 0.  1.
         -2   -1    0    0    0  501 -0.00000000000E+00 -0.00000000000E+00 -0.40292319386E+03  0.40292319386E+03  0.00000000000E+00 0.  1.
         25    1    1    2    0    0 -0.10752066677E+02  0.62678195881E+02 -0.15788168079E+03  0.20825654445E+03  0.12000000000E+03 0.  0.
         25    1    1    2    0    0  0.10752066677E+02 -0.62678195881E+02 -0.19888089408E+03  0.24082726840E+03  0.12000000000E+03 0.  0.
<mgrwt>
<rscale>  0 0.27275765E+03</rscale>
<asrwt>0</asrwt>
<pdfrwt beam="1">  1        2 0.71016338E-02 0.27275765E+03</pdfrwt>
<pdfrwt beam="2">  1       -2 0.61988182E-01 0.27275765E+03</pdfrwt>
<totfact> 0.24413427E+03</totfact>
</mgrwt>
</event>
<event>
 4    1  0.1726503E-004  0.2464174E+03  0.7818608E-02  0.1115590E+00
          2   -1    0    0  501    0  0.00000000000E+00  0.00000000000E+00  0.17249080675E+04  0.17249080675E+04  0.00000000000E+00 0.  1.
         -2   -1    0    0    0  501 -0.00000000000E+00 -0.00000000000E+00 -0.88006924537E+01  0.88006924537E+01  0.00000000000E+00 0.  1.
         25    1    1    2    0    0  0.18117998946E+02 -0.80856443181E+01  0.71969144296E+03  0.72989685066E+03  0.12000000000E+03 0.  0.
         25    1    1    2    0    0 -0.18117998946E+02  0.80856443181E+01  0.99641593211E+03  0.10038119093E+04  0.12000000000E+03 0.  0.
<mgrwt>
<rscale>  0 0.24641741E+03</rscale>
<asrwt>0</asrwt>
<pdfrwt beam="1">  1        2 0.26537020E+00 0.24641741E+03</pdfrwt>
<pdfrwt beam="2">  1       -2 0.13539541E-02 0.24641741E+03</pdfrwt>
<totfact> 0.14160615E+04</totfact>
</mgrwt>
</event>
<event>
 4    1  0.1726503E-004  0.2722961E+03  0.7818608E-02  0.1099973E+00
         -4   -1    0    0    0  501 -0.00000000000E+00  0.00000000000E+00  0.59197976142E+03  0.59197976142E+03  0.00000000000E+00 0. -1.
          4   -1    0    0  501    0  0.00000000000E+00 -0.00000000000E+00 -0.31312376696E+02  0.31312376696E+02  0.00000000000E+00 0. -1.
         25    1    1    2    0    0 -0.62544605363E+02 -0.74020491240E+01  0.31015038808E+03  0.33846695735E+03  0.12000000000E+03 0.  0.
         25    1    1    2    0    0  0.62544605363E+02  0.74020491240E+01  0.25051699664E+03  0.28482518077E+03  0.12000000000E+03 0.  0.
<mgrwt>
<rscale>  0 0.27229611E+03</rscale>
<asrwt>0</asrwt>
<pdfrwt beam="1">  1        4 0.48172892E-02 0.27229611E+03</pdfrwt>
<pdfrwt beam="2">  1       -4 0.91073801E-01 0.27229611E+03</pdfrwt>
<totfact> 0.50284045E+02</totfact>
</mgrwt>
</event>
<event>
 4    1  0.1726503E-004  0.2851854E+03  0.7818608E-02  0.1092890E+00
          2   -1    0    0  501    0  0.00000000000E+00  0.00000000000E+00  0.16010705228E+04  0.16010705228E+04  0.00000000000E+00 0.  1.
         -2   -1    0    0    0  501 -0.00000000000E+00 -0.00000000000E+00 -0.12699427281E+02  0.12699427281E+02  0.00000000000E+00 0.  1.
         25    1    1    2    0    0  0.37839615157E+02  0.64508468207E+02  0.68992162847E+03  0.70426204809E+03  0.12000000000E+03 0.  0.
         25    1    1    2    0    0 -0.37839615157E+02 -0.64508468207E+02  0.89844946701E+03  0.90950790195E+03  0.12000000000E+03 0.  0.
<mgrwt>
<rscale>  0 0.28518540E+03</rscale>
<asrwt>0</asrwt>
<pdfrwt beam="1">  1        2 0.24631838E+00 0.28518540E+03</pdfrwt>
<pdfrwt beam="2">  1       -2 0.19537593E-02 0.28518540E+03</pdfrwt>
<totfact> 0.96508022E+03</totfact>
</mgrwt>
</event>
<event>
 4    1  0.1726503E-004  0.2740415E+03  0.7818608E-02  0.1098989E+00
          2   -1    0    0  501    0  0.00000000000E+00  0.00000000000E+00  0.12711750720E+04  0.12711750720E+04  0.00000000000E+00 0.  1.
         -2   -1    0    0    0  501 -0.00000000000E+00 -0.00000000000E+00 -0.14769554615E+02  0.14769554615E+02  0.00000000000E+00 0.  1.
         25    1    1    2    0    0  0.58986837870E+01 -0.62559471736E+01  0.32046668578E+03  0.34230516800E+03  0.12000000000E+03 0.  0.
         25    1    1    2    0    0 -0.58986837870E+01  0.62559471736E+01  0.93593883157E+03  0.94363945858E+03  0.12000000000E+03 0.  0.
<mgrwt>
<rscale>  0 0.27404153E+03</rscale>
<asrwt>0</asrwt>
<pdfrwt beam="1">  1        2 0.19556531E+00 0.27404153E+03</pdfrwt>
<pdfrwt beam="2">  1       -2 0.22722402E-02 0.27404153E+03</pdfrwt>
<totfact> 0.11646555E+04</totfact>
</mgrwt>
</event>
<event>
 4    1  0.1726503E-004  0.2680139E+03  0.7818608E-02  0.1102422E+00
          1   -1    0    0  501    0  0.00000000000E+00  0.00000000000E+00  0.14815642360E+04  0.14815642360E+04  0.00000000000E+00 0. -1.
         -1   -1    0    0    0  501 -0.00000000000E+00 -0.00000000000E+00 -0.12120883178E+02  0.12120883178E+02  0.00000000000E+00 0. -1.
         25    1    1    2    0    0  0.39129627573E+02 -0.38108771159E+02  0.86829874060E+03  0.87825173448E+03  0.12000000000E+03 0.  0.
         25    1    1    2    0    0 -0.39129627573E+02  0.38108771159E+02  0.60114461219E+03  0.61543338466E+03  0.12000000000E+03 0.  0.
<mgrwt>
<rscale>  0 0.26801393E+03</rscale>
<asrwt>0</asrwt>
<pdfrwt beam="1">  1        1 0.22793282E+00 0.26801393E+03</pdfrwt>
<pdfrwt beam="2">  1       -1 0.18647524E-02 0.26801393E+03</pdfrwt>
<totfact> 0.55898814E+03</totfact>
</mgrwt>
</event>
<event>
 4    1  0.1726503E-004  0.3387178E+03  0.7818608E-02  0.1067343E+00
         -1   -1    0    0    0  501 -0.00000000000E+00  0.00000000000E+00  0.40113049401E+02  0.40113049401E+02  0.00000000000E+00 0. -1.
          1   -1    0    0  501    0  0.00000000000E+00 -0.00000000000E+00 -0.71504025715E+03  0.71504025715E+03  0.00000000000E+00 0. -1.
         25    1    1    2    0    0 -0.45720242654E+02  0.10503719771E+03 -0.41337262722E+03  0.44542124155E+03  0.12000000000E+03 0.  0.
         25    1    1    2    0    0  0.45720242654E+02 -0.10503719771E+03 -0.26155458053E+03  0.30973206500E+03  0.12000000000E+03 0.  0.
<mgrwt>
<rscale>  0 0.33871785E+03</rscale>
<asrwt>0</asrwt>
<pdfrwt beam="1">  1        1 0.11000619E+00 0.33871785E+03</pdfrwt>
<pdfrwt beam="2">  1       -1 0.61712384E-02 0.33871785E+03</pdfrwt>
<totfact> 0.35065980E+03</totfact>
</mgrwt>
</event>
<event>
 4    1  0.1726503E-004  0.3730707E+03  0.7818608E-02  0.1053525E+00
         -4   -1    0    0    0  501 -0.00000000000E+00  0.00000000000E+00  0.16018375975E+03  0.16018375975E+03  0.00000000000E+00 0. -1.
          4   -1    0    0  501    0  0.00000000000E+00 -0.00000000000E+00 -0.21722198609E+03  0.21722198609E+03  0.00000000000E+00 0. -1.
         25    1    1    2    0    0 -0.49657238515E+02 -0.50643893696E+02  0.96876020474E+02  0.16975160868E+03  0.12000000000E+03 0.  0.
         25    1    1    2    0    0  0.49657238515E+02  0.50643893696E+02 -0.15391424681E+03  0.20765413716E+03  0.12000000000E+03 0.  0.
<mgrwt>
<rscale>  0 0.37307069E+03</rscale>
<asrwt>0</asrwt>
<pdfrwt beam="1">  1        4 0.33418767E-01 0.37307069E+03</pdfrwt>
<pdfrwt beam="2">  1       -4 0.24643656E-01 0.37307069E+03</pdfrwt>
<totfact> 0.25724174E+02</totfact>
</mgrwt>
</event>
<event>
 4    1  0.1726503E-004  0.5387368E+03  0.7818608E-02  0.1004135E+00
          2   -1    0    0  501    0  0.00000000000E+00  0.00000000000E+00  0.11610693974E+04  0.11610693974E+04  0.00000000000E+00 0.  1.
         -2   -1    0    0    0  501 -0.00000000000E+00 -0.00000000000E+00 -0.62493548009E+02  0.62493548009E+02  0.00000000000E+00 0.  1.
         25    1    1    2    0    0 -0.17590976462E+03  0.16222687628E+03  0.48124595189E+03  0.55068999527E+03  0.12000000000E+03 0.  0.
         25    1    1    2    0    0  0.17590976462E+03 -0.16222687628E+03  0.61732989749E+03  0.67287295012E+03  0.12000000000E+03 0.  0.
<mgrwt>
<rscale>  0 0.53873684E+03</rscale>
<asrwt>0</asrwt>
<pdfrwt beam="1">  1        2 0.17862605E+00 0.53873684E+03</pdfrwt>
<pdfrwt beam="2">  1       -2 0.96143928E-02 0.53873684E+03</pdfrwt>
<totfact> 0.14786823E+03</totfact>
</mgrwt>
</event>
<event>
 4    1  0.1726503E-004  0.2749161E+03  0.7818608E-02  0.1098499E+00
         -1   -1    0    0    0  501 -0.00000000000E+00  0.00000000000E+00  0.16228145560E+02  0.16228145560E+02  0.00000000000E+00 0.  1.
          1   -1    0    0  501    0  0.00000000000E+00 -0.00000000000E+00 -0.11643171825E+04  0.11643171825E+04  0.00000000000E+00 0.  1.
         25    1    1    2    0    0  0.14975374365E+02  0.50606198314E+02 -0.75159096619E+03  0.76293789367E+03  0.12000000000E+03 0.  0.
         25    1    1    2    0    0 -0.14975374365E+02 -0.50606198314E+02 -0.39649807073E+03  0.41760743436E+03  0.12000000000E+03 0.  0.
<mgrwt>
<rscale>  0 0.27491605E+03</rscale>
<asrwt>0</asrwt>
<pdfrwt beam="1">  1        1 0.17912572E+00 0.27491605E+03</pdfrwt>
<pdfrwt beam="2">  1       -1 0.24966377E-02 0.27491605E+03</pdfrwt>
<totfact> 0.60027987E+03</totfact>
</mgrwt>
</event>
<event>
 4    1  0.1726503E-004  0.2750679E+03  0.7818608E-02  0.1098414E+00
         -2   -1    0    0    0  501 -0.00000000000E+00  0.00000000000E+00  0.12382328269E+03  0.12382328269E+03  0.00000000000E+00 0. -1.
          2   -1    0    0  501    0  0.00000000000E+00 -0.00000000000E+00 -0.15276275195E+03  0.15276275195E+03  0.00000000000E+00 0. -1.
         25    1    1    2    0    0 -0.31988610865E+02 -0.58499504217E+02 -0.60496175944E+01  0.13741201218E+03  0.12000000000E+03 0.  0.
         25    1    1    2    0    0  0.31988610865E+02  0.58499504217E+02 -0.22889851662E+02  0.13917402246E+03  0.12000000000E+03 0.  0.
<mgrwt>
<rscale>  0 0.27506789E+03</rscale>
<asrwt>0</asrwt>
<pdfrwt beam="1">  1        2 0.23501962E-01 0.27506789E+03</pdfrwt>
<pdfrwt beam="2">  1       -2 0.19049736E-01 0.27506789E+03</pdfrwt>
<totfact> 0.52367698E+03</totfact>
</mgrwt>
</event>
<event>
 4    1  0.1726503E-004  0.2750505E+03  0.7818608E-02  0.1098423E+00
          1   -1    0    0  501    0  0.00000000000E+00  0.00000000000E+00  0.32540919718E+03  0.32540919718E+03  0.00000000000E+00 0. -1.
         -1   -1    0    0    0  501 -0.00000000000E+00 -0.00000000000E+00 -0.58121246582E+02  0.58121246582E+02  0.00000000000E+00 0. -1.
         25    1    1    2    0    0 -0.25555024939E+02  0.32011845558E+02  0.20789328047E+03  0.24351064375E+03  0.12000000000E+03 0.  0.
         25    1    1    2    0    0  0.25555024939E+02 -0.32011845558E+02  0.59394670129E+02  0.14001980001E+03  0.12000000000E+03 0.  0.
<mgrwt>
<rscale>  0 0.27505045E+03</rscale>
<asrwt>0</asrwt>
<pdfrwt beam="1">  1        1 0.50062952E-01 0.27505045E+03</pdfrwt>
<pdfrwt beam="2">  1       -1 0.89417304E-02 0.27505045E+03</pdfrwt>
<totfact> 0.56918802E+03</totfact>
</mgrwt>
</event>
<event>
 4    1  0.1726503E-004  0.2638376E+03  0.7818608E-02  0.1104859E+00
          1   -1    0    0  501    0  0.00000000000E+00  0.00000000000E+00  0.32494113273E+04  0.32494113273E+04  0.00000000000E+00 0.  1.
         -1   -1    0    0    0  501 -0.00000000000E+00 -0.00000000000E+00 -0.53556072550E+01  0.53556072550E+01  0.00000000000E+00 0.  1.
         25    1    1    2    0    0 -0.26862593577E+02  0.35423018941E+02  0.20172081917E+04  0.20212632876E+04  0.12000000000E+03 0.  0.
         25    1    1    2    0    0  0.26862593577E+02 -0.35423018941E+02  0.12268475284E+04  0.12335036470E+04  0.12000000000E+03 0.  0.
<mgrwt>
<rscale>  0 0.26383761E+03</rscale>
<asrwt>0</asrwt>
<pdfrwt beam="1">  1        1 0.49990786E+00 0.26383761E+03</pdfrwt>
<pdfrwt beam="2">  1       -1 0.82394217E-03 0.26383761E+03</pdfrwt>
<totfact> 0.11984554E+03</totfact>
</mgrwt>
</event>
<event>
 4    1  0.1726503E-004  0.2816825E+03  0.7818608E-02  0.1094774E+00
          2   -1    0    0  501    0  0.00000000000E+00  0.00000000000E+00  0.52632126443E+03  0.52632126443E+03  0.00000000000E+00 0.  1.
         -2   -1    0    0    0  501 -0.00000000000E+00 -0.00000000000E+00 -0.37688493963E+02  0.37688493963E+02  0.00000000000E+00 0.  1.
         25    1    1    2    0    0 -0.52714899954E+02 -0.10482113615E+02  0.34537785473E+03  0.36956000584E+03  0.12000000000E+03 0.  0.
         25    1    1    2    0    0  0.52714899954E+02  0.10482113615E+02  0.14325491574E+03  0.19444975255E+03  0.12000000000E+03 0.  0.
<mgrwt>
<rscale>  0 0.28168249E+03</rscale>
<asrwt>0</asrwt>
<pdfrwt beam="1">  1        2 0.80972497E-01 0.28168249E+03</pdfrwt>
<pdfrwt beam="2">  1       -2 0.57982302E-02 0.28168249E+03</pdfrwt>
<totfact> 0.91231954E+03</totfact>
</mgrwt>
</event>
<event>
 4    1  0.1726503E-004  0.3661491E+03  0.7818608E-02  0.1056175E+00
          1   -1    0    0  501    0  0.00000000000E+00  0.00000000000E+00  0.32651302971E+03  0.32651302971E+03  0.00000000000E+00 0. -1.
         -1   -1    0    0    0  501 -0.00000000000E+00 -0.00000000000E+00 -0.10264914774E+03  0.10264914774E+03  0.00000000000E+00 0. -1.
         25    1    1    2    0    0  0.28541365966E+02 -0.12687353697E+03  0.16696785319E+03  0.24328947357E+03  0.12000000000E+03 0.  0.
         25    1    1    2    0    0 -0.28541365966E+02  0.12687353697E+03  0.56896028786E+02  0.18587270387E+03  0.12000000000E+03 0.  0.
<mgrwt>
<rscale>  0 0.36614906E+03</rscale>
<asrwt>0</asrwt>
<pdfrwt beam="1">  1        1 0.50232773E-01 0.36614906E+03</pdfrwt>
<pdfrwt beam="2">  1       -1 0.15792177E-01 0.36614906E+03</pdfrwt>
<totfact> 0.23366087E+03</totfact>
</mgrwt>
</event>
<event>
 4    1  0.1726503E-004  0.3267117E+03  0.7818608E-02  0.1072601E+00
         -1   -1    0    0    0  501 -0.00000000000E+00  0.00000000000E+00  0.68870173017E+02  0.68870173017E+02  0.00000000000E+00 0.  1.
          1   -1    0    0  501    0  0.00000000000E+00 -0.00000000000E+00 -0.38747018652E+03  0.38747018652E+03  0.00000000000E+00 0.  1.
         25    1    1    2    0    0  0.78631745449E+02 -0.52519194493E+02 -0.78529613922E+02  0.17177926954E+03  0.12000000000E+03 0.  0.
         25    1    1    2    0    0 -0.78631745449E+02  0.52519194493E+02 -0.24007039959E+03  0.28456109000E+03  0.12000000000E+03 0.  0.
<mgrwt>
<rscale>  0 0.32671173E+03</rscale>
<asrwt>0</asrwt>
<pdfrwt beam="1">  1        1 0.59610797E-01 0.32671173E+03</pdfrwt>
<pdfrwt beam="2">  1       -1 0.10595411E-01 0.32671173E+03</pdfrwt>
<totfact> 0.35204030E+03</totfact>
</mgrwt>
</event>
<event>
 4    1  0.1726503E-004  0.2803921E+03  0.7818608E-02  0.1095475E+00
         -2   -1    0    0    0  501 -0.00000000000E+00  0.00000000000E+00  0.19032709170E+02  0.19032709170E+02  0.00000000000E+00 0. -1.
          2   -1    0    0  501    0  0.00000000000E+00 -0.00000000000E+00 -0.10326924124E+04  0.10326924124E+04  0.00000000000E+00 0. -1.
         25    1    1    2    0    0 -0.30855453754E+02 -0.65217991933E+02 -0.48044284495E+03  0.50043058735E+03  0.12000000000E+03 0.  0.
         25    1    1    2    0    0  0.30855453754E+02  0.65217991933E+02 -0.53321685825E+03  0.55129453419E+03  0.12000000000E+03 0.  0.
<mgrwt>
<rscale>  0 0.28039211E+03</rscale>
<asrwt>0</asrwt>
<pdfrwt beam="1">  1        2 0.15887574E+00 0.28039211E+03</pdfrwt>
<pdfrwt beam="2">  1       -2 0.29281093E-02 0.28039211E+03</pdfrwt>
<totfact> 0.10995055E+04</totfact>
</mgrwt>
</event>
<event>
 4    1  0.1726503E-004  0.2508097E+03  0.7818608E-02  0.1112794E+00
          3   -1    0    0  501    0  0.00000000000E+00  0.00000000000E+00  0.81020608274E+03  0.81020608274E+03  0.00000000000E+00 0.  1.
         -3   -1    0    0    0  501 -0.00000000000E+00 -0.00000000000E+00 -0.19410346961E+02  0.19410346961E+02  0.00000000000E+00 0.  1.
         25    1    1    2    0    0  0.33482103919E+00  0.34982744532E+02  0.42888249145E+03  0.44672597416E+03  0.12000000000E+03 0.  0.
         25    1    1    2    0    0 -0.33482103919E+00 -0.34982744532E+02  0.36191324433E+03  0.38289045554E+03  0.12000000000E+03 0.  0.
<mgrwt>
<rscale>  0 0.25080974E+03</rscale>
<asrwt>0</asrwt>
<pdfrwt beam="1">  1        3 0.12464706E+00 0.25080974E+03</pdfrwt>
<pdfrwt beam="2">  1       -3 0.29862079E-02 0.25080974E+03</pdfrwt>
<totfact> 0.69831967E+02</totfact>
</mgrwt>
</event>
<event>
 4    1  0.1726503E-004  0.3071078E+03  0.7818608E-02  0.1081740E+00
          2   -1    0    0  501    0  0.00000000000E+00  0.00000000000E+00  0.48741068769E+03  0.48741068769E+03  0.00000000000E+00 0.  1.
         -2   -1    0    0    0  501 -0.00000000000E+00 -0.00000000000E+00 -0.48375635640E+02  0.48375635640E+02  0.00000000000E+00 0.  1.
         25    1    1    2    0    0  0.72432264727E+02 -0.37882031217E+02  0.13233330151E+03  0.19645249795E+03  0.12000000000E+03 0.  0.
         25    1    1    2    0    0 -0.72432264727E+02  0.37882031217E+02  0.30670175054E+03  0.33933382538E+03  0.12000000000E+03 0.  0.
<mgrwt>
<rscale>  0 0.30710781E+03</rscale>
<asrwt>0</asrwt>
<pdfrwt beam="1">  1        2 0.74986256E-01 0.30710781E+03</pdfrwt>
<pdfrwt beam="2">  1       -2 0.74424058E-02 0.30710781E+03</pdfrwt>
<totfact> 0.67809818E+03</totfact>
</mgrwt>
</event>
<event>
 4    1  0.1726503E-004  0.3801148E+03  0.7818608E-02  0.1050891E+00
          1   -1    0    0  501    0  0.00000000000E+00  0.00000000000E+00  0.83075280172E+03  0.83075280172E+03  0.00000000000E+00 0.  1.
         -1   -1    0    0    0  501 -0.00000000000E+00 -0.00000000000E+00 -0.43480831641E+02  0.43480831641E+02  0.00000000000E+00 0.  1.
         25    1    1    2    0    0  0.53425382841E+02 -0.12975166163E+03  0.28995940074E+03  0.34375313715E+03  0.12000000000E+03 0.  0.
         25    1    1    2    0    0 -0.53425382841E+02  0.12975166163E+03  0.49731256935E+03  0.53048049621E+03  0.12000000000E+03 0.  0.
<mgrwt>
<rscale>  0 0.38011484E+03</rscale>
<asrwt>0</asrwt>
<pdfrwt beam="1">  1        1 0.12780811E+00 0.38011484E+03</pdfrwt>
<pdfrwt beam="2">  1       -1 0.66893593E-02 0.38011484E+03</pdfrwt>
<totfact> 0.24666465E+03</totfact>
</mgrwt>
</event>
<event>
 4    1  0.1726503E-004  0.4061814E+03  0.7818608E-02  0.1041660E+00
         -2   -1    0    0    0  501 -0.00000000000E+00  0.00000000000E+00  0.31141475117E+02  0.31141475117E+02  0.00000000000E+00 0.  1.
          2   -1    0    0  501    0  0.00000000000E+00 -0.00000000000E+00 -0.13244663418E+04  0.13244663418E+04  0.00000000000E+00 0.  1.
         25    1    1    2    0    0 -0.10497190659E+03  0.29873998557E+02 -0.23880710463E+03  0.28868735716E+03  0.12000000000E+03 0.  0.
         25    1    1    2    0    0  0.10497190659E+03 -0.29873998557E+02 -0.10545177621E+04  0.10669204598E+04  0.12000000000E+03 0.  0.
<mgrwt>
<rscale>  0 0.40618142E+03</rscale>
<asrwt>0</asrwt>
<pdfrwt beam="1">  1        2 0.20376398E+00 0.40618142E+03</pdfrwt>
<pdfrwt beam="2">  1       -2 0.47909978E-02 0.40618142E+03</pdfrwt>
<totfact> 0.35618909E+03</totfact>
</mgrwt>
</event>
<event>
 4    1  0.1726503E-004  0.2474322E+03  0.7818608E-02  0.1114938E+00
          2   -1    0    0  501    0  0.00000000000E+00  0.00000000000E+00  0.18971161205E+03  0.18971161205E+03  0.00000000000E+00 0. -1.
         -2   -1    0    0    0  501 -0.00000000000E+00 -0.00000000000E+00 -0.80678640287E+02  0.80678640287E+02  0.00000000000E+00 0. -1.
         25    1    1    2    0    0 -0.25898608960E+02  0.11264061630E+02  0.43156886722E+02  0.13061444752E+03  0.12000000000E+03 0.  0.
         25    1    1    2    0    0  0.25898608960E+02 -0.11264061630E+02  0.65876085040E+02  0.13977580481E+03  0.12000000000E+03 0.  0.
<mgrwt>
<rscale>  0 0.24743221E+03</rscale>
<asrwt>0</asrwt>
<pdfrwt beam="1">  1        2 0.29186402E-01 0.24743221E+03</pdfrwt>
<pdfrwt beam="2">  1       -2 0.12412099E-01 0.24743221E+03</pdfrwt>
<totfact> 0.83333264E+03</totfact>
</mgrwt>
</event>
<event>
 4    1  0.1726503E-004  0.2688447E+03  0.7818608E-02  0.1101943E+00
          2   -1    0    0  501    0  0.00000000000E+00  0.00000000000E+00  0.10762606419E+04  0.10762606419E+04  0.00000000000E+00 0.  1.
         -2   -1    0    0    0  501 -0.00000000000E+00 -0.00000000000E+00 -0.16789021877E+02  0.16789021877E+02  0.00000000000E+00 0.  1.
         25    1    1    2    0    0 -0.54071292300E+01  0.24748253186E+02  0.30602275214E+03  0.32968414871E+03  0.12000000000E+03 0.  0.
         25    1    1    2    0    0  0.54071292300E+01 -0.24748253186E+02  0.75344886791E+03  0.76336551510E+03  0.12000000000E+03 0.  0.
<mgrwt>
<rscale>  0 0.26884466E+03</rscale>
<asrwt>0</asrwt>
<pdfrwt beam="1">  1        2 0.16557851E+00 0.26884466E+03</pdfrwt>
<pdfrwt beam="2">  1       -2 0.25829273E-02 0.26884466E+03</pdfrwt>
<totfact> 0.12457310E+04</totfact>
</mgrwt>
</event>
<event>
 4    1  0.1726503E-004  0.2476923E+03  0.7818608E-02  0.1114772E+00
         -1   -1    0    0    0  501 -0.00000000000E+00  0.00000000000E+00  0.30864012110E+03  0.30864012110E+03  0.00000000000E+00 0.  1.
          1   -1    0    0  501    0  0.00000000000E+00 -0.00000000000E+00 -0.49694990695E+02  0.49694990695E+02  0.00000000000E+00 0.  1.
         25    1    1    2    0    0 -0.44628359272E+01 -0.27440027210E+02  0.14805546614E+03  0.19259619169E+03  0.12000000000E+03 0.  0.
         25    1    1    2    0    0  0.44628359272E+01  0.27440027210E+02  0.11088966426E+03  0.16573892011E+03  0.12000000000E+03 0.  0.
<mgrwt>
<rscale>  0 0.24769229E+03</rscale>
<asrwt>0</asrwt>
<pdfrwt beam="1">  1        1 0.76453833E-02 0.24769229E+03</pdfrwt>
<pdfrwt beam="2">  1       -1 0.47483095E-01 0.24769229E+03</pdfrwt>
<totfact> 0.41432231E+03</totfact>
</mgrwt>
</event>
<event>
 4    1  0.1726503E-004  0.2458234E+03  0.7818608E-02  0.1115973E+00
          3   -1    0    0  501    0  0.00000000000E+00  0.00000000000E+00  0.34843900666E+03  0.34843900666E+03  0.00000000000E+00 0.  1.
         -3   -1    0    0    0  501 -0.00000000000E+00 -0.00000000000E+00 -0.43357045403E+02  0.43357045403E+02  0.00000000000E+00 0.  1.
         25    1    1    2    0    0  0.18048942050E+02 -0.14403020166E+02  0.17356929474E+03  0.21227225767E+03  0.12000000000E+03 0.  0.
         25    1    1    2    0    0 -0.18048942050E+02  0.14403020166E+02  0.13151266652E+03  0.17952379439E+03  0.12000000000E+03 0.  0.
<mgrwt>
<rscale>  0 0.24582340E+03</rscale>
<asrwt>0</asrwt>
<pdfrwt beam="1">  1        3 0.53605999E-01 0.24582340E+03</pdfrwt>
<pdfrwt beam="2">  1       -3 0.66703149E-02 0.24582340E+03</pdfrwt>
<totfact> 0.12511304E+03</totfact>
</mgrwt>
</event>
<event>
 4    1  0.1726503E-004  0.2739540E+03  0.7818608E-02  0.1099038E+00
          3   -1    0    0  501    0  0.00000000000E+00  0.00000000000E+00  0.13719629281E+04  0.13719629281E+04  0.00000000000E+00 0.  1.
         -3   -1    0    0    0  501 -0.00000000000E+00 -0.00000000000E+00 -0.13675803590E+02  0.13675803590E+02  0.00000000000E+00 0.  1.
         25    1    1    2    0    0  0.32937586810E+02 -0.83039417008E+01  0.96565863957E+03  0.97367882192E+03  0.12000000000E+03 0.  0.
         25    1    1    2    0    0 -0.32937586810E+02  0.83039417008E+01  0.39262848489E+03  0.41195990973E+03  0.12000000000E+03 0.  0.
<mgrwt>
<rscale>  0 0.27395398E+03</rscale>
<asrwt>0</asrwt>
<pdfrwt beam="1">  1        3 0.21107111E+00 0.27395398E+03</pdfrwt>
<pdfrwt beam="2">  1       -3 0.21039709E-02 0.27395398E+03</pdfrwt>
<totfact> 0.30744624E+02</totfact>
</mgrwt>
</event>
<event>
 4    1  0.1726503E-004  0.2705341E+03  0.7818608E-02  0.1100974E+00
         -1   -1    0    0    0  501 -0.00000000000E+00  0.00000000000E+00  0.37696308036E+03  0.37696308036E+03  0.00000000000E+00 0. -1.
          1   -1    0    0  501    0  0.00000000000E+00 -0.00000000000E+00 -0.48538365489E+02  0.48538365489E+02  0.00000000000E+00 0. -1.
         25    1    1    2    0    0 -0.54202751131E+01  0.57559556342E+02  0.12716952595E+03  0.18415908948E+03  0.12000000000E+03 0.  0.
         25    1    1    2    0    0  0.54202751131E+01 -0.57559556342E+02  0.20125518893E+03  0.24134235637E+03  0.12000000000E+03 0.  0.
<mgrwt>
<rscale>  0 0.27053408E+03</rscale>
<asrwt>0</asrwt>
<pdfrwt beam="1">  1        1 0.74674411E-02 0.27053408E+03</pdfrwt>
<pdfrwt beam="2">  1       -1 0.57994318E-01 0.27053408E+03</pdfrwt>
<totfact> 0.29540938E+03</totfact>
</mgrwt>
</event>
<event>
 4    1  0.1726503E-004  0.3319986E+03  0.7818608E-02  0.1070256E+00
         -2   -1    0    0    0  501 -0.00000000000E+00  0.00000000000E+00  0.24914477456E+02  0.24914477456E+02  0.00000000000E+00 0. -1.
          2   -1    0    0  501    0  0.00000000000E+00 -0.00000000000E+00 -0.11060139592E+04  0.11060139592E+04  0.00000000000E+00 0. -1.
         25    1    1    2    0    0 -0.10982828092E+03  0.12458508468E+02 -0.64489396947E+03  0.66521101733E+03  0.12000000000E+03 0.  0.
         25    1    1    2    0    0  0.10982828092E+03 -0.12458508468E+02 -0.43620551230E+03  0.46571741935E+03  0.12000000000E+03 0.  0.
<mgrwt>
<rscale>  0 0.33199855E+03</rscale>
<asrwt>0</asrwt>
<pdfrwt beam="1">  1        2 0.17015592E+00 0.33199855E+03</pdfrwt>
<pdfrwt beam="2">  1       -2 0.38329982E-02 0.33199855E+03</pdfrwt>
<totfact> 0.66646879E+03</totfact>
</mgrwt>
</event>
<event>
 4    1  0.1726503E-004  0.2587235E+03  0.7818608E-02  0.1107913E+00
          2   -1    0    0  501    0  0.00000000000E+00  0.00000000000E+00  0.16441956551E+03  0.16441956551E+03  0.00000000000E+00 0.  1.
         -2   -1    0    0    0  501 -0.00000000000E+00 -0.00000000000E+00 -0.10177900995E+03  0.10177900995E+03  0.00000000000E+00 0.  1.
         25    1    1    2    0    0  0.20370706322E+02  0.38834527641E+02  0.10451909480E+02  0.12818864468E+03  0.12000000000E+03 0.  0.
         25    1    1    2    0    0 -0.20370706322E+02 -0.38834527641E+02  0.52188646076E+02  0.13800993077E+03  0.12000000000E+03 0.  0.
<mgrwt>
<rscale>  0 0.25872349E+03</rscale>
<asrwt>0</asrwt>
<pdfrwt beam="1">  1        2 0.25295318E-01 0.25872349E+03</pdfrwt>
<pdfrwt beam="2">  1       -2 0.15658309E-01 0.25872349E+03</pdfrwt>
<totfact> 0.66862348E+03</totfact>
</mgrwt>
</event>
<event>
 4    1  0.1726503E-004  0.3247712E+03  0.7818608E-02  0.1073474E+00
          1   -1    0    0  501    0  0.00000000000E+00  0.00000000000E+00  0.43863245790E+02  0.43863245790E+02  0.00000000000E+00 0. -1.
         -1   -1    0    0    0  501 -0.00000000000E+00 -0.00000000000E+00 -0.60116570814E+03  0.60116570814E+03  0.00000000000E+00 0. -1.
         25    1    1    2    0    0  0.63876360023E+02  0.46582472604E+02 -0.12845453547E+03  0.19274512654E+03  0.12000000000E+03 0.  0.
         25    1    1    2    0    0 -0.63876360023E+02 -0.46582472604E+02 -0.42884792689E+03  0.45228382739E+03  0.12000000000E+03 0.  0.
<mgrwt>
<rscale>  0 0.32477118E+03</rscale>
<asrwt>0</asrwt>
<pdfrwt beam="1">  1        1 0.67481926E-02 0.32477118E+03</pdfrwt>
<pdfrwt beam="2">  1       -1 0.92487020E-01 0.32477118E+03</pdfrwt>
<totfact> 0.13187852E+03</totfact>
</mgrwt>
</event>
<event>
 4    1  0.1726503E-004  0.3235595E+03  0.7818608E-02  0.1074023E+00
          2   -1    0    0  501    0  0.00000000000E+00  0.00000000000E+00  0.55451116110E+03  0.55451116110E+03  0.00000000000E+00 0. -1.
         -2   -1    0    0    0  501 -0.00000000000E+00 -0.00000000000E+00 -0.47199569357E+02  0.47199569357E+02  0.00000000000E+00 0. -1.
         25    1    1    2    0    0  0.80865530586E+02 -0.50699269411E+02  0.15768871542E+03  0.21994404044E+03  0.12000000000E+03 0.  0.
         25    1    1    2    0    0 -0.80865530586E+02  0.50699269411E+02  0.34962287632E+03  0.38176669001E+03  0.12000000000E+03 0.  0.
<mgrwt>
<rscale>  0 0.32355950E+03</rscale>
<asrwt>0</asrwt>
<pdfrwt beam="1">  1        2 0.85309405E-01 0.32355950E+03</pdfrwt>
<pdfrwt beam="2">  1       -2 0.72614726E-02 0.32355950E+03</pdfrwt>
<totfact> 0.60972450E+03</totfact>
</mgrwt>
</event>
<event>
 4    1  0.1726503E-004  0.2485549E+03  0.7818608E-02  0.1114222E+00
          1   -1    0    0  501    0  0.00000000000E+00  0.00000000000E+00  0.66166112105E+03  0.66166112105E+03  0.00000000000E+00 0.  1.
         -1   -1    0    0    0  501 -0.00000000000E+00 -0.00000000000E+00 -0.23342588145E+02  0.23342588145E+02  0.00000000000E+00 0.  1.
         25    1    1    2    0    0 -0.97621205667E+01 -0.21331257539E+02  0.38044801667E+03  0.39961358202E+03  0.12000000000E+03 0.  0.
         25    1    1    2    0    0  0.97621205667E+01  0.21331257539E+02  0.25787051624E+03  0.28539012718E+03  0.12000000000E+03 0.  0.
<mgrwt>
<rscale>  0 0.24855489E+03</rscale>
<asrwt>0</asrwt>
<pdfrwt beam="1">  1        1 0.10179400E+00 0.24855489E+03</pdfrwt>
<pdfrwt beam="2">  1       -1 0.35911679E-02 0.24855489E+03</pdfrwt>
<totfact> 0.87684348E+03</totfact>
</mgrwt>
</event>
<event>
 4    1  0.1726503E-004  0.2936112E+03  0.7818608E-02  0.1088479E+00
         -4   -1    0    0    0  501 -0.00000000000E+00  0.00000000000E+00  0.21524009598E+02  0.21524009598E+02  0.00000000000E+00 0.  1.
          4   -1    0    0  501    0  0.00000000000E+00 -0.00000000000E+00 -0.10012952223E+04  0.10012952223E+04  0.00000000000E+00 0.  1.
         25    1    1    2    0    0 -0.40886219915E+02 -0.72361975260E+02 -0.43547591983E+03  0.45928990321E+03  0.12000000000E+03 0.  0.
         25    1    1    2    0    0  0.40886219915E+02  0.72361975260E+02 -0.54429529284E+03  0.56352932865E+03  0.12000000000E+03 0.  0.
<mgrwt>
<rscale>  0 0.29361123E+03</rscale>
<asrwt>0</asrwt>
<pdfrwt beam="1">  1        4 0.15404539E+00 0.29361123E+03</pdfrwt>
<pdfrwt beam="2">  1       -4 0.33113866E-02 0.29361123E+03</pdfrwt>
<totfact> 0.25660145E+02</totfact>
</mgrwt>
</event>
<event>
 4    1  0.1726503E-004  0.2969237E+03  0.7818608E-02  0.1086789E+00
          2   -1    0    0  501    0  0.00000000000E+00  0.00000000000E+00  0.44282085411E+04  0.44282085411E+04  0.00000000000E+00 0.  1.
         -2   -1    0    0    0  501 -0.00000000000E+00 -0.00000000000E+00 -0.49773905407E+01  0.49773905407E+01  0.00000000000E+00 0.  1.
         25    1    1    2    0    0  0.84620864737E+02  0.19609175992E+02  0.23576838865E+04  0.23623332786E+04  0.12000000000E+03 0.  0.
         25    1    1    2    0    0 -0.84620864737E+02 -0.19609175992E+02  0.20655472640E+04  0.20708526530E+04  0.12000000000E+03 0.  0.
<mgrwt>
<rscale>  0 0.29692372E+03</rscale>
<asrwt>0</asrwt>
<pdfrwt beam="1">  1        2 0.68125970E+00 0.29692372E+03</pdfrwt>
<pdfrwt beam="2">  1       -2 0.76575593E-03 0.29692372E+03</pdfrwt>
<totfact> 0.61633655E+02</totfact>
</mgrwt>
</event>
<event>
 4    1  0.1726503E-004  0.3410909E+03  0.7818608E-02  0.1066332E+00
          2   -1    0    0  501    0  0.00000000000E+00  0.00000000000E+00  0.11729947747E+04  0.11729947747E+04  0.00000000000E+00 0. -1.
         -2   -1    0    0    0  501 -0.00000000000E+00 -0.00000000000E+00 -0.24796143484E+02  0.24796143484E+02  0.00000000000E+00 0. -1.
         25    1    1    2    0    0 -0.11832052578E+03  0.40741589041E+01  0.66495542544E+03  0.68598984206E+03  0.12000000000E+03 0.  0.
         25    1    1    2    0    0  0.11832052578E+03 -0.40741589041E+01  0.48324320580E+03  0.51180107614E+03  0.12000000000E+03 0.  0.
<mgrwt>
<rscale>  0 0.34109088E+03</rscale>
<asrwt>0</asrwt>
<pdfrwt beam="1">  1        2 0.18046069E+00 0.34109088E+03</pdfrwt>
<pdfrwt beam="2">  1       -2 0.38147922E-02 0.34109088E+03</pdfrwt>
<totfact> 0.61366668E+03</totfact>
</mgrwt>
</event>
<event>
 4    1  0.1726503E-004  0.3033013E+03  0.7818608E-02  0.1083602E+00
         -1   -1    0    0    0  501 -0.00000000000E+00  0.00000000000E+00  0.22842131389E+04  0.22842131389E+04  0.00000000000E+00 0.  1.
          1   -1    0    0  501    0  0.00000000000E+00 -0.00000000000E+00 -0.10068204907E+02  0.10068204907E+02  0.00000000000E+00 0.  1.
         25    1    1    2    0    0 -0.55728519260E+02 -0.10997915095E+02  0.16914584057E+04  0.16966608855E+04  0.12000000000E+03 0.  0.
         25    1    1    2    0    0  0.55728519260E+02  0.10997915095E+02  0.58268652826E+03  0.59762045833E+03  0.12000000000E+03 0.  0.
<mgrwt>
<rscale>  0 0.30330134E+03</rscale>
<asrwt>0</asrwt>
<pdfrwt beam="1">  1        1 0.15489564E-02 0.30330134E+03</pdfrwt>
<pdfrwt beam="2">  1       -1 0.35141699E+00 0.30330134E+03</pdfrwt>
<totfact> 0.15840607E+02</totfact>
</mgrwt>
</event>
<event>
 4    1  0.1726503E-004  0.2627512E+03  0.7818608E-02  0.1105501E+00
          2   -1    0    0  501    0  0.00000000000E+00  0.00000000000E+00  0.12889234442E+04  0.12889234442E+04  0.00000000000E+00 0.  1.
         -2   -1    0    0    0  501 -0.00000000000E+00 -0.00000000000E+00 -0.13390672918E+02  0.13390672918E+02  0.00000000000E+00 0.  1.
         25    1    1    2    0    0  0.26141093243E+01  0.50440605353E+02  0.55071548915E+03  0.56589631402E+03  0.12000000000E+03 0.  0.
         25    1    1    2    0    0 -0.26141093243E+01 -0.50440605353E+02  0.72481728215E+03  0.73641780312E+03  0.12000000000E+03 0.  0.
<mgrwt>
<rscale>  0 0.26275123E+03</rscale>
<asrwt>0</asrwt>
<pdfrwt beam="1">  1        2 0.19829582E+00 0.26275123E+03</pdfrwt>
<pdfrwt beam="2">  1       -2 0.20601045E-02 0.26275123E+03</pdfrwt>
<totfact> 0.13138147E+04</totfact>
</mgrwt>
</event>
<event>
 4    1  0.1726503E-004  0.2527109E+03  0.7818608E-02  0.1111603E+00
          1   -1    0    0  501    0  0.00000000000E+00  0.00000000000E+00  0.34860571251E+03  0.34860571251E+03  0.00000000000E+00 0.  1.
         -1   -1    0    0    0  501 -0.00000000000E+00 -0.00000000000E+00 -0.45798742063E+02  0.45798742063E+02  0.00000000000E+00 0.  1.
         25    1    1    2    0    0 -0.31128433797E+02 -0.21609146631E+02  0.13362468567E+03  0.18355242093E+03  0.12000000000E+03 0.  0.
         25    1    1    2    0    0  0.31128433797E+02  0.21609146631E+02  0.16918228477E+03  0.21085203364E+03  0.12000000000E+03 0.  0.
<mgrwt>
<rscale>  0 0.25271093E+03</rscale>
<asrwt>0</asrwt>
<pdfrwt beam="1">  1        1 0.53631646E-01 0.25271093E+03</pdfrwt>
<pdfrwt beam="2">  1       -1 0.70459605E-02 0.25271093E+03</pdfrwt>
<totfact> 0.74822874E+03</totfact>
</mgrwt>
</event>
<event>
 4    1  0.1726503E-004  0.2634759E+03  0.7818608E-02  0.1105073E+00
         -2   -1    0    0    0  501 -0.00000000000E+00  0.00000000000E+00  0.73907865740E+02  0.73907865740E+02  0.00000000000E+00 0.  1.
          2   -1    0    0  501    0  0.00000000000E+00 -0.00000000000E+00 -0.23481783111E+03  0.23481783111E+03  0.00000000000E+00 0.  1.
         25    1    1    2    0    0  0.41372513544E+02 -0.25070505458E+02 -0.51404537679E+02  0.13922155586E+03  0.12000000000E+03 0.  0.
         25    1    1    2    0    0 -0.41372513544E+02  0.25070505458E+02 -0.10950542769E+03  0.16950414100E+03  0.12000000000E+03 0.  0.
<mgrwt>
<rscale>  0 0.26347588E+03</rscale>
<asrwt>0</asrwt>
<pdfrwt beam="1">  1        2 0.36125820E-01 0.26347588E+03</pdfrwt>
<pdfrwt beam="2">  1       -2 0.11370441E-01 0.26347588E+03</pdfrwt>
<totfact> 0.76276111E+03</totfact>
</mgrwt>
</event>
<event>
 4    1  0.1726503E-004  0.3397021E+03  0.7818608E-02  0.1066923E+00
         -1   -1    0    0    0  501 -0.00000000000E+00  0.00000000000E+00  0.22951358678E+02  0.22951358678E+02  0.00000000000E+00 0. -1.
          1   -1    0    0  501    0  0.00000000000E+00 -0.00000000000E+00 -0.12569792529E+04  0.12569792529E+04  0.00000000000E+00 0. -1.
         25    1    1    2    0    0  0.11859651352E+03  0.63687538409E+01 -0.68686454569E+03  0.70731082147E+03  0.12000000000E+03 0.  0.
         25    1    1    2    0    0 -0.11859651352E+03 -0.63687538409E+01 -0.54716334854E+03  0.57261979012E+03  0.12000000000E+03 0.  0.
<mgrwt>
<rscale>  0 0.33970211E+03</rscale>
<asrwt>0</asrwt>
<pdfrwt beam="1">  1        1 0.19338147E+00 0.33970211E+03</pdfrwt>
<pdfrwt beam="2">  1       -1 0.35309774E-02 0.33970211E+03</pdfrwt>
<totfact> 0.31005203E+03</totfact>
</mgrwt>
</event>
<event>
 4    1  0.1726503E-004  0.3062337E+03  0.7818608E-02  0.1082165E+00
          1   -1    0    0  501    0  0.00000000000E+00  0.00000000000E+00  0.15347259061E+03  0.15347259061E+03  0.00000000000E+00 0.  1.
         -1   -1    0    0    0  501 -0.00000000000E+00 -0.00000000000E+00 -0.15276191670E+03  0.15276191670E+03  0.00000000000E+00 0.  1.
         25    1    1    2    0    0  0.82677215046E+02  0.11291980080E+02 -0.45270835496E+02  0.15301136967E+03  0.12000000000E+03 0.  0.
         25    1    1    2    0    0 -0.82677215046E+02 -0.11291980080E+02  0.45981509406E+02  0.15322313764E+03  0.12000000000E+03 0.  0.
<mgrwt>
<rscale>  0 0.30623368E+03</rscale>
<asrwt>0</asrwt>
<pdfrwt beam="1">  1        1 0.23611168E-01 0.30623368E+03</pdfrwt>
<pdfrwt beam="2">  1       -1 0.23501833E-01 0.30623368E+03</pdfrwt>
<totfact> 0.31768825E+03</totfact>
</mgrwt>
</event>
<event>
 4    1  0.1726503E-004  0.3549505E+03  0.7818608E-02  0.1060601E+00
         -2   -1    0    0    0  501 -0.00000000000E+00  0.00000000000E+00  0.39166432598E+03  0.39166432598E+03  0.00000000000E+00 0.  1.
          2   -1    0    0  501    0  0.00000000000E+00 -0.00000000000E+00 -0.80419550481E+02  0.80419550481E+02  0.00000000000E+00 0.  1.
         25    1    1    2    0    0 -0.77947071437E+02  0.10385717175E+03  0.13521606800E+03  0.22258805699E+03  0.12000000000E+03 0.  0.
         25    1    1    2    0    0  0.77947071437E+02 -0.10385717175E+03  0.17602870750E+03  0.24949581947E+03  0.12000000000E+03 0.  0.
<mgrwt>
<rscale>  0 0.35495053E+03</rscale>
<asrwt>0</asrwt>
<pdfrwt beam="1">  1        2 0.12372239E-01 0.35495053E+03</pdfrwt>
<pdfrwt beam="2">  1       -2 0.60256049E-01 0.35495053E+03</pdfrwt>
<totfact> 0.12971768E+03</totfact>
</mgrwt>
</event>
<event>
 4    1  0.1726503E-004  0.2799199E+03  0.7818608E-02  0.1095733E+00
         -2   -1    0    0    0  501 -0.00000000000E+00  0.00000000000E+00  0.65743394151E+02  0.65743394151E+02  0.00000000000E+00 0. -1.
          2   -1    0    0  501    0  0.00000000000E+00 -0.00000000000E+00 -0.29795834443E+03  0.29795834443E+03  0.00000000000E+00 0. -1.
         25    1    1    2    0    0 -0.14126471458E+02  0.69731589267E+02 -0.10147996693E+03  0.17251155157E+03  0.12000000000E+03 0.  0.
         25    1    1    2    0    0  0.14126471458E+02 -0.69731589267E+02 -0.13073498335E+03  0.19119018701E+03  0.12000000000E+03 0.  0.
<mgrwt>
<rscale>  0 0.27991994E+03</rscale>
<asrwt>0</asrwt>
<pdfrwt beam="1">  1        2 0.45839746E-01 0.27991994E+03</pdfrwt>
<pdfrwt beam="2">  1       -2 0.10114368E-01 0.27991994E+03</pdfrwt>
<totfact> 0.71314928E+03</totfact>
</mgrwt>
</event>
<event>
 4    1  0.1726503E-004  0.2622532E+03  0.7818608E-02  0.1105797E+00
          3   -1    0    0  501    0  0.00000000000E+00  0.00000000000E+00  0.13942845087E+03  0.13942845087E+03  0.00000000000E+00 0.  1.
         -3   -1    0    0    0  501 -0.00000000000E+00 -0.00000000000E+00 -0.12331902186E+03  0.12331902186E+03  0.00000000000E+00 0.  1.
         25    1    1    2    0    0 -0.42473747612E+02 -0.18121911916E+02 -0.17718415832E+02  0.12979354833E+03  0.12000000000E+03 0.  0.
         25    1    1    2    0    0  0.42473747612E+02  0.18121911916E+02  0.33827844838E+02  0.13295392440E+03  0.12000000000E+03 0.  0.
<mgrwt>
<rscale>  0 0.26225316E+03</rscale>
<asrwt>0</asrwt>
<pdfrwt beam="1">  1        3 0.21450531E-01 0.26225316E+03</pdfrwt>
<pdfrwt beam="2">  1       -3 0.18972157E-01 0.26225316E+03</pdfrwt>
<totfact> 0.12351384E+03</totfact>
</mgrwt>
</event>
<event>
 4    1  0.1726503E-004  0.2621271E+03  0.7818608E-02  0.1105872E+00
          2   -1    0    0  501    0  0.00000000000E+00  0.00000000000E+00  0.72389242317E+03  0.72389242317E+03  0.00000000000E+00 0. -1.
         -2   -1    0    0    0  501 -0.00000000000E+00 -0.00000000000E+00 -0.23729566340E+02  0.23729566340E+02  0.00000000000E+00 0. -1.
         25    1    1    2    0    0  0.13454124117E+02 -0.50955977428E+02  0.35110258393E+03  0.37476732719E+03  0.12000000000E+03 0.  0.
         25    1    1    2    0    0 -0.13454124117E+02  0.50955977428E+02  0.34906027290E+03  0.37285466231E+03  0.12000000000E+03 0.  0.
<mgrwt>
<rscale>  0 0.26212709E+03</rscale>
<asrwt>0</asrwt>
<pdfrwt beam="1">  1        2 0.11136805E+00 0.26212709E+03</pdfrwt>
<pdfrwt beam="2">  1       -2 0.36507031E-02 0.26212709E+03</pdfrwt>
<totfact> 0.12613236E+04</totfact>
</mgrwt>
</event>
<event>
 4    1  0.1726503E-004  0.2701749E+03  0.7818608E-02  0.1101180E+00
          1   -1    0    0  501    0  0.00000000000E+00  0.00000000000E+00  0.31070122737E+03  0.31070122737E+03  0.00000000000E+00 0.  1.
         -1   -1    0    0    0  501 -0.00000000000E+00 -0.00000000000E+00 -0.58733663868E+02  0.58733663868E+02  0.00000000000E+00 0.  1.
         25    1    1    2    0    0 -0.44872360047E+02  0.10463978286E+02  0.18278565869E+03  0.22345831952E+03  0.12000000000E+03 0.  0.
         25    1    1    2    0    0  0.44872360047E+02 -0.10463978286E+02  0.69181904804E+02  0.14597657172E+03  0.12000000000E+03 0.  0.
<mgrwt>
<rscale>  0 0.27017492E+03</rscale>
<asrwt>0</asrwt>
<pdfrwt beam="1">  1        1 0.47800188E-01 0.27017492E+03</pdfrwt>
<pdfrwt beam="2">  1       -1 0.90359485E-02 0.27017492E+03</pdfrwt>
<totfact> 0.59336548E+03</totfact>
</mgrwt>
</event>
<event>
 4    1  0.1726503E-004  0.2792598E+03  0.7818608E-02  0.1096094E+00
         -3   -1    0    0    0  501 -0.00000000000E+00  0.00000000000E+00  0.71566403690E+02  0.71566403690E+02  0.00000000000E+00 0.  1.
          3   -1    0    0  501    0  0.00000000000E+00 -0.00000000000E+00 -0.27242539918E+03  0.27242539918E+03  0.00000000000E+00 0.  1.
         25    1    1    2    0    0  0.50850354455E+02 -0.11678918221E+02 -0.16045172544E+03  0.20704326088E+03  0.12000000000E+03 0.  0.
         25    1    1    2    0    0 -0.50850354455E+02  0.11678918221E+02 -0.40407270043E+02  0.13694854198E+03  0.12000000000E+03 0.  0.
<mgrwt>
<rscale>  0 0.27925978E+03</rscale>
<asrwt>0</asrwt>
<pdfrwt beam="1">  1        3 0.41911600E-01 0.27925978E+03</pdfrwt>
<pdfrwt beam="2">  1       -3 0.11010216E-01 0.27925978E+03</pdfrwt>
<totfact> 0.90722980E+02</totfact>
</mgrwt>
</event>
<event>
 4    1  0.1726503E-004  0.2513277E+03  0.7818608E-02  0.1112469E+00
         -2   -1    0    0    0  501 -0.00000000000E+00  0.00000000000E+00  0.11219255879E+02  0.11219255879E+02  0.00000000000E+00 0.  1.
          2   -1    0    0  501    0  0.00000000000E+00 -0.00000000000E+00 -0.14075273085E+04  0.14075273085E+04  0.00000000000E+00 0.  1.
         25    1    1    2    0    0  0.17280915634E+01  0.37260053298E+02 -0.70003609403E+03  0.71122558364E+03  0.12000000000E+03 0.  0.
         25    1    1    2    0    0 -0.17280915634E+01 -0.37260053298E+02 -0.69627195861E+03  0.70752098076E+03  0.12000000000E+03 0.  0.
<mgrwt>
<rscale>  0 0.25132775E+03</rscale>
<asrwt>0</asrwt>
<pdfrwt beam="1">  1        2 0.21654265E+00 0.25132775E+03</pdfrwt>
<pdfrwt beam="2">  1       -2 0.17260395E-02 0.25132775E+03</pdfrwt>
<totfact> 0.14648039E+04</totfact>
</mgrwt>
</event>
<event>
 4    1  0.1726503E-004  0.2548274E+03  0.7818608E-02  0.1110291E+00
          2   -1    0    0  501    0  0.00000000000E+00  0.00000000000E+00  0.86048258818E+03  0.86048258818E+03  0.00000000000E+00 0. -1.
         -2   -1    0    0    0  501 -0.00000000000E+00 -0.00000000000E+00 -0.18866448901E+02  0.18866448901E+02  0.00000000000E+00 0. -1.
         25    1    1    2    0    0 -0.27751256851E+02 -0.11601538458E+02  0.31560093282E+03  0.33898182363E+03  0.12000000000E+03 0.  0.
         25    1    1    2    0    0  0.27751256851E+02  0.11601538458E+02  0.52601520645E+03  0.54036721345E+03  0.12000000000E+03 0.  0.
<mgrwt>
<rscale>  0 0.25482740E+03</rscale>
<asrwt>0</asrwt>
<pdfrwt beam="1">  1        2 0.13238191E+00 0.25482740E+03</pdfrwt>
<pdfrwt beam="2">  1       -2 0.29025313E-02 0.25482740E+03</pdfrwt>
<totfact> 0.14251648E+04</totfact>
</mgrwt>
</event>
<event>
 4    1  0.1726503E-004  0.2887177E+03  0.7818608E-02  0.1091021E+00
         -1   -1    0    0    0  501 -0.00000000000E+00  0.00000000000E+00  0.12978682820E+03  0.12978682820E+03  0.00000000000E+00 0. -1.
          1   -1    0    0  501    0  0.00000000000E+00 -0.00000000000E+00 -0.16056691804E+03  0.16056691804E+03  0.00000000000E+00 0. -1.
         25    1    1    2    0    0 -0.73454669445E+02  0.31930009135E+02 -0.10426790542E+02  0.14465072384E+03  0.12000000000E+03 0.  0.
         25    1    1    2    0    0  0.73454669445E+02 -0.31930009135E+02 -0.20353299298E+02  0.14570302241E+03  0.12000000000E+03 0.  0.
<mgrwt>
<rscale>  0 0.28871765E+03</rscale>
<asrwt>0</asrwt>
<pdfrwt beam="1">  1        1 0.24702603E-01 0.28871765E+03</pdfrwt>
<pdfrwt beam="2">  1       -1 0.19967204E-01 0.28871765E+03</pdfrwt>
<totfact> 0.39132644E+03</totfact>
</mgrwt>
</event>
<event>
 4    1  0.1726503E-004  0.6932915E+03  0.7818608E-02  0.9728774E-01
          1   -1    0    0  501    0  0.00000000000E+00  0.00000000000E+00  0.21986965379E+03  0.21986965379E+03  0.00000000000E+00 0. -1.
         -1   -1    0    0    0  501 -0.00000000000E+00 -0.00000000000E+00 -0.54652048759E+03  0.54652048759E+03  0.00000000000E+00 0. -1.
         25    1    1    2    0    0  0.22729294598E+03 -0.96538441376E+02  0.70603247894E+02  0.28348998672E+03  0.12000000000E+03 0.  0.
         25    1    1    2    0    0 -0.22729294598E+03  0.96538441376E+02 -0.39725408170E+03  0.48290015467E+03  0.12000000000E+03 0.  0.
<mgrwt>
<rscale>  0 0.69329148E+03</rscale>
<asrwt>0</asrwt>
<pdfrwt beam="1">  1        1 0.33826101E-01 0.69329148E+03</pdfrwt>
<pdfrwt beam="2">  1       -1 0.84080075E-01 0.69329148E+03</pdfrwt>
<totfact> 0.18709824E+02</totfact>
</mgrwt>
</event>
<event>
 4    1  0.1726503E-004  0.3416340E+03  0.7818608E-02  0.1066102E+00
          2   -1    0    0  501    0  0.00000000000E+00  0.00000000000E+00  0.22871564302E+04  0.22871564302E+04  0.00000000000E+00 0. -1.
         -2   -1    0    0    0  501 -0.00000000000E+00 -0.00000000000E+00 -0.12757518523E+02  0.12757518523E+02  0.00000000000E+00 0. -1.
         25    1    1    2    0    0  0.40911197666E+02  0.10582818770E+03  0.14310391619E+04  0.14405368493E+04  0.12000000000E+03 0.  0.
         25    1    1    2    0    0 -0.40911197666E+02 -0.10582818770E+03  0.84335974977E+03  0.85937709938E+03  0.12000000000E+03 0.  0.
<mgrwt>
<rscale>  0 0.34163396E+03</rscale>
<asrwt>0</asrwt>
<pdfrwt beam="1">  1        2 0.35186989E+00 0.34163396E+03</pdfrwt>
<pdfrwt beam="2">  1       -2 0.19626970E-02 0.34163396E+03</pdfrwt>
<totfact> 0.41478404E+03</totfact>
</mgrwt>
</event>
<event>
 4    1  0.1726503E-004  0.2475840E+03  0.7818608E-02  0.1114841E+00
          1   -1    0    0  501    0  0.00000000000E+00  0.00000000000E+00  0.23702078812E+03  0.23702078812E+03  0.00000000000E+00 0. -1.
         -1   -1    0    0    0  501 -0.00000000000E+00 -0.00000000000E+00 -0.64654509268E+02  0.64654509268E+02  0.00000000000E+00 0. -1.
         25    1    1    2    0    0 -0.84510795397E+01 -0.24061793891E+01  0.12165006165E+03  0.17110215646E+03  0.12000000000E+03 0.  0.
         25    1    1    2    0    0  0.84510795397E+01  0.24061793891E+01  0.50716217194E+02  0.13057314093E+03  0.12000000000E+03 0.  0.
<mgrwt>
<rscale>  0 0.24758403E+03</rscale>
<asrwt>0</asrwt>
<pdfrwt beam="1">  1        1 0.36464736E-01 0.24758403E+03</pdfrwt>
<pdfrwt beam="2">  1       -1 0.99468477E-02 0.24758403E+03</pdfrwt>
<totfact> 0.71633064E+03</totfact>
</mgrwt>
</event>
<event>
 4    1  0.1726503E-004  0.2567210E+03  0.7818608E-02  0.1109129E+00
          1   -1    0    0  501    0  0.00000000000E+00  0.00000000000E+00  0.19477062964E+02  0.19477062964E+02  0.00000000000E+00 0.  1.
         -1   -1    0    0    0  501 -0.00000000000E+00 -0.00000000000E+00 -0.84593946678E+03  0.84593946678E+03  0.00000000000E+00 0.  1.
         25    1    1    2    0    0  0.78206645004E+01  0.33320605205E+02 -0.51464239191E+03  0.52955473473E+03  0.12000000000E+03 0.  0.
         25    1    1    2    0    0 -0.78206645004E+01 -0.33320605205E+02 -0.31182001191E+03  0.33586179501E+03  0.12000000000E+03 0.  0.
<mgrwt>
<rscale>  0 0.25672099E+03</rscale>
<asrwt>0</asrwt>
<pdfrwt beam="1">  1        1 0.29964718E-02 0.25672099E+03</pdfrwt>
<pdfrwt beam="2">  1       -1 0.13014451E+00 0.25672099E+03</pdfrwt>
<totfact> 0.18482940E+03</totfact>
</mgrwt>
</event>
<event>
 4    1  0.1726503E-004  0.3181562E+03  0.7818608E-02  0.1076501E+00
         -1   -1    0    0    0  501 -0.00000000000E+00  0.00000000000E+00  0.31398855633E+02  0.31398855633E+02  0.00000000000E+00 0.  1.
          1   -1    0    0  501    0  0.00000000000E+00 -0.00000000000E+00 -0.80594793368E+03  0.80594793368E+03  0.00000000000E+00 0.  1.
         25    1    1    2    0    0 -0.34798349945E+02  0.34935564299E+02 -0.62955592837E+03  0.64278463404E+03  0.12000000000E+03 0.  0.
         25    1    1    2    0    0  0.34798349945E+02 -0.34935564299E+02 -0.14499314968E+03  0.19456215528E+03  0.12000000000E+03 0.  0.
<mgrwt>
<rscale>  0 0.31815621E+03</rscale>
<asrwt>0</asrwt>
<pdfrwt beam="1">  1        1 0.12399198E+00 0.31815621E+03</pdfrwt>
<pdfrwt beam="2">  1       -1 0.48305936E-02 0.31815621E+03</pdfrwt>
<totfact> 0.42302858E+03</totfact>
</mgrwt>
</event>
<event>
 4    1  0.1726503E-004  0.2968302E+03  0.7818608E-02  0.1086836E+00
         -3   -1    0    0    0  501 -0.00000000000E+00  0.00000000000E+00  0.13946611690E+03  0.13946611690E+03  0.00000000000E+00 0.  1.
          3   -1    0    0  501    0  0.00000000000E+00 -0.00000000000E+00 -0.15793833473E+03  0.15793833473E+03  0.00000000000E+00 0.  1.
         25    1    1    2    0    0 -0.46465783434E+02  0.46456739005E+02  0.48405599280E+02  0.14512201649E+03  0.12000000000E+03 0.  0.
         25    1    1    2    0    0  0.46465783434E+02 -0.46456739005E+02 -0.66877817119E+02  0.15228243514E+03  0.12000000000E+03 0.  0.
<mgrwt>
<rscale>  0 0.29683023E+03</rscale>
<asrwt>0</asrwt>
<pdfrwt beam="1">  1        3 0.24298205E-01 0.29683023E+03</pdfrwt>
<pdfrwt beam="2">  1       -3 0.21456326E-01 0.29683023E+03</pdfrwt>
<totfact> 0.80233354E+02</totfact>
</mgrwt>
</event>
<event>
 4    1  0.1726503E-004  0.2794406E+03  0.7818608E-02  0.1095995E+00
          2   -1    0    0  501    0  0.00000000000E+00  0.00000000000E+00  0.14769049468E+03  0.14769049468E+03  0.00000000000E+00 0.  1.
         -2   -1    0    0    0  501 -0.00000000000E+00 -0.00000000000E+00 -0.13218021835E+03  0.13218021835E+03  0.00000000000E+00 0.  1.
         25    1    1    2    0    0 -0.52407820750E+01 -0.32799345201E+02  0.71244342654E+02  0.14345389225E+03  0.12000000000E+03 0.  0.
         25    1    1    2    0    0  0.52407820750E+01  0.32799345201E+02 -0.55734066318E+02  0.13641682078E+03  0.12000000000E+03 0.  0.
<mgrwt>
<rscale>  0 0.27944060E+03</rscale>
<asrwt>0</asrwt>
<pdfrwt beam="1">  1        2 0.22721615E-01 0.27944060E+03</pdfrwt>
<pdfrwt beam="2">  1       -2 0.20335418E-01 0.27944060E+03</pdfrwt>
<totfact> 0.48685482E+03</totfact>
</mgrwt>
</event>
<event>
 4    1  0.1726503E-004  0.2976065E+03  0.7818608E-02  0.1086443E+00
          3   -1    0    0  501    0  0.00000000000E+00  0.00000000000E+00  0.39579642607E+03  0.39579642607E+03  0.00000000000E+00 0. -1.
         -3   -1    0    0    0  501 -0.00000000000E+00 -0.00000000000E+00 -0.55943931546E+02  0.55943931546E+02  0.00000000000E+00 0. -1.
         25    1    1    2    0    0  0.17722875748E+02  0.81297780317E+02  0.12648695028E+03  0.19319000492E+03  0.12000000000E+03 0.  0.
         25    1    1    2    0    0 -0.17722875748E+02 -0.81297780317E+02  0.21336554424E+03  0.25855035270E+03  0.12000000000E+03 0.  0.
<mgrwt>
<rscale>  0 0.29760651E+03</rscale>
<asrwt>0</asrwt>
<pdfrwt beam="1">  1        3 0.60891756E-01 0.29760651E+03</pdfrwt>
<pdfrwt beam="2">  1       -3 0.86067589E-02 0.29760651E+03</pdfrwt>
<totfact> 0.64675347E+02</totfact>
</mgrwt>
</event>
<event>
 4    1  0.1726503E-004  0.2520031E+03  0.7818608E-02  0.1112045E+00
         -2   -1    0    0    0  501 -0.00000000000E+00  0.00000000000E+00  0.21856107116E+02  0.21856107116E+02  0.00000000000E+00 0. -1.
          2   -1    0    0  501    0  0.00000000000E+00 -0.00000000000E+00 -0.72640549854E+03  0.72640549854E+03  0.00000000000E+00 0. -1.
         25    1    1    2    0    0  0.11954884056E+02  0.29866570303E+02 -0.41466192423E+03  0.43287347190E+03  0.12000000000E+03 0.  0.
         25    1    1    2    0    0 -0.11954884056E+02 -0.29866570303E+02 -0.28988746720E+03  0.31538813376E+03  0.12000000000E+03 0.  0.
<mgrwt>
<rscale>  0 0.25200315E+03</rscale>
<asrwt>0</asrwt>
<pdfrwt beam="1">  1        2 0.11175469E+00 0.25200315E+03</pdfrwt>
<pdfrwt beam="2">  1       -2 0.33624781E-02 0.25200315E+03</pdfrwt>
<totfact> 0.14178755E+04</totfact>
</mgrwt>
</event>
<event>
 4    1  0.1726503E-004  0.2618114E+03  0.7818608E-02  0.1106060E+00
         -2   -1    0    0    0  501 -0.00000000000E+00  0.00000000000E+00  0.12559131135E+02  0.12559131135E+02  0.00000000000E+00 0.  1.
          2   -1    0    0  501    0  0.00000000000E+00 -0.00000000000E+00 -0.13644500835E+04  0.13644500835E+04  0.00000000000E+00 0.  1.
         25    1    1    2    0    0 -0.52102566749E+02 -0.43950069465E+01 -0.66794477786E+03  0.68064985111E+03  0.12000000000E+03 0.  0.
         25    1    1    2    0    0  0.52102566749E+02  0.43950069465E+01 -0.68394617451E+03  0.69635936353E+03  0.12000000000E+03 0.  0.
<mgrwt>
<rscale>  0 0.26181144E+03</rscale>
<asrwt>0</asrwt>
<pdfrwt beam="1">  1        2 0.20991549E+00 0.26181144E+03</pdfrwt>
<pdfrwt beam="2">  1       -2 0.19321732E-02 0.26181144E+03</pdfrwt>
<totfact> 0.13118534E+04</totfact>
</mgrwt>
</event>
<event>
 4    1  0.1726503E-004  0.3694647E+03  0.7818608E-02  0.1054898E+00
          1   -1    0    0  501    0  0.00000000000E+00  0.00000000000E+00  0.43382437796E+03  0.43382437796E+03  0.00000000000E+00 0. -1.
         -1   -1    0    0    0  501 -0.00000000000E+00 -0.00000000000E+00 -0.78663252432E+02  0.78663252432E+02  0.00000000000E+00 0. -1.
         25    1    1    2    0    0 -0.66895287707E+02 -0.56089259117E+02  0.33019435941E+03  0.36200731967E+03  0.12000000000E+03 0.  0.
         25    1    1    2    0    0  0.66895287707E+02  0.56089259117E+02  0.24966766118E+02  0.15048031073E+03  0.12000000000E+03 0.  0.
<mgrwt>
<rscale>  0 0.36946468E+03</rscale>
<asrwt>0</asrwt>
<pdfrwt beam="1">  1        1 0.66742210E-01 0.36946468E+03</pdfrwt>
<pdfrwt beam="2">  1       -1 0.12102039E-01 0.36946468E+03</pdfrwt>
<totfact> 0.24731007E+03</totfact>
</mgrwt>
</event>
<event>
 4    1  0.1726503E-004  0.2636730E+03  0.7818608E-02  0.1104956E+00
         -4   -1    0    0    0  501 -0.00000000000E+00  0.00000000000E+00  0.35629465849E+03  0.35629465849E+03  0.00000000000E+00 0. -1.
          4   -1    0    0  501    0  0.00000000000E+00 -0.00000000000E+00 -0.48782273126E+02  0.48782273126E+02  0.00000000000E+00 0. -1.
         25    1    1    2    0    0  0.50623208235E+02 -0.12284130520E+02  0.17887124976E+03  0.22160445182E+03  0.12000000000E+03 0.  0.
         25    1    1    2    0    0 -0.50623208235E+02  0.12284130520E+02  0.12864113561E+03  0.18347247981E+03  0.12000000000E+03 0.  0.
<mgrwt>
<rscale>  0 0.26367300E+03</rscale>
<asrwt>0</asrwt>
<pdfrwt beam="1">  1        4 0.75049653E-02 0.26367300E+03</pdfrwt>
<pdfrwt beam="2">  1       -4 0.54814561E-01 0.26367300E+03</pdfrwt>
<totfact> 0.73410055E+02</totfact>
</mgrwt>
</event>
<event>
 4    1  0.1726503E-004  0.3445034E+03  0.7818608E-02  0.1064894E+00
          2   -1    0    0  501    0  0.00000000000E+00  0.00000000000E+00  0.58952287621E+03  0.58952287621E+03  0.00000000000E+00 0.  1.
         -2   -1    0    0    0  501 -0.00000000000E+00 -0.00000000000E+00 -0.50329925166E+02  0.50329925166E+02  0.00000000000E+00 0.  1.
         25    1    1    2    0    0  0.21110656621E+02 -0.74055236899E+02  0.90090569002E+02  0.16865986054E+03  0.12000000000E+03 0.  0.
         25    1    1    2    0    0 -0.21110656621E+02  0.74055236899E+02  0.44910238204E+03  0.47119294083E+03  0.12000000000E+03 0.  0.
<mgrwt>
<rscale>  0 0.34450337E+03</rscale>
<asrwt>0</asrwt>
<pdfrwt beam="1">  1        2 0.90695822E-01 0.34450337E+03</pdfrwt>
<pdfrwt beam="2">  1       -2 0.77430658E-02 0.34450337E+03</pdfrwt>
<totfact> 0.51452177E+03</totfact>
</mgrwt>
</event>
<event>
 4    1  0.1726503E-004  0.2702912E+03  0.7818608E-02  0.1101113E+00
          1   -1    0    0  501    0  0.00000000000E+00  0.00000000000E+00  0.27232159430E+02  0.27232159430E+02  0.00000000000E+00 0.  1.
         -1   -1    0    0    0  501 -0.00000000000E+00 -0.00000000000E+00 -0.67068983815E+03  0.67068983815E+03  0.00000000000E+00 0.  1.
         25    1    1    2    0    0  0.48914558970E+02 -0.28045964389E+02 -0.38931520165E+03  0.41127306796E+03  0.12000000000E+03 0.  0.
         25    1    1    2    0    0 -0.48914558970E+02  0.28045964389E+02 -0.25414247707E+03  0.28664892962E+03  0.12000000000E+03 0.  0.
<mgrwt>
<rscale>  0 0.27029120E+03</rscale>
<asrwt>0</asrwt>
<pdfrwt beam="1">  1        1 0.41895626E-02 0.27029120E+03</pdfrwt>
<pdfrwt beam="2">  1       -1 0.10318306E+00 0.27029120E+03</pdfrwt>
<totfact> 0.19984028E+03</totfact>
</mgrwt>
</event>
<event>
 4    1  0.1726503E-004  0.2887317E+03  0.7818608E-02  0.1091013E+00
         -2   -1    0    0    0  501 -0.00000000000E+00  0.00000000000E+00  0.75870596571E+02  0.75870596571E+02  0.00000000000E+00 0.  1.
          2   -1    0    0  501    0  0.00000000000E+00 -0.00000000000E+00 -0.27469797229E+03  0.27469797229E+03  0.00000000000E+00 0.  1.
         25    1    1    2    0    0 -0.41012437792E+02  0.24882001581E+02 -0.21287287121E+02  0.13097435875E+03  0.12000000000E+03 0.  0.
         25    1    1    2    0    0  0.41012437792E+02 -0.24882001581E+02 -0.17754008860E+03  0.21959421012E+03  0.12000000000E+03 0.  0.
<mgrwt>
<rscale>  0 0.28873170E+03</rscale>
<asrwt>0</asrwt>
<pdfrwt beam="1">  1        2 0.42261226E-01 0.28873170E+03</pdfrwt>
<pdfrwt beam="2">  1       -2 0.11672400E-01 0.28873170E+03</pdfrwt>
<totfact> 0.61939740E+03</totfact>
</mgrwt>
</event>
<event>
 4    1  0.1726503E-004  0.2561879E+03  0.7818608E-02  0.1109455E+00
          2   -1    0    0  501    0  0.00000000000E+00  0.00000000000E+00  0.22962214381E+04  0.22962214381E+04  0.00000000000E+00 0.  1.
         -2   -1    0    0    0  501 -0.00000000000E+00 -0.00000000000E+00 -0.71456777997E+01  0.71456777997E+01  0.00000000000E+00 0.  1.
         25    1    1    2    0    0 -0.22621861273E+02 -0.20232128340E+02  0.84811376472E+03  0.85709862066E+03  0.12000000000E+03 0.  0.
         25    1    1    2    0    0  0.22621861273E+02  0.20232128340E+02  0.14409619955E+04  0.14462684952E+04  0.12000000000E+03 0.  0.
<mgrwt>
<rscale>  0 0.25618789E+03</rscale>
<asrwt>0</asrwt>
<pdfrwt beam="1">  1        2 0.35326425E+00 0.25618789E+03</pdfrwt>
<pdfrwt beam="2">  1       -2 0.10993369E-02 0.25618789E+03</pdfrwt>
<totfact> 0.96011920E+03</totfact>
</mgrwt>
</event>
<event>
 4    1  0.1726503E-004  0.2950751E+03  0.7818608E-02  0.1087729E+00
         -2   -1    0    0    0  501 -0.00000000000E+00  0.00000000000E+00  0.32590479672E+02  0.32590479672E+02  0.00000000000E+00 0. -1.
          2   -1    0    0  501    0  0.00000000000E+00 -0.00000000000E+00 -0.66790441621E+03  0.66790441621E+03  0.00000000000E+00 0. -1.
         25    1    1    2    0    0 -0.17527621323E+01  0.65675150831E+02 -0.18652894326E+03  0.23132086868E+03  0.12000000000E+03 0.  0.
         25    1    1    2    0    0  0.17527621323E+01 -0.65675150831E+02 -0.44878499328E+03  0.46917402721E+03  0.12000000000E+03 0.  0.
<mgrwt>
<rscale>  0 0.29507508E+03</rscale>
<asrwt>0</asrwt>
<pdfrwt beam="1">  1        2 0.10275452E+00 0.29507508E+03</pdfrwt>
<pdfrwt beam="2">  1       -2 0.50139202E-02 0.29507508E+03</pdfrwt>
<totfact> 0.86497343E+03</totfact>
</mgrwt>
</event>
<event>
 4    1  0.1726503E-004  0.3477847E+03  0.7818608E-02  0.1063528E+00
         -2   -1    0    0    0  501 -0.00000000000E+00  0.00000000000E+00  0.94952569451E+01  0.94952569451E+01  0.00000000000E+00 0. -1.
          2   -1    0    0  501    0  0.00000000000E+00 -0.00000000000E+00 -0.31845951371E+04  0.31845951371E+04  0.00000000000E+00 0. -1.
         25    1    1    2    0    0 -0.46017278343E+02  0.16081957638E+02 -0.26531564029E+04  0.26563160801E+04  0.12000000000E+03 0.  0.
         25    1    1    2    0    0  0.46017278343E+02 -0.16081957638E+02 -0.52194347730E+03  0.53777431397E+03  0.12000000000E+03 0.  0.
<mgrwt>
<rscale>  0 0.34778470E+03</rscale>
<asrwt>0</asrwt>
<pdfrwt beam="1">  1        2 0.48993823E+00 0.34778470E+03</pdfrwt>
<pdfrwt beam="2">  1       -2 0.14608072E-02 0.34778470E+03</pdfrwt>
<totfact> 0.19583082E+03</totfact>
</mgrwt>
</event>
<event>
 4    1  0.1726503E-004  0.3019811E+03  0.7818608E-02  0.1084254E+00
          2   -1    0    0  501    0  0.00000000000E+00  0.00000000000E+00  0.24827642875E+04  0.24827642875E+04  0.00000000000E+00 0.  1.
         -2   -1    0    0    0  501 -0.00000000000E+00 -0.00000000000E+00 -0.91825659633E+01  0.91825659633E+01  0.00000000000E+00 0.  1.
         25    1    1    2    0    0  0.71723804613E+02  0.37432873796E+02  0.88160759853E+03  0.89340779153E+03  0.12000000000E+03 0.  0.
         25    1    1    2    0    0 -0.71723804613E+02 -0.37432873796E+02  0.15919741230E+04  0.15985390619E+04  0.12000000000E+03 0.  0.
<mgrwt>
<rscale>  0 0.30198110E+03</rscale>
<asrwt>0</asrwt>
<pdfrwt beam="1">  1        2 0.38196320E+00 0.30198110E+03</pdfrwt>
<pdfrwt beam="2">  1       -2 0.14127044E-02 0.30198110E+03</pdfrwt>
<totfact> 0.52763719E+03</totfact>
</mgrwt>
</event>
<event>
 4    1  0.1726503E-004  0.3287971E+03  0.7818608E-02  0.1071670E+00
          2   -1    0    0  501    0  0.00000000000E+00  0.00000000000E+00  0.91605241236E+03  0.91605241236E+03  0.00000000000E+00 0.  1.
         -2   -1    0    0    0  501 -0.00000000000E+00 -0.00000000000E+00 -0.29503646518E+02  0.29503646518E+02  0.00000000000E+00 0.  1.
         25    1    1    2    0    0 -0.59109216019E+02 -0.23177962683E+02  0.17664890338E+03  0.22279127550E+03  0.12000000000E+03 0.  0.
         25    1    1    2    0    0  0.59109216019E+02  0.23177962683E+02  0.70989986246E+03  0.72276478338E+03  0.12000000000E+03 0.  0.
<mgrwt>
<rscale>  0 0.32879712E+03</rscale>
<asrwt>0</asrwt>
<pdfrwt beam="1">  1        2 0.14093112E+00 0.32879712E+03</pdfrwt>
<pdfrwt beam="2">  1       -2 0.45390232E-02 0.32879712E+03</pdfrwt>
<totfact> 0.67514580E+03</totfact>
</mgrwt>
</event>
<event>
 4    1  0.1726503E-004  0.6054612E+03  0.7818608E-02  0.9894140E-01
         -2   -1    0    0    0  501 -0.00000000000E+00  0.00000000000E+00  0.11117146348E+03  0.11117146348E+03  0.00000000000E+00 0.  1.
          2   -1    0    0  501    0  0.00000000000E+00 -0.00000000000E+00 -0.82436461615E+03  0.82436461615E+03  0.00000000000E+00 0.  1.
         25    1    1    2    0    0  0.21473320218E+03  0.85503375214E+02 -0.59509605639E+03  0.64958486099E+03  0.12000000000E+03 0.  0.
         25    1    1    2    0    0 -0.21473320218E+03 -0.85503375214E+02 -0.11809709628E+03  0.28595121864E+03  0.12000000000E+03 0.  0.
<mgrwt>
<rscale>  0 0.60546122E+03</rscale>
<asrwt>0</asrwt>
<pdfrwt beam="1">  1        2 0.12682532E+00 0.60546122E+03</pdfrwt>
<pdfrwt beam="2">  1       -2 0.17103302E-01 0.60546122E+03</pdfrwt>
<totfact> 0.93196258E+02</totfact>
</mgrwt>
</event>
<event>
 4    1  0.1726503E-004  0.3788342E+03  0.7818608E-02  0.1051365E+00
         -2   -1    0    0    0  501 -0.00000000000E+00  0.00000000000E+00  0.64735386452E+02  0.64735386452E+02  0.00000000000E+00 0.  1.
          2   -1    0    0  501    0  0.00000000000E+00 -0.00000000000E+00 -0.55423830245E+03  0.55423830245E+03  0.00000000000E+00 0.  1.
         25    1    1    2    0    0  0.42777775804E+02 -0.11223070255E+03 -0.38197068926E+03  0.41800391882E+03  0.12000000000E+03 0.  0.
         25    1    1    2    0    0 -0.42777775804E+02  0.11223070255E+03 -0.10753222674E+03  0.20096977008E+03  0.12000000000E+03 0.  0.
<mgrwt>
<rscale>  0 0.37883416E+03</rscale>
<asrwt>0</asrwt>
<pdfrwt beam="1">  1        2 0.85267429E-01 0.37883416E+03</pdfrwt>
<pdfrwt beam="2">  1       -2 0.99592904E-02 0.37883416E+03</pdfrwt>
<totfact> 0.37157003E+03</totfact>
</mgrwt>
</event>
<event>
 4    1  0.1726503E-004  0.6516699E+03  0.7818608E-02  0.9803651E-01
         -1   -1    0    0    0  501 -0.00000000000E+00  0.00000000000E+00  0.44422071602E+02  0.44422071602E+02  0.00000000000E+00 0. -1.
          1   -1    0    0  501    0  0.00000000000E+00 -0.00000000000E+00 -0.23899922057E+04  0.23899922057E+04  0.00000000000E+00 0. -1.
         25    1    1    2    0    0 -0.66189281282E+01  0.17299477212E+03 -0.24413529058E+03  0.32244850984E+03  0.12000000000E+03 0.  0.
         25    1    1    2    0    0  0.66189281282E+01 -0.17299477212E+03 -0.21014348436E+04  0.21119657675E+04  0.12000000000E+03 0.  0.
<mgrwt>
<rscale>  0 0.65166987E+03</rscale>
<asrwt>0</asrwt>
<pdfrwt beam="1">  1        1 0.36769118E+00 0.65166987E+03</pdfrwt>
<pdfrwt beam="2">  1       -1 0.68341635E-02 0.65166987E+03</pdfrwt>
<totfact> 0.19418380E+02</totfact>
</mgrwt>
</event>
<event>
 4    1  0.1726503E-004  0.6008216E+03  0.7818608E-02  0.9903703E-01
         -2   -1    0    0    0  501 -0.00000000000E+00  0.00000000000E+00  0.24028562990E+03  0.24028562990E+03  0.00000000000E+00 0.  1.
          2   -1    0    0  501    0  0.00000000000E+00 -0.00000000000E+00 -0.37558066073E+03  0.37558066073E+03  0.00000000000E+00 0.  1.
         25    1    1    2    0    0 -0.72868999595E+02 -0.15295149703E+03 -0.29020777539E+03  0.35682573400E+03  0.12000000000E+03 0.  0.
         25    1    1    2    0    0  0.72868999595E+02  0.15295149703E+03  0.15491274457E+03  0.25904055663E+03  0.12000000000E+03 0.  0.
<mgrwt>
<rscale>  0 0.60082156E+03</rscale>
<asrwt>0</asrwt>
<pdfrwt beam="1">  1        2 0.57781640E-01 0.60082156E+03</pdfrwt>
<pdfrwt beam="2">  1       -2 0.36967020E-01 0.60082156E+03</pdfrwt>
<totfact> 0.59279615E+02</totfact>
</mgrwt>
</event>
<event>
 4    1  0.1726503E-004  0.2582609E+03  0.7818608E-02  0.1108193E+00
          1   -1    0    0  501    0  0.00000000000E+00  0.00000000000E+00  0.13615102572E+04  0.13615102572E+04  0.00000000000E+00 0.  1.
         -1   -1    0    0    0  501 -0.00000000000E+00 -0.00000000000E+00 -0.12247187354E+02  0.12247187354E+02  0.00000000000E+00 0.  1.
         25    1    1    2    0    0  0.23931427859E+02 -0.35800198287E+02  0.78368339192E+03  0.79398616248E+03  0.12000000000E+03 0.  0.
         25    1    1    2    0    0 -0.23931427859E+02  0.35800198287E+02  0.56557967794E+03  0.57977128209E+03  0.12000000000E+03 0.  0.
<mgrwt>
<rscale>  0 0.25826089E+03</rscale>
<asrwt>0</asrwt>
<pdfrwt beam="1">  1        1 0.20946300E+00 0.25826089E+03</pdfrwt>
<pdfrwt beam="2">  1       -1 0.18841838E-02 0.25826089E+03</pdfrwt>
<totfact> 0.66206595E+03</totfact>
</mgrwt>
</event>
<event>
 4    1  0.1726503E-004  0.2967968E+03  0.7818608E-02  0.1086853E+00
          4   -1    0    0  501    0  0.00000000000E+00  0.00000000000E+00  0.23514413918E+02  0.23514413918E+02  0.00000000000E+00 0. -1.
         -4   -1    0    0    0  501 -0.00000000000E+00 -0.00000000000E+00 -0.93653546890E+03  0.93653546890E+03  0.00000000000E+00 0. -1.
         25    1    1    2    0    0 -0.80151774847E+02  0.25244871083E+02 -0.53308986815E+03  0.55285298051E+03  0.12000000000E+03 0.  0.
         25    1    1    2    0    0  0.80151774847E+02 -0.25244871083E+02 -0.37993118683E+03  0.40719690231E+03  0.12000000000E+03 0.  0.
<mgrwt>
<rscale>  0 0.29679678E+03</rscale>
<asrwt>0</asrwt>
<pdfrwt beam="1">  1        4 0.36176017E-02 0.29679678E+03</pdfrwt>
<pdfrwt beam="2">  1       -4 0.14408240E+00 0.29679678E+03</pdfrwt>
<totfact> 0.26535261E+02</totfact>
</mgrwt>
</event>
<event>
 4    1  0.1726503E-004  0.2724593E+03  0.7818608E-02  0.1099880E+00
          2   -1    0    0  501    0  0.00000000000E+00  0.00000000000E+00  0.17128919934E+03  0.17128919934E+03  0.00000000000E+00 0.  1.
         -2   -1    0    0    0  501 -0.00000000000E+00 -0.00000000000E+00 -0.10834609876E+03  0.10834609876E+03  0.00000000000E+00 0.  1.
         25    1    1    2    0    0 -0.38091915138E+02  0.45820177594E+02  0.61637592520E+01  0.13412111915E+03  0.12000000000E+03 0.  0.
         25    1    1    2    0    0  0.38091915138E+02 -0.45820177594E+02  0.56779341326E+02  0.14551417895E+03  0.12000000000E+03 0.  0.
<mgrwt>
<rscale>  0 0.27245929E+03</rscale>
<asrwt>0</asrwt>
<pdfrwt beam="1">  1        2 0.26352185E-01 0.27245929E+03</pdfrwt>
<pdfrwt beam="2">  1       -2 0.16668631E-01 0.27245929E+03</pdfrwt>
<totfact> 0.57684009E+03</totfact>
</mgrwt>
</event>
<event>
 4    1  0.1726503E-004  0.2781177E+03  0.7818608E-02  0.1096721E+00
         -1   -1    0    0    0  501 -0.00000000000E+00  0.00000000000E+00  0.20075453129E+02  0.20075453129E+02  0.00000000000E+00 0.  1.
          1   -1    0    0  501    0  0.00000000000E+00 -0.00000000000E+00 -0.96323440821E+03  0.96323440821E+03  0.00000000000E+00 0.  1.
         25    1    1    2    0    0  0.68752461492E+02 -0.10655431539E+02 -0.43677088822E+03  0.45826765975E+03  0.12000000000E+03 0.  0.
         25    1    1    2    0    0 -0.68752461492E+02  0.10655431539E+02 -0.50638806686E+03  0.52504220158E+03  0.12000000000E+03 0.  0.
<mgrwt>
<rscale>  0 0.27811772E+03</rscale>
<asrwt>0</asrwt>
<pdfrwt beam="1">  1        1 0.14818989E+00 0.27811772E+03</pdfrwt>
<pdfrwt beam="2">  1       -1 0.30885316E-02 0.27811772E+03</pdfrwt>
<totfact> 0.61578101E+03</totfact>
</mgrwt>
</event>
<event>
 4    1  0.1726503E-004  0.3114463E+03  0.7818608E-02  0.1079655E+00
          1   -1    0    0  501    0  0.00000000000E+00  0.00000000000E+00  0.63268643090E+03  0.63268643090E+03  0.00000000000E+00 0.  1.
         -1   -1    0    0    0  501 -0.00000000000E+00 -0.00000000000E+00 -0.38328140514E+02  0.38328140514E+02  0.00000000000E+00 0.  1.
         25    1    1    2    0    0 -0.50518334080E+02 -0.85218316339E+02  0.28435465957E+03  0.32414786122E+03  0.12000000000E+03 0.  0.
         25    1    1    2    0    0  0.50518334080E+02  0.85218316339E+02  0.31000363082E+03  0.34686671019E+03  0.12000000000E+03 0.  0.
<mgrwt>
<rscale>  0 0.31144627E+03</rscale>
<asrwt>0</asrwt>
<pdfrwt beam="1">  1        1 0.97336366E-01 0.31144627E+03</pdfrwt>
<pdfrwt beam="2">  1       -1 0.58966375E-02 0.31144627E+03</pdfrwt>
<totfact> 0.44799224E+03</totfact>
</mgrwt>
</event>
<event>
 4    1  0.1726503E-004  0.2981800E+03  0.7818608E-02  0.1086154E+00
         -2   -1    0    0    0  501 -0.00000000000E+00  0.00000000000E+00  0.10941292560E+02  0.10941292560E+02  0.00000000000E+00 0.  1.
          2   -1    0    0  501    0  0.00000000000E+00 -0.00000000000E+00 -0.20315538862E+04  0.20315538862E+04  0.00000000000E+00 0.  1.
         25    1    1    2    0    0 -0.24576673032E+02  0.28168767950E+02 -0.46101933528E+03  0.47784549789E+03  0.12000000000E+03 0.  0.
         25    1    1    2    0    0  0.24576673032E+02 -0.28168767950E+02 -0.15595932583E+04  0.15646496808E+04  0.12000000000E+03 0.  0.
<mgrwt>
<rscale>  0 0.29817998E+03</rscale>
<asrwt>0</asrwt>
<pdfrwt beam="1">  1        2 0.31254662E+00 0.29817998E+03</pdfrwt>
<pdfrwt beam="2">  1       -2 0.16832765E-02 0.29817998E+03</pdfrwt>
<totfact> 0.71276201E+03</totfact>
</mgrwt>
</event>
<event>
 4    1  0.1726503E-004  0.2775319E+03  0.7818608E-02  0.1097045E+00
         -4   -1    0    0    0  501 -0.00000000000E+00  0.00000000000E+00  0.15942028711E+03  0.15942028711E+03  0.00000000000E+00 0.  1.
          4   -1    0    0  501    0  0.00000000000E+00 -0.00000000000E+00 -0.12078752723E+03  0.12078752723E+03  0.00000000000E+00 0.  1.
         25    1    1    2    0    0 -0.61891877034E+02  0.31220984375E+02  0.12132441035E+02  0.13911344447E+03  0.12000000000E+03 0.  0.
         25    1    1    2    0    0  0.61891877034E+02 -0.31220984375E+02  0.26500318841E+02  0.14109436986E+03  0.12000000000E+03 0.  0.
<mgrwt>
<rscale>  0 0.27753185E+03</rscale>
<asrwt>0</asrwt>
<pdfrwt beam="1">  1        4 0.18582697E-01 0.27753185E+03</pdfrwt>
<pdfrwt beam="2">  1       -4 0.24526198E-01 0.27753185E+03</pdfrwt>
<totfact> 0.75092598E+02</totfact>
</mgrwt>
</event>
<event>
 4    1  0.1726503E-004  0.2541574E+03  0.7818608E-02  0.1110705E+00
         -1   -1    0    0    0  501 -0.00000000000E+00  0.00000000000E+00  0.16842418267E+02  0.16842418267E+02  0.00000000000E+00 0.  1.
          1   -1    0    0  501    0  0.00000000000E+00 -0.00000000000E+00 -0.95882905721E+03  0.95882905721E+03  0.00000000000E+00 0.  1.
         25    1    1    2    0    0  0.30240433617E+02 -0.21803083516E+02 -0.54374344439E+03  0.55807418108E+03  0.12000000000E+03 0.  0.
         25    1    1    2    0    0 -0.30240433617E+02  0.21803083516E+02 -0.39824319455E+03  0.41759729439E+03  0.12000000000E+03 0.  0.
<mgrwt>
<rscale>  0 0.25415743E+03</rscale>
<asrwt>0</asrwt>
<pdfrwt beam="1">  1        1 0.14751224E+00 0.25415743E+03</pdfrwt>
<pdfrwt beam="2">  1       -1 0.25911399E-02 0.25415743E+03</pdfrwt>
<totfact> 0.80183536E+03</totfact>
</mgrwt>
</event>
<event>
 4    1  0.1726503E-004  0.2735514E+03  0.7818608E-02  0.1099264E+00
         -1   -1    0    0    0  501 -0.00000000000E+00  0.00000000000E+00  0.10093444816E+03  0.10093444816E+03  0.00000000000E+00 0. -1.
          1   -1    0    0  501    0  0.00000000000E+00 -0.00000000000E+00 -0.18534401907E+03  0.18534401907E+03  0.00000000000E+00 0. -1.
         25    1    1    2    0    0 -0.41578289744E+02  0.91721828265E+01  0.10066117558E+02  0.12772709125E+03  0.12000000000E+03 0.  0.
         25    1    1    2    0    0  0.41578289744E+02 -0.91721828265E+01 -0.94475688471E+02  0.15855137599E+03  0.12000000000E+03 0.  0.
<mgrwt>
<rscale>  0 0.27355143E+03</rscale>
<asrwt>0</asrwt>
<pdfrwt beam="1">  1        1 0.28514464E-01 0.27355143E+03</pdfrwt>
<pdfrwt beam="2">  1       -1 0.15528377E-01 0.27355143E+03</pdfrwt>
<totfact> 0.48792100E+03</totfact>
</mgrwt>
</event>
<event>
 4    1  0.1726503E-004  0.2823346E+03  0.7818608E-02  0.1094421E+00
          1   -1    0    0  501    0  0.00000000000E+00  0.00000000000E+00  0.75310679500E+03  0.75310679500E+03  0.00000000000E+00 0. -1.
         -1   -1    0    0    0  501 -0.00000000000E+00 -0.00000000000E+00 -0.26461330652E+02  0.26461330652E+02  0.00000000000E+00 0. -1.
         25    1    1    2    0    0 -0.45993184758E+02  0.46924752830E+02  0.26724017931E+03  0.30022428101E+03  0.12000000000E+03 0.  0.
         25    1    1    2    0    0  0.45993184758E+02 -0.46924752830E+02  0.45940528504E+03  0.47934384464E+03  0.12000000000E+03 0.  0.
<mgrwt>
<rscale>  0 0.28233461E+03</rscale>
<asrwt>0</asrwt>
<pdfrwt beam="1">  1        1 0.11586257E+00 0.28233461E+03</pdfrwt>
<pdfrwt beam="2">  1       -1 0.40709745E-02 0.28233461E+03</pdfrwt>
<totfact> 0.60467896E+03</totfact>
</mgrwt>
</event>
<event>
 4    1  0.1726503E-004  0.2805714E+03  0.7818608E-02  0.1095377E+00
         -3   -1    0    0    0  501 -0.00000000000E+00  0.00000000000E+00  0.50370918405E+02  0.50370918405E+02  0.00000000000E+00 0. -1.
          3   -1    0    0  501    0  0.00000000000E+00 -0.00000000000E+00 -0.39070313009E+03  0.39070313009E+03  0.00000000000E+00 0. -1.
         25    1    1    2    0    0  0.65739336513E+02 -0.20097898238E+02 -0.20718426649E+03  0.24910019302E+03  0.12000000000E+03 0.  0.
         25    1    1    2    0    0 -0.65739336513E+02  0.20097898238E+02 -0.13314794520E+03  0.19197385548E+03  0.12000000000E+03 0.  0.
<mgrwt>
<rscale>  0 0.28057138E+03</rscale>
<asrwt>0</asrwt>
<pdfrwt beam="1">  1        3 0.60108175E-01 0.28057138E+03</pdfrwt>
<pdfrwt beam="2">  1       -3 0.77493719E-02 0.28057138E+03</pdfrwt>
<totfact> 0.78536909E+02</totfact>
</mgrwt>
</event>
<event>
 4    1  0.1726503E-004  0.2722730E+03  0.7818608E-02  0.1099986E+00
         -2   -1    0    0    0  501 -0.00000000000E+00  0.00000000000E+00  0.25711696404E+02  0.25711696404E+02  0.00000000000E+00 0.  1.
          2   -1    0    0  501    0  0.00000000000E+00 -0.00000000000E+00 -0.72080623827E+03  0.72080623827E+03  0.00000000000E+00 0.  1.
         25    1    1    2    0    0  0.50935110637E+02  0.36186849723E+02 -0.38906335729E+03  0.41191524562E+03  0.12000000000E+03 0.  0.
         25    1    1    2    0    0 -0.50935110637E+02 -0.36186849723E+02 -0.30603118457E+03  0.33460268905E+03  0.12000000000E+03 0.  0.
<mgrwt>
<rscale>  0 0.27227303E+03</rscale>
<asrwt>0</asrwt>
<pdfrwt beam="1">  1        2 0.11089328E+00 0.27227303E+03</pdfrwt>
<pdfrwt beam="2">  1       -2 0.39556453E-02 0.27227303E+03</pdfrwt>
<totfact> 0.11258215E+04</totfact>
</mgrwt>
</event>
<event>
 4    1  0.1726503E-004  0.3325313E+03  0.7818608E-02  0.1070022E+00
         -1   -1    0    0    0  501 -0.00000000000E+00  0.00000000000E+00  0.28550529013E+02  0.28550529013E+02  0.00000000000E+00 0. -1.
          1   -1    0    0  501    0  0.00000000000E+00 -0.00000000000E+00 -0.96825781486E+03  0.96825781486E+03  0.00000000000E+00 0. -1.
         25    1    1    2    0    0  0.82851759265E+02  0.59568857896E+02 -0.62936090620E+03  0.64877423893E+03  0.12000000000E+03 0.  0.
         25    1    1    2    0    0 -0.82851759265E+02 -0.59568857896E+02 -0.31034637964E+03  0.34803410494E+03  0.12000000000E+03 0.  0.
<mgrwt>
<rscale>  0 0.33253134E+03</rscale>
<asrwt>0</asrwt>
<pdfrwt beam="1">  1        1 0.14896275E+00 0.33253134E+03</pdfrwt>
<pdfrwt beam="2">  1       -1 0.43923887E-02 0.33253134E+03</pdfrwt>
<totfact> 0.36232001E+03</totfact>
</mgrwt>
</event>
<event>
 4    1  0.1726503E-004  0.2693887E+03  0.7818608E-02  0.1101630E+00
          4   -1    0    0  501    0  0.00000000000E+00  0.00000000000E+00  0.72032316752E+02  0.72032316752E+02  0.00000000000E+00 0.  1.
         -4   -1    0    0    0  501 -0.00000000000E+00 -0.00000000000E+00 -0.25186708094E+03  0.25186708094E+03  0.00000000000E+00 0.  1.
         25    1    1    2    0    0 -0.35716188151E+02  0.50391936403E+01 -0.14932768439E+03  0.19493536594E+03  0.12000000000E+03 0.  0.
         25    1    1    2    0    0  0.35716188151E+02 -0.50391936403E+01 -0.30507079801E+02  0.12896403176E+03  0.12000000000E+03 0.  0.
<mgrwt>
<rscale>  0 0.26938871E+03</rscale>
<asrwt>0</asrwt>
<pdfrwt beam="1">  1        4 0.11081895E-01 0.26938871E+03</pdfrwt>
<pdfrwt beam="2">  1       -4 0.38748782E-01 0.26938871E+03</pdfrwt>
<totfact> 0.77147764E+02</totfact>
</mgrwt>
</event>
<event>
 4    1  0.1726503E-004  0.2818294E+03  0.7818608E-02  0.1094694E+00
         -2   -1    0    0    0  501 -0.00000000000E+00  0.00000000000E+00  0.76373870951E+01  0.76373870951E+01  0.00000000000E+00 0.  1.
          2   -1    0    0  501    0  0.00000000000E+00 -0.00000000000E+00 -0.25999670223E+04  0.25999670223E+04  0.00000000000E+00 0.  1.
         25    1    1    2    0    0 -0.46940863418E+02  0.13961917904E+02 -0.18078642568E+04  0.18125042209E+04  0.12000000000E+03 0.  0.
         25    1    1    2    0    0  0.46940863418E+02 -0.13961917904E+02 -0.78446537843E+03  0.79510018851E+03  0.12000000000E+03 0.  0.
<mgrwt>
<rscale>  0 0.28182941E+03</rscale>
<asrwt>0</asrwt>
<pdfrwt beam="1">  1        2 0.39999475E+00 0.28182941E+03</pdfrwt>
<pdfrwt beam="2">  1       -2 0.11749831E-02 0.28182941E+03</pdfrwt>
<totfact> 0.59540109E+03</totfact>
</mgrwt>
</event>
<event>
 4    1  0.1726503E-004  0.2530367E+03  0.7818608E-02  0.1111401E+00
          2   -1    0    0  501    0  0.00000000000E+00  0.00000000000E+00  0.45877058834E+03  0.45877058834E+03  0.00000000000E+00 0.  1.
         -2   -1    0    0    0  501 -0.00000000000E+00 -0.00000000000E+00 -0.34890833771E+02  0.34890833771E+02  0.00000000000E+00 0.  1.
         25    1    1    2    0    0 -0.75443046978E+01 -0.33178356770E+02  0.25328748204E+03  0.28233361197E+03  0.12000000000E+03 0.  0.
         25    1    1    2    0    0  0.75443046978E+01  0.33178356770E+02  0.17059227253E+03  0.21132781014E+03  0.12000000000E+03 0.  0.
<mgrwt>
<rscale>  0 0.25303666E+03</rscale>
<asrwt>0</asrwt>
<pdfrwt beam="1">  1        2 0.70580086E-01 0.25303666E+03</pdfrwt>
<pdfrwt beam="2">  1       -2 0.53678209E-02 0.25303666E+03</pdfrwt>
<totfact> 0.11909901E+04</totfact>
</mgrwt>
</event>
<event>
 4    1  0.1726503E-004  0.3292858E+03  0.7818608E-02  0.1071453E+00
         -2   -1    0    0    0  501 -0.00000000000E+00  0.00000000000E+00  0.55869887644E+02  0.55869887644E+02  0.00000000000E+00 0. -1.
          2   -1    0    0  501    0  0.00000000000E+00 -0.00000000000E+00 -0.48518609151E+03  0.48518609151E+03  0.00000000000E+00 0. -1.
         25    1    1    2    0    0 -0.63799047726E+01 -0.26658128296E+02 -0.39432202513E+03  0.41308742233E+03  0.12000000000E+03 0.  0.
         25    1    1    2    0    0  0.63799047726E+01  0.26658128296E+02 -0.34994178738E+02  0.12796855682E+03  0.12000000000E+03 0.  0.
<mgrwt>
<rscale>  0 0.32928585E+03</rscale>
<asrwt>0</asrwt>
<pdfrwt beam="1">  1        2 0.74644011E-01 0.32928585E+03</pdfrwt>
<pdfrwt beam="2">  1       -2 0.85953676E-02 0.32928585E+03</pdfrwt>
<totfact> 0.54481833E+03</totfact>
</mgrwt>
</event>
<event>
 4    1  0.1726503E-004  0.2711881E+03  0.7818608E-02  0.1100602E+00
          2   -1    0    0  501    0  0.00000000000E+00  0.00000000000E+00  0.69735280139E+02  0.69735280139E+02  0.00000000000E+00 0. -1.
         -2   -1    0    0    0  501 -0.00000000000E+00 -0.00000000000E+00 -0.26365049861E+03  0.26365049861E+03  0.00000000000E+00 0. -1.
         25    1    1    2    0    0  0.54377019742E+01  0.54100332156E+02 -0.13639908434E+03  0.18963418667E+03  0.12000000000E+03 0.  0.
         25    1    1    2    0    0 -0.54377019742E+01 -0.54100332156E+02 -0.57516134128E+02  0.14375159209E+03  0.12000000000E+03 0.  0.
<mgrwt>
<rscale>  0 0.27118806E+03</rscale>
<asrwt>0</asrwt>
<pdfrwt beam="1">  1        2 0.10728505E-01 0.27118806E+03</pdfrwt>
<pdfrwt beam="2">  1       -2 0.40561615E-01 0.27118806E+03</pdfrwt>
<totfact> 0.33863459E+03</totfact>
</mgrwt>
</event>
<event>
 4    1  0.1726503E-004  0.2895441E+03  0.7818608E-02  0.1090587E+00
          2   -1    0    0  501    0  0.00000000000E+00  0.00000000000E+00  0.36225412438E+03  0.36225412438E+03  0.00000000000E+00 0.  1.
         -2   -1    0    0    0  501 -0.00000000000E+00 -0.00000000000E+00 -0.57857034949E+02  0.57857034949E+02  0.00000000000E+00 0.  1.
         25    1    1    2    0    0  0.40583752020E+02  0.58245028613E+02  0.95641183877E+02  0.16907619685E+03  0.12000000000E+03 0.  0.
         25    1    1    2    0    0 -0.40583752020E+02 -0.58245028613E+02  0.20875590556E+03  0.25103496249E+03  0.12000000000E+03 0.  0.
<mgrwt>
<rscale>  0 0.28954412E+03</rscale>
<asrwt>0</asrwt>
<pdfrwt beam="1">  1        2 0.55731402E-01 0.28954412E+03</pdfrwt>
<pdfrwt beam="2">  1       -2 0.89010826E-02 0.28954412E+03</pdfrwt>
<totfact> 0.70803982E+03</totfact>
</mgrwt>
</event>
<event>
 4    1  0.1726503E-004  0.2837423E+03  0.7818608E-02  0.1093662E+00
          2   -1    0    0  501    0  0.00000000000E+00  0.00000000000E+00  0.21917620233E+03  0.21917620233E+03  0.00000000000E+00 0.  1.
         -2   -1    0    0    0  501 -0.00000000000E+00 -0.00000000000E+00 -0.91832146690E+02  0.91832146690E+02  0.00000000000E+00 0.  1.
         25    1    1    2    0    0  0.73385395493E+02 -0.52012972517E+01  0.83124273921E+02  0.16346900220E+03  0.12000000000E+03 0.  0.
         25    1    1    2    0    0 -0.73385395493E+02  0.52012972517E+01  0.44219781716E+02  0.14753934682E+03  0.12000000000E+03 0.  0.
<mgrwt>
<rscale>  0 0.28374229E+03</rscale>
<asrwt>0</asrwt>
<pdfrwt beam="1">  1        2 0.33719416E-01 0.28374229E+03</pdfrwt>
<pdfrwt beam="2">  1       -2 0.14128023E-01 0.28374229E+03</pdfrwt>
<totfact> 0.57942024E+03</totfact>
</mgrwt>
</event>
<event>
 4    1  0.1726503E-004  0.3046010E+03  0.7818608E-02  0.1082963E+00
          1   -1    0    0  501    0  0.00000000000E+00  0.00000000000E+00  0.45718468164E+03  0.45718468164E+03  0.00000000000E+00 0.  1.
         -1   -1    0    0    0  501 -0.00000000000E+00 -0.00000000000E+00 -0.50735393407E+02  0.50735393407E+02  0.00000000000E+00 0.  1.
         25    1    1    2    0    0  0.56488643967E+02 -0.43301836607E+02  0.10139242984E+03  0.17247156513E+03  0.12000000000E+03 0.  0.
         25    1    1    2    0    0 -0.56488643967E+02  0.43301836607E+02  0.30505685839E+03  0.33544850991E+03  0.12000000000E+03 0.  0.
<mgrwt>
<rscale>  0 0.30460102E+03</rscale>
<asrwt>0</asrwt>
<pdfrwt beam="1">  1        1 0.70336102E-01 0.30460102E+03</pdfrwt>
<pdfrwt beam="2">  1       -1 0.78054454E-02 0.30460102E+03</pdfrwt>
<totfact> 0.45448720E+03</totfact>
</mgrwt>
</event>
<event>
 4    1  0.1726503E-004  0.2447184E+03  0.7818608E-02  0.1116689E+00
          2   -1    0    0  501    0  0.00000000000E+00  0.00000000000E+00  0.27652252071E+04  0.27652252071E+04  0.00000000000E+00 0. -1.
         -2   -1    0    0    0  501 -0.00000000000E+00 -0.00000000000E+00 -0.54143042744E+01  0.54143042744E+01  0.00000000000E+00 0. -1.
         25    1    1    2    0    0 -0.30776887445E+01  0.23707071732E+02  0.13858235988E+04  0.13912147729E+04  0.12000000000E+03 0.  0.
         25    1    1    2    0    0  0.30776887445E+01 -0.23707071732E+02  0.13739873040E+04  0.13794247384E+04  0.12000000000E+03 0.  0.
<mgrwt>
<rscale>  0 0.24471837E+03</rscale>
<asrwt>0</asrwt>
<pdfrwt beam="1">  1        2 0.42541814E+00 0.24471837E+03</pdfrwt>
<pdfrwt beam="2">  1       -2 0.83297210E-03 0.24471837E+03</pdfrwt>
<totfact> 0.79294109E+03</totfact>
</mgrwt>
</event>
<event>
 4    1  0.1726503E-004  0.2876088E+03  0.7818608E-02  0.1091604E+00
          1   -1    0    0  501    0  0.00000000000E+00  0.00000000000E+00  0.52949699071E+02  0.52949699071E+02  0.00000000000E+00 0. -1.
         -1   -1    0    0    0  501 -0.00000000000E+00 -0.00000000000E+00 -0.39055391348E+03  0.39055391348E+03  0.00000000000E+00 0. -1.
         25    1    1    2    0    0  0.16983031126E+01  0.78727121282E+02 -0.18249660925E+03  0.23217634731E+03  0.12000000000E+03 0.  0.
         25    1    1    2    0    0 -0.16983031126E+01 -0.78727121282E+02 -0.15510760515E+03  0.21132726524E+03  0.12000000000E+03 0.  0.
<mgrwt>
<rscale>  0 0.28760885E+03</rscale>
<asrwt>0</asrwt>
<pdfrwt beam="1">  1        1 0.81461076E-02 0.28760885E+03</pdfrwt>
<pdfrwt beam="2">  1       -1 0.60085217E-01 0.28760885E+03</pdfrwt>
<totfact> 0.24552572E+03</totfact>
</mgrwt>
</event>
<event>
 4    1  0.1726503E-004  0.3729136E+03  0.7818608E-02  0.1053584E+00
          1   -1    0    0  501    0  0.00000000000E+00  0.00000000000E+00  0.55962377170E+03  0.55962377170E+03  0.00000000000E+00 0.  1.
         -1   -1    0    0    0  501 -0.00000000000E+00 -0.00000000000E+00 -0.62124136123E+02  0.62124136123E+02  0.00000000000E+00 0.  1.
         25    1    1    2    0    0  0.60154297369E+02 -0.10230462765E+03  0.11661016414E+03  0.20514069979E+03  0.12000000000E+03 0.  0.
         25    1    1    2    0    0 -0.60154297369E+02  0.10230462765E+03  0.38088947144E+03  0.41660720803E+03  0.12000000000E+03 0.  0.
<mgrwt>
<rscale>  0 0.37291363E+03</rscale>
<asrwt>0</asrwt>
<pdfrwt beam="1">  1        1 0.86095962E-01 0.37291363E+03</pdfrwt>
<pdfrwt beam="2">  1       -1 0.95575598E-02 0.37291363E+03</pdfrwt>
<totfact> 0.25431921E+03</totfact>
</mgrwt>
</event>
<event>
 4    1  0.1726503E-004  0.3314045E+03  0.7818608E-02  0.1070517E+00
          2   -1    0    0  501    0  0.00000000000E+00  0.00000000000E+00  0.17723765120E+04  0.17723765120E+04  0.00000000000E+00 0. -1.
         -2   -1    0    0    0  501 -0.00000000000E+00 -0.00000000000E+00 -0.15491765155E+02  0.15491765155E+02  0.00000000000E+00 0. -1.
         25    1    1    2    0    0 -0.77307897734E+02 -0.23248374017E+02  0.13147311202E+04  0.13226620567E+04  0.12000000000E+03 0.  0.
         25    1    1    2    0    0  0.77307897734E+02  0.23248374017E+02  0.44215362662E+03  0.46520622038E+03  0.12000000000E+03 0.  0.
<mgrwt>
<rscale>  0 0.33140453E+03</rscale>
<asrwt>0</asrwt>
<pdfrwt beam="1">  1        2 0.27267315E+00 0.33140453E+03</pdfrwt>
<pdfrwt beam="2">  1       -2 0.23833499E-02 0.33140453E+03</pdfrwt>
<totfact> 0.58442397E+03</totfact>
</mgrwt>
</event>
<event>
 4    1  0.1726503E-004  0.2539917E+03  0.7818608E-02  0.1110808E+00
          1   -1    0    0  501    0  0.00000000000E+00  0.00000000000E+00  0.27000919046E+03  0.27000919046E+03  0.00000000000E+00 0.  1.
         -1   -1    0    0    0  501 -0.00000000000E+00 -0.00000000000E+00 -0.59731115686E+02  0.59731115686E+02  0.00000000000E+00 0.  1.
         25    1    1    2    0    0  0.35590728441E+02  0.19328856421E+02  0.92985088920E+02  0.15711948130E+03  0.12000000000E+03 0.  0.
         25    1    1    2    0    0 -0.35590728441E+02 -0.19328856421E+02  0.11729298586E+03  0.17262082485E+03  0.12000000000E+03 0.  0.
<mgrwt>
<rscale>  0 0.25399173E+03</rscale>
<asrwt>0</asrwt>
<pdfrwt beam="1">  1        1 0.41539875E-01 0.25399173E+03</pdfrwt>
<pdfrwt beam="2">  1       -1 0.91894026E-02 0.25399173E+03</pdfrwt>
<totfact> 0.68804199E+03</totfact>
</mgrwt>
</event>
<event>
 4    1  0.1726503E-004  0.2610813E+03  0.7818608E-02  0.1106495E+00
          2   -1    0    0  501    0  0.00000000000E+00  0.00000000000E+00  0.11439378655E+03  0.11439378655E+03  0.00000000000E+00 0.  1.
         -2   -1    0    0    0  501 -0.00000000000E+00 -0.00000000000E+00 -0.14896661824E+03  0.14896661824E+03  0.00000000000E+00 0.  1.
         25    1    1    2    0    0  0.34574170399E+02  0.83558955601E+01 -0.54700105968E+02  0.13659171220E+03  0.12000000000E+03 0.  0.
         25    1    1    2    0    0 -0.34574170399E+02 -0.83558955601E+01  0.20127274278E+02  0.12676869258E+03  0.12000000000E+03 0.  0.
<mgrwt>
<rscale>  0 0.26108126E+03</rscale>
<asrwt>0</asrwt>
<pdfrwt beam="1">  1        2 0.17599044E-01 0.26108126E+03</pdfrwt>
<pdfrwt beam="2">  1       -2 0.22917941E-01 0.26108126E+03</pdfrwt>
<totfact> 0.52926702E+03</totfact>
</mgrwt>
</event>
<event>
 4    1  0.1726503E-004  0.2931323E+03  0.7818608E-02  0.1088725E+00
         -2   -1    0    0    0  501 -0.00000000000E+00  0.00000000000E+00  0.10238121674E+03  0.10238121674E+03  0.00000000000E+00 0.  1.
          2   -1    0    0  501    0  0.00000000000E+00 -0.00000000000E+00 -0.20982014303E+03  0.20982014303E+03  0.00000000000E+00 0.  1.
         25    1    1    2    0    0 -0.63013051279E+02  0.57004766086E+01 -0.11281310354E+03  0.17643677733E+03  0.12000000000E+03 0.  0.
         25    1    1    2    0    0  0.63013051279E+02 -0.57004766086E+01  0.53741772486E+01  0.13576458244E+03  0.12000000000E+03 0.  0.
<mgrwt>
<rscale>  0 0.29313234E+03</rscale>
<asrwt>0</asrwt>
<pdfrwt beam="1">  1        2 0.32280022E-01 0.29313234E+03</pdfrwt>
<pdfrwt beam="2">  1       -2 0.15750957E-01 0.29313234E+03</pdfrwt>
<totfact> 0.50821167E+03</totfact>
</mgrwt>
</event>
<event>
 4    1  0.1726503E-004  0.3554661E+03  0.7818608E-02  0.1060394E+00
          1   -1    0    0  501    0  0.00000000000E+00  0.00000000000E+00  0.37770993561E+03  0.37770993561E+03  0.00000000000E+00 0.  1.
         -1   -1    0    0    0  501 -0.00000000000E+00 -0.00000000000E+00 -0.83633038505E+02  0.83633038505E+02  0.00000000000E+00 0.  1.
         25    1    1    2    0    0  0.23500054158E+02 -0.72876841238E+02  0.89176357552E+01  0.14262822568E+03  0.12000000000E+03 0.  0.
         25    1    1    2    0    0 -0.23500054158E+02  0.72876841238E+02  0.28515926134E+03  0.31871474843E+03  0.12000000000E+03 0.  0.
<mgrwt>
<rscale>  0 0.35546606E+03</rscale>
<asrwt>0</asrwt>
<pdfrwt beam="1">  1        1 0.58109220E-01 0.35546606E+03</pdfrwt>
<pdfrwt beam="2">  1       -1 0.12866621E-01 0.35546606E+03</pdfrwt>
<totfact> 0.26861260E+03</totfact>
</mgrwt>
</event>
<event>
 4    1  0.1726503E-004  0.2887883E+03  0.7818608E-02  0.1090983E+00
          2   -1    0    0  501    0  0.00000000000E+00  0.00000000000E+00  0.14099417777E+03  0.14099417777E+03  0.00000000000E+00 0. -1.
         -2   -1    0    0    0  501 -0.00000000000E+00 -0.00000000000E+00 -0.14787613439E+03  0.14787613439E+03  0.00000000000E+00 0. -1.
         25    1    1    2    0    0 -0.73107567660E+02  0.15877000103E+01  0.29771410977E+02  0.14364391443E+03  0.12000000000E+03 0.  0.
         25    1    1    2    0    0  0.73107567660E+02 -0.15877000103E+01 -0.36653367597E+02  0.14522639773E+03  0.12000000000E+03 0.  0.
<mgrwt>
<rscale>  0 0.28878832E+03</rscale>
<asrwt>0</asrwt>
<pdfrwt beam="1">  1        2 0.21691412E-01 0.28878832E+03</pdfrwt>
<pdfrwt beam="2">  1       -2 0.22750174E-01 0.28878832E+03</pdfrwt>
<totfact> 0.42308006E+03</totfact>
</mgrwt>
</event>
<event>
 4    1  0.1726503E-004  0.2412340E+03  0.7818608E-02  0.1118973E+00
         -4   -1    0    0    0  501 -0.00000000000E+00  0.00000000000E+00  0.26839253316E+03  0.26839253316E+03  0.00000000000E+00 0.  1.
          4   -1    0    0  501    0  0.00000000000E+00 -0.00000000000E+00 -0.54205922080E+02  0.54205922080E+02  0.00000000000E+00 0.  1.
         25    1    1    2    0    0 -0.23380773050E+01 -0.25675632988E+01  0.12271183163E+03  0.17166902053E+03  0.12000000000E+03 0.  0.
         25    1    1    2    0    0  0.23380773050E+01  0.25675632988E+01  0.91474779446E+02  0.15092943471E+03  0.12000000000E+03 0.  0.
<mgrwt>
<rscale>  0 0.24123403E+03</rscale>
<asrwt>0</asrwt>
<pdfrwt beam="1">  1        4 0.83393727E-02 0.24123403E+03</pdfrwt>
<pdfrwt beam="2">  1       -4 0.41291158E-01 0.24123403E+03</pdfrwt>
<totfact> 0.10828987E+03</totfact>
</mgrwt>
</event>
<event>
 4    1  0.1726503E-004  0.3206280E+03  0.7818608E-02  0.1075361E+00
          2   -1    0    0  501    0  0.00000000000E+00  0.00000000000E+00  0.21698165264E+04  0.21698165264E+04  0.00000000000E+00 0.  1.
         -2   -1    0    0    0  501 -0.00000000000E+00 -0.00000000000E+00 -0.11844589000E+02  0.11844589000E+02  0.00000000000E+00 0.  1.
         25    1    1    2    0    0  0.96471815588E+02 -0.43204848201E+02  0.11557016130E+04  0.11667131989E+04  0.12000000000E+03 0.  0.
         25    1    1    2    0    0 -0.96471815588E+02  0.43204848201E+02  0.10022703244E+04  0.10149479166E+04  0.12000000000E+03 0.  0.
<mgrwt>
<rscale>  0 0.32062804E+03</rscale>
<asrwt>0</asrwt>
<pdfrwt beam="1">  1        2 0.33381761E+00 0.32062804E+03</pdfrwt>
<pdfrwt beam="2">  1       -2 0.18222462E-02 0.32062804E+03</pdfrwt>
<totfact> 0.53549316E+03</totfact>
</mgrwt>
</event>
<event>
 4    1  0.1726503E-004  0.3034858E+03  0.7818608E-02  0.1083511E+00
         -2   -1    0    0    0  501 -0.00000000000E+00  0.00000000000E+00  0.66763203256E+02  0.66763203256E+02  0.00000000000E+00 0. -1.
          2   -1    0    0  501    0  0.00000000000E+00 -0.00000000000E+00 -0.34488916844E+03  0.34488916844E+03  0.00000000000E+00 0. -1.
         25    1    1    2    0    0  0.60120624743E+02  0.52676004042E+02 -0.74913709454E+02  0.16248481401E+03  0.12000000000E+03 0.  0.
         25    1    1    2    0    0 -0.60120624743E+02 -0.52676004042E+02 -0.20321225573E+03  0.24916755768E+03  0.12000000000E+03 0.  0.
<mgrwt>
<rscale>  0 0.30348579E+03</rscale>
<asrwt>0</asrwt>
<pdfrwt beam="1">  1        2 0.53059872E-01 0.30348579E+03</pdfrwt>
<pdfrwt beam="2">  1       -2 0.10271262E-01 0.30348579E+03</pdfrwt>
<totfact> 0.59584498E+03</totfact>
</mgrwt>
</event>
<event>
 4    1  0.1726503E-004  0.2600371E+03  0.7818608E-02  0.1107121E+00
         -1   -1    0    0    0  501 -0.00000000000E+00  0.00000000000E+00  0.35955907845E+02  0.35955907845E+02  0.00000000000E+00 0.  1.
          1   -1    0    0  501    0  0.00000000000E+00 -0.00000000000E+00 -0.47015434703E+03  0.47015434703E+03  0.00000000000E+00 0.  1.
         25    1    1    2    0    0 -0.38650860251E+02  0.26583825378E+02 -0.25104737883E+03  0.28217968599E+03  0.12000000000E+03 0.  0.
         25    1    1    2    0    0  0.38650860251E+02 -0.26583825378E+02 -0.18315106035E+03  0.22393056888E+03  0.12000000000E+03 0.  0.
<mgrwt>
<rscale>  0 0.26003712E+03</rscale>
<asrwt>0</asrwt>
<pdfrwt beam="1">  1        1 0.72331434E-01 0.26003712E+03</pdfrwt>
<pdfrwt beam="2">  1       -1 0.55316784E-02 0.26003712E+03</pdfrwt>
<totfact> 0.73487405E+03</totfact>
</mgrwt>
</event>
<event>
 4    1  0.1726503E-004  0.2634446E+03  0.7818608E-02  0.1105091E+00
          2   -1    0    0  501    0  0.00000000000E+00  0.00000000000E+00  0.25601727529E+04  0.25601727529E+04  0.00000000000E+00 0. -1.
         -2   -1    0    0    0  501 -0.00000000000E+00 -0.00000000000E+00 -0.67771857510E+01  0.67771857510E+01  0.00000000000E+00 0. -1.
         25    1    1    2    0    0 -0.17323158628E+02  0.51295168300E+02  0.12336922232E+04  0.12406964930E+04  0.12000000000E+03 0.  0.
         25    1    1    2    0    0  0.17323158628E+02 -0.51295168300E+02  0.13197033439E+04  0.13262534456E+04  0.12000000000E+03 0.  0.
<mgrwt>
<rscale>  0 0.26344462E+03</rscale>
<asrwt>0</asrwt>
<pdfrwt beam="1">  1        2 0.39387196E+00 0.26344462E+03</pdfrwt>
<pdfrwt beam="2">  1       -2 0.10426460E-02 0.26344462E+03</pdfrwt>
<totfact> 0.74563823E+03</totfact>
</mgrwt>
</event>
<event>
 4    1  0.1726503E-004  0.2954173E+03  0.7818608E-02  0.1087554E+00
          1   -1    0    0  501    0  0.00000000000E+00  0.00000000000E+00  0.15353638891E+03  0.15353638891E+03  0.00000000000E+00 0.  1.
         -1   -1    0    0    0  501 -0.00000000000E+00 -0.00000000000E+00 -0.14210208124E+03  0.14210208124E+03  0.00000000000E+00 0.  1.
         25    1    1    2    0    0  0.60832019660E+02  0.17906631922E+02 -0.52607343127E+02  0.14556343852E+03  0.12000000000E+03 0.  0.
         25    1    1    2    0    0 -0.60832019660E+02 -0.17906631922E+02  0.64041650802E+02  0.15007503163E+03  0.12000000000E+03 0.  0.
<mgrwt>
<rscale>  0 0.29541727E+03</rscale>
<asrwt>0</asrwt>
<pdfrwt beam="1">  1        1 0.23620983E-01 0.29541727E+03</pdfrwt>
<pdfrwt beam="2">  1       -1 0.21861859E-01 0.29541727E+03</pdfrwt>
<totfact> 0.35747369E+03</totfact>
</mgrwt>
</event>
<event>
 4    1  0.1726503E-004  0.2764756E+03  0.7818608E-02  0.1097630E+00
          1   -1    0    0  501    0  0.00000000000E+00  0.00000000000E+00  0.18299197266E+04  0.18299197266E+04  0.00000000000E+00 0. -1.
         -1   -1    0    0    0  501 -0.00000000000E+00 -0.00000000000E+00 -0.10442910228E+02  0.10442910228E+02  0.00000000000E+00 0. -1.
         25    1    1    2    0    0 -0.32079308516E+02 -0.20172760961E+01  0.50612458564E+03  0.52114800933E+03  0.12000000000E+03 0.  0.
         25    1    1    2    0    0  0.32079308516E+02  0.20172760961E+01  0.13133522307E+04  0.13192146274E+04  0.12000000000E+03 0.  0.
<mgrwt>
<rscale>  0 0.27647559E+03</rscale>
<asrwt>0</asrwt>
<pdfrwt beam="1">  1        1 0.28152586E+00 0.27647559E+03</pdfrwt>
<pdfrwt beam="2">  1       -1 0.16066030E-02 0.27647559E+03</pdfrwt>
<totfact> 0.41087779E+03</totfact>
</mgrwt>
</event>
<event>
 4    1  0.1726503E-004  0.2879699E+03  0.7818608E-02  0.1091414E+00
         -2   -1    0    0    0  501 -0.00000000000E+00  0.00000000000E+00  0.18739369193E+02  0.18739369193E+02  0.00000000000E+00 0.  1.
          2   -1    0    0  501    0  0.00000000000E+00 -0.00000000000E+00 -0.11063160326E+04  0.11063160326E+04  0.00000000000E+00 0.  1.
         25    1    1    2    0    0  0.49317798076E+02  0.61822988655E+02 -0.57814584613E+03  0.59574067054E+03  0.12000000000E+03 0.  0.
         25    1    1    2    0    0 -0.49317798076E+02 -0.61822988655E+02 -0.50943081723E+03  0.52931473121E+03  0.12000000000E+03 0.  0.
<mgrwt>
<rscale>  0 0.28796989E+03</rscale>
<asrwt>0</asrwt>
<pdfrwt beam="1">  1        2 0.17020250E+00 0.28796989E+03</pdfrwt>
<pdfrwt beam="2">  1       -2 0.28829794E-02 0.28796989E+03</pdfrwt>
<totfact> 0.10179271E+04</totfact>
</mgrwt>
</event>
<event>
 4    1  0.1726503E-004  0.3476076E+03  0.7818608E-02  0.1063601E+00
          1   -1    0    0  501    0  0.00000000000E+00  0.00000000000E+00  0.16486317637E+02  0.16486317637E+02  0.00000000000E+00 0.  1.
         -1   -1    0    0    0  501 -0.00000000000E+00 -0.00000000000E+00 -0.18322926860E+04  0.18322926860E+04  0.00000000000E+00 0.  1.
         25    1    1    2    0    0 -0.96151592162E+02  0.74355533220E+02 -0.10789172824E+04  0.10923535949E+04  0.12000000000E+03 0.  0.
         25    1    1    2    0    0  0.96151592162E+02 -0.74355533220E+02 -0.73688908600E+03  0.75642540879E+03  0.12000000000E+03 0.  0.
<mgrwt>
<rscale>  0 0.34760759E+03</rscale>
<asrwt>0</asrwt>
<pdfrwt beam="1">  1        1 0.25363560E-02 0.34760759E+03</pdfrwt>
<pdfrwt beam="2">  1       -1 0.28189124E+00 0.34760759E+03</pdfrwt>
<totfact> 0.21538268E+02</totfact>
</mgrwt>
</event>
<event>
 4    1  0.1726503E-004  0.4765218E+03  0.7818608E-02  0.1020095E+00
          1   -1    0    0  501    0  0.00000000000E+00  0.00000000000E+00  0.74783732711E+02  0.74783732711E+02  0.00000000000E+00 0.  1.
         -1   -1    0    0    0  501 -0.00000000000E+00 -0.00000000000E+00 -0.75909893911E+03  0.75909893911E+03  0.00000000000E+00 0.  1.
         25    1    1    2    0    0 -0.35182407228E+02 -0.17102668292E+03 -0.15141999313E+03  0.26041494267E+03  0.12000000000E+03 0.  0.
         25    1    1    2    0    0  0.35182407228E+02  0.17102668292E+03 -0.53289521327E+03  0.57346772914E+03  0.12000000000E+03 0.  0.
<mgrwt>
<rscale>  0 0.47652178E+03</rscale>
<asrwt>0</asrwt>
<pdfrwt beam="1">  1        1 0.11505189E-01 0.47652178E+03</pdfrwt>
<pdfrwt beam="2">  1       -1 0.11678446E+00 0.47652178E+03</pdfrwt>
<totfact> 0.37301885E+02</totfact>
</mgrwt>
</event>
<event>
 4    1  0.1726503E-004  0.3568279E+03  0.7818608E-02  0.1059847E+00
         -2   -1    0    0    0  501 -0.00000000000E+00  0.00000000000E+00  0.66380565719E+02  0.66380565719E+02  0.00000000000E+00 0.  1.
          2   -1    0    0  501    0  0.00000000000E+00 -0.00000000000E+00 -0.47953105810E+03  0.47953105810E+03  0.00000000000E+00 0.  1.
         25    1    1    2    0    0  0.27105920081E+01 -0.74456171787E+02 -0.39819661786E+02  0.14675378800E+03  0.12000000000E+03 0.  0.
         25    1    1    2    0    0 -0.27105920081E+01  0.74456171787E+02 -0.37333083059E+03  0.39915783582E+03  0.12000000000E+03 0.  0.
<mgrwt>
<rscale>  0 0.35682793E+03</rscale>
<asrwt>0</asrwt>
<pdfrwt beam="1">  1        2 0.73774009E-01 0.35682793E+03</pdfrwt>
<pdfrwt beam="2">  1       -2 0.10212395E-01 0.35682793E+03</pdfrwt>
<totfact> 0.42042011E+03</totfact>
</mgrwt>
</event>
<event>
 4    1  0.1726503E-004  0.3989764E+03  0.7818608E-02  0.1044135E+00
          2   -1    0    0  501    0  0.00000000000E+00  0.00000000000E+00  0.26268909774E+03  0.26268909774E+03  0.00000000000E+00 0. -1.
         -2   -1    0    0    0  501 -0.00000000000E+00 -0.00000000000E+00 -0.15149294045E+03  0.15149294045E+03  0.00000000000E+00 0. -1.
         25    1    1    2    0    0  0.14521234361E+02  0.10595945498E+03 -0.67045356556E+02  0.17416472715E+03  0.12000000000E+03 0.  0.
         25    1    1    2    0    0 -0.14521234361E+02 -0.10595945498E+03  0.17824151384E+03  0.24001731104E+03  0.12000000000E+03 0.  0.
<mgrwt>
<rscale>  0 0.39897641E+03</rscale>
<asrwt>0</asrwt>
<pdfrwt beam="1">  1        2 0.40413707E-01 0.39897641E+03</pdfrwt>
<pdfrwt beam="2">  1       -2 0.23306606E-01 0.39897641E+03</pdfrwt>
<totfact> 0.20471712E+03</totfact>
</mgrwt>
</event>
<event>
 4    1  0.1726503E-004  0.3098503E+03  0.7818608E-02  0.1080418E+00
         -1   -1    0    0    0  501 -0.00000000000E+00  0.00000000000E+00  0.42905856974E+02  0.42905856974E+02  0.00000000000E+00 0.  1.
          1   -1    0    0  501    0  0.00000000000E+00 -0.00000000000E+00 -0.55940628694E+03  0.55940628694E+03  0.00000000000E+00 0.  1.
         25    1    1    2    0    0  0.36641387737E+02  0.81162068007E+02 -0.33773411523E+03  0.36931586098E+03  0.12000000000E+03 0.  0.
         25    1    1    2    0    0 -0.36641387737E+02 -0.81162068007E+02 -0.17876631473E+03  0.23299628294E+03  0.12000000000E+03 0.  0.
<mgrwt>
<rscale>  0 0.30985033E+03</rscale>
<asrwt>0</asrwt>
<pdfrwt beam="1">  1        1 0.86062503E-01 0.30985033E+03</pdfrwt>
<pdfrwt beam="2">  1       -1 0.66009013E-02 0.30985033E+03</pdfrwt>
<totfact> 0.44810718E+03</totfact>
</mgrwt>
</event>
<event>
 4    1  0.1726503E-004  0.2415590E+03  0.7818608E-02  0.1118759E+00
         -2   -1    0    0    0  501 -0.00000000000E+00  0.00000000000E+00  0.23695104141E+02  0.23695104141E+02  0.00000000000E+00 0. -1.
          2   -1    0    0  501    0  0.00000000000E+00 -0.00000000000E+00 -0.61564127095E+03  0.61564127095E+03  0.00000000000E+00 0. -1.
         25    1    1    2    0    0 -0.81317189348E+01 -0.88135194639E+01 -0.31350561993E+03  0.33590114127E+03  0.12000000000E+03 0.  0.
         25    1    1    2    0    0  0.81317189348E+01  0.88135194639E+01 -0.27844054688E+03  0.30343523382E+03  0.12000000000E+03 0.  0.
<mgrwt>
<rscale>  0 0.24155897E+03</rscale>
<asrwt>0</asrwt>
<pdfrwt beam="1">  1        2 0.94714049E-01 0.24155897E+03</pdfrwt>
<pdfrwt beam="2">  1       -2 0.36454004E-02 0.24155897E+03</pdfrwt>
<totfact> 0.15280150E+04</totfact>
</mgrwt>
</event>
<event>
 4    1  0.1726503E-004  0.3026120E+03  0.7818608E-02  0.1083942E+00
          1   -1    0    0  501    0  0.00000000000E+00  0.00000000000E+00  0.32597480135E+02  0.32597480135E+02  0.00000000000E+00 0. -1.
         -1   -1    0    0    0  501 -0.00000000000E+00 -0.00000000000E+00 -0.70230905855E+03  0.70230905855E+03  0.00000000000E+00 0. -1.
         25    1    1    2    0    0 -0.19799439804E+02 -0.40038002989E+02 -0.53062785617E+03  0.54585802297E+03  0.12000000000E+03 0.  0.
         25    1    1    2    0    0  0.19799439804E+02  0.40038002989E+02 -0.13908372225E+03  0.18904851572E+03  0.12000000000E+03 0.  0.
<mgrwt>
<rscale>  0 0.30261200E+03</rscale>
<asrwt>0</asrwt>
<pdfrwt beam="1">  1        1 0.50149967E-02 0.30261200E+03</pdfrwt>
<pdfrwt beam="2">  1       -1 0.10804755E+00 0.30261200E+03</pdfrwt>
<totfact> 0.14036610E+03</totfact>
</mgrwt>
</event>
<event>
 4    1  0.1726503E-004  0.5477828E+03  0.7818608E-02  0.1002008E+00
         -1   -1    0    0    0  501 -0.00000000000E+00  0.00000000000E+00  0.59246112589E+02  0.59246112589E+02  0.00000000000E+00 0.  1.
          1   -1    0    0  501    0  0.00000000000E+00 -0.00000000000E+00 -0.12661844998E+04  0.12661844998E+04  0.00000000000E+00 0.  1.
         25    1    1    2    0    0 -0.76026132448E+02  0.23406751939E+03 -0.58654338521E+03  0.64730264883E+03  0.12000000000E+03 0.  0.
         25    1    1    2    0    0  0.76026132448E+02 -0.23406751939E+03 -0.62039500200E+03  0.67812796355E+03  0.12000000000E+03 0.  0.
<mgrwt>
<rscale>  0 0.54778284E+03</rscale>
<asrwt>0</asrwt>
<pdfrwt beam="1">  1        1 0.19479762E+00 0.54778284E+03</pdfrwt>
<pdfrwt beam="2">  1       -1 0.91147865E-02 0.54778284E+03</pdfrwt>
<totfact> 0.71397555E+02</totfact>
</mgrwt>
</event>
<event>
 4    1  0.1726503E-004  0.2555102E+03  0.7818608E-02  0.1109871E+00
          2   -1    0    0  501    0  0.00000000000E+00  0.00000000000E+00  0.23038950160E+04  0.23038950160E+04  0.00000000000E+00 0.  1.
         -2   -1    0    0    0  501 -0.00000000000E+00 -0.00000000000E+00 -0.70842473896E+01  0.70842473896E+01  0.00000000000E+00 0.  1.
         25    1    1    2    0    0  0.37809196938E+02 -0.90178468685E+01  0.13316567604E+04  0.13376175031E+04  0.12000000000E+03 0.  0.
         25    1    1    2    0    0 -0.37809196938E+02  0.90178468685E+01  0.96515400821E+03  0.97336176034E+03  0.12000000000E+03 0.  0.
<mgrwt>
<rscale>  0 0.25551017E+03</rscale>
<asrwt>0</asrwt>
<pdfrwt beam="1">  1        2 0.35444479E+00 0.25551017E+03</pdfrwt>
<pdfrwt beam="2">  1       -2 0.10898861E-02 0.25551017E+03</pdfrwt>
<totfact> 0.96306603E+03</totfact>
</mgrwt>
</event>
<event>
 4    1  0.1726503E-004  0.2428212E+03  0.7818608E-02  0.1117928E+00
         -2   -1    0    0    0  501 -0.00000000000E+00  0.00000000000E+00  0.19912548106E+02  0.19912548106E+02  0.00000000000E+00 0. -1.
          2   -1    0    0  501    0  0.00000000000E+00 -0.00000000000E+00 -0.74026342732E+03  0.74026342732E+03  0.00000000000E+00 0. -1.
         25    1    1    2    0    0 -0.12045254862E+02  0.30969893710E+01 -0.40285409522E+03  0.42053073793E+03  0.12000000000E+03 0.  0.
         25    1    1    2    0    0  0.12045254862E+02 -0.30969893710E+01 -0.31749678399E+03  0.33964523750E+03  0.12000000000E+03 0.  0.
<mgrwt>
<rscale>  0 0.24282118E+03</rscale>
<asrwt>0</asrwt>
<pdfrwt beam="1">  1        2 0.11388666E+00 0.24282118E+03</pdfrwt>
<pdfrwt beam="2">  1       -2 0.30634695E-02 0.24282118E+03</pdfrwt>
<totfact> 0.15886644E+04</totfact>
</mgrwt>
</event>
<event>
 4    1  0.1726503E-004  0.2955982E+03  0.7818608E-02  0.1087462E+00
         -2   -1    0    0    0  501 -0.00000000000E+00  0.00000000000E+00  0.45621526912E+02  0.45621526912E+02  0.00000000000E+00 0.  1.
          2   -1    0    0  501    0  0.00000000000E+00 -0.00000000000E+00 -0.47882149303E+03  0.47882149303E+03  0.00000000000E+00 0.  1.
         25    1    1    2    0    0 -0.16782403091E+02 -0.24848052490E+02 -0.73061694348E+02  0.14365613787E+03  0.12000000000E+03 0.  0.
         25    1    1    2    0    0  0.16782403091E+02  0.24848052490E+02 -0.36013827177E+03  0.38078688208E+03  0.12000000000E+03 0.  0.
<mgrwt>
<rscale>  0 0.29559816E+03</rscale>
<asrwt>0</asrwt>
<pdfrwt beam="1">  1        2 0.73664850E-01 0.29559816E+03</pdfrwt>
<pdfrwt beam="2">  1       -2 0.70186959E-02 0.29559816E+03</pdfrwt>
<totfact> 0.75683964E+03</totfact>
</mgrwt>
</event>
<event>
 4    1  0.1726503E-004  0.2623132E+03  0.7818608E-02  0.1105761E+00
         -1   -1    0    0    0  501 -0.00000000000E+00  0.00000000000E+00  0.53952924224E+02  0.53952924224E+02  0.00000000000E+00 0. -1.
          1   -1    0    0  501    0  0.00000000000E+00 -0.00000000000E+00 -0.31883446025E+03  0.31883446025E+03  0.00000000000E+00 0. -1.
         25    1    1    2    0    0 -0.15516841316E+02 -0.42994024442E+02 -0.94498543089E+02  0.15943410284E+03  0.12000000000E+03 0.  0.
         25    1    1    2    0    0  0.15516841316E+02  0.42994024442E+02 -0.17038299294E+03  0.21335328164E+03  0.12000000000E+03 0.  0.
<mgrwt>
<rscale>  0 0.26231318E+03</rscale>
<asrwt>0</asrwt>
<pdfrwt beam="1">  1        1 0.49051454E-01 0.26231318E+03</pdfrwt>
<pdfrwt beam="2">  1       -1 0.83004502E-02 0.26231318E+03</pdfrwt>
<totfact> 0.65350076E+03</totfact>
</mgrwt>
</event>
<event>
 4    1  0.1726503E-004  0.3595809E+03  0.7818608E-02  0.1058750E+00
          1   -1    0    0  501    0  0.00000000000E+00  0.00000000000E+00  0.64364332524E+03  0.64364332524E+03  0.00000000000E+00 0. -1.
         -1   -1    0    0    0  501 -0.00000000000E+00 -0.00000000000E+00 -0.50221289016E+02  0.50221289016E+02  0.00000000000E+00 0. -1.
         25    1    1    2    0    0 -0.34981725864E+02 -0.88465896141E+02  0.11492767715E+03  0.19146359158E+03  0.12000000000E+03 0.  0.
         25    1    1    2    0    0  0.34981725864E+02  0.88465896141E+02  0.47849435907E+03  0.50240102268E+03  0.12000000000E+03 0.  0.
<mgrwt>
<rscale>  0 0.35958085E+03</rscale>
<asrwt>0</asrwt>
<pdfrwt beam="1">  1        1 0.99022044E-01 0.35958085E+03</pdfrwt>
<pdfrwt beam="2">  1       -1 0.77263526E-02 0.35958085E+03</pdfrwt>
<totfact> 0.29015924E+03</totfact>
</mgrwt>
</event>
<event>
 4    1  0.1726503E-004  0.3223596E+03  0.7818608E-02  0.1074568E+00
          1   -1    0    0  501    0  0.00000000000E+00  0.00000000000E+00  0.17965811250E+03  0.17965811250E+03  0.00000000000E+00 0. -1.
         -1   -1    0    0    0  501 -0.00000000000E+00 -0.00000000000E+00 -0.14460200730E+03  0.14460200730E+03  0.00000000000E+00 0. -1.
         25    1    1    2    0    0 -0.10381177740E+03 -0.25632229266E+02  0.29641785264E+02  0.16343968838E+03  0.12000000000E+03 0.  0.
         25    1    1    2    0    0  0.10381177740E+03  0.25632229266E+02  0.54143199373E+01  0.16082043143E+03  0.12000000000E+03 0.  0.
<mgrwt>
<rscale>  0 0.32235957E+03</rscale>
<asrwt>0</asrwt>
<pdfrwt beam="1">  1        1 0.27639710E-01 0.32235957E+03</pdfrwt>
<pdfrwt beam="2">  1       -1 0.22246463E-01 0.32235957E+03</pdfrwt>
<totfact> 0.28479365E+03</totfact>
</mgrwt>
</event>
<event>
 4    1  0.1726503E-004  0.3566318E+03  0.7818608E-02  0.1059926E+00
         -3   -1    0    0    0  501 -0.00000000000E+00  0.00000000000E+00  0.87173649572E+03  0.87173649572E+03  0.00000000000E+00 0.  1.
          3   -1    0    0  501    0  0.00000000000E+00 -0.00000000000E+00 -0.36474960985E+02  0.36474960985E+02  0.00000000000E+00 0.  1.
         25    1    1    2    0    0  0.10337023319E+03 -0.18681469116E+02  0.62075838635E+03  0.64091760517E+03  0.12000000000E+03 0.  0.
         25    1    1    2    0    0 -0.10337023319E+03  0.18681469116E+02  0.21450314838E+03  0.26729385153E+03  0.12000000000E+03 0.  0.
<mgrwt>
<rscale>  0 0.35663177E+03</rscale>
<asrwt>0</asrwt>
<pdfrwt beam="1">  1        3 0.56115331E-02 0.35663177E+03</pdfrwt>
<pdfrwt beam="2">  1       -3 0.13411329E+00 0.35663177E+03</pdfrwt>
<totfact> 0.22067992E+02</totfact>
</mgrwt>
</event>
<event>
 4    1  0.1726503E-004  0.3025978E+03  0.7818608E-02  0.1083949E+00
          2   -1    0    0  501    0  0.00000000000E+00  0.00000000000E+00  0.30612551388E+04  0.30612551388E+04  0.00000000000E+00 0.  1.
         -2   -1    0    0    0  501 -0.00000000000E+00 -0.00000000000E+00 -0.74777676574E+01  0.74777676574E+01  0.00000000000E+00 0.  1.
         25    1    1    2    0    0 -0.68361940067E+02 -0.20885492113E+02  0.21166374682E+04  0.21212410826E+04  0.12000000000E+03 0.  0.
         25    1    1    2    0    0  0.68361940067E+02  0.20885492113E+02  0.93713990297E+03  0.94749182391E+03  0.12000000000E+03 0.  0.
<mgrwt>
<rscale>  0 0.30259778E+03</rscale>
<asrwt>0</asrwt>
<pdfrwt beam="1">  1        2 0.47096133E+00 0.30259778E+03</pdfrwt>
<pdfrwt beam="2">  1       -2 0.11504282E-02 0.30259778E+03</pdfrwt>
<totfact> 0.33221186E+03</totfact>
</mgrwt>
</event>
<event>
 4    1  0.1726503E-004  0.3198982E+03  0.7818608E-02  0.1075696E+00
         -4   -1    0    0    0  501 -0.00000000000E+00  0.00000000000E+00  0.12065838648E+03  0.12065838648E+03  0.00000000000E+00 0. -1.
          4   -1    0    0  501    0  0.00000000000E+00 -0.00000000000E+00 -0.21203422676E+03  0.21203422676E+03  0.00000000000E+00 0. -1.
         25    1    1    2    0    0  0.17717742832E+02  0.65306332020E+02  0.38832886293E+02  0.14313220627E+03  0.12000000000E+03 0.  0.
         25    1    1    2    0    0 -0.17717742832E+02 -0.65306332020E+02 -0.13020872658E+03  0.18956040697E+03  0.12000000000E+03 0.  0.
<mgrwt>
<rscale>  0 0.31989816E+03</rscale>
<asrwt>0</asrwt>
<pdfrwt beam="1">  1        4 0.32620650E-01 0.31989816E+03</pdfrwt>
<pdfrwt beam="2">  1       -4 0.18562829E-01 0.31989816E+03</pdfrwt>
<totfact> 0.44609610E+02</totfact>
</mgrwt>
</event>
<event>
 4    1  0.1726503E-004  0.2890817E+03  0.7818608E-02  0.1090830E+00
          2   -1    0    0  501    0  0.00000000000E+00  0.00000000000E+00  0.25474495237E+04  0.25474495237E+04  0.00000000000E+00 0.  1.
         -2   -1    0    0    0  501 -0.00000000000E+00 -0.00000000000E+00 -0.82011685192E+01  0.82011685192E+01  0.00000000000E+00 0.  1.
         25    1    1    2    0    0 -0.20008517840E+02  0.39777505494E+02  0.18632922445E+04  0.18676832117E+04  0.12000000000E+03 0.  0.
         25    1    1    2    0    0  0.20008517840E+02 -0.39777505494E+02  0.67595611063E+03  0.68796748050E+03  0.12000000000E+03 0.  0.
<mgrwt>
<rscale>  0 0.28908174E+03</rscale>
<asrwt>0</asrwt>
<pdfrwt beam="1">  1        2 0.39191468E+00 0.28908174E+03</pdfrwt>
<pdfrwt beam="2">  1       -2 0.12617203E-02 0.28908174E+03</pdfrwt>
<totfact> 0.57371507E+03</totfact>
</mgrwt>
</event>
<event>
 4    1  0.1726503E-004  0.3217446E+03  0.7818608E-02  0.1074849E+00
         -2   -1    0    0    0  501 -0.00000000000E+00  0.00000000000E+00  0.12622124496E+04  0.12622124496E+04  0.00000000000E+00 0.  1.
          2   -1    0    0  501    0  0.00000000000E+00 -0.00000000000E+00 -0.20503592145E+02  0.20503592145E+02  0.00000000000E+00 0.  1.
         25    1    1    2    0    0  0.11186895996E+02  0.10655249338E+03  0.62541535045E+03  0.64577313436E+03  0.12000000000E+03 0.  0.
         25    1    1    2    0    0 -0.11186895996E+02 -0.10655249338E+03  0.61629350705E+03  0.63694290742E+03  0.12000000000E+03 0.  0.
<mgrwt>
<rscale>  0 0.32174455E+03</rscale>
<asrwt>0</asrwt>
<pdfrwt beam="1">  1        2 0.31543998E-02 0.32174455E+03</pdfrwt>
<pdfrwt beam="2">  1       -2 0.19418647E+00 0.32174455E+03</pdfrwt>
<totfact> 0.46048372E+02</totfact>
</mgrwt>
</event>
<event>
 4    1  0.1726503E-004  0.3011925E+03  0.7818608E-02  0.1084646E+00
          2   -1    0    0  501    0  0.00000000000E+00  0.00000000000E+00  0.14884607616E+04  0.14884607616E+04  0.00000000000E+00 0.  1.
         -2   -1    0    0    0  501 -0.00000000000E+00 -0.00000000000E+00 -0.15236704533E+02  0.15236704533E+02  0.00000000000E+00 0.  1.
         25    1    1    2    0    0  0.47415732493E+01 -0.71778800705E+02  0.45843827608E+03  0.47931235298E+03  0.12000000000E+03 0.  0.
         25    1    1    2    0    0 -0.47415732493E+01  0.71778800705E+02  0.10147857810E+04  0.10243851132E+04  0.12000000000E+03 0.  0.
<mgrwt>
<rscale>  0 0.30119254E+03</rscale>
<asrwt>0</asrwt>
<pdfrwt beam="1">  1        2 0.22899385E+00 0.30119254E+03</pdfrwt>
<pdfrwt beam="2">  1       -2 0.23441096E-02 0.30119254E+03</pdfrwt>
<totfact> 0.84773229E+03</totfact>
</mgrwt>
</event>
<event>
 4    1  0.1726503E-004  0.2520083E+03  0.7818608E-02  0.1112042E+00
          2   -1    0    0  501    0  0.00000000000E+00  0.00000000000E+00  0.33662931437E+03  0.33662931437E+03  0.00000000000E+00 0. -1.
         -2   -1    0    0    0  501 -0.00000000000E+00 -0.00000000000E+00 -0.47164770634E+02  0.47164770634E+02  0.00000000000E+00 0. -1.
         25    1    1    2    0    0 -0.25077916538E+02 -0.21261759016E+02  0.11442303743E+03  0.16903726154E+03  0.12000000000E+03 0.  0.
         25    1    1    2    0    0  0.25077916538E+02  0.21261759016E+02  0.17504150631E+03  0.21475682347E+03  0.12000000000E+03 0.  0.
<mgrwt>
<rscale>  0 0.25200829E+03</rscale>
<asrwt>0</asrwt>
<pdfrwt beam="1">  1        2 0.51789124E-01 0.25200829E+03</pdfrwt>
<pdfrwt beam="2">  1       -2 0.72561188E-02 0.25200829E+03</pdfrwt>
<totfact> 0.10488111E+04</totfact>
</mgrwt>
</event>
<event>
 4    1  0.1726503E-004  0.2561600E+03  0.7818608E-02  0.1109473E+00
         -2   -1    0    0    0  501 -0.00000000000E+00  0.00000000000E+00  0.20287428799E+03  0.20287428799E+03  0.00000000000E+00 0. -1.
          2   -1    0    0  501    0  0.00000000000E+00 -0.00000000000E+00 -0.80860365758E+02  0.80860365758E+02  0.00000000000E+00 0. -1.
         25    1    1    2    0    0  0.31028082416E+02 -0.31130643445E+02  0.70446697375E+02  0.14592668033E+03  0.12000000000E+03 0.  0.
         25    1    1    2    0    0 -0.31028082416E+02  0.31130643445E+02  0.51567224859E+02  0.13780797342E+03  0.12000000000E+03 0.  0.
<mgrwt>
<rscale>  0 0.25616002E+03</rscale>
<asrwt>0</asrwt>
<pdfrwt beam="1">  1        2 0.12440056E-01 0.25616002E+03</pdfrwt>
<pdfrwt beam="2">  1       -2 0.31211429E-01 0.25616002E+03</pdfrwt>
<totfact> 0.46030571E+03</totfact>
</mgrwt>
</event>
<event>
 4    1  0.1726503E-004  0.2511033E+03  0.7818608E-02  0.1112610E+00
         -1   -1    0    0    0  501 -0.00000000000E+00  0.00000000000E+00  0.60352428192E+02  0.60352428192E+02  0.00000000000E+00 0.  1.
          1   -1    0    0  501    0  0.00000000000E+00 -0.00000000000E+00 -0.26118614472E+03  0.26118614472E+03  0.00000000000E+00 0.  1.
         25    1    1    2    0    0  0.11975230027E+02 -0.32057962420E+02 -0.11816460181E+03  0.17185456703E+03  0.12000000000E+03 0.  0.
         25    1    1    2    0    0 -0.11975230027E+02  0.32057962420E+02 -0.82669114721E+02  0.14968400588E+03  0.12000000000E+03 0.  0.
<mgrwt>
<rscale>  0 0.25110331E+03</rscale>
<asrwt>0</asrwt>
<pdfrwt beam="1">  1        1 0.40182483E-01 0.25110331E+03</pdfrwt>
<pdfrwt beam="2">  1       -1 0.92849891E-02 0.25110331E+03</pdfrwt>
<totfact> 0.70562805E+03</totfact>
</mgrwt>
</event>
<event>
 4    1  0.1726503E-004  0.2638002E+03  0.7818608E-02  0.1104881E+00
         -1   -1    0    0    0  501 -0.00000000000E+00  0.00000000000E+00  0.75448179850E+02  0.75448179850E+02  0.00000000000E+00 0.  1.
          1   -1    0    0  501    0  0.00000000000E+00 -0.00000000000E+00 -0.23059062068E+03  0.23059062068E+03  0.00000000000E+00 0.  1.
         25    1    1    2    0    0 -0.11885578933E+02 -0.40968294504E+02 -0.11738828446E+03  0.17320414969E+03  0.12000000000E+03 0.  0.
         25    1    1    2    0    0  0.11885578933E+02  0.40968294504E+02 -0.37754156374E+02  0.13283465084E+03  0.12000000000E+03 0.  0.
<mgrwt>
<rscale>  0 0.26380025E+03</rscale>
<asrwt>0</asrwt>
<pdfrwt beam="1">  1        1 0.35475481E-01 0.26380025E+03</pdfrwt>
<pdfrwt beam="2">  1       -1 0.11607412E-01 0.26380025E+03</pdfrwt>
<totfact> 0.58513872E+03</totfact>
</mgrwt>
</event>
<event>
 4    1  0.1726503E-004  0.2408858E+03  0.7818608E-02  0.1119204E+00
         -2   -1    0    0    0  501 -0.00000000000E+00  0.00000000000E+00  0.77531229728E+02  0.77531229728E+02  0.00000000000E+00 0.  1.
          2   -1    0    0  501    0  0.00000000000E+00 -0.00000000000E+00 -0.18710520137E+03  0.18710520137E+03  0.00000000000E+00 0.  1.
         25    1    1    2    0    0  0.51569520271E+01  0.69692833032E+01 -0.60936311338E+02  0.13486437300E+03  0.12000000000E+03 0.  0.
         25    1    1    2    0    0 -0.51569520271E+01 -0.69692833032E+01 -0.48637660302E+02  0.12977205810E+03  0.12000000000E+03 0.  0.
<mgrwt>
<rscale>  0 0.24088583E+03</rscale>
<asrwt>0</asrwt>
<pdfrwt beam="1">  1        2 0.28785415E-01 0.24088583E+03</pdfrwt>
<pdfrwt beam="2">  1       -2 0.11927882E-01 0.24088583E+03</pdfrwt>
<totfact> 0.90107317E+03</totfact>
</mgrwt>
</event>
<event>
 4    1  0.1726503E-004  0.3099503E+03  0.7818608E-02  0.1080370E+00
          1   -1    0    0  501    0  0.00000000000E+00  0.00000000000E+00  0.15853670269E+04  0.15853670269E+04  0.00000000000E+00 0. -1.
         -1   -1    0    0    0  501 -0.00000000000E+00 -0.00000000000E+00 -0.15149363362E+02  0.15149363362E+02  0.00000000000E+00 0. -1.
         25    1    1    2    0    0 -0.67864623704E+02 -0.49687099268E+02  0.52471452282E+03  0.54479330525E+03  0.12000000000E+03 0.  0.
         25    1    1    2    0    0  0.67864623704E+02  0.49687099268E+02  0.10455031407E+04  0.10557230850E+04  0.12000000000E+03 0.  0.
<mgrwt>
<rscale>  0 0.30995033E+03</rscale>
<asrwt>0</asrwt>
<pdfrwt beam="1">  1        1 0.24390249E+00 0.30995033E+03</pdfrwt>
<pdfrwt beam="2">  1       -1 0.23306725E-02 0.30995033E+03</pdfrwt>
<totfact> 0.34437707E+03</totfact>
</mgrwt>
</event>
<event>
 4    1  0.1726503E-004  0.3898814E+03  0.7818608E-02  0.1047341E+00
         -1   -1    0    0    0  501 -0.00000000000E+00  0.00000000000E+00  0.42951974752E+02  0.42951974752E+02  0.00000000000E+00 0. -1.
          1   -1    0    0  501    0  0.00000000000E+00 -0.00000000000E+00 -0.88475250407E+03  0.88475250407E+03  0.00000000000E+00 0. -1.
         25    1    1    2    0    0 -0.33325045540E+02 -0.41006964202E+02 -0.77650308886E+02  0.15238668001E+03  0.12000000000E+03 0.  0.
         25    1    1    2    0    0  0.33325045540E+02  0.41006964202E+02 -0.76415022043E+03  0.77531779881E+03  0.12000000000E+03 0.  0.
<mgrwt>
<rscale>  0 0.38988135E+03</rscale>
<asrwt>0</asrwt>
<pdfrwt beam="1">  1        1 0.13611576E+00 0.38988135E+03</pdfrwt>
<pdfrwt beam="2">  1       -1 0.66079964E-02 0.38988135E+03</pdfrwt>
<totfact> 0.22710215E+03</totfact>
</mgrwt>
</event>
<event>
 4    1  0.1726503E-004  0.3019543E+03  0.7818608E-02  0.1084268E+00
          1   -1    0    0  501    0  0.00000000000E+00  0.00000000000E+00  0.10317119688E+04  0.10317119688E+04  0.00000000000E+00 0. -1.
         -1   -1    0    0    0  501 -0.00000000000E+00 -0.00000000000E+00 -0.22093475188E+02  0.22093475188E+02  0.00000000000E+00 0. -1.
         25    1    1    2    0    0 -0.30190220201E+01 -0.87723759429E+02  0.59645152456E+03  0.61470236181E+03  0.12000000000E+03 0.  0.
         25    1    1    2    0    0  0.30190220201E+01  0.87723759429E+02  0.41316696903E+03  0.43910308215E+03  0.12000000000E+03 0.  0.
<mgrwt>
<rscale>  0 0.30195432E+03</rscale>
<asrwt>0</asrwt>
<pdfrwt beam="1">  1        1 0.15872488E+00 0.30195432E+03</pdfrwt>
<pdfrwt beam="2">  1       -1 0.33989970E-02 0.30195432E+03</pdfrwt>
<totfact> 0.47532776E+03</totfact>
</mgrwt>
</event>
<event>
 4    1  0.1726503E-004  0.3987539E+03  0.7818608E-02  0.1044212E+00
         -2   -1    0    0    0  501 -0.00000000000E+00  0.00000000000E+00  0.21741088330E+02  0.21741088330E+02  0.00000000000E+00 0. -1.
          2   -1    0    0  501    0  0.00000000000E+00 -0.00000000000E+00 -0.18283892334E+04  0.18283892334E+04  0.00000000000E+00 0. -1.
         25    1    1    2    0    0  0.76533138381E+02  0.10722911501E+03 -0.48843935797E+03  0.51993115967E+03  0.12000000000E+03 0.  0.
         25    1    1    2    0    0 -0.76533138381E+02 -0.10722911501E+03 -0.13182087871E+04  0.13301991620E+04  0.12000000000E+03 0.  0.
<mgrwt>
<rscale>  0 0.39875392E+03</rscale>
<asrwt>0</asrwt>
<pdfrwt beam="1">  1        2 0.28129072E+00 0.39875392E+03</pdfrwt>
<pdfrwt beam="2">  1       -2 0.33447820E-02 0.39875392E+03</pdfrwt>
<totfact> 0.32818066E+03</totfact>
</mgrwt>
</event>
<event>
 4    1  0.1726503E-004  0.2964529E+03  0.7818608E-02  0.1087027E+00
         -2   -1    0    0    0  501 -0.00000000000E+00  0.00000000000E+00  0.88302522915E+02  0.88302522915E+02  0.00000000000E+00 0.  1.
          2   -1    0    0  501    0  0.00000000000E+00 -0.00000000000E+00 -0.24881598829E+03  0.24881598829E+03  0.00000000000E+00 0.  1.
         25    1    1    2    0    0  0.74433698757E+02 -0.45054540699E+02 -0.79244482486E+02  0.16807728922E+03  0.12000000000E+03 0.  0.
         25    1    1    2    0    0 -0.74433698757E+02  0.45054540699E+02 -0.81268982885E+02  0.16904122198E+03  0.12000000000E+03 0.  0.
<mgrwt>
<rscale>  0 0.29645289E+03</rscale>
<asrwt>0</asrwt>
<pdfrwt beam="1">  1        2 0.38279383E-01 0.29645289E+03</pdfrwt>
<pdfrwt beam="2">  1       -2 0.13585004E-01 0.29645289E+03</pdfrwt>
<totfact> 0.53909904E+03</totfact>
</mgrwt>
</event>
<event>
 4    1  0.1726503E-004  0.3571113E+03  0.7818608E-02  0.1059734E+00
          1   -1    0    0  501    0  0.00000000000E+00  0.00000000000E+00  0.51212420367E+03  0.51212420367E+03  0.00000000000E+00 0. -1.
         -1   -1    0    0    0  501 -0.00000000000E+00 -0.00000000000E+00 -0.62254677148E+02  0.62254677148E+02  0.00000000000E+00 0. -1.
         25    1    1    2    0    0 -0.57950421186E+02 -0.91997708888E+02  0.10392666338E+03  0.19241252848E+03  0.12000000000E+03 0.  0.
         25    1    1    2    0    0  0.57950421186E+02  0.91997708888E+02  0.34594286314E+03  0.38196635233E+03  0.12000000000E+03 0.  0.
<mgrwt>
<rscale>  0 0.35711134E+03</rscale>
<asrwt>0</asrwt>
<pdfrwt beam="1">  1        1 0.78788336E-01 0.35711134E+03</pdfrwt>
<pdfrwt beam="2">  1       -1 0.95776430E-02 0.35711134E+03</pdfrwt>
<totfact> 0.28594172E+03</totfact>
</mgrwt>
</event>
<event>
 4    1  0.1726503E-004  0.3034006E+03  0.7818608E-02  0.1083553E+00
         -1   -1    0    0    0  501 -0.00000000000E+00  0.00000000000E+00  0.14077246097E+02  0.14077246097E+02  0.00000000000E+00 0. -1.
          1   -1    0    0  501    0  0.00000000000E+00 -0.00000000000E+00 -0.16347642215E+04  0.16347642215E+04  0.00000000000E+00 0. -1.
         25    1    1    2    0    0  0.83070689994E+02  0.17642944392E+02 -0.60693167455E+03  0.62448224202E+03  0.12000000000E+03 0.  0.
         25    1    1    2    0    0 -0.83070689994E+02 -0.17642944392E+02 -0.10137553008E+04  0.10243592256E+04  0.12000000000E+03 0.  0.
<mgrwt>
<rscale>  0 0.30340058E+03</rscale>
<asrwt>0</asrwt>
<pdfrwt beam="1">  1        1 0.25150199E+00 0.30340058E+03</pdfrwt>
<pdfrwt beam="2">  1       -1 0.21657319E-02 0.30340058E+03</pdfrwt>
<totfact> 0.35595065E+03</totfact>
</mgrwt>
</event>
<event>
 4    1  0.1726503E-004  0.2976324E+03  0.7818608E-02  0.1086430E+00
          2   -1    0    0  501    0  0.00000000000E+00  0.00000000000E+00  0.26438186461E+03  0.26438186461E+03  0.00000000000E+00 0.  1.
         -2   -1    0    0    0  501 -0.00000000000E+00 -0.00000000000E+00 -0.83766217680E+02  0.83766217680E+02  0.00000000000E+00 0.  1.
         25    1    1    2    0    0  0.60509032573E+02 -0.61522724890E+02  0.11056400436E+03  0.18458273961E+03  0.12000000000E+03 0.  0.
         25    1    1    2    0    0 -0.60509032573E+02  0.61522724890E+02  0.70051642575E+02  0.16356534269E+03  0.12000000000E+03 0.  0.
<mgrwt>
<rscale>  0 0.29763245E+03</rscale>
<asrwt>0</asrwt>
<pdfrwt beam="1">  1        2 0.40674133E-01 0.29763245E+03</pdfrwt>
<pdfrwt beam="2">  1       -2 0.12887110E-01 0.29763245E+03</pdfrwt>
<totfact> 0.55034276E+03</totfact>
</mgrwt>
</event>
<event>
 4    1  0.1726503E-004  0.2923331E+03  0.7818608E-02  0.1089137E+00
         -1   -1    0    0    0  501 -0.00000000000E+00  0.00000000000E+00  0.13163673713E+02  0.13163673713E+02  0.00000000000E+00 0.  1.
          1   -1    0    0  501    0  0.00000000000E+00 -0.00000000000E+00 -0.16230016459E+04  0.16230016459E+04  0.00000000000E+00 0.  1.
         25    1    1    2    0    0 -0.56653844802E+02 -0.53129748446E+02 -0.63403079936E+03  0.64994421518E+03  0.12000000000E+03 0.  0.
         25    1    1    2    0    0  0.56653844802E+02  0.53129748446E+02 -0.97580717283E+03  0.98622110444E+03  0.12000000000E+03 0.  0.
<mgrwt>
<rscale>  0 0.29233313E+03</rscale>
<asrwt>0</asrwt>
<pdfrwt beam="1">  1        1 0.24969240E+00 0.29233313E+03</pdfrwt>
<pdfrwt beam="2">  1       -1 0.20251819E-02 0.29233313E+03</pdfrwt>
<totfact> 0.39982757E+03</totfact>
</mgrwt>
</event>
<event>
 4    1  0.1726503E-004  0.2425971E+03  0.7818608E-02  0.1118075E+00
         -2   -1    0    0    0  501 -0.00000000000E+00  0.00000000000E+00  0.33221547644E+03  0.33221547644E+03  0.00000000000E+00 0.  1.
          2   -1    0    0  501    0  0.00000000000E+00 -0.00000000000E+00 -0.44288536632E+02  0.44288536632E+02  0.00000000000E+00 0.  1.
         25    1    1    2    0    0  0.58299526198E+01  0.82889256124E+01  0.12143886476E+03  0.17102658422E+03  0.12000000000E+03 0.  0.
         25    1    1    2    0    0 -0.58299526198E+01 -0.82889256124E+01  0.16648807505E+03  0.20547742886E+03  0.12000000000E+03 0.  0.
<mgrwt>
<rscale>  0 0.24259709E+03</rscale>
<asrwt>0</asrwt>
<pdfrwt beam="1">  1        2 0.68136212E-02 0.24259709E+03</pdfrwt>
<pdfrwt beam="2">  1       -2 0.51110072E-01 0.24259709E+03</pdfrwt>
<totfact> 0.38031162E+03</totfact>
</mgrwt>
</event>
<event>
 4    1  0.1726503E-004  0.3349528E+03  0.7818608E-02  0.1068966E+00
          2   -1    0    0  501    0  0.00000000000E+00  0.00000000000E+00  0.52625972533E+03  0.52625972533E+03  0.00000000000E+00 0.  1.
         -2   -1    0    0    0  501 -0.00000000000E+00 -0.00000000000E+00 -0.53297521369E+02  0.53297521369E+02  0.00000000000E+00 0.  1.
         25    1    1    2    0    0 -0.28894866234E+02 -0.10801877456E+03  0.17792317766E+03  0.24199096285E+03  0.12000000000E+03 0.  0.
         25    1    1    2    0    0  0.28894866234E+02  0.10801877456E+03  0.29503902630E+03  0.33756628385E+03  0.12000000000E+03 0.  0.
<mgrwt>
<rscale>  0 0.33495277E+03</rscale>
<asrwt>0</asrwt>
<pdfrwt beam="1">  1        2 0.80963031E-01 0.33495277E+03</pdfrwt>
<pdfrwt beam="2">  1       -2 0.81996190E-02 0.33495277E+03</pdfrwt>
<totfact> 0.53559251E+03</totfact>
</mgrwt>
</event>
<event>
 4    1  0.1726503E-004  0.2477286E+03  0.7818608E-02  0.1114749E+00
         -2   -1    0    0    0  501 -0.00000000000E+00  0.00000000000E+00  0.16784835679E+03  0.16784835679E+03  0.00000000000E+00 0.  1.
          2   -1    0    0  501    0  0.00000000000E+00 -0.00000000000E+00 -0.91406074002E+02  0.91406074002E+02  0.00000000000E+00 0.  1.
         25    1    1    2    0    0  0.21226762547E+02  0.51556010959E+01  0.60793226240E+02  0.13628269159E+03  0.12000000000E+03 0.  0.
         25    1    1    2    0    0 -0.21226762547E+02 -0.51556010959E+01  0.15649056547E+02  0.12297173920E+03  0.12000000000E+03 0.  0.
<mgrwt>
<rscale>  0 0.24772856E+03</rscale>
<asrwt>0</asrwt>
<pdfrwt beam="1">  1        2 0.14062473E-01 0.24772856E+03</pdfrwt>
<pdfrwt beam="2">  1       -2 0.25822824E-01 0.24772856E+03</pdfrwt>
<totfact> 0.55779845E+03</totfact>
</mgrwt>
</event>
<event>
 4    1  0.1726503E-004  0.4651468E+03  0.7818608E-02  0.1023299E+00
          2   -1    0    0  501    0  0.00000000000E+00  0.00000000000E+00  0.80360978460E+03  0.80360978460E+03  0.00000000000E+00 0.  1.
         -2   -1    0    0    0  501 -0.00000000000E+00 -0.00000000000E+00 -0.67309262393E+02  0.67309262393E+02  0.00000000000E+00 0.  1.
         25    1    1    2    0    0 -0.15302383077E+03 -0.79691297666E+02  0.18163356455E+03  0.27777283430E+03  0.12000000000E+03 0.  0.
         25    1    1    2    0    0  0.15302383077E+03  0.79691297666E+02  0.55466695766E+03  0.59314621269E+03  0.12000000000E+03 0.  0.
<mgrwt>
<rscale>  0 0.46514678E+03</rscale>
<asrwt>0</asrwt>
<pdfrwt beam="1">  1        2 0.12363227E+00 0.46514678E+03</pdfrwt>
<pdfrwt beam="2">  1       -2 0.10355272E-01 0.46514678E+03</pdfrwt>
<totfact> 0.22208581E+03</totfact>
</mgrwt>
</event>
<event>
 4    1  0.1726503E-004  0.3051854E+03  0.7818608E-02  0.1082677E+00
         -2   -1    0    0    0  501 -0.00000000000E+00  0.00000000000E+00  0.35584332973E+02  0.35584332973E+02  0.00000000000E+00 0.  1.
          2   -1    0    0  501    0  0.00000000000E+00 -0.00000000000E+00 -0.65434800243E+03  0.65434800243E+03  0.00000000000E+00 0.  1.
         25    1    1    2    0    0 -0.42261181561E+02  0.13957670125E+02 -0.49722009999E+03  0.51342833176E+03  0.12000000000E+03 0.  0.
         25    1    1    2    0    0  0.42261181561E+02 -0.13957670125E+02 -0.12154356947E+03  0.17650400364E+03  0.12000000000E+03 0.  0.
<mgrwt>
<rscale>  0 0.30518543E+03</rscale>
<asrwt>0</asrwt>
<pdfrwt beam="1">  1        2 0.10066893E+00 0.30518543E+03</pdfrwt>
<pdfrwt beam="2">  1       -2 0.54745126E-02 0.30518543E+03</pdfrwt>
<totfact> 0.77592317E+03</totfact>
</mgrwt>
</event>
<event>
 4    1  0.1726503E-004  0.2789799E+03  0.7818608E-02  0.1096247E+00
         -1   -1    0    0    0  501 -0.00000000000E+00  0.00000000000E+00  0.93867479734E+01  0.93867479734E+01  0.00000000000E+00 0.  1.
          1   -1    0    0  501    0  0.00000000000E+00 -0.00000000000E+00 -0.20728637599E+04  0.20728637599E+04  0.00000000000E+00 0.  1.
         25    1    1    2    0    0 -0.38288849087E+02  0.93089170184E+01 -0.14736029215E+04  0.14790058357E+04  0.12000000000E+03 0.  0.
         25    1    1    2    0    0  0.38288849087E+02 -0.93089170184E+01 -0.58987409043E+03  0.60324467214E+03  0.12000000000E+03 0.  0.
<mgrwt>
<rscale>  0 0.27897993E+03</rscale>
<asrwt>0</asrwt>
<pdfrwt beam="1">  1        1 0.31890222E+00 0.27897993E+03</pdfrwt>
<pdfrwt beam="2">  1       -1 0.14441146E-02 0.27897993E+03</pdfrwt>
<totfact> 0.33367587E+03</totfact>
</mgrwt>
</event>
<event>
 4    1  0.1726503E-004  0.2589031E+03  0.7818608E-02  0.1107804E+00
         -1   -1    0    0    0  501 -0.00000000000E+00  0.00000000000E+00  0.17919050478E+02  0.17919050478E+02  0.00000000000E+00 0.  1.
          1   -1    0    0  501    0  0.00000000000E+00 -0.00000000000E+00 -0.93518917461E+03  0.93518917461E+03  0.00000000000E+00 0.  1.
         25    1    1    2    0    0 -0.54274384911E+01 -0.23167134182E+02 -0.30281732577E+03  0.32659532449E+03  0.12000000000E+03 0.  0.
         25    1    1    2    0    0  0.54274384911E+01  0.23167134182E+02 -0.61445279836E+03  0.62651290059E+03  0.12000000000E+03 0.  0.
<mgrwt>
<rscale>  0 0.25890309E+03</rscale>
<asrwt>0</asrwt>
<pdfrwt beam="1">  1        1 0.14387528E+00 0.25890309E+03</pdfrwt>
<pdfrwt beam="2">  1       -1 0.27567765E-02 0.25890309E+03</pdfrwt>
<totfact> 0.76360714E+03</totfact>
</mgrwt>
</event>
<event>
 4    1  0.1726503E-004  0.2857081E+03  0.7818608E-02  0.1092612E+00
         -2   -1    0    0    0  501 -0.00000000000E+00  0.00000000000E+00  0.51564280170E+02  0.51564280170E+02  0.00000000000E+00 0. -1.
          2   -1    0    0  501    0  0.00000000000E+00 -0.00000000000E+00 -0.39576391191E+03  0.39576391191E+03  0.00000000000E+00 0. -1.
         25    1    1    2    0    0  0.42457232130E+02 -0.63122653296E+02 -0.14886668508E+03  0.20578721011E+03  0.12000000000E+03 0.  0.
         25    1    1    2    0    0 -0.42457232130E+02  0.63122653296E+02 -0.19533294666E+03  0.24154098197E+03  0.12000000000E+03 0.  0.
<mgrwt>
<rscale>  0 0.28570811E+03</rscale>
<asrwt>0</asrwt>
<pdfrwt beam="1">  1        2 0.60886756E-01 0.28570811E+03</pdfrwt>
<pdfrwt beam="2">  1       -2 0.79329661E-02 0.28570811E+03</pdfrwt>
<totfact> 0.77032646E+03</totfact>
</mgrwt>
</event>
<event>
 4    1  0.1726503E-004  0.3544559E+03  0.7818608E-02  0.1060801E+00
          2   -1    0    0  501    0  0.00000000000E+00  0.00000000000E+00  0.14275895768E+04  0.14275895768E+04  0.00000000000E+00 0.  1.
         -2   -1    0    0    0  501 -0.00000000000E+00 -0.00000000000E+00 -0.22001938100E+02  0.22001938100E+02  0.00000000000E+00 0.  1.
         25    1    1    2    0    0  0.11639357698E+03 -0.40154860211E+02  0.87868858388E+03  0.89535105127E+03  0.12000000000E+03 0.  0.
         25    1    1    2    0    0 -0.11639357698E+03  0.40154860211E+02  0.52689905483E+03  0.55424046365E+03  0.12000000000E+03 0.  0.
<mgrwt>
<rscale>  0 0.35445585E+03</rscale>
<asrwt>0</asrwt>
<pdfrwt beam="1">  1        2 0.21962909E+00 0.35445585E+03</pdfrwt>
<pdfrwt beam="2">  1       -2 0.33849147E-02 0.35445585E+03</pdfrwt>
<totfact> 0.52930502E+03</totfact>
</mgrwt>
</event>
<event>
 4    1  0.1726503E-004  0.2594842E+03  0.7818608E-02  0.1107454E+00
          1   -1    0    0  501    0  0.00000000000E+00  0.00000000000E+00  0.36092660225E+03  0.36092660225E+03  0.00000000000E+00 0. -1.
         -1   -1    0    0    0  501 -0.00000000000E+00 -0.00000000000E+00 -0.46638321255E+02  0.46638321255E+02  0.00000000000E+00 0. -1.
         25    1    1    2    0    0  0.24377960054E+02  0.42743776750E+02  0.15177265819E+03  0.19964031447E+03  0.12000000000E+03 0.  0.
         25    1    1    2    0    0 -0.24377960054E+02 -0.42743776750E+02  0.16251562281E+03  0.20792460904E+03  0.12000000000E+03 0.  0.
<mgrwt>
<rscale>  0 0.25948419E+03</rscale>
<asrwt>0</asrwt>
<pdfrwt beam="1">  1        1 0.55527168E-01 0.25948419E+03</pdfrwt>
<pdfrwt beam="2">  1       -1 0.71751266E-02 0.25948419E+03</pdfrwt>
<totfact> 0.69725320E+03</totfact>
</mgrwt>
</event>
<event>
 4    1  0.1726503E-004  0.2839943E+03  0.7818608E-02  0.1093527E+00
         -2   -1    0    0    0  501 -0.00000000000E+00  0.00000000000E+00  0.85246727461E+01  0.85246727461E+01  0.00000000000E+00 0. -1.
          2   -1    0    0  501    0  0.00000000000E+00 -0.00000000000E+00 -0.23652748176E+04  0.23652748176E+04  0.00000000000E+00 0. -1.
         25    1    1    2    0    0 -0.63334490129E+02 -0.30069734124E+02 -0.14217453643E+04  0.14285220781E+04  0.12000000000E+03 0.  0.
         25    1    1    2    0    0  0.63334490129E+02  0.30069734124E+02 -0.93500478054E+03  0.94527741229E+03  0.12000000000E+03 0.  0.
<mgrwt>
<rscale>  0 0.28399432E+03</rscale>
<asrwt>0</asrwt>
<pdfrwt beam="1">  1        2 0.36388866E+00 0.28399432E+03</pdfrwt>
<pdfrwt beam="2">  1       -2 0.13114873E-02 0.28399432E+03</pdfrwt>
<totfact> 0.68185289E+03</totfact>
</mgrwt>
</event>
<event>
 4    1  0.1726503E-004  0.2570467E+03  0.7818608E-02  0.1108931E+00
         -1   -1    0    0    0  501 -0.00000000000E+00  0.00000000000E+00  0.73115241742E+01  0.73115241742E+01  0.00000000000E+00 0.  1.
          1   -1    0    0  501    0  0.00000000000E+00 -0.00000000000E+00 -0.22592080327E+04  0.22592080327E+04  0.00000000000E+00 0.  1.
         25    1    1    2    0    0  0.82881013101E+01  0.29233965592E+02 -0.14307516965E+04  0.14360967009E+04  0.12000000000E+03 0.  0.
         25    1    1    2    0    0 -0.82881013101E+01 -0.29233965592E+02 -0.82114481204E+03  0.83042285597E+03  0.12000000000E+03 0.  0.
<mgrwt>
<rscale>  0 0.25704672E+03</rscale>
<asrwt>0</asrwt>
<pdfrwt beam="1">  1        1 0.34757016E+00 0.25704672E+03</pdfrwt>
<pdfrwt beam="2">  1       -1 0.11248509E-02 0.25704672E+03</pdfrwt>
<totfact> 0.36268380E+03</totfact>
</mgrwt>
</event>
<event>
 4    1  0.1726503E-004  0.2889918E+03  0.7818608E-02  0.1090877E+00
         -1   -1    0    0    0  501 -0.00000000000E+00  0.00000000000E+00  0.28804963011E+02  0.28804963011E+02  0.00000000000E+00 0. -1.
          1   -1    0    0  501    0  0.00000000000E+00 -0.00000000000E+00 -0.72484259566E+03  0.72484259566E+03  0.00000000000E+00 0. -1.
         25    1    1    2    0    0 -0.60792891267E+02  0.45313279543E+02 -0.41847884188E+03  0.44189773708E+03  0.12000000000E+03 0.  0.
         25    1    1    2    0    0  0.60792891267E+02 -0.45313279543E+02 -0.27755879077E+03  0.31174982160E+03  0.12000000000E+03 0.  0.
<mgrwt>
<rscale>  0 0.28899179E+03</rscale>
<asrwt>0</asrwt>
<pdfrwt beam="1">  1        1 0.11151424E+00 0.28899179E+03</pdfrwt>
<pdfrwt beam="2">  1       -1 0.44315331E-02 0.28899179E+03</pdfrwt>
<totfact> 0.56435163E+03</totfact>
</mgrwt>
</event>
<event>
 4    1  0.1726503E-004  0.4166968E+03  0.7818608E-02  0.1038147E+00
          3   -1    0    0  501    0  0.00000000000E+00  0.00000000000E+00  0.20374637781E+03  0.20374637781E+03  0.00000000000E+00 0. -1.
         -3   -1    0    0    0  501 -0.00000000000E+00 -0.00000000000E+00 -0.21305436298E+03  0.21305436298E+03  0.00000000000E+00 0. -1.
         25    1    1    2    0    0 -0.13391179242E+03  0.10423204210E+03 -0.19230478768E+02  0.20872589217E+03  0.12000000000E+03 0.  0.
         25    1    1    2    0    0  0.13391179242E+03 -0.10423204210E+03  0.99224935946E+01  0.20807484862E+03  0.12000000000E+03 0.  0.
<mgrwt>
<rscale>  0 0.41669679E+03</rscale>
<asrwt>0</asrwt>
<pdfrwt beam="1">  1        3 0.31345597E-01 0.41669679E+03</pdfrwt>
<pdfrwt beam="2">  1       -3 0.32777594E-01 0.41669679E+03</pdfrwt>
<totfact> 0.23470635E+02</totfact>
</mgrwt>
</event>
<event>
 4    1  0.1726503E-004  0.2568918E+03  0.7818608E-02  0.1109025E+00
         -1   -1    0    0    0  501 -0.00000000000E+00  0.00000000000E+00  0.47880862149E+02  0.47880862149E+02  0.00000000000E+00 0.  1.
          1   -1    0    0  501    0  0.00000000000E+00 -0.00000000000E+00 -0.34457084122E+03  0.34457084122E+03  0.00000000000E+00 0.  1.
         25    1    1    2    0    0  0.36432686976E+02  0.27475199129E+02 -0.14221102275E+03  0.19158862763E+03  0.12000000000E+03 0.  0.
         25    1    1    2    0    0 -0.36432686976E+02 -0.27475199129E+02 -0.15447895633E+03  0.20086307574E+03  0.12000000000E+03 0.  0.
<mgrwt>
<rscale>  0 0.25689180E+03</rscale>
<asrwt>0</asrwt>
<pdfrwt beam="1">  1        1 0.53010898E-01 0.25689180E+03</pdfrwt>
<pdfrwt beam="2">  1       -1 0.73662865E-02 0.25689180E+03</pdfrwt>
<totfact> 0.71022851E+03</totfact>
</mgrwt>
</event>
<event>
 4    1  0.1726503E-004  0.3077357E+03  0.7818608E-02  0.1081436E+00
          2   -1    0    0  501    0  0.00000000000E+00  0.00000000000E+00  0.47780568053E+02  0.47780568053E+02  0.00000000000E+00 0. -1.
         -2   -1    0    0    0  501 -0.00000000000E+00 -0.00000000000E+00 -0.49550092228E+03  0.49550092228E+03  0.00000000000E+00 0. -1.
         25    1    1    2    0    0 -0.76379139502E+02  0.30814429438E+02 -0.13573049112E+03  0.19901273385E+03  0.12000000000E+03 0.  0.
         25    1    1    2    0    0  0.76379139502E+02 -0.30814429438E+02 -0.31198986310E+03  0.34426875648E+03  0.12000000000E+03 0.  0.
<mgrwt>
<rscale>  0 0.30773570E+03</rscale>
<asrwt>0</asrwt>
<pdfrwt beam="1">  1        2 0.73508562E-02 0.30773570E+03</pdfrwt>
<pdfrwt beam="2">  1       -2 0.76230915E-01 0.30773570E+03</pdfrwt>
<totfact> 0.15059004E+03</totfact>
</mgrwt>
</event>
<event>
 4    1  0.1726503E-004  0.2510519E+03  0.7818608E-02  0.1112642E+00
         -1   -1    0    0    0  501 -0.00000000000E+00  0.00000000000E+00  0.85246675344E+03  0.85246675344E+03  0.00000000000E+00 0.  1.
          1   -1    0    0  501    0  0.00000000000E+00 -0.00000000000E+00 -0.18483735628E+02  0.18483735628E+02  0.00000000000E+00 0.  1.
         25    1    1    2    0    0  0.54895107323E+01 -0.53360036038E+01  0.54198701292E+03  0.55516531757E+03  0.12000000000E+03 0.  0.
         25    1    1    2    0    0 -0.54895107323E+01  0.53360036038E+01  0.29199600490E+03  0.31578517150E+03  0.12000000000E+03 0.  0.
<mgrwt>
<rscale>  0 0.25105195E+03</rscale>
<asrwt>0</asrwt>
<pdfrwt beam="1">  1        1 0.28436523E-02 0.25105195E+03</pdfrwt>
<pdfrwt beam="2">  1       -1 0.13114870E+00 0.25105195E+03</pdfrwt>
<totfact> 0.19508828E+03</totfact>
</mgrwt>
</event>
<event>
 4    1  0.1726503E-004  0.3218208E+03  0.7818608E-02  0.1074814E+00
         -2   -1    0    0    0  501 -0.00000000000E+00  0.00000000000E+00  0.19042982840E+03  0.19042982840E+03  0.00000000000E+00 0. -1.
          2   -1    0    0  501    0  0.00000000000E+00 -0.00000000000E+00 -0.13596695769E+03  0.13596695769E+03  0.00000000000E+00 0. -1.
         25    1    1    2    0    0  0.10363265556E+03 -0.67825091457E+01  0.54188196434E+02  0.16769642322E+03  0.12000000000E+03 0.  0.
         25    1    1    2    0    0 -0.10363265556E+03  0.67825091457E+01  0.27467426818E+00  0.15870036287E+03  0.12000000000E+03 0.  0.
<mgrwt>
<rscale>  0 0.32182085E+03</rscale>
<asrwt>0</asrwt>
<pdfrwt beam="1">  1        2 0.20917993E-01 0.32182085E+03</pdfrwt>
<pdfrwt beam="2">  1       -2 0.29296897E-01 0.32182085E+03</pdfrwt>
<totfact> 0.28205217E+03</totfact>
</mgrwt>
</event>
<event>
 4    1  0.1726503E-004  0.2802143E+03  0.7818608E-02  0.1095572E+00
          1   -1    0    0  501    0  0.00000000000E+00  0.00000000000E+00  0.21940797033E+03  0.21940797033E+03  0.00000000000E+00 0.  1.
         -1   -1    0    0    0  501 -0.00000000000E+00 -0.00000000000E+00 -0.89468122057E+02  0.89468122057E+02  0.00000000000E+00 0.  1.
         25    1    1    2    0    0  0.62314182938E+02 -0.10748784875E+02  0.10365094913E+03  0.17071061193E+03  0.12000000000E+03 0.  0.
         25    1    1    2    0    0 -0.62314182938E+02  0.10748784875E+02  0.26288899147E+02  0.13816548046E+03  0.12000000000E+03 0.  0.
<mgrwt>
<rscale>  0 0.28021434E+03</rscale>
<asrwt>0</asrwt>
<pdfrwt beam="1">  1        1 0.33755072E-01 0.28021434E+03</pdfrwt>
<pdfrwt beam="2">  1       -1 0.13764326E-01 0.28021434E+03</pdfrwt>
<totfact> 0.47780802E+03</totfact>
</mgrwt>
</event>
<event>
 4    1  0.1726503E-004  0.3814510E+03  0.7818608E-02  0.1050399E+00
         -2   -1    0    0    0  501 -0.00000000000E+00  0.00000000000E+00  0.75054452326E+03  0.75054452326E+03  0.00000000000E+00 0.  1.
          2   -1    0    0  501    0  0.00000000000E+00 -0.00000000000E+00 -0.48466424363E+02  0.48466424363E+02  0.00000000000E+00 0.  1.
         25    1    1    2    0    0 -0.32834608700E+02  0.62113510404E+02  0.62447079322E+03  0.63976555963E+03  0.12000000000E+03 0.  0.
         25    1    1    2    0    0  0.32834608700E+02 -0.62113510404E+02  0.77607305679E+02  0.15924538800E+03  0.12000000000E+03 0.  0.
<mgrwt>
<rscale>  0 0.38145096E+03</rscale>
<asrwt>0</asrwt>
<pdfrwt beam="1">  1        2 0.74563735E-02 0.38145096E+03</pdfrwt>
<pdfrwt beam="2">  1       -2 0.11546838E+00 0.38145096E+03</pdfrwt>
<totfact> 0.57061770E+02</totfact>
</mgrwt>
</event>
<event>
 4    1  0.1726503E-004  0.3098538E+03  0.7818608E-02  0.1080416E+00
          2   -1    0    0  501    0  0.00000000000E+00  0.00000000000E+00  0.70949484613E+02  0.70949484613E+02  0.00000000000E+00 0. -1.
         -2   -1    0    0    0  501 -0.00000000000E+00 -0.00000000000E+00 -0.33830187972E+03  0.33830187972E+03  0.00000000000E+00 0. -1.
         25    1    1    2    0    0 -0.37581546130E+02  0.50542939984E+02 -0.23282672215E+03  0.26939792861E+03  0.12000000000E+03 0.  0.
         25    1    1    2    0    0  0.37581546130E+02 -0.50542939984E+02 -0.34525672961E+02  0.13985343573E+03  0.12000000000E+03 0.  0.
<mgrwt>
<rscale>  0 0.30985380E+03</rscale>
<asrwt>0</asrwt>
<pdfrwt beam="1">  1        2 0.10915306E-01 0.30985380E+03</pdfrwt>
<pdfrwt beam="2">  1       -2 0.52046442E-01 0.30985380E+03</pdfrwt>
<totfact> 0.20382814E+03</totfact>
</mgrwt>
</event>
<event>
 4    1  0.1726503E-004  0.2718318E+03  0.7818608E-02  0.1100236E+00
          2   -1    0    0  501    0  0.00000000000E+00  0.00000000000E+00  0.79775599302E+03  0.79775599302E+03  0.00000000000E+00 0.  1.
         -2   -1    0    0    0  501 -0.00000000000E+00 -0.00000000000E+00 -0.23156364310E+02  0.23156364310E+02  0.00000000000E+00 0.  1.
         25    1    1    2    0    0  0.48179605160E+02  0.14168570206E+01  0.26097270517E+03  0.29125596076E+03  0.12000000000E+03 0.  0.
         25    1    1    2    0    0 -0.48179605160E+02 -0.14168570206E+01  0.51362692354E+03  0.52965639656E+03  0.12000000000E+03 0.  0.
<mgrwt>
<rscale>  0 0.27183177E+03</rscale>
<asrwt>0</asrwt>
<pdfrwt beam="1">  1        2 0.12273167E+00 0.27183177E+03</pdfrwt>
<pdfrwt beam="2">  1       -2 0.35625182E-02 0.27183177E+03</pdfrwt>
<totfact> 0.11606400E+04</totfact>
</mgrwt>
</event>
<event>
 4    1  0.1726503E-004  0.3593987E+03  0.7818608E-02  0.1058822E+00
         -2   -1    0    0    0  501 -0.00000000000E+00  0.00000000000E+00  0.19355984934E+02  0.19355984934E+02  0.00000000000E+00 0.  1.
          2   -1    0    0  501    0  0.00000000000E+00 -0.00000000000E+00 -0.16683138146E+04  0.16683138146E+04  0.00000000000E+00 0.  1.
         25    1    1    2    0    0 -0.75525329855E+02 -0.16130445255E+02 -0.13373253369E+04  0.13449175898E+04  0.12000000000E+03 0.  0.
         25    1    1    2    0    0  0.75525329855E+02  0.16130445255E+02 -0.31163249281E+03  0.34275220975E+03  0.12000000000E+03 0.  0.
<mgrwt>
<rscale>  0 0.35939870E+03</rscale>
<asrwt>0</asrwt>
<pdfrwt beam="1">  1        2 0.25666370E+00 0.35939870E+03</pdfrwt>
<pdfrwt beam="2">  1       -2 0.29778435E-02 0.35939870E+03</pdfrwt>
<totfact> 0.47602220E+03</totfact>
</mgrwt>
</event>
<event>
 4    1  0.1726503E-004  0.3681037E+03  0.7818608E-02  0.1055420E+00
         -1   -1    0    0    0  501 -0.00000000000E+00  0.00000000000E+00  0.65473678868E+02  0.65473678868E+02  0.00000000000E+00 0.  1.
          1   -1    0    0  501    0  0.00000000000E+00 -0.00000000000E+00 -0.51738471217E+03  0.51738471217E+03  0.00000000000E+00 0.  1.
         25    1    1    2    0    0  0.34993166304E+02  0.13059266014E+03 -0.28071754505E+03  0.33388816192E+03  0.12000000000E+03 0.  0.
         25    1    1    2    0    0 -0.34993166304E+02 -0.13059266014E+03 -0.17119348826E+03  0.24897022913E+03  0.12000000000E+03 0.  0.
<mgrwt>
<rscale>  0 0.36810368E+03</rscale>
<asrwt>0</asrwt>
<pdfrwt beam="1">  1        1 0.79597647E-01 0.36810368E+03</pdfrwt>
<pdfrwt beam="2">  1       -1 0.10072874E-01 0.36810368E+03</pdfrwt>
<totfact> 0.26083563E+03</totfact>
</mgrwt>
</event>
<event>
 4    1  0.1726503E-004  0.2629377E+03  0.7818608E-02  0.1105391E+00
          1   -1    0    0  501    0  0.00000000000E+00  0.00000000000E+00  0.14266292660E+03  0.14266292660E+03  0.00000000000E+00 0. -1.
         -1   -1    0    0    0  501 -0.00000000000E+00 -0.00000000000E+00 -0.12115313655E+03  0.12115313655E+03  0.00000000000E+00 0. -1.
         25    1    1    2    0    0 -0.45359911228E+02  0.74706593518E+01  0.38609635577E+02  0.13417912005E+03  0.12000000000E+03 0.  0.
         25    1    1    2    0    0  0.45359911228E+02 -0.74706593518E+01 -0.17099845526E+02  0.12963694309E+03  0.12000000000E+03 0.  0.
<mgrwt>
<rscale>  0 0.26293772E+03</rscale>
<asrwt>0</asrwt>
<pdfrwt beam="1">  1        1 0.21948143E-01 0.26293772E+03</pdfrwt>
<pdfrwt beam="2">  1       -1 0.18638944E-01 0.26293772E+03</pdfrwt>
<totfact> 0.50740869E+03</totfact>
</mgrwt>
</event>
<event>
 4    1  0.1726503E-004  0.2478753E+03  0.7818608E-02  0.1114655E+00
          3   -1    0    0  501    0  0.00000000000E+00  0.00000000000E+00  0.29691821551E+03  0.29691821551E+03  0.00000000000E+00 0. -1.
         -3   -1    0    0    0  501 -0.00000000000E+00 -0.00000000000E+00 -0.51733250143E+02  0.51733250143E+02  0.00000000000E+00 0. -1.
         25    1    1    2    0    0 -0.14301466770E+02  0.27482037717E+02  0.12137439366E+03  0.17346912632E+03  0.12000000000E+03 0.  0.
         25    1    1    2    0    0  0.14301466770E+02 -0.27482037717E+02  0.12381057171E+03  0.17518233934E+03  0.12000000000E+03 0.  0.
<mgrwt>
<rscale>  0 0.24787533E+03</rscale>
<asrwt>0</asrwt>
<pdfrwt beam="1">  1        3 0.45679724E-01 0.24787533E+03</pdfrwt>
<pdfrwt beam="2">  1       -3 0.79589617E-02 0.24787533E+03</pdfrwt>
<totfact> 0.12950231E+03</totfact>
</mgrwt>
</event>
<event>
 4    1  0.1726503E-004  0.2786541E+03  0.7818608E-02  0.1096426E+00
          2   -1    0    0  501    0  0.00000000000E+00  0.00000000000E+00  0.13964119042E+04  0.13964119042E+04  0.00000000000E+00 0.  1.
         -2   -1    0    0    0  501 -0.00000000000E+00 -0.00000000000E+00 -0.13901360895E+02  0.13901360895E+02  0.00000000000E+00 0.  1.
         25    1    1    2    0    0 -0.11992652933E+00  0.33935566262E+02  0.10057154730E+04  0.10134176087E+04  0.12000000000E+03 0.  0.
         25    1    1    2    0    0  0.11992652933E+00 -0.33935566262E+02  0.37679507029E+03  0.39689565636E+03  0.12000000000E+03 0.  0.
<mgrwt>
<rscale>  0 0.27865409E+03</rscale>
<asrwt>0</asrwt>
<pdfrwt beam="1">  1        2 0.21483249E+00 0.27865409E+03</pdfrwt>
<pdfrwt beam="2">  1       -2 0.21386720E-02 0.27865409E+03</pdfrwt>
<totfact> 0.10871394E+04</totfact>
</mgrwt>
</event>
<event>
 4    1  0.1726503E-004  0.3548720E+03  0.7818608E-02  0.1060633E+00
         -2   -1    0    0    0  501 -0.00000000000E+00  0.00000000000E+00  0.10103456163E+02  0.10103456163E+02  0.00000000000E+00 0.  1.
          2   -1    0    0  501    0  0.00000000000E+00 -0.00000000000E+00 -0.31161147360E+04  0.31161147360E+04  0.00000000000E+00 0.  1.
         25    1    1    2    0    0 -0.32214416808E+02  0.86158831767E+02 -0.73498913223E+03  0.75037999536E+03  0.12000000000E+03 0.  0.
         25    1    1    2    0    0  0.32214416808E+02 -0.86158831767E+02 -0.23710221476E+04  0.23758381968E+04  0.12000000000E+03 0.  0.
<mgrwt>
<rscale>  0 0.35487197E+03</rscale>
<asrwt>0</asrwt>
<pdfrwt beam="1">  1        2 0.47940272E+00 0.35487197E+03</pdfrwt>
<pdfrwt beam="2">  1       -2 0.15543764E-02 0.35487197E+03</pdfrwt>
<totfact> 0.19678050E+03</totfact>
</mgrwt>
</event>
<event>
 4    1  0.1726503E-004  0.3213294E+03  0.7818608E-02  0.1075039E+00
          2   -1    0    0  501    0  0.00000000000E+00  0.00000000000E+00  0.21512177230E+03  0.21512177230E+03  0.00000000000E+00 0.  1.
         -2   -1    0    0    0  501 -0.00000000000E+00 -0.00000000000E+00 -0.11999314420E+03  0.11999314420E+03  0.00000000000E+00 0.  1.
         25    1    1    2    0    0 -0.22977115056E+02  0.99109728359E+02  0.13570650154E+02  0.15790772184E+03  0.12000000000E+03 0.  0.
         25    1    1    2    0    0  0.22977115056E+02 -0.99109728359E+02  0.81557977945E+02  0.17720719466E+03  0.12000000000E+03 0.  0.
<mgrwt>
<rscale>  0 0.32132935E+03</rscale>
<asrwt>0</asrwt>
<pdfrwt beam="1">  1        2 0.33095657E-01 0.32132935E+03</pdfrwt>
<pdfrwt beam="2">  1       -2 0.18460484E-01 0.32132935E+03</pdfrwt>
<totfact> 0.37968164E+03</totfact>
</mgrwt>
</event>
<event>
 4    1  0.1726503E-004  0.2808295E+03  0.7818608E-02  0.1095237E+00
          2   -1    0    0  501    0  0.00000000000E+00  0.00000000000E+00  0.15973232142E+03  0.15973232142E+03  0.00000000000E+00 0.  1.
         -2   -1    0    0    0  501 -0.00000000000E+00 -0.00000000000E+00 -0.12343338116E+03  0.12343338116E+03  0.00000000000E+00 0.  1.
         25    1    1    2    0    0 -0.68336530033E+02 -0.17913633698E+02  0.36341760572E+02  0.14391491643E+03  0.12000000000E+03 0.  0.
         25    1    1    2    0    0  0.68336530033E+02  0.17913633698E+02 -0.42820312424E-01  0.13925078615E+03  0.12000000000E+03 0.  0.
<mgrwt>
<rscale>  0 0.28082949E+03</rscale>
<asrwt>0</asrwt>
<pdfrwt beam="1">  1        2 0.24574203E-01 0.28082949E+03</pdfrwt>
<pdfrwt beam="2">  1       -2 0.18989751E-01 0.28082949E+03</pdfrwt>
<totfact> 0.50113740E+03</totfact>
</mgrwt>
</event>
<event>
 4    1  0.1726503E-004  0.2686921E+03  0.7818608E-02  0.1102030E+00
          4   -1    0    0  501    0  0.00000000000E+00  0.00000000000E+00  0.22803320760E+02  0.22803320760E+02  0.00000000000E+00 0.  1.
         -4   -1    0    0    0  501 -0.00000000000E+00 -0.00000000000E+00 -0.79150141831E+03  0.79150141831E+03  0.00000000000E+00 0.  1.
         25    1    1    2    0    0  0.32319283412E+02 -0.20783068992E+02 -0.24309502240E+03  0.27380953590E+03  0.12000000000E+03 0.  0.
         25    1    1    2    0    0 -0.32319283412E+02  0.20783068992E+02 -0.52560307516E+03  0.54049520317E+03  0.12000000000E+03 0.  0.
<mgrwt>
<rscale>  0 0.26869210E+03</rscale>
<asrwt>0</asrwt>
<pdfrwt beam="1">  1        4 0.35082035E-02 0.26869210E+03</pdfrwt>
<pdfrwt beam="2">  1       -4 0.12176944E+00 0.26869210E+03</pdfrwt>
<totfact> 0.41977988E+02</totfact>
</mgrwt>
</event>
<event>
 4    1  0.1726503E-004  0.2469375E+03  0.7818608E-02  0.1115256E+00
          1   -1    0    0  501    0  0.00000000000E+00  0.00000000000E+00  0.17085271500E+04  0.17085271500E+04  0.00000000000E+00 0. -1.
         -1   -1    0    0    0  501 -0.00000000000E+00 -0.00000000000E+00 -0.89226190797E+01  0.89226190797E+01  0.00000000000E+00 0. -1.
         25    1    1    2    0    0  0.27825119562E+02  0.46516469750E+01  0.80128556780E+03  0.81071230178E+03  0.12000000000E+03 0.  0.
         25    1    1    2    0    0 -0.27825119562E+02 -0.46516469750E+01  0.89831896317E+03  0.90673746735E+03  0.12000000000E+03 0.  0.
<mgrwt>
<rscale>  0 0.24693754E+03</rscale>
<asrwt>0</asrwt>
<pdfrwt beam="1">  1        1 0.26285007E+00 0.24693754E+03</pdfrwt>
<pdfrwt beam="2">  1       -1 0.13727120E-02 0.24693754E+03</pdfrwt>
<totfact> 0.61883242E+03</totfact>
</mgrwt>
</event>
<event>
 4    1  0.1726503E-004  0.2647268E+03  0.7818608E-02  0.1104336E+00
         -2   -1    0    0    0  501 -0.00000000000E+00  0.00000000000E+00  0.10086234490E+02  0.10086234490E+02  0.00000000000E+00 0.  1.
          2   -1    0    0  501    0  0.00000000000E+00 -0.00000000000E+00 -0.17370276617E+04  0.17370276617E+04  0.00000000000E+00 0.  1.
         25    1    1    2    0    0  0.42503867476E+02 -0.24573639123E+02 -0.68766295795E+03  0.69977909816E+03  0.12000000000E+03 0.  0.
         25    1    1    2    0    0 -0.42503867476E+02  0.24573639123E+02 -0.10392784693E+04  0.10473347981E+04  0.12000000000E+03 0.  0.
<mgrwt>
<rscale>  0 0.26472679E+03</rscale>
<asrwt>0</asrwt>
<pdfrwt beam="1">  1        2 0.26723512E+00 0.26472679E+03</pdfrwt>
<pdfrwt beam="2">  1       -2 0.15517278E-02 0.26472679E+03</pdfrwt>
<totfact> 0.11456280E+04</totfact>
</mgrwt>
</event>
<event>
 4    1  0.1726503E-004  0.2774421E+03  0.7818608E-02  0.1097094E+00
          4   -1    0    0  501    0  0.00000000000E+00  0.00000000000E+00  0.21838781546E+03  0.21838781546E+03  0.00000000000E+00 0.  1.
         -4   -1    0    0    0  501 -0.00000000000E+00 -0.00000000000E+00 -0.88116289095E+02  0.88116289095E+02  0.00000000000E+00 0.  1.
         25    1    1    2    0    0 -0.61393485045E+01  0.55452593875E+02  0.19174418696E+02  0.13371738892E+03  0.12000000000E+03 0.  0.
         25    1    1    2    0    0  0.61393485045E+01 -0.55452593875E+02  0.11109710767E+03  0.17278671564E+03  0.12000000000E+03 0.  0.
<mgrwt>
<rscale>  0 0.27744206E+03</rscale>
<asrwt>0</asrwt>
<pdfrwt beam="1">  1        4 0.33598125E-01 0.27744206E+03</pdfrwt>
<pdfrwt beam="2">  1       -4 0.13556352E-01 0.27744206E+03</pdfrwt>
<totfact> 0.72274167E+02</totfact>
</mgrwt>
</event>
<event>
 4    1  0.1726503E-004  0.2962374E+03  0.7818608E-02  0.1087137E+00
         -1   -1    0    0    0  501 -0.00000000000E+00  0.00000000000E+00  0.15029108253E+02  0.15029108253E+02  0.00000000000E+00 0.  1.
          1   -1    0    0  501    0  0.00000000000E+00 -0.00000000000E+00 -0.14597768051E+04  0.14597768051E+04  0.00000000000E+00 0.  1.
         25    1    1    2    0    0 -0.16005280907E+02 -0.85320189431E+02 -0.71314033138E+03  0.72835762918E+03  0.12000000000E+03 0.  0.
         25    1    1    2    0    0  0.16005280907E+02  0.85320189431E+02 -0.73160736545E+03  0.74644828416E+03  0.12000000000E+03 0.  0.
<mgrwt>
<rscale>  0 0.29623736E+03</rscale>
<asrwt>0</asrwt>
<pdfrwt beam="1">  1        1 0.22458102E+00 0.29623736E+03</pdfrwt>
<pdfrwt beam="2">  1       -1 0.23121708E-02 0.29623736E+03</pdfrwt>
<totfact> 0.42213782E+03</totfact>
</mgrwt>
</event>
<event>
 4    1  0.1726503E-004  0.2760142E+03  0.7818608E-02  0.1097886E+00
          1   -1    0    0  501    0  0.00000000000E+00  0.00000000000E+00  0.39617533953E+03  0.39617533953E+03  0.00000000000E+00 0. -1.
         -1   -1    0    0    0  501 -0.00000000000E+00 -0.00000000000E+00 -0.48074557577E+02  0.48074557577E+02  0.00000000000E+00 0. -1.
         25    1    1    2    0    0 -0.67224701443E+02  0.15708231628E+01  0.15610399255E+03  0.20806269358E+03  0.12000000000E+03 0.  0.
         25    1    1    2    0    0  0.67224701443E+02 -0.15708231628E+01  0.19199678940E+03  0.23618720353E+03  0.12000000000E+03 0.  0.
<mgrwt>
<rscale>  0 0.27601416E+03</rscale>
<asrwt>0</asrwt>
<pdfrwt beam="1">  1        1 0.60950050E-01 0.27601416E+03</pdfrwt>
<pdfrwt beam="2">  1       -1 0.73960861E-02 0.27601416E+03</pdfrwt>
<totfact> 0.59251029E+03</totfact>
</mgrwt>
</event>
<event>
 4    1  0.1726503E-004  0.2890205E+03  0.7818608E-02  0.1090862E+00
         -4   -1    0    0    0  501 -0.00000000000E+00  0.00000000000E+00  0.14281190669E+03  0.14281190669E+03  0.00000000000E+00 0.  1.
          4   -1    0    0  501    0  0.00000000000E+00 -0.00000000000E+00 -0.14622877087E+03  0.14622877087E+03  0.00000000000E+00 0.  1.
         25    1    1    2    0    0 -0.64275158710E+02 -0.16129178782E+01  0.46764657357E+02  0.14394731921E+03  0.12000000000E+03 0.  0.
         25    1    1    2    0    0  0.64275158710E+02  0.16129178782E+01 -0.50181521537E+02  0.14509335834E+03  0.12000000000E+03 0.  0.
<mgrwt>
<rscale>  0 0.28902048E+03</rscale>
<asrwt>0</asrwt>
<pdfrwt beam="1">  1        4 0.22496734E-01 0.28902048E+03</pdfrwt>
<pdfrwt beam="2">  1       -4 0.21971063E-01 0.28902048E+03</pdfrwt>
<totfact> 0.65320692E+02</totfact>
</mgrwt>
</event>
<event>
 4    1  0.1726503E-004  0.3034779E+03  0.7818608E-02  0.1083515E+00
         -2   -1    0    0    0  501 -0.00000000000E+00  0.00000000000E+00  0.81899829026E+02  0.81899829026E+02  0.00000000000E+00 0. -1.
          2   -1    0    0  501    0  0.00000000000E+00 -0.00000000000E+00 -0.28113255954E+03  0.28113255954E+03  0.00000000000E+00 0. -1.
         25    1    1    2    0    0 -0.21461382243E+02 -0.82910756761E+02 -0.56652793824E+02  0.15793772052E+03  0.12000000000E+03 0.  0.
         25    1    1    2    0    0  0.21461382243E+02  0.82910756761E+02 -0.14257993669E+03  0.20509466804E+03  0.12000000000E+03 0.  0.
<mgrwt>
<rscale>  0 0.30347790E+03</rscale>
<asrwt>0</asrwt>
<pdfrwt beam="1">  1        2 0.43251163E-01 0.30347790E+03</pdfrwt>
<pdfrwt beam="2">  1       -2 0.12599974E-01 0.30347790E+03</pdfrwt>
<totfact> 0.53457883E+03</totfact>
</mgrwt>
</event>
<event>
 4    1  0.1726503E-004  0.3194960E+03  0.7818608E-02  0.1075881E+00
          1   -1    0    0  501    0  0.00000000000E+00  0.00000000000E+00  0.13436139603E+02  0.13436139603E+02  0.00000000000E+00 0.  1.
         -1   -1    0    0    0  501 -0.00000000000E+00 -0.00000000000E+00 -0.18993123016E+04  0.18993123016E+04  0.00000000000E+00 0.  1.
         25    1    1    2    0    0  0.54651667512E+02  0.71702321562E+02 -0.61549977576E+03  0.63353610918E+03  0.12000000000E+03 0.  0.
         25    1    1    2    0    0 -0.54651667512E+02 -0.71702321562E+02 -0.12703763862E+04  0.12792123320E+04  0.12000000000E+03 0.  0.
<mgrwt>
<rscale>  0 0.31949601E+03</rscale>
<asrwt>0</asrwt>
<pdfrwt beam="1">  1        1 0.20670988E-02 0.31949601E+03</pdfrwt>
<pdfrwt beam="2">  1       -1 0.29220184E+00 0.31949601E+03</pdfrwt>
<totfact> 0.24868919E+02</totfact>
</mgrwt>
</event>
<event>
 4    1  0.1726503E-004  0.3225971E+03  0.7818608E-02  0.1074460E+00
          2   -1    0    0  501    0  0.00000000000E+00  0.00000000000E+00  0.38940727729E+03  0.38940727729E+03  0.00000000000E+00 0.  1.
         -2   -1    0    0    0  501 -0.00000000000E+00 -0.00000000000E+00 -0.66812379440E+02  0.66812379440E+02  0.00000000000E+00 0.  1.
         25    1    1    2    0    0  0.17548159630E+02 -0.90172001849E+02  0.81569449196E+02  0.17173381399E+03  0.12000000000E+03 0.  0.
         25    1    1    2    0    0 -0.17548159630E+02  0.90172001849E+02  0.24102544866E+03  0.28448584275E+03  0.12000000000E+03 0.  0.
<mgrwt>
<rscale>  0 0.32259713E+03</rscale>
<asrwt>0</asrwt>
<pdfrwt beam="1">  1        2 0.59908811E-01 0.32259713E+03</pdfrwt>
<pdfrwt beam="2">  1       -2 0.10278828E-01 0.32259713E+03</pdfrwt>
<totfact> 0.52250312E+03</totfact>
</mgrwt>
</event>
<event>
 4    1  0.1726503E-004  0.4043898E+03  0.7818608E-02  0.1042270E+00
          2   -1    0    0  501    0  0.00000000000E+00  0.00000000000E+00  0.61236172362E+03  0.61236172362E+03  0.00000000000E+00 0. -1.
         -2   -1    0    0    0  501 -0.00000000000E+00 -0.00000000000E+00 -0.66762464874E+02  0.66762464874E+02  0.00000000000E+00 0. -1.
         25    1    1    2    0    0 -0.15880947438E+03 -0.35529244967E+02  0.27273116584E+03  0.33950709156E+03  0.12000000000E+03 0.  0.
         25    1    1    2    0    0  0.15880947438E+03  0.35529244967E+02  0.27286809291E+03  0.33961709693E+03  0.12000000000E+03 0.  0.
<mgrwt>
<rscale>  0 0.40438980E+03</rscale>
<asrwt>0</asrwt>
<pdfrwt beam="1">  1        2 0.94209492E-01 0.40438980E+03</pdfrwt>
<pdfrwt beam="2">  1       -2 0.10271149E-01 0.40438980E+03</pdfrwt>
<totfact> 0.31495873E+03</totfact>
</mgrwt>
</event>
<event>
 4    1  0.1726503E-004  0.2630190E+03  0.7818608E-02  0.1105343E+00
          2   -1    0    0  501    0  0.00000000000E+00  0.00000000000E+00  0.14375870890E+04  0.14375870890E+04  0.00000000000E+00 0.  1.
         -2   -1    0    0    0  501 -0.00000000000E+00 -0.00000000000E+00 -0.12030401256E+02  0.12030401256E+02  0.00000000000E+00 0.  1.
         25    1    1    2    0    0  0.50466120911E+02  0.87511347126E+01  0.62199180952E+03  0.63552908889E+03  0.12000000000E+03 0.  0.
         25    1    1    2    0    0 -0.50466120911E+02 -0.87511347126E+01  0.80356487825E+03  0.81408840139E+03  0.12000000000E+03 0.  0.
<mgrwt>
<rscale>  0 0.26301901E+03</rscale>
<asrwt>0</asrwt>
<pdfrwt beam="1">  1        2 0.22116711E+00 0.26301901E+03</pdfrwt>
<pdfrwt beam="2">  1       -2 0.18508321E-02 0.26301901E+03</pdfrwt>
<totfact> 0.12755866E+04</totfact>
</mgrwt>
</event>
<event>
 4    1  0.1726503E-004  0.2712176E+03  0.7818608E-02  0.1100585E+00
         -2   -1    0    0    0  501 -0.00000000000E+00  0.00000000000E+00  0.59230017943E+01  0.59230017943E+01  0.00000000000E+00 0.  1.
          2   -1    0    0  501    0  0.00000000000E+00 -0.00000000000E+00 -0.31048020428E+04  0.31048020428E+04  0.00000000000E+00 0.  1.
         25    1    1    2    0    0 -0.22856575215E+02  0.42973353561E+02 -0.20111649470E+04  0.20153296446E+04  0.12000000000E+03 0.  0.
         25    1    1    2    0    0  0.22856575215E+02 -0.42973353561E+02 -0.10877140940E+04  0.10953954000E+04  0.12000000000E+03 0.  0.
<mgrwt>
<rscale>  0 0.27121761E+03</rscale>
<asrwt>0</asrwt>
<pdfrwt beam="1">  1        2 0.47766001E+00 0.27121761E+03</pdfrwt>
<pdfrwt beam="2">  1       -2 0.91123456E-03 0.27121761E+03</pdfrwt>
<totfact> 0.44016739E+03</totfact>
</mgrwt>
</event>
<event>
 4    1  0.1726503E-004  0.3096039E+03  0.7818608E-02  0.1080536E+00
          2   -1    0    0  501    0  0.00000000000E+00  0.00000000000E+00  0.29771547963E+03  0.29771547963E+03  0.00000000000E+00 0.  1.
         -2   -1    0    0    0  501 -0.00000000000E+00 -0.00000000000E+00 -0.80491746413E+02  0.80491746413E+02  0.00000000000E+00 0.  1.
         25    1    1    2    0    0 -0.34820685776E+02  0.71594218724E+02  0.17798910738E+03  0.22895050701E+03  0.12000000000E+03 0.  0.
         25    1    1    2    0    0  0.34820685776E+02 -0.71594218724E+02  0.39234625836E+02  0.14925671903E+03  0.12000000000E+03 0.  0.
<mgrwt>
<rscale>  0 0.30960387E+03</rscale>
<asrwt>0</asrwt>
<pdfrwt beam="1">  1        2 0.45802381E-01 0.30960387E+03</pdfrwt>
<pdfrwt beam="2">  1       -2 0.12383346E-01 0.30960387E+03</pdfrwt>
<totfact> 0.51717416E+03</totfact>
</mgrwt>
</event>
<event>
 4    1  0.1726503E-004  0.2785148E+03  0.7818608E-02  0.1096503E+00
          2   -1    0    0  501    0  0.00000000000E+00  0.00000000000E+00  0.28016028691E+04  0.28016028691E+04  0.00000000000E+00 0.  1.
         -2   -1    0    0    0  501 -0.00000000000E+00 -0.00000000000E+00 -0.69219751832E+01  0.69219751832E+01  0.00000000000E+00 0.  1.
         25    1    1    2    0    0  0.94380835769E+01  0.69972304547E+02  0.14248174681E+04  0.14316040019E+04  0.12000000000E+03 0.  0.
         25    1    1    2    0    0 -0.94380835769E+01 -0.69972304547E+02  0.13698634258E+04  0.13769208424E+04  0.12000000000E+03 0.  0.
<mgrwt>
<rscale>  0 0.27851481E+03</rscale>
<asrwt>0</asrwt>
<pdfrwt beam="1">  1        2 0.43101492E+00 0.27851481E+03</pdfrwt>
<pdfrwt beam="2">  1       -2 0.10649215E-02 0.27851481E+03</pdfrwt>
<totfact> 0.52889638E+03</totfact>
</mgrwt>
</event>
<event>
 4    1  0.1726503E-004  0.2619443E+03  0.7818608E-02  0.1105981E+00
          2   -1    0    0  501    0  0.00000000000E+00  0.00000000000E+00  0.13342579196E+03  0.13342579196E+03  0.00000000000E+00 0. -1.
         -2   -1    0    0    0  501 -0.00000000000E+00 -0.00000000000E+00 -0.12856364996E+03  0.12856364996E+03  0.00000000000E+00 0. -1.
         25    1    1    2    0    0 -0.11765315875E+02  0.71357099205E+01 -0.48217219416E+02  0.13005476255E+03  0.12000000000E+03 0.  0.
         25    1    1    2    0    0  0.11765315875E+02 -0.71357099205E+01  0.53079361415E+02  0.13193467938E+03  0.12000000000E+03 0.  0.
<mgrwt>
<rscale>  0 0.26194432E+03</rscale>
<asrwt>0</asrwt>
<pdfrwt beam="1">  1        2 0.20527045E-01 0.26194432E+03</pdfrwt>
<pdfrwt beam="2">  1       -2 0.19779023E-01 0.26194432E+03</pdfrwt>
<totfact> 0.57154913E+03</totfact>
</mgrwt>
</event>
<event>
 4    1  0.1726503E-004  0.2505071E+03  0.7818608E-02  0.1112985E+00
          1   -1    0    0  501    0  0.00000000000E+00  0.00000000000E+00  0.11297348683E+03  0.11297348683E+03  0.00000000000E+00 0.  1.
         -1   -1    0    0    0  501 -0.00000000000E+00 -0.00000000000E+00 -0.13886848449E+03  0.13886848449E+03  0.00000000000E+00 0.  1.
         25    1    1    2    0    0 -0.34052994862E+02 -0.11146638422E+02 -0.10790630563E+02  0.12569921127E+03  0.12000000000E+03 0.  0.
         25    1    1    2    0    0  0.34052994862E+02  0.11146638422E+02 -0.15104367095E+02  0.12614276005E+03  0.12000000000E+03 0.  0.
<mgrwt>
<rscale>  0 0.25050714E+03</rscale>
<asrwt>0</asrwt>
<pdfrwt beam="1">  1        1 0.17380536E-01 0.25050714E+03</pdfrwt>
<pdfrwt beam="2">  1       -1 0.21364382E-01 0.25050714E+03</pdfrwt>
<totfact> 0.54824299E+03</totfact>
</mgrwt>
</event>
<event>
 4    1  0.1726503E-004  0.3341258E+03  0.7818608E-02  0.1069326E+00
          4   -1    0    0  501    0  0.00000000000E+00  0.00000000000E+00  0.30927263852E+03  0.30927263852E+03  0.00000000000E+00 0.  1.
         -4   -1    0    0    0  501 -0.00000000000E+00 -0.00000000000E+00 -0.90244021594E+02  0.90244021594E+02  0.00000000000E+00 0.  1.
         25    1    1    2    0    0 -0.70754324907E+01  0.87645258778E+02  0.20040579901E+03  0.24958813555E+03  0.12000000000E+03 0.  0.
         25    1    1    2    0    0  0.70754324907E+01 -0.87645258778E+02  0.18622817918E+02  0.14992852457E+03  0.12000000000E+03 0.  0.
<mgrwt>
<rscale>  0 0.33412576E+03</rscale>
<asrwt>0</asrwt>
<pdfrwt beam="1">  1        4 0.47580405E-01 0.33412576E+03</pdfrwt>
<pdfrwt beam="2">  1       -4 0.13883696E-01 0.33412576E+03</pdfrwt>
<totfact> 0.35481275E+02</totfact>
</mgrwt>
</event>
<event>
 4    1  0.1726503E-004  0.3062641E+03  0.7818608E-02  0.1082150E+00
         -1   -1    0    0    0  501 -0.00000000000E+00  0.00000000000E+00  0.31875557645E+02  0.31875557645E+02  0.00000000000E+00 0.  1.
          1   -1    0    0  501    0  0.00000000000E+00 -0.00000000000E+00 -0.73565554216E+03  0.73565554216E+03  0.00000000000E+00 0.  1.
         25    1    1    2    0    0 -0.89002235436E+01 -0.33638784962E+02 -0.57377115783E+03  0.58721727103E+03  0.12000000000E+03 0.  0.
         25    1    1    2    0    0  0.89002235436E+01  0.33638784962E+02 -0.13000882668E+03  0.18031382878E+03  0.12000000000E+03 0.  0.
<mgrwt>
<rscale>  0 0.30626414E+03</rscale>
<asrwt>0</asrwt>
<pdfrwt beam="1">  1        1 0.11317777E+00 0.30626414E+03</pdfrwt>
<pdfrwt beam="2">  1       -1 0.49039322E-02 0.30626414E+03</pdfrwt>
<totfact> 0.47489501E+03</totfact>
</mgrwt>
</event>
<event>
 4    1  0.1726503E-004  0.2660868E+03  0.7818608E-02  0.1103540E+00
         -2   -1    0    0    0  501 -0.00000000000E+00  0.00000000000E+00  0.28333921996E+02  0.28333921996E+02  0.00000000000E+00 0. -1.
          2   -1    0    0  501    0  0.00000000000E+00 -0.00000000000E+00 -0.62471228026E+03  0.62471228026E+03  0.00000000000E+00 0. -1.
         25    1    1    2    0    0 -0.20219555590E+02 -0.23350620259E+02 -0.41707437588E+03  0.43509207866E+03  0.12000000000E+03 0.  0.
         25    1    1    2    0    0  0.20219555590E+02  0.23350620259E+02 -0.17930398238E+03  0.21795412360E+03  0.12000000000E+03 0.  0.
<mgrwt>
<rscale>  0 0.26608682E+03</rscale>
<asrwt>0</asrwt>
<pdfrwt beam="1">  1        2 0.96109577E-01 0.26608682E+03</pdfrwt>
<pdfrwt beam="2">  1       -2 0.43590651E-02 0.26608682E+03</pdfrwt>
<totfact> 0.11533913E+04</totfact>
</mgrwt>
</event>
<event>
 4    1  0.1726503E-004  0.4834610E+03  0.7818608E-02  0.1018188E+00
         -1   -1    0    0    0  501 -0.00000000000E+00  0.00000000000E+00  0.70855003380E+02  0.70855003380E+02  0.00000000000E+00 0.  1.
          1   -1    0    0  501    0  0.00000000000E+00 -0.00000000000E+00 -0.82469316745E+03  0.82469316745E+03  0.00000000000E+00 0.  1.
         25    1    1    2    0    0  0.68106772850E+02 -0.28813125899E+01 -0.74454223836E+03  0.75722518393E+03  0.12000000000E+03 0.  0.
         25    1    1    2    0    0 -0.68106772850E+02  0.28813125899E+01 -0.92959257061E+01  0.13832298690E+03  0.12000000000E+03 0.  0.
<mgrwt>
<rscale>  0 0.48346101E+03</rscale>
<asrwt>0</asrwt>
<pdfrwt beam="1">  1        1 0.12687588E+00 0.48346101E+03</pdfrwt>
<pdfrwt beam="2">  1       -1 0.10900769E-01 0.48346101E+03</pdfrwt>
<totfact> 0.11684532E+03</totfact>
</mgrwt>
</event>
<event>
 4    1  0.1726503E-004  0.3049970E+03  0.7818608E-02  0.1082769E+00
          2   -1    0    0  501    0  0.00000000000E+00  0.00000000000E+00  0.48262607523E+02  0.48262607523E+02  0.00000000000E+00 0. -1.
         -2   -1    0    0    0  501 -0.00000000000E+00 -0.00000000000E+00 -0.48185946751E+03  0.48185946751E+03  0.00000000000E+00 0. -1.
         25    1    1    2    0    0  0.80871235065E+02  0.89150025783E+01 -0.29899085298E+03  0.33228777302E+03  0.12000000000E+03 0.  0.
         25    1    1    2    0    0 -0.80871235065E+02 -0.89150025783E+01 -0.13460600701E+03  0.19783430202E+03  0.12000000000E+03 0.  0.
<mgrwt>
<rscale>  0 0.30499701E+03</rscale>
<asrwt>0</asrwt>
<pdfrwt beam="1">  1        2 0.74250167E-02 0.30499701E+03</pdfrwt>
<pdfrwt beam="2">  1       -2 0.74132225E-01 0.30499701E+03</pdfrwt>
<totfact> 0.15796201E+03</totfact>
</mgrwt>
</event>
<event>
 4    1  0.1726503E-004  0.2764987E+03  0.7818608E-02  0.1097617E+00
         -2   -1    0    0    0  501 -0.00000000000E+00  0.00000000000E+00  0.23111183142E+02  0.23111183142E+02  0.00000000000E+00 0. -1.
          2   -1    0    0  501    0  0.00000000000E+00 -0.00000000000E+00 -0.82699738788E+03  0.82699738788E+03  0.00000000000E+00 0. -1.
         25    1    1    2    0    0 -0.41875914729E+02  0.65965673734E+01 -0.23592375472E+03  0.26806179321E+03  0.12000000000E+03 0.  0.
         25    1    1    2    0    0  0.41875914729E+02 -0.65965673734E+01 -0.56796245001E+03  0.58204677781E+03  0.12000000000E+03 0.  0.
<mgrwt>
<rscale>  0 0.27649874E+03</rscale>
<asrwt>0</asrwt>
<pdfrwt beam="1">  1        2 0.12723037E+00 0.27649874E+03</pdfrwt>
<pdfrwt beam="2">  1       -2 0.35555665E-02 0.27649874E+03</pdfrwt>
<totfact> 0.11122602E+04</totfact>
</mgrwt>
</event>
<event>
 4    1  0.1726503E-004  0.2735775E+03  0.7818608E-02  0.1099249E+00
          2   -1    0    0  501    0  0.00000000000E+00  0.00000000000E+00  0.75245094046E+02  0.75245094046E+02  0.00000000000E+00 0. -1.
         -2   -1    0    0    0  501 -0.00000000000E+00 -0.00000000000E+00 -0.24866944128E+03  0.24866944128E+03  0.00000000000E+00 0. -1.
         25    1    1    2    0    0  0.16125944262E+01  0.60810553627E+02 -0.11596984621E+03  0.17762187119E+03  0.12000000000E+03 0.  0.
         25    1    1    2    0    0 -0.16125944262E+01 -0.60810553627E+02 -0.57454501021E+02  0.14629266414E+03  0.12000000000E+03 0.  0.
<mgrwt>
<rscale>  0 0.27357745E+03</rscale>
<asrwt>0</asrwt>
<pdfrwt beam="1">  1        2 0.11576168E-01 0.27357745E+03</pdfrwt>
<pdfrwt beam="2">  1       -2 0.38256837E-01 0.27357745E+03</pdfrwt>
<totfact> 0.34490362E+03</totfact>
</mgrwt>
</event>
<event>
 4    1  0.1726503E-004  0.2764803E+03  0.7818608E-02  0.1097627E+00
         -1   -1    0    0    0  501 -0.00000000000E+00  0.00000000000E+00  0.84005227925E+03  0.84005227925E+03  0.00000000000E+00 0. -1.
          1   -1    0    0  501    0  0.00000000000E+00 -0.00000000000E+00 -0.22748987111E+02  0.22748987111E+02  0.00000000000E+00 0. -1.
         25    1    1    2    0    0 -0.55833099125E+02 -0.27724047577E+02  0.49825215919E+03  0.51627625542E+03  0.12000000000E+03 0.  0.
         25    1    1    2    0    0  0.55833099125E+02  0.27724047577E+02  0.31905113295E+03  0.34652501095E+03  0.12000000000E+03 0.  0.
<mgrwt>
<rscale>  0 0.27648030E+03</rscale>
<asrwt>0</asrwt>
<pdfrwt beam="1">  1        1 0.34998448E-02 0.27648030E+03</pdfrwt>
<pdfrwt beam="2">  1       -1 0.12923879E+00 0.27648030E+03</pdfrwt>
<totfact> 0.15146195E+03</totfact>
</mgrwt>
</event>
<event>
 4    1  0.1726503E-004  0.2618999E+03  0.7818608E-02  0.1106007E+00
         -2   -1    0    0    0  501 -0.00000000000E+00  0.00000000000E+00  0.41838645978E+02  0.41838645978E+02  0.00000000000E+00 0.  1.
          2   -1    0    0  501    0  0.00000000000E+00 -0.00000000000E+00 -0.40985761992E+03  0.40985761992E+03  0.00000000000E+00 0.  1.
         25    1    1    2    0    0  0.36685600398E+02 -0.66269132292E+01 -0.12044958269E+03  0.17406277955E+03  0.12000000000E+03 0.  0.
         25    1    1    2    0    0 -0.36685600398E+02  0.66269132292E+01 -0.24756939125E+03  0.27763348634E+03  0.12000000000E+03 0.  0.
<mgrwt>
<rscale>  0 0.26189989E+03</rscale>
<asrwt>0</asrwt>
<pdfrwt beam="1">  1        2 0.63055018E-01 0.26189989E+03</pdfrwt>
<pdfrwt beam="2">  1       -2 0.64367148E-02 0.26189989E+03</pdfrwt>
<totfact> 0.10219686E+04</totfact>
</mgrwt>
</event>
<event>
 4    1  0.1726503E-004  0.2523307E+03  0.7818608E-02  0.1111841E+00
          2   -1    0    0  501    0  0.00000000000E+00  0.00000000000E+00  0.40091385060E+03  0.40091385060E+03  0.00000000000E+00 0. -1.
         -2   -1    0    0    0  501 -0.00000000000E+00 -0.00000000000E+00 -0.39703543922E+02  0.39703543922E+02  0.00000000000E+00 0. -1.
         25    1    1    2    0    0 -0.16252545371E+02 -0.15777672503E+01  0.11884169539E+03  0.16967611247E+03  0.12000000000E+03 0.  0.
         25    1    1    2    0    0  0.16252545371E+02  0.15777672503E+01  0.24236861129E+03  0.27094128205E+03  0.12000000000E+03 0.  0.
<mgrwt>
<rscale>  0 0.25233074E+03</rscale>
<asrwt>0</asrwt>
<pdfrwt beam="1">  1        2 0.61679051E-01 0.25233074E+03</pdfrwt>
<pdfrwt beam="2">  1       -2 0.61082378E-02 0.25233074E+03</pdfrwt>
<totfact> 0.11326051E+04</totfact>
</mgrwt>
</event>
<event>
 4    1  0.1726503E-004  0.2792854E+03  0.7818608E-02  0.1096080E+00
         -2   -1    0    0    0  501 -0.00000000000E+00  0.00000000000E+00  0.11364249224E+04  0.11364249224E+04  0.00000000000E+00 0.  1.
          2   -1    0    0  501    0  0.00000000000E+00 -0.00000000000E+00 -0.17159144839E+02  0.17159144839E+02  0.00000000000E+00 0.  1.
         25    1    1    2    0    0  0.13640694599E+02  0.31667342003E+02  0.30131436097E+03  0.32615829474E+03  0.12000000000E+03 0.  0.
         25    1    1    2    0    0 -0.13640694599E+02 -0.31667342003E+02  0.81795141657E+03  0.82742577248E+03  0.12000000000E+03 0.  0.
<mgrwt>
<rscale>  0 0.27928537E+03</rscale>
<asrwt>0</asrwt>
<pdfrwt beam="1">  1        2 0.26398693E-02 0.27928537E+03</pdfrwt>
<pdfrwt beam="2">  1       -2 0.17483454E+00 0.27928537E+03</pdfrwt>
<totfact> 0.78773435E+02</totfact>
</mgrwt>
</event>
<event>
 4    1  0.1726503E-004  0.3170532E+03  0.7818608E-02  0.1077014E+00
          2   -1    0    0  501    0  0.00000000000E+00  0.00000000000E+00  0.18350501311E+04  0.18350501311E+04  0.00000000000E+00 0.  1.
         -2   -1    0    0    0  501 -0.00000000000E+00 -0.00000000000E+00 -0.13694822802E+02  0.13694822802E+02  0.00000000000E+00 0.  1.
         25    1    1    2    0    0  0.21053778734E+02 -0.18444953033E+02  0.32911643133E+03  0.35142723751E+03  0.12000000000E+03 0.  0.
         25    1    1    2    0    0 -0.21053778734E+02  0.18444953033E+02  0.14922388770E+04  0.14973177164E+04  0.12000000000E+03 0.  0.
<mgrwt>
<rscale>  0 0.31705322E+03</rscale>
<asrwt>0</asrwt>
<pdfrwt beam="1">  1        2 0.28231521E+00 0.31705322E+03</pdfrwt>
<pdfrwt beam="2">  1       -2 0.21068973E-02 0.31705322E+03</pdfrwt>
<totfact> 0.65008504E+03</totfact>
</mgrwt>
</event>
<event>
 4    1  0.1726503E-004  0.3301759E+03  0.7818608E-02  0.1071059E+00
         -4   -1    0    0    0  501 -0.00000000000E+00  0.00000000000E+00  0.99297046012E+02  0.99297046012E+02  0.00000000000E+00 0.  1.
          4   -1    0    0  501    0  0.00000000000E+00 -0.00000000000E+00 -0.27446974307E+03  0.27446974307E+03  0.00000000000E+00 0.  1.
         25    1    1    2    0    0 -0.63113689201E+02 -0.26661503751E+02  0.14671510657E+02  0.13895836345E+03  0.12000000000E+03 0.  0.
         25    1    1    2    0    0  0.63113689201E+02  0.26661503751E+02 -0.18984420772E+03  0.23480842564E+03  0.12000000000E+03 0.  0.
<mgrwt>
<rscale>  0 0.33017592E+03</rscale>
<asrwt>0</asrwt>
<pdfrwt beam="1">  1        4 0.42226114E-01 0.33017592E+03</pdfrwt>
<pdfrwt beam="2">  1       -4 0.15276469E-01 0.33017592E+03</pdfrwt>
<totfact> 0.38140628E+02</totfact>
</mgrwt>
</event>
<event>
 4    1  0.1726503E-004  0.2849793E+03  0.7818608E-02  0.1093000E+00
          2   -1    0    0  501    0  0.00000000000E+00  0.00000000000E+00  0.16780735523E+04  0.16780735523E+04  0.00000000000E+00 0.  1.
         -2   -1    0    0    0  501 -0.00000000000E+00 -0.00000000000E+00 -0.12099171161E+02  0.12099171161E+02  0.00000000000E+00 0.  1.
         25    1    1    2    0    0 -0.15574498483E+02 -0.56461486687E+02  0.11279147283E+04  0.11357913976E+04  0.12000000000E+03 0.  0.
         25    1    1    2    0    0  0.15574498483E+02  0.56461486687E+02  0.53805965282E+03  0.55438132587E+03  0.12000000000E+03 0.  0.
<mgrwt>
<rscale>  0 0.28497929E+03</rscale>
<asrwt>0</asrwt>
<pdfrwt beam="1">  1        2 0.25816498E+00 0.28497929E+03</pdfrwt>
<pdfrwt beam="2">  1       -2 0.18614123E-02 0.28497929E+03</pdfrwt>
<totfact> 0.94350440E+03</totfact>
</mgrwt>
</event>
<event>
 4    1  0.1726503E-004  0.2923505E+03  0.7818608E-02  0.1089128E+00
          1   -1    0    0  501    0  0.00000000000E+00  0.00000000000E+00  0.46683890287E+03  0.46683890287E+03  0.00000000000E+00 0. -1.
         -1   -1    0    0    0  501 -0.00000000000E+00 -0.00000000000E+00 -0.45769960932E+02  0.45769960932E+02  0.00000000000E+00 0. -1.
         25    1    1    2    0    0  0.41306026883E+01 -0.83314125325E+02  0.21576332112E+03  0.26059953204E+03  0.12000000000E+03 0.  0.
         25    1    1    2    0    0 -0.41306026883E+01  0.83314125325E+02  0.20530562081E+03  0.25200933176E+03  0.12000000000E+03 0.  0.
<mgrwt>
<rscale>  0 0.29235046E+03</rscale>
<asrwt>0</asrwt>
<pdfrwt beam="1">  1        1 0.71821367E-01 0.29235046E+03</pdfrwt>
<pdfrwt beam="2">  1       -1 0.70415328E-02 0.29235046E+03</pdfrwt>
<totfact> 0.51690666E+03</totfact>
</mgrwt>
</event>
<event>
 4    1  0.1726503E-004  0.2896132E+03  0.7818608E-02  0.1090551E+00
         -1   -1    0    0    0  501 -0.00000000000E+00  0.00000000000E+00  0.40288785929E+02  0.40288785929E+02  0.00000000000E+00 0. -1.
          1   -1    0    0  501    0  0.00000000000E+00 -0.00000000000E+00 -0.52046616823E+03  0.52046616823E+03  0.00000000000E+00 0. -1.
         25    1    1    2    0    0  0.47014883491E+02 -0.42098975861E+02 -0.33855510053E+03  0.36469477531E+03  0.12000000000E+03 0.  0.
         25    1    1    2    0    0 -0.47014883491E+02  0.42098975861E+02 -0.14162228176E+03  0.19606017885E+03  0.12000000000E+03 0.  0.
<mgrwt>
<rscale>  0 0.28961319E+03</rscale>
<asrwt>0</asrwt>
<pdfrwt beam="1">  1        1 0.80071720E-01 0.28961319E+03</pdfrwt>
<pdfrwt beam="2">  1       -1 0.61982746E-02 0.28961319E+03</pdfrwt>
<totfact> 0.54278298E+03</totfact>
</mgrwt>
</event>
<event>
 4    1  0.1726503E-004  0.2570790E+03  0.7818608E-02  0.1108911E+00
         -2   -1    0    0    0  501 -0.00000000000E+00  0.00000000000E+00  0.13504571940E+02  0.13504571940E+02  0.00000000000E+00 0.  1.
          2   -1    0    0  501    0  0.00000000000E+00 -0.00000000000E+00 -0.12234673695E+04  0.12234673695E+04  0.00000000000E+00 0.  1.
         25    1    1    2    0    0  0.43581649340E+02  0.13228449831E+02 -0.63833515496E+03  0.65111145136E+03  0.12000000000E+03 0.  0.
         25    1    1    2    0    0 -0.43581649340E+02 -0.13228449831E+02 -0.57162764263E+03  0.58586049010E+03  0.12000000000E+03 0.  0.
<mgrwt>
<rscale>  0 0.25707900E+03</rscale>
<asrwt>0</asrwt>
<pdfrwt beam="1">  1        2 0.18822575E+00 0.25707900E+03</pdfrwt>
<pdfrwt beam="2">  1       -2 0.20776264E-02 0.25707900E+03</pdfrwt>
<totfact> 0.14105380E+04</totfact>
</mgrwt>
</event>
<event>
 4    1  0.1726503E-004  0.3170804E+03  0.7818608E-02  0.1077001E+00
         -1   -1    0    0    0  501 -0.00000000000E+00  0.00000000000E+00  0.23820231359E+03  0.23820231359E+03  0.00000000000E+00 0.  1.
          1   -1    0    0  501    0  0.00000000000E+00 -0.00000000000E+00 -0.10551954314E+03  0.10551954314E+03  0.00000000000E+00 0.  1.
         25    1    1    2    0    0  0.10249561503E+03 -0.57439289321E+01  0.81543035773E+02  0.17772903675E+03  0.12000000000E+03 0.  0.
         25    1    1    2    0    0 -0.10249561503E+03  0.57439289321E+01  0.51139734681E+02  0.16599281998E+03  0.12000000000E+03 0.  0.
<mgrwt>
<rscale>  0 0.31708043E+03</rscale>
<asrwt>0</asrwt>
<pdfrwt beam="1">  1        1 0.16233776E-01 0.31708043E+03</pdfrwt>
<pdfrwt beam="2">  1       -1 0.36646510E-01 0.31708043E+03</pdfrwt>
<totfact> 0.24236411E+03</totfact>
</mgrwt>
</event>
<event>
 4    1  0.1726503E-004  0.2483845E+03  0.7818608E-02  0.1114330E+00
         -2   -1    0    0    0  501 -0.00000000000E+00  0.00000000000E+00  0.18670553801E+03  0.18670553801E+03  0.00000000000E+00 0.  1.
          2   -1    0    0  501    0  0.00000000000E+00 -0.00000000000E+00 -0.82609857383E+02  0.82609857383E+02  0.00000000000E+00 0.  1.
         25    1    1    2    0    0 -0.30676680532E+02 -0.19202504678E+01  0.42412376957E+02  0.13093340219E+03  0.12000000000E+03 0.  0.
         25    1    1    2    0    0  0.30676680532E+02  0.19202504678E+01  0.61683303667E+02  0.13838199320E+03  0.12000000000E+03 0.  0.
<mgrwt>
<rscale>  0 0.24838452E+03</rscale>
<asrwt>0</asrwt>
<pdfrwt beam="1">  1        2 0.12709209E-01 0.24838452E+03</pdfrwt>
<pdfrwt beam="2">  1       -2 0.28723929E-01 0.24838452E+03</pdfrwt>
<totfact> 0.52082254E+03</totfact>
</mgrwt>
</event>
<event>
 4    1  0.1726503E-004  0.1021111E+04  0.7818608E-02  0.9285689E-01
         -1   -1    0    0    0  501 -0.00000000000E+00  0.00000000000E+00  0.15735598891E+03  0.15735598891E+03  0.00000000000E+00 0.  1.
          1   -1    0    0  501    0  0.00000000000E+00 -0.00000000000E+00 -0.16565414658E+04  0.16565414658E+04  0.00000000000E+00 0.  1.
         25    1    1    2    0    0  0.22872471936E+03  0.37522981017E+03 -0.11591448748E+04  0.12454433943E+04  0.12000000000E+03 0.  0.
         25    1    1    2    0    0 -0.22872471936E+03 -0.37522981017E+03 -0.34004060207E+03  0.56845406036E+03  0.12000000000E+03 0.  0.
<mgrwt>
<rscale>  0 0.10211106E+04</rscale>
<asrwt>0</asrwt>
<pdfrwt beam="1">  1        1 0.25485253E+00 0.10211106E+04</pdfrwt>
<pdfrwt beam="2">  1       -1 0.24208614E-01 0.10211106E+04</pdfrwt>
<totfact> 0.75711847E+01</totfact>
</mgrwt>
</event>
<event>
 4    1  0.1726503E-004  0.3370615E+03  0.7818608E-02  0.1068054E+00
         -2   -1    0    0    0  501 -0.00000000000E+00  0.00000000000E+00  0.73838707068E+02  0.73838707068E+02  0.00000000000E+00 0.  1.
          2   -1    0    0  501    0  0.00000000000E+00 -0.00000000000E+00 -0.38465758849E+03  0.38465758849E+03  0.00000000000E+00 0.  1.
         25    1    1    2    0    0  0.64447323163E+02  0.33458161496E+02 -0.28314979748E+02  0.14308963663E+03  0.12000000000E+03 0.  0.
         25    1    1    2    0    0 -0.64447323163E+02 -0.33458161496E+02 -0.28250390167E+03  0.31540665892E+03  0.12000000000E+03 0.  0.
<mgrwt>
<rscale>  0 0.33706153E+03</rscale>
<asrwt>0</asrwt>
<pdfrwt beam="1">  1        2 0.59178090E-01 0.33706153E+03</pdfrwt>
<pdfrwt beam="2">  1       -2 0.11359801E-01 0.33706153E+03</pdfrwt>
<totfact> 0.45143844E+03</totfact>
</mgrwt>
</event>
<event>
 4    1  0.1726503E-004  0.2478078E+03  0.7818608E-02  0.1114698E+00
          2   -1    0    0  501    0  0.00000000000E+00  0.00000000000E+00  0.30633507111E+03  0.30633507111E+03  0.00000000000E+00 0.  1.
         -2   -1    0    0    0  501 -0.00000000000E+00 -0.00000000000E+00 -0.50115618511E+02  0.50115618511E+02  0.00000000000E+00 0.  1.
         25    1    1    2    0    0 -0.15665829414E+02 -0.26007905849E+02  0.13603306029E+03  0.18392069723E+03  0.12000000000E+03 0.  0.
         25    1    1    2    0    0  0.15665829414E+02  0.26007905849E+02  0.12018639230E+03  0.17252999239E+03  0.12000000000E+03 0.  0.
<mgrwt>
<rscale>  0 0.24780776E+03</rscale>
<asrwt>0</asrwt>
<pdfrwt beam="1">  1        2 0.47128472E-01 0.24780776E+03</pdfrwt>
<pdfrwt beam="2">  1       -2 0.77100953E-02 0.24780776E+03</pdfrwt>
<totfact> 0.10554146E+04</totfact>
</mgrwt>
</event>
<event>
 4    1  0.1726503E-004  0.4253946E+03  0.7818608E-02  0.1035325E+00
          2   -1    0    0  501    0  0.00000000000E+00  0.00000000000E+00  0.28884296255E+04  0.28884296255E+04  0.00000000000E+00 0. -1.
         -2   -1    0    0    0  501 -0.00000000000E+00 -0.00000000000E+00 -0.15662538517E+02  0.15662538517E+02  0.00000000000E+00 0. -1.
         25    1    1    2    0    0  0.14998599463E+02 -0.17383193324E+03  0.15725167743E+04  0.15867109077E+04  0.12000000000E+03 0.  0.
         25    1    1    2    0    0 -0.14998599463E+02  0.17383193324E+03  0.13002503127E+04  0.13173812564E+04  0.12000000000E+03 0.  0.
<mgrwt>
<rscale>  0 0.42539459E+03</rscale>
<asrwt>0</asrwt>
<pdfrwt beam="1">  1        2 0.44437337E+00 0.42539459E+03</pdfrwt>
<pdfrwt beam="2">  1       -2 0.24096236E-02 0.42539459E+03</pdfrwt>
<totfact> 0.13945295E+03</totfact>
</mgrwt>
</event>
<event>
 4    1  0.1726503E-004  0.3029205E+03  0.7818608E-02  0.1083790E+00
          2   -1    0    0  501    0  0.00000000000E+00  0.00000000000E+00  0.33915934529E+04  0.33915934529E+04  0.00000000000E+00 0.  1.
         -2   -1    0    0    0  501 -0.00000000000E+00 -0.00000000000E+00 -0.67638426856E+01  0.67638426856E+01  0.00000000000E+00 0.  1.
         25    1    1    2    0    0 -0.73372851179E+02  0.55010302817E+02  0.15642588561E+04  0.15715328433E+04  0.12000000000E+03 0.  0.
         25    1    1    2    0    0  0.73372851179E+02 -0.55010302817E+02  0.18205707542E+04  0.18268244523E+04  0.12000000000E+03 0.  0.
<mgrwt>
<rscale>  0 0.30292048E+03</rscale>
<asrwt>0</asrwt>
<pdfrwt beam="1">  1        2 0.52178225E+00 0.30292048E+03</pdfrwt>
<pdfrwt beam="2">  1       -2 0.10405939E-02 0.30292048E+03</pdfrwt>
<totfact> 0.23936002E+03</totfact>
</mgrwt>
</event>
<event>
 4    1  0.1726503E-004  0.2961572E+03  0.7818608E-02  0.1087178E+00
          2   -1    0    0  501    0  0.00000000000E+00  0.00000000000E+00  0.10100456602E+03  0.10100456602E+03  0.00000000000E+00 0.  1.
         -2   -1    0    0    0  501 -0.00000000000E+00 -0.00000000000E+00 -0.21709187772E+03  0.21709187772E+03  0.00000000000E+00 0.  1.
         25    1    1    2    0    0  0.60831338240E+02  0.15244323677E+02 -0.12243856413E+03  0.18254874172E+03  0.12000000000E+03 0.  0.
         25    1    1    2    0    0 -0.60831338240E+02 -0.15244323677E+02  0.63512524276E+01  0.13554770202E+03  0.12000000000E+03 0.  0.
<mgrwt>
<rscale>  0 0.29615719E+03</rscale>
<asrwt>0</asrwt>
<pdfrwt beam="1">  1        2 0.15539164E-01 0.29615719E+03</pdfrwt>
<pdfrwt beam="2">  1       -2 0.33398750E-01 0.29615719E+03</pdfrwt>
<totfact> 0.31285007E+03</totfact>
</mgrwt>
</event>
<event>
 4    1  0.1726503E-004  0.2965460E+03  0.7818608E-02  0.1086980E+00
          2   -1    0    0  501    0  0.00000000000E+00  0.00000000000E+00  0.41045581692E+03  0.41045581692E+03  0.00000000000E+00 0. -1.
         -2   -1    0    0    0  501 -0.00000000000E+00 -0.00000000000E+00 -0.53562116011E+02  0.53562116011E+02  0.00000000000E+00 0. -1.
         25    1    1    2    0    0 -0.19360947193E+02  0.31064343249E+02  0.54792217040E+02  0.13690152207E+03  0.12000000000E+03 0.  0.
         25    1    1    2    0    0  0.19360947193E+02 -0.31064343249E+02  0.30210148387E+03  0.32711641086E+03  0.12000000000E+03 0.  0.
<mgrwt>
<rscale>  0 0.29654600E+03</rscale>
<asrwt>0</asrwt>
<pdfrwt beam="1">  1        2 0.63147047E-01 0.29654600E+03</pdfrwt>
<pdfrwt beam="2">  1       -2 0.82403258E-02 0.29654600E+03</pdfrwt>
<totfact> 0.69839015E+03</totfact>
</mgrwt>
</event>
<event>
 4    1  0.1726503E-004  0.2768217E+03  0.7818608E-02  0.1097438E+00
         -2   -1    0    0    0  501 -0.00000000000E+00  0.00000000000E+00  0.21470793675E+02  0.21470793675E+02  0.00000000000E+00 0. -1.
          2   -1    0    0  501    0  0.00000000000E+00 -0.00000000000E+00 -0.89226167503E+03  0.89226167503E+03  0.00000000000E+00 0. -1.
         25    1    1    2    0    0 -0.18053144023E+02 -0.11751749052E+02 -0.21911014775E+03  0.25074544156E+03  0.12000000000E+03 0.  0.
         25    1    1    2    0    0  0.18053144023E+02  0.11751749052E+02 -0.65168073361E+03  0.66298702715E+03  0.12000000000E+03 0.  0.
<mgrwt>
<rscale>  0 0.27682172E+03</rscale>
<asrwt>0</asrwt>
<pdfrwt beam="1">  1        2 0.13727106E+00 0.27682172E+03</pdfrwt>
<pdfrwt beam="2">  1       -2 0.33031982E-02 0.27682172E+03</pdfrwt>
<totfact> 0.11240175E+04</totfact>
</mgrwt>
</event>
<event>
 4    1  0.1726503E-004  0.4486567E+03  0.7818608E-02  0.1028123E+00
          2   -1    0    0  501    0  0.00000000000E+00  0.00000000000E+00  0.27191374143E+03  0.27191374143E+03  0.00000000000E+00 0. -1.
         -2   -1    0    0    0  501 -0.00000000000E+00 -0.00000000000E+00 -0.18507046320E+03  0.18507046320E+03  0.00000000000E+00 0. -1.
         25    1    1    2    0    0 -0.15530142034E+03  0.82636753428E+02  0.11527054707E+03  0.24214595433E+03  0.12000000000E+03 0.  0.
         25    1    1    2    0    0  0.15530142034E+03 -0.82636753428E+02 -0.28427268832E+02  0.21483825030E+03  0.12000000000E+03 0.  0.
<mgrwt>
<rscale>  0 0.44865667E+03</rscale>
<asrwt>0</asrwt>
<pdfrwt beam="1">  1        2 0.41832883E-01 0.44865667E+03</pdfrwt>
<pdfrwt beam="2">  1       -2 0.28472379E-01 0.44865667E+03</pdfrwt>
<totfact> 0.13787785E+03</totfact>
</mgrwt>
</event>
<event>
 4    1  0.1726503E-004  0.2623674E+03  0.7818608E-02  0.1105729E+00
         -2   -1    0    0    0  501 -0.00000000000E+00  0.00000000000E+00  0.12435805478E+02  0.12435805478E+02  0.00000000000E+00 0.  1.
          2   -1    0    0  501    0  0.00000000000E+00 -0.00000000000E+00 -0.13838397098E+04  0.13838397098E+04  0.00000000000E+00 0.  1.
         25    1    1    2    0    0 -0.15624440203E+02 -0.37478960611E+02 -0.86698564390E+03  0.87619227476E+03  0.12000000000E+03 0.  0.
         25    1    1    2    0    0  0.15624440203E+02  0.37478960611E+02 -0.50441826037E+03  0.52008324047E+03  0.12000000000E+03 0.  0.
<mgrwt>
<rscale>  0 0.26236739E+03</rscale>
<asrwt>0</asrwt>
<pdfrwt beam="1">  1        2 0.21289836E+00 0.26236739E+03</pdfrwt>
<pdfrwt beam="2">  1       -2 0.19132014E-02 0.26236739E+03</pdfrwt>
<totfact> 0.12991073E+04</totfact>
</mgrwt>
</event>
<event>
 4    1  0.1726503E-004  0.2520619E+03  0.7818608E-02  0.1112009E+00
         -3   -1    0    0    0  501 -0.00000000000E+00  0.00000000000E+00  0.44588493094E+02  0.44588493094E+02  0.00000000000E+00 0.  1.
          3   -1    0    0  501    0  0.00000000000E+00 -0.00000000000E+00 -0.35623089967E+03  0.35623089967E+03  0.00000000000E+00 0.  1.
         25    1    1    2    0    0 -0.34591243064E+02  0.11644387874E+02 -0.13623874331E+03  0.18518407341E+03  0.12000000000E+03 0.  0.
         25    1    1    2    0    0  0.34591243064E+02 -0.11644387874E+02 -0.17540366326E+03  0.21563531935E+03  0.12000000000E+03 0.  0.
<mgrwt>
<rscale>  0 0.25206189E+03</rscale>
<asrwt>0</asrwt>
<pdfrwt beam="1">  1        3 0.54804755E-01 0.25206189E+03</pdfrwt>
<pdfrwt beam="2">  1       -3 0.68597680E-02 0.25206189E+03</pdfrwt>
<totfact> 0.11460787E+03</totfact>
</mgrwt>
</event>
<event>
 4    1  0.1726503E-004  0.2618021E+03  0.7818608E-02  0.1106065E+00
         -2   -1    0    0    0  501 -0.00000000000E+00  0.00000000000E+00  0.24717684963E+03  0.24717684963E+03  0.00000000000E+00 0.  1.
          2   -1    0    0  501    0  0.00000000000E+00 -0.00000000000E+00 -0.69323156377E+02  0.69323156377E+02  0.00000000000E+00 0.  1.
         25    1    1    2    0    0 -0.34919903385E+02 -0.17116693113E+02  0.46654109648E+02  0.13449530394E+03  0.12000000000E+03 0.  0.
         25    1    1    2    0    0  0.34919903385E+02  0.17116693113E+02  0.13119958360E+03  0.18200470206E+03  0.12000000000E+03 0.  0.
<mgrwt>
<rscale>  0 0.26180206E+03</rscale>
<asrwt>0</asrwt>
<pdfrwt beam="1">  1        2 0.10665101E-01 0.26180206E+03</pdfrwt>
<pdfrwt beam="2">  1       -2 0.38027207E-01 0.26180206E+03</pdfrwt>
<totfact> 0.38521827E+03</totfact>
</mgrwt>
</event>
<event>
 4    1  0.1726503E-004  0.2478846E+03  0.7818608E-02  0.1114649E+00
         -2   -1    0    0    0  501 -0.00000000000E+00  0.00000000000E+00  0.30405319670E+02  0.30405319670E+02  0.00000000000E+00 0.  1.
          2   -1    0    0  501    0  0.00000000000E+00 -0.00000000000E+00 -0.50523031479E+03  0.50523031479E+03  0.00000000000E+00 0.  1.
         25    1    1    2    0    0 -0.14911564688E+02 -0.11355189587E+02 -0.18402677132E+03  0.22049296509E+03  0.12000000000E+03 0.  0.
         25    1    1    2    0    0  0.14911564688E+02  0.11355189587E+02 -0.29079822380E+03  0.31514266937E+03  0.12000000000E+03 0.  0.
<mgrwt>
<rscale>  0 0.24788456E+03</rscale>
<asrwt>0</asrwt>
<pdfrwt beam="1">  1        2 0.77727734E-01 0.24788456E+03</pdfrwt>
<pdfrwt beam="2">  1       -2 0.46777419E-02 0.24788456E+03</pdfrwt>
<totfact> 0.13173073E+04</totfact>
</mgrwt>
</event>
<event>
 4    1  0.1726503E-004  0.2797396E+03  0.7818608E-02  0.1095831E+00
          2   -1    0    0  501    0  0.00000000000E+00  0.00000000000E+00  0.28264032654E+03  0.28264032654E+03  0.00000000000E+00 0.  1.
         -2   -1    0    0    0  501 -0.00000000000E+00 -0.00000000000E+00 -0.69217164345E+02  0.69217164345E+02  0.00000000000E+00 0.  1.
         25    1    1    2    0    0  0.34992905809E+02 -0.13927912165E+01  0.27788852783E+02  0.12805726712E+03  0.12000000000E+03 0.  0.
         25    1    1    2    0    0 -0.34992905809E+02  0.13927912165E+01  0.18563430941E+03  0.22380022376E+03  0.12000000000E+03 0.  0.
<mgrwt>
<rscale>  0 0.27973961E+03</rscale>
<asrwt>0</asrwt>
<pdfrwt beam="1">  1        2 0.43483127E-01 0.27973961E+03</pdfrwt>
<pdfrwt beam="2">  1       -2 0.10648795E-01 0.27973961E+03</pdfrwt>
<totfact> 0.69529349E+03</totfact>
</mgrwt>
</event>
<event>
 4    1  0.1726503E-004  0.2441955E+03  0.7818608E-02  0.1117029E+00
         -1   -1    0    0    0  501 -0.00000000000E+00  0.00000000000E+00  0.10317969884E+03  0.10317969884E+03  0.00000000000E+00 0.  1.
          1   -1    0    0  501    0  0.00000000000E+00 -0.00000000000E+00 -0.14448446693E+03  0.14448446693E+03  0.00000000000E+00 0.  1.
         25    1    1    2    0    0 -0.88550179725E+01 -0.20722875622E+02 -0.20528720702E+02  0.12381145864E+03  0.12000000000E+03 0.  0.
         25    1    1    2    0    0  0.88550179725E+01  0.20722875622E+02 -0.20776047395E+02  0.12385270713E+03  0.12000000000E+03 0.  0.
<mgrwt>
<rscale>  0 0.24419553E+03</rscale>
<asrwt>0</asrwt>
<pdfrwt beam="1">  1        1 0.22228380E-01 0.24419553E+03</pdfrwt>
<pdfrwt beam="2">  1       -1 0.15873800E-01 0.24419553E+03</pdfrwt>
<totfact> 0.64383669E+03</totfact>
</mgrwt>
</event>
<event>
 4    1  0.1726503E-004  0.2458114E+03  0.7818608E-02  0.1115981E+00
          2   -1    0    0  501    0  0.00000000000E+00  0.00000000000E+00  0.29834486687E+04  0.29834486687E+04  0.00000000000E+00 0.  1.
         -2   -1    0    0    0  501 -0.00000000000E+00 -0.00000000000E+00 -0.50632042594E+01  0.50632042594E+01  0.00000000000E+00 0.  1.
         25    1    1    2    0    0  0.68243449010E+00 -0.34751524048E+01  0.11690796414E+04  0.11752275313E+04  0.12000000000E+03 0.  0.
         25    1    1    2    0    0 -0.68243449010E+00  0.34751524048E+01  0.18093058231E+04  0.18132843417E+04  0.12000000000E+03 0.  0.
<mgrwt>
<rscale>  0 0.24581139E+03</rscale>
<asrwt>0</asrwt>
<pdfrwt beam="1">  1        2 0.45899070E+00 0.24581139E+03</pdfrwt>
<pdfrwt beam="2">  1       -2 0.77895689E-03 0.24581139E+03</pdfrwt>
<totfact> 0.65354426E+03</totfact>
</mgrwt>
</event>
<event>
 4    1  0.1726503E-004  0.2711084E+03  0.7818608E-02  0.1100647E+00
         -2   -1    0    0    0  501 -0.00000000000E+00  0.00000000000E+00  0.11130029304E+02  0.11130029304E+02  0.00000000000E+00 0.  1.
          2   -1    0    0  501    0  0.00000000000E+00 -0.00000000000E+00 -0.16509334829E+04  0.16509334829E+04  0.00000000000E+00 0.  1.
         25    1    1    2    0    0 -0.56740548377E+02  0.13489980394E+02 -0.67309041617E+03  0.68618669306E+03  0.12000000000E+03 0.  0.
         25    1    1    2    0    0  0.56740548377E+02 -0.13489980394E+02 -0.96671303740E+03  0.97587681912E+03  0.12000000000E+03 0.  0.
<mgrwt>
<rscale>  0 0.27110838E+03</rscale>
<asrwt>0</asrwt>
<pdfrwt beam="1">  1        2 0.25398984E+00 0.27110838E+03</pdfrwt>
<pdfrwt beam="2">  1       -2 0.17123117E-02 0.27110838E+03</pdfrwt>
<totfact> 0.11013967E+04</totfact>
</mgrwt>
</event>
<event>
 4    1  0.1726503E-004  0.2730546E+03  0.7818608E-02  0.1099544E+00
         -1   -1    0    0    0  501 -0.00000000000E+00  0.00000000000E+00  0.12967835783E+02  0.12967835783E+02  0.00000000000E+00 0. -1.
          1   -1    0    0  501    0  0.00000000000E+00 -0.00000000000E+00 -0.14373791623E+04  0.14373791623E+04  0.00000000000E+00 0. -1.
         25    1    1    2    0    0 -0.60791930308E+02  0.95465274851E+01 -0.59916762815E+03  0.61415685423E+03  0.12000000000E+03 0.  0.
         25    1    1    2    0    0  0.60791930308E+02 -0.95465274851E+01 -0.82524369837E+03  0.83619014386E+03  0.12000000000E+03 0.  0.
<mgrwt>
<rscale>  0 0.27305455E+03</rscale>
<asrwt>0</asrwt>
<pdfrwt beam="1">  1        1 0.22113529E+00 0.27305455E+03</pdfrwt>
<pdfrwt beam="2">  1       -1 0.19950514E-02 0.27305455E+03</pdfrwt>
<totfact> 0.54208246E+03</totfact>
</mgrwt>
</event>
<event>
 4    1  0.1726503E-004  0.2591162E+03  0.7818608E-02  0.1107675E+00
          2   -1    0    0  501    0  0.00000000000E+00  0.00000000000E+00  0.10231889003E+04  0.10231889003E+04  0.00000000000E+00 0.  1.
         -2   -1    0    0    0  501 -0.00000000000E+00 -0.00000000000E+00 -0.16404889697E+02  0.16404889697E+02  0.00000000000E+00 0.  1.
         25    1    1    2    0    0 -0.35772097358E+02  0.71927300323E+01  0.63364073602E+03  0.64593495079E+03  0.12000000000E+03 0.  0.
         25    1    1    2    0    0  0.35772097358E+02 -0.71927300323E+01  0.37314327458E+03  0.39365883920E+03  0.12000000000E+03 0.  0.
<mgrwt>
<rscale>  0 0.25911620E+03</rscale>
<asrwt>0</asrwt>
<pdfrwt beam="1">  1        2 0.15741363E+00 0.25911620E+03</pdfrwt>
<pdfrwt beam="2">  1       -2 0.25238300E-02 0.25911620E+03</pdfrwt>
<totfact> 0.13851670E+04</totfact>
</mgrwt>
</event>
<event>
 4    1  0.1726503E-004  0.2853954E+03  0.7818608E-02  0.1092778E+00
         -2   -1    0    0    0  501 -0.00000000000E+00  0.00000000000E+00  0.86245707213E+01  0.86245707213E+01  0.00000000000E+00 0.  1.
          2   -1    0    0  501    0  0.00000000000E+00 -0.00000000000E+00 -0.23610029352E+04  0.23610029352E+04  0.00000000000E+00 0.  1.
         25    1    1    2    0    0 -0.22747541068E+02 -0.69165408075E+02 -0.13897113690E+04  0.13967816556E+04  0.12000000000E+03 0.  0.
         25    1    1    2    0    0  0.22747541068E+02  0.69165408075E+02 -0.96266699547E+03  0.97284585031E+03  0.12000000000E+03 0.  0.
<mgrwt>
<rscale>  0 0.28539542E+03</rscale>
<asrwt>0</asrwt>
<pdfrwt beam="1">  1        2 0.36323171E+00 0.28539542E+03</pdfrwt>
<pdfrwt beam="2">  1       -2 0.13268553E-02 0.28539542E+03</pdfrwt>
<totfact> 0.67391314E+03</totfact>
</mgrwt>
</event>
<event>
 4    1  0.1726503E-004  0.3557548E+03  0.7818608E-02  0.1060278E+00
          4   -1    0    0  501    0  0.00000000000E+00  0.00000000000E+00  0.73026218285E+02  0.73026218285E+02  0.00000000000E+00 0.  1.
         -4   -1    0    0    0  501 -0.00000000000E+00 -0.00000000000E+00 -0.43327409427E+03  0.43327409427E+03  0.00000000000E+00 0.  1.
         25    1    1    2    0    0 -0.26467954873E+02  0.72194963764E+02 -0.33159454391E+03  0.36092604087E+03  0.12000000000E+03 0.  0.
         25    1    1    2    0    0  0.26467954873E+02 -0.72194963764E+02 -0.28653332073E+02  0.14537427168E+03  0.12000000000E+03 0.  0.
<mgrwt>
<rscale>  0 0.35575480E+03</rscale>
<asrwt>0</asrwt>
<pdfrwt beam="1">  1        4 0.11234803E-01 0.35575480E+03</pdfrwt>
<pdfrwt beam="2">  1       -4 0.66657553E-01 0.35575480E+03</pdfrwt>
<totfact> 0.25359882E+02</totfact>
</mgrwt>
</event>
<event>
 4    1  0.1726503E-004  0.4680268E+03  0.7818608E-02  0.1022479E+00
          1   -1    0    0  501    0  0.00000000000E+00  0.00000000000E+00  0.17172745445E+04  0.17172745445E+04  0.00000000000E+00 0.  1.
         -1   -1    0    0    0  501 -0.00000000000E+00 -0.00000000000E+00 -0.31889064259E+02  0.31889064259E+02  0.00000000000E+00 0.  1.
         25    1    1    2    0    0  0.92267925042E+02  0.17821030813E+03  0.80723856455E+03  0.84042036150E+03  0.12000000000E+03 0.  0.
         25    1    1    2    0    0 -0.92267925042E+02 -0.17821030813E+03  0.87814691573E+03  0.90874324730E+03  0.12000000000E+03 0.  0.
<mgrwt>
<rscale>  0 0.46802683E+03</rscale>
<asrwt>0</asrwt>
<pdfrwt beam="1">  1        1 0.26419601E+00 0.46802683E+03</pdfrwt>
<pdfrwt beam="2">  1       -1 0.49060112E-02 0.46802683E+03</pdfrwt>
<totfact> 0.91989566E+02</totfact>
</mgrwt>
</event>
<event>
 4    1  0.1726503E-004  0.3352313E+03  0.7818608E-02  0.1068845E+00
          1   -1    0    0  501    0  0.00000000000E+00  0.00000000000E+00  0.63150196853E+03  0.63150196853E+03  0.00000000000E+00 0.  1.
         -1   -1    0    0    0  501 -0.00000000000E+00 -0.00000000000E+00 -0.44489193956E+02  0.44489193956E+02  0.00000000000E+00 0.  1.
         25    1    1    2    0    0  0.11913481614E+02  0.10940591509E+03  0.37374725113E+03  0.40767461661E+03  0.12000000000E+03 0.  0.
         25    1    1    2    0    0 -0.11913481614E+02 -0.10940591509E+03  0.21326552344E+03  0.26831654588E+03  0.12000000000E+03 0.  0.
<mgrwt>
<rscale>  0 0.33523134E+03</rscale>
<asrwt>0</asrwt>
<pdfrwt beam="1">  1        1 0.97154143E-01 0.33523134E+03</pdfrwt>
<pdfrwt beam="2">  1       -1 0.68444918E-02 0.33523134E+03</pdfrwt>
<totfact> 0.35863056E+03</totfact>
</mgrwt>
</event>
<event>
 4    1  0.1726503E-004  0.3203682E+03  0.7818608E-02  0.1075480E+00
         -1   -1    0    0    0  501 -0.00000000000E+00  0.00000000000E+00  0.47519229908E+03  0.47519229908E+03  0.00000000000E+00 0.  1.
          1   -1    0    0  501    0  0.00000000000E+00 -0.00000000000E+00 -0.53996981342E+02  0.53996981342E+02  0.00000000000E+00 0.  1.
         25    1    1    2    0    0  0.96857921510E+02  0.31876576183E+02  0.25907716081E+03  0.30318071891E+03  0.12000000000E+03 0.  0.
         25    1    1    2    0    0 -0.96857921510E+02 -0.31876576183E+02  0.16211815693E+03  0.22600856151E+03  0.12000000000E+03 0.  0.
<mgrwt>
<rscale>  0 0.32036822E+03</rscale>
<asrwt>0</asrwt>
<pdfrwt beam="1">  1        1 0.83072282E-02 0.32036822E+03</pdfrwt>
<pdfrwt beam="2">  1       -1 0.73106505E-01 0.32036822E+03</pdfrwt>
<totfact> 0.16250901E+03</totfact>
</mgrwt>
</event>
<event>
 4    1  0.1726503E-004  0.2976505E+03  0.7818608E-02  0.1086421E+00
         -2   -1    0    0    0  501 -0.00000000000E+00  0.00000000000E+00  0.16754392192E+03  0.16754392192E+03  0.00000000000E+00 0.  1.
          2   -1    0    0  501    0  0.00000000000E+00 -0.00000000000E+00 -0.13219792950E+03  0.13219792950E+03  0.00000000000E+00 0.  1.
         25    1    1    2    0    0 -0.43108181091E+02  0.38706245291E+02  0.84414374310E+02  0.15774116549E+03  0.12000000000E+03 0.  0.
         25    1    1    2    0    0  0.43108181091E+02 -0.38706245291E+02 -0.49068381891E+02  0.14200068592E+03  0.12000000000E+03 0.  0.
<mgrwt>
<rscale>  0 0.29765053E+03</rscale>
<asrwt>0</asrwt>
<pdfrwt beam="1">  1        2 0.20338143E-01 0.29765053E+03</pdfrwt>
<pdfrwt beam="2">  1       -2 0.25775988E-01 0.29765053E+03</pdfrwt>
<totfact> 0.36586140E+03</totfact>
</mgrwt>
</event>
<event>
 4    1  0.1726503E-004  0.2765255E+03  0.7818608E-02  0.1097602E+00
          2   -1    0    0  501    0  0.00000000000E+00  0.00000000000E+00  0.23804595512E+02  0.23804595512E+02  0.00000000000E+00 0. -1.
         -2   -1    0    0    0  501 -0.00000000000E+00 -0.00000000000E+00 -0.80306304501E+03  0.80306304501E+03  0.00000000000E+00 0. -1.
         25    1    1    2    0    0  0.30365891940E+02 -0.61420420435E+02 -0.37559260913E+03  0.40020540160E+03  0.12000000000E+03 0.  0.
         25    1    1    2    0    0 -0.30365891940E+02  0.61420420435E+02 -0.40366584037E+03  0.42666223892E+03  0.12000000000E+03 0.  0.
<mgrwt>
<rscale>  0 0.27652552E+03</rscale>
<asrwt>0</asrwt>
<pdfrwt beam="1">  1        2 0.36622456E-02 0.27652552E+03</pdfrwt>
<pdfrwt beam="2">  1       -2 0.12354816E+00 0.27652552E+03</pdfrwt>
<totfact> 0.12348806E+03</totfact>
</mgrwt>
</event>
<event>
 4    1  0.1726503E-004  0.2977266E+03  0.7818608E-02  0.1086383E+00
         -1   -1    0    0    0  501 -0.00000000000E+00  0.00000000000E+00  0.67205741746E+02  0.67205741746E+02  0.00000000000E+00 0.  1.
          1   -1    0    0  501    0  0.00000000000E+00 -0.00000000000E+00 -0.32973791634E+03  0.32973791634E+03  0.00000000000E+00 0.  1.
         25    1    1    2    0    0  0.92565665122E+01 -0.11223665812E-01 -0.24806506205E+03  0.27572079928E+03  0.12000000000E+03 0.  0.
         25    1    1    2    0    0 -0.92565665122E+01  0.11223665812E-01 -0.14467112543E+02  0.12122285880E+03  0.12000000000E+03 0.  0.
<mgrwt>
<rscale>  0 0.29772659E+03</rscale>
<asrwt>0</asrwt>
<pdfrwt beam="1">  1        1 0.50728909E-01 0.29772659E+03</pdfrwt>
<pdfrwt beam="2">  1       -1 0.10339345E-01 0.29772659E+03</pdfrwt>
<totfact> 0.44833290E+03</totfact>
</mgrwt>
</event>
<event>
 4    1  0.1726503E-004  0.3744200E+03  0.7818608E-02  0.1053016E+00
          2   -1    0    0  501    0  0.00000000000E+00  0.00000000000E+00  0.14183517053E+04  0.14183517053E+04  0.00000000000E+00 0.  1.
         -2   -1    0    0    0  501 -0.00000000000E+00 -0.00000000000E+00 -0.24710078216E+02  0.24710078216E+02  0.00000000000E+00 0.  1.
         25    1    1    2    0    0  0.14022477002E+03  0.28952016056E+02  0.74345035648E+03  0.76656352504E+03  0.12000000000E+03 0.  0.
         25    1    1    2    0    0 -0.14022477002E+03 -0.28952016056E+02  0.65019127058E+03  0.67649825846E+03  0.12000000000E+03 0.  0.
<mgrwt>
<rscale>  0 0.37441999E+03</rscale>
<asrwt>0</asrwt>
<pdfrwt beam="1">  1        2 0.21820789E+00 0.37441999E+03</pdfrwt>
<pdfrwt beam="2">  1       -2 0.38015516E-02 0.37441999E+03</pdfrwt>
<totfact> 0.44948823E+03</totfact>
</mgrwt>
</event>
<event>
 4    1  0.1726503E-004  0.2512472E+03  0.7818608E-02  0.1112519E+00
          2   -1    0    0  501    0  0.00000000000E+00  0.00000000000E+00  0.19354075256E+03  0.19354075256E+03  0.00000000000E+00 0. -1.
         -2   -1    0    0    0  501 -0.00000000000E+00 -0.00000000000E+00 -0.81539901773E+02  0.81539901773E+02  0.00000000000E+00 0. -1.
         25    1    1    2    0    0  0.25559522344E+02 -0.10648062656E+02  0.28857082036E+02  0.12648874102E+03  0.12000000000E+03 0.  0.
         25    1    1    2    0    0 -0.25559522344E+02  0.10648062656E+02  0.83143768752E+02  0.14859191332E+03  0.12000000000E+03 0.  0.
<mgrwt>
<rscale>  0 0.25124724E+03</rscale>
<asrwt>0</asrwt>
<pdfrwt beam="1">  1        2 0.29775500E-01 0.25124724E+03</pdfrwt>
<pdfrwt beam="2">  1       -2 0.12544600E-01 0.25124724E+03</pdfrwt>
<totfact> 0.80192627E+03</totfact>
</mgrwt>
</event>
<event>
 4    1  0.1726503E-004  0.2768918E+03  0.7818608E-02  0.1097399E+00
          1   -1    0    0  501    0  0.00000000000E+00  0.00000000000E+00  0.32759749186E+03  0.32759749186E+03  0.00000000000E+00 0.  1.
         -1   -1    0    0    0  501 -0.00000000000E+00 -0.00000000000E+00 -0.58508578483E+02  0.58508578483E+02  0.00000000000E+00 0.  1.
         25    1    1    2    0    0 -0.67273755513E+02 -0.36299423342E+01  0.11347385101E+03  0.17836829742E+03  0.12000000000E+03 0.  0.
         25    1    1    2    0    0  0.67273755513E+02  0.36299423342E+01  0.15561506236E+03  0.20773777292E+03  0.12000000000E+03 0.  0.
<mgrwt>
<rscale>  0 0.27689177E+03</rscale>
<asrwt>0</asrwt>
<pdfrwt beam="1">  1        1 0.50399613E-01 0.27689177E+03</pdfrwt>
<pdfrwt beam="2">  1       -1 0.90013199E-02 0.27689177E+03</pdfrwt>
<totfact> 0.55878115E+03</totfact>
</mgrwt>
</event>
<event>
 4    1  0.1726503E-004  0.3748700E+03  0.7818608E-02  0.1052846E+00
         -2   -1    0    0    0  501 -0.00000000000E+00  0.00000000000E+00  0.18714279851E+02  0.18714279851E+02  0.00000000000E+00 0.  1.
          2   -1    0    0  501    0  0.00000000000E+00 -0.00000000000E+00 -0.18772767245E+04  0.18772767245E+04  0.00000000000E+00 0.  1.
         25    1    1    2    0    0  0.88445856520E+02  0.10086326960E+03 -0.66473668577E+03  0.68867331159E+03  0.12000000000E+03 0.  0.
         25    1    1    2    0    0 -0.88445856520E+02 -0.10086326960E+03 -0.11938257589E+04  0.12073176928E+04  0.12000000000E+03 0.  0.
<mgrwt>
<rscale>  0 0.37487001E+03</rscale>
<asrwt>0</asrwt>
<pdfrwt beam="1">  1        2 0.28881180E+00 0.37487001E+03</pdfrwt>
<pdfrwt beam="2">  1       -2 0.28791200E-02 0.37487001E+03</pdfrwt>
<totfact> 0.38759843E+03</totfact>
</mgrwt>
</event>
<event>
 4    1  0.1726503E-004  0.2816767E+03  0.7818608E-02  0.1094777E+00
         -2   -1    0    0    0  501 -0.00000000000E+00  0.00000000000E+00  0.45654470669E+01  0.45654470669E+01  0.00000000000E+00 0.  1.
          2   -1    0    0  501    0  0.00000000000E+00 -0.00000000000E+00 -0.43446876441E+04  0.43446876441E+04  0.00000000000E+00 0.  1.
         25    1    1    2    0    0 -0.25609799709E+02  0.69091032676E+02 -0.22079104544E+04  0.22123964399E+04  0.12000000000E+03 0.  0.
         25    1    1    2    0    0  0.25609799709E+02 -0.69091032676E+02 -0.21322117427E+04  0.21368566513E+04  0.12000000000E+03 0.  0.
<mgrwt>
<rscale>  0 0.28167670E+03</rscale>
<asrwt>0</asrwt>
<pdfrwt beam="1">  1        2 0.66841541E+00 0.28167670E+03</pdfrwt>
<pdfrwt beam="2">  1       -2 0.70237445E-03 0.28167670E+03</pdfrwt>
<totfact> 0.83142371E+02</totfact>
</mgrwt>
</event>
<event>
 4    1  0.1726503E-004  0.2618842E+03  0.7818608E-02  0.1106016E+00
         -2   -1    0    0    0  501 -0.00000000000E+00  0.00000000000E+00  0.24579738711E+02  0.24579738711E+02  0.00000000000E+00 0. -1.
          2   -1    0    0  501    0  0.00000000000E+00 -0.00000000000E+00 -0.69755964799E+03  0.69755964799E+03  0.00000000000E+00 0. -1.
         25    1    1    2    0    0 -0.11916285193E+02  0.30874108073E+02 -0.22445952442E+03  0.25666570964E+03  0.12000000000E+03 0.  0.
         25    1    1    2    0    0  0.11916285193E+02 -0.30874108073E+02 -0.44852038486E+03  0.46547367706E+03  0.12000000000E+03 0.  0.
<mgrwt>
<rscale>  0 0.26188420E+03</rscale>
<asrwt>0</asrwt>
<pdfrwt beam="1">  1        2 0.10731687E+00 0.26188420E+03</pdfrwt>
<pdfrwt beam="2">  1       -2 0.37814984E-02 0.26188420E+03</pdfrwt>
<totfact> 0.12516963E+04</totfact>
</mgrwt>
</event>
<event>
 4    1  0.1726503E-004  0.2796661E+03  0.7818608E-02  0.1095871E+00
         -2   -1    0    0    0  501 -0.00000000000E+00  0.00000000000E+00  0.61243258755E+02  0.61243258755E+02  0.00000000000E+00 0.  1.
          2   -1    0    0  501    0  0.00000000000E+00 -0.00000000000E+00 -0.31927240045E+03  0.31927240045E+03  0.00000000000E+00 0.  1.
         25    1    1    2    0    0 -0.10173339836E+02  0.64593473230E+02 -0.88710538620E+02  0.16292750931E+03  0.12000000000E+03 0.  0.
         25    1    1    2    0    0  0.10173339836E+02 -0.64593473230E+02 -0.16931860307E+03  0.21758814989E+03  0.12000000000E+03 0.  0.
<mgrwt>
<rscale>  0 0.27966610E+03</rscale>
<asrwt>0</asrwt>
<pdfrwt beam="1">  1        2 0.49118829E-01 0.27966610E+03</pdfrwt>
<pdfrwt beam="2">  1       -2 0.94220401E-02 0.27966610E+03</pdfrwt>
<totfact> 0.74086839E+03</totfact>
</mgrwt>
</event>
<event>
 4    1  0.1726503E-004  0.2489506E+03  0.7818608E-02  0.1113970E+00
          2   -1    0    0  501    0  0.00000000000E+00  0.00000000000E+00  0.96592221065E+02  0.96592221065E+02  0.00000000000E+00 0. -1.
         -2   -1    0    0    0  501 -0.00000000000E+00 -0.00000000000E+00 -0.16040726755E+03  0.16040726755E+03  0.00000000000E+00 0. -1.
         25    1    1    2    0    0 -0.17591535405E+02 -0.51482576563E+01 -0.60331858237E+02  0.13555773601E+03  0.12000000000E+03 0.  0.
         25    1    1    2    0    0  0.17591535405E+02  0.51482576563E+01 -0.34831882497E+01  0.12144175260E+03  0.12000000000E+03 0.  0.
<mgrwt>
<rscale>  0 0.24895055E+03</rscale>
<asrwt>0</asrwt>
<pdfrwt beam="1">  1        2 0.14860342E-01 0.24895055E+03</pdfrwt>
<pdfrwt beam="2">  1       -2 0.24678041E-01 0.24895055E+03</pdfrwt>
<totfact> 0.56600819E+03</totfact>
</mgrwt>
</event>
<event>
 4    1  0.1726503E-004  0.3713131E+03  0.7818608E-02  0.1054192E+00
         -2   -1    0    0    0  501 -0.00000000000E+00  0.00000000000E+00  0.12179091302E+03  0.12179091302E+03  0.00000000000E+00 0.  1.
          2   -1    0    0  501    0  0.00000000000E+00 -0.00000000000E+00 -0.28301259919E+03  0.28301259919E+03  0.00000000000E+00 0.  1.
         25    1    1    2    0    0 -0.29926240626E+02 -0.12500834825E+03 -0.15694404284E+02  0.17654739119E+03  0.12000000000E+03 0.  0.
         25    1    1    2    0    0  0.29926240626E+02  0.12500834825E+03 -0.14552728189E+03  0.22825612102E+03  0.12000000000E+03 0.  0.
<mgrwt>
<rscale>  0 0.37131314E+03</rscale>
<asrwt>0</asrwt>
<pdfrwt beam="1">  1        2 0.43540399E-01 0.37131314E+03</pdfrwt>
<pdfrwt beam="2">  1       -2 0.18737064E-01 0.37131314E+03</pdfrwt>
<totfact> 0.27534153E+03</totfact>
</mgrwt>
</event>
<event>
 4    1  0.1726503E-004  0.3680402E+03  0.7818608E-02  0.1055445E+00
          1   -1    0    0  501    0  0.00000000000E+00  0.00000000000E+00  0.75571869040E+03  0.75571869040E+03  0.00000000000E+00 0. -1.
         -1   -1    0    0    0  501 -0.00000000000E+00 -0.00000000000E+00 -0.44809530128E+02  0.44809530128E+02  0.00000000000E+00 0. -1.
         25    1    1    2    0    0  0.16413456365E+02 -0.13138159074E+03  0.25982696748E+03  0.31534200000E+03  0.12000000000E+03 0.  0.
         25    1    1    2    0    0 -0.16413456365E+02  0.13138159074E+03  0.45108219279E+03  0.48518622052E+03  0.12000000000E+03 0.  0.
<mgrwt>
<rscale>  0 0.36804021E+03</rscale>
<asrwt>0</asrwt>
<pdfrwt beam="1">  1        1 0.11626440E+00 0.36804021E+03</pdfrwt>
<pdfrwt beam="2">  1       -1 0.68937744E-02 0.36804021E+03</pdfrwt>
<totfact> 0.27280305E+03</totfact>
</mgrwt>
</event>
<event>
 4    1  0.1726503E-004  0.2592159E+03  0.7818608E-02  0.1107615E+00
          1   -1    0    0  501    0  0.00000000000E+00  0.00000000000E+00  0.21130167075E+04  0.21130167075E+04  0.00000000000E+00 0. -1.
         -1   -1    0    0    0  501 -0.00000000000E+00 -0.00000000000E+00 -0.79498730387E+01  0.79498730387E+01  0.00000000000E+00 0. -1.
         25    1    1    2    0    0  0.26335075525E+02  0.39550293164E+02  0.95556344884E+03  0.96424025359E+03  0.12000000000E+03 0.  0.
         25    1    1    2    0    0 -0.26335075525E+02 -0.39550293164E+02  0.11495033857E+04  0.11567263270E+04  0.12000000000E+03 0.  0.
<mgrwt>
<rscale>  0 0.25921585E+03</rscale>
<asrwt>0</asrwt>
<pdfrwt beam="1">  1        1 0.32507905E+00 0.25921585E+03</pdfrwt>
<pdfrwt beam="2">  1       -1 0.12230591E-02 0.25921585E+03</pdfrwt>
<totfact> 0.40006580E+03</totfact>
</mgrwt>
</event>
<event>
 4    1  0.1726503E-004  0.2719605E+03  0.7818608E-02  0.1100163E+00
         -1   -1    0    0    0  501 -0.00000000000E+00  0.00000000000E+00  0.21398632156E+02  0.21398632156E+02  0.00000000000E+00 0. -1.
          1   -1    0    0  501    0  0.00000000000E+00 -0.00000000000E+00 -0.86410354885E+03  0.86410354885E+03  0.00000000000E+00 0. -1.
         25    1    1    2    0    0  0.16497009266E+02  0.59982345086E+01 -0.22110204178E+03  0.25217899003E+03  0.12000000000E+03 0.  0.
         25    1    1    2    0    0 -0.16497009266E+02 -0.59982345086E+01 -0.62160287491E+03  0.63332319098E+03  0.12000000000E+03 0.  0.
<mgrwt>
<rscale>  0 0.27196054E+03</rscale>
<asrwt>0</asrwt>
<pdfrwt beam="1">  1        1 0.13293903E+00 0.27196054E+03</pdfrwt>
<pdfrwt beam="2">  1       -1 0.32920968E-02 0.27196054E+03</pdfrwt>
<totfact> 0.66927434E+03</totfact>
</mgrwt>
</event>
<event>
 4    1  0.1726503E-004  0.2647830E+03  0.7818608E-02  0.1104303E+00
          2   -1    0    0  501    0  0.00000000000E+00  0.00000000000E+00  0.54617125645E+03  0.54617125645E+03  0.00000000000E+00 0.  1.
         -2   -1    0    0    0  501 -0.00000000000E+00 -0.00000000000E+00 -0.32091592157E+02  0.32091592157E+02  0.00000000000E+00 0.  1.
         25    1    1    2    0    0 -0.29947007609E+02 -0.74019400413E+01  0.15516801957E+03  0.19856667968E+03  0.12000000000E+03 0.  0.
         25    1    1    2    0    0  0.29947007609E+02  0.74019400413E+01  0.35891164472E+03  0.37969616892E+03  0.12000000000E+03 0.  0.
<mgrwt>
<rscale>  0 0.26478297E+03</rscale>
<asrwt>0</asrwt>
<pdfrwt beam="1">  1        2 0.84026341E-01 0.26478297E+03</pdfrwt>
<pdfrwt beam="2">  1       -2 0.49371684E-02 0.26478297E+03</pdfrwt>
<totfact> 0.11151536E+04</totfact>
</mgrwt>
</event>
<event>
 4    1  0.1726503E-004  0.4404702E+03  0.7818608E-02  0.1030603E+00
          2   -1    0    0  501    0  0.00000000000E+00  0.00000000000E+00  0.76474741984E+02  0.76474741984E+02  0.00000000000E+00 0. -1.
         -2   -1    0    0    0  501 -0.00000000000E+00 -0.00000000000E+00 -0.63424208726E+03  0.63424208726E+03  0.00000000000E+00 0. -1.
         25    1    1    2    0    0 -0.58103464843E+02  0.61961904753E+02 -0.54346610698E+03  0.56300150951E+03  0.12000000000E+03 0.  0.
         25    1    1    2    0    0  0.58103464843E+02 -0.61961904753E+02 -0.14301238289E+02  0.14771531973E+03  0.12000000000E+03 0.  0.
<mgrwt>
<rscale>  0 0.44047020E+03</rscale>
<asrwt>0</asrwt>
<pdfrwt beam="1">  1        2 0.11765344E-01 0.44047020E+03</pdfrwt>
<pdfrwt beam="2">  1       -2 0.97575711E-01 0.44047020E+03</pdfrwt>
<totfact> 0.47789192E+02</totfact>
</mgrwt>
</event>
<event>
 4    1  0.1726503E-004  0.2799674E+03  0.7818608E-02  0.1095707E+00
          1   -1    0    0  501    0  0.00000000000E+00  0.00000000000E+00  0.45081222081E+04  0.45081222081E+04  0.00000000000E+00 0. -1.
         -1   -1    0    0    0  501 -0.00000000000E+00 -0.00000000000E+00 -0.43466963416E+01  0.43466963416E+01  0.00000000000E+00 0. -1.
         25    1    1    2    0    0 -0.83865076017E+01 -0.69737860121E+01  0.34002732415E+04  0.34024075423E+04  0.12000000000E+03 0.  0.
         25    1    1    2    0    0  0.83865076017E+01  0.69737860121E+01  0.11035022702E+04  0.11100613621E+04  0.12000000000E+03 0.  0.
<mgrwt>
<rscale>  0 0.27996741E+03</rscale>
<asrwt>0</asrwt>
<pdfrwt beam="1">  1        1 0.69355352E+00 0.27996741E+03</pdfrwt>
<pdfrwt beam="2">  1       -1 0.66872612E-03 0.27996741E+03</pdfrwt>
<totfact> 0.14560949E+02</totfact>
</mgrwt>
</event>
<event>
 4    1  0.1726503E-004  0.2905489E+03  0.7818608E-02  0.1090063E+00
          1   -1    0    0  501    0  0.00000000000E+00  0.00000000000E+00  0.14614632700E+04  0.14614632700E+04  0.00000000000E+00 0. -1.
         -1   -1    0    0    0  501 -0.00000000000E+00 -0.00000000000E+00 -0.14440778834E+02  0.14440778834E+02  0.00000000000E+00 0. -1.
         25    1    1    2    0    0  0.73700093115E+02 -0.31845882381E+01  0.54299760372E+03  0.56097080403E+03  0.12000000000E+03 0.  0.
         25    1    1    2    0    0 -0.73700093115E+02  0.31845882381E+01  0.90402488746E+03  0.91493324482E+03  0.12000000000E+03 0.  0.
<mgrwt>
<rscale>  0 0.29054891E+03</rscale>
<asrwt>0</asrwt>
<pdfrwt beam="1">  1        1 0.22484039E+00 0.29054891E+03</pdfrwt>
<pdfrwt beam="2">  1       -1 0.22216594E-02 0.29054891E+03</pdfrwt>
<totfact> 0.44643560E+03</totfact>
</mgrwt>
</event>
<event>
 4    1  0.1726503E-004  0.2532036E+03  0.7818608E-02  0.1111297E+00
         -3   -1    0    0    0  501 -0.00000000000E+00  0.00000000000E+00  0.23336886406E+04  0.23336886406E+04  0.00000000000E+00 0. -1.
          3   -1    0    0  501    0  0.00000000000E+00 -0.00000000000E+00 -0.68681038107E+01  0.68681038107E+01  0.00000000000E+00 0. -1.
         25    1    1    2    0    0  0.19819871092E+02 -0.32620945945E+02  0.10425101768E+04  0.10500878164E+04  0.12000000000E+03 0.  0.
         25    1    1    2    0    0 -0.19819871092E+02  0.32620945945E+02  0.12843103599E+04  0.12904689280E+04  0.12000000000E+03 0.  0.
<mgrwt>
<rscale>  0 0.25320360E+03</rscale>
<asrwt>0</asrwt>
<pdfrwt beam="1">  1        3 0.10566332E-02 0.25320360E+03</pdfrwt>
<pdfrwt beam="2">  1       -3 0.35902839E+00 0.25320360E+03</pdfrwt>
<totfact> 0.13485796E+02</totfact>
</mgrwt>
</event>
<event>
 4    1  0.1726503E-004  0.2923615E+03  0.7818608E-02  0.1089123E+00
         -1   -1    0    0    0  501 -0.00000000000E+00  0.00000000000E+00  0.81556564078E+02  0.81556564078E+02  0.00000000000E+00 0. -1.
          1   -1    0    0  501    0  0.00000000000E+00 -0.00000000000E+00 -0.26201224203E+03  0.26201224203E+03  0.00000000000E+00 0. -1.
         25    1    1    2    0    0  0.20450156177E+01 -0.49344047199E+02 -0.11135750142E+02  0.13024216681E+03  0.12000000000E+03 0.  0.
         25    1    1    2    0    0 -0.20450156177E+01  0.49344047199E+02 -0.16931992781E+03  0.21332663931E+03  0.12000000000E+03 0.  0.
<mgrwt>
<rscale>  0 0.29236154E+03</rscale>
<asrwt>0</asrwt>
<pdfrwt beam="1">  1        1 0.40309575E-01 0.29236154E+03</pdfrwt>
<pdfrwt beam="2">  1       -1 0.12547164E-01 0.29236154E+03</pdfrwt>
<totfact> 0.44269586E+03</totfact>
</mgrwt>
</event>
<event>
 4    1  0.1726503E-004  0.4311993E+03  0.7818608E-02  0.1033482E+00
         -3   -1    0    0    0  501 -0.00000000000E+00  0.00000000000E+00  0.69362303500E+02  0.69362303500E+02  0.00000000000E+00 0.  1.
          3   -1    0    0  501    0  0.00000000000E+00 -0.00000000000E+00 -0.67015100969E+03  0.67015100969E+03  0.00000000000E+00 0.  1.
         25    1    1    2    0    0 -0.11152922268E+03 -0.13250306067E+03 -0.22203882938E+03  0.30609977189E+03  0.12000000000E+03 0.  0.
         25    1    1    2    0    0  0.11152922268E+03  0.13250306067E+03 -0.37874987682E+03  0.43341354130E+03  0.12000000000E+03 0.  0.
<mgrwt>
<rscale>  0 0.43119934E+03</rscale>
<asrwt>0</asrwt>
<pdfrwt beam="1">  1        3 0.10310015E+00 0.43119934E+03</pdfrwt>
<pdfrwt beam="2">  1       -3 0.10671124E-01 0.43119934E+03</pdfrwt>
<totfact> 0.14538168E+02</totfact>
</mgrwt>
</event>
<event>
 4    1  0.1726503E-004  0.3903936E+03  0.7818608E-02  0.1047158E+00
         -2   -1    0    0    0  501 -0.00000000000E+00  0.00000000000E+00  0.49710220219E+02  0.49710220219E+02  0.00000000000E+00 0. -1.
          2   -1    0    0  501    0  0.00000000000E+00 -0.00000000000E+00 -0.76647807568E+03  0.76647807568E+03  0.00000000000E+00 0. -1.
         25    1    1    2    0    0 -0.49552630762E+02  0.57705728477E+02 -0.78542000511E+02  0.16233995244E+03  0.12000000000E+03 0.  0.
         25    1    1    2    0    0  0.49552630762E+02 -0.57705728477E+02 -0.63822585495E+03  0.65384834346E+03  0.12000000000E+03 0.  0.
<mgrwt>
<rscale>  0 0.39039362E+03</rscale>
<asrwt>0</asrwt>
<pdfrwt beam="1">  1        2 0.11791970E+00 0.39039362E+03</pdfrwt>
<pdfrwt beam="2">  1       -2 0.76477262E-02 0.39039362E+03</pdfrwt>
<totfact> 0.38216381E+03</totfact>
</mgrwt>
</event>
<event>
 4    1  0.1726503E-004  0.2564981E+03  0.7818608E-02  0.1109266E+00
          2   -1    0    0  501    0  0.00000000000E+00  0.00000000000E+00  0.17944206392E+04  0.17944206392E+04  0.00000000000E+00 0.  1.
         -2   -1    0    0    0  501 -0.00000000000E+00 -0.00000000000E+00 -0.91660899087E+01  0.91660899087E+01  0.00000000000E+00 0.  1.
         25    1    1    2    0    0 -0.63724130484E+01 -0.36122553516E-01  0.57759904753E+03  0.58996717591E+03  0.12000000000E+03 0.  0.
         25    1    1    2    0    0  0.63724130484E+01  0.36122553516E-01  0.12076555018E+04  0.12136195532E+04  0.12000000000E+03 0.  0.
<mgrwt>
<rscale>  0 0.25649812E+03</rscale>
<asrwt>0</asrwt>
<pdfrwt beam="1">  1        2 0.27606443E+00 0.25649812E+03</pdfrwt>
<pdfrwt beam="2">  1       -2 0.14101691E-02 0.25649812E+03</pdfrwt>
<totfact> 0.12284112E+04</totfact>
</mgrwt>
</event>
<event>
 4    1  0.1726503E-004  0.3099253E+03  0.7818608E-02  0.1080382E+00
          2   -1    0    0  501    0  0.00000000000E+00  0.00000000000E+00  0.14306918693E+04  0.14306918693E+04  0.00000000000E+00 0. -1.
         -2   -1    0    0    0  501 -0.00000000000E+00 -0.00000000000E+00 -0.16784487862E+02  0.16784487862E+02  0.00000000000E+00 0. -1.
         25    1    1    2    0    0 -0.83202246524E+02  0.48410028804E+02  0.61991792216E+03  0.63872088970E+03  0.12000000000E+03 0.  0.
         25    1    1    2    0    0  0.83202246524E+02 -0.48410028804E+02  0.79398945928E+03  0.80875546747E+03  0.12000000000E+03 0.  0.
<mgrwt>
<rscale>  0 0.30992535E+03</rscale>
<asrwt>0</asrwt>
<pdfrwt beam="1">  1        2 0.22010635E+00 0.30992535E+03</pdfrwt>
<pdfrwt beam="2">  1       -2 0.25822300E-02 0.30992535E+03</pdfrwt>
<totfact> 0.78942826E+03</totfact>
</mgrwt>
</event>
<event>
 4    1  0.1726503E-004  0.2492915E+03  0.7818608E-02  0.1113753E+00
          1   -1    0    0  501    0  0.00000000000E+00  0.00000000000E+00  0.27468443087E+04  0.27468443087E+04  0.00000000000E+00 0.  1.
         -1   -1    0    0    0  501 -0.00000000000E+00 -0.00000000000E+00 -0.56561503909E+01  0.56561503909E+01  0.00000000000E+00 0.  1.
         25    1    1    2    0    0  0.24361047561E+02  0.46652128484E+00  0.16278552969E+04  0.16324541482E+04  0.12000000000E+03 0.  0.
         25    1    1    2    0    0 -0.24361047561E+02 -0.46652128484E+00  0.11133328614E+04  0.11200463109E+04  0.12000000000E+03 0.  0.
<mgrwt>
<rscale>  0 0.24929151E+03</rscale>
<asrwt>0</asrwt>
<pdfrwt beam="1">  1        1 0.42259037E+00 0.24929151E+03</pdfrwt>
<pdfrwt beam="2">  1       -1 0.87017918E-03 0.24929151E+03</pdfrwt>
<totfact> 0.24924110E+03</totfact>
</mgrwt>
</event>
<event>
 4    1  0.1726503E-004  0.2761604E+03  0.7818608E-02  0.1097805E+00
          2   -1    0    0  501    0  0.00000000000E+00  0.00000000000E+00  0.73411703409E+03  0.73411703409E+03  0.00000000000E+00 0.  1.
         -2   -1    0    0    0  501 -0.00000000000E+00 -0.00000000000E+00 -0.25971523692E+02  0.25971523692E+02  0.00000000000E+00 0.  1.
         25    1    1    2    0    0  0.65215471562E+02  0.20310273090E+02  0.35615622705E+03  0.38198537013E+03  0.12000000000E+03 0.  0.
         25    1    1    2    0    0 -0.65215471562E+02 -0.20310273090E+02  0.35198928334E+03  0.37810318765E+03  0.12000000000E+03 0.  0.
<mgrwt>
<rscale>  0 0.27616037E+03</rscale>
<asrwt>0</asrwt>
<pdfrwt beam="1">  1        2 0.11294107E+00 0.27616037E+03</pdfrwt>
<pdfrwt beam="2">  1       -2 0.39956196E-02 0.27616037E+03</pdfrwt>
<totfact> 0.10848296E+04</totfact>
</mgrwt>
</event>
<event>
 4    1  0.1726503E-004  0.3586283E+03  0.7818608E-02  0.1059128E+00
         -2   -1    0    0    0  501 -0.00000000000E+00  0.00000000000E+00  0.55129079593E+02  0.55129079593E+02  0.00000000000E+00 0. -1.
          2   -1    0    0  501    0  0.00000000000E+00 -0.00000000000E+00 -0.58324137548E+03  0.58324137548E+03  0.00000000000E+00 0. -1.
         25    1    1    2    0    0 -0.51841142270E+02  0.90963319547E+02 -0.41075221735E+03  0.44054422433E+03  0.12000000000E+03 0.  0.
         25    1    1    2    0    0  0.51841142270E+02 -0.90963319547E+02 -0.11736007854E+03  0.19782623074E+03  0.12000000000E+03 0.  0.
<mgrwt>
<rscale>  0 0.35862828E+03</rscale>
<asrwt>0</asrwt>
<pdfrwt beam="1">  1        2 0.89729439E-01 0.35862828E+03</pdfrwt>
<pdfrwt beam="2">  1       -2 0.84813972E-02 0.35862828E+03</pdfrwt>
<totfact> 0.45176434E+03</totfact>
</mgrwt>
</event>
<event>
 4    1  0.1726503E-004  0.2489158E+03  0.7818608E-02  0.1113992E+00
         -2   -1    0    0    0  501 -0.00000000000E+00  0.00000000000E+00  0.20998398538E+02  0.20998398538E+02  0.00000000000E+00 0. -1.
          2   -1    0    0  501    0  0.00000000000E+00 -0.00000000000E+00 -0.73766404392E+03  0.73766404392E+03  0.00000000000E+00 0. -1.
         25    1    1    2    0    0  0.56450227081E+01 -0.16354385444E+02 -0.44402245523E+03  0.46027738696E+03  0.12000000000E+03 0.  0.
         25    1    1    2    0    0 -0.56450227081E+01  0.16354385444E+02 -0.27264319016E+03  0.29838505550E+03  0.12000000000E+03 0.  0.
<mgrwt>
<rscale>  0 0.24891576E+03</rscale>
<asrwt>0</asrwt>
<pdfrwt beam="1">  1        2 0.11348677E+00 0.24891576E+03</pdfrwt>
<pdfrwt beam="2">  1       -2 0.32305230E-02 0.24891576E+03</pdfrwt>
<totfact> 0.14760817E+04</totfact>
</mgrwt>
</event>
<event>
 4    1  0.1726503E-004  0.4504174E+03  0.7818608E-02  0.1027598E+00
          1   -1    0    0  501    0  0.00000000000E+00  0.00000000000E+00  0.57229698165E+03  0.57229698165E+03  0.00000000000E+00 0.  1.
         -1   -1    0    0    0  501 -0.00000000000E+00 -0.00000000000E+00 -0.88623500419E+02  0.88623500419E+02  0.00000000000E+00 0.  1.
         25    1    1    2    0    0 -0.13906741691E+03  0.12973916190E+03  0.22404815916E+03  0.31744223758E+03  0.12000000000E+03 0.  0.
         25    1    1    2    0    0  0.13906741691E+03 -0.12973916190E+03  0.25962532207E+03  0.34347824449E+03  0.12000000000E+03 0.  0.
<mgrwt>
<rscale>  0 0.45041741E+03</rscale>
<asrwt>0</asrwt>
<pdfrwt beam="1">  1        1 0.88045687E-01 0.45041741E+03</pdfrwt>
<pdfrwt beam="2">  1       -1 0.13634385E-01 0.45041741E+03</pdfrwt>
<totfact> 0.14097851E+03</totfact>
</mgrwt>
</event>
<event>
 4    1  0.1726503E-004  0.2416708E+03  0.7818608E-02  0.1118685E+00
          1   -1    0    0  501    0  0.00000000000E+00  0.00000000000E+00  0.15086228663E+03  0.15086228663E+03  0.00000000000E+00 0.  1.
         -1   -1    0    0    0  501 -0.00000000000E+00 -0.00000000000E+00 -0.96784923164E+02  0.96784923164E+02  0.00000000000E+00 0.  1.
         25    1    1    2    0    0 -0.32795388404E+01 -0.91387982795E+01  0.37634692665E+02  0.12613739771E+03  0.12000000000E+03 0.  0.
         25    1    1    2    0    0  0.32795388404E+01  0.91387982795E+01  0.16442670797E+02  0.12150981208E+03  0.12000000000E+03 0.  0.
<mgrwt>
<rscale>  0 0.24167081E+03</rscale>
<asrwt>0</asrwt>
<pdfrwt beam="1">  1        1 0.23209583E-01 0.24167081E+03</pdfrwt>
<pdfrwt beam="2">  1       -1 0.14889988E-01 0.24167081E+03</pdfrwt>
<totfact> 0.67409008E+03</totfact>
</mgrwt>
</event>
<event>
 4    1  0.1726503E-004  0.2929615E+03  0.7818608E-02  0.1088813E+00
         -2   -1    0    0    0  501 -0.00000000000E+00  0.00000000000E+00  0.28670475258E+02  0.28670475258E+02  0.00000000000E+00 0.  1.
          2   -1    0    0  501    0  0.00000000000E+00 -0.00000000000E+00 -0.74838695233E+03  0.74838695233E+03  0.00000000000E+00 0.  1.
         25    1    1    2    0    0 -0.31176803391E+01 -0.76949108900E+02 -0.44885180114E+03  0.47095522576E+03  0.12000000000E+03 0.  0.
         25    1    1    2    0    0  0.31176803391E+01  0.76949108900E+02 -0.27086467593E+03  0.30610220182E+03  0.12000000000E+03 0.  0.
<mgrwt>
<rscale>  0 0.29296150E+03</rscale>
<asrwt>0</asrwt>
<pdfrwt beam="1">  1        2 0.11513644E+00 0.29296150E+03</pdfrwt>
<pdfrwt beam="2">  1       -2 0.44108429E-02 0.29296150E+03</pdfrwt>
<totfact> 0.91422393E+03</totfact>
</mgrwt>
</event>
<event>
 4    1  0.1726503E-004  0.3678055E+03  0.7818608E-02  0.1055535E+00
          1   -1    0    0  501    0  0.00000000000E+00  0.00000000000E+00  0.15071664323E+04  0.15071664323E+04  0.00000000000E+00 0.  1.
         -1   -1    0    0    0  501 -0.00000000000E+00 -0.00000000000E+00 -0.22439605809E+02  0.22439605809E+02  0.00000000000E+00 0.  1.
         25    1    1    2    0    0  0.45985157080E+02  0.19842375477E+02  0.20153793740E+03  0.23984556437E+03  0.12000000000E+03 0.  0.
         25    1    1    2    0    0 -0.45985157080E+02 -0.19842375477E+02  0.12831888891E+04  0.12897604737E+04  0.12000000000E+03 0.  0.
<mgrwt>
<rscale>  0 0.36780550E+03</rscale>
<asrwt>0</asrwt>
<pdfrwt beam="1">  1        1 0.23187168E+00 0.36780550E+03</pdfrwt>
<pdfrwt beam="2">  1       -1 0.34522482E-02 0.36780550E+03</pdfrwt>
<totfact> 0.21657240E+03</totfact>
</mgrwt>
</event>
<event>
 4    1  0.1726503E-004  0.2870831E+03  0.7818608E-02  0.1091882E+00
          1   -1    0    0  501    0  0.00000000000E+00  0.00000000000E+00  0.87457979349E+02  0.87457979349E+02  0.00000000000E+00 0.  1.
         -1   -1    0    0    0  501 -0.00000000000E+00 -0.00000000000E+00 -0.23558951086E+03  0.23558951086E+03  0.00000000000E+00 0.  1.
         25    1    1    2    0    0 -0.15355713086E+02 -0.36532963720E+02 -0.15066490908E+03  0.19664783291E+03  0.12000000000E+03 0.  0.
         25    1    1    2    0    0  0.15355713086E+02  0.36532963720E+02  0.25333775651E+01  0.12639965730E+03  0.12000000000E+03 0.  0.
<mgrwt>
<rscale>  0 0.28708314E+03</rscale>
<asrwt>0</asrwt>
<pdfrwt beam="1">  1        1 0.13455074E-01 0.28708314E+03</pdfrwt>
<pdfrwt beam="2">  1       -1 0.36244540E-01 0.28708314E+03</pdfrwt>
<totfact> 0.31576553E+03</totfact>
</mgrwt>
</event>
<event>
 4    1  0.1726503E-004  0.3147409E+03  0.7818608E-02  0.1078095E+00
          2   -1    0    0  501    0  0.00000000000E+00  0.00000000000E+00  0.66085004952E+03  0.66085004952E+03  0.00000000000E+00 0. -1.
         -2   -1    0    0    0  501 -0.00000000000E+00 -0.00000000000E+00 -0.37475163311E+02  0.37475163311E+02  0.00000000000E+00 0. -1.
         25    1    1    2    0    0  0.39621014714E+02 -0.73825042721E+02  0.18335539378E+03  0.23460426715E+03  0.12000000000E+03 0.  0.
         25    1    1    2    0    0 -0.39621014714E+02  0.73825042721E+02  0.44001949243E+03  0.46372094568E+03  0.12000000000E+03 0.  0.
<mgrwt>
<rscale>  0 0.31474093E+03</rscale>
<asrwt>0</asrwt>
<pdfrwt beam="1">  1        2 0.10166923E+00 0.31474093E+03</pdfrwt>
<pdfrwt beam="2">  1       -2 0.57654102E-02 0.31474093E+03</pdfrwt>
<totfact> 0.70887351E+03</totfact>
</mgrwt>
</event>
<event>
 4    1  0.1726503E-004  0.3693291E+03  0.7818608E-02  0.1054950E+00
          2   -1    0    0  501    0  0.00000000000E+00  0.00000000000E+00  0.22005568309E+04  0.22005568309E+04  0.00000000000E+00 0. -1.
         -2   -1    0    0    0  501 -0.00000000000E+00 -0.00000000000E+00 -0.15496532024E+02  0.15496532024E+02  0.00000000000E+00 0. -1.
         25    1    1    2    0    0 -0.96264511407E+02  0.10146019815E+03  0.11635183837E+04  0.11780220954E+04  0.12000000000E+03 0.  0.
         25    1    1    2    0    0  0.96264511407E+02 -0.10146019815E+03  0.10215419152E+04  0.10380312676E+04  0.12000000000E+03 0.  0.
<mgrwt>
<rscale>  0 0.36932912E+03</rscale>
<asrwt>0</asrwt>
<pdfrwt beam="1">  1        2 0.33854696E+00 0.36932912E+03</pdfrwt>
<pdfrwt beam="2">  1       -2 0.23840836E-02 0.36932912E+03</pdfrwt>
<totfact> 0.34554262E+03</totfact>
</mgrwt>
</event>
<event>
 4    1  0.1726503E-004  0.4697333E+03  0.7818608E-02  0.1021996E+00
          2   -1    0    0  501    0  0.00000000000E+00  0.00000000000E+00  0.85403847823E+03  0.85403847823E+03  0.00000000000E+00 0.  1.
         -2   -1    0    0    0  501 -0.00000000000E+00 -0.00000000000E+00 -0.64589996366E+02  0.64589996366E+02  0.00000000000E+00 0.  1.
         25    1    1    2    0    0  0.18629517702E+03 -0.75298323908E+02  0.43317686852E+03  0.49235955356E+03  0.12000000000E+03 0.  0.
         25    1    1    2    0    0 -0.18629517702E+03  0.75298323908E+02  0.35627161335E+03  0.42626892104E+03  0.12000000000E+03 0.  0.
<mgrwt>
<rscale>  0 0.46973330E+03</rscale>
<asrwt>0</asrwt>
<pdfrwt beam="1">  1        2 0.13139053E+00 0.46973330E+03</pdfrwt>
<pdfrwt beam="2">  1       -2 0.99369232E-02 0.46973330E+03</pdfrwt>
<totfact> 0.21903534E+03</totfact>
</mgrwt>
</event>
<event>
 4    1  0.1726503E-004  0.2512445E+03  0.7818608E-02  0.1112521E+00
          1   -1    0    0  501    0  0.00000000000E+00  0.00000000000E+00  0.59045004146E+03  0.59045004146E+03  0.00000000000E+00 0. -1.
         -1   -1    0    0    0  501 -0.00000000000E+00 -0.00000000000E+00 -0.26726995620E+02  0.26726995620E+02  0.00000000000E+00 0. -1.
         25    1    1    2    0    0  0.18584587863E+01  0.27449711038E+02  0.22049794328E+03  0.25253966717E+03  0.12000000000E+03 0.  0.
         25    1    1    2    0    0 -0.18584587863E+01 -0.27449711038E+02  0.34322510257E+03  0.36463736991E+03  0.12000000000E+03 0.  0.
<mgrwt>
<rscale>  0 0.25124455E+03</rscale>
<asrwt>0</asrwt>
<pdfrwt beam="1">  1        1 0.90838458E-01 0.25124455E+03</pdfrwt>
<pdfrwt beam="2">  1       -1 0.41118459E-02 0.25124455E+03</pdfrwt>
<totfact> 0.84190517E+03</totfact>
</mgrwt>
</event>
<event>
 4    1  0.1726503E-004  0.2665346E+03  0.7818608E-02  0.1103279E+00
          4   -1    0    0  501    0  0.00000000000E+00  0.00000000000E+00  0.20553418463E+02  0.20553418463E+02  0.00000000000E+00 0.  1.
         -4   -1    0    0    0  501 -0.00000000000E+00 -0.00000000000E+00 -0.86409835938E+03  0.86409835938E+03  0.00000000000E+00 0.  1.
         25    1    1    2    0    0  0.48512112917E+02  0.10447732889E+02 -0.52121197164E+03  0.53714476597E+03  0.12000000000E+03 0.  0.
         25    1    1    2    0    0 -0.48512112917E+02 -0.10447732889E+02 -0.32233296928E+03  0.34750701188E+03  0.12000000000E+03 0.  0.
<mgrwt>
<rscale>  0 0.26653461E+03</rscale>
<asrwt>0</asrwt>
<pdfrwt beam="1">  1        4 0.31620648E-02 0.26653461E+03</pdfrwt>
<pdfrwt beam="2">  1       -4 0.13293819E+00 0.26653461E+03</pdfrwt>
<totfact> 0.39803703E+02</totfact>
</mgrwt>
</event>
<event>
 4    1  0.1726503E-004  0.2568136E+03  0.7818608E-02  0.1109073E+00
          2   -1    0    0  501    0  0.00000000000E+00  0.00000000000E+00  0.64748593780E+03  0.64748593780E+03  0.00000000000E+00 0.  1.
         -2   -1    0    0    0  501 -0.00000000000E+00 -0.00000000000E+00 -0.25465112812E+02  0.25465112812E+02  0.00000000000E+00 0.  1.
         25    1    1    2    0    0 -0.24756928922E+02  0.36955716313E+02  0.33845225671E+03  0.36184051814E+03  0.12000000000E+03 0.  0.
         25    1    1    2    0    0  0.24756928922E+02 -0.36955716313E+02  0.28356856828E+03  0.31111053247E+03  0.12000000000E+03 0.  0.
<mgrwt>
<rscale>  0 0.25681357E+03</rscale>
<asrwt>0</asrwt>
<pdfrwt beam="1">  1        2 0.99613209E-01 0.25681357E+03</pdfrwt>
<pdfrwt beam="2">  1       -2 0.39177102E-02 0.25681357E+03</pdfrwt>
<totfact> 0.12965445E+04</totfact>
</mgrwt>
</event>
<event>
 4    1  0.1726503E-004  0.2633014E+03  0.7818608E-02  0.1105176E+00
         -1   -1    0    0    0  501 -0.00000000000E+00  0.00000000000E+00  0.16411345502E+02  0.16411345502E+02  0.00000000000E+00 0.  1.
          1   -1    0    0  501    0  0.00000000000E+00 -0.00000000000E+00 -0.10560932296E+04  0.10560932296E+04  0.00000000000E+00 0.  1.
         25    1    1    2    0    0  0.48495279934E+02 -0.23351781122E+02 -0.54387442732E+03  0.55955025740E+03  0.12000000000E+03 0.  0.
         25    1    1    2    0    0 -0.48495279934E+02  0.23351781122E+02 -0.49580745674E+03  0.51295431767E+03  0.12000000000E+03 0.  0.
<mgrwt>
<rscale>  0 0.26330143E+03</rscale>
<asrwt>0</asrwt>
<pdfrwt beam="1">  1        1 0.16247591E+00 0.26330143E+03</pdfrwt>
<pdfrwt beam="2">  1       -1 0.25248219E-02 0.26330143E+03</pdfrwt>
<totfact> 0.70556986E+03</totfact>
</mgrwt>
</event>
<event>
 4    1  0.1726503E-004  0.2892055E+03  0.7818608E-02  0.1090765E+00
         -2   -1    0    0    0  501 -0.00000000000E+00  0.00000000000E+00  0.34537604353E+02  0.34537604353E+02  0.00000000000E+00 0. -1.
          2   -1    0    0  501    0  0.00000000000E+00 -0.00000000000E+00 -0.60542585650E+03  0.60542585650E+03  0.00000000000E+00 0. -1.
         25    1    1    2    0    0 -0.20660716293E+02  0.65764300853E+02 -0.19265937938E+03  0.23721181448E+03  0.12000000000E+03 0.  0.
         25    1    1    2    0    0  0.20660716293E+02 -0.65764300853E+02 -0.37822887277E+03  0.40275164638E+03  0.12000000000E+03 0.  0.
<mgrwt>
<rscale>  0 0.28920552E+03</rscale>
<asrwt>0</asrwt>
<pdfrwt beam="1">  1        2 0.93142432E-01 0.28920552E+03</pdfrwt>
<pdfrwt beam="2">  1       -2 0.53134780E-02 0.28920552E+03</pdfrwt>
<totfact> 0.88868525E+03</totfact>
</mgrwt>
</event>
<event>
 4    1  0.1726503E-004  0.3631619E+03  0.7818608E-02  0.1057339E+00
          2   -1    0    0  501    0  0.00000000000E+00  0.00000000000E+00  0.19816081246E+03  0.19816081246E+03  0.00000000000E+00 0.  1.
         -2   -1    0    0    0  501 -0.00000000000E+00 -0.00000000000E+00 -0.16638833510E+03  0.16638833510E+03  0.00000000000E+00 0.  1.
         25    1    1    2    0    0  0.81595741903E+02 -0.64962460275E+02  0.10393480697E+03  0.18994849418E+03  0.12000000000E+03 0.  0.
         25    1    1    2    0    0 -0.81595741903E+02  0.64962460275E+02 -0.72162329613E+02  0.17460065337E+03  0.12000000000E+03 0.  0.
<mgrwt>
<rscale>  0 0.36316193E+03</rscale>
<asrwt>0</asrwt>
<pdfrwt beam="1">  1        2 0.30486279E-01 0.36316193E+03</pdfrwt>
<pdfrwt beam="2">  1       -2 0.25598205E-01 0.36316193E+03</pdfrwt>
<totfact> 0.23595621E+03</totfact>
</mgrwt>
</event>
<event>
 4    1  0.1726503E-004  0.2535368E+03  0.7818608E-02  0.1111090E+00
          2   -1    0    0  501    0  0.00000000000E+00  0.00000000000E+00  0.74919462601E+03  0.74919462601E+03  0.00000000000E+00 0. -1.
         -2   -1    0    0    0  501 -0.00000000000E+00 -0.00000000000E+00 -0.21450010290E+02  0.21450010290E+02  0.00000000000E+00 0. -1.
         25    1    1    2    0    0 -0.22681818780E+02 -0.90858569064E+01  0.26429591287E+03  0.29128911284E+03  0.12000000000E+03 0.  0.
         25    1    1    2    0    0  0.22681818780E+02  0.90858569064E+01  0.46344870285E+03  0.47935552346E+03  0.12000000000E+03 0.  0.
<mgrwt>
<rscale>  0 0.25353684E+03</rscale>
<asrwt>0</asrwt>
<pdfrwt beam="1">  1        2 0.11526069E+00 0.25353684E+03</pdfrwt>
<pdfrwt beam="2">  1       -2 0.33000022E-02 0.25353684E+03</pdfrwt>
<totfact> 0.14040280E+04</totfact>
</mgrwt>
</event>
<event>
 4    1  0.1726503E-004  0.2427413E+03  0.7818608E-02  0.1117980E+00
          1   -1    0    0  501    0  0.00000000000E+00  0.00000000000E+00  0.56102621477E+02  0.56102621477E+02  0.00000000000E+00 0. -1.
         -1   -1    0    0    0  501 -0.00000000000E+00 -0.00000000000E+00 -0.26256951619E+03  0.26256951619E+03  0.00000000000E+00 0. -1.
         25    1    1    2    0    0 -0.77128364760E+01  0.16413084426E+02 -0.10507183959E+03  0.16052715864E+03  0.12000000000E+03 0.  0.
         25    1    1    2    0    0  0.77128364760E+01 -0.16413084426E+02 -0.10139505512E+03  0.15814497902E+03  0.12000000000E+03 0.  0.
<mgrwt>
<rscale>  0 0.24274133E+03</rscale>
<asrwt>0</asrwt>
<pdfrwt beam="1">  1        1 0.86311724E-02 0.24274133E+03</pdfrwt>
<pdfrwt beam="2">  1       -1 0.40395311E-01 0.24274133E+03</pdfrwt>
<totfact> 0.46989911E+03</totfact>
</mgrwt>
</event>
<event>
 4    1  0.1726503E-004  0.2429314E+03  0.7818608E-02  0.1117855E+00
         -2   -1    0    0    0  501 -0.00000000000E+00  0.00000000000E+00  0.23113641669E+02  0.23113641669E+02  0.00000000000E+00 0. -1.
          2   -1    0    0  501    0  0.00000000000E+00 -0.00000000000E+00 -0.63832086177E+03  0.63832086177E+03  0.00000000000E+00 0. -1.
         25    1    1    2    0    0  0.16529624545E+02 -0.33624080229E+01 -0.33028330304E+03  0.35181187380E+03  0.12000000000E+03 0.  0.
         25    1    1    2    0    0 -0.16529624545E+02  0.33624080229E+01 -0.28492391706E+03  0.30962262964E+03  0.12000000000E+03 0.  0.
<mgrwt>
<rscale>  0 0.24293143E+03</rscale>
<asrwt>0</asrwt>
<pdfrwt beam="1">  1        2 0.98203187E-01 0.24293143E+03</pdfrwt>
<pdfrwt beam="2">  1       -2 0.35559457E-02 0.24293143E+03</pdfrwt>
<totfact> 0.15204917E+04</totfact>
</mgrwt>
</event>
<event>
 4    1  0.1726503E-004  0.3042668E+03  0.7818608E-02  0.1083127E+00
          1   -1    0    0  501    0  0.00000000000E+00  0.00000000000E+00  0.25689515267E+03  0.25689515267E+03  0.00000000000E+00 0. -1.
         -1   -1    0    0    0  501 -0.00000000000E+00 -0.00000000000E+00 -0.90093467858E+02  0.90093467858E+02  0.00000000000E+00 0. -1.
         25    1    1    2    0    0  0.83983145614E+02  0.27298865425E+00  0.13030108091E+03  0.19603983003E+03  0.12000000000E+03 0.  0.
         25    1    1    2    0    0 -0.83983145614E+02 -0.27298865425E+00  0.36500603906E+02  0.15094879051E+03  0.12000000000E+03 0.  0.
<mgrwt>
<rscale>  0 0.30426682E+03</rscale>
<asrwt>0</asrwt>
<pdfrwt beam="1">  1        1 0.39522331E-01 0.30426682E+03</pdfrwt>
<pdfrwt beam="2">  1       -1 0.13860534E-01 0.30426682E+03</pdfrwt>
<totfact> 0.38832183E+03</totfact>
</mgrwt>
</event>
<event>
 4    1  0.1726503E-004  0.2675240E+03  0.7818608E-02  0.1102705E+00
         -1   -1    0    0    0  501 -0.00000000000E+00  0.00000000000E+00  0.23081472856E+03  0.23081472856E+03  0.00000000000E+00 0. -1.
          1   -1    0    0  501    0  0.00000000000E+00 -0.00000000000E+00 -0.77517891898E+02  0.77517891898E+02  0.00000000000E+00 0. -1.
         25    1    1    2    0    0  0.52241194695E+02 -0.25789975742E+02  0.65238491377E+02  0.14849352184E+03  0.12000000000E+03 0.  0.
         25    1    1    2    0    0 -0.52241194695E+02  0.25789975742E+02  0.88058345285E+02  0.15983909862E+03  0.12000000000E+03 0.  0.
<mgrwt>
<rscale>  0 0.26752399E+03</rscale>
<asrwt>0</asrwt>
<pdfrwt beam="1">  1        1 0.11925830E-01 0.26752399E+03</pdfrwt>
<pdfrwt beam="2">  1       -1 0.35509958E-01 0.26752399E+03</pdfrwt>
<totfact> 0.38329790E+03</totfact>
</mgrwt>
</event>
<event>
 4    1  0.1726503E-004  0.2641921E+03  0.7818608E-02  0.1104650E+00
          2   -1    0    0  501    0  0.00000000000E+00  0.00000000000E+00  0.78540560294E+03  0.78540560294E+03  0.00000000000E+00 0.  1.
         -2   -1    0    0    0  501 -0.00000000000E+00 -0.00000000000E+00 -0.22217016497E+02  0.22217016497E+02  0.00000000000E+00 0.  1.
         25    1    1    2    0    0  0.29642615631E+02  0.23956206039E+02  0.25943913726E+03  0.28837692420E+03  0.12000000000E+03 0.  0.
         25    1    1    2    0    0 -0.29642615631E+02 -0.23956206039E+02  0.50374944918E+03  0.51924569523E+03  0.12000000000E+03 0.  0.
<mgrwt>
<rscale>  0 0.26419212E+03</rscale>
<asrwt>0</asrwt>
<pdfrwt beam="1">  1        2 0.12083161E+00 0.26419212E+03</pdfrwt>
<pdfrwt beam="2">  1       -2 0.34180031E-02 0.26419212E+03</pdfrwt>
<totfact> 0.12580883E+04</totfact>
</mgrwt>
</event>
<event>
 4    1  0.1726503E-004  0.2815964E+03  0.7818608E-02  0.1094820E+00
          1   -1    0    0  501    0  0.00000000000E+00  0.00000000000E+00  0.16380682276E+04  0.16380682276E+04  0.00000000000E+00 0.  1.
         -1   -1    0    0    0  501 -0.00000000000E+00 -0.00000000000E+00 -0.12102144851E+02  0.12102144851E+02  0.00000000000E+00 0.  1.
         25    1    1    2    0    0 -0.13778782698E+02  0.65166439107E+02  0.99714351094E+03  0.10065444357E+04  0.12000000000E+03 0.  0.
         25    1    1    2    0    0  0.13778782698E+02 -0.65166439107E+02  0.62882257185E+03  0.64362593679E+03  0.12000000000E+03 0.  0.
<mgrwt>
<rscale>  0 0.28159644E+03</rscale>
<asrwt>0</asrwt>
<pdfrwt beam="1">  1        1 0.25201032E+00 0.28159644E+03</pdfrwt>
<pdfrwt beam="2">  1       -1 0.18618697E-02 0.28159644E+03</pdfrwt>
<totfact> 0.44195134E+03</totfact>
</mgrwt>
</event>
<event>
 4    1  0.1726503E-004  0.2849521E+03  0.7818608E-02  0.1093015E+00
         -2   -1    0    0    0  501 -0.00000000000E+00  0.00000000000E+00  0.74878571908E+02  0.74878571908E+02  0.00000000000E+00 0.  1.
          2   -1    0    0  501    0  0.00000000000E+00 -0.00000000000E+00 -0.27109797033E+03  0.27109797033E+03  0.00000000000E+00 0.  1.
         25    1    1    2    0    0  0.23634101909E+01 -0.72126287795E+02 -0.66178490795E+02  0.15487859679E+03  0.12000000000E+03 0.  0.
         25    1    1    2    0    0 -0.23634101909E+01  0.72126287795E+02 -0.13004090762E+03  0.19109794545E+03  0.12000000000E+03 0.  0.
<mgrwt>
<rscale>  0 0.28495213E+03</rscale>
<asrwt>0</asrwt>
<pdfrwt beam="1">  1        2 0.41707379E-01 0.28495213E+03</pdfrwt>
<pdfrwt beam="2">  1       -2 0.11519781E-01 0.28495213E+03</pdfrwt>
<totfact> 0.64145868E+03</totfact>
</mgrwt>
</event>
<event>
 4    1  0.1726503E-004  0.3483985E+03  0.7818608E-02  0.1063274E+00
         -4   -1    0    0    0  501 -0.00000000000E+00  0.00000000000E+00  0.26911923430E+03  0.26911923430E+03  0.00000000000E+00 0.  1.
          4   -1    0    0  501    0  0.00000000000E+00 -0.00000000000E+00 -0.11275815013E+03  0.11275815013E+03  0.00000000000E+00 0.  1.
         25    1    1    2    0    0 -0.19028656628E+02 -0.21866398956E+02 -0.56532684178E+02  0.13577987169E+03  0.12000000000E+03 0.  0.
         25    1    1    2    0    0  0.19028656628E+02  0.21866398956E+02  0.21289376835E+03  0.24609751274E+03  0.12000000000E+03 0.  0.
<mgrwt>
<rscale>  0 0.34839855E+03</rscale>
<asrwt>0</asrwt>
<pdfrwt beam="1">  1        4 0.17347408E-01 0.34839855E+03</pdfrwt>
<pdfrwt beam="2">  1       -4 0.41402959E-01 0.34839855E+03</pdfrwt>
<totfact> 0.31822363E+02</totfact>
</mgrwt>
</event>
<event>
 4    1  0.1726503E-004  0.3181628E+03  0.7818608E-02  0.1076498E+00
          2   -1    0    0  501    0  0.00000000000E+00  0.00000000000E+00  0.68224633670E+03  0.68224633670E+03  0.00000000000E+00 0.  1.
         -2   -1    0    0    0  501 -0.00000000000E+00 -0.00000000000E+00 -0.37093481733E+02  0.37093481733E+02  0.00000000000E+00 0.  1.
         25    1    1    2    0    0 -0.69127971281E+02 -0.62659919931E+01  0.14615310013E+03  0.20144147474E+03  0.12000000000E+03 0.  0.
         25    1    1    2    0    0  0.69127971281E+02  0.62659919931E+01  0.49899975484E+03  0.51789834369E+03  0.12000000000E+03 0.  0.
<mgrwt>
<rscale>  0 0.31816280E+03</rscale>
<asrwt>0</asrwt>
<pdfrwt beam="1">  1        2 0.10496097E+00 0.31816280E+03</pdfrwt>
<pdfrwt beam="2">  1       -2 0.57066900E-02 0.31816280E+03</pdfrwt>
<totfact> 0.69318199E+03</totfact>
</mgrwt>
</event>
<event>
 4    1  0.1726503E-004  0.2622180E+03  0.7818608E-02  0.1105818E+00
          2   -1    0    0  501    0  0.00000000000E+00  0.00000000000E+00  0.51080531664E+03  0.51080531664E+03  0.00000000000E+00 0.  1.
         -2   -1    0    0    0  501 -0.00000000000E+00 -0.00000000000E+00 -0.33651898673E+02  0.33651898673E+02  0.00000000000E+00 0.  1.
         25    1    1    2    0    0 -0.14127786788E+02 -0.33459932278E+02  0.31819632901E+03  0.34200594326E+03  0.12000000000E+03 0.  0.
         25    1    1    2    0    0  0.14127786788E+02  0.33459932278E+02  0.15895708895E+03  0.20245127205E+03  0.12000000000E+03 0.  0.
<mgrwt>
<rscale>  0 0.26221799E+03</rscale>
<asrwt>0</asrwt>
<pdfrwt beam="1">  1        2 0.78585428E-01 0.26221799E+03</pdfrwt>
<pdfrwt beam="2">  1       -2 0.51772156E-02 0.26221799E+03</pdfrwt>
<totfact> 0.11185211E+04</totfact>
</mgrwt>
</event>
<event>
 4    1  0.1726503E-004  0.2965634E+03  0.7818608E-02  0.1086971E+00
         -2   -1    0    0    0  501 -0.00000000000E+00  0.00000000000E+00  0.63995073077E+02  0.63995073077E+02  0.00000000000E+00 0. -1.
          2   -1    0    0  501    0  0.00000000000E+00 -0.00000000000E+00 -0.34358065819E+03  0.34358065819E+03  0.00000000000E+00 0. -1.
         25    1    1    2    0    0 -0.77303589546E+02  0.17646698819E+01 -0.19491195659E+03  0.24159807499E+03  0.12000000000E+03 0.  0.
         25    1    1    2    0    0  0.77303589546E+02 -0.17646698819E+01 -0.84673628524E+02  0.16597765628E+03  0.12000000000E+03 0.  0.
<mgrwt>
<rscale>  0 0.29656345E+03</rscale>
<asrwt>0</asrwt>
<pdfrwt beam="1">  1        2 0.52858563E-01 0.29656345E+03</pdfrwt>
<pdfrwt beam="2">  1       -2 0.98453958E-02 0.29656345E+03</pdfrwt>
<totfact> 0.63961686E+03</totfact>
</mgrwt>
</event>
<event>
 4    1  0.1726503E-004  0.2491382E+03  0.7818608E-02  0.1113851E+00
          2   -1    0    0  501    0  0.00000000000E+00  0.00000000000E+00  0.11958754116E+03  0.11958754116E+03  0.00000000000E+00 0.  1.
         -2   -1    0    0    0  501 -0.00000000000E+00 -0.00000000000E+00 -0.12975814880E+03  0.12975814880E+03  0.00000000000E+00 0.  1.
         25    1    1    2    0    0  0.28504978939E+02  0.17698173593E+01  0.12301324030E+02  0.12396365859E+03  0.12000000000E+03 0.  0.
         25    1    1    2    0    0 -0.28504978939E+02 -0.17698173593E+01 -0.22471931666E+02  0.12538203137E+03  0.12000000000E+03 0.  0.
<mgrwt>
<rscale>  0 0.24913818E+03</rscale>
<asrwt>0</asrwt>
<pdfrwt beam="1">  1        2 0.18398083E-01 0.24913818E+03</pdfrwt>
<pdfrwt beam="2">  1       -2 0.19962792E-01 0.24913818E+03</pdfrwt>
<totfact> 0.63661663E+03</totfact>
</mgrwt>
</event>
<event>
 4    1  0.1726503E-004  0.2538624E+03  0.7818608E-02  0.1110888E+00
         -2   -1    0    0    0  501 -0.00000000000E+00  0.00000000000E+00  0.67845665168E+01  0.67845665168E+01  0.00000000000E+00 0.  1.
          2   -1    0    0  501    0  0.00000000000E+00 -0.00000000000E+00 -0.23747332492E+04  0.23747332492E+04  0.00000000000E+00 0.  1.
         25    1    1    2    0    0 -0.25860067484E+02 -0.26268958040E+02 -0.10077851330E+04  0.10155735697E+04  0.12000000000E+03 0.  0.
         25    1    1    2    0    0  0.25860067484E+02  0.26268958040E+02 -0.13601635497E+04  0.13659442460E+04  0.12000000000E+03 0.  0.
<mgrwt>
<rscale>  0 0.25386245E+03</rscale>
<asrwt>0</asrwt>
<pdfrwt beam="1">  1        2 0.36534357E+00 0.25386245E+03</pdfrwt>
<pdfrwt beam="2">  1       -2 0.10437795E-02 0.25386245E+03</pdfrwt>
<totfact> 0.93939227E+03</totfact>
</mgrwt>
</event>
<event>
 4    1  0.1726503E-004  0.2983557E+03  0.7818608E-02  0.1086065E+00
          1   -1    0    0  501    0  0.00000000000E+00  0.00000000000E+00  0.40496927075E+03  0.40496927075E+03  0.00000000000E+00 0. -1.
         -1   -1    0    0    0  501 -0.00000000000E+00 -0.00000000000E+00 -0.54952398676E+02  0.54952398676E+02  0.00000000000E+00 0. -1.
         25    1    1    2    0    0  0.20059617812E+02 -0.86318461746E+02  0.17365776727E+03  0.22893292738E+03  0.12000000000E+03 0.  0.
         25    1    1    2    0    0 -0.20059617812E+02  0.86318461746E+02  0.17635910480E+03  0.23098874204E+03  0.12000000000E+03 0.  0.
<mgrwt>
<rscale>  0 0.29835571E+03</rscale>
<asrwt>0</asrwt>
<pdfrwt beam="1">  1        1 0.62302963E-01 0.29835571E+03</pdfrwt>
<pdfrwt beam="2">  1       -1 0.84542154E-02 0.29835571E+03</pdfrwt>
<totfact> 0.47056085E+03</totfact>
</mgrwt>
</event>
<event>
 4    1  0.1726503E-004  0.2734421E+03  0.7818608E-02  0.1099326E+00
          3   -1    0    0  501    0  0.00000000000E+00  0.00000000000E+00  0.31471319107E+03  0.31471319107E+03  0.00000000000E+00 0. -1.
         -3   -1    0    0    0  501 -0.00000000000E+00 -0.00000000000E+00 -0.59395804715E+02  0.59395804715E+02  0.00000000000E+00 0. -1.
         25    1    1    2    0    0  0.49741957613E+02  0.27871264339E+02  0.83503909533E+02  0.15692027476E+03  0.12000000000E+03 0.  0.
         25    1    1    2    0    0 -0.49741957613E+02 -0.27871264339E+02  0.17181347682E+03  0.21718872103E+03  0.12000000000E+03 0.  0.
<mgrwt>
<rscale>  0 0.27344208E+03</rscale>
<asrwt>0</asrwt>
<pdfrwt beam="1">  1        3 0.48417413E-01 0.27344208E+03</pdfrwt>
<pdfrwt beam="2">  1       -3 0.91378163E-02 0.27344208E+03</pdfrwt>
<totfact> 0.92836076E+02</totfact>
</mgrwt>
</event>
<event>
 4    1  0.1726503E-004  0.2976011E+03  0.7818608E-02  0.1086446E+00
          2   -1    0    0  501    0  0.00000000000E+00  0.00000000000E+00  0.28243029050E+03  0.28243029050E+03  0.00000000000E+00 0. -1.
         -2   -1    0    0    0  501 -0.00000000000E+00 -0.00000000000E+00 -0.78396685679E+02  0.78396685679E+02  0.00000000000E+00 0. -1.
         25    1    1    2    0    0  0.23559306168E+02 -0.70235764279E+02  0.44460506598E+02  0.14786764399E+03  0.12000000000E+03 0.  0.
         25    1    1    2    0    0 -0.23559306168E+02  0.70235764279E+02  0.15957309822E+03  0.21295933219E+03  0.12000000000E+03 0.  0.
<mgrwt>
<rscale>  0 0.29760107E+03</rscale>
<asrwt>0</asrwt>
<pdfrwt beam="1">  1        2 0.43450814E-01 0.29760107E+03</pdfrwt>
<pdfrwt beam="2">  1       -2 0.12061029E-01 0.29760107E+03</pdfrwt>
<totfact> 0.57069187E+03</totfact>
</mgrwt>
</event>
<event>
 4    1  0.1726503E-004  0.2491924E+03  0.7818608E-02  0.1113816E+00
         -1   -1    0    0    0  501 -0.00000000000E+00  0.00000000000E+00  0.70366873790E+03  0.70366873790E+03  0.00000000000E+00 0.  1.
          1   -1    0    0  501    0  0.00000000000E+00 -0.00000000000E+00 -0.22061818856E+02  0.22061818856E+02  0.00000000000E+00 0.  1.
         25    1    1    2    0    0 -0.42133817334E+01  0.33228759922E+02  0.33637790718E+03  0.35870879486E+03  0.12000000000E+03 0.  0.
         25    1    1    2    0    0  0.42133817334E+01 -0.33228759922E+02  0.34522901186E+03  0.36702176189E+03  0.12000000000E+03 0.  0.
<mgrwt>
<rscale>  0 0.24919239E+03</rscale>
<asrwt>0</asrwt>
<pdfrwt beam="1">  1        1 0.33941265E-02 0.24919239E+03</pdfrwt>
<pdfrwt beam="2">  1       -1 0.10825671E+00 0.24919239E+03</pdfrwt>
<totfact> 0.23994148E+03</totfact>
</mgrwt>
</event>
<event>
 4    1  0.1726503E-004  0.3084917E+03  0.7818608E-02  0.1081071E+00
         -1   -1    0    0    0  501 -0.00000000000E+00  0.00000000000E+00  0.14099679801E+02  0.14099679801E+02  0.00000000000E+00 0.  1.
          1   -1    0    0  501    0  0.00000000000E+00 -0.00000000000E+00 -0.16873985062E+04  0.16873985062E+04  0.00000000000E+00 0.  1.
         25    1    1    2    0    0 -0.44027042145E+02 -0.19225821027E+02 -0.13008654536E+04  0.13072715636E+04  0.12000000000E+03 0.  0.
         25    1    1    2    0    0  0.44027042145E+02  0.19225821027E+02 -0.37243337281E+03  0.39422662241E+03  0.12000000000E+03 0.  0.
<mgrwt>
<rscale>  0 0.30849168E+03</rscale>
<asrwt>0</asrwt>
<pdfrwt beam="1">  1        1 0.25959979E+00 0.30849168E+03</pdfrwt>
<pdfrwt beam="2">  1       -1 0.21691814E-02 0.30849168E+03</pdfrwt>
<totfact> 0.32795338E+03</totfact>
</mgrwt>
</event>
<event>
 4    1  0.1726503E-004  0.4148223E+03  0.7818608E-02  0.1038765E+00
          1   -1    0    0  501    0  0.00000000000E+00  0.00000000000E+00  0.39223063638E+02  0.39223063638E+02  0.00000000000E+00 0. -1.
         -1   -1    0    0    0  501 -0.00000000000E+00 -0.00000000000E+00 -0.10967877541E+04  0.10967877541E+04  0.00000000000E+00 0. -1.
         25    1    1    2    0    0  0.37222563926E+02 -0.33339005860E+01 -0.76940602593E+02  0.14736516035E+03  0.12000000000E+03 0.  0.
         25    1    1    2    0    0 -0.37222563926E+02  0.33339005860E+01 -0.98062408789E+03  0.98864565741E+03  0.12000000000E+03 0.  0.
<mgrwt>
<rscale>  0 0.41482226E+03</rscale>
<asrwt>0</asrwt>
<pdfrwt beam="1">  1        1 0.60343182E-02 0.41482226E+03</pdfrwt>
<pdfrwt beam="2">  1       -1 0.16873656E+00 0.41482226E+03</pdfrwt>
<totfact> 0.35114602E+02</totfact>
</mgrwt>
</event>
<event>
 4    1  0.1726503E-004  0.4458579E+03  0.7818608E-02  0.1028965E+00
         -2   -1    0    0    0  501 -0.00000000000E+00  0.00000000000E+00  0.78538283827E+02  0.78538283827E+02  0.00000000000E+00 0.  1.
          2   -1    0    0  501    0  0.00000000000E+00 -0.00000000000E+00 -0.63277822784E+03  0.63277822784E+03  0.00000000000E+00 0.  1.
         25    1    1    2    0    0  0.69966846074E+02  0.10136904572E+03 -0.50786853484E+02  0.17930517970E+03  0.12000000000E+03 0.  0.
         25    1    1    2    0    0 -0.69966846074E+02 -0.10136904572E+03 -0.50345309053E+03  0.53201133197E+03  0.12000000000E+03 0.  0.
<mgrwt>
<rscale>  0 0.44585790E+03</rscale>
<asrwt>0</asrwt>
<pdfrwt beam="1">  1        2 0.97350494E-01 0.44585790E+03</pdfrwt>
<pdfrwt beam="2">  1       -2 0.12082813E-01 0.44585790E+03</pdfrwt>
<totfact> 0.23288293E+03</totfact>
</mgrwt>
</event>
<event>
 4    1  0.1726503E-004  0.3920024E+03  0.7818608E-02  0.1046585E+00
         -1   -1    0    0    0  501 -0.00000000000E+00  0.00000000000E+00  0.99062164545E+02  0.99062164545E+02  0.00000000000E+00 0. -1.
          1   -1    0    0  501    0  0.00000000000E+00 -0.00000000000E+00 -0.38780173854E+03  0.38780173854E+03  0.00000000000E+00 0. -1.
         25    1    1    2    0    0  0.10812906599E+03 -0.70243811313E+02 -0.37598979638E+02  0.18011044170E+03  0.12000000000E+03 0.  0.
         25    1    1    2    0    0 -0.10812906599E+03  0.70243811313E+02 -0.25114059436E+03  0.30675346139E+03  0.12000000000E+03 0.  0.
<mgrwt>
<rscale>  0 0.39200245E+03</rscale>
<asrwt>0</asrwt>
<pdfrwt beam="1">  1        1 0.59661807E-01 0.39200245E+03</pdfrwt>
<pdfrwt beam="2">  1       -1 0.15240333E-01 0.39200245E+03</pdfrwt>
<totfact> 0.19848773E+03</totfact>
</mgrwt>
</event>
<event>
 4    1  0.1726503E-004  0.2429951E+03  0.7818608E-02  0.1117814E+00
         -4   -1    0    0    0  501 -0.00000000000E+00  0.00000000000E+00  0.60863305181E+02  0.60863305181E+02  0.00000000000E+00 0. -1.
          4   -1    0    0  501    0  0.00000000000E+00 -0.00000000000E+00 -0.24253778322E+03  0.24253778322E+03  0.00000000000E+00 0. -1.
         25    1    1    2    0    0 -0.54625640447E+01 -0.15651013212E+02 -0.10247375117E+03  0.15866840738E+03  0.12000000000E+03 0.  0.
         25    1    1    2    0    0  0.54625640447E+01  0.15651013212E+02 -0.79200726870E+02  0.14473268103E+03  0.12000000000E+03 0.  0.
<mgrwt>
<rscale>  0 0.24299507E+03</rscale>
<asrwt>0</asrwt>
<pdfrwt beam="1">  1        4 0.37313504E-01 0.24299507E+03</pdfrwt>
<pdfrwt beam="2">  1       -4 0.93635857E-02 0.24299507E+03</pdfrwt>
<totfact> 0.10902022E+03</totfact>
</mgrwt>
</event>
<event>
 4    1  0.1726503E-004  0.3017421E+03  0.7818608E-02  0.1084373E+00
          1   -1    0    0  501    0  0.00000000000E+00  0.00000000000E+00  0.14318021742E+04  0.14318021742E+04  0.00000000000E+00 0. -1.
         -1   -1    0    0    0  501 -0.00000000000E+00 -0.00000000000E+00 -0.15897500910E+02  0.15897500910E+02  0.00000000000E+00 0. -1.
         25    1    1    2    0    0 -0.15394375366E+01 -0.47993811912E+02  0.10813282103E+04  0.10890254699E+04  0.12000000000E+03 0.  0.
         25    1    1    2    0    0  0.15394375366E+01  0.47993811912E+02  0.33457646305E+03  0.35867420520E+03  0.12000000000E+03 0.  0.
<mgrwt>
<rscale>  0 0.30174212E+03</rscale>
<asrwt>0</asrwt>
<pdfrwt beam="1">  1        1 0.22027716E+00 0.30174212E+03</pdfrwt>
<pdfrwt beam="2">  1       -1 0.24457705E-02 0.30174212E+03</pdfrwt>
<totfact> 0.40581123E+03</totfact>
</mgrwt>
</event>
<event>
 4    1  0.1726503E-004  0.3142391E+03  0.7818608E-02  0.1078332E+00
          1   -1    0    0  501    0  0.00000000000E+00  0.00000000000E+00  0.48211261404E+03  0.48211261404E+03  0.00000000000E+00 0.  1.
         -1   -1    0    0    0  501 -0.00000000000E+00 -0.00000000000E+00 -0.51204936665E+02  0.51204936665E+02  0.00000000000E+00 0.  1.
         25    1    1    2    0    0  0.83056595855E+02 -0.32631037185E+02  0.13364800666E+03  0.20056164236E+03  0.12000000000E+03 0.  0.
         25    1    1    2    0    0 -0.83056595855E+02  0.32631037185E+02  0.29725967071E+03  0.33275590834E+03  0.12000000000E+03 0.  0.
<mgrwt>
<rscale>  0 0.31423905E+03</rscale>
<asrwt>0</asrwt>
<pdfrwt beam="1">  1        1 0.74171168E-01 0.31423905E+03</pdfrwt>
<pdfrwt beam="2">  1       -1 0.78776829E-02 0.31423905E+03</pdfrwt>
<totfact> 0.41810885E+03</totfact>
</mgrwt>
</event>
<event>
 4    1  0.1726503E-004  0.2697889E+03  0.7818608E-02  0.1101400E+00
         -2   -1    0    0    0  501 -0.00000000000E+00  0.00000000000E+00  0.44004284079E+02  0.44004284079E+02  0.00000000000E+00 0. -1.
          2   -1    0    0  501    0  0.00000000000E+00 -0.00000000000E+00 -0.41351684484E+03  0.41351684484E+03  0.00000000000E+00 0. -1.
         25    1    1    2    0    0 -0.51314668987E+02  0.33033359931E+02 -0.17035508154E+03  0.21712957406E+03  0.12000000000E+03 0.  0.
         25    1    1    2    0    0  0.51314668987E+02 -0.33033359931E+02 -0.19915747922E+03  0.24039155486E+03  0.12000000000E+03 0.  0.
<mgrwt>
<rscale>  0 0.26978890E+03</rscale>
<asrwt>0</asrwt>
<pdfrwt beam="1">  1        2 0.63617977E-01 0.26978890E+03</pdfrwt>
<pdfrwt beam="2">  1       -2 0.67698897E-02 0.26978890E+03</pdfrwt>
<totfact> 0.93750214E+03</totfact>
</mgrwt>
</event>
<event>
 4    1  0.1726503E-004  0.2712448E+03  0.7818608E-02  0.1100569E+00
         -4   -1    0    0    0  501 -0.00000000000E+00  0.00000000000E+00  0.42378076082E+03  0.42378076082E+03  0.00000000000E+00 0.  1.
          4   -1    0    0  501    0  0.00000000000E+00 -0.00000000000E+00 -0.43403176755E+02  0.43403176755E+02  0.00000000000E+00 0.  1.
         25    1    1    2    0    0  0.60780832744E+01 -0.48656913574E+02  0.12153136676E+03  0.17769161894E+03  0.12000000000E+03 0.  0.
         25    1    1    2    0    0 -0.60780832744E+01  0.48656913574E+02  0.25884621731E+03  0.28949231864E+03  0.12000000000E+03 0.  0.
<mgrwt>
<rscale>  0 0.27124477E+03</rscale>
<asrwt>0</asrwt>
<pdfrwt beam="1">  1        4 0.66774121E-02 0.27124477E+03</pdfrwt>
<pdfrwt beam="2">  1       -4 0.65197037E-01 0.27124477E+03</pdfrwt>
<totfact> 0.61923998E+02</totfact>
</mgrwt>
</event>
<event>
 4    1  0.1726503E-004  0.4805167E+03  0.7818608E-02  0.1018993E+00
         -3   -1    0    0    0  501 -0.00000000000E+00  0.00000000000E+00  0.45577592377E+03  0.45577592377E+03  0.00000000000E+00 0. -1.
          3   -1    0    0  501    0  0.00000000000E+00 -0.00000000000E+00 -0.12665014407E+03  0.12665014407E+03  0.00000000000E+00 0. -1.
         25    1    1    2    0    0 -0.20776769220E+03 -0.12084285063E+02  0.16060872328E+03  0.28897855606E+03  0.12000000000E+03 0.  0.
         25    1    1    2    0    0  0.20776769220E+03  0.12084285063E+02  0.16851705642E+03  0.29344751178E+03  0.12000000000E+03 0.  0.
<mgrwt>
<rscale>  0 0.48051675E+03</rscale>
<asrwt>0</asrwt>
<pdfrwt beam="1">  1        3 0.19484638E-01 0.48051675E+03</pdfrwt>
<pdfrwt beam="2">  1       -3 0.70119372E-01 0.48051675E+03</pdfrwt>
<totfact> 0.12161254E+02</totfact>
</mgrwt>
</event>
<event>
 4    1  0.1726503E-004  0.2668116E+03  0.7818608E-02  0.1103118E+00
         -2   -1    0    0    0  501 -0.00000000000E+00  0.00000000000E+00  0.58963216540E+02  0.58963216540E+02  0.00000000000E+00 0.  1.
          2   -1    0    0  501    0  0.00000000000E+00 -0.00000000000E+00 -0.30183400779E+03  0.30183400779E+03  0.00000000000E+00 0.  1.
         25    1    1    2    0    0  0.24412723398E+02 -0.95091504174E+01 -0.19183969284E+03  0.22779129209E+03  0.12000000000E+03 0.  0.
         25    1    1    2    0    0 -0.24412723398E+02  0.95091504174E+01 -0.51031098414E+02  0.13300593224E+03  0.12000000000E+03 0.  0.
<mgrwt>
<rscale>  0 0.26681157E+03</rscale>
<asrwt>0</asrwt>
<pdfrwt beam="1">  1        2 0.46436001E-01 0.26681157E+03</pdfrwt>
<pdfrwt beam="2">  1       -2 0.90712641E-02 0.26681157E+03</pdfrwt>
<totfact> 0.83407193E+03</totfact>
</mgrwt>
</event>
<event>
 4    1  0.1726503E-004  0.2998500E+03  0.7818608E-02  0.1085316E+00
          2   -1    0    0  501    0  0.00000000000E+00  0.00000000000E+00  0.13748964354E+03  0.13748964354E+03  0.00000000000E+00 0.  1.
         -2   -1    0    0    0  501 -0.00000000000E+00 -0.00000000000E+00 -0.16348511923E+03  0.16348511923E+03  0.00000000000E+00 0.  1.
         25    1    1    2    0    0 -0.59461867321E+00 -0.86619871281E+02  0.11053674791E+02  0.14841003807E+03  0.12000000000E+03 0.  0.
         25    1    1    2    0    0  0.59461867321E+00  0.86619871281E+02 -0.37049150486E+02  0.15256472470E+03  0.12000000000E+03 0.  0.
<mgrwt>
<rscale>  0 0.29985003E+03</rscale>
<asrwt>0</asrwt>
<pdfrwt beam="1">  1        2 0.21152253E-01 0.29985003E+03</pdfrwt>
<pdfrwt beam="2">  1       -2 0.25151557E-01 0.29985003E+03</pdfrwt>
<totfact> 0.36542286E+03</totfact>
</mgrwt>
</event>
<event>
 4    1  0.1726503E-004  0.3362770E+03  0.7818608E-02  0.1068393E+00
         -2   -1    0    0    0  501 -0.00000000000E+00  0.00000000000E+00  0.32777185542E+02  0.32777185542E+02  0.00000000000E+00 0.  1.
          2   -1    0    0  501    0  0.00000000000E+00 -0.00000000000E+00 -0.86250717408E+03  0.86250717408E+03  0.00000000000E+00 0.  1.
         25    1    1    2    0    0  0.46266106085E+02  0.81432921440E+02 -0.60496970550E+03  0.62382707367E+03  0.12000000000E+03 0.  0.
         25    1    1    2    0    0 -0.46266106085E+02 -0.81432921440E+02 -0.22476028303E+03  0.27145728595E+03  0.12000000000E+03 0.  0.
<mgrwt>
<rscale>  0 0.33627701E+03</rscale>
<asrwt>0</asrwt>
<pdfrwt beam="1">  1        2 0.13269341E+00 0.33627701E+03</pdfrwt>
<pdfrwt beam="2">  1       -2 0.50426439E-02 0.33627701E+03</pdfrwt>
<totfact> 0.62379599E+03</totfact>
</mgrwt>
</event>
<event>
 4    1  0.1726503E-004  0.3030846E+03  0.7818608E-02  0.1083709E+00
          1   -1    0    0  501    0  0.00000000000E+00  0.00000000000E+00  0.83542519079E+02  0.83542519079E+02  0.00000000000E+00 0. -1.
         -1   -1    0    0    0  501 -0.00000000000E+00 -0.00000000000E+00 -0.27489084338E+03  0.27489084338E+03  0.00000000000E+00 0. -1.
         25    1    1    2    0    0  0.31972097003E+02 -0.79826531049E+02 -0.13613600941E+03  0.20081708868E+03  0.12000000000E+03 0.  0.
         25    1    1    2    0    0 -0.31972097003E+02  0.79826531049E+02 -0.55212314891E+02  0.15761627378E+03  0.12000000000E+03 0.  0.
<mgrwt>
<rscale>  0 0.30308463E+03</rscale>
<asrwt>0</asrwt>
<pdfrwt beam="1">  1        1 0.12852695E-01 0.30308463E+03</pdfrwt>
<pdfrwt beam="2">  1       -1 0.42290899E-01 0.30308463E+03</pdfrwt>
<totfact> 0.25555358E+03</totfact>
</mgrwt>
</event>
<event>
 4    1  0.1726503E-004  0.2574640E+03  0.7818608E-02  0.1108677E+00
         -2   -1    0    0    0  501 -0.00000000000E+00  0.00000000000E+00  0.15185331334E+02  0.15185331334E+02  0.00000000000E+00 0.  1.
          2   -1    0    0  501    0  0.00000000000E+00 -0.00000000000E+00 -0.10913116005E+04  0.10913116005E+04  0.00000000000E+00 0.  1.
         25    1    1    2    0    0 -0.37758468275E+02 -0.24927987913E+02 -0.49004792797E+03  0.50655116051E+03  0.12000000000E+03 0.  0.
         25    1    1    2    0    0  0.37758468275E+02  0.24927987913E+02 -0.58607834116E+03  0.59994577129E+03  0.12000000000E+03 0.  0.
<mgrwt>
<rscale>  0 0.25746400E+03</rscale>
<asrwt>0</asrwt>
<pdfrwt beam="1">  1        2 0.16789411E+00 0.25746400E+03</pdfrwt>
<pdfrwt beam="2">  1       -2 0.23362046E-02 0.25746400E+03</pdfrwt>
<totfact> 0.14136317E+04</totfact>
</mgrwt>
</event>
<event>
 4    1  0.1726503E-004  0.2411820E+03  0.7818608E-02  0.1119008E+00
          4   -1    0    0  501    0  0.00000000000E+00  0.00000000000E+00  0.15557724773E+02  0.15557724773E+02  0.00000000000E+00 0.  1.
         -4   -1    0    0    0  501 -0.00000000000E+00 -0.00000000000E+00 -0.93472459413E+03  0.93472459413E+03  0.00000000000E+00 0.  1.
         25    1    1    2    0    0  0.52792187029E+00  0.43326768291E+01 -0.50330567284E+03  0.51743178401E+03  0.12000000000E+03 0.  0.
         25    1    1    2    0    0 -0.52792187029E+00 -0.43326768291E+01 -0.41586119652E+03  0.43285053489E+03  0.12000000000E+03 0.  0.
<mgrwt>
<rscale>  0 0.24118199E+03</rscale>
<asrwt>0</asrwt>
<pdfrwt beam="1">  1        4 0.23934960E-02 0.24118199E+03</pdfrwt>
<pdfrwt beam="2">  1       -4 0.14380379E+00 0.24118199E+03</pdfrwt>
<totfact> 0.49926692E+02</totfact>
</mgrwt>
</event>
<event>
 4    1  0.1726503E-004  0.2549349E+03  0.7818608E-02  0.1110225E+00
         -1   -1    0    0    0  501 -0.00000000000E+00  0.00000000000E+00  0.39365611941E+02  0.39365611941E+02  0.00000000000E+00 0. -1.
          1   -1    0    0  501    0  0.00000000000E+00 -0.00000000000E+00 -0.41274473548E+03  0.41274473548E+03  0.00000000000E+00 0. -1.
         25    1    1    2    0    0  0.39468109616E+02 -0.89641093909E+01 -0.21238063452E+03  0.24727236168E+03  0.12000000000E+03 0.  0.
         25    1    1    2    0    0 -0.39468109616E+02  0.89641093909E+01 -0.16099848902E+03  0.20483798574E+03  0.12000000000E+03 0.  0.
<mgrwt>
<rscale>  0 0.25493489E+03</rscale>
<asrwt>0</asrwt>
<pdfrwt beam="1">  1        1 0.63499188E-01 0.25493489E+03</pdfrwt>
<pdfrwt beam="2">  1       -1 0.60562482E-02 0.25493489E+03</pdfrwt>
<totfact> 0.75873894E+03</totfact>
</mgrwt>
</event>
<event>
 4    1  0.1726503E-004  0.3199029E+03  0.7818608E-02  0.1075694E+00
         -2   -1    0    0    0  501 -0.00000000000E+00  0.00000000000E+00  0.16904480109E+02  0.16904480109E+02  0.00000000000E+00 0. -1.
          2   -1    0    0  501    0  0.00000000000E+00 -0.00000000000E+00 -0.15134724065E+04  0.15134724065E+04  0.00000000000E+00 0. -1.
         25    1    1    2    0    0  0.12419094618E+02 -0.57398148794E+01 -0.12499595594E+04  0.12557810635E+04  0.12000000000E+03 0.  0.
         25    1    1    2    0    0 -0.12419094618E+02  0.57398148794E+01 -0.24660836705E+03  0.27459582314E+03  0.12000000000E+03 0.  0.
<mgrwt>
<rscale>  0 0.31990289E+03</rscale>
<asrwt>0</asrwt>
<pdfrwt beam="1">  1        2 0.23284197E+00 0.31990289E+03</pdfrwt>
<pdfrwt beam="2">  1       -2 0.26006885E-02 0.31990289E+03</pdfrwt>
<totfact> 0.70492599E+03</totfact>
</mgrwt>
</event>
<event>
 4    1  0.1726503E-004  0.3891108E+03  0.7818608E-02  0.1047617E+00
         -1   -1    0    0    0  501 -0.00000000000E+00  0.00000000000E+00  0.39301337990E+02  0.39301337990E+02  0.00000000000E+00 0.  1.
          1   -1    0    0  501    0  0.00000000000E+00 -0.00000000000E+00 -0.96311763645E+03  0.96311763645E+03  0.00000000000E+00 0.  1.
         25    1    1    2    0    0  0.70708554377E+02 -0.61743343238E+01 -0.81149081921E+03  0.82338033237E+03  0.12000000000E+03 0.  0.
         25    1    1    2    0    0 -0.70708554377E+02  0.61743343238E+01 -0.11232547925E+03  0.17903864207E+03  0.12000000000E+03 0.  0.
<mgrwt>
<rscale>  0 0.38911084E+03</rscale>
<asrwt>0</asrwt>
<pdfrwt beam="1">  1        1 0.14817194E+00 0.38911084E+03</pdfrwt>
<pdfrwt beam="2">  1       -1 0.60463597E-02 0.38911084E+03</pdfrwt>
<totfact> 0.22567561E+03</totfact>
</mgrwt>
</event>
<event>
 4    1  0.1726503E-004  0.2609657E+03  0.7818608E-02  0.1106564E+00
          2   -1    0    0  501    0  0.00000000000E+00  0.00000000000E+00  0.12895472072E+04  0.12895472072E+04  0.00000000000E+00 0. -1.
         -2   -1    0    0    0  501 -0.00000000000E+00 -0.00000000000E+00 -0.13202912147E+02  0.13202912147E+02  0.00000000000E+00 0. -1.
         25    1    1    2    0    0 -0.64126970889E+01  0.49396520763E+02  0.69820944733E+03  0.71019544584E+03  0.12000000000E+03 0.  0.
         25    1    1    2    0    0  0.64126970889E+01 -0.49396520763E+02  0.57813484776E+03  0.59255467355E+03  0.12000000000E+03 0.  0.
<mgrwt>
<rscale>  0 0.26096573E+03</rscale>
<asrwt>0</asrwt>
<pdfrwt beam="1">  1        2 0.19839178E+00 0.26096573E+03</pdfrwt>
<pdfrwt beam="2">  1       -2 0.20312183E-02 0.26096573E+03</pdfrwt>
<totfact> 0.13400391E+04</totfact>
</mgrwt>
</event>
<event>
 4    1  0.1726503E-004  0.2800069E+03  0.7818608E-02  0.1095685E+00
          1   -1    0    0  501    0  0.00000000000E+00  0.00000000000E+00  0.22946597497E+04  0.22946597497E+04  0.00000000000E+00 0.  1.
         -1   -1    0    0    0  501 -0.00000000000E+00 -0.00000000000E+00 -0.85419900092E+01  0.85419900092E+01  0.00000000000E+00 0.  1.
         25    1    1    2    0    0 -0.26839043302E+02  0.66830161297E+02  0.11742247532E+04  0.11825355706E+04  0.12000000000E+03 0.  0.
         25    1    1    2    0    0  0.26839043302E+02 -0.66830161297E+02  0.11118930064E+04  0.11206661691E+04  0.12000000000E+03 0.  0.
<mgrwt>
<rscale>  0 0.28000686E+03</rscale>
<asrwt>0</asrwt>
<pdfrwt beam="1">  1        1 0.35302409E+00 0.28000686E+03</pdfrwt>
<pdfrwt beam="2">  1       -1 0.13141541E-02 0.28000686E+03</pdfrwt>
<totfact> 0.27416573E+03</totfact>
</mgrwt>
</event>
<event>
 4    1  0.1726503E-004  0.5952775E+03  0.7818608E-02  0.9915252E-01
          2   -1    0    0  501    0  0.00000000000E+00  0.00000000000E+00  0.52998423630E+03  0.52998423630E+03  0.00000000000E+00 0.  1.
         -2   -1    0    0    0  501 -0.00000000000E+00 -0.00000000000E+00 -0.16715372596E+03  0.16715372596E+03  0.00000000000E+00 0.  1.
         25    1    1    2    0    0  0.35969468138E+02  0.88641572201E+02  0.48007854643E+03  0.50401045793E+03  0.12000000000E+03 0.  0.
         25    1    1    2    0    0 -0.35969468138E+02 -0.88641572201E+02 -0.11724803609E+03  0.19312750433E+03  0.12000000000E+03 0.  0.
<mgrwt>
<rscale>  0 0.59527755E+03</rscale>
<asrwt>0</asrwt>
<pdfrwt beam="1">  1        2 0.81536035E-01 0.59527755E+03</pdfrwt>
<pdfrwt beam="2">  1       -2 0.25715958E-01 0.59527755E+03</pdfrwt>
<totfact> 0.78699786E+02</totfact>
</mgrwt>
</event>
<event>
 4    1  0.1726503E-004  0.3159582E+03  0.7818608E-02  0.1077525E+00
         -2   -1    0    0    0  501 -0.00000000000E+00  0.00000000000E+00  0.39849870117E+03  0.39849870117E+03  0.00000000000E+00 0. -1.
          2   -1    0    0  501    0  0.00000000000E+00 -0.00000000000E+00 -0.62628559392E+02  0.62628559392E+02  0.00000000000E+00 0. -1.
         25    1    1    2    0    0 -0.24336479906E+02 -0.75814797087E+02  0.26271271404E+03  0.29959659182E+03  0.12000000000E+03 0.  0.
         25    1    1    2    0    0  0.24336479906E+02  0.75814797087E+02  0.73157427738E+02  0.16153066874E+03  0.12000000000E+03 0.  0.
<mgrwt>
<rscale>  0 0.31595822E+03</rscale>
<asrwt>0</asrwt>
<pdfrwt beam="1">  1        2 0.96351632E-02 0.31595822E+03</pdfrwt>
<pdfrwt beam="2">  1       -2 0.61307491E-01 0.31595822E+03</pdfrwt>
<totfact> 0.17019194E+03</totfact>
</mgrwt>
</event>
<event>
 4    1  0.1726503E-004  0.4886859E+03  0.7818608E-02  0.1016775E+00
          2   -1    0    0  501    0  0.00000000000E+00  0.00000000000E+00  0.21751806694E+03  0.21751806694E+03  0.00000000000E+00 0.  1.
         -2   -1    0    0    0  501 -0.00000000000E+00 -0.00000000000E+00 -0.27447597195E+03  0.27447597195E+03  0.00000000000E+00 0.  1.
         25    1    1    2    0    0  0.61874630145E+02 -0.16418686335E+03 -0.14978395875E+03  0.26004043965E+03  0.12000000000E+03 0.  0.
         25    1    1    2    0    0 -0.61874630145E+02  0.16418686335E+03  0.92826053734E+02  0.23195359925E+03  0.12000000000E+03 0.  0.
<mgrwt>
<rscale>  0 0.48868592E+03</rscale>
<asrwt>0</asrwt>
<pdfrwt beam="1">  1        2 0.33464318E-01 0.48868592E+03</pdfrwt>
<pdfrwt beam="2">  1       -2 0.42227073E-01 0.48868592E+03</pdfrwt>
<totfact> 0.83901306E+02</totfact>
</mgrwt>
</event>
<event>
 4    1  0.1726503E-004  0.2566623E+03  0.7818608E-02  0.1109165E+00
         -1   -1    0    0    0  501 -0.00000000000E+00  0.00000000000E+00  0.53294199133E+03  0.53294199133E+03  0.00000000000E+00 0.  1.
          1   -1    0    0  501    0  0.00000000000E+00 -0.00000000000E+00 -0.30901835163E+02  0.30901835163E+02  0.00000000000E+00 0.  1.
         25    1    1    2    0    0 -0.44835067326E+02 -0.64233594517E+01  0.26019504104E+03  0.29009119634E+03  0.12000000000E+03 0.  0.
         25    1    1    2    0    0  0.44835067326E+02  0.64233594517E+01  0.24184511513E+03  0.27375263016E+03  0.12000000000E+03 0.  0.
<mgrwt>
<rscale>  0 0.25666231E+03</rscale>
<asrwt>0</asrwt>
<pdfrwt beam="1">  1        1 0.47541289E-02 0.25666231E+03</pdfrwt>
<pdfrwt beam="2">  1       -1 0.81991069E-01 0.25666231E+03</pdfrwt>
<totfact> 0.27542081E+03</totfact>
</mgrwt>
</event>
<event>
 4    1  0.1726503E-004  0.2594427E+03  0.7818608E-02  0.1107479E+00
          2   -1    0    0  501    0  0.00000000000E+00  0.00000000000E+00  0.14941597087E+04  0.14941597087E+04  0.00000000000E+00 0.  1.
         -2   -1    0    0    0  501 -0.00000000000E+00 -0.00000000000E+00 -0.11262270515E+02  0.11262270515E+02  0.00000000000E+00 0.  1.
         25    1    1    2    0    0  0.20350133566E+02  0.20986335514E+02  0.97158850603E+03  0.97940736124E+03  0.12000000000E+03 0.  0.
         25    1    1    2    0    0 -0.20350133566E+02 -0.20986335514E+02  0.51130893217E+03  0.52601461799E+03  0.12000000000E+03 0.  0.
<mgrwt>
<rscale>  0 0.25944272E+03</rscale>
<asrwt>0</asrwt>
<pdfrwt beam="1">  1        2 0.22987057E+00 0.25944272E+03</pdfrwt>
<pdfrwt beam="2">  1       -2 0.17326582E-02 0.25944272E+03</pdfrwt>
<totfact> 0.13097637E+04</totfact>
</mgrwt>
</event>
<event>
 4    1  0.1726503E-004  0.2619597E+03  0.7818608E-02  0.1105971E+00
          2   -1    0    0  501    0  0.00000000000E+00  0.00000000000E+00  0.10486772901E+04  0.10486772901E+04  0.00000000000E+00 0. -1.
         -2   -1    0    0    0  501 -0.00000000000E+00 -0.00000000000E+00 -0.16359394005E+02  0.16359394005E+02  0.00000000000E+00 0. -1.
         25    1    1    2    0    0 -0.36422119500E+02  0.37802719481E+02  0.51481923285E+03  0.53121978399E+03  0.12000000000E+03 0.  0.
         25    1    1    2    0    0  0.36422119500E+02 -0.37802719481E+02  0.51749866326E+03  0.53381690013E+03  0.12000000000E+03 0.  0.
<mgrwt>
<rscale>  0 0.26195973E+03</rscale>
<asrwt>0</asrwt>
<pdfrwt beam="1">  1        2 0.16133492E+00 0.26195973E+03</pdfrwt>
<pdfrwt beam="2">  1       -2 0.25168307E-02 0.26195973E+03</pdfrwt>
<totfact> 0.13431439E+04</totfact>
</mgrwt>
</event>
<event>
 4    1  0.1726503E-004  0.2991749E+03  0.7818608E-02  0.1085654E+00
          2   -1    0    0  501    0  0.00000000000E+00  0.00000000000E+00  0.47899076923E+03  0.47899076923E+03  0.00000000000E+00 0.  1.
         -2   -1    0    0    0  501 -0.00000000000E+00 -0.00000000000E+00 -0.46715728242E+02  0.46715728242E+02  0.00000000000E+00 0.  1.
         25    1    1    2    0    0  0.12982756585E+02  0.84576549662E+01  0.61581690477E+02  0.13576593276E+03  0.12000000000E+03 0.  0.
         25    1    1    2    0    0 -0.12982756585E+02 -0.84576549662E+01  0.37069335051E+03  0.38994056471E+03  0.12000000000E+03 0.  0.
<mgrwt>
<rscale>  0 0.29917488E+03</rscale>
<asrwt>0</asrwt>
<pdfrwt beam="1">  1        2 0.73690884E-01 0.29917488E+03</pdfrwt>
<pdfrwt beam="2">  1       -2 0.71870355E-02 0.29917488E+03</pdfrwt>
<totfact> 0.72947191E+03</totfact>
</mgrwt>
</event>
<event>
 4    1  0.1726503E-004  0.4352039E+03  0.7818608E-02  0.1032229E+00
          2   -1    0    0  501    0  0.00000000000E+00  0.00000000000E+00  0.64019156204E+03  0.64019156204E+03  0.00000000000E+00 0.  1.
         -2   -1    0    0    0  501 -0.00000000000E+00 -0.00000000000E+00 -0.73963181924E+02  0.73963181924E+02  0.00000000000E+00 0.  1.
         25    1    1    2    0    0  0.17755478075E+03  0.16200395169E+02  0.33906251361E+03  0.40143684573E+03  0.12000000000E+03 0.  0.
         25    1    1    2    0    0 -0.17755478075E+03 -0.16200395169E+02  0.22716586650E+03  0.31271789823E+03  0.12000000000E+03 0.  0.
<mgrwt>
<rscale>  0 0.43520388E+03</rscale>
<asrwt>0</asrwt>
<pdfrwt beam="1">  1        2 0.98491006E-01 0.43520388E+03</pdfrwt>
<pdfrwt beam="2">  1       -2 0.11378952E-01 0.43520388E+03</pdfrwt>
<totfact> 0.25322592E+03</totfact>
</mgrwt>
</event>
<event>
 4    1  0.1726503E-004  0.2974156E+03  0.7818608E-02  0.1086540E+00
          1   -1    0    0  501    0  0.00000000000E+00  0.00000000000E+00  0.13365795883E+04  0.13365795883E+04  0.00000000000E+00 0. -1.
         -1   -1    0    0    0  501 -0.00000000000E+00 -0.00000000000E+00 -0.16545230087E+02  0.16545230087E+02  0.00000000000E+00 0. -1.
         25    1    1    2    0    0  0.26976392484E+02  0.23747653316E+02  0.10246205621E+04  0.10322494723E+04  0.12000000000E+03 0.  0.
         25    1    1    2    0    0 -0.26976392484E+02 -0.23747653316E+02  0.29541379609E+03  0.32087534606E+03  0.12000000000E+03 0.  0.
<mgrwt>
<rscale>  0 0.29741565E+03</rscale>
<asrwt>0</asrwt>
<pdfrwt beam="1">  1        1 0.20562754E+00 0.29741565E+03</pdfrwt>
<pdfrwt beam="2">  1       -1 0.25454211E-02 0.29741565E+03</pdfrwt>
<totfact> 0.44369049E+03</totfact>
</mgrwt>
</event>
<event>
 4    1  0.1726503E-004  0.2917937E+03  0.7818608E-02  0.1089416E+00
          1   -1    0    0  501    0  0.00000000000E+00  0.00000000000E+00  0.46356206670E+03  0.46356206670E+03  0.00000000000E+00 0. -1.
         -1   -1    0    0    0  501 -0.00000000000E+00 -0.00000000000E+00 -0.45918115818E+02  0.45918115818E+02  0.00000000000E+00 0. -1.
         25    1    1    2    0    0 -0.36980636795E+02  0.72616173207E+02  0.23616394303E+03  0.27715353885E+03  0.12000000000E+03 0.  0.
         25    1    1    2    0    0  0.36980636795E+02 -0.72616173207E+02  0.18148000785E+03  0.23232664367E+03  0.12000000000E+03 0.  0.
<mgrwt>
<rscale>  0 0.29179374E+03</rscale>
<asrwt>0</asrwt>
<pdfrwt beam="1">  1        1 0.71317238E-01 0.29179374E+03</pdfrwt>
<pdfrwt beam="2">  1       -1 0.70643258E-02 0.29179374E+03</pdfrwt>
<totfact> 0.51912878E+03</totfact>
</mgrwt>
</event>
<event>
 4    1  0.1726503E-004  0.2990510E+03  0.7818608E-02  0.1085716E+00
          2   -1    0    0  501    0  0.00000000000E+00  0.00000000000E+00  0.12324436696E+04  0.12324436696E+04  0.00000000000E+00 0. -1.
         -2   -1    0    0    0  501 -0.00000000000E+00 -0.00000000000E+00 -0.18141088191E+02  0.18141088191E+02  0.00000000000E+00 0. -1.
         25    1    1    2    0    0  0.20347056852E+02  0.79102693834E+02  0.75715252555E+03  0.77094175256E+03  0.12000000000E+03 0.  0.
         25    1    1    2    0    0 -0.20347056852E+02 -0.79102693834E+02  0.45715005584E+03  0.47964300521E+03  0.12000000000E+03 0.  0.
<mgrwt>
<rscale>  0 0.29905096E+03</rscale>
<asrwt>0</asrwt>
<pdfrwt beam="1">  1        2 0.18960665E+00 0.29905096E+03</pdfrwt>
<pdfrwt beam="2">  1       -2 0.27909376E-02 0.29905096E+03</pdfrwt>
<totfact> 0.90463963E+03</totfact>
</mgrwt>
</event>
<event>
 4    1  0.1726503E-004  0.3485659E+03  0.7818608E-02  0.1063205E+00
         -2   -1    0    0    0  501 -0.00000000000E+00  0.00000000000E+00  0.20517652595E+03  0.20517652595E+03  0.00000000000E+00 0. -1.
          2   -1    0    0  501    0  0.00000000000E+00 -0.00000000000E+00 -0.14804101536E+03  0.14804101536E+03  0.00000000000E+00 0. -1.
         25    1    1    2    0    0  0.11087096518E+03 -0.58254373453E+02  0.11352864390E+02  0.17382413663E+03  0.12000000000E+03 0.  0.
         25    1    1    2    0    0 -0.11087096518E+03  0.58254373453E+02  0.45782646200E+02  0.17939340467E+03  0.12000000000E+03 0.  0.
<mgrwt>
<rscale>  0 0.34856587E+03</rscale>
<asrwt>0</asrwt>
<pdfrwt beam="1">  1        2 0.22775541E-01 0.34856587E+03</pdfrwt>
<pdfrwt beam="2">  1       -2 0.31565620E-01 0.34856587E+03</pdfrwt>
<totfact> 0.22368603E+03</totfact>
</mgrwt>
</event>
<event>
 4    1  0.1726503E-004  0.2702945E+03  0.7818608E-02  0.1101111E+00
         -2   -1    0    0    0  501 -0.00000000000E+00  0.00000000000E+00  0.35797557837E+02  0.35797557837E+02  0.00000000000E+00 0. -1.
          2   -1    0    0  501    0  0.00000000000E+00 -0.00000000000E+00 -0.51022432234E+03  0.51022432234E+03  0.00000000000E+00 0. -1.
         25    1    1    2    0    0  0.28992027568E+02  0.50284280995E+02 -0.19223550803E+03  0.23393062460E+03  0.12000000000E+03 0.  0.
         25    1    1    2    0    0 -0.28992027568E+02 -0.50284280995E+02 -0.28219125647E+03  0.31209125558E+03  0.12000000000E+03 0.  0.
<mgrwt>
<rscale>  0 0.27029454E+03</rscale>
<asrwt>0</asrwt>
<pdfrwt beam="1">  1        2 0.78496050E-01 0.27029454E+03</pdfrwt>
<pdfrwt beam="2">  1       -2 0.55073165E-02 0.27029454E+03</pdfrwt>
<totfact> 0.10205668E+04</totfact>
</mgrwt>
</event>
<event>
 4    1  0.1726503E-004  0.2906075E+03  0.7818608E-02  0.1090032E+00
         -3   -1    0    0    0  501 -0.00000000000E+00  0.00000000000E+00  0.24212159425E+03  0.24212159425E+03  0.00000000000E+00 0.  1.
          3   -1    0    0  501    0  0.00000000000E+00 -0.00000000000E+00 -0.87200713282E+02  0.87200713282E+02  0.00000000000E+00 0.  1.
         25    1    1    2    0    0  0.75109684573E+02 -0.88939707986E+01  0.41757554643E+02  0.14786568501E+03  0.12000000000E+03 0.  0.
         25    1    1    2    0    0 -0.75109684573E+02  0.88939707986E+01  0.11316332633E+03  0.18145662253E+03  0.12000000000E+03 0.  0.
<mgrwt>
<rscale>  0 0.29060747E+03</rscale>
<asrwt>0</asrwt>
<pdfrwt beam="1">  1        3 0.13415494E-01 0.29060747E+03</pdfrwt>
<pdfrwt beam="2">  1       -3 0.37249476E-01 0.29060747E+03</pdfrwt>
<totfact> 0.81893388E+02</totfact>
</mgrwt>
</event>
<event>
 4    1  0.1726503E-004  0.3345390E+03  0.7818608E-02  0.1069146E+00
         -1   -1    0    0    0  501 -0.00000000000E+00  0.00000000000E+00  0.21101907487E+02  0.21101907487E+02  0.00000000000E+00 0.  1.
          1   -1    0    0  501    0  0.00000000000E+00 -0.00000000000E+00 -0.13259033873E+04  0.13259033873E+04  0.00000000000E+00 0.  1.
         25    1    1    2    0    0 -0.42859187334E+02  0.30069864666E+02 -0.10715770794E+04  0.10795455265E+04  0.12000000000E+03 0.  0.
         25    1    1    2    0    0  0.42859187334E+02 -0.30069864666E+02 -0.23322440039E+03  0.26745976826E+03  0.12000000000E+03 0.  0.
<mgrwt>
<rscale>  0 0.33453903E+03</rscale>
<asrwt>0</asrwt>
<pdfrwt beam="1">  1        1 0.20398515E+00 0.33453903E+03</pdfrwt>
<pdfrwt beam="2">  1       -1 0.32464471E-02 0.33453903E+03</pdfrwt>
<totfact> 0.31491786E+03</totfact>
</mgrwt>
</event>
<event>
 4    1  0.1726503E-004  0.5167979E+03  0.7818608E-02  0.1009485E+00
          2   -1    0    0  501    0  0.00000000000E+00  0.00000000000E+00  0.81106068704E+03  0.81106068704E+03  0.00000000000E+00 0.  1.
         -2   -1    0    0    0  501 -0.00000000000E+00 -0.00000000000E+00 -0.82324320159E+02  0.82324320159E+02  0.00000000000E+00 0.  1.
         25    1    1    2    0    0  0.52509421699E+02  0.21679516474E+03  0.45272853513E+03  0.51876826170E+03  0.12000000000E+03 0.  0.
         25    1    1    2    0    0 -0.52509421699E+02 -0.21679516474E+03  0.27600783175E+03  0.37461674550E+03  0.12000000000E+03 0.  0.
<mgrwt>
<rscale>  0 0.51679791E+03</rscale>
<asrwt>0</asrwt>
<pdfrwt beam="1">  1        2 0.12477856E+00 0.51679791E+03</pdfrwt>
<pdfrwt beam="2">  1       -2 0.12665281E-01 0.51679791E+03</pdfrwt>
<totfact> 0.15791425E+03</totfact>
</mgrwt>
</event>
<event>
 4    1  0.1726503E-004  0.2868139E+03  0.7818608E-02  0.1092024E+00
          2   -1    0    0  501    0  0.00000000000E+00  0.00000000000E+00  0.62294458506E+02  0.62294458506E+02  0.00000000000E+00 0.  1.
         -2   -1    0    0    0  501 -0.00000000000E+00 -0.00000000000E+00 -0.33013462000E+03  0.33013462000E+03  0.00000000000E+00 0.  1.
         25    1    1    2    0    0 -0.22352597112E+02 -0.72519787736E+02 -0.10632377329E+03  0.17737954498E+03  0.12000000000E+03 0.  0.
         25    1    1    2    0    0  0.22352597112E+02  0.72519787736E+02 -0.16151638821E+03  0.21504953353E+03  0.12000000000E+03 0.  0.
<mgrwt>
<rscale>  0 0.28681393E+03</rscale>
<asrwt>0</asrwt>
<pdfrwt beam="1">  1        2 0.95837627E-02 0.28681393E+03</pdfrwt>
<pdfrwt beam="2">  1       -2 0.50789942E-01 0.28681393E+03</pdfrwt>
<totfact> 0.25120002E+03</totfact>
</mgrwt>
</event>
<event>
 4    1  0.1726503E-004  0.2657875E+03  0.7818608E-02  0.1103715E+00
         -2   -1    0    0    0  501 -0.00000000000E+00  0.00000000000E+00  0.37761419779E+02  0.37761419779E+02  0.00000000000E+00 0. -1.
          2   -1    0    0  501    0  0.00000000000E+00 -0.00000000000E+00 -0.46769285860E+03  0.46769285860E+03  0.00000000000E+00 0. -1.
         25    1    1    2    0    0 -0.45786019758E+02  0.29061110149E+02 -0.24897620360E+03  0.28165592074E+03  0.12000000000E+03 0.  0.
         25    1    1    2    0    0  0.45786019758E+02 -0.29061110149E+02 -0.18095523523E+03  0.22379835764E+03  0.12000000000E+03 0.  0.
<mgrwt>
<rscale>  0 0.26578748E+03</rscale>
<asrwt>0</asrwt>
<pdfrwt beam="1">  1        2 0.71952750E-01 0.26578748E+03</pdfrwt>
<pdfrwt beam="2">  1       -2 0.58094490E-02 0.26578748E+03</pdfrwt>
<totfact> 0.10356062E+04</totfact>
</mgrwt>
</event>
<event>
 4    1  0.1726503E-004  0.2528409E+03  0.7818608E-02  0.1111522E+00
          1   -1    0    0  501    0  0.00000000000E+00  0.00000000000E+00  0.50238572189E+02  0.50238572189E+02  0.00000000000E+00 0.  1.
         -1   -1    0    0    0  501 -0.00000000000E+00 -0.00000000000E+00 -0.31812472790E+03  0.31812472790E+03  0.00000000000E+00 0.  1.
         25    1    1    2    0    0 -0.24943907439E+02 -0.11918929192E+02 -0.17560812348E+03  0.21448186968E+03  0.12000000000E+03 0.  0.
         25    1    1    2    0    0  0.24943907439E+02  0.11918929192E+02 -0.92278032235E+02  0.15388143041E+03  0.12000000000E+03 0.  0.
<mgrwt>
<rscale>  0 0.25284092E+03</rscale>
<asrwt>0</asrwt>
<pdfrwt beam="1">  1        1 0.77290112E-02 0.25284092E+03</pdfrwt>
<pdfrwt beam="2">  1       -1 0.48942265E-01 0.25284092E+03</pdfrwt>
<totfact> 0.38648705E+03</totfact>
</mgrwt>
</event>
<event>
 4    1  0.1726503E-004  0.2599258E+03  0.7818608E-02  0.1107188E+00
          2   -1    0    0  501    0  0.00000000000E+00  0.00000000000E+00  0.10100978628E+03  0.10100978628E+03  0.00000000000E+00 0.  1.
         -2   -1    0    0    0  501 -0.00000000000E+00 -0.00000000000E+00 -0.16721509627E+03  0.16721509627E+03  0.00000000000E+00 0.  1.
         25    1    1    2    0    0  0.23459857253E+02 -0.40492679453E+02 -0.15219029345E+02  0.12969826848E+03  0.12000000000E+03 0.  0.
         25    1    1    2    0    0 -0.23459857253E+02  0.40492679453E+02 -0.50986280640E+02  0.13852661407E+03  0.12000000000E+03 0.  0.
<mgrwt>
<rscale>  0 0.25992584E+03</rscale>
<asrwt>0</asrwt>
<pdfrwt beam="1">  1        2 0.15539967E-01 0.25992584E+03</pdfrwt>
<pdfrwt beam="2">  1       -2 0.25725399E-01 0.25992584E+03</pdfrwt>
<totfact> 0.49975690E+03</totfact>
</mgrwt>
</event>
<event>
 4    1  0.1726503E-004  0.2812594E+03  0.7818608E-02  0.1095003E+00
          2   -1    0    0  501    0  0.00000000000E+00  0.00000000000E+00  0.87160456137E+03  0.87160456137E+03  0.00000000000E+00 0.  1.
         -2   -1    0    0    0  501 -0.00000000000E+00 -0.00000000000E+00 -0.22690010203E+02  0.22690010203E+02  0.00000000000E+00 0.  1.
         25    1    1    2    0    0  0.31501848454E+02 -0.58169696023E+02  0.52503728094E+03  0.54262346647E+03  0.12000000000E+03 0.  0.
         25    1    1    2    0    0 -0.31501848454E+02  0.58169696023E+02  0.32387727023E+03  0.35167110510E+03  0.12000000000E+03 0.  0.
<mgrwt>
<rscale>  0 0.28125943E+03</rscale>
<asrwt>0</asrwt>
<pdfrwt beam="1">  1        2 0.13409298E+00 0.28125943E+03</pdfrwt>
<pdfrwt beam="2">  1       -2 0.34907715E-02 0.28125943E+03</pdfrwt>
<totfact> 0.10681497E+04</totfact>
</mgrwt>
</event>
<event>
 4    1  0.1726503E-004  0.2991941E+03  0.7818608E-02  0.1085644E+00
          2   -1    0    0  501    0  0.00000000000E+00  0.00000000000E+00  0.57697622282E+02  0.57697622282E+02  0.00000000000E+00 0. -1.
         -2   -1    0    0    0  501 -0.00000000000E+00 -0.00000000000E+00 -0.38787164603E+03  0.38787164603E+03  0.00000000000E+00 0. -1.
         25    1    1    2    0    0 -0.80342664626E+02 -0.16496030108E+02 -0.21778580410E+03  0.26183529028E+03  0.12000000000E+03 0.  0.
         25    1    1    2    0    0  0.80342664626E+02  0.16496030108E+02 -0.11238821965E+03  0.18373397804E+03  0.12000000000E+03 0.  0.
<mgrwt>
<rscale>  0 0.29919406E+03</rscale>
<asrwt>0</asrwt>
<pdfrwt beam="1">  1        2 0.88765571E-02 0.29919406E+03</pdfrwt>
<pdfrwt beam="2">  1       -2 0.59672562E-01 0.29919406E+03</pdfrwt>
<totfact> 0.19935308E+03</totfact>
</mgrwt>
</event>
<event>
 4    1  0.1726503E-004  0.2919556E+03  0.7818608E-02  0.1089333E+00
          1   -1    0    0  501    0  0.00000000000E+00  0.00000000000E+00  0.26936861504E+02  0.26936861504E+02  0.00000000000E+00 0. -1.
         -1   -1    0    0    0  501 -0.00000000000E+00 -0.00000000000E+00 -0.79109133256E+03  0.79109133256E+03  0.00000000000E+00 0. -1.
         25    1    1    2    0    0  0.78287322238E+02 -0.22946189360E+02 -0.33741492575E+03  0.36729315887E+03  0.12000000000E+03 0.  0.
         25    1    1    2    0    0 -0.78287322238E+02  0.22946189360E+02 -0.42673954530E+03  0.45073503520E+03  0.12000000000E+03 0.  0.
<mgrwt>
<rscale>  0 0.29195560E+03</rscale>
<asrwt>0</asrwt>
<pdfrwt beam="1">  1        1 0.41441320E-02 0.29195560E+03</pdfrwt>
<pdfrwt beam="2">  1       -1 0.12170637E+00 0.29195560E+03</pdfrwt>
<totfact> 0.13846109E+03</totfact>
</mgrwt>
</event>
<event>
 4    1  0.1726503E-004  0.2655301E+03  0.7818608E-02  0.1103865E+00
         -2   -1    0    0    0  501 -0.00000000000E+00  0.00000000000E+00  0.25631017459E+02  0.25631017459E+02  0.00000000000E+00 0. -1.
          2   -1    0    0  501    0  0.00000000000E+00 -0.00000000000E+00 -0.68770396630E+03  0.68770396630E+03  0.00000000000E+00 0. -1.
         25    1    1    2    0    0 -0.52505192941E+02 -0.16908685357E+02 -0.29461011899E+03  0.32285882540E+03  0.12000000000E+03 0.  0.
         25    1    1    2    0    0  0.52505192941E+02  0.16908685357E+02 -0.36746282986E+03  0.39047615837E+03  0.12000000000E+03 0.  0.
<mgrwt>
<rscale>  0 0.26553005E+03</rscale>
<asrwt>0</asrwt>
<pdfrwt beam="1">  1        2 0.10580061E+00 0.26553005E+03</pdfrwt>
<pdfrwt beam="2">  1       -2 0.39432333E-02 0.26553005E+03</pdfrwt>
<totfact> 0.11964869E+04</totfact>
</mgrwt>
</event>
<event>
 4    1  0.1726503E-004  0.2482982E+03  0.7818608E-02  0.1114385E+00
         -2   -1    0    0    0  501 -0.00000000000E+00  0.00000000000E+00  0.11350910998E+03  0.11350910998E+03  0.00000000000E+00 0. -1.
          2   -1    0    0  501    0  0.00000000000E+00 -0.00000000000E+00 -0.13578643530E+03  0.13578643530E+03  0.00000000000E+00 0. -1.
         25    1    1    2    0    0  0.27365328517E+02  0.55133513795E+01 -0.26488603940E+02  0.12601946035E+03  0.12000000000E+03 0.  0.
         25    1    1    2    0    0 -0.27365328517E+02 -0.55133513795E+01  0.42112786258E+01  0.12327608493E+03  0.12000000000E+03 0.  0.
<mgrwt>
<rscale>  0 0.24829819E+03</rscale>
<asrwt>0</asrwt>
<pdfrwt beam="1">  1        2 0.20890221E-01 0.24829819E+03</pdfrwt>
<pdfrwt beam="2">  1       -2 0.17462940E-01 0.24829819E+03</pdfrwt>
<totfact> 0.69016328E+03</totfact>
</mgrwt>
</event>
<event>
 4    1  0.1726503E-004  0.2795344E+03  0.7818608E-02  0.1095943E+00
         -2   -1    0    0    0  501 -0.00000000000E+00  0.00000000000E+00  0.14025309489E+02  0.14025309489E+02  0.00000000000E+00 0. -1.
          2   -1    0    0  501    0  0.00000000000E+00 -0.00000000000E+00 -0.13928302483E+04  0.13928302483E+04  0.00000000000E+00 0. -1.
         25    1    1    2    0    0 -0.10213856021E+02 -0.39789769719E+02 -0.39390387945E+03  0.41382099376E+03  0.12000000000E+03 0.  0.
         25    1    1    2    0    0  0.10213856021E+02  0.39789769719E+02 -0.98490105935E+03  0.99303456402E+03  0.12000000000E+03 0.  0.
<mgrwt>
<rscale>  0 0.27953444E+03</rscale>
<asrwt>0</asrwt>
<pdfrwt beam="1">  1        2 0.21428160E+00 0.27953444E+03</pdfrwt>
<pdfrwt beam="2">  1       -2 0.21577397E-02 0.27953444E+03</pdfrwt>
<totfact> 0.10779009E+04</totfact>
</mgrwt>
</event>
<event>
 4    1  0.1726503E-004  0.4155711E+03  0.7818608E-02  0.1038517E+00
          2   -1    0    0  501    0  0.00000000000E+00  0.00000000000E+00  0.46481612052E+03  0.46481612052E+03  0.00000000000E+00 0. -1.
         -2   -1    0    0    0  501 -0.00000000000E+00 -0.00000000000E+00 -0.92885848214E+02  0.92885848214E+02  0.00000000000E+00 0. -1.
         25    1    1    2    0    0 -0.42029399261E+02 -0.14709325340E+03  0.87604222411E+02  0.21325429746E+03  0.12000000000E+03 0.  0.
         25    1    1    2    0    0  0.42029399261E+02  0.14709325340E+03  0.28432604989E+03  0.34444767128E+03  0.12000000000E+03 0.  0.
<mgrwt>
<rscale>  0 0.41557112E+03</rscale>
<asrwt>0</asrwt>
<pdfrwt beam="1">  1        2 0.71510171E-01 0.41557112E+03</pdfrwt>
<pdfrwt beam="2">  1       -2 0.14290131E-01 0.41557112E+03</pdfrwt>
<totfact> 0.25233558E+03</totfact>
</mgrwt>
</event>
<event>
 4    1  0.1726503E-004  0.2614251E+03  0.7818608E-02  0.1106290E+00
         -1   -1    0    0    0  501 -0.00000000000E+00  0.00000000000E+00  0.15840634087E+02  0.15840634087E+02  0.00000000000E+00 0.  1.
          1   -1    0    0  501    0  0.00000000000E+00 -0.00000000000E+00 -0.10786040401E+04  0.10786040401E+04  0.00000000000E+00 0.  1.
         25    1    1    2    0    0 -0.75692768809E+01  0.41727404231E+02 -0.40667718939E+03  0.42612768812E+03  0.12000000000E+03 0.  0.
         25    1    1    2    0    0  0.75692768809E+01 -0.41727404231E+02 -0.65608621665E+03  0.66831698608E+03  0.12000000000E+03 0.  0.
<mgrwt>
<rscale>  0 0.26142511E+03</rscale>
<asrwt>0</asrwt>
<pdfrwt beam="1">  1        1 0.16593913E+00 0.26142511E+03</pdfrwt>
<pdfrwt beam="2">  1       -1 0.24370199E-02 0.26142511E+03</pdfrwt>
<totfact> 0.71554229E+03</totfact>
</mgrwt>
</event>
<event>
 4    1  0.1726503E-004  0.2618443E+03  0.7818608E-02  0.1106040E+00
         -2   -1    0    0    0  501 -0.00000000000E+00  0.00000000000E+00  0.12884435100E+02  0.12884435100E+02  0.00000000000E+00 0. -1.
          2   -1    0    0  501    0  0.00000000000E+00 -0.00000000000E+00 -0.13303346670E+04  0.13303346670E+04  0.00000000000E+00 0. -1.
         25    1    1    2    0    0 -0.48148557919E+02  0.83702385636E+01 -0.56244442950E+03  0.57717595306E+03  0.12000000000E+03 0.  0.
         25    1    1    2    0    0  0.48148557919E+02 -0.83702385636E+01 -0.75500580244E+03  0.76604314908E+03  0.12000000000E+03 0.  0.
<mgrwt>
<rscale>  0 0.26184431E+03</rscale>
<asrwt>0</asrwt>
<pdfrwt beam="1">  1        2 0.20466669E+00 0.26184431E+03</pdfrwt>
<pdfrwt beam="2">  1       -2 0.19822225E-02 0.26184431E+03</pdfrwt>
<totfact> 0.13190107E+04</totfact>
</mgrwt>
</event>
<event>
 4    1  0.1726503E-004  0.2563789E+03  0.7818608E-02  0.1109339E+00
         -2   -1    0    0    0  501 -0.00000000000E+00  0.00000000000E+00  0.70016988126E+01  0.70016988126E+01  0.00000000000E+00 0. -1.
          2   -1    0    0  501    0  0.00000000000E+00 -0.00000000000E+00 -0.23469360567E+04  0.23469360567E+04  0.00000000000E+00 0. -1.
         25    1    1    2    0    0  0.52211369174E+01 -0.50618288784E+01 -0.76145254840E+03  0.77088446984E+03  0.12000000000E+03 0.  0.
         25    1    1    2    0    0 -0.52211369174E+01  0.50618288784E+01 -0.15784818094E+04  0.15830532856E+04  0.12000000000E+03 0.  0.
<mgrwt>
<rscale>  0 0.25637893E+03</rscale>
<asrwt>0</asrwt>
<pdfrwt beam="1">  1        2 0.36106670E+00 0.25637893E+03</pdfrwt>
<pdfrwt beam="2">  1       -2 0.10771856E-02 0.25637893E+03</pdfrwt>
<totfact> 0.92891400E+03</totfact>
</mgrwt>
</event>
<event>
 4    1  0.1726503E-004  0.2955000E+03  0.7818608E-02  0.1087512E+00
         -2   -1    0    0    0  501 -0.00000000000E+00  0.00000000000E+00  0.24394959623E+02  0.24394959623E+02  0.00000000000E+00 0.  1.
          2   -1    0    0  501    0  0.00000000000E+00 -0.00000000000E+00 -0.89485968240E+03  0.89485968240E+03  0.00000000000E+00 0.  1.
         25    1    1    2    0    0 -0.33323950170E+02  0.51549865995E+02 -0.24697635674E+03  0.28136310193E+03  0.12000000000E+03 0.  0.
         25    1    1    2    0    0  0.33323950170E+02 -0.51549865995E+02 -0.62348836603E+03  0.63789154009E+03  0.12000000000E+03 0.  0.
<mgrwt>
<rscale>  0 0.29550002E+03</rscale>
<asrwt>0</asrwt>
<pdfrwt beam="1">  1        2 0.13767071E+00 0.29550002E+03</pdfrwt>
<pdfrwt beam="2">  1       -2 0.37530710E-02 0.29550002E+03</pdfrwt>
<totfact> 0.92648410E+03</totfact>
</mgrwt>
</event>
<event>
 4    1  0.1726503E-004  0.2867263E+03  0.7818608E-02  0.1092071E+00
          2   -1    0    0  501    0  0.00000000000E+00  0.00000000000E+00  0.31384557459E+03  0.31384557459E+03  0.00000000000E+00 0. -1.
         -2   -1    0    0    0  501 -0.00000000000E+00 -0.00000000000E+00 -0.65487601090E+02  0.65487601090E+02  0.00000000000E+00 0. -1.
         25    1    1    2    0    0  0.59701110258E+02 -0.49004928700E+02  0.10607357185E+03  0.17781256493E+03  0.12000000000E+03 0.  0.
         25    1    1    2    0    0 -0.59701110258E+02  0.49004928700E+02  0.14228440165E+03  0.20152061074E+03  0.12000000000E+03 0.  0.
<mgrwt>
<rscale>  0 0.28672631E+03</rscale>
<asrwt>0</asrwt>
<pdfrwt beam="1">  1        2 0.48283934E-01 0.28672631E+03</pdfrwt>
<pdfrwt beam="2">  1       -2 0.10075016E-01 0.28672631E+03</pdfrwt>
<totfact> 0.67911454E+03</totfact>
</mgrwt>
</event>
<event>
 4    1  0.1726503E-004  0.3437311E+03  0.7818608E-02  0.1065218E+00
         -2   -1    0    0    0  501 -0.00000000000E+00  0.00000000000E+00  0.23871391702E+02  0.23871391702E+02  0.00000000000E+00 0. -1.
          2   -1    0    0  501    0  0.00000000000E+00 -0.00000000000E+00 -0.12373707521E+04  0.12373707521E+04  0.00000000000E+00 0. -1.
         25    1    1    2    0    0  0.65151820680E+01 -0.92038506985E+02 -0.30811014115E+03  0.34328616844E+03  0.12000000000E+03 0.  0.
         25    1    1    2    0    0 -0.65151820680E+01  0.92038506985E+02 -0.90538921927E+03  0.91795597538E+03  0.12000000000E+03 0.  0.
<mgrwt>
<rscale>  0 0.34373107E+03</rscale>
<asrwt>0</asrwt>
<pdfrwt beam="1">  1        2 0.19036479E+00 0.34373107E+03</pdfrwt>
<pdfrwt beam="2">  1       -2 0.36725207E-02 0.34373107E+03</pdfrwt>
<totfact> 0.59704767E+03</totfact>
</mgrwt>
</event>
<event>
 4    1  0.1726503E-004  0.2769407E+03  0.7818608E-02  0.1097372E+00
          2   -1    0    0  501    0  0.00000000000E+00  0.00000000000E+00  0.44893675364E+03  0.44893675364E+03  0.00000000000E+00 0.  1.
         -2   -1    0    0    0  501 -0.00000000000E+00 -0.00000000000E+00 -0.42709883354E+02  0.42709883354E+02  0.00000000000E+00 0.  1.
         25    1    1    2    0    0  0.46461882829E+02 -0.51081981789E+02  0.20744779015E+03  0.24940461315E+03  0.12000000000E+03 0.  0.
         25    1    1    2    0    0 -0.46461882829E+02  0.51081981789E+02  0.19877908014E+03  0.24224202385E+03  0.12000000000E+03 0.  0.
<mgrwt>
<rscale>  0 0.27694069E+03</rscale>
<asrwt>0</asrwt>
<pdfrwt beam="1">  1        2 0.69067190E-01 0.27694069E+03</pdfrwt>
<pdfrwt beam="2">  1       -2 0.65707516E-02 0.27694069E+03</pdfrwt>
<totfact> 0.89814487E+03</totfact>
</mgrwt>
</event>
<event>
 4    1  0.1726503E-004  0.2650691E+03  0.7818608E-02  0.1104135E+00
          2   -1    0    0  501    0  0.00000000000E+00  0.00000000000E+00  0.14609803669E+02  0.14609803669E+02  0.00000000000E+00 0.  1.
         -2   -1    0    0    0  501 -0.00000000000E+00 -0.00000000000E+00 -0.12023023364E+04  0.12023023364E+04  0.00000000000E+00 0.  1.
         25    1    1    2    0    0  0.41414499467E+02 -0.34924319960E+02 -0.52414093689E+03  0.54042445412E+03  0.12000000000E+03 0.  0.
         25    1    1    2    0    0 -0.41414499467E+02  0.34924319960E+02 -0.66355159580E+03  0.67648768590E+03  0.12000000000E+03 0.  0.
<mgrwt>
<rscale>  0 0.26506906E+03</rscale>
<asrwt>0</asrwt>
<pdfrwt beam="1">  1        2 0.22476620E-02 0.26506906E+03</pdfrwt>
<pdfrwt beam="2">  1       -2 0.18496960E+00 0.26506906E+03</pdfrwt>
<totfact> 0.83952569E+02</totfact>
</mgrwt>
</event>
<event>
 4    1  0.1726503E-004  0.2835368E+03  0.7818608E-02  0.1093773E+00
          2   -1    0    0  501    0  0.00000000000E+00  0.00000000000E+00  0.85167124650E+03  0.85167124650E+03  0.00000000000E+00 0.  1.
         -2   -1    0    0    0  501 -0.00000000000E+00 -0.00000000000E+00 -0.23598633293E+02  0.23598633293E+02  0.00000000000E+00 0.  1.
         25    1    1    2    0    0  0.58282951702E+02 -0.43915337141E+02  0.47364108607E+03  0.49402564479E+03  0.12000000000E+03 0.  0.
         25    1    1    2    0    0 -0.58282951702E+02  0.43915337141E+02  0.35443152714E+03  0.38124423501E+03  0.12000000000E+03 0.  0.
<mgrwt>
<rscale>  0 0.28353679E+03</rscale>
<asrwt>0</asrwt>
<pdfrwt beam="1">  1        2 0.13102632E+00 0.28353679E+03</pdfrwt>
<pdfrwt beam="2">  1       -2 0.36305596E-02 0.28353679E+03</pdfrwt>
<totfact> 0.10384662E+04</totfact>
</mgrwt>
</event>
<event>
 4    1  0.1726503E-004  0.2928940E+03  0.7818608E-02  0.1088848E+00
         -2   -1    0    0    0  501 -0.00000000000E+00  0.00000000000E+00  0.32146684757E+02  0.32146684757E+02  0.00000000000E+00 0.  1.
          2   -1    0    0  501    0  0.00000000000E+00 -0.00000000000E+00 -0.66715217984E+03  0.66715217984E+03  0.00000000000E+00 0.  1.
         25    1    1    2    0    0  0.22881151269E+02 -0.58424690177E+02 -0.45064449984E+03  0.47055016390E+03  0.12000000000E+03 0.  0.
         25    1    1    2    0    0 -0.22881151269E+02  0.58424690177E+02 -0.18436099524E+03  0.22874870070E+03  0.12000000000E+03 0.  0.
<mgrwt>
<rscale>  0 0.29289405E+03</rscale>
<asrwt>0</asrwt>
<pdfrwt beam="1">  1        2 0.10263879E+00 0.29289405E+03</pdfrwt>
<pdfrwt beam="2">  1       -2 0.49456440E-02 0.29289405E+03</pdfrwt>
<totfact> 0.88420753E+03</totfact>
</mgrwt>
</event>
<event>
 4    1  0.1726503E-004  0.2841053E+03  0.7818608E-02  0.1093468E+00
         -2   -1    0    0    0  501 -0.00000000000E+00  0.00000000000E+00  0.30306315292E+02  0.30306315292E+02  0.00000000000E+00 0.  1.
          2   -1    0    0  501    0  0.00000000000E+00 -0.00000000000E+00 -0.66583315838E+03  0.66583315838E+03  0.00000000000E+00 0.  1.
         25    1    1    2    0    0  0.19947071959E+02  0.34505080727E+02 -0.15914705021E+03  0.20326403978E+03  0.12000000000E+03 0.  0.
         25    1    1    2    0    0 -0.19947071959E+02 -0.34505080727E+02 -0.47637979287E+03  0.49287543389E+03  0.12000000000E+03 0.  0.
<mgrwt>
<rscale>  0 0.28410526E+03</rscale>
<asrwt>0</asrwt>
<pdfrwt beam="1">  1        2 0.10243587E+00 0.28410526E+03</pdfrwt>
<pdfrwt beam="2">  1       -2 0.46625103E-02 0.28410526E+03</pdfrwt>
<totfact> 0.96837895E+03</totfact>
</mgrwt>
</event>
<event>
 4    1  0.1726503E-004  0.3590778E+03  0.7818608E-02  0.1058950E+00
          2   -1    0    0  501    0  0.00000000000E+00  0.00000000000E+00  0.91893945768E+03  0.91893945768E+03  0.00000000000E+00 0.  1.
         -2   -1    0    0    0  501 -0.00000000000E+00 -0.00000000000E+00 -0.35077624535E+02  0.35077624535E+02  0.00000000000E+00 0.  1.
         25    1    1    2    0    0  0.15956825097E+02 -0.13109259905E+03  0.38917223509E+03  0.42812955791E+03  0.12000000000E+03 0.  0.
         25    1    1    2    0    0 -0.15956825097E+02  0.13109259905E+03  0.49468959806E+03  0.52588752431E+03  0.12000000000E+03 0.  0.
<mgrwt>
<rscale>  0 0.35907778E+03</rscale>
<asrwt>0</asrwt>
<pdfrwt beam="1">  1        2 0.14137528E+00 0.35907778E+03</pdfrwt>
<pdfrwt beam="2">  1       -2 0.53965583E-02 0.35907778E+03</pdfrwt>
<totfact> 0.51679611E+03</totfact>
</mgrwt>
</event>
<event>
 4    1  0.1726503E-004  0.2660447E+03  0.7818608E-02  0.1103565E+00
         -2   -1    0    0    0  501 -0.00000000000E+00  0.00000000000E+00  0.30861421761E+02  0.30861421761E+02  0.00000000000E+00 0. -1.
          2   -1    0    0  501    0  0.00000000000E+00 -0.00000000000E+00 -0.57336792746E+03  0.57336792746E+03  0.00000000000E+00 0. -1.
         25    1    1    2    0    0  0.40118219970E+02  0.23631935163E+02 -0.34749817869E+03  0.37057107838E+03  0.12000000000E+03 0.  0.
         25    1    1    2    0    0 -0.40118219970E+02 -0.23631935163E+02 -0.19500832701E+03  0.23365827085E+03  0.12000000000E+03 0.  0.
<mgrwt>
<rscale>  0 0.26604473E+03</rscale>
<asrwt>0</asrwt>
<pdfrwt beam="1">  1        2 0.88210448E-01 0.26604473E+03</pdfrwt>
<pdfrwt beam="2">  1       -2 0.47479112E-02 0.26604473E+03</pdfrwt>
<totfact> 0.11196066E+04</totfact>
</mgrwt>
</event>
<event>
 4    1  0.1726503E-004  0.3602905E+03  0.7818608E-02  0.1058469E+00
         -2   -1    0    0    0  501 -0.00000000000E+00  0.00000000000E+00  0.10067818257E+04  0.10067818257E+04  0.00000000000E+00 0. -1.
          2   -1    0    0  501    0  0.00000000000E+00 -0.00000000000E+00 -0.32233702356E+02  0.32233702356E+02  0.00000000000E+00 0. -1.
         25    1    1    2    0    0 -0.57639313392E+02  0.99848837689E+02  0.28830617013E+03  0.33288515823E+03  0.12000000000E+03 0.  0.
         25    1    1    2    0    0  0.57639313392E+02 -0.99848837689E+02  0.68624195318E+03  0.70613036979E+03  0.12000000000E+03 0.  0.
<mgrwt>
<rscale>  0 0.36029047E+03</rscale>
<asrwt>0</asrwt>
<pdfrwt beam="1">  1        2 0.49590319E-02 0.36029047E+03</pdfrwt>
<pdfrwt beam="2">  1       -2 0.15488949E+00 0.36029047E+03</pdfrwt>
<totfact> 0.46544884E+02</totfact>
</mgrwt>
</event>
<event>
 4    1  0.1726503E-004  0.3469555E+03  0.7818608E-02  0.1063872E+00
         -2   -1    0    0    0  501 -0.00000000000E+00  0.00000000000E+00  0.17301168186E+02  0.17301168186E+02  0.00000000000E+00 0. -1.
          2   -1    0    0  501    0  0.00000000000E+00 -0.00000000000E+00 -0.17394509794E+04  0.17394509794E+04  0.00000000000E+00 0. -1.
         25    1    1    2    0    0 -0.11513577056E+03 -0.48321550356E+02 -0.80960888425E+03  0.82792376663E+03  0.12000000000E+03 0.  0.
         25    1    1    2    0    0  0.11513577056E+03  0.48321550356E+02 -0.91254092699E+03  0.92882838099E+03  0.12000000000E+03 0.  0.
<mgrwt>
<rscale>  0 0.34695552E+03</rscale>
<asrwt>0</asrwt>
<pdfrwt beam="1">  1        2 0.26760795E+00 0.34695552E+03</pdfrwt>
<pdfrwt beam="2">  1       -2 0.26617171E-02 0.34695552E+03</pdfrwt>
<totfact> 0.51608867E+03</totfact>
</mgrwt>
</event>
<event>
 4    1  0.1726503E-004  0.2836196E+03  0.7818608E-02  0.1093728E+00
          1   -1    0    0  501    0  0.00000000000E+00  0.00000000000E+00  0.17444675912E+03  0.17444675912E+03  0.00000000000E+00 0. -1.
         -1   -1    0    0    0  501 -0.00000000000E+00 -0.00000000000E+00 -0.11527885276E+03  0.11527885276E+03  0.00000000000E+00 0. -1.
         25    1    1    2    0    0  0.41460450693E+02 -0.23575330385E+02  0.89456845642E+02  0.15709007737E+03  0.12000000000E+03 0.  0.
         25    1    1    2    0    0 -0.41460450693E+02  0.23575330385E+02 -0.30288939277E+02  0.13263553452E+03  0.12000000000E+03 0.  0.
<mgrwt>
<rscale>  0 0.28361962E+03</rscale>
<asrwt>0</asrwt>
<pdfrwt beam="1">  1        1 0.26837963E-01 0.28361962E+03</pdfrwt>
<pdfrwt beam="2">  1       -1 0.17735208E-01 0.28361962E+03</pdfrwt>
<totfact> 0.42641332E+03</totfact>
</mgrwt>
</event>
<event>
 4    1  0.1726503E-004  0.2752887E+03  0.7818608E-02  0.1098290E+00
         -2   -1    0    0    0  501 -0.00000000000E+00  0.00000000000E+00  0.50718108691E+02  0.50718108691E+02  0.00000000000E+00 0. -1.
          2   -1    0    0  501    0  0.00000000000E+00 -0.00000000000E+00 -0.37355431121E+03  0.37355431121E+03  0.00000000000E+00 0. -1.
         25    1    1    2    0    0  0.83017123859E+01  0.36235738447E+02 -0.74726688238E+02  0.14617121845E+03  0.12000000000E+03 0.  0.
         25    1    1    2    0    0 -0.83017123859E+01 -0.36235738447E+02 -0.24810951428E+03  0.27810120144E+03  0.12000000000E+03 0.  0.
<mgrwt>
<rscale>  0 0.27528871E+03</rscale>
<asrwt>0</asrwt>
<pdfrwt beam="1">  1        2 0.57469896E-01 0.27528871E+03</pdfrwt>
<pdfrwt beam="2">  1       -2 0.78027857E-02 0.27528871E+03</pdfrwt>
<totfact> 0.84043877E+03</totfact>
</mgrwt>
</event>
<event>
 4    1  0.1726503E-004  0.3560392E+03  0.7818608E-02  0.1060163E+00
         -2   -1    0    0    0  501 -0.00000000000E+00  0.00000000000E+00  0.39124251579E+02  0.39124251579E+02  0.00000000000E+00 0. -1.
          2   -1    0    0  501    0  0.00000000000E+00 -0.00000000000E+00 -0.81000849454E+03  0.81000849454E+03  0.00000000000E+00 0. -1.
         25    1    1    2    0    0 -0.75654626272E+02 -0.25828905754E+02 -0.13644436002E+03  0.19851402527E+03  0.12000000000E+03 0.  0.
         25    1    1    2    0    0  0.75654626272E+02  0.25828905754E+02 -0.63443988294E+03  0.65061872084E+03  0.12000000000E+03 0.  0.
<mgrwt>
<rscale>  0 0.35603919E+03</rscale>
<asrwt>0</asrwt>
<pdfrwt beam="1">  1        2 0.12461669E+00 0.35603919E+03</pdfrwt>
<pdfrwt beam="2">  1       -2 0.60191157E-02 0.35603919E+03</pdfrwt>
<totfact> 0.51645143E+03</totfact>
</mgrwt>
</event>
<event>
 4    1  0.1726503E-004  0.2713489E+03  0.7818608E-02  0.1100510E+00
          3   -1    0    0  501    0  0.00000000000E+00  0.00000000000E+00  0.76979218643E+02  0.76979218643E+02  0.00000000000E+00 0.  1.
         -3   -1    0    0    0  501 -0.00000000000E+00 -0.00000000000E+00 -0.23912367882E+03  0.23912367882E+03  0.00000000000E+00 0.  1.
         25    1    1    2    0    0  0.41051024538E+02  0.31141168086E+02 -0.12391566939E+03  0.18002792029E+03  0.12000000000E+03 0.  0.
         25    1    1    2    0    0 -0.41051024538E+02 -0.31141168086E+02 -0.38228790785E+02  0.13607497716E+03  0.12000000000E+03 0.  0.
<mgrwt>
<rscale>  0 0.27134888E+03</rscale>
<asrwt>0</asrwt>
<pdfrwt beam="1">  1        3 0.11842957E-01 0.27134888E+03</pdfrwt>
<pdfrwt beam="2">  1       -3 0.36788258E-01 0.27134888E+03</pdfrwt>
<totfact> 0.10297615E+03</totfact>
</mgrwt>
</event>
<event>
 4    1  0.1726503E-004  0.2788699E+03  0.7818608E-02  0.1096308E+00
         -1   -1    0    0    0  501 -0.00000000000E+00  0.00000000000E+00  0.12489968517E+02  0.12489968517E+02  0.00000000000E+00 0. -1.
          1   -1    0    0  501    0  0.00000000000E+00 -0.00000000000E+00 -0.15566174719E+04  0.15566174719E+04  0.00000000000E+00 0. -1.
         25    1    1    2    0    0 -0.39488131656E+02  0.46227996448E+02 -0.97847594995E+03  0.98767986961E+03  0.12000000000E+03 0.  0.
         25    1    1    2    0    0  0.39488131656E+02 -0.46227996448E+02 -0.56565155345E+03  0.58142757083E+03  0.12000000000E+03 0.  0.
<mgrwt>
<rscale>  0 0.27886989E+03</rscale>
<asrwt>0</asrwt>
<pdfrwt beam="1">  1        1 0.23947975E+00 0.27886989E+03</pdfrwt>
<pdfrwt beam="2">  1       -1 0.19215325E-02 0.27886989E+03</pdfrwt>
<totfact> 0.47738867E+03</totfact>
</mgrwt>
</event>
<event>
 4    1  0.1726503E-004  0.2449240E+03  0.7818608E-02  0.1116555E+00
          1   -1    0    0  501    0  0.00000000000E+00  0.00000000000E+00  0.11079186185E+03  0.11079186185E+03  0.00000000000E+00 0. -1.
         -1   -1    0    0    0  501 -0.00000000000E+00 -0.00000000000E+00 -0.13536144656E+03  0.13536144656E+03  0.00000000000E+00 0. -1.
         25    1    1    2    0    0 -0.24204833948E+02  0.25230775937E+01 -0.14465192535E+02  0.12329428901E+03  0.12000000000E+03 0.  0.
         25    1    1    2    0    0  0.24204833948E+02 -0.25230775937E+01 -0.10104392169E+02  0.12285901940E+03  0.12000000000E+03 0.  0.
<mgrwt>
<rscale>  0 0.24492404E+03</rscale>
<asrwt>0</asrwt>
<pdfrwt beam="1">  1        1 0.17044902E-01 0.24492404E+03</pdfrwt>
<pdfrwt beam="2">  1       -1 0.20824838E-01 0.24492404E+03</pdfrwt>
<totfact> 0.58573386E+03</totfact>
</mgrwt>
</event>
<event>
 4    1  0.1726503E-004  0.2459776E+03  0.7818608E-02  0.1115874E+00
          1   -1    0    0  501    0  0.00000000000E+00  0.00000000000E+00  0.15109385198E+03  0.15109385198E+03  0.00000000000E+00 0.  1.
         -1   -1    0    0    0  501 -0.00000000000E+00 -0.00000000000E+00 -0.10011160114E+03  0.10011160114E+03  0.00000000000E+00 0.  1.
         25    1    1    2    0    0 -0.24608681975E+02  0.79743496936E+01  0.33206149108E+02  0.12716849382E+03  0.12000000000E+03 0.  0.
         25    1    1    2    0    0  0.24608681975E+02 -0.79743496936E+01  0.17776101730E+02  0.12403695931E+03  0.12000000000E+03 0.  0.
<mgrwt>
<rscale>  0 0.24597762E+03</rscale>
<asrwt>0</asrwt>
<pdfrwt beam="1">  1        1 0.23245208E-01 0.24597762E+03</pdfrwt>
<pdfrwt beam="2">  1       -1 0.15401785E-01 0.24597762E+03</pdfrwt>
<totfact> 0.63817185E+03</totfact>
</mgrwt>
</event>
<event>
 4    1  0.1726503E-004  0.3315213E+03  0.7818608E-02  0.1070466E+00
          1   -1    0    0  501    0  0.00000000000E+00  0.00000000000E+00  0.31298767129E+04  0.31298767129E+04  0.00000000000E+00 0.  1.
         -1   -1    0    0    0  501 -0.00000000000E+00 -0.00000000000E+00 -0.87788105204E+01  0.87788105204E+01  0.00000000000E+00 0.  1.
         25    1    1    2    0    0  0.24412564112E+02 -0.90162000623E+02  0.21850719743E+04  0.21903572066E+04  0.12000000000E+03 0.  0.
         25    1    1    2    0    0 -0.24412564112E+02  0.90162000623E+02  0.93602592809E+03  0.94829831683E+03  0.12000000000E+03 0.  0.
<mgrwt>
<rscale>  0 0.33152131E+03</rscale>
<asrwt>0</asrwt>
<pdfrwt beam="1">  1        1 0.48151860E+00 0.33152131E+03</pdfrwt>
<pdfrwt beam="2">  1       -1 0.13505887E-02 0.33152131E+03</pdfrwt>
<totfact> 0.70660073E+02</totfact>
</mgrwt>
</event>
<event>
 4    1  0.1726503E-004  0.3609868E+03  0.7818608E-02  0.1058194E+00
          3   -1    0    0  501    0  0.00000000000E+00  0.00000000000E+00  0.37872949626E+03  0.37872949626E+03  0.00000000000E+00 0. -1.
         -3   -1    0    0    0  501 -0.00000000000E+00 -0.00000000000E+00 -0.86018834170E+02  0.86018834170E+02  0.00000000000E+00 0. -1.
         25    1    1    2    0    0 -0.92886004916E+01  0.13245107531E+03  0.11620880166E+03  0.21338709200E+03  0.12000000000E+03 0.  0.
         25    1    1    2    0    0  0.92886004916E+01 -0.13245107531E+03  0.17650186043E+03  0.25136123843E+03  0.12000000000E+03 0.  0.
<mgrwt>
<rscale>  0 0.36098681E+03</rscale>
<asrwt>0</asrwt>
<pdfrwt beam="1">  1        3 0.58266076E-01 0.36098681E+03</pdfrwt>
<pdfrwt beam="2">  1       -3 0.13233667E-01 0.36098681E+03</pdfrwt>
<totfact> 0.34915651E+02</totfact>
</mgrwt>
</event>
<event>
 4    1  0.1726503E-004  0.2616582E+03  0.7818608E-02  0.1106151E+00
          2   -1    0    0  501    0  0.00000000000E+00  0.00000000000E+00  0.33146449649E+03  0.33146449649E+03  0.00000000000E+00 0. -1.
         -2   -1    0    0    0  501 -0.00000000000E+00 -0.00000000000E+00 -0.51638256821E+02  0.51638256821E+02  0.00000000000E+00 0. -1.
         25    1    1    2    0    0  0.26847226636E+02 -0.35562519288E+02  0.17949305095E+03  0.22046138369E+03  0.12000000000E+03 0.  0.
         25    1    1    2    0    0 -0.26847226636E+02  0.35562519288E+02  0.10033318872E+03  0.16264136963E+03  0.12000000000E+03 0.  0.
<mgrwt>
<rscale>  0 0.26165816E+03</rscale>
<asrwt>0</asrwt>
<pdfrwt beam="1">  1        2 0.50994537E-01 0.26165816E+03</pdfrwt>
<pdfrwt beam="2">  1       -2 0.79443474E-02 0.26165816E+03</pdfrwt>
<totfact> 0.92780072E+03</totfact>
</mgrwt>
</event>
<event>
 4    1  0.1726503E-004  0.3162526E+03  0.7818608E-02  0.1077387E+00
         -2   -1    0    0    0  501 -0.00000000000E+00  0.00000000000E+00  0.15635546152E+02  0.15635546152E+02  0.00000000000E+00 0. -1.
          2   -1    0    0  501    0  0.00000000000E+00 -0.00000000000E+00 -0.15991724391E+04  0.15991724391E+04  0.00000000000E+00 0. -1.
         25    1    1    2    0    0 -0.89786722745E+02  0.27579599505E+02 -0.57624364541E+03  0.59605287414E+03  0.12000000000E+03 0.  0.
         25    1    1    2    0    0  0.89786722745E+02 -0.27579599505E+02 -0.10072932475E+04  0.10187551111E+04  0.12000000000E+03 0.  0.
<mgrwt>
<rscale>  0 0.31625265E+03</rscale>
<asrwt>0</asrwt>
<pdfrwt beam="1">  1        2 0.24602653E+00 0.31625265E+03</pdfrwt>
<pdfrwt beam="2">  1       -2 0.24054687E-02 0.31625265E+03</pdfrwt>
<totfact> 0.71218363E+03</totfact>
</mgrwt>
</event>
<event>
 4    1  0.1726503E-004  0.2991843E+03  0.7818608E-02  0.1085649E+00
         -2   -1    0    0    0  501 -0.00000000000E+00  0.00000000000E+00  0.14693647868E+02  0.14693647868E+02  0.00000000000E+00 0.  1.
          2   -1    0    0  501    0  0.00000000000E+00 -0.00000000000E+00 -0.15229584651E+04  0.15229584651E+04  0.00000000000E+00 0.  1.
         25    1    1    2    0    0 -0.27025216131E+02 -0.72641142973E+02 -0.98228816509E+03  0.99262134635E+03  0.12000000000E+03 0.  0.
         25    1    1    2    0    0  0.27025216131E+02  0.72641142973E+02 -0.52597665214E+03  0.54503076661E+03  0.12000000000E+03 0.  0.
<mgrwt>
<rscale>  0 0.29918433E+03</rscale>
<asrwt>0</asrwt>
<pdfrwt beam="1">  1        2 0.23430134E+00 0.29918433E+03</pdfrwt>
<pdfrwt beam="2">  1       -2 0.22605608E-02 0.29918433E+03</pdfrwt>
<totfact> 0.85709720E+03</totfact>
</mgrwt>
</event>
<event>
 4    1  0.1726503E-004  0.3017067E+03  0.7818608E-02  0.1084391E+00
         -1   -1    0    0    0  501 -0.00000000000E+00  0.00000000000E+00  0.61340281775E+02  0.61340281775E+02  0.00000000000E+00 0.  1.
          1   -1    0    0  501    0  0.00000000000E+00 -0.00000000000E+00 -0.37099171899E+03  0.37099171899E+03  0.00000000000E+00 0.  1.
         25    1    1    2    0    0 -0.95154820254E+01 -0.85482639797E+02 -0.19919898786E+03  0.24794770189E+03  0.12000000000E+03 0.  0.
         25    1    1    2    0    0  0.95154820254E+01  0.85482639797E+02 -0.11045244935E+03  0.18438429888E+03  0.12000000000E+03 0.  0.
<mgrwt>
<rscale>  0 0.30170672E+03</rscale>
<asrwt>0</asrwt>
<pdfrwt beam="1">  1        1 0.57075648E-01 0.30170672E+03</pdfrwt>
<pdfrwt beam="2">  1       -1 0.94369666E-02 0.30170672E+03</pdfrwt>
<totfact> 0.44464589E+03</totfact>
</mgrwt>
</event>
<event>
 4    1  0.1726503E-004  0.2565735E+03  0.7818608E-02  0.1109220E+00
          2   -1    0    0  501    0  0.00000000000E+00  0.00000000000E+00  0.10963563805E+04  0.10963563805E+04  0.00000000000E+00 0.  1.
         -2   -1    0    0    0  501 -0.00000000000E+00 -0.00000000000E+00 -0.15011080210E+02  0.15011080210E+02  0.00000000000E+00 0.  1.
         25    1    1    2    0    0  0.31967795128E+02  0.17623459809E+02  0.65730124554E+03  0.66916175447E+03  0.12000000000E+03 0.  0.
         25    1    1    2    0    0 -0.31967795128E+02 -0.17623459809E+02  0.42404405480E+03  0.44220570629E+03  0.12000000000E+03 0.  0.
<mgrwt>
<rscale>  0 0.25657353E+03</rscale>
<asrwt>0</asrwt>
<pdfrwt beam="1">  1        2 0.16867015E+00 0.25657353E+03</pdfrwt>
<pdfrwt beam="2">  1       -2 0.23093978E-02 0.25657353E+03</pdfrwt>
<totfact> 0.14279442E+04</totfact>
</mgrwt>
</event>
<event>
 4    1  0.1726503E-004  0.2536166E+03  0.7818608E-02  0.1111040E+00
         -2   -1    0    0    0  501 -0.00000000000E+00  0.00000000000E+00  0.13942956330E+03  0.13942956330E+03  0.00000000000E+00 0.  1.
          2   -1    0    0  501    0  0.00000000000E+00 -0.00000000000E+00 -0.11532956650E+03  0.11532956650E+03  0.00000000000E+00 0.  1.
         25    1    1    2    0    0 -0.28940590531E+02  0.41058639288E-02  0.41211677983E+02  0.13013823496E+03  0.12000000000E+03 0.  0.
         25    1    1    2    0    0  0.28940590531E+02 -0.41058639288E-02 -0.17111681188E+02  0.12462089484E+03  0.12000000000E+03 0.  0.
<mgrwt>
<rscale>  0 0.25361665E+03</rscale>
<asrwt>0</asrwt>
<pdfrwt beam="1">  1        2 0.17743010E-01 0.25361665E+03</pdfrwt>
<pdfrwt beam="2">  1       -2 0.21450702E-01 0.25361665E+03</pdfrwt>
<totfact> 0.58729481E+03</totfact>
</mgrwt>
</event>
<event>
 4    1  0.1726503E-004  0.2920310E+03  0.7818608E-02  0.1089293E+00
          2   -1    0    0  501    0  0.00000000000E+00  0.00000000000E+00  0.55864466726E+03  0.55864466726E+03  0.00000000000E+00 0. -1.
         -2   -1    0    0    0  501 -0.00000000000E+00 -0.00000000000E+00 -0.38164746109E+02  0.38164746109E+02  0.00000000000E+00 0. -1.
         25    1    1    2    0    0 -0.17056030089E+02 -0.72153967049E+02  0.33734353658E+03  0.36564704949E+03  0.12000000000E+03 0.  0.
         25    1    1    2    0    0  0.17056030089E+02  0.72153967049E+02  0.18313638456E+03  0.23116236388E+03  0.12000000000E+03 0.  0.
<mgrwt>
<rscale>  0 0.29203104E+03</rscale>
<asrwt>0</asrwt>
<pdfrwt beam="1">  1        2 0.85945327E-01 0.29203104E+03</pdfrwt>
<pdfrwt beam="2">  1       -2 0.58714998E-02 0.29203104E+03</pdfrwt>
<totfact> 0.83726501E+03</totfact>
</mgrwt>
</event>
<event>
 4    1  0.1726503E-004  0.4208788E+03  0.7818608E-02  0.1036781E+00
          2   -1    0    0  501    0  0.00000000000E+00  0.00000000000E+00  0.14640907718E+03  0.14640907718E+03  0.00000000000E+00 0. -1.
         -2   -1    0    0    0  501 -0.00000000000E+00 -0.00000000000E+00 -0.30247263525E+03  0.30247263525E+03  0.00000000000E+00 0. -1.
         25    1    1    2    0    0  0.75009350761E+02  0.15472083708E+03 -0.97104541715E+02  0.23107191987E+03  0.12000000000E+03 0.  0.
         25    1    1    2    0    0 -0.75009350761E+02 -0.15472083708E+03 -0.58959016358E+02  0.21780979257E+03  0.12000000000E+03 0.  0.
<mgrwt>
<rscale>  0 0.42087879E+03</rscale>
<asrwt>0</asrwt>
<pdfrwt beam="1">  1        2 0.22524474E-01 0.42087879E+03</pdfrwt>
<pdfrwt beam="2">  1       -2 0.46534251E-01 0.42087879E+03</pdfrwt>
<totfact> 0.10815947E+03</totfact>
</mgrwt>
</event>
<event>
 4    1  0.1726503E-004  0.3401237E+03  0.7818608E-02  0.1066743E+00
         -2   -1    0    0    0  501 -0.00000000000E+00  0.00000000000E+00  0.12445384597E+02  0.12445384597E+02  0.00000000000E+00 0.  1.
          2   -1    0    0  501    0  0.00000000000E+00 -0.00000000000E+00 -0.23238356186E+04  0.23238356186E+04  0.00000000000E+00 0.  1.
         25    1    1    2    0    0 -0.19589660193E+02 -0.42610997065E+02 -0.19181626434E+04  0.19224846887E+04  0.12000000000E+03 0.  0.
         25    1    1    2    0    0  0.19589660193E+02  0.42610997065E+02 -0.39322759060E+03  0.41379631446E+03  0.12000000000E+03 0.  0.
<mgrwt>
<rscale>  0 0.34012367E+03</rscale>
<asrwt>0</asrwt>
<pdfrwt beam="1">  1        2 0.35751289E+00 0.34012367E+03</pdfrwt>
<pdfrwt beam="2">  1       -2 0.19146761E-02 0.34012367E+03</pdfrwt>
<totfact> 0.41107811E+03</totfact>
</mgrwt>
</event>
<event>
 4    1  0.1726503E-004  0.2962496E+03  0.7818608E-02  0.1087131E+00
         -2   -1    0    0    0  501 -0.00000000000E+00  0.00000000000E+00  0.12655574472E+02  0.12655574472E+02  0.00000000000E+00 0. -1.
          2   -1    0    0  501    0  0.00000000000E+00 -0.00000000000E+00 -0.17336991472E+04  0.17336991472E+04  0.00000000000E+00 0. -1.
         25    1    1    2    0    0  0.56576269766E+02  0.54278486778E+02 -0.64043438246E+03  0.65627983868E+03  0.12000000000E+03 0.  0.
         25    1    1    2    0    0 -0.56576269766E+02 -0.54278486778E+02 -0.10806091902E+04  0.10900748830E+04  0.12000000000E+03 0.  0.
<mgrwt>
<rscale>  0 0.29624962E+03</rscale>
<asrwt>0</asrwt>
<pdfrwt beam="1">  1        2 0.26672306E+00 0.29624962E+03</pdfrwt>
<pdfrwt beam="2">  1       -2 0.19470106E-02 0.29624962E+03</pdfrwt>
<totfact> 0.82575995E+03</totfact>
</mgrwt>
</event>
<event>
 4    1  0.1726503E-004  0.2621208E+03  0.7818608E-02  0.1105876E+00
         -1   -1    0    0    0  501 -0.00000000000E+00  0.00000000000E+00  0.14890885112E+03  0.14890885112E+03  0.00000000000E+00 0. -1.
          1   -1    0    0  501    0  0.00000000000E+00 -0.00000000000E+00 -0.11535132020E+03  0.11535132020E+03  0.00000000000E+00 0. -1.
         25    1    1    2    0    0  0.29466380721E+02 -0.15926721723E+02  0.57791303376E+02  0.13733813310E+03  0.12000000000E+03 0.  0.
         25    1    1    2    0    0 -0.29466380721E+02  0.15926721723E+02 -0.24233772464E+02  0.12692203822E+03  0.12000000000E+03 0.  0.
<mgrwt>
<rscale>  0 0.26212083E+03</rscale>
<asrwt>0</asrwt>
<pdfrwt beam="1">  1        1 0.17746357E-01 0.26212083E+03</pdfrwt>
<pdfrwt beam="2">  1       -1 0.22909054E-01 0.26212083E+03</pdfrwt>
<totfact> 0.47669327E+03</totfact>
</mgrwt>
</event>
<event>
 4    1  0.1726503E-004  0.2862903E+03  0.7818608E-02  0.1092302E+00
          1   -1    0    0  501    0  0.00000000000E+00  0.00000000000E+00  0.32824610006E+03  0.32824610006E+03  0.00000000000E+00 0.  1.
         -1   -1    0    0    0  501 -0.00000000000E+00 -0.00000000000E+00 -0.62424283017E+02  0.62424283017E+02  0.00000000000E+00 0.  1.
         25    1    1    2    0    0  0.57073000023E+02 -0.18926236025E+02  0.65023172707E+02  0.14914269251E+03  0.12000000000E+03 0.  0.
         25    1    1    2    0    0 -0.57073000023E+02  0.18926236025E+02  0.20079864434E+03  0.24152769057E+03  0.12000000000E+03 0.  0.
<mgrwt>
<rscale>  0 0.28629025E+03</rscale>
<asrwt>0</asrwt>
<pdfrwt beam="1">  1        1 0.50499399E-01 0.28629025E+03</pdfrwt>
<pdfrwt beam="2">  1       -1 0.96037360E-02 0.28629025E+03</pdfrwt>
<totfact> 0.50495290E+03</totfact>
</mgrwt>
</event>
<event>
 4    1  0.1726503E-004  0.3509539E+03  0.7818608E-02  0.1062224E+00
          2   -1    0    0  501    0  0.00000000000E+00  0.00000000000E+00  0.31029477270E+03  0.31029477270E+03  0.00000000000E+00 0.  1.
         -2   -1    0    0    0  501 -0.00000000000E+00 -0.00000000000E+00 -0.99235165911E+02  0.99235165911E+02  0.00000000000E+00 0.  1.
         25    1    1    2    0    0  0.80562789128E+02 -0.53040463250E+02  0.20377533068E+03  0.25539780565E+03  0.12000000000E+03 0.  0.
         25    1    1    2    0    0 -0.80562789128E+02  0.53040463250E+02  0.72842761071E+01  0.15413213296E+03  0.12000000000E+03 0.  0.
<mgrwt>
<rscale>  0 0.35095386E+03</rscale>
<asrwt>0</asrwt>
<pdfrwt beam="1">  1        2 0.47737657E-01 0.35095386E+03</pdfrwt>
<pdfrwt beam="2">  1       -2 0.15266949E-01 0.35095386E+03</pdfrwt>
<totfact> 0.35156562E+03</totfact>
</mgrwt>
</event>
<event>
 4    1  0.1726503E-004  0.2704259E+03  0.7818608E-02  0.1101036E+00
         -1   -1    0    0    0  501 -0.00000000000E+00  0.00000000000E+00  0.30458563509E+03  0.30458563509E+03  0.00000000000E+00 0. -1.
          1   -1    0    0  501    0  0.00000000000E+00 -0.00000000000E+00 -0.60024316356E+02  0.60024316356E+02  0.00000000000E+00 0. -1.
         25    1    1    2    0    0 -0.61490783478E+02 -0.63891566713E+01  0.11178425211E+03  0.17526453376E+03  0.12000000000E+03 0.  0.
         25    1    1    2    0    0  0.61490783478E+02  0.63891566713E+01  0.13277706663E+03  0.18934541768E+03  0.12000000000E+03 0.  0.
<mgrwt>
<rscale>  0 0.27042592E+03</rscale>
<asrwt>0</asrwt>
<pdfrwt beam="1">  1        1 0.92345104E-02 0.27042592E+03</pdfrwt>
<pdfrwt beam="2">  1       -1 0.46859328E-01 0.27042592E+03</pdfrwt>
<totfact> 0.32957021E+03</totfact>
</mgrwt>
</event>
<event>
 4    1  0.1726503E-004  0.2708352E+03  0.7818608E-02  0.1100803E+00
          2   -1    0    0  501    0  0.00000000000E+00  0.00000000000E+00  0.16314291679E+04  0.16314291679E+04  0.00000000000E+00 0.  1.
         -2   -1    0    0    0  501 -0.00000000000E+00 -0.00000000000E+00 -0.11240406658E+02  0.11240406658E+02  0.00000000000E+00 0.  1.
         25    1    1    2    0    0  0.23438969691E+02  0.15760755330E+02  0.11499697085E+04  0.11565587392E+04  0.12000000000E+03 0.  0.
         25    1    1    2    0    0 -0.23438969691E+02 -0.15760755330E+02  0.47021905274E+03  0.48611083538E+03  0.12000000000E+03 0.  0.
<mgrwt>
<rscale>  0 0.27083521E+03</rscale>
<asrwt>0</asrwt>
<pdfrwt beam="1">  1        2 0.25098891E+00 0.27083521E+03</pdfrwt>
<pdfrwt beam="2">  1       -2 0.17292946E-02 0.27083521E+03</pdfrwt>
<totfact> 0.11116101E+04</totfact>
</mgrwt>
</event>
<event>
 4    1  0.1726503E-004  0.2446656E+03  0.7818608E-02  0.1116723E+00
         -2   -1    0    0    0  501 -0.00000000000E+00  0.00000000000E+00  0.11589552974E+02  0.11589552974E+02  0.00000000000E+00 0.  1.
          2   -1    0    0  501    0  0.00000000000E+00 -0.00000000000E+00 -0.12912761327E+04  0.12912761327E+04  0.00000000000E+00 0.  1.
         25    1    1    2    0    0 -0.10366477498E+02  0.24773442753E+01 -0.75302013560E+03  0.76259617473E+03  0.12000000000E+03 0.  0.
         25    1    1    2    0    0  0.10366477498E+02 -0.24773442753E+01 -0.52666644413E+03  0.54026951095E+03  0.12000000000E+03 0.  0.
<mgrwt>
<rscale>  0 0.24466559E+03</rscale>
<asrwt>0</asrwt>
<pdfrwt beam="1">  1        2 0.19865790E+00 0.24466559E+03</pdfrwt>
<pdfrwt beam="2">  1       -2 0.17830079E-02 0.24466559E+03</pdfrwt>
<totfact> 0.16152500E+04</totfact>
</mgrwt>
</event>
<event>
 4    1  0.1726503E-004  0.2566448E+03  0.7818608E-02  0.1109176E+00
          3   -1    0    0  501    0  0.00000000000E+00  0.00000000000E+00  0.26560607272E+03  0.26560607272E+03  0.00000000000E+00 0.  1.
         -3   -1    0    0    0  501 -0.00000000000E+00 -0.00000000000E+00 -0.61996486064E+02  0.61996486064E+02  0.00000000000E+00 0.  1.
         25    1    1    2    0    0 -0.31799957923E+02 -0.30388696576E+01  0.60517527986E+02  0.13814066471E+03  0.12000000000E+03 0.  0.
         25    1    1    2    0    0  0.31799957923E+02  0.30388696576E+01  0.14309205867E+03  0.18946189408E+03  0.12000000000E+03 0.  0.
<mgrwt>
<rscale>  0 0.25664484E+03</rscale>
<asrwt>0</asrwt>
<pdfrwt beam="1">  1        3 0.40862472E-01 0.25664484E+03</pdfrwt>
<pdfrwt beam="2">  1       -3 0.95379211E-02 0.25664484E+03</pdfrwt>
<totfact> 0.12007885E+03</totfact>
</mgrwt>
</event>
<event>
 4    1  0.1726503E-004  0.2527130E+03  0.7818608E-02  0.1111602E+00
         -1   -1    0    0    0  501 -0.00000000000E+00  0.00000000000E+00  0.15856393959E+02  0.15856393959E+02  0.00000000000E+00 0.  1.
          1   -1    0    0  501    0  0.00000000000E+00 -0.00000000000E+00 -0.10069100903E+04  0.10069100903E+04  0.00000000000E+00 0.  1.
         25    1    1    2    0    0  0.13985988370E+02  0.17980278576E+02 -0.62648595624E+03  0.63828171809E+03  0.12000000000E+03 0.  0.
         25    1    1    2    0    0 -0.13985988370E+02 -0.17980278576E+02 -0.36456774008E+03  0.38448476614E+03  0.12000000000E+03 0.  0.
<mgrwt>
<rscale>  0 0.25271298E+03</rscale>
<asrwt>0</asrwt>
<pdfrwt beam="1">  1        1 0.15490932E+00 0.25271298E+03</pdfrwt>
<pdfrwt beam="2">  1       -1 0.24394440E-02 0.25271298E+03</pdfrwt>
<totfact> 0.80587870E+03</totfact>
</mgrwt>
</event>
<event>
 4    1  0.1726503E-004  0.3061592E+03  0.7818608E-02  0.1082202E+00
         -2   -1    0    0    0  501 -0.00000000000E+00  0.00000000000E+00  0.89796243108E+01  0.89796243108E+01  0.00000000000E+00 0. -1.
          2   -1    0    0  501    0  0.00000000000E+00 -0.00000000000E+00 -0.26096147504E+04  0.26096147504E+04  0.00000000000E+00 0. -1.
         25    1    1    2    0    0  0.92853457209E+02 -0.76773764461E+00 -0.11269191593E+04  0.11370880113E+04  0.12000000000E+03 0.  0.
         25    1    1    2    0    0 -0.92853457209E+02  0.76773764461E+00 -0.14737159667E+04  0.14815063633E+04  0.12000000000E+03 0.  0.
<mgrwt>
<rscale>  0 0.30615917E+03</rscale>
<asrwt>0</asrwt>
<pdfrwt beam="1">  1        2 0.40147944E+00 0.30615917E+03</pdfrwt>
<pdfrwt beam="2">  1       -2 0.13814798E-02 0.30615917E+03</pdfrwt>
<totfact> 0.46375997E+03</totfact>
</mgrwt>
</event>
<event>
 4    1  0.1726503E-004  0.2640018E+03  0.7818608E-02  0.1104762E+00
          1   -1    0    0  501    0  0.00000000000E+00  0.00000000000E+00  0.25733344099E+03  0.25733344099E+03  0.00000000000E+00 0.  1.
         -1   -1    0    0    0  501 -0.00000000000E+00 -0.00000000000E+00 -0.67710732927E+02  0.67710732927E+02  0.00000000000E+00 0.  1.
         25    1    1    2    0    0 -0.93831984470E+01  0.31859783305E+02  0.14877678752E+03  0.19400418220E+03  0.12000000000E+03 0.  0.
         25    1    1    2    0    0  0.93831984470E+01 -0.31859783305E+02  0.40845920545E+02  0.13103999172E+03  0.12000000000E+03 0.  0.
<mgrwt>
<rscale>  0 0.26400179E+03</rscale>
<asrwt>0</asrwt>
<pdfrwt beam="1">  1        1 0.39589760E-01 0.26400179E+03</pdfrwt>
<pdfrwt beam="2">  1       -1 0.10417036E-01 0.26400179E+03</pdfrwt>
<totfact> 0.60317445E+03</totfact>
</mgrwt>
</event>
<event>
 4    1  0.1726503E-004  0.2791301E+03  0.7818608E-02  0.1096165E+00
         -2   -1    0    0    0  501 -0.00000000000E+00  0.00000000000E+00  0.49029025507E+02  0.49029025507E+02  0.00000000000E+00 0. -1.
          2   -1    0    0  501    0  0.00000000000E+00 -0.00000000000E+00 -0.39728319745E+03  0.39728319745E+03  0.00000000000E+00 0. -1.
         25    1    1    2    0    0 -0.65057389917E+02  0.29079744973E+02 -0.17323329351E+03  0.22245869174E+03  0.12000000000E+03 0.  0.
         25    1    1    2    0    0  0.65057389917E+02 -0.29079744973E+02 -0.17502087843E+03  0.22385353121E+03  0.12000000000E+03 0.  0.
<mgrwt>
<rscale>  0 0.27913013E+03</rscale>
<asrwt>0</asrwt>
<pdfrwt beam="1">  1        2 0.61120489E-01 0.27913013E+03</pdfrwt>
<pdfrwt beam="2">  1       -2 0.75429273E-02 0.27913013E+03</pdfrwt>
<totfact> 0.82920477E+03</totfact>
</mgrwt>
</event>
<event>
 4    1  0.1726503E-004  0.2593886E+03  0.7818608E-02  0.1107511E+00
          1   -1    0    0  501    0  0.00000000000E+00  0.00000000000E+00  0.24977771108E+03  0.24977771108E+03  0.00000000000E+00 0. -1.
         -1   -1    0    0    0  501 -0.00000000000E+00 -0.00000000000E+00 -0.67342302282E+02  0.67342302282E+02  0.00000000000E+00 0. -1.
         25    1    1    2    0    0 -0.35792839450E+02 -0.14212270145E+02  0.53784570295E+02  0.13702516550E+03  0.12000000000E+03 0.  0.
         25    1    1    2    0    0  0.35792839450E+02  0.14212270145E+02  0.12865083850E+03  0.18009484786E+03  0.12000000000E+03 0.  0.
<mgrwt>
<rscale>  0 0.25938856E+03</rscale>
<asrwt>0</asrwt>
<pdfrwt beam="1">  1        1 0.38427340E-01 0.25938856E+03</pdfrwt>
<pdfrwt beam="2">  1       -1 0.10360354E-01 0.25938856E+03</pdfrwt>
<totfact> 0.63104050E+03</totfact>
</mgrwt>
</event>
<event>
 4    1  0.1726503E-004  0.3957811E+03  0.7818608E-02  0.1045250E+00
         -1   -1    0    0    0  501 -0.00000000000E+00  0.00000000000E+00  0.11313877219E+03  0.11313877219E+03  0.00000000000E+00 0.  1.
          1   -1    0    0  501    0  0.00000000000E+00 -0.00000000000E+00 -0.34612950899E+03  0.34612950899E+03  0.00000000000E+00 0.  1.
         25    1    1    2    0    0 -0.12811161037E+03 -0.32909075560E+02 -0.17587353664E+02  0.17945725668E+03  0.12000000000E+03 0.  0.
         25    1    1    2    0    0  0.12811161037E+03  0.32909075560E+02 -0.21540338314E+03  0.27981102450E+03  0.12000000000E+03 0.  0.
<mgrwt>
<rscale>  0 0.39578109E+03</rscale>
<asrwt>0</asrwt>
<pdfrwt beam="1">  1        1 0.53250694E-01 0.39578109E+03</pdfrwt>
<pdfrwt beam="2">  1       -1 0.17405965E-01 0.39578109E+03</pdfrwt>
<totfact> 0.18549885E+03</totfact>
</mgrwt>
</event>
<event>
 4    1  0.1726503E-004  0.2737409E+03  0.7818608E-02  0.1099157E+00
         -2   -1    0    0    0  501 -0.00000000000E+00  0.00000000000E+00  0.21062277312E+03  0.21062277312E+03  0.00000000000E+00 0. -1.
          2   -1    0    0  501    0  0.00000000000E+00 -0.00000000000E+00 -0.88943493809E+02  0.88943493809E+02  0.00000000000E+00 0. -1.
         25    1    1    2    0    0 -0.20160197318E+02  0.45706238636E+02  0.13922704700E+02  0.13072618526E+03  0.12000000000E+03 0.  0.
         25    1    1    2    0    0  0.20160197318E+02 -0.45706238636E+02  0.10775657461E+03  0.16884008167E+03  0.12000000000E+03 0.  0.
<mgrwt>
<rscale>  0 0.27374094E+03</rscale>
<asrwt>0</asrwt>
<pdfrwt beam="1">  1        2 0.13683615E-01 0.27374094E+03</pdfrwt>
<pdfrwt beam="2">  1       -2 0.32403503E-01 0.27374094E+03</pdfrwt>
<totfact> 0.38404282E+03</totfact>
</mgrwt>
</event>
<event>
 4    1  0.1726503E-004  0.5860614E+03  0.7818608E-02  0.9934754E-01
         -2   -1    0    0    0  501 -0.00000000000E+00  0.00000000000E+00  0.31932678451E+02  0.31932678451E+02  0.00000000000E+00 0. -1.
          2   -1    0    0  501    0  0.00000000000E+00 -0.00000000000E+00 -0.26890005336E+04  0.26890005336E+04  0.00000000000E+00 0. -1.
         25    1    1    2    0    0 -0.16558353396E+03  0.20903994936E+03 -0.12415047905E+04  0.12754802044E+04  0.12000000000E+03 0.  0.
         25    1    1    2    0    0  0.16558353396E+03 -0.20903994936E+03 -0.14155630647E+04  0.14454530077E+04  0.12000000000E+03 0.  0.
<mgrwt>
<rscale>  0 0.58606139E+03</rscale>
<asrwt>0</asrwt>
<pdfrwt beam="1">  1        2 0.41369238E+00 0.58606139E+03</pdfrwt>
<pdfrwt beam="2">  1       -2 0.49127199E-02 0.58606139E+03</pdfrwt>
<totfact> 0.60640723E+02</totfact>
</mgrwt>
</event>
<event>
 4    1  0.1726503E-004  0.3050050E+03  0.7818608E-02  0.1082765E+00
         -2   -1    0    0    0  501 -0.00000000000E+00  0.00000000000E+00  0.31793992655E+02  0.31793992655E+02  0.00000000000E+00 0.  1.
          2   -1    0    0  501    0  0.00000000000E+00 -0.00000000000E+00 -0.73149057448E+03  0.73149057448E+03  0.00000000000E+00 0.  1.
         25    1    1    2    0    0 -0.61464173633E+02 -0.10409797501E+01 -0.52818027994E+03  0.54511772710E+03  0.12000000000E+03 0.  0.
         25    1    1    2    0    0  0.61464173633E+02  0.10409797501E+01 -0.17151630189E+03  0.21816684004E+03  0.12000000000E+03 0.  0.
<mgrwt>
<rscale>  0 0.30500496E+03</rscale>
<asrwt>0</asrwt>
<pdfrwt beam="1">  1        2 0.11253700E+00 0.30500496E+03</pdfrwt>
<pdfrwt beam="2">  1       -2 0.48913841E-02 0.30500496E+03</pdfrwt>
<totfact> 0.80480999E+03</totfact>
</mgrwt>
</event>
<event>
 4    1  0.1726503E-004  0.3361256E+03  0.7818608E-02  0.1068458E+00
          2   -1    0    0  501    0  0.00000000000E+00  0.00000000000E+00  0.42975416235E+03  0.42975416235E+03  0.00000000000E+00 0.  1.
         -2   -1    0    0    0  501 -0.00000000000E+00 -0.00000000000E+00 -0.65723873268E+02  0.65723873268E+02  0.00000000000E+00 0.  1.
         25    1    1    2    0    0  0.17484136938E+02 -0.93672880472E+02  0.80262586773E+02  0.17298088454E+03  0.12000000000E+03 0.  0.
         25    1    1    2    0    0 -0.17484136938E+02  0.93672880472E+02  0.28376770231E+03  0.32249715108E+03  0.12000000000E+03 0.  0.
<mgrwt>
<rscale>  0 0.33612562E+03</rscale>
<asrwt>0</asrwt>
<pdfrwt beam="1">  1        2 0.66116023E-01 0.33612562E+03</pdfrwt>
<pdfrwt beam="2">  1       -2 0.10111365E-01 0.33612562E+03</pdfrwt>
<totfact> 0.48194446E+03</totfact>
</mgrwt>
</event>
<event>
 4    1  0.1726503E-004  0.2663697E+03  0.7818608E-02  0.1103375E+00
          2   -1    0    0  501    0  0.00000000000E+00  0.00000000000E+00  0.51045790574E+03  0.51045790574E+03  0.00000000000E+00 0. -1.
         -2   -1    0    0    0  501 -0.00000000000E+00 -0.00000000000E+00 -0.34749604976E+02  0.34749604976E+02  0.00000000000E+00 0. -1.
         25    1    1    2    0    0  0.21159915614E+02 -0.49303872904E+02  0.28173402393E+03  0.31089013196E+03  0.12000000000E+03 0.  0.
         25    1    1    2    0    0 -0.21159915614E+02  0.49303872904E+02  0.19397427684E+03  0.23431737875E+03  0.12000000000E+03 0.  0.
<mgrwt>
<rscale>  0 0.26636975E+03</rscale>
<asrwt>0</asrwt>
<pdfrwt beam="1">  1        2 0.78531980E-01 0.26636975E+03</pdfrwt>
<pdfrwt beam="2">  1       -2 0.53460934E-02 0.26636975E+03</pdfrwt>
<totfact> 0.10666949E+04</totfact>
</mgrwt>
</event>
<event>
 4    1  0.1726503E-004  0.2790148E+03  0.7818608E-02  0.1096228E+00
          2   -1    0    0  501    0  0.00000000000E+00  0.00000000000E+00  0.97240114707E+03  0.97240114707E+03  0.00000000000E+00 0. -1.
         -2   -1    0    0    0  501 -0.00000000000E+00 -0.00000000000E+00 -0.20014703408E+02  0.20014703408E+02  0.00000000000E+00 0. -1.
         25    1    1    2    0    0  0.37572638518E+02 -0.20267097111E+02  0.27373768776E+03  0.30191849909E+03  0.12000000000E+03 0.  0.
         25    1    1    2    0    0 -0.37572638518E+02  0.20267097111E+02  0.67864875590E+03  0.69049735139E+03  0.12000000000E+03 0.  0.
<mgrwt>
<rscale>  0 0.27901484E+03</rscale>
<asrwt>0</asrwt>
<pdfrwt beam="1">  1        2 0.14960014E+00 0.27901484E+03</pdfrwt>
<pdfrwt beam="2">  1       -2 0.30791859E-02 0.27901484E+03</pdfrwt>
<totfact> 0.11105033E+04</totfact>
</mgrwt>
</event>
<event>
 4    1  0.1726503E-004  0.4649057E+03  0.7818608E-02  0.1023368E+00
         -3   -1    0    0    0  501 -0.00000000000E+00  0.00000000000E+00  0.60562509444E+02  0.60562509444E+02  0.00000000000E+00 0. -1.
          3   -1    0    0  501    0  0.00000000000E+00 -0.00000000000E+00 -0.89220754882E+03  0.89220754882E+03  0.00000000000E+00 0. -1.
         25    1    1    2    0    0 -0.18430373915E+03  0.44099870797E+02 -0.29079902152E+03  0.36725568448E+03  0.12000000000E+03 0.  0.
         25    1    1    2    0    0  0.18430373915E+03 -0.44099870797E+02 -0.54084601786E+03  0.58551437378E+03  0.12000000000E+03 0.  0.
<mgrwt>
<rscale>  0 0.46490570E+03</rscale>
<asrwt>0</asrwt>
<pdfrwt beam="1">  1        3 0.13726268E+00 0.46490570E+03</pdfrwt>
<pdfrwt beam="2">  1       -3 0.93173107E-02 0.46490570E+03</pdfrwt>
<totfact> 0.92059008E+01</totfact>
</mgrwt>
</event>
<event>
 4    1  0.1726503E-004  0.2525399E+03  0.7818608E-02  0.1111710E+00
         -1   -1    0    0    0  501 -0.00000000000E+00  0.00000000000E+00  0.98678555097E+01  0.98678555097E+01  0.00000000000E+00 0.  1.
          1   -1    0    0  501    0  0.00000000000E+00 -0.00000000000E+00 -0.16157610643E+04  0.16157610643E+04  0.00000000000E+00 0.  1.
         25    1    1    2    0    0  0.38782428241E+02 -0.43229160453E+01 -0.77321549681E+03  0.78344429850E+03  0.12000000000E+03 0.  0.
         25    1    1    2    0    0 -0.38782428241E+02  0.43229160453E+01 -0.83267771196E+03  0.84218462129E+03  0.12000000000E+03 0.  0.
<mgrwt>
<rscale>  0 0.25253987E+03</rscale>
<asrwt>0</asrwt>
<pdfrwt beam="1">  1        1 0.24857867E+00 0.25253987E+03</pdfrwt>
<pdfrwt beam="2">  1       -1 0.15181314E-02 0.25253987E+03</pdfrwt>
<totfact> 0.61479625E+03</totfact>
</mgrwt>
</event>
<event>
 4    1  0.1726503E-004  0.2738966E+03  0.7818608E-02  0.1099070E+00
         -1   -1    0    0    0  501 -0.00000000000E+00  0.00000000000E+00  0.11633556244E+02  0.11633556244E+02  0.00000000000E+00 0. -1.
          1   -1    0    0  501    0  0.00000000000E+00 -0.00000000000E+00 -0.16121333089E+04  0.16121333089E+04  0.00000000000E+00 0. -1.
         25    1    1    2    0    0 -0.22419394644E+02 -0.44034545646E+01 -0.11672755015E+04  0.11736499121E+04  0.12000000000E+03 0.  0.
         25    1    1    2    0    0  0.22419394644E+02  0.44034545646E+01 -0.43322425120E+03  0.45011695313E+03  0.12000000000E+03 0.  0.
<mgrwt>
<rscale>  0 0.27389665E+03</rscale>
<asrwt>0</asrwt>
<pdfrwt beam="1">  1        1 0.24802065E+00 0.27389665E+03</pdfrwt>
<pdfrwt beam="2">  1       -1 0.17897768E-02 0.27389665E+03</pdfrwt>
<totfact> 0.48682016E+03</totfact>
</mgrwt>
</event>
<event>
 4    1  0.1726503E-004  0.4428157E+03  0.7818608E-02  0.1029886E+00
          1   -1    0    0  501    0  0.00000000000E+00  0.00000000000E+00  0.15979556098E+04  0.15979556098E+04  0.00000000000E+00 0.  1.
         -1   -1    0    0    0  501 -0.00000000000E+00 -0.00000000000E+00 -0.30677598327E+02  0.30677598327E+02  0.00000000000E+00 0.  1.
         25    1    1    2    0    0  0.14209199364E+03  0.58763360849E+02  0.39828019432E+03  0.44347534365E+03  0.12000000000E+03 0.  0.
         25    1    1    2    0    0 -0.14209199364E+03 -0.58763360849E+02  0.11689978172E+04  0.11851578645E+04  0.12000000000E+03 0.  0.
<mgrwt>
<rscale>  0 0.44281572E+03</rscale>
<asrwt>0</asrwt>
<pdfrwt beam="1">  1        1 0.24583926E+00 0.44281572E+03</pdfrwt>
<pdfrwt beam="2">  1       -1 0.47196318E-02 0.44281572E+03</pdfrwt>
<totfact> 0.11729352E+03</totfact>
</mgrwt>
</event>
<event>
 4    1  0.1726503E-004  0.2840908E+03  0.7818608E-02  0.1093475E+00
         -2   -1    0    0    0  501 -0.00000000000E+00  0.00000000000E+00  0.68228407787E+02  0.68228407787E+02  0.00000000000E+00 0.  1.
          2   -1    0    0  501    0  0.00000000000E+00 -0.00000000000E+00 -0.29572568424E+03  0.29572568424E+03  0.00000000000E+00 0.  1.
         25    1    1    2    0    0 -0.19547118034E+02  0.20677583542E+02 -0.20404017710E+03  0.23841570031E+03  0.12000000000E+03 0.  0.
         25    1    1    2    0    0  0.19547118034E+02 -0.20677583542E+02 -0.23457099355E+02  0.12553839172E+03  0.12000000000E+03 0.  0.
<mgrwt>
<rscale>  0 0.28409078E+03</rscale>
<asrwt>0</asrwt>
<pdfrwt beam="1">  1        2 0.45496260E-01 0.28409078E+03</pdfrwt>
<pdfrwt beam="2">  1       -2 0.10496678E-01 0.28409078E+03</pdfrwt>
<totfact> 0.67799952E+03</totfact>
</mgrwt>
</event>
<event>
 4    1  0.1726503E-004  0.3348527E+03  0.7818608E-02  0.1069010E+00
          2   -1    0    0  501    0  0.00000000000E+00  0.00000000000E+00  0.10434221472E+03  0.10434221472E+03  0.00000000000E+00 0.  1.
         -2   -1    0    0    0  501 -0.00000000000E+00 -0.00000000000E+00 -0.26865037191E+03  0.26865037191E+03  0.00000000000E+00 0.  1.
         25    1    1    2    0    0  0.19469480204E+02  0.11117502434E+03 -0.11543395709E+03  0.20115651902E+03  0.12000000000E+03 0.  0.
         25    1    1    2    0    0 -0.19469480204E+02 -0.11117502434E+03 -0.48874200097E+02  0.17183606761E+03  0.12000000000E+03 0.  0.
<mgrwt>
<rscale>  0 0.33485265E+03</rscale>
<asrwt>0</asrwt>
<pdfrwt beam="1">  1        2 0.16052649E-01 0.33485265E+03</pdfrwt>
<pdfrwt beam="2">  1       -2 0.41330825E-01 0.33485265E+03</pdfrwt>
<totfact> 0.20177794E+03</totfact>
</mgrwt>
</event>
<event>
 4    1  0.1726503E-004  0.3389420E+03  0.7818608E-02  0.1067247E+00
         -2   -1    0    0    0  501 -0.00000000000E+00  0.00000000000E+00  0.61979869306E+02  0.61979869306E+02  0.00000000000E+00 0.  1.
          2   -1    0    0  501    0  0.00000000000E+00 -0.00000000000E+00 -0.46338291964E+03  0.46338291964E+03  0.00000000000E+00 0.  1.
         25    1    1    2    0    0 -0.84299956418E+02 -0.61137337719E+02 -0.29208835423E+03  0.33250543363E+03  0.12000000000E+03 0.  0.
         25    1    1    2    0    0  0.84299956418E+02  0.61137337719E+02 -0.10931469610E+03  0.19285735531E+03  0.12000000000E+03 0.  0.
<mgrwt>
<rscale>  0 0.33894196E+03</rscale>
<asrwt>0</asrwt>
<pdfrwt beam="1">  1        2 0.71289679E-01 0.33894196E+03</pdfrwt>
<pdfrwt beam="2">  1       -2 0.95353647E-02 0.33894196E+03</pdfrwt>
<totfact> 0.48691163E+03</totfact>
</mgrwt>
</event>
<event>
 4    1  0.1726503E-004  0.3359141E+03  0.7818608E-02  0.1068550E+00
         -2   -1    0    0    0  501 -0.00000000000E+00  0.00000000000E+00  0.98071342002E+02  0.98071342002E+02  0.00000000000E+00 0.  1.
          2   -1    0    0  501    0  0.00000000000E+00 -0.00000000000E+00 -0.28764339040E+03  0.28764339040E+03  0.00000000000E+00 0.  1.
         25    1    1    2    0    0 -0.26311801112E+02  0.10446259703E+03 -0.40869069336E+02  0.16635812539E+03  0.12000000000E+03 0.  0.
         25    1    1    2    0    0  0.26311801112E+02 -0.10446259703E+03 -0.14870297906E+03  0.21935660701E+03  0.12000000000E+03 0.  0.
<mgrwt>
<rscale>  0 0.33591412E+03</rscale>
<asrwt>0</asrwt>
<pdfrwt beam="1">  1        2 0.44252828E-01 0.33591412E+03</pdfrwt>
<pdfrwt beam="2">  1       -2 0.15087899E-01 0.33591412E+03</pdfrwt>
<totfact> 0.38887169E+03</totfact>
</mgrwt>
</event>
<event>
 4    1  0.1726503E-004  0.3485099E+03  0.7818608E-02  0.1063228E+00
         -1   -1    0    0    0  501 -0.00000000000E+00  0.00000000000E+00  0.20530318509E+03  0.20530318509E+03  0.00000000000E+00 0.  1.
          1   -1    0    0  501    0  0.00000000000E+00 -0.00000000000E+00 -0.14790216389E+03  0.14790216389E+03  0.00000000000E+00 0.  1.
         25    1    1    2    0    0  0.68291989797E+02  0.10622430128E+03  0.32926495419E+02  0.17728945866E+03  0.12000000000E+03 0.  0.
         25    1    1    2    0    0 -0.68291989797E+02 -0.10622430128E+03  0.24474525784E+02  0.17591589031E+03  0.12000000000E+03 0.  0.
<mgrwt>
<rscale>  0 0.34850989E+03</rscale>
<asrwt>0</asrwt>
<pdfrwt beam="1">  1        1 0.22754179E-01 0.34850989E+03</pdfrwt>
<pdfrwt beam="2">  1       -1 0.31585105E-01 0.34850989E+03</pdfrwt>
<totfact> 0.20267489E+03</totfact>
</mgrwt>
</event>
<event>
 4    1  0.1726503E-004  0.2634867E+03  0.7818608E-02  0.1105066E+00
         -2   -1    0    0    0  501 -0.00000000000E+00  0.00000000000E+00  0.84322376206E+02  0.84322376206E+02  0.00000000000E+00 0. -1.
          2   -1    0    0  501    0  0.00000000000E+00 -0.00000000000E+00 -0.20583273076E+03  0.20583273076E+03  0.00000000000E+00 0. -1.
         25    1    1    2    0    0 -0.37675675453E+02 -0.29747208754E+02 -0.88872851899E+02  0.15685259562E+03  0.12000000000E+03 0.  0.
         25    1    1    2    0    0  0.37675675453E+02  0.29747208754E+02 -0.32637502651E+02  0.13330251134E+03  0.12000000000E+03 0.  0.
<mgrwt>
<rscale>  0 0.26348666E+03</rscale>
<asrwt>0</asrwt>
<pdfrwt beam="1">  1        2 0.31666574E-01 0.26348666E+03</pdfrwt>
<pdfrwt beam="2">  1       -2 0.12972673E-01 0.26348666E+03</pdfrwt>
<totfact> 0.71138925E+03</totfact>
</mgrwt>
</event>
<event>
 4    1  0.1726503E-004  0.3305467E+03  0.7818608E-02  0.1070895E+00
         -1   -1    0    0    0  501 -0.00000000000E+00  0.00000000000E+00  0.12266526762E+02  0.12266526762E+02  0.00000000000E+00 0.  1.
          1   -1    0    0  501    0  0.00000000000E+00 -0.00000000000E+00 -0.22268148264E+04  0.22268148264E+04  0.00000000000E+00 0.  1.
         25    1    1    2    0    0  0.85513133728E+02  0.72089585165E+02 -0.97080468489E+03  0.98456647339E+03  0.12000000000E+03 0.  0.
         25    1    1    2    0    0 -0.85513133728E+02 -0.72089585165E+02 -0.12437436148E+04  0.12545148798E+04  0.12000000000E+03 0.  0.
<mgrwt>
<rscale>  0 0.33054672E+03</rscale>
<asrwt>0</asrwt>
<pdfrwt beam="1">  1        1 0.34258671E+00 0.33054672E+03</pdfrwt>
<pdfrwt beam="2">  1       -1 0.18871590E-02 0.33054672E+03</pdfrwt>
<totfact> 0.17855250E+03</totfact>
</mgrwt>
</event>
<event>
 4    1  0.1726503E-004  0.3680951E+03  0.7818608E-02  0.1055424E+00
          2   -1    0    0  501    0  0.00000000000E+00  0.00000000000E+00  0.76812847851E+02  0.76812847851E+02  0.00000000000E+00 0. -1.
         -2   -1    0    0    0  501 -0.00000000000E+00 -0.00000000000E+00 -0.44098749100E+03  0.44098749100E+03  0.00000000000E+00 0. -1.
         25    1    1    2    0    0  0.31604867141E+02 -0.19278674438E+02 -0.37135531741E+03  0.39201442152E+03  0.12000000000E+03 0.  0.
         25    1    1    2    0    0 -0.31604867141E+02  0.19278674438E+02  0.71806742586E+01  0.12578591733E+03  0.12000000000E+03 0.  0.
<mgrwt>
<rscale>  0 0.36809512E+03</rscale>
<asrwt>0</asrwt>
<pdfrwt beam="1">  1        2 0.11817361E-01 0.36809512E+03</pdfrwt>
<pdfrwt beam="2">  1       -2 0.67844229E-01 0.36809512E+03</pdfrwt>
<totfact> 0.10686940E+03</totfact>
</mgrwt>
</event>
<event>
 4    1  0.1726503E-004  0.2793694E+03  0.7818608E-02  0.1096034E+00
         -1   -1    0    0    0  501 -0.00000000000E+00  0.00000000000E+00  0.81658013028E+03  0.81658013028E+03  0.00000000000E+00 0.  1.
          1   -1    0    0  501    0  0.00000000000E+00 -0.00000000000E+00 -0.23894552863E+02  0.23894552863E+02  0.00000000000E+00 0.  1.
         25    1    1    2    0    0 -0.98549987195E+00 -0.60767562399E+02  0.28304883040E+03  0.31338523935E+03  0.12000000000E+03 0.  0.
         25    1    1    2    0    0  0.98549987195E+00  0.60767562399E+02  0.50963674701E+03  0.52708944379E+03  0.12000000000E+03 0.  0.
<mgrwt>
<rscale>  0 0.27936941E+03</rscale>
<asrwt>0</asrwt>
<pdfrwt beam="1">  1        1 0.36760857E-02 0.27936941E+03</pdfrwt>
<pdfrwt beam="2">  1       -1 0.12562769E+00 0.27936941E+03</pdfrwt>
<totfact> 0.15155127E+03</totfact>
</mgrwt>
</event>
<event>
 4    1  0.1726503E-004  0.3615753E+03  0.7818608E-02  0.1057962E+00
          2   -1    0    0  501    0  0.00000000000E+00  0.00000000000E+00  0.35235394760E+03  0.35235394760E+03  0.00000000000E+00 0.  1.
         -2   -1    0    0    0  501 -0.00000000000E+00 -0.00000000000E+00 -0.92759494976E+02  0.92759494976E+02  0.00000000000E+00 0.  1.
         25    1    1    2    0    0 -0.11413768237E+03 -0.15273259317E+02  0.42545348790E+02  0.17167058481E+03  0.12000000000E+03 0.  0.
         25    1    1    2    0    0  0.11413768237E+03  0.15273259317E+02  0.21704910384E+03  0.27344285777E+03  0.12000000000E+03 0.  0.
<mgrwt>
<rscale>  0 0.36157530E+03</rscale>
<asrwt>0</asrwt>
<pdfrwt beam="1">  1        2 0.54208299E-01 0.36157530E+03</pdfrwt>
<pdfrwt beam="2">  1       -2 0.14270692E-01 0.36157530E+03</pdfrwt>
<totfact> 0.34266870E+03</totfact>
</mgrwt>
</event>
<event>
 4    1  0.1726503E-004  0.4039713E+03  0.7818608E-02  0.1042413E+00
          2   -1    0    0  501    0  0.00000000000E+00  0.00000000000E+00  0.18604438779E+04  0.18604438779E+04  0.00000000000E+00 0. -1.
         -2   -1    0    0    0  501 -0.00000000000E+00 -0.00000000000E+00 -0.21929280854E+02  0.21929280854E+02  0.00000000000E+00 0. -1.
         25    1    1    2    0    0 -0.14027299902E+03  0.78501603347E+02  0.10294445087E+04  0.10488064705E+04  0.12000000000E+03 0.  0.
         25    1    1    2    0    0  0.14027299902E+03 -0.78501603347E+02  0.80907008830E+03  0.83356668826E+03  0.12000000000E+03 0.  0.
<mgrwt>
<rscale>  0 0.40397127E+03</rscale>
<asrwt>0</asrwt>
<pdfrwt beam="1">  1        2 0.28622201E+00 0.40397127E+03</pdfrwt>
<pdfrwt beam="2">  1       -2 0.33737370E-02 0.40397127E+03</pdfrwt>
<totfact> 0.31139326E+03</totfact>
</mgrwt>
</event>
<event>
 4    1  0.1726503E-004  0.3734118E+03  0.7818608E-02  0.1053396E+00
         -1   -1    0    0    0  501 -0.00000000000E+00  0.00000000000E+00  0.14754750827E+04  0.14754750827E+04  0.00000000000E+00 0.  1.
          1   -1    0    0  501    0  0.00000000000E+00 -0.00000000000E+00 -0.23625675396E+02  0.23625675396E+02  0.00000000000E+00 0.  1.
         25    1    1    2    0    0  0.59015764001E+01  0.13833900393E+03  0.86992464282E+03  0.88901146944E+03  0.12000000000E+03 0.  0.
         25    1    1    2    0    0 -0.59015764001E+01 -0.13833900393E+03  0.58192476450E+03  0.61008928867E+03  0.12000000000E+03 0.  0.
<mgrwt>
<rscale>  0 0.37341181E+03</rscale>
<asrwt>0</asrwt>
<pdfrwt beam="1">  1        1 0.36347204E-02 0.37341181E+03</pdfrwt>
<pdfrwt beam="2">  1       -1 0.22699609E+00 0.37341181E+03</pdfrwt>
<totfact> 0.28798054E+02</totfact>
</mgrwt>
</event>
<event>
 4    1  0.1726503E-004  0.2733997E+03  0.7818608E-02  0.1099350E+00
         -1   -1    0    0    0  501 -0.00000000000E+00  0.00000000000E+00  0.44593460701E+03  0.44593460701E+03  0.00000000000E+00 0.  1.
          1   -1    0    0  501    0  0.00000000000E+00 -0.00000000000E+00 -0.41904895825E+02  0.41904895825E+02  0.00000000000E+00 0.  1.
         25    1    1    2    0    0  0.72273865931E+01 -0.63206058951E+02  0.17439480688E+03  0.22104476848E+03  0.12000000000E+03 0.  0.
         25    1    1    2    0    0 -0.72273865931E+01  0.63206058951E+02  0.22963490431E+03  0.26679473436E+03  0.12000000000E+03 0.  0.
<mgrwt>
<rscale>  0 0.27339966E+03</rscale>
<asrwt>0</asrwt>
<pdfrwt beam="1">  1        1 0.64469073E-02 0.27339966E+03</pdfrwt>
<pdfrwt beam="2">  1       -1 0.68605321E-01 0.27339966E+03</pdfrwt>
<totfact> 0.26046800E+03</totfact>
</mgrwt>
</event>
<event>
 4    1  0.1726503E-004  0.2599329E+03  0.7818608E-02  0.1107184E+00
          3   -1    0    0  501    0  0.00000000000E+00  0.00000000000E+00  0.22470018670E+02  0.22470018670E+02  0.00000000000E+00 0. -1.
         -3   -1    0    0    0  501 -0.00000000000E+00 -0.00000000000E+00 -0.75172504735E+03  0.75172504735E+03  0.00000000000E+00 0. -1.
         25    1    1    2    0    0  0.29732701672E+02  0.20484312817E+02 -0.46727083934E+03  0.48378267633E+03  0.12000000000E+03 0.  0.
         25    1    1    2    0    0 -0.29732701672E+02 -0.20484312817E+02 -0.26198418934E+03  0.29041238969E+03  0.12000000000E+03 0.  0.
<mgrwt>
<rscale>  0 0.25993288E+03</rscale>
<asrwt>0</asrwt>
<pdfrwt beam="1">  1        3 0.34569260E-02 0.25993288E+03</pdfrwt>
<pdfrwt beam="2">  1       -3 0.11565000E+00 0.25993288E+03</pdfrwt>
<totfact> 0.66478579E+02</totfact>
</mgrwt>
</event>
<event>
 4    1  0.1726503E-004  0.2748331E+03  0.7818608E-02  0.1098545E+00
         -1   -1    0    0    0  501 -0.00000000000E+00  0.00000000000E+00  0.76754834682E+02  0.76754834682E+02  0.00000000000E+00 0. -1.
          1   -1    0    0  501    0  0.00000000000E+00 -0.00000000000E+00 -0.24602111531E+03  0.24602111531E+03  0.00000000000E+00 0. -1.
         25    1    1    2    0    0 -0.71871339477E+01 -0.17325255219E+02 -0.91438228425E+01  0.12180077528E+03  0.12000000000E+03 0.  0.
         25    1    1    2    0    0  0.71871339477E+01  0.17325255219E+02 -0.16012245778E+03  0.20097517471E+03  0.12000000000E+03 0.  0.
<mgrwt>
<rscale>  0 0.27483311E+03</rscale>
<asrwt>0</asrwt>
<pdfrwt beam="1">  1        1 0.37849402E-01 0.27483311E+03</pdfrwt>
<pdfrwt beam="2">  1       -1 0.11808436E-01 0.27483311E+03</pdfrwt>
<totfact> 0.52592870E+03</totfact>
</mgrwt>
</event>
<event>
 4    1  0.1726503E-004  0.2518235E+03  0.7818608E-02  0.1112158E+00
         -3   -1    0    0    0  501 -0.00000000000E+00  0.00000000000E+00  0.11996879090E+04  0.11996879090E+04  0.00000000000E+00 0. -1.
          3   -1    0    0  501    0  0.00000000000E+00 -0.00000000000E+00 -0.13214908106E+02  0.13214908106E+02  0.00000000000E+00 0. -1.
         25    1    1    2    0    0  0.83710768124E+00  0.37966839112E+02  0.60962941974E+03  0.62248711716E+03  0.12000000000E+03 0.  0.
         25    1    1    2    0    0 -0.83710768124E+00 -0.37966839112E+02  0.57684358120E+03  0.59041569999E+03  0.12000000000E+03 0.  0.
<mgrwt>
<rscale>  0 0.25182347E+03</rscale>
<asrwt>0</asrwt>
<pdfrwt beam="1">  1        3 0.20330637E-02 0.25182347E+03</pdfrwt>
<pdfrwt beam="2">  1       -3 0.18456728E+00 0.25182347E+03</pdfrwt>
<totfact> 0.46508699E+02</totfact>
</mgrwt>
</event>
<event>
 4    1  0.1726503E-004  0.3570769E+03  0.7818608E-02  0.1059747E+00
         -2   -1    0    0    0  501 -0.00000000000E+00  0.00000000000E+00  0.47577402842E+02  0.47577402842E+02  0.00000000000E+00 0.  1.
          2   -1    0    0  501    0  0.00000000000E+00 -0.00000000000E+00 -0.66998148655E+03  0.66998148655E+03  0.00000000000E+00 0.  1.
         25    1    1    2    0    0  0.52329962774E+02  0.81236293613E+02 -0.49248645477E+03  0.51602390307E+03  0.12000000000E+03 0.  0.
         25    1    1    2    0    0 -0.52329962774E+02 -0.81236293613E+02 -0.12991762894E+03  0.20153498632E+03  0.12000000000E+03 0.  0.
<mgrwt>
<rscale>  0 0.35707691E+03</rscale>
<asrwt>0</asrwt>
<pdfrwt beam="1">  1        2 0.10307407E+00 0.35707691E+03</pdfrwt>
<pdfrwt beam="2">  1       -2 0.73196011E-02 0.35707691E+03</pdfrwt>
<totfact> 0.48300928E+03</totfact>
</mgrwt>
</event>
<event>
 4    1  0.1726503E-004  0.2598675E+03  0.7818608E-02  0.1107223E+00
         -2   -1    0    0    0  501 -0.00000000000E+00  0.00000000000E+00  0.41470209239E+03  0.41470209239E+03  0.00000000000E+00 0.  1.
          2   -1    0    0  501    0  0.00000000000E+00 -0.00000000000E+00 -0.40710627160E+02  0.40710627160E+02  0.00000000000E+00 0.  1.
         25    1    1    2    0    0  0.34295521896E+02 -0.11815402446E+02  0.12712869339E+03  0.17854268744E+03  0.12000000000E+03 0.  0.
         25    1    1    2    0    0 -0.34295521896E+02  0.11815402446E+02  0.24686277184E+03  0.27687003211E+03  0.12000000000E+03 0.  0.
<mgrwt>
<rscale>  0 0.25986752E+03</rscale>
<asrwt>0</asrwt>
<pdfrwt beam="1">  1        2 0.62631737E-02 0.25986752E+03</pdfrwt>
<pdfrwt beam="2">  1       -2 0.63800319E-01 0.25986752E+03</pdfrwt>
<totfact> 0.26994963E+03</totfact>
</mgrwt>
</event>
<event>
 4    1  0.1726503E-004  0.3090245E+03  0.7818608E-02  0.1080814E+00
          3   -1    0    0  501    0  0.00000000000E+00  0.00000000000E+00  0.51028217941E+02  0.51028217941E+02  0.00000000000E+00 0.  1.
         -3   -1    0    0    0  501 -0.00000000000E+00 -0.00000000000E+00 -0.46785960694E+03  0.46785960694E+03  0.00000000000E+00 0.  1.
         25    1    1    2    0    0 -0.91637892685E+02 -0.26755705532E+02 -0.17652705281E+03  0.23382722580E+03  0.12000000000E+03 0.  0.
         25    1    1    2    0    0  0.91637892685E+02  0.26755705532E+02 -0.24030433619E+03  0.28506059908E+03  0.12000000000E+03 0.  0.
<mgrwt>
<rscale>  0 0.30902454E+03</rscale>
<asrwt>0</asrwt>
<pdfrwt beam="1">  1        3 0.78504952E-02 0.30902454E+03</pdfrwt>
<pdfrwt beam="2">  1       -3 0.71978400E-01 0.30902454E+03</pdfrwt>
<totfact> 0.52907866E+02</totfact>
</mgrwt>
</event>
<event>
 4    1  0.1726503E-004  0.2519875E+03  0.7818608E-02  0.1112055E+00
         -2   -1    0    0    0  501 -0.00000000000E+00  0.00000000000E+00  0.21046769140E+02  0.21046769140E+02  0.00000000000E+00 0. -1.
          2   -1    0    0  501    0  0.00000000000E+00 -0.00000000000E+00 -0.75424518022E+03  0.75424518022E+03  0.00000000000E+00 0. -1.
         25    1    1    2    0    0 -0.22038228854E+02 -0.30050373588E+02 -0.33811418915E+03  0.36070751779E+03  0.12000000000E+03 0.  0.
         25    1    1    2    0    0  0.22038228854E+02  0.30050373588E+02 -0.39508422193E+03  0.41458443157E+03  0.12000000000E+03 0.  0.
<mgrwt>
<rscale>  0 0.25198749E+03</rscale>
<asrwt>0</asrwt>
<pdfrwt beam="1">  1        2 0.11603769E+00 0.25198749E+03</pdfrwt>
<pdfrwt beam="2">  1       -2 0.32379654E-02 0.25198749E+03</pdfrwt>
<totfact> 0.14319408E+04</totfact>
</mgrwt>
</event>
<event>
 4    1  0.1726503E-004  0.3239968E+03  0.7818608E-02  0.1073824E+00
          2   -1    0    0  501    0  0.00000000000E+00  0.00000000000E+00  0.47397538500E+03  0.47397538500E+03  0.00000000000E+00 0. -1.
         -2   -1    0    0    0  501 -0.00000000000E+00 -0.00000000000E+00 -0.55368859747E+02  0.55368859747E+02  0.00000000000E+00 0. -1.
         25    1    1    2    0    0  0.37223116716E+02  0.32872907305E+02  0.36751407008E+03  0.38978555663E+03  0.12000000000E+03 0.  0.
         25    1    1    2    0    0 -0.37223116716E+02 -0.32872907305E+02  0.51092455175E+02  0.13955868812E+03  0.12000000000E+03 0.  0.
<mgrwt>
<rscale>  0 0.32399677E+03</rscale>
<asrwt>0</asrwt>
<pdfrwt beam="1">  1        2 0.72919287E-01 0.32399677E+03</pdfrwt>
<pdfrwt beam="2">  1       -2 0.85182864E-02 0.32399677E+03</pdfrwt>
<totfact> 0.56701425E+03</totfact>
</mgrwt>
</event>
<event>
 4    1  0.1726503E-004  0.2492180E+03  0.7818608E-02  0.1113800E+00
         -1   -1    0    0    0  501 -0.00000000000E+00  0.00000000000E+00  0.11128677033E+03  0.11128677033E+03  0.00000000000E+00 0. -1.
          1   -1    0    0  501    0  0.00000000000E+00 -0.00000000000E+00 -0.13952603418E+03  0.13952603418E+03  0.00000000000E+00 0. -1.
         25    1    1    2    0    0 -0.27289652371E+02  0.96021450496E+01 -0.31272035894E+02  0.12733760853E+03  0.12000000000E+03 0.  0.
         25    1    1    2    0    0  0.27289652371E+02 -0.96021450496E+01  0.30327720416E+01  0.12347519598E+03  0.12000000000E+03 0.  0.
<mgrwt>
<rscale>  0 0.24921799E+03</rscale>
<asrwt>0</asrwt>
<pdfrwt beam="1">  1        1 0.21465544E-01 0.24921799E+03</pdfrwt>
<pdfrwt beam="2">  1       -1 0.17121042E-01 0.24921799E+03</pdfrwt>
<totfact> 0.59722184E+03</totfact>
</mgrwt>
</event>
<event>
 4    1  0.1726503E-004  0.2856303E+03  0.7818608E-02  0.1092653E+00
          4   -1    0    0  501    0  0.00000000000E+00  0.00000000000E+00  0.53365962889E+02  0.53365962889E+02  0.00000000000E+00 0.  1.
         -4   -1    0    0    0  501 -0.00000000000E+00 -0.00000000000E+00 -0.38219434506E+03  0.38219434506E+03  0.00000000000E+00 0.  1.
         25    1    1    2    0    0 -0.34205280124E+02 -0.55986245545E+02 -0.22713429141E+03  0.26513100010E+03  0.12000000000E+03 0.  0.
         25    1    1    2    0    0  0.34205280124E+02  0.55986245545E+02 -0.10169409076E+03  0.17042930785E+03  0.12000000000E+03 0.  0.
<mgrwt>
<rscale>  0 0.28563032E+03</rscale>
<asrwt>0</asrwt>
<pdfrwt beam="1">  1        4 0.82101483E-02 0.28563032E+03</pdfrwt>
<pdfrwt beam="2">  1       -4 0.58799129E-01 0.28563032E+03</pdfrwt>
<totfact> 0.55123780E+02</totfact>
</mgrwt>
</event>
<event>
 4    1  0.1726503E-004  0.2439602E+03  0.7818608E-02  0.1117182E+00
          1   -1    0    0  501    0  0.00000000000E+00  0.00000000000E+00  0.39477634663E+03  0.39477634663E+03  0.00000000000E+00 0.  1.
         -1   -1    0    0    0  501 -0.00000000000E+00 -0.00000000000E+00 -0.37690076315E+02  0.37690076315E+02  0.00000000000E+00 0.  1.
         25    1    1    2    0    0 -0.10010573519E+02 -0.13968067620E+02  0.20257813066E+03  0.23607883751E+03  0.12000000000E+03 0.  0.
         25    1    1    2    0    0  0.10010573519E+02  0.13968067620E+02  0.15450813965E+03  0.19638758544E+03  0.12000000000E+03 0.  0.
<mgrwt>
<rscale>  0 0.24396025E+03</rscale>
<asrwt>0</asrwt>
<pdfrwt beam="1">  1        1 0.60734820E-01 0.24396025E+03</pdfrwt>
<pdfrwt beam="2">  1       -1 0.57984735E-02 0.24396025E+03</pdfrwt>
<totfact> 0.85606999E+03</totfact>
</mgrwt>
</event>
<event>
 4    1  0.1726503E-004  0.2917613E+03  0.7818608E-02  0.1089433E+00
         -1   -1    0    0    0  501 -0.00000000000E+00  0.00000000000E+00  0.19310082481E+02  0.19310082481E+02  0.00000000000E+00 0.  1.
          1   -1    0    0  501    0  0.00000000000E+00 -0.00000000000E+00 -0.11020754249E+04  0.11020754249E+04  0.00000000000E+00 0.  1.
         25    1    1    2    0    0 -0.56227507283E+02 -0.37680511566E+02 -0.72570313746E+03  0.73866528093E+03  0.12000000000E+03 0.  0.
         25    1    1    2    0    0  0.56227507283E+02  0.37680511566E+02 -0.35706220496E+03  0.38272022646E+03  0.12000000000E+03 0.  0.
<mgrwt>
<rscale>  0 0.29176132E+03</rscale>
<asrwt>0</asrwt>
<pdfrwt beam="1">  1        1 0.16955003E+00 0.29176132E+03</pdfrwt>
<pdfrwt beam="2">  1       -1 0.29707825E-02 0.29176132E+03</pdfrwt>
<totfact> 0.51515786E+03</totfact>
</mgrwt>
</event>
<event>
 4    1  0.1726503E-004  0.3735494E+03  0.7818608E-02  0.1053344E+00
          4   -1    0    0  501    0  0.00000000000E+00  0.00000000000E+00  0.30903745836E+03  0.30903745836E+03  0.00000000000E+00 0. -1.
         -4   -1    0    0    0  501 -0.00000000000E+00 -0.00000000000E+00 -0.11288208465E+03  0.11288208465E+03  0.00000000000E+00 0. -1.
         25    1    1    2    0    0 -0.96174802823E+02  0.34177742799E+02 -0.15249307729E+02  0.15827271460E+03  0.12000000000E+03 0.  0.
         25    1    1    2    0    0  0.96174802823E+02 -0.34177742799E+02  0.21140468144E+03  0.26364682842E+03  0.12000000000E+03 0.  0.
<mgrwt>
<rscale>  0 0.37354942E+03</rscale>
<asrwt>0</asrwt>
<pdfrwt beam="1">  1        4 0.47544224E-01 0.37354942E+03</pdfrwt>
<pdfrwt beam="2">  1       -4 0.17366475E-01 0.37354942E+03</pdfrwt>
<totfact> 0.24163528E+02</totfact>
</mgrwt>
</event>
<event>
 4    1  0.1726503E-004  0.2912210E+03  0.7818608E-02  0.1089713E+00
          2   -1    0    0  501    0  0.00000000000E+00  0.00000000000E+00  0.10183933651E+03  0.10183933651E+03  0.00000000000E+00 0. -1.
         -2   -1    0    0    0  501 -0.00000000000E+00 -0.00000000000E+00 -0.20819474057E+03  0.20819474057E+03  0.00000000000E+00 0. -1.
         25    1    1    2    0    0 -0.54494175323E+02  0.18849160705E+02 -0.11595763708E+03  0.17655333359E+03  0.12000000000E+03 0.  0.
         25    1    1    2    0    0  0.54494175323E+02 -0.18849160705E+02  0.96022330157E+01  0.13348074349E+03  0.12000000000E+03 0.  0.
<mgrwt>
<rscale>  0 0.29122098E+03</rscale>
<asrwt>0</asrwt>
<pdfrwt beam="1">  1        2 0.15667591E-01 0.29122098E+03</pdfrwt>
<pdfrwt beam="2">  1       -2 0.32029959E-01 0.29122098E+03</pdfrwt>
<totfact> 0.33454744E+03</totfact>
</mgrwt>
</event>
<event>
 4    1  0.1726503E-004  0.2966184E+03  0.7818608E-02  0.1086943E+00
          1   -1    0    0  501    0  0.00000000000E+00  0.00000000000E+00  0.66871625017E+03  0.66871625017E+03  0.00000000000E+00 0. -1.
         -1   -1    0    0    0  501 -0.00000000000E+00 -0.00000000000E+00 -0.32892311690E+02  0.32892311690E+02  0.00000000000E+00 0. -1.
         25    1    1    2    0    0 -0.15132921531E+01 -0.56588708777E+02  0.16117155005E+03  0.20876024660E+03  0.12000000000E+03 0.  0.
         25    1    1    2    0    0  0.15132921531E+01  0.56588708777E+02  0.47465238843E+03  0.49284831526E+03  0.12000000000E+03 0.  0.
<mgrwt>
<rscale>  0 0.29661843E+03</rscale>
<asrwt>0</asrwt>
<pdfrwt beam="1">  1        1 0.10287941E+00 0.29661843E+03</pdfrwt>
<pdfrwt beam="2">  1       -1 0.50603561E-02 0.29661843E+03</pdfrwt>
<totfact> 0.52069411E+03</totfact>
</mgrwt>
</event>
<event>
 4    1  0.1726503E-004  0.6295958E+03  0.7818608E-02  0.9845838E-01
         -2   -1    0    0    0  501 -0.00000000000E+00  0.00000000000E+00  0.23931632982E+03  0.23931632982E+03  0.00000000000E+00 0. -1.
          2   -1    0    0  501    0  0.00000000000E+00 -0.00000000000E+00 -0.41408675200E+03  0.41408675200E+03  0.00000000000E+00 0. -1.
         25    1    1    2    0    0  0.11174351362E+03 -0.11182351181E+02  0.19125577865E+03  0.25217143114E+03  0.12000000000E+03 0.  0.
         25    1    1    2    0    0 -0.11174351362E+03  0.11182351181E+02 -0.36602620082E+03  0.40123165068E+03  0.12000000000E+03 0.  0.
<mgrwt>
<rscale>  0 0.62959581E+03</rscale>
<asrwt>0</asrwt>
<pdfrwt beam="1">  1        2 0.63705654E-01 0.62959581E+03</pdfrwt>
<pdfrwt beam="2">  1       -2 0.36817897E-01 0.62959581E+03</pdfrwt>
<totfact> 0.53532553E+02</totfact>
</mgrwt>
</event>
<event>
 4    1  0.1726503E-004  0.3060402E+03  0.7818608E-02  0.1082260E+00
         -2   -1    0    0    0  501 -0.00000000000E+00  0.00000000000E+00  0.11775642945E+02  0.11775642945E+02  0.00000000000E+00 0. -1.
          2   -1    0    0  501    0  0.00000000000E+00 -0.00000000000E+00 -0.19884394406E+04  0.19884394406E+04  0.00000000000E+00 0. -1.
         25    1    1    2    0    0 -0.60844123429E+02 -0.58185152462E+02 -0.12752846822E+04  0.12836816349E+04  0.12000000000E+03 0.  0.
         25    1    1    2    0    0  0.60844123429E+02  0.58185152462E+02 -0.70137911552E+03  0.71653344864E+03  0.12000000000E+03 0.  0.
<mgrwt>
<rscale>  0 0.30604021E+03</rscale>
<asrwt>0</asrwt>
<pdfrwt beam="1">  1        2 0.30591362E+00 0.30604021E+03</pdfrwt>
<pdfrwt beam="2">  1       -2 0.18116382E-02 0.30604021E+03</pdfrwt>
<totfact> 0.67420130E+03</totfact>
</mgrwt>
</event>
<event>
 4    1  0.1726503E-004  0.3117096E+03  0.7818608E-02  0.1079529E+00
         -1   -1    0    0    0  501 -0.00000000000E+00  0.00000000000E+00  0.56616971771E+02  0.56616971771E+02  0.00000000000E+00 0.  1.
          1   -1    0    0  501    0  0.00000000000E+00 -0.00000000000E+00 -0.42903591213E+03  0.42903591213E+03  0.00000000000E+00 0.  1.
         25    1    1    2    0    0 -0.42723950804E+02 -0.17882891973E+02 -0.49088835093E+02  0.13767660487E+03  0.12000000000E+03 0.  0.
         25    1    1    2    0    0  0.42723950804E+02  0.17882891973E+02 -0.32333010527E+03  0.34797627903E+03  0.12000000000E+03 0.  0.
<mgrwt>
<rscale>  0 0.31170957E+03</rscale>
<asrwt>0</asrwt>
<pdfrwt beam="1">  1        1 0.66005526E-01 0.31170957E+03</pdfrwt>
<pdfrwt beam="2">  1       -1 0.87103033E-02 0.31170957E+03</pdfrwt>
<totfact> 0.41753388E+03</totfact>
</mgrwt>
</event>
<event>
 4    1  0.1726503E-004  0.4053202E+03  0.7818608E-02  0.1041953E+00
         -3   -1    0    0    0  501 -0.00000000000E+00  0.00000000000E+00  0.35384200729E+02  0.35384200729E+02  0.00000000000E+00 0.  1.
          3   -1    0    0  501    0  0.00000000000E+00 -0.00000000000E+00 -0.11607193065E+04  0.11607193065E+04  0.00000000000E+00 0.  1.
         25    1    1    2    0    0  0.12552997936E+03  0.99510434965E+02 -0.46883557096E+03  0.50977141445E+03  0.12000000000E+03 0.  0.
         25    1    1    2    0    0 -0.12552997936E+03 -0.99510434965E+02 -0.65649953485E+03  0.68633209283E+03  0.12000000000E+03 0.  0.
<mgrwt>
<rscale>  0 0.40532024E+03</rscale>
<asrwt>0</asrwt>
<pdfrwt beam="1">  1        3 0.17857223E+00 0.40532024E+03</pdfrwt>
<pdfrwt beam="2">  1       -3 0.54437222E-02 0.40532024E+03</pdfrwt>
<totfact> 0.11203508E+02</totfact>
</mgrwt>
</event>
<event>
 4    1  0.1726503E-004  0.3620010E+03  0.7818608E-02  0.1057794E+00
          1   -1    0    0  501    0  0.00000000000E+00  0.00000000000E+00  0.15710296044E+04  0.15710296044E+04  0.00000000000E+00 0.  1.
         -1   -1    0    0    0  501 -0.00000000000E+00 -0.00000000000E+00 -0.20853315254E+02  0.20853315254E+02  0.00000000000E+00 0.  1.
         25    1    1    2    0    0 -0.53161032063E+02  0.81480550686E+02  0.36032631739E+03  0.39204620962E+03  0.12000000000E+03 0.  0.
         25    1    1    2    0    0  0.53161032063E+02 -0.81480550686E+02  0.11898499717E+04  0.11998367100E+04  0.12000000000E+03 0.  0.
<mgrwt>
<rscale>  0 0.36200097E+03</rscale>
<asrwt>0</asrwt>
<pdfrwt beam="1">  1        1 0.24169677E+00 0.36200097E+03</pdfrwt>
<pdfrwt beam="2">  1       -1 0.32082036E-02 0.36200097E+03</pdfrwt>
<totfact> 0.21907631E+03</totfact>
</mgrwt>
</event>
<event>
 4    1  0.1726503E-004  0.4076540E+03  0.7818608E-02  0.1041161E+00
         -2   -1    0    0    0  501 -0.00000000000E+00  0.00000000000E+00  0.76422389062E+02  0.76422389062E+02  0.00000000000E+00 0. -1.
          2   -1    0    0  501    0  0.00000000000E+00 -0.00000000000E+00 -0.54362919990E+03  0.54362919990E+03  0.00000000000E+00 0. -1.
         25    1    1    2    0    0  0.75749743096E+02 -0.23571862946E+02 -0.45324154924E+03  0.47552240563E+03  0.12000000000E+03 0.  0.
         25    1    1    2    0    0 -0.75749743096E+02  0.23571862946E+02 -0.13965261596E+02  0.14452918333E+03  0.12000000000E+03 0.  0.
<mgrwt>
<rscale>  0 0.40765398E+03</rscale>
<asrwt>0</asrwt>
<pdfrwt beam="1">  1        2 0.83635261E-01 0.40765398E+03</pdfrwt>
<pdfrwt beam="2">  1       -2 0.11757291E-01 0.40765398E+03</pdfrwt>
<totfact> 0.29092035E+03</totfact>
</mgrwt>
</event>
<event>
 4    1  0.1726503E-004  0.2609428E+03  0.7818608E-02  0.1106578E+00
         -2   -1    0    0    0  501 -0.00000000000E+00  0.00000000000E+00  0.46164592312E+02  0.46164592312E+02  0.00000000000E+00 0. -1.
          2   -1    0    0  501    0  0.00000000000E+00 -0.00000000000E+00 -0.36874113188E+03  0.36874113188E+03  0.00000000000E+00 0. -1.
         25    1    1    2    0    0 -0.16026222183E+02  0.93138279286E+01 -0.23719758137E+03  0.26647003545E+03  0.12000000000E+03 0.  0.
         25    1    1    2    0    0  0.16026222183E+02 -0.93138279286E+01 -0.85378958205E+02  0.14843568874E+03  0.12000000000E+03 0.  0.
<mgrwt>
<rscale>  0 0.26094278E+03</rscale>
<asrwt>0</asrwt>
<pdfrwt beam="1">  1        2 0.56729406E-01 0.26094278E+03</pdfrwt>
<pdfrwt beam="2">  1       -2 0.71022448E-02 0.26094278E+03</pdfrwt>
<totfact> 0.98431872E+03</totfact>
</mgrwt>
</event>
<event>
 4    1  0.1726503E-004  0.3104845E+03  0.7818608E-02  0.1080114E+00
         -2   -1    0    0    0  501 -0.00000000000E+00  0.00000000000E+00  0.53829248866E+02  0.53829248866E+02  0.00000000000E+00 0. -1.
          2   -1    0    0  501    0  0.00000000000E+00 -0.00000000000E+00 -0.44771491217E+03  0.44771491217E+03  0.00000000000E+00 0. -1.
         25    1    1    2    0    0 -0.87744949306E+02 -0.27555990007E+01 -0.26906439965E+03  0.30741246008E+03  0.12000000000E+03 0.  0.
         25    1    1    2    0    0  0.87744949306E+02  0.27555990007E+01 -0.12482126365E+03  0.19413170095E+03  0.12000000000E+03 0.  0.
<mgrwt>
<rscale>  0 0.31048451E+03</rscale>
<asrwt>0</asrwt>
<pdfrwt beam="1">  1        2 0.68879219E-01 0.31048451E+03</pdfrwt>
<pdfrwt beam="2">  1       -2 0.82814227E-02 0.31048451E+03</pdfrwt>
<totfact> 0.63073498E+03</totfact>
</mgrwt>
</event>
<event>
 4    1  0.1726503E-004  0.2508019E+03  0.7818608E-02  0.1112799E+00
          2   -1    0    0  501    0  0.00000000000E+00  0.00000000000E+00  0.32958666575E+03  0.32958666575E+03  0.00000000000E+00 0. -1.
         -2   -1    0    0    0  501 -0.00000000000E+00 -0.00000000000E+00 -0.47712466171E+02  0.47712466171E+02  0.00000000000E+00 0. -1.
         25    1    1    2    0    0 -0.24124354095E+02 -0.25141924270E+02  0.12506674299E+03  0.17679307401E+03  0.12000000000E+03 0.  0.
         25    1    1    2    0    0  0.24124354095E+02  0.25141924270E+02  0.15680745659E+03  0.20050605791E+03  0.12000000000E+03 0.  0.
<mgrwt>
<rscale>  0 0.25080186E+03</rscale>
<asrwt>0</asrwt>
<pdfrwt beam="1">  1        2 0.50705639E-01 0.25080186E+03</pdfrwt>
<pdfrwt beam="2">  1       -2 0.73403796E-02 0.25080186E+03</pdfrwt>
<totfact> 0.10536573E+04</totfact>
</mgrwt>
</event>
<event>
 4    1  0.1726503E-004  0.3077102E+03  0.7818608E-02  0.1081449E+00
         -2   -1    0    0    0  501 -0.00000000000E+00  0.00000000000E+00  0.41528717668E+02  0.41528717668E+02  0.00000000000E+00 0.  1.
          2   -1    0    0  501    0  0.00000000000E+00 -0.00000000000E+00 -0.57000040433E+03  0.57000040433E+03  0.00000000000E+00 0.  1.
         25    1    1    2    0    0 -0.41695737757E+02 -0.86502530625E+02 -0.25016016720E+03  0.29360063284E+03  0.12000000000E+03 0.  0.
         25    1    1    2    0    0  0.41695737757E+02  0.86502530625E+02 -0.27831151946E+03  0.31792848916E+03  0.12000000000E+03 0.  0.
<mgrwt>
<rscale>  0 0.30771016E+03</rscale>
<asrwt>0</asrwt>
<pdfrwt beam="1">  1        2 0.87692375E-01 0.30771016E+03</pdfrwt>
<pdfrwt beam="2">  1       -2 0.63890331E-02 0.30771016E+03</pdfrwt>
<totfact> 0.71949988E+03</totfact>
</mgrwt>
</event>
<event>
 4    1  0.1726503E-004  0.2554461E+03  0.7818608E-02  0.1109911E+00
         -2   -1    0    0    0  501 -0.00000000000E+00  0.00000000000E+00  0.96900549077E+01  0.96900549077E+01  0.00000000000E+00 0. -1.
          2   -1    0    0  501    0  0.00000000000E+00 -0.00000000000E+00 -0.16834967022E+04  0.16834967022E+04  0.00000000000E+00 0. -1.
         25    1    1    2    0    0  0.19031276002E+02  0.26718416096E+02 -0.64512590716E+03  0.65701103439E+03  0.12000000000E+03 0.  0.
         25    1    1    2    0    0 -0.19031276002E+02 -0.26718416096E+02 -0.10286807402E+04  0.10361757228E+04  0.12000000000E+03 0.  0.
<mgrwt>
<rscale>  0 0.25544608E+03</rscale>
<asrwt>0</asrwt>
<pdfrwt beam="1">  1        2 0.25899936E+00 0.25544608E+03</pdfrwt>
<pdfrwt beam="2">  1       -2 0.14907784E-02 0.25544608E+03</pdfrwt>
<totfact> 0.12949601E+04</totfact>
</mgrwt>
</event>
<event>
 4    1  0.1726503E-004  0.3065274E+03  0.7818608E-02  0.1082022E+00
         -2   -1    0    0    0  501 -0.00000000000E+00  0.00000000000E+00  0.17853761123E+02  0.17853761123E+02  0.00000000000E+00 0. -1.
          2   -1    0    0  501    0  0.00000000000E+00 -0.00000000000E+00 -0.13156754809E+04  0.13156754809E+04  0.00000000000E+00 0. -1.
         25    1    1    2    0    0  0.22237388191E+02  0.28541946419E+02 -0.10326535943E+04  0.10402319885E+04  0.12000000000E+03 0.  0.
         25    1    1    2    0    0 -0.22237388191E+02 -0.28541946419E+02 -0.26516812549E+03  0.29329725350E+03  0.12000000000E+03 0.  0.
<mgrwt>
<rscale>  0 0.30652736E+03</rscale>
<asrwt>0</asrwt>
<pdfrwt beam="1">  1        2 0.20241163E+00 0.30652736E+03</pdfrwt>
<pdfrwt beam="2">  1       -2 0.27467323E-02 0.30652736E+03</pdfrwt>
<totfact> 0.83257096E+03</totfact>
</mgrwt>
</event>
<event>
 4    1  0.1726503E-004  0.2573440E+03  0.7818608E-02  0.1108750E+00
         -1   -1    0    0    0  501 -0.00000000000E+00  0.00000000000E+00  0.35597741493E+02  0.35597741493E+02  0.00000000000E+00 0. -1.
          1   -1    0    0  501    0  0.00000000000E+00 -0.00000000000E+00 -0.46509934892E+03  0.46509934892E+03  0.00000000000E+00 0. -1.
         25    1    1    2    0    0  0.10648426011E+02  0.43588934878E+02 -0.19147610351E+03  0.23038333802E+03  0.12000000000E+03 0.  0.
         25    1    1    2    0    0 -0.10648426011E+02 -0.43588934878E+02 -0.23802550391E+03  0.27031375240E+03  0.12000000000E+03 0.  0.
<mgrwt>
<rscale>  0 0.25734402E+03</rscale>
<asrwt>0</asrwt>
<pdfrwt beam="1">  1        1 0.71553747E-01 0.25734402E+03</pdfrwt>
<pdfrwt beam="2">  1       -1 0.54765756E-02 0.25734402E+03</pdfrwt>
<totfact> 0.75635640E+03</totfact>
</mgrwt>
</event>
<event>
 4    1  0.1726503E-004  0.3077334E+03  0.7818608E-02  0.1081437E+00
         -2   -1    0    0    0  501 -0.00000000000E+00  0.00000000000E+00  0.67733870756E+02  0.67733870756E+02  0.00000000000E+00 0.  1.
          2   -1    0    0  501    0  0.00000000000E+00 -0.00000000000E+00 -0.34952915743E+03  0.34952915743E+03  0.00000000000E+00 0.  1.
         25    1    1    2    0    0 -0.43177192061E+02 -0.83428207244E+02 -0.16967477554E+03  0.22806592278E+03  0.12000000000E+03 0.  0.
         25    1    1    2    0    0  0.43177192061E+02  0.83428207244E+02 -0.11212051114E+03  0.18919710541E+03  0.12000000000E+03 0.  0.
<mgrwt>
<rscale>  0 0.30773341E+03</rscale>
<asrwt>0</asrwt>
<pdfrwt beam="1">  1        2 0.53773717E-01 0.30773341E+03</pdfrwt>
<pdfrwt beam="2">  1       -2 0.10420595E-01 0.30773341E+03</pdfrwt>
<totfact> 0.57412711E+03</totfact>
</mgrwt>
</event>
<event>
 4    1  0.1726503E-004  0.3678803E+03  0.7818608E-02  0.1055506E+00
         -2   -1    0    0    0  501 -0.00000000000E+00  0.00000000000E+00  0.15320979878E+03  0.15320979878E+03  0.00000000000E+00 0.  1.
          2   -1    0    0  501    0  0.00000000000E+00 -0.00000000000E+00 -0.22083426061E+03  0.22083426061E+03  0.00000000000E+00 0.  1.
         25    1    1    2    0    0  0.26931840065E+02  0.59823680324E+02 -0.15887628904E+03  0.20963270726E+03  0.12000000000E+03 0.  0.
         25    1    1    2    0    0 -0.26931840065E+02 -0.59823680324E+02  0.91251827210E+02  0.16441135212E+03  0.12000000000E+03 0.  0.
<mgrwt>
<rscale>  0 0.36788027E+03</rscale>
<asrwt>0</asrwt>
<pdfrwt beam="1">  1        2 0.33974501E-01 0.36788027E+03</pdfrwt>
<pdfrwt beam="2">  1       -2 0.23570739E-01 0.36788027E+03</pdfrwt>
<totfact> 0.24241432E+03</totfact>
</mgrwt>
</event>
<event>
 4    1  0.1726503E-004  0.2539987E+03  0.7818608E-02  0.1110804E+00
         -2   -1    0    0    0  501 -0.00000000000E+00  0.00000000000E+00  0.10690198616E+02  0.10690198616E+02  0.00000000000E+00 0.  1.
          2   -1    0    0  501    0  0.00000000000E+00 -0.00000000000E+00 -0.15087496820E+04  0.15087496820E+04  0.00000000000E+00 0.  1.
         25    1    1    2    0    0 -0.13994078178E+01  0.37116218313E+02 -0.63723340817E+03  0.64949671939E+03  0.12000000000E+03 0.  0.
         25    1    1    2    0    0  0.13994078178E+01 -0.37116218313E+02 -0.86082607519E+03  0.86994316120E+03  0.12000000000E+03 0.  0.
<mgrwt>
<rscale>  0 0.25399869E+03</rscale>
<asrwt>0</asrwt>
<pdfrwt beam="1">  1        2 0.23211524E+00 0.25399869E+03</pdfrwt>
<pdfrwt beam="2">  1       -2 0.16446466E-02 0.25399869E+03</pdfrwt>
<totfact> 0.13876613E+04</totfact>
</mgrwt>
</event>
<event>
 4    1  0.1726503E-004  0.2695836E+03  0.7818608E-02  0.1101518E+00
          1   -1    0    0  501    0  0.00000000000E+00  0.00000000000E+00  0.67196260759E+02  0.67196260759E+02  0.00000000000E+00 0.  1.
         -1   -1    0    0    0  501 -0.00000000000E+00 -0.00000000000E+00 -0.27038443221E+03  0.27038443221E+03  0.00000000000E+00 0.  1.
         25    1    1    2    0    0 -0.27686970400E+02  0.37633132179E+02 -0.15146370515E+03  0.19880662702E+03  0.12000000000E+03 0.  0.
         25    1    1    2    0    0  0.27686970400E+02 -0.37633132179E+02 -0.51724466302E+02  0.13877406596E+03  0.12000000000E+03 0.  0.
<mgrwt>
<rscale>  0 0.26958355E+03</rscale>
<asrwt>0</asrwt>
<pdfrwt beam="1">  1        1 0.10337886E-01 0.26958355E+03</pdfrwt>
<pdfrwt beam="2">  1       -1 0.41597606E-01 0.26958355E+03</pdfrwt>
<totfact> 0.35105354E+03</totfact>
</mgrwt>
</event>
<event>
 4    1  0.1726503E-004  0.2677700E+03  0.7818608E-02  0.1102563E+00
         -1   -1    0    0    0  501 -0.00000000000E+00  0.00000000000E+00  0.88515482879E+02  0.88515482879E+02  0.00000000000E+00 0.  1.
          1   -1    0    0  501    0  0.00000000000E+00 -0.00000000000E+00 -0.20250917513E+03  0.20250917513E+03  0.00000000000E+00 0.  1.
         25    1    1    2    0    0  0.34466126216E+02 -0.40857788342E+02 -0.28908150631E+02  0.13451005129E+03  0.12000000000E+03 0.  0.
         25    1    1    2    0    0 -0.34466126216E+02  0.40857788342E+02 -0.85085541623E+02  0.15651460672E+03  0.12000000000E+03 0.  0.
<mgrwt>
<rscale>  0 0.26777003E+03</rscale>
<asrwt>0</asrwt>
<pdfrwt beam="1">  1        1 0.31155258E-01 0.26777003E+03</pdfrwt>
<pdfrwt beam="2">  1       -1 0.13617767E-01 0.26777003E+03</pdfrwt>
<totfact> 0.53672376E+03</totfact>
</mgrwt>
</event>
<event>
 4    1  0.1726503E-004  0.3275296E+03  0.7818608E-02  0.1072235E+00
          2   -1    0    0  501    0  0.00000000000E+00  0.00000000000E+00  0.32546165213E+03  0.32546165213E+03  0.00000000000E+00 0.  1.
         -2   -1    0    0    0  501 -0.00000000000E+00 -0.00000000000E+00 -0.82402661932E+02  0.82402661932E+02  0.00000000000E+00 0.  1.
         25    1    1    2    0    0 -0.10235750986E+02  0.79788875895E+02  0.21756812522E+03  0.26116455431E+03  0.12000000000E+03 0.  0.
         25    1    1    2    0    0  0.10235750986E+02 -0.79788875895E+02  0.25490864979E+02  0.14669975976E+03  0.12000000000E+03 0.  0.
<mgrwt>
<rscale>  0 0.32752958E+03</rscale>
<asrwt>0</asrwt>
<pdfrwt beam="1">  1        2 0.50071023E-01 0.32752958E+03</pdfrwt>
<pdfrwt beam="2">  1       -2 0.12677333E-01 0.32752958E+03</pdfrwt>
<totfact> 0.45276430E+03</totfact>
</mgrwt>
</event>
<event>
 4    1  0.1726503E-004  0.2567863E+03  0.7818608E-02  0.1109090E+00
         -1   -1    0    0    0  501 -0.00000000000E+00  0.00000000000E+00  0.12426316163E+03  0.12426316163E+03  0.00000000000E+00 0.  1.
          1   -1    0    0  501    0  0.00000000000E+00 -0.00000000000E+00 -0.13266035555E+03  0.13266035555E+03  0.00000000000E+00 0.  1.
         25    1    1    2    0    0 -0.18362541687E+02  0.37652320903E+02 -0.22371868452E+02  0.12905572713E+03  0.12000000000E+03 0.  0.
         25    1    1    2    0    0  0.18362541687E+02 -0.37652320903E+02  0.13974674533E+02  0.12786779006E+03  0.12000000000E+03 0.  0.
<mgrwt>
<rscale>  0 0.25678626E+03</rscale>
<asrwt>0</asrwt>
<pdfrwt beam="1">  1        1 0.20409285E-01 0.25678626E+03</pdfrwt>
<pdfrwt beam="2">  1       -1 0.19117410E-01 0.25678626E+03</pdfrwt>
<totfact> 0.53420410E+03</totfact>
</mgrwt>
</event>
<event>
 4    1  0.1726503E-004  0.2479694E+03  0.7818608E-02  0.1114595E+00
         -4   -1    0    0    0  501 -0.00000000000E+00  0.00000000000E+00  0.44372970125E+02  0.44372970125E+02  0.00000000000E+00 0.  1.
          4   -1    0    0  501    0  0.00000000000E+00 -0.00000000000E+00 -0.34643162400E+03  0.34643162400E+03  0.00000000000E+00 0.  1.
         25    1    1    2    0    0  0.19963761141E+02  0.21432204573E+02 -0.13417925464E+03  0.18237862684E+03  0.12000000000E+03 0.  0.
         25    1    1    2    0    0 -0.19963761141E+02 -0.21432204573E+02 -0.16787939923E+03  0.20842596728E+03  0.12000000000E+03 0.  0.
<mgrwt>
<rscale>  0 0.24796935E+03</rscale>
<asrwt>0</asrwt>
<pdfrwt beam="1">  1        4 0.53297176E-01 0.24796935E+03</pdfrwt>
<pdfrwt beam="2">  1       -4 0.68266104E-02 0.24796935E+03</pdfrwt>
<totfact> 0.90252026E+02</totfact>
</mgrwt>
</event>
<event>
 4    1  0.1726503E-004  0.3801170E+03  0.7818608E-02  0.1050891E+00
         -2   -1    0    0    0  501 -0.00000000000E+00  0.00000000000E+00  0.11530019149E+03  0.11530019149E+03  0.00000000000E+00 0. -1.
          2   -1    0    0  501    0  0.00000000000E+00 -0.00000000000E+00 -0.31328856666E+03  0.31328856666E+03  0.00000000000E+00 0. -1.
         25    1    1    2    0    0  0.79719742594E+01  0.47250737821E+02 -0.25614466746E+03  0.28689070265E+03  0.12000000000E+03 0.  0.
         25    1    1    2    0    0 -0.79719742594E+01 -0.47250737821E+02  0.58156292290E+02  0.14169805549E+03  0.12000000000E+03 0.  0.
<mgrwt>
<rscale>  0 0.38011699E+03</rscale>
<asrwt>0</asrwt>
<pdfrwt beam="1">  1        2 0.48198240E-01 0.38011699E+03</pdfrwt>
<pdfrwt beam="2">  1       -2 0.17738491E-01 0.38011699E+03</pdfrwt>
<totfact> 0.27073027E+03</totfact>
</mgrwt>
</event>
<event>
 4    1  0.1726503E-004  0.4445977E+03  0.7818608E-02  0.1029345E+00
         -1   -1    0    0    0  501 -0.00000000000E+00  0.00000000000E+00  0.10011656032E+04  0.10011656032E+04  0.00000000000E+00 0.  1.
          1   -1    0    0  501    0  0.00000000000E+00 -0.00000000000E+00 -0.49359237111E+02  0.49359237111E+02  0.00000000000E+00 0.  1.
         25    1    1    2    0    0  0.48354242345E+02 -0.13694846795E+03  0.75471895284E+03  0.77787769822E+03  0.12000000000E+03 0.  0.
         25    1    1    2    0    0 -0.48354242345E+02  0.13694846795E+03  0.19708741325E+03  0.27264714209E+03  0.12000000000E+03 0.  0.
<mgrwt>
<rscale>  0 0.44459766E+03</rscale>
<asrwt>0</asrwt>
<pdfrwt beam="1">  1        1 0.75937295E-02 0.44459766E+03</pdfrwt>
<pdfrwt beam="2">  1       -1 0.15402546E+00 0.44459766E+03</pdfrwt>
<totfact> 0.32760523E+02</totfact>
</mgrwt>
</event>
<event>
 4    1  0.1726503E-004  0.2479549E+03  0.7818608E-02  0.1114604E+00
          2   -1    0    0  501    0  0.00000000000E+00  0.00000000000E+00  0.43482064596E+03  0.43482064596E+03  0.00000000000E+00 0.  1.
         -2   -1    0    0    0  501 -0.00000000000E+00 -0.00000000000E+00 -0.35348838092E+02  0.35348838092E+02  0.00000000000E+00 0.  1.
         25    1    1    2    0    0 -0.15468811246E+02  0.21920266147E+02  0.16971721258E+03  0.20957985217E+03  0.12000000000E+03 0.  0.
         25    1    1    2    0    0  0.15468811246E+02 -0.21920266147E+02  0.22975459529E+03  0.26058963189E+03  0.12000000000E+03 0.  0.
<mgrwt>
<rscale>  0 0.24795487E+03</rscale>
<asrwt>0</asrwt>
<pdfrwt beam="1">  1        2 0.66895480E-01 0.24795487E+03</pdfrwt>
<pdfrwt beam="2">  1       -2 0.54382831E-02 0.24795487E+03</pdfrwt>
<totfact> 0.12371547E+04</totfact>
</mgrwt>
</event>
<event>
 4    1  0.1726503E-004  0.2519525E+03  0.7818608E-02  0.1112077E+00
          2   -1    0    0  501    0  0.00000000000E+00  0.00000000000E+00  0.28903675422E+04  0.28903675422E+04  0.00000000000E+00 0. -1.
         -2   -1    0    0    0  501 -0.00000000000E+00 -0.00000000000E+00 -0.54906547300E+01  0.54906547300E+01  0.00000000000E+00 0. -1.
         25    1    1    2    0    0  0.35439610774E+02  0.94106156158E+01  0.15711903798E+04  0.15761927976E+04  0.12000000000E+03 0.  0.
         25    1    1    2    0    0 -0.35439610774E+02 -0.94106156158E+01  0.13136865077E+04  0.13196653993E+04  0.12000000000E+03 0.  0.
<mgrwt>
<rscale>  0 0.25195246E+03</rscale>
<asrwt>0</asrwt>
<pdfrwt beam="1">  1        2 0.44467072E+00 0.25195246E+03</pdfrwt>
<pdfrwt beam="2">  1       -2 0.84471842E-03 0.25195246E+03</pdfrwt>
<totfact> 0.65870196E+03</totfact>
</mgrwt>
</event>
<event>
 4    1  0.1726503E-004  0.2931273E+03  0.7818608E-02  0.1088728E+00
          1   -1    0    0  501    0  0.00000000000E+00  0.00000000000E+00  0.11640883086E+04  0.11640883086E+04  0.00000000000E+00 0.  1.
         -1   -1    0    0    0  501 -0.00000000000E+00 -0.00000000000E+00 -0.18452987152E+02  0.18452987152E+02  0.00000000000E+00 0.  1.
         25    1    1    2    0    0 -0.23880432191E+02  0.55396645093E+02  0.33614092983E+03  0.36198036968E+03  0.12000000000E+03 0.  0.
         25    1    1    2    0    0  0.23880432191E+02 -0.55396645093E+02  0.80949439158E+03  0.82056092603E+03  0.12000000000E+03 0.  0.
<mgrwt>
<rscale>  0 0.29312732E+03</rscale>
<asrwt>0</asrwt>
<pdfrwt beam="1">  1        1 0.17909045E+00 0.29312732E+03</pdfrwt>
<pdfrwt beam="2">  1       -1 0.28389220E-02 0.29312732E+03</pdfrwt>
<totfact> 0.49745621E+03</totfact>
</mgrwt>
</event>
<event>
 4    1  0.1726503E-004  0.2924485E+03  0.7818608E-02  0.1089078E+00
          2   -1    0    0  501    0  0.00000000000E+00  0.00000000000E+00  0.61027892110E+03  0.61027892110E+03  0.00000000000E+00 0. -1.
         -2   -1    0    0    0  501 -0.00000000000E+00 -0.00000000000E+00 -0.35035666586E+02  0.35035666586E+02  0.00000000000E+00 0. -1.
         25    1    1    2    0    0  0.35120392377E+02  0.77824822622E+01  0.12121003691E+03  0.17431546701E+03  0.12000000000E+03 0.  0.
         25    1    1    2    0    0 -0.35120392377E+02 -0.77824822622E+01  0.45403321760E+03  0.47099912067E+03  0.12000000000E+03 0.  0.
<mgrwt>
<rscale>  0 0.29244848E+03</rscale>
<asrwt>0</asrwt>
<pdfrwt beam="1">  1        2 0.93889057E-01 0.29244848E+03</pdfrwt>
<pdfrwt beam="2">  1       -2 0.53901030E-02 0.29244848E+03</pdfrwt>
<totfact> 0.86170189E+03</totfact>
</mgrwt>
</event>
<event>
 4    1  0.1726503E-004  0.2961061E+03  0.7818608E-02  0.1087203E+00
          2   -1    0    0  501    0  0.00000000000E+00  0.00000000000E+00  0.31152263173E+03  0.31152263173E+03  0.00000000000E+00 0. -1.
         -2   -1    0    0    0  501 -0.00000000000E+00 -0.00000000000E+00 -0.70363129433E+02  0.70363129433E+02  0.00000000000E+00 0. -1.
         25    1    1    2    0    0  0.72662200516E+02  0.24668599651E+02  0.68488761806E+02  0.15804760576E+03  0.12000000000E+03 0.  0.
         25    1    1    2    0    0 -0.72662200516E+02 -0.24668599651E+02  0.17267074049E+03  0.22383815540E+03  0.12000000000E+03 0.  0.
<mgrwt>
<rscale>  0 0.29610611E+03</rscale>
<asrwt>0</asrwt>
<pdfrwt beam="1">  1        2 0.47926558E-01 0.29610611E+03</pdfrwt>
<pdfrwt beam="2">  1       -2 0.10825097E-01 0.29610611E+03</pdfrwt>
<totfact> 0.61101410E+03</totfact>
</mgrwt>
</event>
<event>
 4    1  0.1726503E-004  0.7417872E+03  0.7818608E-02  0.9648324E-01
          2   -1    0    0  501    0  0.00000000000E+00  0.00000000000E+00  0.11951137474E+04  0.11951137474E+04  0.00000000000E+00 0.  1.
         -2   -1    0    0    0  501 -0.00000000000E+00 -0.00000000000E+00 -0.11510374712E+03  0.11510374712E+03  0.00000000000E+00 0.  1.
         25    1    1    2    0    0 -0.70353172783E+02  0.16668417050E+03  0.88544401080E+01  0.21728226509E+03  0.12000000000E+03 0.  0.
         25    1    1    2    0    0  0.70353172783E+02 -0.16668417050E+03  0.10711555602E+04  0.10929352294E+04  0.12000000000E+03 0.  0.
<mgrwt>
<rscale>  0 0.74178722E+03</rscale>
<asrwt>0</asrwt>
<pdfrwt beam="1">  1        2 0.18386365E+00 0.74178722E+03</pdfrwt>
<pdfrwt beam="2">  1       -2 0.17708270E-01 0.74178722E+03</pdfrwt>
<totfact> 0.50703617E+02</totfact>
</mgrwt>
</event>
<event>
 4    1  0.1726503E-004  0.2841497E+03  0.7818608E-02  0.1093444E+00
         -2   -1    0    0    0  501 -0.00000000000E+00  0.00000000000E+00  0.11319939691E+03  0.11319939691E+03  0.00000000000E+00 0. -1.
          2   -1    0    0  501    0  0.00000000000E+00 -0.00000000000E+00 -0.17831597780E+03  0.17831597780E+03  0.00000000000E+00 0. -1.
         25    1    1    2    0    0 -0.34018773677E+02  0.34196093482E+02  0.27776132800E+02  0.13228062339E+03  0.12000000000E+03 0.  0.
         25    1    1    2    0    0  0.34018773677E+02 -0.34196093482E+02 -0.92892713684E+02  0.15923475132E+03  0.12000000000E+03 0.  0.
<mgrwt>
<rscale>  0 0.28414969E+03</rscale>
<asrwt>0</asrwt>
<pdfrwt beam="1">  1        2 0.27433227E-01 0.28414969E+03</pdfrwt>
<pdfrwt beam="2">  1       -2 0.17415292E-01 0.28414969E+03</pdfrwt>
<totfact> 0.51333895E+03</totfact>
</mgrwt>
</event>
<event>
 4    1  0.1726503E-004  0.4555098E+03  0.7818608E-02  0.1026092E+00
          2   -1    0    0  501    0  0.00000000000E+00  0.00000000000E+00  0.12145345312E+04  0.12145345312E+04  0.00000000000E+00 0. -1.
         -2   -1    0    0    0  501 -0.00000000000E+00 -0.00000000000E+00 -0.42709610185E+02  0.42709610185E+02  0.00000000000E+00 0. -1.
         25    1    1    2    0    0  0.19193289856E+03  0.16070704685E+02  0.53240735309E+03  0.57875218766E+03  0.12000000000E+03 0.  0.
         25    1    1    2    0    0 -0.19193289856E+03 -0.16070704685E+02  0.63941756790E+03  0.67849195370E+03  0.12000000000E+03 0.  0.
<mgrwt>
<rscale>  0 0.45550981E+03</rscale>
<asrwt>0</asrwt>
<pdfrwt beam="1">  1        2 0.18685144E+00 0.45550981E+03</pdfrwt>
<pdfrwt beam="2">  1       -2 0.65707102E-02 0.45550981E+03</pdfrwt>
<totfact> 0.25215700E+03</totfact>
</mgrwt>
</event>
<event>
 4    1  0.1726503E-004  0.2616772E+03  0.7818608E-02  0.1106140E+00
          2   -1    0    0  501    0  0.00000000000E+00  0.00000000000E+00  0.31990278266E+03  0.31990278266E+03  0.00000000000E+00 0. -1.
         -2   -1    0    0    0  501 -0.00000000000E+00 -0.00000000000E+00 -0.53512323065E+02  0.53512323065E+02  0.00000000000E+00 0. -1.
         25    1    1    2    0    0  0.33237607897E+02 -0.57386900634E+01  0.18993682127E+03  0.22718641512E+03  0.12000000000E+03 0.  0.
         25    1    1    2    0    0 -0.33237607897E+02  0.57386900634E+01  0.76453638327E+02  0.14622869060E+03  0.12000000000E+03 0.  0.
<mgrwt>
<rscale>  0 0.26167721E+03</rscale>
<asrwt>0</asrwt>
<pdfrwt beam="1">  1        2 0.49215812E-01 0.26167721E+03</pdfrwt>
<pdfrwt beam="2">  1       -2 0.82326653E-02 0.26167721E+03</pdfrwt>
<totfact> 0.91170197E+03</totfact>
</mgrwt>
</event>
<event>
 4    1  0.1726503E-004  0.5033532E+03  0.7818608E-02  0.1012907E+00
          2   -1    0    0  501    0  0.00000000000E+00  0.00000000000E+00  0.33776805605E+03  0.33776805605E+03  0.00000000000E+00 0. -1.
         -2   -1    0    0    0  501 -0.00000000000E+00 -0.00000000000E+00 -0.18752838917E+03  0.18752838917E+03  0.00000000000E+00 0. -1.
         25    1    1    2    0    0  0.85837217707E+01  0.15084710311E+03  0.24375823675E+03  0.31088037375E+03  0.12000000000E+03 0.  0.
         25    1    1    2    0    0 -0.85837217707E+01 -0.15084710311E+03 -0.93518569872E+02  0.21441607148E+03  0.12000000000E+03 0.  0.
<mgrwt>
<rscale>  0 0.50335315E+03</rscale>
<asrwt>0</asrwt>
<pdfrwt beam="1">  1        2 0.51964316E-01 0.50335315E+03</pdfrwt>
<pdfrwt beam="2">  1       -2 0.28850521E-01 0.50335315E+03</pdfrwt>
<totfact> 0.10612987E+03</totfact>
</mgrwt>
</event>
<event>
 4    1  0.1726503E-004  0.3073648E+03  0.7818608E-02  0.1081616E+00
          1   -1    0    0  501    0  0.00000000000E+00  0.00000000000E+00  0.27190380837E+02  0.27190380837E+02  0.00000000000E+00 0. -1.
         -1   -1    0    0    0  501 -0.00000000000E+00 -0.00000000000E+00 -0.86862609978E+03  0.86862609978E+03  0.00000000000E+00 0. -1.
         25    1    1    2    0    0 -0.76414129928E+02 -0.55259531341E+02 -0.47330344934E+03  0.49730160890E+03  0.12000000000E+03 0.  0.
         25    1    1    2    0    0  0.76414129928E+02  0.55259531341E+02 -0.36813226960E+03  0.39851487172E+03  0.12000000000E+03 0.  0.
<mgrwt>
<rscale>  0 0.30736476E+03</rscale>
<asrwt>0</asrwt>
<pdfrwt beam="1">  1        1 0.41831354E-02 0.30736476E+03</pdfrwt>
<pdfrwt beam="2">  1       -1 0.13363479E+00 0.30736476E+03</pdfrwt>
<totfact> 0.10876375E+03</totfact>
</mgrwt>
</event>
<event>
 4    1  0.1726503E-004  0.3001796E+03  0.7818608E-02  0.1085151E+00
         -2   -1    0    0    0  501 -0.00000000000E+00  0.00000000000E+00  0.16940883531E+02  0.16940883531E+02  0.00000000000E+00 0.  1.
          2   -1    0    0  501    0  0.00000000000E+00 -0.00000000000E+00 -0.13297389912E+04  0.13297389912E+04  0.00000000000E+00 0.  1.
         25    1    1    2    0    0  0.53149376505E+02  0.58900239929E+01 -0.33080123228E+03  0.35593398810E+03  0.12000000000E+03 0.  0.
         25    1    1    2    0    0 -0.53149376505E+02 -0.58900239929E+01 -0.98199687534E+03  0.99074588658E+03  0.12000000000E+03 0.  0.
<mgrwt>
<rscale>  0 0.30017964E+03</rscale>
<asrwt>0</asrwt>
<pdfrwt beam="1">  1        2 0.20457525E+00 0.30017964E+03</pdfrwt>
<pdfrwt beam="2">  1       -2 0.26062895E-02 0.30017964E+03</pdfrwt>
<totfact> 0.88384275E+03</totfact>
</mgrwt>
</event>
<event>
 4    1  0.1726503E-004  0.2945223E+03  0.7818608E-02  0.1088011E+00
         -4   -1    0    0    0  501 -0.00000000000E+00  0.00000000000E+00  0.70344415864E+02  0.70344415864E+02  0.00000000000E+00 0. -1.
          4   -1    0    0  501    0  0.00000000000E+00 -0.00000000000E+00 -0.30828090190E+03  0.30828090190E+03  0.00000000000E+00 0. -1.
         25    1    1    2    0    0 -0.56063129168E+01  0.50434165567E+02 -0.30733615615E+02  0.13386407632E+03  0.12000000000E+03 0.  0.
         25    1    1    2    0    0  0.56063129168E+01 -0.50434165567E+02 -0.20720287042E+03  0.24476124144E+03  0.12000000000E+03 0.  0.
<mgrwt>
<rscale>  0 0.29452226E+03</rscale>
<asrwt>0</asrwt>
<pdfrwt beam="1">  1        4 0.47427831E-01 0.29452226E+03</pdfrwt>
<pdfrwt beam="2">  1       -4 0.10822218E-01 0.29452226E+03</pdfrwt>
<totfact> 0.54173064E+02</totfact>
</mgrwt>
</event>
<event>
 4    1  0.1726503E-004  0.2870615E+03  0.7818608E-02  0.1091893E+00
         -1   -1    0    0    0  501 -0.00000000000E+00  0.00000000000E+00  0.23758509248E+03  0.23758509248E+03  0.00000000000E+00 0. -1.
          1   -1    0    0  501    0  0.00000000000E+00 -0.00000000000E+00 -0.86710276343E+02  0.86710276343E+02  0.00000000000E+00 0. -1.
         25    1    1    2    0    0  0.46720849240E+02 -0.15029102215E+02  0.58676489501E+01  0.12978112718E+03  0.12000000000E+03 0.  0.
         25    1    1    2    0    0 -0.46720849240E+02  0.15029102215E+02  0.14500716718E+03  0.19451424164E+03  0.12000000000E+03 0.  0.
<mgrwt>
<rscale>  0 0.28706145E+03</rscale>
<asrwt>0</asrwt>
<pdfrwt beam="1">  1        1 0.13340043E-01 0.28706145E+03</pdfrwt>
<pdfrwt beam="2">  1       -1 0.36551552E-01 0.28706145E+03</pdfrwt>
<totfact> 0.31469263E+03</totfact>
</mgrwt>
</event>
<event>
 4    1  0.1726503E-004  0.6946973E+03  0.7818608E-02  0.9726344E-01
          1   -1    0    0  501    0  0.00000000000E+00  0.00000000000E+00  0.19913610358E+03  0.19913610358E+03  0.00000000000E+00 0. -1.
         -1   -1    0    0    0  501 -0.00000000000E+00 -0.00000000000E+00 -0.60587246343E+03  0.60587246343E+03  0.00000000000E+00 0. -1.
         25    1    1    2    0    0 -0.30310188728E+03  0.11723985150E+03 -0.23257210753E+03  0.41725977766E+03  0.12000000000E+03 0.  0.
         25    1    1    2    0    0  0.30310188728E+03 -0.11723985150E+03 -0.17416425233E+03  0.38774878935E+03  0.12000000000E+03 0.  0.
<mgrwt>
<rscale>  0 0.69469729E+03</rscale>
<asrwt>0</asrwt>
<pdfrwt beam="1">  1        1 0.30636323E-01 0.69469729E+03</pdfrwt>
<pdfrwt beam="2">  1       -1 0.93211149E-01 0.69469729E+03</pdfrwt>
<totfact> 0.16977962E+02</totfact>
</mgrwt>
</event>
<event>
 4    1  0.1726503E-004  0.3372476E+03  0.7818608E-02  0.1067974E+00
          4   -1    0    0  501    0  0.00000000000E+00  0.00000000000E+00  0.14237450379E+04  0.14237450379E+04  0.00000000000E+00 0.  1.
         -4   -1    0    0    0  501 -0.00000000000E+00 -0.00000000000E+00 -0.19971259748E+02  0.19971259748E+02  0.00000000000E+00 0.  1.
         25    1    1    2    0    0  0.96932511563E+02  0.63296015926E+02  0.59429410528E+03  0.61724207650E+03  0.12000000000E+03 0.  0.
         25    1    1    2    0    0 -0.96932511563E+02 -0.63296015926E+02  0.80947967288E+03  0.82647422116E+03  0.12000000000E+03 0.  0.
<mgrwt>
<rscale>  0 0.33724758E+03</rscale>
<asrwt>0</asrwt>
<pdfrwt beam="1">  1        4 0.21903762E+00 0.33724758E+03</pdfrwt>
<pdfrwt beam="2">  1       -4 0.30725026E-02 0.33724758E+03</pdfrwt>
<totfact> 0.10795455E+02</totfact>
</mgrwt>
</event>
<event>
 4    1  0.1726503E-004  0.2728234E+03  0.7818608E-02  0.1099675E+00
          2   -1    0    0  501    0  0.00000000000E+00  0.00000000000E+00  0.13869808915E+03  0.13869808915E+03  0.00000000000E+00 0. -1.
         -2   -1    0    0    0  501 -0.00000000000E+00 -0.00000000000E+00 -0.13416296055E+03  0.13416296055E+03  0.00000000000E+00 0. -1.
         25    1    1    2    0    0 -0.19410689449E+02 -0.85689436771E+01 -0.59042981337E+02  0.13541150359E+03  0.12000000000E+03 0.  0.
         25    1    1    2    0    0  0.19410689449E+02  0.85689436771E+01  0.63578109934E+02  0.13744954610E+03  0.12000000000E+03 0.  0.
<mgrwt>
<rscale>  0 0.27282336E+03</rscale>
<asrwt>0</asrwt>
<pdfrwt beam="1">  1        2 0.21338168E-01 0.27282336E+03</pdfrwt>
<pdfrwt beam="2">  1       -2 0.20640455E-01 0.27282336E+03</pdfrwt>
<totfact> 0.50915187E+03</totfact>
</mgrwt>
</event>
<event>
 4    1  0.1726503E-004  0.2628139E+03  0.7818608E-02  0.1105464E+00
         -1   -1    0    0    0  501 -0.00000000000E+00  0.00000000000E+00  0.10498331418E+02  0.10498331418E+02  0.00000000000E+00 0. -1.
          1   -1    0    0  501    0  0.00000000000E+00 -0.00000000000E+00 -0.16448125536E+04  0.16448125536E+04  0.00000000000E+00 0. -1.
         25    1    1    2    0    0 -0.70915390017E+01  0.49677313356E+02 -0.93493273114E+03  0.94393714682E+03  0.12000000000E+03 0.  0.
         25    1    1    2    0    0  0.70915390017E+01 -0.49677313356E+02 -0.69938149101E+03  0.71137373817E+03  0.12000000000E+03 0.  0.
<mgrwt>
<rscale>  0 0.26281391E+03</rscale>
<asrwt>0</asrwt>
<pdfrwt beam="1">  1        1 0.25304793E+00 0.26281391E+03</pdfrwt>
<pdfrwt beam="2">  1       -1 0.16151289E-02 0.26281391E+03</pdfrwt>
<totfact> 0.53804834E+03</totfact>
</mgrwt>
</event>
<event>
 4    1  0.1726503E-004  0.3026420E+03  0.7818608E-02  0.1083927E+00
          2   -1    0    0  501    0  0.00000000000E+00  0.00000000000E+00  0.13059151293E+04  0.13059151293E+04  0.00000000000E+00 0. -1.
         -2   -1    0    0    0  501 -0.00000000000E+00 -0.00000000000E+00 -0.17534104696E+02  0.17534104696E+02  0.00000000000E+00 0. -1.
         25    1    1    2    0    0 -0.35100167895E+02  0.29310805311E+01  0.27165323909E+03  0.29905868208E+03  0.12000000000E+03 0.  0.
         25    1    1    2    0    0  0.35100167895E+02 -0.29310805311E+01  0.10167277855E+04  0.10243905519E+04  0.12000000000E+03 0.  0.
<mgrwt>
<rscale>  0 0.30264205E+03</rscale>
<asrwt>0</asrwt>
<pdfrwt beam="1">  1        2 0.20090994E+00 0.30264205E+03</pdfrwt>
<pdfrwt beam="2">  1       -2 0.26975556E-02 0.30264205E+03</pdfrwt>
<totfact> 0.86579601E+03</totfact>
</mgrwt>
</event>
<event>
 4    1  0.1726503E-004  0.2650351E+03  0.7818608E-02  0.1104155E+00
         -2   -1    0    0    0  501 -0.00000000000E+00  0.00000000000E+00  0.13312312818E+02  0.13312312818E+02  0.00000000000E+00 0.  1.
          2   -1    0    0  501    0  0.00000000000E+00 -0.00000000000E+00 -0.13191474644E+04  0.13191474644E+04  0.00000000000E+00 0.  1.
         25    1    1    2    0    0 -0.30463253198E+02  0.17882961759E+02 -0.43302083677E+03  0.45072702958E+03  0.12000000000E+03 0.  0.
         25    1    1    2    0    0  0.30463253198E+02 -0.17882961759E+02 -0.87281431483E+03  0.88173274766E+03  0.12000000000E+03 0.  0.
<mgrwt>
<rscale>  0 0.26503512E+03</rscale>
<asrwt>0</asrwt>
<pdfrwt beam="1">  1        2 0.20294579E+00 0.26503512E+03</pdfrwt>
<pdfrwt beam="2">  1       -2 0.20480479E-02 0.26503512E+03</pdfrwt>
<totfact> 0.12755415E+04</totfact>
</mgrwt>
</event>
<event>
 4    1  0.1726503E-004  0.3506429E+03  0.7818608E-02  0.1062351E+00
          2   -1    0    0  501    0  0.00000000000E+00  0.00000000000E+00  0.14244193035E+03  0.14244193035E+03  0.00000000000E+00 0.  1.
         -2   -1    0    0    0  501 -0.00000000000E+00 -0.00000000000E+00 -0.21579046257E+03  0.21579046257E+03  0.00000000000E+00 0.  1.
         25    1    1    2    0    0  0.51758324130E+02 -0.85551870142E+02  0.44670475919E+02  0.16246075840E+03  0.12000000000E+03 0.  0.
         25    1    1    2    0    0 -0.51758324130E+02  0.85551870142E+02 -0.11801900814E+03  0.19577163452E+03  0.12000000000E+03 0.  0.
<mgrwt>
<rscale>  0 0.35064290E+03</rscale>
<asrwt>0</asrwt>
<pdfrwt beam="1">  1        2 0.21914143E-01 0.35064290E+03</pdfrwt>
<pdfrwt beam="2">  1       -2 0.33198533E-01 0.35064290E+03</pdfrwt>
<totfact> 0.21293514E+03</totfact>
</mgrwt>
</event>
<event>
 4    1  0.1726503E-004  0.2993393E+03  0.7818608E-02  0.1085571E+00
          2   -1    0    0  501    0  0.00000000000E+00  0.00000000000E+00  0.10958287693E+03  0.10958287693E+03  0.00000000000E+00 0. -1.
         -2   -1    0    0    0  501 -0.00000000000E+00 -0.00000000000E+00 -0.20442066613E+03  0.20442066613E+03  0.00000000000E+00 0. -1.
         25    1    1    2    0    0  0.62294095189E+02 -0.63064211856E+02 -0.34859227967E+02  0.15320840345E+03  0.12000000000E+03 0.  0.
         25    1    1    2    0    0 -0.62294095189E+02  0.63064211856E+02 -0.59978561233E+02  0.16079513960E+03  0.12000000000E+03 0.  0.
<mgrwt>
<rscale>  0 0.29933930E+03</rscale>
<asrwt>0</asrwt>
<pdfrwt beam="1">  1        2 0.16858904E-01 0.29933930E+03</pdfrwt>
<pdfrwt beam="2">  1       -2 0.31449333E-01 0.29933930E+03</pdfrwt>
<totfact> 0.31761651E+03</totfact>
</mgrwt>
</event>
<event>
 4    1  0.1726503E-004  0.2452491E+03  0.7818608E-02  0.1116345E+00
         -2   -1    0    0    0  501 -0.00000000000E+00  0.00000000000E+00  0.21538481537E+02  0.21538481537E+02  0.00000000000E+00 0. -1.
          2   -1    0    0  501    0  0.00000000000E+00 -0.00000000000E+00 -0.69813567698E+03  0.69813567698E+03  0.00000000000E+00 0. -1.
         25    1    1    2    0    0 -0.25069958232E+02  0.56034848118E+00 -0.34658064101E+03  0.36762339088E+03  0.12000000000E+03 0.  0.
         25    1    1    2    0    0  0.25069958232E+02 -0.56034848118E+00 -0.33001655443E+03  0.35205076763E+03  0.12000000000E+03 0.  0.
<mgrwt>
<rscale>  0 0.24524912E+03</rscale>
<asrwt>0</asrwt>
<pdfrwt beam="1">  1        2 0.10740550E+00 0.24524912E+03</pdfrwt>
<pdfrwt beam="2">  1       -2 0.33136123E-02 0.24524912E+03</pdfrwt>
<totfact> 0.15189790E+04</totfact>
</mgrwt>
</event>
<event>
 4    1  0.1726503E-004  0.3351051E+03  0.7818608E-02  0.1068900E+00
          1   -1    0    0  501    0  0.00000000000E+00  0.00000000000E+00  0.74785368717E+02  0.74785368717E+02  0.00000000000E+00 0. -1.
         -1   -1    0    0    0  501 -0.00000000000E+00 -0.00000000000E+00 -0.37539230779E+03  0.37539230779E+03  0.00000000000E+00 0. -1.
         25    1    1    2    0    0  0.81971507788E+02  0.56046741443E+02 -0.67346535547E+02  0.16969419897E+03  0.12000000000E+03 0.  0.
         25    1    1    2    0    0 -0.81971507788E+02 -0.56046741443E+02 -0.23326040353E+03  0.28048347753E+03  0.12000000000E+03 0.  0.
<mgrwt>
<rscale>  0 0.33510507E+03</rscale>
<asrwt>0</asrwt>
<pdfrwt beam="1">  1        1 0.11505441E-01 0.33510507E+03</pdfrwt>
<pdfrwt beam="2">  1       -1 0.57752663E-01 0.33510507E+03</pdfrwt>
<totfact> 0.16656440E+03</totfact>
</mgrwt>
</event>
<event>
 4    1  0.1726503E-004  0.2772961E+03  0.7818608E-02  0.1097175E+00
         -1   -1    0    0    0  501 -0.00000000000E+00  0.00000000000E+00  0.43129283559E+03  0.43129283559E+03  0.00000000000E+00 0.  1.
          1   -1    0    0  501    0  0.00000000000E+00 -0.00000000000E+00 -0.44571285414E+02  0.44571285414E+02  0.00000000000E+00 0.  1.
         25    1    1    2    0    0 -0.36659220499E+02 -0.38000161118E+02  0.11593947575E+03  0.17501392153E+03  0.12000000000E+03 0.  0.
         25    1    1    2    0    0  0.36659220499E+02  0.38000161118E+02  0.27078207442E+03  0.30085019947E+03  0.12000000000E+03 0.  0.
<mgrwt>
<rscale>  0 0.27729606E+03</rscale>
<asrwt>0</asrwt>
<pdfrwt beam="1">  1        1 0.68571211E-02 0.27729606E+03</pdfrwt>
<pdfrwt beam="2">  1       -1 0.66352741E-01 0.27729606E+03</pdfrwt>
<totfact> 0.25578556E+03</totfact>
</mgrwt>
</event>
<event>
 4    1  0.1726503E-004  0.2819091E+03  0.7818608E-02  0.1094651E+00
         -2   -1    0    0    0  501 -0.00000000000E+00  0.00000000000E+00  0.39476966138E+02  0.39476966138E+02  0.00000000000E+00 0. -1.
          2   -1    0    0  501    0  0.00000000000E+00 -0.00000000000E+00 -0.50328548352E+03  0.50328548352E+03  0.00000000000E+00 0. -1.
         25    1    1    2    0    0 -0.55433230997E+02  0.48908628121E+02 -0.23539485582E+03  0.27436405586E+03  0.12000000000E+03 0.  0.
         25    1    1    2    0    0  0.55433230997E+02 -0.48908628121E+02 -0.22841366156E+03  0.26839839380E+03  0.12000000000E+03 0.  0.
<mgrwt>
<rscale>  0 0.28190909E+03</rscale>
<asrwt>0</asrwt>
<pdfrwt beam="1">  1        2 0.77428529E-01 0.28190909E+03</pdfrwt>
<pdfrwt beam="2">  1       -2 0.60733799E-02 0.28190909E+03</pdfrwt>
<totfact> 0.89360698E+03</totfact>
</mgrwt>
</event>
<event>
 4    1  0.1726503E-004  0.2547807E+03  0.7818608E-02  0.1110320E+00
         -1   -1    0    0    0  501 -0.00000000000E+00  0.00000000000E+00  0.25234655257E+02  0.25234655257E+02  0.00000000000E+00 0. -1.
          1   -1    0    0  501    0  0.00000000000E+00 -0.00000000000E+00 -0.64309603193E+03  0.64309603193E+03  0.00000000000E+00 0. -1.
         25    1    1    2    0    0  0.45532815238E+01 -0.29359215574E+02 -0.22826645605E+03  0.25959250927E+03  0.12000000000E+03 0.  0.
         25    1    1    2    0    0 -0.45532815238E+01  0.29359215574E+02 -0.38959492063E+03  0.40873817792E+03  0.12000000000E+03 0.  0.
<mgrwt>
<rscale>  0 0.25478074E+03</rscale>
<asrwt>0</asrwt>
<pdfrwt beam="1">  1        1 0.98937835E-01 0.25478074E+03</pdfrwt>
<pdfrwt beam="2">  1       -1 0.38822553E-02 0.25478074E+03</pdfrwt>
<totfact> 0.81419719E+03</totfact>
</mgrwt>
</event>
<event>
 4    1  0.1726503E-004  0.3354513E+03  0.7818608E-02  0.1068750E+00
         -2   -1    0    0    0  501 -0.00000000000E+00  0.00000000000E+00  0.14301983173E+03  0.14301983173E+03  0.00000000000E+00 0. -1.
          2   -1    0    0  501    0  0.00000000000E+00 -0.00000000000E+00 -0.19669921244E+03  0.19669921244E+03  0.00000000000E+00 0. -1.
         25    1    1    2    0    0 -0.20960666192E+02 -0.97978114465E+02  0.34702080039E+02  0.16013523910E+03  0.12000000000E+03 0.  0.
         25    1    1    2    0    0  0.20960666192E+02  0.97978114465E+02 -0.88381460748E+02  0.17958380508E+03  0.12000000000E+03 0.  0.
<mgrwt>
<rscale>  0 0.33545127E+03</rscale>
<asrwt>0</asrwt>
<pdfrwt beam="1">  1        2 0.30261417E-01 0.33545127E+03</pdfrwt>
<pdfrwt beam="2">  1       -2 0.22003051E-01 0.33545127E+03</pdfrwt>
<totfact> 0.31010337E+03</totfact>
</mgrwt>
</event>
<event>
 4    1  0.1726503E-004  0.3290309E+03  0.7818608E-02  0.1071566E+00
          4   -1    0    0  501    0  0.00000000000E+00  0.00000000000E+00  0.46471657290E+03  0.46471657290E+03  0.00000000000E+00 0.  1.
         -4   -1    0    0    0  501 -0.00000000000E+00 -0.00000000000E+00 -0.58240524697E+02  0.58240524697E+02  0.00000000000E+00 0.  1.
         25    1    1    2    0    0 -0.96322567094E+02 -0.56125112459E+02  0.22772033814E+03  0.28050778524E+03  0.12000000000E+03 0.  0.
         25    1    1    2    0    0  0.96322567094E+02  0.56125112459E+02  0.17875571006E+03  0.24244931235E+03  0.12000000000E+03 0.  0.
<mgrwt>
<rscale>  0 0.32903092E+03</rscale>
<asrwt>0</asrwt>
<pdfrwt beam="1">  1        4 0.71494855E-01 0.32903092E+03</pdfrwt>
<pdfrwt beam="2">  1       -4 0.89600810E-02 0.32903092E+03</pdfrwt>
<totfact> 0.31754693E+02</totfact>
</mgrwt>
</event>
<event>
 4    1  0.1726503E-004  0.2533670E+03  0.7818608E-02  0.1111195E+00
         -1   -1    0    0    0  501 -0.00000000000E+00  0.00000000000E+00  0.21648249843E+02  0.21648249843E+02  0.00000000000E+00 0. -1.
          1   -1    0    0  501    0  0.00000000000E+00 -0.00000000000E+00 -0.74133953066E+03  0.74133953066E+03  0.00000000000E+00 0. -1.
         25    1    1    2    0    0 -0.34538966993E+01 -0.34686362828E+02 -0.29713700111E+03  0.32234371500E+03  0.12000000000E+03 0.  0.
         25    1    1    2    0    0  0.34538966993E+01  0.34686362828E+02 -0.42255427971E+03  0.44064406551E+03  0.12000000000E+03 0.  0.
<mgrwt>
<rscale>  0 0.25336695E+03</rscale>
<asrwt>0</asrwt>
<pdfrwt beam="1">  1        1 0.11405224E+00 0.25336695E+03</pdfrwt>
<pdfrwt beam="2">  1       -1 0.33304998E-02 0.25336695E+03</pdfrwt>
<totfact> 0.83114152E+03</totfact>
</mgrwt>
</event>
<event>
 4    1  0.1726503E-004  0.2852818E+03  0.7818608E-02  0.1092839E+00
         -1   -1    0    0    0  501 -0.00000000000E+00  0.00000000000E+00  0.98123585524E+02  0.98123585524E+02  0.00000000000E+00 0. -1.
          1   -1    0    0  501    0  0.00000000000E+00 -0.00000000000E+00 -0.20735504274E+03  0.20735504274E+03  0.00000000000E+00 0. -1.
         25    1    1    2    0    0  0.56792803652E+02 -0.51170669876E+02 -0.43771556461E+02  0.14886171152E+03  0.12000000000E+03 0.  0.
         25    1    1    2    0    0 -0.56792803652E+02  0.51170669876E+02 -0.65459900751E+02  0.15661691674E+03  0.12000000000E+03 0.  0.
<mgrwt>
<rscale>  0 0.28528176E+03</rscale>
<asrwt>0</asrwt>
<pdfrwt beam="1">  1        1 0.31900776E-01 0.28528176E+03</pdfrwt>
<pdfrwt beam="2">  1       -1 0.15095936E-01 0.28528176E+03</pdfrwt>
<totfact> 0.44348766E+03</totfact>
</mgrwt>
</event>
<event>
 4    1  0.1726503E-004  0.2772266E+03  0.7818608E-02  0.1097213E+00
         -2   -1    0    0    0  501 -0.00000000000E+00  0.00000000000E+00  0.96322670565E+01  0.96322670565E+01  0.00000000000E+00 0. -1.
          2   -1    0    0  501    0  0.00000000000E+00 -0.00000000000E+00 -0.19947171958E+04  0.19947171958E+04  0.00000000000E+00 0. -1.
         25    1    1    2    0    0  0.53609776365E+02  0.43820553168E+02 -0.10243871061E+04  0.10337133027E+04  0.12000000000E+03 0.  0.
         25    1    1    2    0    0 -0.53609776365E+02 -0.43820553168E+02 -0.96069782258E+03  0.97063616011E+03  0.12000000000E+03 0.  0.
<mgrwt>
<rscale>  0 0.27722661E+03</rscale>
<asrwt>0</asrwt>
<pdfrwt beam="1">  1        2 0.30687955E+00 0.27722661E+03</pdfrwt>
<pdfrwt beam="2">  1       -2 0.14818873E-02 0.27722661E+03</pdfrwt>
<totfact> 0.89807505E+03</totfact>
</mgrwt>
</event>
<event>
 4    1  0.1726503E-004  0.2451421E+03  0.7818608E-02  0.1116414E+00
         -1   -1    0    0    0  501 -0.00000000000E+00  0.00000000000E+00  0.43198658422E+02  0.43198658422E+02  0.00000000000E+00 0. -1.
          1   -1    0    0  501    0  0.00000000000E+00 -0.00000000000E+00 -0.34778065164E+03  0.34778065164E+03  0.00000000000E+00 0. -1.
         25    1    1    2    0    0 -0.20378948788E+02  0.45547499002E+00 -0.17530131630E+03  0.21341523026E+03  0.12000000000E+03 0.  0.
         25    1    1    2    0    0  0.20378948788E+02 -0.45547499002E+00 -0.12928067692E+03  0.17756407980E+03  0.12000000000E+03 0.  0.
<mgrwt>
<rscale>  0 0.24514206E+03</rscale>
<asrwt>0</asrwt>
<pdfrwt beam="1">  1        1 0.53504713E-01 0.24514206E+03</pdfrwt>
<pdfrwt beam="2">  1       -1 0.66459478E-02 0.24514206E+03</pdfrwt>
<totfact> 0.81888319E+03</totfact>
</mgrwt>
</event>
<event>
 4    1  0.1726503E-004  0.5017096E+03  0.7818608E-02  0.1013334E+00
          1   -1    0    0  501    0  0.00000000000E+00  0.00000000000E+00  0.99895293211E+03  0.99895293211E+03  0.00000000000E+00 0. -1.
         -1   -1    0    0    0  501 -0.00000000000E+00 -0.00000000000E+00 -0.62994082675E+02  0.62994082675E+02  0.00000000000E+00 0. -1.
         25    1    1    2    0    0 -0.91084972926E+02 -0.75882836789E+02  0.74979186897E+02  0.18459836316E+03  0.12000000000E+03 0.  0.
         25    1    1    2    0    0  0.91084972926E+02  0.75882836789E+02  0.86097966254E+03  0.87734865163E+03  0.12000000000E+03 0.  0.
<mgrwt>
<rscale>  0 0.50170957E+03</rscale>
<asrwt>0</asrwt>
<pdfrwt beam="1">  1        1 0.15368506E+00 0.50170957E+03</pdfrwt>
<pdfrwt beam="2">  1       -1 0.96913980E-02 0.50170957E+03</pdfrwt>
<totfact> 0.10195002E+03</totfact>
</mgrwt>
</event>
<event>
 4    1  0.1726503E-004  0.3222839E+03  0.7818608E-02  0.1074603E+00
         -1   -1    0    0    0  501 -0.00000000000E+00  0.00000000000E+00  0.36872420730E+02  0.36872420730E+02  0.00000000000E+00 0. -1.
          1   -1    0    0  501    0  0.00000000000E+00 -0.00000000000E+00 -0.70423153337E+03  0.70423153337E+03  0.00000000000E+00 0. -1.
         25    1    1    2    0    0 -0.22895620373E+02  0.57383737631E+01 -0.57496216021E+03  0.58782533464E+03  0.12000000000E+03 0.  0.
         25    1    1    2    0    0  0.22895620373E+02 -0.57383737631E+01 -0.92396952422E+02  0.15327861946E+03  0.12000000000E+03 0.  0.
<mgrwt>
<rscale>  0 0.32228386E+03</rscale>
<asrwt>0</asrwt>
<pdfrwt beam="1">  1        1 0.10834330E+00 0.32228386E+03</pdfrwt>
<pdfrwt beam="2">  1       -1 0.56726806E-02 0.32228386E+03</pdfrwt>
<totfact> 0.40717499E+03</totfact>
</mgrwt>
</event>
<event>
 4    1  0.1726503E-004  0.3131776E+03  0.7818608E-02  0.1078833E+00
          2   -1    0    0  501    0  0.00000000000E+00  0.00000000000E+00  0.97680400523E+02  0.97680400523E+02  0.00000000000E+00 0.  1.
         -2   -1    0    0    0  501 -0.00000000000E+00 -0.00000000000E+00 -0.25102320298E+03  0.25102320298E+03  0.00000000000E+00 0.  1.
         25    1    1    2    0    0 -0.16731427003E+02  0.99193614692E+02 -0.75718021671E+02  0.17393255202E+03  0.12000000000E+03 0.  0.
         25    1    1    2    0    0  0.16731427003E+02 -0.99193614692E+02 -0.77624780782E+02  0.17477105148E+03  0.12000000000E+03 0.  0.
<mgrwt>
<rscale>  0 0.31317757E+03</rscale>
<asrwt>0</asrwt>
<pdfrwt beam="1">  1        2 0.15027754E-01 0.31317757E+03</pdfrwt>
<pdfrwt beam="2">  1       -2 0.38618955E-01 0.31317757E+03</pdfrwt>
<totfact> 0.24817598E+03</totfact>
</mgrwt>
</event>
<event>
 4    1  0.1726503E-004  0.2526277E+03  0.7818608E-02  0.1111655E+00
          2   -1    0    0  501    0  0.00000000000E+00  0.00000000000E+00  0.19341181604E+04  0.19341181604E+04  0.00000000000E+00 0.  1.
         -2   -1    0    0    0  501 -0.00000000000E+00 -0.00000000000E+00 -0.82493371764E+01  0.82493371764E+01  0.00000000000E+00 0.  1.
         25    1    1    2    0    0 -0.12632092819E+01  0.38356225586E+02  0.89314229746E+03  0.90198445621E+03  0.12000000000E+03 0.  0.
         25    1    1    2    0    0  0.12632092819E+01 -0.38356225586E+02  0.10327265257E+04  0.10403830413E+04  0.12000000000E+03 0.  0.
<mgrwt>
<rscale>  0 0.25262773E+03</rscale>
<asrwt>0</asrwt>
<pdfrwt beam="1">  1        2 0.29755628E+00 0.25262773E+03</pdfrwt>
<pdfrwt beam="2">  1       -2 0.12691303E-02 0.25262773E+03</pdfrwt>
<totfact> 0.12099313E+04</totfact>
</mgrwt>
</event>
<event>
 4    1  0.1726503E-004  0.2609629E+03  0.7818608E-02  0.1106566E+00
          1   -1    0    0  501    0  0.00000000000E+00  0.00000000000E+00  0.36398815063E+03  0.36398815063E+03  0.00000000000E+00 0. -1.
         -1   -1    0    0    0  501 -0.00000000000E+00 -0.00000000000E+00 -0.46774621449E+02  0.46774621449E+02  0.00000000000E+00 0. -1.
         25    1    1    2    0    0  0.13191400946E+02  0.20659952955E+00  0.80674880687E+02  0.14519811334E+03  0.12000000000E+03 0.  0.
         25    1    1    2    0    0 -0.13191400946E+02 -0.20659952955E+00  0.23653864850E+03  0.26556465875E+03  0.12000000000E+03 0.  0.
<mgrwt>
<rscale>  0 0.26096289E+03</rscale>
<asrwt>0</asrwt>
<pdfrwt beam="1">  1        1 0.55998175E-01 0.26096289E+03</pdfrwt>
<pdfrwt beam="2">  1       -1 0.71960959E-02 0.26096289E+03</pdfrwt>
<totfact> 0.68690856E+03</totfact>
</mgrwt>
</event>
<event>
 4    1  0.1726503E-004  0.2624507E+03  0.7818608E-02  0.1105680E+00
         -2   -1    0    0    0  501 -0.00000000000E+00  0.00000000000E+00  0.19826751935E+02  0.19826751935E+02  0.00000000000E+00 0. -1.
          2   -1    0    0  501    0  0.00000000000E+00 -0.00000000000E+00 -0.86852804894E+03  0.86852804894E+03  0.00000000000E+00 0. -1.
         25    1    1    2    0    0 -0.32666578666E+02  0.17197757099E+02 -0.29513901955E+03  0.32073339251E+03  0.12000000000E+03 0.  0.
         25    1    1    2    0    0  0.32666578666E+02 -0.17197757099E+02 -0.55356227746E+03  0.56762140837E+03  0.12000000000E+03 0.  0.
<mgrwt>
<rscale>  0 0.26245068E+03</rscale>
<asrwt>0</asrwt>
<pdfrwt beam="1">  1        2 0.13361968E+00 0.26245068E+03</pdfrwt>
<pdfrwt beam="2">  1       -2 0.30502699E-02 0.26245068E+03</pdfrwt>
<totfact> 0.13092626E+04</totfact>
</mgrwt>
</event>
<event>
 4    1  0.1726503E-004  0.2476694E+03  0.7818608E-02  0.1114787E+00
         -2   -1    0    0    0  501 -0.00000000000E+00  0.00000000000E+00  0.57175163585E+02  0.57175163585E+02  0.00000000000E+00 0. -1.
          2   -1    0    0  501    0  0.00000000000E+00 -0.00000000000E+00 -0.26821154668E+03  0.26821154668E+03  0.00000000000E+00 0. -1.
         25    1    1    2    0    0  0.15669474773E+02 -0.21701823063E+02 -0.86096352515E+02  0.15009691363E+03  0.12000000000E+03 0.  0.
         25    1    1    2    0    0 -0.15669474773E+02  0.21701823063E+02 -0.12494003058E+03  0.17528979663E+03  0.12000000000E+03 0.  0.
<mgrwt>
<rscale>  0 0.24766945E+03</rscale>
<asrwt>0</asrwt>
<pdfrwt beam="1">  1        2 0.41263315E-01 0.24766945E+03</pdfrwt>
<pdfrwt beam="2">  1       -2 0.87961790E-02 0.24766945E+03</pdfrwt>
<totfact> 0.99063500E+03</totfact>
</mgrwt>
</event>
<event>
 4    1  0.1726503E-004  0.2862484E+03  0.7818608E-02  0.1092324E+00
          2   -1    0    0  501    0  0.00000000000E+00  0.00000000000E+00  0.23655964920E+04  0.23655964920E+04  0.00000000000E+00 0.  1.
         -2   -1    0    0    0  501 -0.00000000000E+00 -0.00000000000E+00 -0.86593532981E+01  0.86593532981E+01  0.00000000000E+00 0.  1.
         25    1    1    2    0    0  0.10961567594E+02 -0.75658222051E+02  0.13070217844E+04  0.13147434226E+04  0.12000000000E+03 0.  0.
         25    1    1    2    0    0 -0.10961567594E+02  0.75658222051E+02  0.10499153543E+04  0.10595124226E+04  0.12000000000E+03 0.  0.
<mgrwt>
<rscale>  0 0.28624839E+03</rscale>
<asrwt>0</asrwt>
<pdfrwt beam="1">  1        2 0.36393741E+00 0.28624839E+03</pdfrwt>
<pdfrwt beam="2">  1       -2 0.13322101E-02 0.28624839E+03</pdfrwt>
<totfact> 0.66614141E+03</totfact>
</mgrwt>
</event>
<event>
 4    1  0.1726503E-004  0.2715226E+03  0.7818608E-02  0.1100411E+00
          2   -1    0    0  501    0  0.00000000000E+00  0.00000000000E+00  0.29010338046E+03  0.29010338046E+03  0.00000000000E+00 0. -1.
         -2   -1    0    0    0  501 -0.00000000000E+00 -0.00000000000E+00 -0.63532994453E+02  0.63532994453E+02  0.00000000000E+00 0. -1.
         25    1    1    2    0    0 -0.58451430280E+02  0.18001030587E+02  0.13548484229E+03  0.19104122407E+03  0.12000000000E+03 0.  0.
         25    1    1    2    0    0  0.58451430280E+02 -0.18001030587E+02  0.91085543719E+02  0.16259515085E+03  0.12000000000E+03 0.  0.
<mgrwt>
<rscale>  0 0.27152264E+03</rscale>
<asrwt>0</asrwt>
<pdfrwt beam="1">  1        2 0.44631289E-01 0.27152264E+03</pdfrwt>
<pdfrwt beam="2">  1       -2 0.97743070E-02 0.27152264E+03</pdfrwt>
<totfact> 0.77402015E+03</totfact>
</mgrwt>
</event>
<event>
 4    1  0.1726503E-004  0.3264130E+03  0.7818608E-02  0.1072735E+00
          3   -1    0    0  501    0  0.00000000000E+00  0.00000000000E+00  0.15093720218E+03  0.15093720218E+03  0.00000000000E+00 0.  1.
         -3   -1    0    0    0  501 -0.00000000000E+00 -0.00000000000E+00 -0.17647316018E+03  0.17647316018E+03  0.00000000000E+00 0.  1.
         25    1    1    2    0    0 -0.49430237180E+02  0.78620815588E+02 -0.73049726640E+02  0.16840678001E+03  0.12000000000E+03 0.  0.
         25    1    1    2    0    0  0.49430237180E+02 -0.78620815588E+02  0.47513768644E+02  0.15900358236E+03  0.12000000000E+03 0.  0.
<mgrwt>
<rscale>  0 0.32641302E+03</rscale>
<asrwt>0</asrwt>
<pdfrwt beam="1">  1        3 0.23221108E-01 0.32641302E+03</pdfrwt>
<pdfrwt beam="2">  1       -3 0.27149717E-01 0.32641302E+03</pdfrwt>
<totfact> 0.57243027E+02</totfact>
</mgrwt>
</event>
<event>
 4    1  0.1726503E-004  0.2777307E+03  0.7818608E-02  0.1096935E+00
          1   -1    0    0  501    0  0.00000000000E+00  0.00000000000E+00  0.78890118003E+03  0.78890118003E+03  0.00000000000E+00 0.  1.
         -1   -1    0    0    0  501 -0.00000000000E+00 -0.00000000000E+00 -0.24443607010E+02  0.24443607010E+02  0.00000000000E+00 0.  1.
         25    1    1    2    0    0 -0.44603365388E+02 -0.46950340437E+02  0.30531379481E+03  0.33438048384E+03  0.12000000000E+03 0.  0.
         25    1    1    2    0    0  0.44603365388E+02  0.46950340437E+02  0.45914377821E+03  0.47896430320E+03  0.12000000000E+03 0.  0.
<mgrwt>
<rscale>  0 0.27773074E+03</rscale>
<asrwt>0</asrwt>
<pdfrwt beam="1">  1        1 0.12136939E+00 0.27773074E+03</pdfrwt>
<pdfrwt beam="2">  1       -1 0.37605555E-02 0.27773074E+03</pdfrwt>
<totfact> 0.63385703E+03</totfact>
</mgrwt>
</event>
<event>
 4    1  0.1726503E-004  0.4655909E+03  0.7818608E-02  0.1023172E+00
          2   -1    0    0  501    0  0.00000000000E+00  0.00000000000E+00  0.36806145920E+03  0.36806145920E+03  0.00000000000E+00 0. -1.
         -2   -1    0    0    0  501 -0.00000000000E+00 -0.00000000000E+00 -0.14724092658E+03  0.14724092658E+03  0.00000000000E+00 0. -1.
         25    1    1    2    0    0  0.16445703901E+03  0.35963454467E+02 -0.80412224278E+01  0.20689163587E+03  0.12000000000E+03 0.  0.
         25    1    1    2    0    0 -0.16445703901E+03 -0.35963454467E+02  0.22886175505E+03  0.30841074991E+03  0.12000000000E+03 0.  0.
<mgrwt>
<rscale>  0 0.46559085E+03</rscale>
<asrwt>0</asrwt>
<pdfrwt beam="1">  1        2 0.56624840E-01 0.46559085E+03</pdfrwt>
<pdfrwt beam="2">  1       -2 0.22652450E-01 0.46559085E+03</pdfrwt>
<totfact> 0.14898618E+03</totfact>
</mgrwt>
</event>
<event>
 4    1  0.1726503E-004  0.3145652E+03  0.7818608E-02  0.1078178E+00
          2   -1    0    0  501    0  0.00000000000E+00  0.00000000000E+00  0.42570325288E+02  0.42570325288E+02  0.00000000000E+00 0.  1.
         -2   -1    0    0    0  501 -0.00000000000E+00 -0.00000000000E+00 -0.58110463470E+03  0.58110463470E+03  0.00000000000E+00 0.  1.
         25    1    1    2    0    0 -0.67584492458E+02 -0.30319018170E+01 -0.41975276900E+03  0.44177963187E+03  0.12000000000E+03 0.  0.
         25    1    1    2    0    0  0.67584492458E+02  0.30319018170E+01 -0.11878154041E+03  0.18189532812E+03  0.12000000000E+03 0.  0.
<mgrwt>
<rscale>  0 0.31456518E+03</rscale>
<asrwt>0</asrwt>
<pdfrwt beam="1">  1        2 0.65492816E-02 0.31456518E+03</pdfrwt>
<pdfrwt beam="2">  1       -2 0.89400703E-01 0.31456518E+03</pdfrwt>
<totfact> 0.12266736E+03</totfact>
</mgrwt>
</event>
<event>
 4    1  0.1726503E-004  0.3137297E+03  0.7818608E-02  0.1078572E+00
         -1   -1    0    0    0  501 -0.00000000000E+00  0.00000000000E+00  0.23262835507E+02  0.23262835507E+02  0.00000000000E+00 0. -1.
          1   -1    0    0  501    0  0.00000000000E+00 -0.00000000000E+00 -0.10577635327E+04  0.10577635327E+04  0.00000000000E+00 0. -1.
         25    1    1    2    0    0  0.44303644495E+02 -0.28088603839E+02 -0.21974240400E+03  0.25580951252E+03  0.12000000000E+03 0.  0.
         25    1    1    2    0    0 -0.44303644495E+02  0.28088603839E+02 -0.81475829319E+03  0.82521685568E+03  0.12000000000E+03 0.  0.
<mgrwt>
<rscale>  0 0.31372969E+03</rscale>
<asrwt>0</asrwt>
<pdfrwt beam="1">  1        1 0.16273286E+00 0.31372969E+03</pdfrwt>
<pdfrwt beam="2">  1       -1 0.35788976E-02 0.31372969E+03</pdfrwt>
<totfact> 0.42136853E+03</totfact>
</mgrwt>
</event>
<event>
 4    1  0.1726503E-004  0.4645629E+03  0.7818608E-02  0.1023466E+00
          1   -1    0    0  501    0  0.00000000000E+00  0.00000000000E+00  0.81384899864E+03  0.81384899864E+03  0.00000000000E+00 0.  1.
         -1   -1    0    0    0  501 -0.00000000000E+00 -0.00000000000E+00 -0.66295690927E+02  0.66295690927E+02  0.00000000000E+00 0.  1.
         25    1    1    2    0    0 -0.29380800449E+02  0.18515453450E+03  0.24797342075E+03  0.33322102347E+03  0.12000000000E+03 0.  0.
         25    1    1    2    0    0  0.29380800449E+02 -0.18515453450E+03  0.49957988696E+03  0.54692366610E+03  0.12000000000E+03 0.  0.
<mgrwt>
<rscale>  0 0.46456294E+03</rscale>
<asrwt>0</asrwt>
<pdfrwt beam="1">  1        1 0.12520753E+00 0.46456294E+03</pdfrwt>
<pdfrwt beam="2">  1       -1 0.10199338E-01 0.46456294E+03</pdfrwt>
<totfact> 0.13254115E+03</totfact>
</mgrwt>
</event>
<event>
 4    1  0.1726503E-004  0.2758905E+03  0.7818608E-02  0.1097955E+00
         -2   -1    0    0    0  501 -0.00000000000E+00  0.00000000000E+00  0.51622358694E+02  0.51622358694E+02  0.00000000000E+00 0. -1.
          2   -1    0    0  501    0  0.00000000000E+00 -0.00000000000E+00 -0.36861714341E+03  0.36861714341E+03  0.00000000000E+00 0. -1.
         25    1    1    2    0    0 -0.64629421424E+02 -0.18794732706E+02 -0.17362881766E+03  0.22153367783E+03  0.12000000000E+03 0.  0.
         25    1    1    2    0    0  0.64629421424E+02  0.18794732706E+02 -0.14336596706E+03  0.19870582428E+03  0.12000000000E+03 0.  0.
<mgrwt>
<rscale>  0 0.27589046E+03</rscale>
<asrwt>0</asrwt>
<pdfrwt beam="1">  1        2 0.56710330E-01 0.27589046E+03</pdfrwt>
<pdfrwt beam="2">  1       -2 0.79419013E-02 0.27589046E+03</pdfrwt>
<totfact> 0.82950435E+03</totfact>
</mgrwt>
</event>
<event>
 4    1  0.1726503E-004  0.2608614E+03  0.7818608E-02  0.1106627E+00
         -2   -1    0    0    0  501 -0.00000000000E+00  0.00000000000E+00  0.25338640939E+02  0.25338640939E+02  0.00000000000E+00 0. -1.
          2   -1    0    0  501    0  0.00000000000E+00 -0.00000000000E+00 -0.67139222345E+03  0.67139222345E+03  0.00000000000E+00 0. -1.
         25    1    1    2    0    0  0.42906952828E+02 -0.25747560645E+02 -0.29524149546E+03  0.32260112232E+03  0.12000000000E+03 0.  0.
         25    1    1    2    0    0 -0.42906952828E+02  0.25747560645E+02 -0.35081208704E+03  0.37412974206E+03  0.12000000000E+03 0.  0.
<mgrwt>
<rscale>  0 0.26086139E+03</rscale>
<asrwt>0</asrwt>
<pdfrwt beam="1">  1        2 0.10329112E+00 0.26086139E+03</pdfrwt>
<pdfrwt beam="2">  1       -2 0.38982523E-02 0.26086139E+03</pdfrwt>
<totfact> 0.12519695E+04</totfact>
</mgrwt>
</event>
<event>
 4    1  0.1726503E-004  0.2952489E+03  0.7818608E-02  0.1087640E+00
          2   -1    0    0  501    0  0.00000000000E+00  0.00000000000E+00  0.27019276249E+03  0.27019276249E+03  0.00000000000E+00 0. -1.
         -2   -1    0    0    0  501 -0.00000000000E+00 -0.00000000000E+00 -0.80657131171E+02  0.80657131171E+02  0.00000000000E+00 0. -1.
         25    1    1    2    0    0  0.74861395657E+02  0.13961430857E+02  0.14220874126E+03  0.20105341629E+03  0.12000000000E+03 0.  0.
         25    1    1    2    0    0 -0.74861395657E+02 -0.13961430857E+02  0.47326890064E+02  0.14979647738E+03  0.12000000000E+03 0.  0.
<mgrwt>
<rscale>  0 0.29524887E+03</rscale>
<asrwt>0</asrwt>
<pdfrwt beam="1">  1        2 0.41568117E-01 0.29524887E+03</pdfrwt>
<pdfrwt beam="2">  1       -2 0.12408790E-01 0.29524887E+03</pdfrwt>
<totfact> 0.57153154E+03</totfact>
</mgrwt>
</event>
<event>
 4    1  0.1726503E-004  0.2832896E+03  0.7818608E-02  0.1093906E+00
          2   -1    0    0  501    0  0.00000000000E+00  0.00000000000E+00  0.58924480307E+03  0.58924480307E+03  0.00000000000E+00 0. -1.
         -2   -1    0    0    0  501 -0.00000000000E+00 -0.00000000000E+00 -0.34049088255E+02  0.34049088255E+02  0.00000000000E+00 0. -1.
         25    1    1    2    0    0 -0.24596090511E+02  0.31246189777E+02  0.13702663411E+03  0.18643387702E+03  0.12000000000E+03 0.  0.
         25    1    1    2    0    0  0.24596090511E+02 -0.31246189777E+02  0.41816908070E+03  0.43686001431E+03  0.12000000000E+03 0.  0.
<mgrwt>
<rscale>  0 0.28328959E+03</rscale>
<asrwt>0</asrwt>
<pdfrwt beam="1">  1        2 0.90653039E-01 0.28328959E+03</pdfrwt>
<pdfrwt beam="2">  1       -2 0.52383217E-02 0.28328959E+03</pdfrwt>
<totfact> 0.93661536E+03</totfact>
</mgrwt>
</event>
<event>
 4    1  0.1726503E-004  0.3953034E+03  0.7818608E-02  0.1045418E+00
          2   -1    0    0  501    0  0.00000000000E+00  0.00000000000E+00  0.15516635643E+04  0.15516635643E+04  0.00000000000E+00 0.  1.
         -2   -1    0    0    0  501 -0.00000000000E+00 -0.00000000000E+00 -0.25176975951E+02  0.25176975951E+02  0.00000000000E+00 0.  1.
         25    1    1    2    0    0 -0.82036844251E+02  0.11870669617E+03  0.51590110462E+03  0.54897656897E+03  0.12000000000E+03 0.  0.
         25    1    1    2    0    0  0.82036844251E+02 -0.11870669617E+03  0.10105854837E+04  0.10278639713E+04  0.12000000000E+03 0.  0.
<mgrwt>
<rscale>  0 0.39530341E+03</rscale>
<asrwt>0</asrwt>
<pdfrwt beam="1">  1        2 0.23871740E+00 0.39530341E+03</pdfrwt>
<pdfrwt beam="2">  1       -2 0.38733821E-02 0.39530341E+03</pdfrwt>
<totfact> 0.36967918E+03</totfact>
</mgrwt>
</event>
<event>
 4    1  0.1726503E-004  0.3485469E+03  0.7818608E-02  0.1063213E+00
          4   -1    0    0  501    0  0.00000000000E+00  0.00000000000E+00  0.10422276091E+03  0.10422276091E+03  0.00000000000E+00 0. -1.
         -4   -1    0    0    0  501 -0.00000000000E+00 -0.00000000000E+00 -0.29140700899E+03  0.29140700899E+03  0.00000000000E+00 0. -1.
         25    1    1    2    0    0  0.80279589695E+02  0.63333169771E+02 -0.92947912069E+01  0.15793130171E+03  0.12000000000E+03 0.  0.
         25    1    1    2    0    0 -0.80279589695E+02 -0.63333169771E+02 -0.17788945687E+03  0.23769846819E+03  0.12000000000E+03 0.  0.
<mgrwt>
<rscale>  0 0.34854694E+03</rscale>
<asrwt>0</asrwt>
<pdfrwt beam="1">  1        4 0.16034271E-01 0.34854694E+03</pdfrwt>
<pdfrwt beam="2">  1       -4 0.44831847E-01 0.34854694E+03</pdfrwt>
<totfact> 0.31199047E+02</totfact>
</mgrwt>
</event>
<event>
 4    1  0.1726503E-004  0.3150927E+03  0.7818608E-02  0.1077930E+00
          4   -1    0    0  501    0  0.00000000000E+00  0.00000000000E+00  0.18102390322E+03  0.18102390322E+03  0.00000000000E+00 0. -1.
         -4   -1    0    0    0  501 -0.00000000000E+00 -0.00000000000E+00 -0.13711369553E+03  0.13711369553E+03  0.00000000000E+00 0. -1.
         25    1    1    2    0    0 -0.21431026168E+02  0.28360823790E+02  0.11857325234E+03  0.17240429629E+03  0.12000000000E+03 0.  0.
         25    1    1    2    0    0  0.21431026168E+02 -0.28360823790E+02 -0.74663044651E+02  0.14573330246E+03  0.12000000000E+03 0.  0.
<mgrwt>
<rscale>  0 0.31509273E+03</rscale>
<asrwt>0</asrwt>
<pdfrwt beam="1">  1        4 0.27849831E-01 0.31509273E+03</pdfrwt>
<pdfrwt beam="2">  1       -4 0.21094415E-01 0.31509273E+03</pdfrwt>
<totfact> 0.47765089E+02</totfact>
</mgrwt>
</event>
<event>
 4    1  0.1726503E-004  0.2679614E+03  0.7818608E-02  0.1102452E+00
         -2   -1    0    0    0  501 -0.00000000000E+00  0.00000000000E+00  0.27561307963E+02  0.27561307963E+02  0.00000000000E+00 0. -1.
          2   -1    0    0  501    0  0.00000000000E+00 -0.00000000000E+00 -0.65130525270E+03  0.65130525270E+03  0.00000000000E+00 0. -1.
         25    1    1    2    0    0 -0.42548802689E+02  0.41140799651E+02 -0.29434558513E+03  0.32333000091E+03  0.12000000000E+03 0.  0.
         25    1    1    2    0    0  0.42548802689E+02 -0.41140799651E+02 -0.32939835960E+03  0.35553655975E+03  0.12000000000E+03 0.  0.
<mgrwt>
<rscale>  0 0.26796138E+03</rscale>
<asrwt>0</asrwt>
<pdfrwt beam="1">  1        2 0.10020080E+00 0.26796138E+03</pdfrwt>
<pdfrwt beam="2">  1       -2 0.42402017E-02 0.26796138E+03</pdfrwt>
<totfact> 0.11451337E+04</totfact>
</mgrwt>
</event>
<event>
 4    1  0.1726503E-004  0.2788287E+03  0.7818608E-02  0.1096330E+00
         -1   -1    0    0    0  501 -0.00000000000E+00  0.00000000000E+00  0.51614320922E+02  0.51614320922E+02  0.00000000000E+00 0. -1.
          1   -1    0    0  501    0  0.00000000000E+00 -0.00000000000E+00 -0.37656918353E+03  0.37656918353E+03  0.00000000000E+00 0. -1.
         25    1    1    2    0    0  0.29095948706E+02 -0.42147795048E+02 -0.87037243760E+02  0.15683906611E+03  0.12000000000E+03 0.  0.
         25    1    1    2    0    0 -0.29095948706E+02  0.42147795048E+02 -0.23791761885E+03  0.27134443834E+03  0.12000000000E+03 0.  0.
<mgrwt>
<rscale>  0 0.27882871E+03</rscale>
<asrwt>0</asrwt>
<pdfrwt beam="1">  1        1 0.57933721E-01 0.27882871E+03</pdfrwt>
<pdfrwt beam="2">  1       -1 0.79406647E-02 0.27882871E+03</pdfrwt>
<totfact> 0.56750350E+03</totfact>
</mgrwt>
</event>
<event>
 4    1  0.1726503E-004  0.3337735E+03  0.7818608E-02  0.1069479E+00
          2   -1    0    0  501    0  0.00000000000E+00  0.00000000000E+00  0.31112428119E+03  0.31112428119E+03  0.00000000000E+00 0. -1.
         -2   -1    0    0    0  501 -0.00000000000E+00 -0.00000000000E+00 -0.89517872206E+02  0.89517872206E+02  0.00000000000E+00 0. -1.
         25    1    1    2    0    0 -0.55079886875E+02 -0.49680846104E+01  0.23317157493E+03  0.26800645358E+03  0.12000000000E+03 0.  0.
         25    1    1    2    0    0  0.55079886875E+02  0.49680846104E+01 -0.11565165948E+02  0.13263569982E+03  0.12000000000E+03 0.  0.
<mgrwt>
<rscale>  0 0.33377348E+03</rscale>
<asrwt>0</asrwt>
<pdfrwt beam="1">  1        2 0.47865273E-01 0.33377348E+03</pdfrwt>
<pdfrwt beam="2">  1       -2 0.13771981E-01 0.33377348E+03</pdfrwt>
<totfact> 0.41529597E+03</totfact>
</mgrwt>
</event>
<event>
 4    1  0.1726503E-004  0.2487253E+03  0.7818608E-02  0.1114113E+00
          1   -1    0    0  501    0  0.00000000000E+00  0.00000000000E+00  0.42821271647E+03  0.42821271647E+03  0.00000000000E+00 0. -1.
         -1   -1    0    0    0  501 -0.00000000000E+00 -0.00000000000E+00 -0.36117710236E+02  0.36117710236E+02  0.00000000000E+00 0. -1.
         25    1    1    2    0    0 -0.44548831109E+01  0.32285067424E+02  0.19236492576E+03  0.22905553088E+03  0.12000000000E+03 0.  0.
         25    1    1    2    0    0  0.44548831109E+01 -0.32285067424E+02  0.19973008047E+03  0.23527489583E+03  0.12000000000E+03 0.  0.
<mgrwt>
<rscale>  0 0.24872525E+03</rscale>
<asrwt>0</asrwt>
<pdfrwt beam="1">  1        1 0.65878876E-01 0.24872525E+03</pdfrwt>
<pdfrwt beam="2">  1       -1 0.55565711E-02 0.24872525E+03</pdfrwt>
<totfact> 0.82286598E+03</totfact>
</mgrwt>
</event>
<event>
 4    1  0.1726503E-004  0.2531523E+03  0.7818608E-02  0.1111329E+00
         -2   -1    0    0    0  501 -0.00000000000E+00  0.00000000000E+00  0.11470805055E+02  0.11470805055E+02  0.00000000000E+00 0. -1.
          2   -1    0    0  501    0  0.00000000000E+00 -0.00000000000E+00 -0.13967211477E+04  0.13967211477E+04  0.00000000000E+00 0. -1.
         25    1    1    2    0    0 -0.20727372385E+02 -0.28779647288E+02 -0.58655181977E+03  0.59975072267E+03  0.12000000000E+03 0.  0.
         25    1    1    2    0    0  0.20727372385E+02  0.28779647288E+02 -0.79869852285E+03  0.80844123006E+03  0.12000000000E+03 0.  0.
<mgrwt>
<rscale>  0 0.25315225E+03</rscale>
<asrwt>0</asrwt>
<pdfrwt beam="1">  1        2 0.21488009E+00 0.25315225E+03</pdfrwt>
<pdfrwt beam="2">  1       -2 0.17647400E-02 0.25315225E+03</pdfrwt>
<totfact> 0.14375709E+04</totfact>
</mgrwt>
</event>
<event>
 4    1  0.1726503E-004  0.2643583E+03  0.7818608E-02  0.1104553E+00
         -1   -1    0    0    0  501 -0.00000000000E+00  0.00000000000E+00  0.13527538761E+03  0.13527538761E+03  0.00000000000E+00 0. -1.
          1   -1    0    0  501    0  0.00000000000E+00 -0.00000000000E+00 -0.12915376915E+03  0.12915376915E+03  0.00000000000E+00 0. -1.
         25    1    1    2    0    0  0.42977358846E+02 -0.30164133806E+02 -0.14675211416E+02  0.13180398390E+03  0.12000000000E+03 0.  0.
         25    1    1    2    0    0 -0.42977358846E+02  0.30164133806E+02  0.20796829876E+02  0.13262517285E+03  0.12000000000E+03 0.  0.
<mgrwt>
<rscale>  0 0.26435829E+03</rscale>
<asrwt>0</asrwt>
<pdfrwt beam="1">  1        1 0.19869811E-01 0.26435829E+03</pdfrwt>
<pdfrwt beam="2">  1       -1 0.20811598E-01 0.26435829E+03</pdfrwt>
<totfact> 0.48221672E+03</totfact>
</mgrwt>
</event>
<event>
 4    1  0.1726503E-004  0.2769787E+03  0.7818608E-02  0.1097351E+00
          1   -1    0    0  501    0  0.00000000000E+00  0.00000000000E+00  0.22791836035E+03  0.22791836035E+03  0.00000000000E+00 0. -1.
         -1   -1    0    0    0  501 -0.00000000000E+00 -0.00000000000E+00 -0.84149880237E+02  0.84149880237E+02  0.00000000000E+00 0. -1.
         25    1    1    2    0    0  0.53655671171E+02 -0.41916659741E+02  0.85374652133E+02  0.16224909442E+03  0.12000000000E+03 0.  0.
         25    1    1    2    0    0 -0.53655671171E+02  0.41916659741E+02  0.58393827980E+02  0.14981914617E+03  0.12000000000E+03 0.  0.
<mgrwt>
<rscale>  0 0.27697872E+03</rscale>
<asrwt>0</asrwt>
<pdfrwt beam="1">  1        1 0.35064363E-01 0.27697872E+03</pdfrwt>
<pdfrwt beam="2">  1       -1 0.12946135E-01 0.27697872E+03</pdfrwt>
<totfact> 0.50142157E+03</totfact>
</mgrwt>
</event>
<event>
 4    1  0.1726503E-004  0.2417961E+03  0.7818608E-02  0.1118602E+00
          1   -1    0    0  501    0  0.00000000000E+00  0.00000000000E+00  0.48203994010E+03  0.48203994010E+03  0.00000000000E+00 0.  1.
         -1   -1    0    0    0  501 -0.00000000000E+00 -0.00000000000E+00 -0.30321838529E+02  0.30321838529E+02  0.00000000000E+00 0.  1.
         25    1    1    2    0    0  0.11161195840E+02  0.41088784513E+01  0.20752255573E+03  0.24001472103E+03  0.12000000000E+03 0.  0.
         25    1    1    2    0    0 -0.11161195840E+02 -0.41088784513E+01  0.24419554584E+03  0.27234705760E+03  0.12000000000E+03 0.  0.
<mgrwt>
<rscale>  0 0.24179609E+03</rscale>
<asrwt>0</asrwt>
<pdfrwt beam="1">  1        1 0.74159985E-01 0.24179609E+03</pdfrwt>
<pdfrwt beam="2">  1       -1 0.46648986E-02 0.24179609E+03</pdfrwt>
<totfact> 0.91515564E+03</totfact>
</mgrwt>
</event>
<event>
 4    1  0.1726503E-004  0.2503634E+03  0.7818608E-02  0.1113075E+00
         -2   -1    0    0    0  501 -0.00000000000E+00  0.00000000000E+00  0.77663459401E+01  0.77663459401E+01  0.00000000000E+00 0. -1.
          2   -1    0    0  501    0  0.00000000000E+00 -0.00000000000E+00 -0.20177395384E+04  0.20177395384E+04  0.00000000000E+00 0. -1.
         25    1    1    2    0    0  0.55399016502E+00  0.23665360772E+02 -0.12205745612E+04  0.12266876602E+04  0.12000000000E+03 0.  0.
         25    1    1    2    0    0 -0.55399016502E+00 -0.23665360772E+02 -0.78939863132E+03  0.79881822421E+03  0.12000000000E+03 0.  0.
<mgrwt>
<rscale>  0 0.25036344E+03</rscale>
<asrwt>0</asrwt>
<pdfrwt beam="1">  1        2 0.31042161E+00 0.25036344E+03</pdfrwt>
<pdfrwt beam="2">  1       -2 0.11948219E-02 0.25036344E+03</pdfrwt>
<totfact> 0.11939186E+04</totfact>
</mgrwt>
</event>
<event>
 4    1  0.1726503E-004  0.2753062E+03  0.7818608E-02  0.1098281E+00
          2   -1    0    0  501    0  0.00000000000E+00  0.00000000000E+00  0.12857861730E+03  0.12857861730E+03  0.00000000000E+00 0.  1.
         -2   -1    0    0    0  501 -0.00000000000E+00 -0.00000000000E+00 -0.14736805887E+03  0.14736805887E+03  0.00000000000E+00 0.  1.
         25    1    1    2    0    0 -0.31335328654E+02  0.13482406838E+02  0.48918819113E+02  0.13400272004E+03  0.12000000000E+03 0.  0.
         25    1    1    2    0    0  0.31335328654E+02 -0.13482406838E+02 -0.67708260689E+02  0.14194395613E+03  0.12000000000E+03 0.  0.
<mgrwt>
<rscale>  0 0.27530624E+03</rscale>
<asrwt>0</asrwt>
<pdfrwt beam="1">  1        2 0.19781326E-01 0.27530624E+03</pdfrwt>
<pdfrwt beam="2">  1       -2 0.22672009E-01 0.27530624E+03</pdfrwt>
<totfact> 0.47213396E+03</totfact>
</mgrwt>
</event>
<event>
 4    1  0.1726503E-004  0.2649903E+03  0.7818608E-02  0.1104181E+00
         -2   -1    0    0    0  501 -0.00000000000E+00  0.00000000000E+00  0.44517322652E+02  0.44517322652E+02  0.00000000000E+00 0. -1.
          2   -1    0    0  501    0  0.00000000000E+00 -0.00000000000E+00 -0.39434008228E+03  0.39434008228E+03  0.00000000000E+00 0. -1.
         25    1    1    2    0    0 -0.26476028876E+01  0.55181320767E+02 -0.15810543350E+03  0.20603231801E+03  0.12000000000E+03 0.  0.
         25    1    1    2    0    0  0.26476028876E+01 -0.55181320767E+02 -0.19171732613E+03  0.23282508692E+03  0.12000000000E+03 0.  0.
<mgrwt>
<rscale>  0 0.26499030E+03</rscale>
<asrwt>0</asrwt>
<pdfrwt beam="1">  1        2 0.60667706E-01 0.26499030E+03</pdfrwt>
<pdfrwt beam="2">  1       -2 0.68488188E-02 0.26499030E+03</pdfrwt>
<totfact> 0.96893196E+03</totfact>
</mgrwt>
</event>
<event>
 4    1  0.1726503E-004  0.2490706E+03  0.7818608E-02  0.1113894E+00
         -3   -1    0    0    0  501 -0.00000000000E+00  0.00000000000E+00  0.22195846002E+03  0.22195846002E+03  0.00000000000E+00 0.  1.
          3   -1    0    0  501    0  0.00000000000E+00 -0.00000000000E+00 -0.69873614390E+02  0.69873614390E+02  0.00000000000E+00 0.  1.
         25    1    1    2    0    0 -0.28378249220E+02  0.92525218392E+01  0.93346324352E+02  0.15493376152E+03  0.12000000000E+03 0.  0.
         25    1    1    2    0    0  0.28378249220E+02 -0.92525218392E+01  0.58738521274E+02  0.13689831288E+03  0.12000000000E+03 0.  0.
<mgrwt>
<rscale>  0 0.24907059E+03</rscale>
<asrwt>0</asrwt>
<pdfrwt beam="1">  1        3 0.10749787E-01 0.24907059E+03</pdfrwt>
<pdfrwt beam="2">  1       -3 0.34147455E-01 0.24907059E+03</pdfrwt>
<totfact> 0.13841050E+03</totfact>
</mgrwt>
</event>
<event>
 4    1  0.1726503E-004  0.2615299E+03  0.7818608E-02  0.1106227E+00
          1   -1    0    0  501    0  0.00000000000E+00  0.00000000000E+00  0.51514616067E+03  0.51514616067E+03  0.00000000000E+00 0. -1.
         -1   -1    0    0    0  501 -0.00000000000E+00 -0.00000000000E+00 -0.33193448788E+02  0.33193448788E+02  0.00000000000E+00 0. -1.
         25    1    1    2    0    0  0.64772114750E+00 -0.48551907741E+02  0.27973739697E+03  0.30823808744E+03  0.12000000000E+03 0.  0.
         25    1    1    2    0    0 -0.64772114750E+00  0.48551907741E+02  0.20221531491E+03  0.24010152201E+03  0.12000000000E+03 0.  0.
<mgrwt>
<rscale>  0 0.26152994E+03</rscale>
<asrwt>0</asrwt>
<pdfrwt beam="1">  1        1 0.79253250E-01 0.26152994E+03</pdfrwt>
<pdfrwt beam="2">  1       -1 0.51066848E-02 0.26152994E+03</pdfrwt>
<totfact> 0.73429621E+03</totfact>
</mgrwt>
</event>
<event>
 4    1  0.1726503E-004  0.3200442E+03  0.7818608E-02  0.1075629E+00
          1   -1    0    0  501    0  0.00000000000E+00  0.00000000000E+00  0.85350243036E+03  0.85350243036E+03  0.00000000000E+00 0. -1.
         -1   -1    0    0    0  501 -0.00000000000E+00 -0.00000000000E+00 -0.30002334443E+02  0.30002334443E+02  0.00000000000E+00 0. -1.
         25    1    1    2    0    0 -0.22807557415E+02 -0.92338205417E+02  0.54006574871E+03  0.56135331279E+03  0.12000000000E+03 0.  0.
         25    1    1    2    0    0  0.22807557415E+02  0.92338205417E+02  0.28343434721E+03  0.32215145201E+03  0.12000000000E+03 0.  0.
<mgrwt>
<rscale>  0 0.32004416E+03</rscale>
<asrwt>0</asrwt>
<pdfrwt beam="1">  1        1 0.13130805E+00 0.32004416E+03</pdfrwt>
<pdfrwt beam="2">  1       -1 0.46157444E-02 0.32004416E+03</pdfrwt>
<totfact> 0.41389182E+03</totfact>
</mgrwt>
</event>
<event>
 4    1  0.1726503E-004  0.2455003E+03  0.7818608E-02  0.1116182E+00
         -2   -1    0    0    0  501 -0.00000000000E+00  0.00000000000E+00  0.32905752120E+02  0.32905752120E+02  0.00000000000E+00 0. -1.
          2   -1    0    0  501    0  0.00000000000E+00 -0.00000000000E+00 -0.45790177815E+03  0.45790177815E+03  0.00000000000E+00 0. -1.
         25    1    1    2    0    0  0.22446289626E+02  0.78009451488E+01 -0.23277911810E+03  0.26296541310E+03  0.12000000000E+03 0.  0.
         25    1    1    2    0    0 -0.22446289626E+02 -0.78009451488E+01 -0.19221690794E+03  0.22784211718E+03  0.12000000000E+03 0.  0.
<mgrwt>
<rscale>  0 0.24550033E+03</rscale>
<asrwt>0</asrwt>
<pdfrwt beam="1">  1        2 0.70446419E-01 0.24550033E+03</pdfrwt>
<pdfrwt beam="2">  1       -2 0.50624240E-02 0.24550033E+03</pdfrwt>
<totfact> 0.13027478E+04</totfact>
</mgrwt>
</event>
<event>
 4    1  0.1726503E-004  0.4418945E+03  0.7818608E-02  0.1030167E+00
         -2   -1    0    0    0  501 -0.00000000000E+00  0.00000000000E+00  0.43986786543E+02  0.43986786543E+02  0.00000000000E+00 0.  1.
          2   -1    0    0  501    0  0.00000000000E+00 -0.00000000000E+00 -0.11098262134E+04  0.11098262134E+04  0.00000000000E+00 0.  1.
         25    1    1    2    0    0  0.75941912036E+02 -0.15213278867E+03 -0.33917046335E+03  0.39792984633E+03  0.12000000000E+03 0.  0.
         25    1    1    2    0    0 -0.75941912036E+02  0.15213278867E+03 -0.72666896347E+03  0.75588315358E+03  0.12000000000E+03 0.  0.
<mgrwt>
<rscale>  0 0.44189451E+03</rscale>
<asrwt>0</asrwt>
<pdfrwt beam="1">  1        2 0.17074248E+00 0.44189451E+03</pdfrwt>
<pdfrwt beam="2">  1       -2 0.67671985E-02 0.44189451E+03</pdfrwt>
<totfact> 0.27745313E+03</totfact>
</mgrwt>
</event>
<event>
 4    1  0.1726503E-004  0.2497330E+03  0.7818608E-02  0.1113474E+00
         -1   -1    0    0    0  501 -0.00000000000E+00  0.00000000000E+00  0.13184236907E+03  0.13184236907E+03  0.00000000000E+00 0.  1.
          1   -1    0    0  501    0  0.00000000000E+00 -0.00000000000E+00 -0.11825973180E+03  0.11825973180E+03  0.00000000000E+00 0.  1.
         25    1    1    2    0    0  0.19527302118E+02 -0.27480635102E+02  0.14228084692E+02  0.12545492907E+03  0.12000000000E+03 0.  0.
         25    1    1    2    0    0 -0.19527302118E+02  0.27480635102E+02 -0.64544742305E+00  0.12464717179E+03  0.12000000000E+03 0.  0.
<mgrwt>
<rscale>  0 0.24973300E+03</rscale>
<asrwt>0</asrwt>
<pdfrwt beam="1">  1        1 0.18193805E-01 0.24973300E+03</pdfrwt>
<pdfrwt beam="2">  1       -1 0.20283441E-01 0.24973300E+03</pdfrwt>
<totfact> 0.56223844E+03</totfact>
</mgrwt>
</event>
<event>
 4    1  0.1726503E-004  0.2925430E+03  0.7818608E-02  0.1089029E+00
          2   -1    0    0  501    0  0.00000000000E+00  0.00000000000E+00  0.46328830301E+03  0.46328830301E+03  0.00000000000E+00 0.  1.
         -2   -1    0    0    0  501 -0.00000000000E+00 -0.00000000000E+00 -0.46181505203E+02  0.46181505203E+02  0.00000000000E+00 0.  1.
         25    1    1    2    0    0  0.52568981759E+02 -0.48154753275E+02  0.28472326202E+03  0.31709574901E+03  0.12000000000E+03 0.  0.
         25    1    1    2    0    0 -0.52568981759E+02  0.48154753275E+02  0.13238353579E+03  0.19237405920E+03  0.12000000000E+03 0.  0.
<mgrwt>
<rscale>  0 0.29254300E+03</rscale>
<asrwt>0</asrwt>
<pdfrwt beam="1">  1        2 0.71275120E-01 0.29254300E+03</pdfrwt>
<pdfrwt beam="2">  1       -2 0.71048473E-02 0.29254300E+03</pdfrwt>
<totfact> 0.77010140E+03</totfact>
</mgrwt>
</event>
<event>
 4    1  0.1726503E-004  0.2669253E+03  0.7818608E-02  0.1103052E+00
          2   -1    0    0  501    0  0.00000000000E+00  0.00000000000E+00  0.18095959989E+03  0.18095959989E+03  0.00000000000E+00 0.  1.
         -2   -1    0    0    0  501 -0.00000000000E+00 -0.00000000000E+00 -0.98432371832E+02  0.98432371832E+02  0.00000000000E+00 0.  1.
         25    1    1    2    0    0 -0.13355662762E+02  0.36440371811E+02 -0.44332629321E+01  0.12619797243E+03  0.12000000000E+03 0.  0.
         25    1    1    2    0    0  0.13355662762E+02 -0.36440371811E+02  0.86960490992E+02  0.15319399929E+03  0.12000000000E+03 0.  0.
<mgrwt>
<rscale>  0 0.26692533E+03</rscale>
<asrwt>0</asrwt>
<pdfrwt beam="1">  1        2 0.27839938E-01 0.26692533E+03</pdfrwt>
<pdfrwt beam="2">  1       -2 0.15143442E-01 0.26692533E+03</pdfrwt>
<totfact> 0.63616272E+03</totfact>
</mgrwt>
</event>
<event>
 4    1  0.1726503E-004  0.2477508E+03  0.7818608E-02  0.1114735E+00
          2   -1    0    0  501    0  0.00000000000E+00  0.00000000000E+00  0.53536004195E+03  0.53536004195E+03  0.00000000000E+00 0.  1.
         -2   -1    0    0    0  501 -0.00000000000E+00 -0.00000000000E+00 -0.28663158160E+02  0.28663158160E+02  0.00000000000E+00 0.  1.
         25    1    1    2    0    0 -0.15769666407E+02 -0.82612265437E+01  0.31040739390E+03  0.33327118152E+03  0.12000000000E+03 0.  0.
         25    1    1    2    0    0  0.15769666407E+02  0.82612265437E+01  0.19628948989E+03  0.23075201859E+03  0.12000000000E+03 0.  0.
<mgrwt>
<rscale>  0 0.24775076E+03</rscale>
<asrwt>0</asrwt>
<pdfrwt beam="1">  1        2 0.82363076E-01 0.24775076E+03</pdfrwt>
<pdfrwt beam="2">  1       -2 0.44097170E-02 0.24775076E+03</pdfrwt>
<totfact> 0.13492841E+04</totfact>
</mgrwt>
</event>
<event>
 4    1  0.1726503E-004  0.2404975E+03  0.7818608E-02  0.1119462E+00
          2   -1    0    0  501    0  0.00000000000E+00  0.00000000000E+00  0.34629426191E+03  0.34629426191E+03  0.00000000000E+00 0.  1.
         -2   -1    0    0    0  501 -0.00000000000E+00 -0.00000000000E+00 -0.41755715839E+02  0.41755715839E+02  0.00000000000E+00 0.  1.
         25    1    1    2    0    0 -0.53828405044E+01 -0.53628073596E+01  0.14997027738E+03  0.19222075531E+03  0.12000000000E+03 0.  0.
         25    1    1    2    0    0  0.53828405044E+01  0.53628073596E+01  0.15456826870E+03  0.19582922244E+03  0.12000000000E+03 0.  0.
<mgrwt>
<rscale>  0 0.24049752E+03</rscale>
<asrwt>0</asrwt>
<pdfrwt beam="1">  1        2 0.53276038E-01 0.24049752E+03</pdfrwt>
<pdfrwt beam="2">  1       -2 0.64239565E-02 0.24049752E+03</pdfrwt>
<totfact> 0.12249971E+04</totfact>
</mgrwt>
</event>
<event>
 4    1  0.1726503E-004  0.3712813E+03  0.7818608E-02  0.1054204E+00
         -2   -1    0    0    0  501 -0.00000000000E+00  0.00000000000E+00  0.17738005940E+02  0.17738005940E+02  0.00000000000E+00 0.  1.
          2   -1    0    0  501    0  0.00000000000E+00 -0.00000000000E+00 -0.19428594357E+04  0.19428594357E+04  0.00000000000E+00 0.  1.
         25    1    1    2    0    0 -0.37979044220E+02  0.13128799298E+03 -0.11589763595E+04  0.11731603245E+04  0.12000000000E+03 0.  0.
         25    1    1    2    0    0  0.37979044220E+02 -0.13128799298E+03 -0.76614507020E+03  0.78743711717E+03  0.12000000000E+03 0.  0.
<mgrwt>
<rscale>  0 0.37128131E+03</rscale>
<asrwt>0</asrwt>
<pdfrwt beam="1">  1        2 0.29890152E+00 0.37128131E+03</pdfrwt>
<pdfrwt beam="2">  1       -2 0.27289233E-02 0.37128131E+03</pdfrwt>
<totfact> 0.38765072E+03</totfact>
</mgrwt>
</event>
<event>
 4    1  0.1726503E-004  0.3024422E+03  0.7818608E-02  0.1084026E+00
          2   -1    0    0  501    0  0.00000000000E+00  0.00000000000E+00  0.85937634486E+03  0.85937634486E+03  0.00000000000E+00 0. -1.
         -2   -1    0    0    0  501 -0.00000000000E+00 -0.00000000000E+00 -0.26609793763E+02  0.26609793763E+02  0.00000000000E+00 0. -1.
         25    1    1    2    0    0 -0.96638085248E+01  0.74538728809E+01  0.68357121729E+03  0.69413151385E+03  0.12000000000E+03 0.  0.
         25    1    1    2    0    0  0.96638085248E+01 -0.74538728809E+01  0.14919533381E+03  0.19185462477E+03  0.12000000000E+03 0.  0.
<mgrwt>
<rscale>  0 0.30244224E+03</rscale>
<asrwt>0</asrwt>
<pdfrwt beam="1">  1        2 0.13221172E+00 0.30244224E+03</pdfrwt>
<pdfrwt beam="2">  1       -2 0.40938151E-02 0.30244224E+03</pdfrwt>
<totfact> 0.85819047E+03</totfact>
</mgrwt>
</event>
<event>
 4    1  0.1726503E-004  0.2882734E+03  0.7818608E-02  0.1091254E+00
          3   -1    0    0  501    0  0.00000000000E+00  0.00000000000E+00  0.13378243259E+04  0.13378243259E+04  0.00000000000E+00 0. -1.
         -3   -1    0    0    0  501 -0.00000000000E+00 -0.00000000000E+00 -0.15529230306E+02  0.15529230306E+02  0.00000000000E+00 0. -1.
         25    1    1    2    0    0 -0.70752430456E+02  0.35494622616E+02  0.61199718446E+03  0.62865437916E+03  0.12000000000E+03 0.  0.
         25    1    1    2    0    0  0.70752430456E+02 -0.35494622616E+02  0.71029791112E+03  0.72469917703E+03  0.12000000000E+03 0.  0.
<mgrwt>
<rscale>  0 0.28827336E+03</rscale>
<asrwt>0</asrwt>
<pdfrwt beam="1">  1        3 0.20581904E+00 0.28827336E+03</pdfrwt>
<pdfrwt beam="2">  1       -3 0.23891134E-02 0.28827336E+03</pdfrwt>
<totfact> 0.27249684E+02</totfact>
</mgrwt>
</event>
<event>
 4    1  0.1726503E-004  0.3063983E+03  0.7818608E-02  0.1082085E+00
         -2   -1    0    0    0  501 -0.00000000000E+00  0.00000000000E+00  0.70526716165E+03  0.70526716165E+03  0.00000000000E+00 0. -1.
          2   -1    0    0  501    0  0.00000000000E+00 -0.00000000000E+00 -0.33278131900E+02  0.33278131900E+02  0.00000000000E+00 0. -1.
         25    1    1    2    0    0  0.24020793526E+02  0.92083514355E+02  0.34488415394E+03  0.37736116887E+03  0.12000000000E+03 0.  0.
         25    1    1    2    0    0 -0.24020793526E+02 -0.92083514355E+02  0.32710487582E+03  0.36118412468E+03  0.12000000000E+03 0.  0.
<mgrwt>
<rscale>  0 0.30639826E+03</rscale>
<asrwt>0</asrwt>
<pdfrwt beam="1">  1        2 0.51197131E-02 0.30639826E+03</pdfrwt>
<pdfrwt beam="2">  1       -2 0.10850263E+00 0.30639826E+03</pdfrwt>
<totfact> 0.10807828E+03</totfact>
</mgrwt>
</event>
<event>
 4    1  0.1726503E-004  0.3305693E+03  0.7818608E-02  0.1070885E+00
         -2   -1    0    0    0  501 -0.00000000000E+00  0.00000000000E+00  0.71835616331E+02  0.71835616331E+02  0.00000000000E+00 0. -1.
          2   -1    0    0  501    0  0.00000000000E+00 -0.00000000000E+00 -0.38029913575E+03  0.38029913575E+03  0.00000000000E+00 0. -1.
         25    1    1    2    0    0  0.10119005897E+03  0.51215821166E+02 -0.16451575432E+03  0.23308350819E+03  0.12000000000E+03 0.  0.
         25    1    1    2    0    0 -0.10119005897E+03 -0.51215821166E+02 -0.14394776509E+03  0.21905124388E+03  0.12000000000E+03 0.  0.
<mgrwt>
<rscale>  0 0.33056934E+03</rscale>
<asrwt>0</asrwt>
<pdfrwt beam="1">  1        2 0.58507558E-01 0.33056934E+03</pdfrwt>
<pdfrwt beam="2">  1       -2 0.11051634E-01 0.33056934E+03</pdfrwt>
<totfact> 0.47758299E+03</totfact>
</mgrwt>
</event>
<event>
 4    1  0.1726503E-004  0.2495240E+03  0.7818608E-02  0.1113606E+00
         -1   -1    0    0    0  501 -0.00000000000E+00  0.00000000000E+00  0.97333748001E+02  0.97333748001E+02  0.00000000000E+00 0.  1.
          1   -1    0    0  501    0  0.00000000000E+00 -0.00000000000E+00 -0.15991946870E+03  0.15991946870E+03  0.00000000000E+00 0.  1.
         25    1    1    2    0    0  0.19396922903E+02 -0.27941148535E+02 -0.28267185154E+02  0.12789050847E+03  0.12000000000E+03 0.  0.
         25    1    1    2    0    0 -0.19396922903E+02  0.27941148535E+02 -0.34318535545E+02  0.12936270823E+03  0.12000000000E+03 0.  0.
<mgrwt>
<rscale>  0 0.24952404E+03</rscale>
<asrwt>0</asrwt>
<pdfrwt beam="1">  1        1 0.24602995E-01 0.24952404E+03</pdfrwt>
<pdfrwt beam="2">  1       -1 0.14974423E-01 0.24952404E+03</pdfrwt>
<totfact> 0.62112000E+03</totfact>
</mgrwt>
</event>
<event>
 4    1  0.1726503E-004  0.3534356E+03  0.7818608E-02  0.1061214E+00
          2   -1    0    0  501    0  0.00000000000E+00  0.00000000000E+00  0.22484317974E+03  0.22484317974E+03  0.00000000000E+00 0.  1.
         -2   -1    0    0    0  501 -0.00000000000E+00 -0.00000000000E+00 -0.13889318615E+03  0.13889318615E+03  0.00000000000E+00 0.  1.
         25    1    1    2    0    0 -0.41969627396E+02  0.99439326396E+02 -0.31091649384E+02  0.16436641968E+03  0.12000000000E+03 0.  0.
         25    1    1    2    0    0  0.41969627396E+02 -0.99439326396E+02  0.11704164297E+03  0.19936994620E+03  0.12000000000E+03 0.  0.
<mgrwt>
<rscale>  0 0.35343563E+03</rscale>
<asrwt>0</asrwt>
<pdfrwt beam="1">  1        2 0.34591258E-01 0.35343563E+03</pdfrwt>
<pdfrwt beam="2">  1       -2 0.21368182E-01 0.35343563E+03</pdfrwt>
<totfact> 0.28196308E+03</totfact>
</mgrwt>
</event>
<event>
 4    1  0.1726503E-004  0.2591868E+03  0.7818608E-02  0.1107633E+00
         -1   -1    0    0    0  501 -0.00000000000E+00  0.00000000000E+00  0.38675724947E+02  0.38675724947E+02  0.00000000000E+00 0. -1.
          1   -1    0    0  501    0  0.00000000000E+00 -0.00000000000E+00 -0.43423745373E+03  0.43423745373E+03  0.00000000000E+00 0. -1.
         25    1    1    2    0    0  0.40895035269E+02  0.26216591256E+02 -0.18702734381E+03  0.22746195484E+03  0.12000000000E+03 0.  0.
         25    1    1    2    0    0 -0.40895035269E+02 -0.26216591256E+02 -0.20853438498E+03  0.24545122384E+03  0.12000000000E+03 0.  0.
<mgrwt>
<rscale>  0 0.25918679E+03</rscale>
<asrwt>0</asrwt>
<pdfrwt beam="1">  1        1 0.66805761E-01 0.25918679E+03</pdfrwt>
<pdfrwt beam="2">  1       -1 0.59501116E-02 0.25918679E+03</pdfrwt>
<totfact> 0.73028604E+03</totfact>
</mgrwt>
</event>
<event>
 4    1  0.1726503E-004  0.2946376E+03  0.7818608E-02  0.1087952E+00
          2   -1    0    0  501    0  0.00000000000E+00  0.00000000000E+00  0.96852250793E+03  0.96852250793E+03  0.00000000000E+00 0.  1.
         -2   -1    0    0    0  501 -0.00000000000E+00 -0.00000000000E+00 -0.22408183193E+02  0.22408183193E+02  0.00000000000E+00 0.  1.
         25    1    1    2    0    0  0.76000461363E+02 -0.24805048592E+02  0.57459457806E+03  0.59241057528E+03  0.12000000000E+03 0.  0.
         25    1    1    2    0    0 -0.76000461363E+02  0.24805048592E+02  0.37151974668E+03  0.39852011584E+03  0.12000000000E+03 0.  0.
<mgrwt>
<rscale>  0 0.29463761E+03</rscale>
<asrwt>0</asrwt>
<pdfrwt beam="1">  1        2 0.14900343E+00 0.29463761E+03</pdfrwt>
<pdfrwt beam="2">  1       -2 0.34474135E-02 0.29463761E+03</pdfrwt>
<totfact> 0.94469285E+03</totfact>
</mgrwt>
</event>
<event>
 4    1  0.1726503E-004  0.3071426E+03  0.7818608E-02  0.1081724E+00
          2   -1    0    0  501    0  0.00000000000E+00  0.00000000000E+00  0.11472733074E+04  0.11472733074E+04  0.00000000000E+00 0. -1.
         -2   -1    0    0    0  501 -0.00000000000E+00 -0.00000000000E+00 -0.20556691312E+02  0.20556691312E+02  0.00000000000E+00 0. -1.
         25    1    1    2    0    0  0.60465509276E+02  0.65051066607E+02  0.70026136195E+03  0.71599838975E+03  0.12000000000E+03 0.  0.
         25    1    1    2    0    0 -0.60465509276E+02 -0.65051066607E+02  0.42645525413E+03  0.45183160896E+03  0.12000000000E+03 0.  0.
<mgrwt>
<rscale>  0 0.30714259E+03</rscale>
<asrwt>0</asrwt>
<pdfrwt beam="1">  1        2 0.17650354E+00 0.30714259E+03</pdfrwt>
<pdfrwt beam="2">  1       -2 0.31625688E-02 0.30714259E+03</pdfrwt>
<totfact> 0.84036375E+03</totfact>
</mgrwt>
</event>
<event>
 4    1  0.1726503E-004  0.2731893E+03  0.7818608E-02  0.1099468E+00
         -2   -1    0    0    0  501 -0.00000000000E+00  0.00000000000E+00  0.11695482042E+02  0.11695482042E+02  0.00000000000E+00 0. -1.
          2   -1    0    0  501    0  0.00000000000E+00 -0.00000000000E+00 -0.15953255013E+04  0.15953255013E+04  0.00000000000E+00 0. -1.
         25    1    1    2    0    0  0.32334852343E+02  0.46087159101E+02 -0.98589394599E+03  0.99476451568E+03  0.12000000000E+03 0.  0.
         25    1    1    2    0    0 -0.32334852343E+02 -0.46087159101E+02 -0.59773607322E+03  0.61225646762E+03  0.12000000000E+03 0.  0.
<mgrwt>
<rscale>  0 0.27318932E+03</rscale>
<asrwt>0</asrwt>
<pdfrwt beam="1">  1        2 0.24543468E+00 0.27318932E+03</pdfrwt>
<pdfrwt beam="2">  1       -2 0.17993050E-02 0.27318932E+03</pdfrwt>
<totfact> 0.10960966E+04</totfact>
</mgrwt>
</event>
<event>
 4    1  0.1726503E-004  0.2545046E+03  0.7818608E-02  0.1110491E+00
         -2   -1    0    0    0  501 -0.00000000000E+00  0.00000000000E+00  0.13652853348E+02  0.13652853348E+02  0.00000000000E+00 0. -1.
          2   -1    0    0  501    0  0.00000000000E+00 -0.00000000000E+00 -0.11860630938E+04  0.11860630938E+04  0.00000000000E+00 0. -1.
         25    1    1    2    0    0 -0.44146040882E+01 -0.11315572382E+02 -0.77743109765E+03  0.78673162038E+03  0.12000000000E+03 0.  0.
         25    1    1    2    0    0  0.44146040882E+01  0.11315572382E+02 -0.39497914275E+03  0.41298432672E+03  0.12000000000E+03 0.  0.
<mgrwt>
<rscale>  0 0.25450458E+03</rscale>
<asrwt>0</asrwt>
<pdfrwt beam="1">  1        2 0.18247122E+00 0.25450458E+03</pdfrwt>
<pdfrwt beam="2">  1       -2 0.21004393E-02 0.25450458E+03</pdfrwt>
<totfact> 0.14569083E+04</totfact>
</mgrwt>
</event>
<event>
 4    1  0.1726503E-004  0.5359801E+03  0.7818608E-02  0.1004792E+00
         -2   -1    0    0    0  501 -0.00000000000E+00  0.00000000000E+00  0.14390656004E+03  0.14390656004E+03  0.00000000000E+00 0. -1.
          2   -1    0    0  501    0  0.00000000000E+00 -0.00000000000E+00 -0.49906451296E+03  0.49906451296E+03  0.00000000000E+00 0. -1.
         25    1    1    2    0    0 -0.18988080479E+03 -0.11682661825E+02 -0.27989748354E+01  0.22494230121E+03  0.12000000000E+03 0.  0.
         25    1    1    2    0    0  0.18988080479E+03  0.11682661825E+02 -0.35235897808E+03  0.41802877179E+03  0.12000000000E+03 0.  0.
<mgrwt>
<rscale>  0 0.53598006E+03</rscale>
<asrwt>0</asrwt>
<pdfrwt beam="1">  1        2 0.76779157E-01 0.53598006E+03</pdfrwt>
<pdfrwt beam="2">  1       -2 0.22139471E-01 0.53598006E+03</pdfrwt>
<totfact> 0.11025069E+03</totfact>
</mgrwt>
</event>
<event>
 4    1  0.1726503E-004  0.2965141E+03  0.7818608E-02  0.1086996E+00
          2   -1    0    0  501    0  0.00000000000E+00  0.00000000000E+00  0.19186671200E+04  0.19186671200E+04  0.00000000000E+00 0. -1.
         -2   -1    0    0    0  501 -0.00000000000E+00 -0.00000000000E+00 -0.11455948038E+02  0.11455948038E+02  0.00000000000E+00 0. -1.
         25    1    1    2    0    0  0.13102728572E+02 -0.16660929486E+02  0.15032873378E+04  0.15082181831E+04  0.12000000000E+03 0.  0.
         25    1    1    2    0    0 -0.13102728572E+02  0.16660929486E+02  0.40392383415E+03  0.42190488485E+03  0.12000000000E+03 0.  0.
<mgrwt>
<rscale>  0 0.29651409E+03</rscale>
<asrwt>0</asrwt>
<pdfrwt beam="1">  1        2 0.29517930E+00 0.29651409E+03</pdfrwt>
<pdfrwt beam="2">  1       -2 0.17624551E-02 0.29651409E+03</pdfrwt>
<totfact> 0.76404551E+03</totfact>
</mgrwt>
</event>
<event>
 4    1  0.1726503E-004  0.2808578E+03  0.7818608E-02  0.1095221E+00
          4   -1    0    0  501    0  0.00000000000E+00  0.00000000000E+00  0.59916496420E+03  0.59916496420E+03  0.00000000000E+00 0. -1.
         -4   -1    0    0    0  501 -0.00000000000E+00 -0.00000000000E+00 -0.32912924423E+02  0.32912924423E+02  0.00000000000E+00 0. -1.
         25    1    1    2    0    0  0.11336308416E+02  0.49180104635E+01  0.44490699505E+03  0.46097172685E+03  0.12000000000E+03 0.  0.
         25    1    1    2    0    0 -0.11336308416E+02 -0.49180104635E+01  0.12134504473E+03  0.17110616177E+03  0.12000000000E+03 0.  0.
<mgrwt>
<rscale>  0 0.28085777E+03</rscale>
<asrwt>0</asrwt>
<pdfrwt beam="1">  1        4 0.92179217E-01 0.28085777E+03</pdfrwt>
<pdfrwt beam="2">  1       -4 0.50635273E-02 0.28085777E+03</pdfrwt>
<totfact> 0.45296549E+02</totfact>
</mgrwt>
</event>
<event>
 4    1  0.1726503E-004  0.2700721E+03  0.7818608E-02  0.1101238E+00
          2   -1    0    0  501    0  0.00000000000E+00  0.00000000000E+00  0.21756113399E+04  0.21756113399E+04  0.00000000000E+00 0.  1.
         -2   -1    0    0    0  501 -0.00000000000E+00 -0.00000000000E+00 -0.83814274639E+01  0.83814274639E+01  0.00000000000E+00 0.  1.
         25    1    1    2    0    0  0.50560285587E+02  0.35208989089E+02  0.10332995101E+04  0.10420671250E+04  0.12000000000E+03 0.  0.
         25    1    1    2    0    0 -0.50560285587E+02 -0.35208989089E+02  0.11339304023E+04  0.11419256423E+04  0.12000000000E+03 0.  0.
<mgrwt>
<rscale>  0 0.27007205E+03</rscale>
<asrwt>0</asrwt>
<pdfrwt beam="1">  1        2 0.33470899E+00 0.27007205E+03</pdfrwt>
<pdfrwt beam="2">  1       -2 0.12894521E-02 0.27007205E+03</pdfrwt>
<totfact> 0.88291348E+03</totfact>
</mgrwt>
</event>
<event>
 4    1  0.1726503E-004  0.2541933E+03  0.7818608E-02  0.1110683E+00
         -4   -1    0    0    0  501 -0.00000000000E+00  0.00000000000E+00  0.10420821468E+04  0.10420821468E+04  0.00000000000E+00 0.  1.
          4   -1    0    0  501    0  0.00000000000E+00 -0.00000000000E+00 -0.15501238966E+02  0.15501238966E+02  0.00000000000E+00 0.  1.
         25    1    1    2    0    0  0.19983329388E+02  0.33146749782E+02  0.57979727799E+03  0.59334890582E+03  0.12000000000E+03 0.  0.
         25    1    1    2    0    0 -0.19983329388E+02 -0.33146749782E+02  0.44678362989E+03  0.46423447999E+03  0.12000000000E+03 0.  0.
<mgrwt>
<rscale>  0 0.25419335E+03</rscale>
<asrwt>0</asrwt>
<pdfrwt beam="1">  1        4 0.23848068E-02 0.25419335E+03</pdfrwt>
<pdfrwt beam="2">  1       -4 0.16032028E+00 0.25419335E+03</pdfrwt>
<totfact> 0.38106806E+02</totfact>
</mgrwt>
</event>
<event>
 4    1  0.1726503E-004  0.3358673E+03  0.7818608E-02  0.1068570E+00
         -1   -1    0    0    0  501 -0.00000000000E+00  0.00000000000E+00  0.54962627145E+02  0.54962627145E+02  0.00000000000E+00 0. -1.
          1   -1    0    0  501    0  0.00000000000E+00 -0.00000000000E+00 -0.51310706676E+03  0.51310706676E+03  0.00000000000E+00 0. -1.
         25    1    1    2    0    0 -0.42190338014E+02  0.10815929086E+03 -0.19866288661E+03  0.25950992146E+03  0.12000000000E+03 0.  0.
         25    1    1    2    0    0  0.42190338014E+02 -0.10815929086E+03 -0.25948155301E+03  0.30855977244E+03  0.12000000000E+03 0.  0.
<mgrwt>
<rscale>  0 0.33586731E+03</rscale>
<asrwt>0</asrwt>
<pdfrwt beam="1">  1        1 0.78939551E-01 0.33586731E+03</pdfrwt>
<pdfrwt beam="2">  1       -1 0.84557886E-02 0.33586731E+03</pdfrwt>
<totfact> 0.34550904E+03</totfact>
</mgrwt>
</event>
<event>
 4    1  0.1726503E-004  0.2734866E+03  0.7818608E-02  0.1099301E+00
         -2   -1    0    0    0  501 -0.00000000000E+00  0.00000000000E+00  0.16358574397E+02  0.16358574397E+02  0.00000000000E+00 0.  1.
          2   -1    0    0  501    0  0.00000000000E+00 -0.00000000000E+00 -0.11430534499E+04  0.11430534499E+04  0.00000000000E+00 0.  1.
         25    1    1    2    0    0 -0.45526359811E+02 -0.46644135666E+02 -0.59344403356E+03  0.60895331989E+03  0.12000000000E+03 0.  0.
         25    1    1    2    0    0  0.45526359811E+02  0.46644135666E+02 -0.53325084191E+03  0.55045870438E+03  0.12000000000E+03 0.  0.
<mgrwt>
<rscale>  0 0.27348656E+03</rscale>
<asrwt>0</asrwt>
<pdfrwt beam="1">  1        2 0.17585441E+00 0.27348656E+03</pdfrwt>
<pdfrwt beam="2">  1       -2 0.25167033E-02 0.27348656E+03</pdfrwt>
<totfact> 0.11837754E+04</totfact>
</mgrwt>
</event>
<event>
 4    1  0.1726503E-004  0.2466309E+03  0.7818608E-02  0.1115453E+00
         -2   -1    0    0    0  501 -0.00000000000E+00  0.00000000000E+00  0.98446517785E+01  0.98446517785E+01  0.00000000000E+00 0. -1.
          2   -1    0    0  501    0  0.00000000000E+00 -0.00000000000E+00 -0.15446656314E+04  0.15446656314E+04  0.00000000000E+00 0. -1.
         25    1    1    2    0    0  0.18792315933E+02 -0.14374459115E+01 -0.63348463898E+03  0.64502558492E+03  0.12000000000E+03 0.  0.
         25    1    1    2    0    0 -0.18792315933E+02  0.14374459115E+01 -0.90133634060E+03  0.90948469820E+03  0.12000000000E+03 0.  0.
<mgrwt>
<rscale>  0 0.24663086E+03</rscale>
<asrwt>0</asrwt>
<pdfrwt beam="1">  1        2 0.23764090E+00 0.24663086E+03</pdfrwt>
<pdfrwt beam="2">  1       -2 0.15145616E-02 0.24663086E+03</pdfrwt>
<totfact> 0.14964976E+04</totfact>
</mgrwt>
</event>
<event>
 4    1  0.1726503E-004  0.3970426E+03  0.7818608E-02  0.1044809E+00
          2   -1    0    0  501    0  0.00000000000E+00  0.00000000000E+00  0.28791010553E+03  0.28791010553E+03  0.00000000000E+00 0. -1.
         -2   -1    0    0    0  501 -0.00000000000E+00 -0.00000000000E+00 -0.13688545794E+03  0.13688545794E+03  0.00000000000E+00 0. -1.
         25    1    1    2    0    0 -0.81232804789E+02 -0.11121475129E+03  0.15868428956E+03  0.24196733919E+03  0.12000000000E+03 0.  0.
         25    1    1    2    0    0  0.81232804789E+02  0.11121475129E+03 -0.76596419760E+01  0.18282822428E+03  0.12000000000E+03 0.  0.
<mgrwt>
<rscale>  0 0.39704260E+03</rscale>
<asrwt>0</asrwt>
<pdfrwt beam="1">  1        2 0.44293862E-01 0.39704260E+03</pdfrwt>
<pdfrwt beam="2">  1       -2 0.21059301E-01 0.39704260E+03</pdfrwt>
<totfact> 0.22119199E+03</totfact>
</mgrwt>
</event>
<event>
 4    1  0.1726503E-004  0.2935187E+03  0.7818608E-02  0.1088526E+00
          2   -1    0    0  501    0  0.00000000000E+00  0.00000000000E+00  0.46807342411E+02  0.46807342411E+02  0.00000000000E+00 0. -1.
         -2   -1    0    0    0  501 -0.00000000000E+00 -0.00000000000E+00 -0.46014790283E+03  0.46014790283E+03  0.00000000000E+00 0. -1.
         25    1    1    2    0    0 -0.82552785020E+02  0.13159860468E+02 -0.22783466030E+03  0.27073377454E+03  0.12000000000E+03 0.  0.
         25    1    1    2    0    0  0.82552785020E+02 -0.13159860468E+02 -0.18550590012E+03  0.23622147070E+03  0.12000000000E+03 0.  0.
<mgrwt>
<rscale>  0 0.29351866E+03</rscale>
<asrwt>0</asrwt>
<pdfrwt beam="1">  1        2 0.72011299E-02 0.29351866E+03</pdfrwt>
<pdfrwt beam="2">  1       -2 0.70791982E-01 0.29351866E+03</pdfrwt>
<totfact> 0.18137197E+03</totfact>
</mgrwt>
</event>
<event>
 4    1  0.1726503E-004  0.3232199E+03  0.7818608E-02  0.1074177E+00
          1   -1    0    0  501    0  0.00000000000E+00  0.00000000000E+00  0.31375423735E+02  0.31375423735E+02  0.00000000000E+00 0.  1.
         -1   -1    0    0    0  501 -0.00000000000E+00 -0.00000000000E+00 -0.83242782859E+03  0.83242782859E+03  0.00000000000E+00 0.  1.
         25    1    1    2    0    0  0.80528332271E+01 -0.40524098256E+02 -0.13313352262E+03  0.18393364431E+03  0.12000000000E+03 0.  0.
         25    1    1    2    0    0 -0.80528332271E+01  0.40524098256E+02 -0.66791888224E+03  0.67986960802E+03  0.12000000000E+03 0.  0.
<mgrwt>
<rscale>  0 0.32321990E+03</rscale>
<asrwt>0</asrwt>
<pdfrwt beam="1">  1        1 0.48269873E-02 0.32321990E+03</pdfrwt>
<pdfrwt beam="2">  1       -1 0.12806584E+00 0.32321990E+03</pdfrwt>
<totfact> 0.98974865E+02</totfact>
</mgrwt>
</event>
<event>
 4    1  0.1726503E-004  0.3865687E+03  0.7818608E-02  0.1048532E+00
         -1   -1    0    0    0  501 -0.00000000000E+00  0.00000000000E+00  0.71515646484E+02  0.71515646484E+02  0.00000000000E+00 0. -1.
          1   -1    0    0  501    0  0.00000000000E+00 -0.00000000000E+00 -0.52238691417E+03  0.52238691417E+03  0.00000000000E+00 0. -1.
         25    1    1    2    0    0 -0.83683225202E+02 -0.40359670695E+01 -0.31468503512E+02  0.14969782204E+03  0.12000000000E+03 0.  0.
         25    1    1    2    0    0  0.83683225202E+02  0.40359670695E+01 -0.41940276417E+03  0.44420473861E+03  0.12000000000E+03 0.  0.
<mgrwt>
<rscale>  0 0.38656869E+03</rscale>
<asrwt>0</asrwt>
<pdfrwt beam="1">  1        1 0.80367215E-01 0.38656869E+03</pdfrwt>
<pdfrwt beam="2">  1       -1 0.11002408E-01 0.38656869E+03</pdfrwt>
<totfact> 0.22436675E+03</totfact>
</mgrwt>
</event>
<event>
 4    1  0.1726503E-004  0.2586271E+03  0.7818608E-02  0.1107971E+00
          3   -1    0    0  501    0  0.00000000000E+00  0.00000000000E+00  0.22629215685E+02  0.22629215685E+02  0.00000000000E+00 0. -1.
         -3   -1    0    0    0  501 -0.00000000000E+00 -0.00000000000E+00 -0.73895606150E+03  0.73895606150E+03  0.00000000000E+00 0. -1.
         25    1    1    2    0    0 -0.10660941792E+02 -0.15529311680E+02 -0.48877047715E+03  0.50363815834E+03  0.12000000000E+03 0.  0.
         25    1    1    2    0    0  0.10660941792E+02  0.15529311680E+02 -0.22755636867E+03  0.25794711885E+03  0.12000000000E+03 0.  0.
<mgrwt>
<rscale>  0 0.25862711E+03</rscale>
<asrwt>0</asrwt>
<pdfrwt beam="1">  1        3 0.34814182E-02 0.25862711E+03</pdfrwt>
<pdfrwt beam="2">  1       -3 0.11368553E+00 0.25862711E+03</pdfrwt>
<totfact> 0.68419870E+02</totfact>
</mgrwt>
</event>
<event>
 4    1  0.1726503E-004  0.2597089E+03  0.7818608E-02  0.1107318E+00
          2   -1    0    0  501    0  0.00000000000E+00  0.00000000000E+00  0.10636206236E+04  0.10636206236E+04  0.00000000000E+00 0.  1.
         -2   -1    0    0    0  501 -0.00000000000E+00 -0.00000000000E+00 -0.15853563703E+02  0.15853563703E+02  0.00000000000E+00 0.  1.
         25    1    1    2    0    0  0.18187132437E+02 -0.18335462569E+02  0.69999345673E+03  0.71067418726E+03  0.12000000000E+03 0.  0.
         25    1    1    2    0    0 -0.18187132437E+02  0.18335462569E+02  0.34777360321E+03  0.36880000008E+03  0.12000000000E+03 0.  0.
<mgrwt>
<rscale>  0 0.25970889E+03</rscale>
<asrwt>0</asrwt>
<pdfrwt beam="1">  1        2 0.16363389E+00 0.25970889E+03</pdfrwt>
<pdfrwt beam="2">  1       -2 0.24390106E-02 0.25970889E+03</pdfrwt>
<totfact> 0.13779562E+04</totfact>
</mgrwt>
</event>
<event>
 4    1  0.1726503E-004  0.3915306E+03  0.7818608E-02  0.1046752E+00
          2   -1    0    0  501    0  0.00000000000E+00  0.00000000000E+00  0.16921916820E+04  0.16921916820E+04  0.00000000000E+00 0. -1.
         -2   -1    0    0    0  501 -0.00000000000E+00 -0.00000000000E+00 -0.22647578618E+02  0.22647578618E+02  0.00000000000E+00 0. -1.
         25    1    1    2    0    0 -0.15009995320E+03  0.97400886204E+01  0.67690473338E+03  0.70372216347E+03  0.12000000000E+03 0.  0.
         25    1    1    2    0    0  0.15009995320E+03 -0.97400886204E+01  0.99263937000E+03  0.10111170972E+04  0.12000000000E+03 0.  0.
<mgrwt>
<rscale>  0 0.39153056E+03</rscale>
<asrwt>0</asrwt>
<pdfrwt beam="1">  1        2 0.26033708E+00 0.39153056E+03</pdfrwt>
<pdfrwt beam="2">  1       -2 0.34842442E-02 0.39153056E+03</pdfrwt>
<totfact> 0.36477395E+03</totfact>
</mgrwt>
</event>
<event>
 4    1  0.1726503E-004  0.3464301E+03  0.7818608E-02  0.1064090E+00
         -2   -1    0    0    0  501 -0.00000000000E+00  0.00000000000E+00  0.10781821437E+02  0.10781821437E+02  0.00000000000E+00 0. -1.
          2   -1    0    0  501    0  0.00000000000E+00 -0.00000000000E+00 -0.27827820766E+04  0.27827820766E+04  0.00000000000E+00 0. -1.
         25    1    1    2    0    0  0.32105248751E+02  0.70507929287E+02 -0.59585117134E+03  0.61273218740E+03  0.12000000000E+03 0.  0.
         25    1    1    2    0    0 -0.32105248751E+02 -0.70507929287E+02 -0.21761490839E+04  0.21808317107E+04  0.12000000000E+03 0.  0.
<mgrwt>
<rscale>  0 0.34643013E+03</rscale>
<asrwt>0</asrwt>
<pdfrwt beam="1">  1        2 0.42812060E+00 0.34643013E+03</pdfrwt>
<pdfrwt beam="2">  1       -2 0.16587407E-02 0.34643013E+03</pdfrwt>
<totfact> 0.28198004E+03</totfact>
</mgrwt>
</event>
<event>
 4    1  0.1726503E-004  0.2986793E+03  0.7818608E-02  0.1085903E+00
          1   -1    0    0  501    0  0.00000000000E+00  0.00000000000E+00  0.62722009751E+02  0.62722009751E+02  0.00000000000E+00 0.  1.
         -1   -1    0    0    0  501 -0.00000000000E+00 -0.00000000000E+00 -0.35557412900E+03  0.35557412900E+03  0.00000000000E+00 0.  1.
         25    1    1    2    0    0  0.27620390794E+02 -0.77229763371E+02 -0.98419781420E+02  0.17553853056E+03  0.12000000000E+03 0.  0.
         25    1    1    2    0    0 -0.27620390794E+02  0.77229763371E+02 -0.19443233783E+03  0.24275760818E+03  0.12000000000E+03 0.  0.
<mgrwt>
<rscale>  0 0.29867925E+03</rscale>
<asrwt>0</asrwt>
<pdfrwt beam="1">  1        1 0.96495400E-02 0.29867925E+03</pdfrwt>
<pdfrwt beam="2">  1       -1 0.54703712E-01 0.29867925E+03</pdfrwt>
<totfact> 0.23358036E+03</totfact>
</mgrwt>
</event>
<event>
 4    1  0.1726503E-004  0.2489884E+03  0.7818608E-02  0.1113946E+00
         -1   -1    0    0    0  501 -0.00000000000E+00  0.00000000000E+00  0.71047923057E+01  0.71047923057E+01  0.00000000000E+00 0.  1.
          1   -1    0    0  501    0  0.00000000000E+00 -0.00000000000E+00 -0.21814574476E+04  0.21814574476E+04  0.00000000000E+00 0.  1.
         25    1    1    2    0    0  0.10707450867E+02  0.26012614233E+02 -0.12413108490E+04  0.12474148987E+04  0.12000000000E+03 0.  0.
         25    1    1    2    0    0 -0.10707450867E+02 -0.26012614233E+02 -0.93304180625E+03  0.94114734118E+03  0.12000000000E+03 0.  0.
<mgrwt>
<rscale>  0 0.24898837E+03</rscale>
<asrwt>0</asrwt>
<pdfrwt beam="1">  1        1 0.33560864E+00 0.24898837E+03</pdfrwt>
<pdfrwt beam="2">  1       -1 0.10930456E-02 0.24898837E+03</pdfrwt>
<totfact> 0.42488285E+03</totfact>
</mgrwt>
</event>
<event>
 4    1  0.1726503E-004  0.5115245E+03  0.7818608E-02  0.1010814E+00
         -2   -1    0    0    0  501 -0.00000000000E+00  0.00000000000E+00  0.10487545425E+03  0.10487545425E+03  0.00000000000E+00 0.  1.
          2   -1    0    0  501    0  0.00000000000E+00 -0.00000000000E+00 -0.62373350689E+03  0.62373350689E+03  0.00000000000E+00 0.  1.
         25    1    1    2    0    0  0.64263813147E+02  0.19187589317E+03 -0.11650585475E+03  0.26252582778E+03  0.12000000000E+03 0.  0.
         25    1    1    2    0    0 -0.64263813147E+02 -0.19187589317E+03 -0.40235219789E+03  0.46608313337E+03  0.12000000000E+03 0.  0.
<mgrwt>
<rscale>  0 0.51152452E+03</rscale>
<asrwt>0</asrwt>
<pdfrwt beam="1">  1        2 0.95959000E-01 0.51152452E+03</pdfrwt>
<pdfrwt beam="2">  1       -2 0.16134685E-01 0.51152452E+03</pdfrwt>
<totfact> 0.14651817E+03</totfact>
</mgrwt>
</event>
<event>
 4    1  0.1726503E-004  0.2535313E+03  0.7818608E-02  0.1111093E+00
          2   -1    0    0  501    0  0.00000000000E+00  0.00000000000E+00  0.95718943005E+03  0.95718943005E+03  0.00000000000E+00 0. -1.
         -2   -1    0    0    0  501 -0.00000000000E+00 -0.00000000000E+00 -0.16788245669E+02  0.16788245669E+02  0.00000000000E+00 0. -1.
         25    1    1    2    0    0  0.11669633453E+02  0.38352922066E+02  0.50054822035E+03  0.51629027482E+03  0.12000000000E+03 0.  0.
         25    1    1    2    0    0 -0.11669633453E+02 -0.38352922066E+02  0.43985296403E+03  0.45768740090E+03  0.12000000000E+03 0.  0.
<mgrwt>
<rscale>  0 0.25353131E+03</rscale>
<asrwt>0</asrwt>
<pdfrwt beam="1">  1        2 0.14725987E+00 0.25353131E+03</pdfrwt>
<pdfrwt beam="2">  1       -2 0.25828078E-02 0.25353131E+03</pdfrwt>
<totfact> 0.14683750E+04</totfact>
</mgrwt>
</event>
<event>
 4    1  0.1726503E-004  0.2460538E+03  0.7818608E-02  0.1115824E+00
         -2   -1    0    0    0  501 -0.00000000000E+00  0.00000000000E+00  0.12737901549E+02  0.12737901549E+02  0.00000000000E+00 0.  1.
          2   -1    0    0  501    0  0.00000000000E+00 -0.00000000000E+00 -0.11882348908E+04  0.11882348908E+04  0.00000000000E+00 0.  1.
         25    1    1    2    0    0 -0.11855706114E+02  0.14333532955E+02 -0.49140580828E+03  0.50618739252E+03  0.12000000000E+03 0.  0.
         25    1    1    2    0    0  0.11855706114E+02 -0.14333532955E+02 -0.68409118094E+03  0.69478539980E+03  0.12000000000E+03 0.  0.
<mgrwt>
<rscale>  0 0.24605381E+03</rscale>
<asrwt>0</asrwt>
<pdfrwt beam="1">  1        2 0.18280538E+00 0.24605381E+03</pdfrwt>
<pdfrwt beam="2">  1       -2 0.19596771E-02 0.24605381E+03</pdfrwt>
<totfact> 0.16065951E+04</totfact>
</mgrwt>
</event>
<event>
 4    1  0.1726503E-004  0.2978148E+03  0.7818608E-02  0.1086338E+00
          2   -1    0    0  501    0  0.00000000000E+00  0.00000000000E+00  0.15387022695E+04  0.15387022695E+04  0.00000000000E+00 0.  1.
         -2   -1    0    0    0  501 -0.00000000000E+00 -0.00000000000E+00 -0.14410463766E+02  0.14410463766E+02  0.00000000000E+00 0.  1.
         25    1    1    2    0    0 -0.57969675627E+02 -0.66234829380E+02  0.73561714507E+03  0.75051989982E+03  0.12000000000E+03 0.  0.
         25    1    1    2    0    0  0.57969675627E+02  0.66234829380E+02  0.78867466068E+03  0.80259283345E+03  0.12000000000E+03 0.  0.
<mgrwt>
<rscale>  0 0.29781480E+03</rscale>
<asrwt>0</asrwt>
<pdfrwt beam="1">  1        2 0.23672330E+00 0.29781480E+03</pdfrwt>
<pdfrwt beam="2">  1       -2 0.22169956E-02 0.29781480E+03</pdfrwt>
<totfact> 0.86512105E+03</totfact>
</mgrwt>
</event>
<event>
 4    1  0.1726503E-004  0.2477476E+03  0.7818608E-02  0.1114737E+00
         -2   -1    0    0    0  501 -0.00000000000E+00  0.00000000000E+00  0.55039766294E+02  0.55039766294E+02  0.00000000000E+00 0. -1.
          2   -1    0    0  501    0  0.00000000000E+00 -0.00000000000E+00 -0.27879322592E+03  0.27879322592E+03  0.00000000000E+00 0. -1.
         25    1    1    2    0    0 -0.24507234653E+02 -0.77212129027E+01 -0.89149048356E+02  0.15168313849E+03  0.12000000000E+03 0.  0.
         25    1    1    2    0    0  0.24507234653E+02  0.77212129027E+01 -0.13460441127E+03  0.18214985372E+03  0.12000000000E+03 0.  0.
<mgrwt>
<rscale>  0 0.24774757E+03</rscale>
<asrwt>0</asrwt>
<pdfrwt beam="1">  1        2 0.42891265E-01 0.24774757E+03</pdfrwt>
<pdfrwt beam="2">  1       -2 0.84676565E-02 0.24774757E+03</pdfrwt>
<totfact> 0.10087785E+04</totfact>
</mgrwt>
</event>
<event>
 4    1  0.1726503E-004  0.2600691E+03  0.7818608E-02  0.1107102E+00
          2   -1    0    0  501    0  0.00000000000E+00  0.00000000000E+00  0.47307179257E+03  0.47307179257E+03  0.00000000000E+00 0. -1.
         -2   -1    0    0    0  501 -0.00000000000E+00 -0.00000000000E+00 -0.35742946153E+02  0.35742946153E+02  0.00000000000E+00 0. -1.
         25    1    1    2    0    0 -0.17322770119E+02  0.36469172345E+02  0.27666614626E+03  0.30426014425E+03  0.12000000000E+03 0.  0.
         25    1    1    2    0    0  0.17322770119E+02 -0.36469172345E+02  0.16066270016E+03  0.20455459447E+03  0.12000000000E+03 0.  0.
<mgrwt>
<rscale>  0 0.26006906E+03</rscale>
<asrwt>0</asrwt>
<pdfrwt beam="1">  1        2 0.72780271E-01 0.26006906E+03</pdfrwt>
<pdfrwt beam="2">  1       -2 0.54989151E-02 0.26006906E+03</pdfrwt>
<totfact> 0.11110867E+04</totfact>
</mgrwt>
</event>
<event>
 4    1  0.1726503E-004  0.4026906E+03  0.7818608E-02  0.1042852E+00
          2   -1    0    0  501    0  0.00000000000E+00  0.00000000000E+00  0.33099771244E+03  0.33099771244E+03  0.00000000000E+00 0. -1.
         -2   -1    0    0    0  501 -0.00000000000E+00 -0.00000000000E+00 -0.12247796821E+03  0.12247796821E+03  0.00000000000E+00 0. -1.
         25    1    1    2    0    0  0.13297639760E+03  0.75660668903E+02  0.45392320723E+02  0.19966903094E+03  0.12000000000E+03 0.  0.
         25    1    1    2    0    0 -0.13297639760E+03 -0.75660668903E+02  0.16312742351E+03  0.25380664971E+03  0.12000000000E+03 0.  0.
<mgrwt>
<rscale>  0 0.40269059E+03</rscale>
<asrwt>0</asrwt>
<pdfrwt beam="1">  1        2 0.50922725E-01 0.40269059E+03</pdfrwt>
<pdfrwt beam="2">  1       -2 0.18842764E-01 0.40269059E+03</pdfrwt>
<totfact> 0.23022184E+03</totfact>
</mgrwt>
</event>
<event>
 4    1  0.1726503E-004  0.2493873E+03  0.7818608E-02  0.1113693E+00
          2   -1    0    0  501    0  0.00000000000E+00  0.00000000000E+00  0.36655036736E+03  0.36655036736E+03  0.00000000000E+00 0.  1.
         -2   -1    0    0    0  501 -0.00000000000E+00 -0.00000000000E+00 -0.42418462636E+02  0.42418462636E+02  0.00000000000E+00 0.  1.
         25    1    1    2    0    0  0.32848666603E+02  0.61109367027E+01  0.15277126251E+03  0.19711782541E+03  0.12000000000E+03 0.  0.
         25    1    1    2    0    0 -0.32848666603E+02 -0.61109367027E+01  0.17136064221E+03  0.21185100458E+03  0.12000000000E+03 0.  0.
<mgrwt>
<rscale>  0 0.24938727E+03</rscale>
<asrwt>0</asrwt>
<pdfrwt beam="1">  1        2 0.56392362E-01 0.24938727E+03</pdfrwt>
<pdfrwt beam="2">  1       -2 0.65259176E-02 0.24938727E+03</pdfrwt>
<totfact> 0.11266418E+04</totfact>
</mgrwt>
</event>
<event>
 4    1  0.1726503E-004  0.2453832E+03  0.7818608E-02  0.1116258E+00
          1   -1    0    0  501    0  0.00000000000E+00  0.00000000000E+00  0.78140664666E+02  0.78140664666E+02  0.00000000000E+00 0.  1.
         -1   -1    0    0    0  501 -0.00000000000E+00 -0.00000000000E+00 -0.19264271296E+03  0.19264271296E+03  0.00000000000E+00 0.  1.
         25    1    1    2    0    0  0.89264576141E+01 -0.20027034109E+02 -0.71743039075E+02  0.14151970674E+03  0.12000000000E+03 0.  0.
         25    1    1    2    0    0 -0.89264576141E+01  0.20027034109E+02 -0.42759009218E+02  0.12926367088E+03  0.12000000000E+03 0.  0.
<mgrwt>
<rscale>  0 0.24538321E+03</rscale>
<asrwt>0</asrwt>
<pdfrwt beam="1">  1        1 0.12021641E-01 0.24538321E+03</pdfrwt>
<pdfrwt beam="2">  1       -1 0.29637340E-01 0.24538321E+03</pdfrwt>
<totfact> 0.51574201E+03</totfact>
</mgrwt>
</event>
<event>
 4    1  0.1726503E-004  0.3522174E+03  0.7818608E-02  0.1061709E+00
         -2   -1    0    0    0  501 -0.00000000000E+00  0.00000000000E+00  0.10241686802E+03  0.10241686802E+03  0.00000000000E+00 0. -1.
          2   -1    0    0  501    0  0.00000000000E+00 -0.00000000000E+00 -0.30282394561E+03  0.30282394561E+03  0.00000000000E+00 0. -1.
         25    1    1    2    0    0  0.71855460301E+02  0.44468435414E+01  0.22809207146E+02  0.14178590030E+03  0.12000000000E+03 0.  0.
         25    1    1    2    0    0 -0.71855460301E+02 -0.44468435414E+01 -0.22321628473E+03  0.26345491334E+03  0.12000000000E+03 0.  0.
<mgrwt>
<rscale>  0 0.35221743E+03</rscale>
<asrwt>0</asrwt>
<pdfrwt beam="1">  1        2 0.46588299E-01 0.35221743E+03</pdfrwt>
<pdfrwt beam="2">  1       -2 0.15756441E-01 0.35221743E+03</pdfrwt>
<totfact> 0.34249483E+03</totfact>
</mgrwt>
</event>
<event>
 4    1  0.1726503E-004  0.3115627E+03  0.7818608E-02  0.1079599E+00
         -1   -1    0    0    0  501 -0.00000000000E+00  0.00000000000E+00  0.50065333074E+02  0.50065333074E+02  0.00000000000E+00 0. -1.
          1   -1    0    0  501    0  0.00000000000E+00 -0.00000000000E+00 -0.48472318772E+03  0.48472318772E+03  0.00000000000E+00 0. -1.
         25    1    1    2    0    0  0.89300665754E+02 -0.34635573067E+02 -0.17212356826E+03  0.23065288764E+03  0.12000000000E+03 0.  0.
         25    1    1    2    0    0 -0.89300665754E+02  0.34635573067E+02 -0.26253428639E+03  0.30413563315E+03  0.12000000000E+03 0.  0.
<mgrwt>
<rscale>  0 0.31156269E+03</rscale>
<asrwt>0</asrwt>
<pdfrwt beam="1">  1        1 0.74572800E-01 0.31156269E+03</pdfrwt>
<pdfrwt beam="2">  1       -1 0.77023587E-02 0.31156269E+03</pdfrwt>
<totfact> 0.42960092E+03</totfact>
</mgrwt>
</event>
<event>
 4    1  0.1726503E-004  0.2459142E+03  0.7818608E-02  0.1115915E+00
         -2   -1    0    0    0  501 -0.00000000000E+00  0.00000000000E+00  0.28140415392E+02  0.28140415392E+02  0.00000000000E+00 0.  1.
          2   -1    0    0  501    0  0.00000000000E+00 -0.00000000000E+00 -0.53725018327E+03  0.53725018327E+03  0.00000000000E+00 0.  1.
         25    1    1    2    0    0 -0.22477673562E+02 -0.10746173353E+02 -0.23182743319E+03  0.26223021342E+03  0.12000000000E+03 0.  0.
         25    1    1    2    0    0  0.22477673562E+02  0.10746173353E+02 -0.27728233469E+03  0.30316038524E+03  0.12000000000E+03 0.  0.
<mgrwt>
<rscale>  0 0.24591416E+03</rscale>
<asrwt>0</asrwt>
<pdfrwt beam="1">  1        2 0.82653858E-01 0.24591416E+03</pdfrwt>
<pdfrwt beam="2">  1       -2 0.43292955E-02 0.24591416E+03</pdfrwt>
<totfact> 0.13812306E+04</totfact>
</mgrwt>
</event>
<event>
 4    1  0.1726503E-004  0.2891996E+03  0.7818608E-02  0.1090768E+00
          1   -1    0    0  501    0  0.00000000000E+00  0.00000000000E+00  0.68885044565E+03  0.68885044565E+03  0.00000000000E+00 0. -1.
         -1   -1    0    0    0  501 -0.00000000000E+00 -0.00000000000E+00 -0.30353613989E+02  0.30353613989E+02  0.00000000000E+00 0. -1.
         25    1    1    2    0    0  0.15266897851E+02  0.64122333635E+02  0.21355248801E+03  0.25367186871E+03  0.12000000000E+03 0.  0.
         25    1    1    2    0    0 -0.15266897851E+02 -0.64122333635E+02  0.44494434366E+03  0.46553219093E+03  0.12000000000E+03 0.  0.
<mgrwt>
<rscale>  0 0.28919959E+03</rscale>
<asrwt>0</asrwt>
<pdfrwt beam="1">  1        1 0.10597698E+00 0.28919959E+03</pdfrwt>
<pdfrwt beam="2">  1       -1 0.46697873E-02 0.28919959E+03</pdfrwt>
<totfact> 0.56234023E+03</totfact>
</mgrwt>
</event>
<event>
 4    1  0.1726503E-004  0.3186580E+03  0.7818608E-02  0.1076269E+00
          2   -1    0    0  501    0  0.00000000000E+00  0.00000000000E+00  0.13952789724E+03  0.13952789724E+03  0.00000000000E+00 0.  1.
         -2   -1    0    0    0  501 -0.00000000000E+00 -0.00000000000E+00 -0.18194013261E+03  0.18194013261E+03  0.00000000000E+00 0.  1.
         25    1    1    2    0    0 -0.37664507839E+02 -0.87320227350E+01  0.77074033461E+02  0.14776762164E+03  0.12000000000E+03 0.  0.
         25    1    1    2    0    0  0.37664507839E+02  0.87320227350E+01 -0.11948626883E+03  0.17370040821E+03  0.12000000000E+03 0.  0.
<mgrwt>
<rscale>  0 0.31865796E+03</rscale>
<asrwt>0</asrwt>
<pdfrwt beam="1">  1        2 0.21465830E-01 0.31865796E+03</pdfrwt>
<pdfrwt beam="2">  1       -2 0.27990790E-01 0.31865796E+03</pdfrwt>
<totfact> 0.29732278E+03</totfact>
</mgrwt>
</event>
<event>
 4    1  0.1726503E-004  0.2473916E+03  0.7818608E-02  0.1114964E+00
         -2   -1    0    0    0  501 -0.00000000000E+00  0.00000000000E+00  0.79714190224E+01  0.79714190224E+01  0.00000000000E+00 0.  1.
          2   -1    0    0  501    0  0.00000000000E+00 -0.00000000000E+00 -0.19194391927E+04  0.19194391927E+04  0.00000000000E+00 0.  1.
         25    1    1    2    0    0 -0.27254440751E+02  0.12019992769E+02 -0.98422070982E+03  0.99195649622E+03  0.12000000000E+03 0.  0.
         25    1    1    2    0    0  0.27254440751E+02 -0.12019992769E+02 -0.92724706390E+03  0.93545411554E+03  0.12000000000E+03 0.  0.
<mgrwt>
<rscale>  0 0.24739163E+03</rscale>
<asrwt>0</asrwt>
<pdfrwt beam="1">  1        2 0.29529856E+00 0.24739163E+03</pdfrwt>
<pdfrwt beam="2">  1       -2 0.12263712E-02 0.24739163E+03</pdfrwt>
<totfact> 0.12939067E+04</totfact>
</mgrwt>
</event>
<event>
 4    1  0.1726503E-004  0.2749679E+03  0.7818608E-02  0.1098470E+00
         -2   -1    0    0    0  501 -0.00000000000E+00  0.00000000000E+00  0.15122743156E+02  0.15122743156E+02  0.00000000000E+00 0.  1.
          2   -1    0    0  501    0  0.00000000000E+00 -0.00000000000E+00 -0.12498945812E+04  0.12498945812E+04  0.00000000000E+00 0.  1.
         25    1    1    2    0    0  0.21459525050E+02 -0.21992466928E+02 -0.34297814780E+03  0.36466174694E+03  0.12000000000E+03 0.  0.
         25    1    1    2    0    0 -0.21459525050E+02  0.21992466928E+02 -0.89179369028E+03  0.90035557745E+03  0.12000000000E+03 0.  0.
<mgrwt>
<rscale>  0 0.27496789E+03</rscale>
<asrwt>0</asrwt>
<pdfrwt beam="1">  1        2 0.19229148E+00 0.27496789E+03</pdfrwt>
<pdfrwt beam="2">  1       -2 0.23265758E-02 0.27496789E+03</pdfrwt>
<totfact> 0.11560545E+04</totfact>
</mgrwt>
</event>
<event>
 4    1  0.1726503E-004  0.2796034E+03  0.7818608E-02  0.1095906E+00
         -2   -1    0    0    0  501 -0.00000000000E+00  0.00000000000E+00  0.20614207970E+03  0.20614207970E+03  0.00000000000E+00 0.  1.
          2   -1    0    0  501    0  0.00000000000E+00 -0.00000000000E+00 -0.94810879945E+02  0.94810879945E+02  0.00000000000E+00 0.  1.
         25    1    1    2    0    0 -0.29995761494E+02 -0.35220628012E+02  0.11466205947E+03  0.17230097570E+03  0.12000000000E+03 0.  0.
         25    1    1    2    0    0  0.29995761494E+02  0.35220628012E+02 -0.33308597224E+01  0.12865198394E+03  0.12000000000E+03 0.  0.
<mgrwt>
<rscale>  0 0.27960338E+03</rscale>
<asrwt>0</asrwt>
<pdfrwt beam="1">  1        2 0.14586289E-01 0.27960338E+03</pdfrwt>
<pdfrwt beam="2">  1       -2 0.31714166E-01 0.27960338E+03</pdfrwt>
<totfact> 0.37041829E+03</totfact>
</mgrwt>
</event>
<event>
 4    1  0.1726503E-004  0.5026294E+03  0.7818608E-02  0.1013095E+00
         -3   -1    0    0    0  501 -0.00000000000E+00  0.00000000000E+00  0.78224862432E+02  0.78224862432E+02  0.00000000000E+00 0. -1.
          3   -1    0    0  501    0  0.00000000000E+00 -0.00000000000E+00 -0.80740425139E+03  0.80740425139E+03  0.00000000000E+00 0. -1.
         25    1    1    2    0    0  0.13083144494E+03  0.10869609241E+03 -0.11648406216E+03  0.23853772076E+03  0.12000000000E+03 0.  0.
         25    1    1    2    0    0 -0.13083144494E+03 -0.10869609241E+03 -0.61269532680E+03  0.64709139306E+03  0.12000000000E+03 0.  0.
<mgrwt>
<rscale>  0 0.50262943E+03</rscale>
<asrwt>0</asrwt>
<pdfrwt beam="1">  1        3 0.12421603E+00 0.50262943E+03</pdfrwt>
<pdfrwt beam="2">  1       -3 0.12034595E-01 0.50262943E+03</pdfrwt>
<totfact> 0.76528446E+01</totfact>
</mgrwt>
</event>
<event>
 4    1  0.1726503E-004  0.2506526E+03  0.7818608E-02  0.1112893E+00
         -1   -1    0    0    0  501 -0.00000000000E+00  0.00000000000E+00  0.38228233498E+02  0.38228233498E+02  0.00000000000E+00 0. -1.
          1   -1    0    0  501    0  0.00000000000E+00 -0.00000000000E+00 -0.41086595094E+03  0.41086595094E+03  0.00000000000E+00 0. -1.
         25    1    1    2    0    0 -0.27196233918E+02 -0.23611303146E+02 -0.19185597454E+03  0.22914153648E+03  0.12000000000E+03 0.  0.
         25    1    1    2    0    0  0.27196233918E+02  0.23611303146E+02 -0.18078174290E+03  0.21995264796E+03  0.12000000000E+03 0.  0.
<mgrwt>
<rscale>  0 0.25065258E+03</rscale>
<asrwt>0</asrwt>
<pdfrwt beam="1">  1        1 0.63210146E-01 0.25065258E+03</pdfrwt>
<pdfrwt beam="2">  1       -1 0.58812667E-02 0.25065258E+03</pdfrwt>
<totfact> 0.79711270E+03</totfact>
</mgrwt>
</event>
<event>
 4    1  0.1726503E-004  0.2706183E+03  0.7818608E-02  0.1100926E+00
         -1   -1    0    0    0  501 -0.00000000000E+00  0.00000000000E+00  0.25249444442E+02  0.25249444442E+02  0.00000000000E+00 0.  1.
          1   -1    0    0  501    0  0.00000000000E+00 -0.00000000000E+00 -0.72510749136E+03  0.72510749136E+03  0.00000000000E+00 0.  1.
         25    1    1    2    0    0 -0.20335409185E+02 -0.42419830442E+02 -0.23575395643E+03  0.26868736266E+03  0.12000000000E+03 0.  0.
         25    1    1    2    0    0  0.20335409185E+02  0.42419830442E+02 -0.46410409049E+03  0.48166957314E+03  0.12000000000E+03 0.  0.
<mgrwt>
<rscale>  0 0.27061826E+03</rscale>
<asrwt>0</asrwt>
<pdfrwt beam="1">  1        1 0.11155501E+00 0.27061826E+03</pdfrwt>
<pdfrwt beam="2">  1       -1 0.38845295E-02 0.27061826E+03</pdfrwt>
<totfact> 0.68522239E+03</totfact>
</mgrwt>
</event>
<event>
 4    1  0.1726503E-004  0.3158625E+03  0.7818608E-02  0.1077569E+00
         -2   -1    0    0    0  501 -0.00000000000E+00  0.00000000000E+00  0.26205154686E+02  0.26205154686E+02  0.00000000000E+00 0. -1.
          2   -1    0    0  501    0  0.00000000000E+00 -0.00000000000E+00 -0.95180789261E+03  0.95180789261E+03  0.00000000000E+00 0. -1.
         25    1    1    2    0    0 -0.88379709343E+02  0.16545484225E+02 -0.30930519556E+03  0.34373598891E+03  0.12000000000E+03 0.  0.
         25    1    1    2    0    0  0.88379709343E+02 -0.16545484225E+02 -0.61629754236E+03  0.63427705838E+03  0.12000000000E+03 0.  0.
<mgrwt>
<rscale>  0 0.31586246E+03</rscale>
<asrwt>0</asrwt>
<pdfrwt beam="1">  1        2 0.14643198E+00 0.31586246E+03</pdfrwt>
<pdfrwt beam="2">  1       -2 0.40315623E-02 0.31586246E+03</pdfrwt>
<totfact> 0.76602052E+03</totfact>
</mgrwt>
</event>
<event>
 4    1  0.1726503E-004  0.3476842E+03  0.7818608E-02  0.1063570E+00
          2   -1    0    0  501    0  0.00000000000E+00  0.00000000000E+00  0.28840023394E+02  0.28840023394E+02  0.00000000000E+00 0. -1.
         -2   -1    0    0    0  501 -0.00000000000E+00 -0.00000000000E+00 -0.10478864637E+04  0.10478864637E+04  0.00000000000E+00 0. -1.
         25    1    1    2    0    0 -0.11749113497E+03 -0.16721901689E+02 -0.63860221009E+03  0.66052749491E+03  0.12000000000E+03 0.  0.
         25    1    1    2    0    0  0.11749113497E+03  0.16721901689E+02 -0.38044423020E+03  0.41619899217E+03  0.12000000000E+03 0.  0.
<mgrwt>
<rscale>  0 0.34768417E+03</rscale>
<asrwt>0</asrwt>
<pdfrwt beam="1">  1        2 0.44369267E-02 0.34768417E+03</pdfrwt>
<pdfrwt beam="2">  1       -2 0.16121330E+00 0.34768417E+03</pdfrwt>
<totfact> 0.48572100E+02</totfact>
</mgrwt>
</event>
<event>
 4    1  0.1726503E-004  0.3798987E+03  0.7818608E-02  0.1050971E+00
          2   -1    0    0  501    0  0.00000000000E+00  0.00000000000E+00  0.46105234839E+02  0.46105234839E+02  0.00000000000E+00 0. -1.
         -2   -1    0    0    0  501 -0.00000000000E+00 -0.00000000000E+00 -0.78257386377E+03  0.78257386377E+03  0.00000000000E+00 0. -1.
         25    1    1    2    0    0 -0.12977914295E+03  0.17239109185E+02 -0.51522554696E+03  0.54497447378E+03  0.12000000000E+03 0.  0.
         25    1    1    2    0    0  0.12977914295E+03 -0.17239109185E+02 -0.22124308197E+03  0.28370462483E+03  0.12000000000E+03 0.  0.
<mgrwt>
<rscale>  0 0.37989868E+03</rscale>
<asrwt>0</asrwt>
<pdfrwt beam="1">  1        2 0.70931132E-02 0.37989868E+03</pdfrwt>
<pdfrwt beam="2">  1       -2 0.12039598E+00 0.37989868E+03</pdfrwt>
<totfact> 0.54998035E+02</totfact>
</mgrwt>
</event>
<event>
 4    1  0.1726503E-004  0.5426732E+03  0.7818608E-02  0.1003204E+00
         -2   -1    0    0    0  501 -0.00000000000E+00  0.00000000000E+00  0.38891323904E+02  0.38891323904E+02  0.00000000000E+00 0.  1.
          2   -1    0    0  501    0  0.00000000000E+00 -0.00000000000E+00 -0.18930587475E+04  0.18930587475E+04  0.00000000000E+00 0.  1.
         25    1    1    2    0    0 -0.16387873307E+03  0.16470605820E+03 -0.11847701013E+04  0.12132866593E+04  0.12000000000E+03 0.  0.
         25    1    1    2    0    0  0.16387873307E+03 -0.16470605820E+03 -0.66939732226E+03  0.71866341204E+03  0.12000000000E+03 0.  0.
<mgrwt>
<rscale>  0 0.54267324E+03</rscale>
<asrwt>0</asrwt>
<pdfrwt beam="1">  1        2 0.29123980E+00 0.54267324E+03</pdfrwt>
<pdfrwt beam="2">  1       -2 0.59832807E-02 0.54267324E+03</pdfrwt>
<totfact> 0.12328446E+03</totfact>
</mgrwt>
</event>
<event>
 4    1  0.1726503E-004  0.2599327E+03  0.7818608E-02  0.1107184E+00
          2   -1    0    0  501    0  0.00000000000E+00  0.00000000000E+00  0.44988192148E+04  0.44988192148E+04  0.00000000000E+00 0.  1.
         -2   -1    0    0    0  501 -0.00000000000E+00 -0.00000000000E+00 -0.37545956962E+01  0.37545956962E+01  0.00000000000E+00 0.  1.
         25    1    1    2    0    0  0.44140031347E+01  0.39197196477E+02  0.17177644809E+04  0.17224025997E+04  0.12000000000E+03 0.  0.
         25    1    1    2    0    0 -0.44140031347E+01 -0.39197196477E+02  0.27773001383E+04  0.27801712108E+04  0.12000000000E+03 0.  0.
<mgrwt>
<rscale>  0 0.25993266E+03</rscale>
<asrwt>0</asrwt>
<pdfrwt beam="1">  1        2 0.69212172E+00 0.25993266E+03</pdfrwt>
<pdfrwt beam="2">  1       -2 0.57763371E-03 0.25993266E+03</pdfrwt>
<totfact> 0.80690490E+02</totfact>
</mgrwt>
</event>
<event>
 4    1  0.1726503E-004  0.2447861E+03  0.7818608E-02  0.1116645E+00
         -1   -1    0    0    0  501 -0.00000000000E+00  0.00000000000E+00  0.36490670593E+03  0.36490670593E+03  0.00000000000E+00 0. -1.
          1   -1    0    0  501    0  0.00000000000E+00 -0.00000000000E+00 -0.41051761526E+02  0.41051761526E+02  0.00000000000E+00 0. -1.
         25    1    1    2    0    0 -0.21528536210E+02  0.10511044499E+02  0.16602452501E+03  0.20624767352E+03  0.12000000000E+03 0.  0.
         25    1    1    2    0    0  0.21528536210E+02 -0.10511044499E+02  0.15783041940E+03  0.19971079394E+03  0.12000000000E+03 0.  0.
<mgrwt>
<rscale>  0 0.24478614E+03</rscale>
<asrwt>0</asrwt>
<pdfrwt beam="1">  1        1 0.63156559E-02 0.24478614E+03</pdfrwt>
<pdfrwt beam="2">  1       -1 0.56139491E-01 0.24478614E+03</pdfrwt>
<totfact> 0.39386880E+03</totfact>
</mgrwt>
</event>
<event>
 4    1  0.1726503E-004  0.2618116E+03  0.7818608E-02  0.1106060E+00
          1   -1    0    0  501    0  0.00000000000E+00  0.00000000000E+00  0.23598416192E+04  0.23598416192E+04  0.00000000000E+00 0. -1.
         -1   -1    0    0    0  501 -0.00000000000E+00 -0.00000000000E+00 -0.72616445921E+01  0.72616445921E+01  0.00000000000E+00 0. -1.
         25    1    1    2    0    0  0.13849611869E+02  0.49275097263E+02  0.12738701966E+04  0.12805331409E+04  0.12000000000E+03 0.  0.
         25    1    1    2    0    0 -0.13849611869E+02 -0.49275097263E+02  0.10787097779E+04  0.10865701229E+04  0.12000000000E+03 0.  0.
<mgrwt>
<rscale>  0 0.26181162E+03</rscale>
<asrwt>0</asrwt>
<pdfrwt beam="1">  1        1 0.36305194E+00 0.26181162E+03</pdfrwt>
<pdfrwt beam="2">  1       -1 0.11171780E-02 0.26181162E+03</pdfrwt>
<totfact> 0.31463308E+03</totfact>
</mgrwt>
</event>
<event>
 4    1  0.1726503E-004  0.2992373E+03  0.7818608E-02  0.1085623E+00
         -3   -1    0    0    0  501 -0.00000000000E+00  0.00000000000E+00  0.12715179328E+03  0.12715179328E+03  0.00000000000E+00 0. -1.
          3   -1    0    0  501    0  0.00000000000E+00 -0.00000000000E+00 -0.17605522747E+03  0.17605522747E+03  0.00000000000E+00 0. -1.
         25    1    1    2    0    0 -0.34212646668E+02 -0.81098886568E+02 -0.88131328723E+01  0.14908120574E+03  0.12000000000E+03 0.  0.
         25    1    1    2    0    0  0.34212646668E+02  0.81098886568E+02 -0.40090301318E+02  0.15412581502E+03  0.12000000000E+03 0.  0.
<mgrwt>
<rscale>  0 0.29923728E+03</rscale>
<asrwt>0</asrwt>
<pdfrwt beam="1">  1        3 0.27085420E-01 0.29923728E+03</pdfrwt>
<pdfrwt beam="2">  1       -3 0.19561814E-01 0.29923728E+03</pdfrwt>
<totfact> 0.77614924E+02</totfact>
</mgrwt>
</event>
<event>
 4    1  0.1726503E-004  0.3229487E+03  0.7818608E-02  0.1074300E+00
         -2   -1    0    0    0  501 -0.00000000000E+00  0.00000000000E+00  0.25905468050E+03  0.25905468050E+03  0.00000000000E+00 0. -1.
          2   -1    0    0  501    0  0.00000000000E+00 -0.00000000000E+00 -0.10065040613E+03  0.10065040613E+03  0.00000000000E+00 0. -1.
         25    1    1    2    0    0  0.61822875241E+02 -0.83243408012E+02  0.11303033373E+03  0.19474955513E+03  0.12000000000E+03 0.  0.
         25    1    1    2    0    0 -0.61822875241E+02  0.83243408012E+02  0.45373940641E+02  0.16495553149E+03  0.12000000000E+03 0.  0.
<mgrwt>
<rscale>  0 0.32294866E+03</rscale>
<asrwt>0</asrwt>
<pdfrwt beam="1">  1        2 0.15484678E-01 0.32294866E+03</pdfrwt>
<pdfrwt beam="2">  1       -2 0.39854566E-01 0.32294866E+03</pdfrwt>
<totfact> 0.22566998E+03</totfact>
</mgrwt>
</event>
<event>
 4    1  0.1726503E-004  0.2663438E+03  0.7818608E-02  0.1103391E+00
         -2   -1    0    0    0  501 -0.00000000000E+00  0.00000000000E+00  0.69426815120E+01  0.69426815120E+01  0.00000000000E+00 0.  1.
          2   -1    0    0  501    0  0.00000000000E+00 -0.00000000000E+00 -0.25544531507E+04  0.25544531507E+04  0.00000000000E+00 0.  1.
         25    1    1    2    0    0  0.21184334373E+02  0.27679758415E+02 -0.83098079798E+03  0.84032376598E+03  0.12000000000E+03 0.  0.
         25    1    1    2    0    0 -0.21184334373E+02 -0.27679758415E+02 -0.17165296712E+04  0.17210720662E+04  0.12000000000E+03 0.  0.
<mgrwt>
<rscale>  0 0.26634380E+03</rscale>
<asrwt>0</asrwt>
<pdfrwt beam="1">  1        2 0.39299279E+00 0.26634380E+03</pdfrwt>
<pdfrwt beam="2">  1       -2 0.10681049E-02 0.26634380E+03</pdfrwt>
<totfact> 0.72517757E+03</totfact>
</mgrwt>
</event>
<event>
 4    1  0.1726503E-004  0.2745132E+03  0.7818608E-02  0.1098724E+00
          2   -1    0    0  501    0  0.00000000000E+00  0.00000000000E+00  0.76967855516E+02  0.76967855516E+02  0.00000000000E+00 0.  1.
         -2   -1    0    0    0  501 -0.00000000000E+00 -0.00000000000E+00 -0.24476933504E+03  0.24476933504E+03  0.00000000000E+00 0.  1.
         25    1    1    2    0    0 -0.23768014481E+01  0.22473366541E+02 -0.15736241296E+03  0.19918240485E+03  0.12000000000E+03 0.  0.
         25    1    1    2    0    0  0.23768014481E+01 -0.22473366541E+02 -0.10439066564E+02  0.12255478571E+03  0.12000000000E+03 0.  0.
<mgrwt>
<rscale>  0 0.27451318E+03</rscale>
<asrwt>0</asrwt>
<pdfrwt beam="1">  1        2 0.11841208E-01 0.27451318E+03</pdfrwt>
<pdfrwt beam="2">  1       -2 0.37656822E-01 0.27451318E+03</pdfrwt>
<totfact> 0.34572301E+03</totfact>
</mgrwt>
</event>
<event>
 4    1  0.1726503E-004  0.2626752E+03  0.7818608E-02  0.1105547E+00
          2   -1    0    0  501    0  0.00000000000E+00  0.00000000000E+00  0.12282742100E+03  0.12282742100E+03  0.00000000000E+00 0. -1.
         -2   -1    0    0    0  501 -0.00000000000E+00 -0.00000000000E+00 -0.14043737067E+03  0.14043737067E+03  0.00000000000E+00 0. -1.
         25    1    1    2    0    0  0.39181765839E+02 -0.69682467799E+01  0.26852869710E+02  0.12924721989E+03  0.12000000000E+03 0.  0.
         25    1    1    2    0    0 -0.39181765839E+02  0.69682467799E+01 -0.44462819380E+02  0.13401757178E+03  0.12000000000E+03 0.  0.
<mgrwt>
<rscale>  0 0.26267516E+03</rscale>
<asrwt>0</asrwt>
<pdfrwt beam="1">  1        2 0.18896526E-01 0.26267516E+03</pdfrwt>
<pdfrwt beam="2">  1       -2 0.21605749E-01 0.26267516E+03</pdfrwt>
<totfact> 0.54004472E+03</totfact>
</mgrwt>
</event>
<event>
 4    1  0.1726503E-004  0.3467189E+03  0.7818608E-02  0.1063970E+00
         -2   -1    0    0    0  501 -0.00000000000E+00  0.00000000000E+00  0.16906612212E+02  0.16906612212E+02  0.00000000000E+00 0. -1.
          2   -1    0    0  501    0  0.00000000000E+00 -0.00000000000E+00 -0.17776183492E+04  0.17776183492E+04  0.00000000000E+00 0. -1.
         25    1    1    2    0    0 -0.89480507860E+02  0.87034619852E+02 -0.92418726210E+03  0.94026798401E+03  0.12000000000E+03 0.  0.
         25    1    1    2    0    0  0.89480507860E+02 -0.87034619852E+02 -0.83652447488E+03  0.85425697739E+03  0.12000000000E+03 0.  0.
<mgrwt>
<rscale>  0 0.34671893E+03</rscale>
<asrwt>0</asrwt>
<pdfrwt beam="1">  1        2 0.27347955E+00 0.34671893E+03</pdfrwt>
<pdfrwt beam="2">  1       -2 0.26010191E-02 0.34671893E+03</pdfrwt>
<totfact> 0.50983635E+03</totfact>
</mgrwt>
</event>
<event>
 4    1  0.1726503E-004  0.4234675E+03  0.7818608E-02  0.1035944E+00
          2   -1    0    0  501    0  0.00000000000E+00  0.00000000000E+00  0.41579942995E+03  0.41579942995E+03  0.00000000000E+00 0. -1.
         -2   -1    0    0    0  501 -0.00000000000E+00 -0.00000000000E+00 -0.10781926456E+03  0.10781926456E+03  0.00000000000E+00 0. -1.
         25    1    1    2    0    0  0.58091168069E+02  0.84359932389E+02  0.32859548269E+03  0.36450812507E+03  0.12000000000E+03 0.  0.
         25    1    1    2    0    0 -0.58091168069E+02 -0.84359932389E+02 -0.20615317305E+02  0.15911056944E+03  0.12000000000E+03 0.  0.
<mgrwt>
<rscale>  0 0.42346754E+03</rscale>
<asrwt>0</asrwt>
<pdfrwt beam="1">  1        2 0.63969142E-01 0.42346754E+03</pdfrwt>
<pdfrwt beam="2">  1       -2 0.16587579E-01 0.42346754E+03</pdfrwt>
<totfact> 0.22266219E+03</totfact>
</mgrwt>
</event>
<event>
 4    1  0.1726503E-004  0.2508216E+03  0.7818608E-02  0.1112787E+00
          1   -1    0    0  501    0  0.00000000000E+00  0.00000000000E+00  0.10720770796E+04  0.10720770796E+04  0.00000000000E+00 0. -1.
         -1   -1    0    0    0  501 -0.00000000000E+00 -0.00000000000E+00 -0.14670462323E+02  0.14670462323E+02  0.00000000000E+00 0. -1.
         25    1    1    2    0    0  0.18746893083E+02 -0.28767846875E+02  0.47584527125E+03  0.49194283935E+03  0.12000000000E+03 0.  0.
         25    1    1    2    0    0 -0.18746893083E+02  0.28767846875E+02  0.58156134607E+03  0.59480470262E+03  0.12000000000E+03 0.  0.
<mgrwt>
<rscale>  0 0.25082158E+03</rscale>
<asrwt>0</asrwt>
<pdfrwt beam="1">  1        1 0.16493487E+00 0.25082158E+03</pdfrwt>
<pdfrwt beam="2">  1       -1 0.22569951E-02 0.25082158E+03</pdfrwt>
<totfact> 0.80859438E+03</totfact>
</mgrwt>
</event>
<event>
 4    1  0.1726503E-004  0.2608758E+03  0.7818608E-02  0.1106618E+00
          1   -1    0    0  501    0  0.00000000000E+00  0.00000000000E+00  0.26550014454E+02  0.26550014454E+02  0.00000000000E+00 0. -1.
         -1   -1    0    0    0  501 -0.00000000000E+00 -0.00000000000E+00 -0.64082982885E+03  0.64082982885E+03  0.00000000000E+00 0. -1.
         25    1    1    2    0    0  0.50284632355E+02 -0.13415450749E+01 -0.33054416520E+03  0.35523202156E+03  0.12000000000E+03 0.  0.
         25    1    1    2    0    0 -0.50284632355E+02  0.13415450749E+01 -0.28373564919E+03  0.31214782174E+03  0.12000000000E+03 0.  0.
<mgrwt>
<rscale>  0 0.26087577E+03</rscale>
<asrwt>0</asrwt>
<pdfrwt beam="1">  1        1 0.40846177E-02 0.26087577E+03</pdfrwt>
<pdfrwt beam="2">  1       -1 0.98589203E-01 0.26087577E+03</pdfrwt>
<totfact> 0.22902323E+03</totfact>
</mgrwt>
</event>
<event>
 4    1  0.1726503E-004  0.2504150E+03  0.7818608E-02  0.1113043E+00
         -2   -1    0    0    0  501 -0.00000000000E+00  0.00000000000E+00  0.99738156575E+03  0.99738156575E+03  0.00000000000E+00 0.  1.
          2   -1    0    0  501    0  0.00000000000E+00 -0.00000000000E+00 -0.15718074924E+02  0.15718074924E+02  0.00000000000E+00 0.  1.
         25    1    1    2    0    0 -0.95543627185E+01  0.10867881929E+02  0.35864736806E+03  0.37846708089E+03  0.12000000000E+03 0.  0.
         25    1    1    2    0    0  0.95543627185E+01 -0.10867881929E+02  0.62301612277E+03  0.63463255978E+03  0.12000000000E+03 0.  0.
<mgrwt>
<rscale>  0 0.25041500E+03</rscale>
<asrwt>0</asrwt>
<pdfrwt beam="1">  1        2 0.24181662E-02 0.25041500E+03</pdfrwt>
<pdfrwt beam="2">  1       -2 0.15344327E+00 0.25041500E+03</pdfrwt>
<totfact> 0.12548622E+03</totfact>
</mgrwt>
</event>
<event>
 4    1  0.1726503E-004  0.3046201E+03  0.7818608E-02  0.1082954E+00
          1   -1    0    0  501    0  0.00000000000E+00  0.00000000000E+00  0.33653844921E+03  0.33653844921E+03  0.00000000000E+00 0. -1.
         -1   -1    0    0    0  501 -0.00000000000E+00 -0.00000000000E+00 -0.68932233564E+02  0.68932233564E+02  0.00000000000E+00 0. -1.
         25    1    1    2    0    0 -0.45159723911E+02 -0.22143879970E+02  0.28416349664E+02  0.13318123371E+03  0.12000000000E+03 0.  0.
         25    1    1    2    0    0  0.45159723911E+02  0.22143879970E+02  0.23918986598E+03  0.27228944907E+03  0.12000000000E+03 0.  0.
<mgrwt>
<rscale>  0 0.30462007E+03</rscale>
<asrwt>0</asrwt>
<pdfrwt beam="1">  1        1 0.51775145E-01 0.30462007E+03</pdfrwt>
<pdfrwt beam="2">  1       -1 0.10604959E-01 0.30462007E+03</pdfrwt>
<totfact> 0.42023645E+03</totfact>
</mgrwt>
</event>
<event>
 4    1  0.1726503E-004  0.2663307E+03  0.7818608E-02  0.1103398E+00
          2   -1    0    0  501    0  0.00000000000E+00  0.00000000000E+00  0.27259098741E+03  0.27259098741E+03  0.00000000000E+00 0.  1.
         -2   -1    0    0    0  501 -0.00000000000E+00 -0.00000000000E+00 -0.65053530705E+02  0.65053530705E+02  0.00000000000E+00 0.  1.
         25    1    1    2    0    0 -0.95778516406E+01 -0.56893382716E+02  0.10110523718E+03  0.16718511065E+03  0.12000000000E+03 0.  0.
         25    1    1    2    0    0  0.95778516406E+01  0.56893382716E+02  0.10643221953E+03  0.17045940746E+03  0.12000000000E+03 0.  0.
<mgrwt>
<rscale>  0 0.26633067E+03</rscale>
<asrwt>0</asrwt>
<pdfrwt beam="1">  1        2 0.41937074E-01 0.26633067E+03</pdfrwt>
<pdfrwt beam="2">  1       -2 0.10008236E-01 0.26633067E+03</pdfrwt>
<totfact> 0.79650147E+03</totfact>
</mgrwt>
</event>
<event>
 4    1  0.1726503E-004  0.5466348E+03  0.7818608E-02  0.1002276E+00
         -1   -1    0    0    0  501 -0.00000000000E+00  0.00000000000E+00  0.38530799376E+03  0.38530799376E+03  0.00000000000E+00 0.  1.
          1   -1    0    0  501    0  0.00000000000E+00 -0.00000000000E+00 -0.19387712129E+03  0.19387712129E+03  0.00000000000E+00 0.  1.
         25    1    1    2    0    0  0.10603079137E+01  0.24128750547E+03  0.14405701628E+03  0.30557030040E+03  0.12000000000E+03 0.  0.
         25    1    1    2    0    0 -0.10603079137E+01 -0.24128750547E+03  0.47373856194E+02  0.27361481465E+03  0.12000000000E+03 0.  0.
<mgrwt>
<rscale>  0 0.54663481E+03</rscale>
<asrwt>0</asrwt>
<pdfrwt beam="1">  1        1 0.29827249E-01 0.54663481E+03</pdfrwt>
<pdfrwt beam="2">  1       -1 0.59278153E-01 0.54663481E+03</pdfrwt>
<totfact> 0.45248712E+02</totfact>
</mgrwt>
</event>
<event>
 4    1  0.1726503E-004  0.2881739E+03  0.7818608E-02  0.1091306E+00
          2   -1    0    0  501    0  0.00000000000E+00  0.00000000000E+00  0.63778823818E+03  0.63778823818E+03  0.00000000000E+00 0. -1.
         -2   -1    0    0    0  501 -0.00000000000E+00 -0.00000000000E+00 -0.32551632069E+02  0.32551632069E+02  0.00000000000E+00 0. -1.
         25    1    1    2    0    0 -0.73996497626E+02 -0.16940128432E+02  0.35953087524E+03  0.38655517053E+03  0.12000000000E+03 0.  0.
         25    1    1    2    0    0  0.73996497626E+02  0.16940128432E+02  0.24570573087E+03  0.28378469972E+03  0.12000000000E+03 0.  0.
<mgrwt>
<rscale>  0 0.28817389E+03</rscale>
<asrwt>0</asrwt>
<pdfrwt beam="1">  1        2 0.98121258E-01 0.28817389E+03</pdfrwt>
<pdfrwt beam="2">  1       -2 0.50079439E-02 0.28817389E+03</pdfrwt>
<totfact> 0.91481574E+03</totfact>
</mgrwt>
</event>
<event>
 4    1  0.1726503E-004  0.3035549E+03  0.7818608E-02  0.1083477E+00
          2   -1    0    0  501    0  0.00000000000E+00  0.00000000000E+00  0.77750140432E+03  0.77750140432E+03  0.00000000000E+00 0.  1.
         -2   -1    0    0    0  501 -0.00000000000E+00 -0.00000000000E+00 -0.29628744783E+02  0.29628744783E+02  0.00000000000E+00 0.  1.
         25    1    1    2    0    0 -0.24896674231E+02  0.52671620570E+02  0.18142110387E+03  0.22518383808E+03  0.12000000000E+03 0.  0.
         25    1    1    2    0    0  0.24896674231E+02 -0.52671620570E+02  0.56645155566E+03  0.58194631102E+03  0.12000000000E+03 0.  0.
<mgrwt>
<rscale>  0 0.30355488E+03</rscale>
<asrwt>0</asrwt>
<pdfrwt beam="1">  1        2 0.11961559E+00 0.30355488E+03</pdfrwt>
<pdfrwt beam="2">  1       -2 0.45582690E-02 0.30355488E+03</pdfrwt>
<totfact> 0.82998412E+03</totfact>
</mgrwt>
</event>
<event>
 4    1  0.1726503E-004  0.4321212E+03  0.7818608E-02  0.1033192E+00
          4   -1    0    0  501    0  0.00000000000E+00  0.00000000000E+00  0.69240738132E+02  0.69240738132E+02  0.00000000000E+00 0. -1.
         -4   -1    0    0    0  501 -0.00000000000E+00 -0.00000000000E+00 -0.67420122358E+03  0.67420122358E+03  0.00000000000E+00 0. -1.
         25    1    1    2    0    0  0.82184377822E+02  0.15672090708E+03 -0.24899463556E+03  0.32819817673E+03  0.12000000000E+03 0.  0.
         25    1    1    2    0    0 -0.82184377822E+02 -0.15672090708E+03 -0.35596584989E+03  0.41524378498E+03  0.12000000000E+03 0.  0.
<mgrwt>
<rscale>  0 0.43212123E+03</rscale>
<asrwt>0</asrwt>
<pdfrwt beam="1">  1        4 0.10652421E-01 0.43212123E+03</pdfrwt>
<pdfrwt beam="2">  1       -4 0.10372327E+00 0.43212123E+03</pdfrwt>
<totfact> 0.10363273E+02</totfact>
</mgrwt>
</event>
<event>
 4    1  0.1726503E-004  0.3621839E+03  0.7818608E-02  0.1057722E+00
          1   -1    0    0  501    0  0.00000000000E+00  0.00000000000E+00  0.14978984028E+03  0.14978984028E+03  0.00000000000E+00 0.  1.
         -1   -1    0    0    0  501 -0.00000000000E+00 -0.00000000000E+00 -0.21893536192E+03  0.21893536192E+03  0.00000000000E+00 0.  1.
         25    1    1    2    0    0 -0.81966522457E+02 -0.85130209440E+02  0.33177093714E+02  0.17165774935E+03  0.12000000000E+03 0.  0.
         25    1    1    2    0    0  0.81966522457E+02  0.85130209440E+02 -0.10232261535E+03  0.19706745286E+03  0.12000000000E+03 0.  0.
<mgrwt>
<rscale>  0 0.36218389E+03</rscale>
<asrwt>0</asrwt>
<pdfrwt beam="1">  1        1 0.23044591E-01 0.36218389E+03</pdfrwt>
<pdfrwt beam="2">  1       -1 0.33682363E-01 0.36218389E+03</pdfrwt>
<totfact> 0.17845102E+03</totfact>
</mgrwt>
</event>
<event>
 4    1  0.1726503E-004  0.3174162E+03  0.7818608E-02  0.1076845E+00
          1   -1    0    0  501    0  0.00000000000E+00  0.00000000000E+00  0.24906255138E+04  0.24906255138E+04  0.00000000000E+00 0. -1.
         -1   -1    0    0    0  501 -0.00000000000E+00 -0.00000000000E+00 -0.10113224898E+02  0.10113224898E+02  0.00000000000E+00 0. -1.
         25    1    1    2    0    0 -0.58106198984E+02 -0.84768836236E+02  0.11217729436E+04  0.11328444831E+04  0.12000000000E+03 0.  0.
         25    1    1    2    0    0  0.58106198984E+02  0.84768836236E+02  0.13587393453E+04  0.13678942556E+04  0.12000000000E+03 0.  0.
<mgrwt>
<rscale>  0 0.31741617E+03</rscale>
<asrwt>0</asrwt>
<pdfrwt beam="1">  1        1 0.38317267E+00 0.31741617E+03</pdfrwt>
<pdfrwt beam="2">  1       -1 0.15558827E-02 0.31741617E+03</pdfrwt>
<totfact> 0.15865183E+03</totfact>
</mgrwt>
</event>
<event>
 4    1  0.1726503E-004  0.2733392E+03  0.7818608E-02  0.1099384E+00
         -1   -1    0    0    0  501 -0.00000000000E+00  0.00000000000E+00  0.24761021961E+02  0.24761021961E+02  0.00000000000E+00 0. -1.
          1   -1    0    0  501    0  0.00000000000E+00 -0.00000000000E+00 -0.75435436755E+03  0.75435436755E+03  0.00000000000E+00 0. -1.
         25    1    1    2    0    0 -0.47541525632E+02  0.31589928951E+02 -0.27374271823E+03  0.30429130131E+03  0.12000000000E+03 0.  0.
         25    1    1    2    0    0  0.47541525632E+02 -0.31589928951E+02 -0.45585062735E+03  0.47482408819E+03  0.12000000000E+03 0.  0.
<mgrwt>
<rscale>  0 0.27333924E+03</rscale>
<asrwt>0</asrwt>
<pdfrwt beam="1">  1        1 0.11605452E+00 0.27333924E+03</pdfrwt>
<pdfrwt beam="2">  1       -1 0.38093881E-02 0.27333924E+03</pdfrwt>
<totfact> 0.66523563E+03</totfact>
</mgrwt>
</event>
<event>
 4    1  0.1726503E-004  0.2807605E+03  0.7818608E-02  0.1095274E+00
          1   -1    0    0  501    0  0.00000000000E+00  0.00000000000E+00  0.71190025682E+03  0.71190025682E+03  0.00000000000E+00 0.  1.
         -1   -1    0    0    0  501 -0.00000000000E+00 -0.00000000000E+00 -0.27681714372E+02  0.27681714372E+02  0.00000000000E+00 0.  1.
         25    1    1    2    0    0  0.36591094557E+02  0.31939305922E+02  0.48512504700E+03  0.50210092481E+03  0.12000000000E+03 0.  0.
         25    1    1    2    0    0 -0.36591094557E+02 -0.31939305922E+02  0.19909349545E+03  0.23748104639E+03  0.12000000000E+03 0.  0.
<mgrwt>
<rscale>  0 0.28076054E+03</rscale>
<asrwt>0</asrwt>
<pdfrwt beam="1">  1        1 0.10952310E+00 0.28076054E+03</pdfrwt>
<pdfrwt beam="2">  1       -1 0.42587258E-02 0.28076054E+03</pdfrwt>
<totfact> 0.61459595E+03</totfact>
</mgrwt>
</event>
<event>
 4    1  0.1726503E-004  0.2566509E+03  0.7818608E-02  0.1109172E+00
          1   -1    0    0  501    0  0.00000000000E+00  0.00000000000E+00  0.10236926101E+04  0.10236926101E+04  0.00000000000E+00 0.  1.
         -1   -1    0    0    0  501 -0.00000000000E+00 -0.00000000000E+00 -0.16086290431E+02  0.16086290431E+02  0.00000000000E+00 0.  1.
         25    1    1    2    0    0 -0.18520662010E+02  0.40600608524E+02  0.46848621939E+03  0.48566527784E+03  0.12000000000E+03 0.  0.
         25    1    1    2    0    0  0.18520662010E+02 -0.40600608524E+02  0.53912010024E+03  0.55411362266E+03  0.12000000000E+03 0.  0.
<mgrwt>
<rscale>  0 0.25665087E+03</rscale>
<asrwt>0</asrwt>
<pdfrwt beam="1">  1        1 0.15749112E+00 0.25665087E+03</pdfrwt>
<pdfrwt beam="2">  1       -1 0.24748147E-02 0.25665087E+03</pdfrwt>
<totfact> 0.76707028E+03</totfact>
</mgrwt>
</event>
<event>
 4    1  0.1726503E-004  0.2514395E+03  0.7818608E-02  0.1112398E+00
          1   -1    0    0  501    0  0.00000000000E+00  0.00000000000E+00  0.66970195241E+02  0.66970195241E+02  0.00000000000E+00 0.  1.
         -1   -1    0    0    0  501 -0.00000000000E+00 -0.00000000000E+00 -0.23600731441E+03  0.23600731441E+03  0.00000000000E+00 0.  1.
         25    1    1    2    0    0  0.23061717669E+02 -0.17198697591E+02 -0.55553636538E+02  0.13532865385E+03  0.12000000000E+03 0.  0.
         25    1    1    2    0    0 -0.23061717669E+02  0.17198697591E+02 -0.11348348263E+03  0.16764885580E+03  0.12000000000E+03 0.  0.
<mgrwt>
<rscale>  0 0.25143950E+03</rscale>
<asrwt>0</asrwt>
<pdfrwt beam="1">  1        1 0.10303107E-01 0.25143950E+03</pdfrwt>
<pdfrwt beam="2">  1       -1 0.36308818E-01 0.25143950E+03</pdfrwt>
<totfact> 0.44728785E+03</totfact>
</mgrwt>
</event>
<event>
 4    1  0.1726503E-004  0.2551483E+03  0.7818608E-02  0.1110094E+00
          2   -1    0    0  501    0  0.00000000000E+00  0.00000000000E+00  0.97542324414E+03  0.97542324414E+03  0.00000000000E+00 0.  1.
         -2   -1    0    0    0  501 -0.00000000000E+00 -0.00000000000E+00 -0.16685227557E+02  0.16685227557E+02  0.00000000000E+00 0.  1.
         25    1    1    2    0    0 -0.82397889134E+01  0.29860363796E+02  0.59702795977E+03  0.60975562334E+03  0.12000000000E+03 0.  0.
         25    1    1    2    0    0  0.82397889134E+01 -0.29860363796E+02  0.36171005681E+03  0.38235284836E+03  0.12000000000E+03 0.  0.
<mgrwt>
<rscale>  0 0.25514826E+03</rscale>
<asrwt>0</asrwt>
<pdfrwt beam="1">  1        2 0.15006507E+00 0.25514826E+03</pdfrwt>
<pdfrwt beam="2">  1       -2 0.25669589E-02 0.25514826E+03</pdfrwt>
<totfact> 0.14440199E+04</totfact>
</mgrwt>
</event>
<event>
 4    1  0.1726503E-004  0.3745579E+03  0.7818608E-02  0.1052964E+00
          2   -1    0    0  501    0  0.00000000000E+00  0.00000000000E+00  0.11047990473E+04  0.11047990473E+04  0.00000000000E+00 0. -1.
         -2   -1    0    0    0  501 -0.00000000000E+00 -0.00000000000E+00 -0.31746414119E+02  0.31746414119E+02  0.00000000000E+00 0. -1.
         25    1    1    2    0    0 -0.88444464059E+02 -0.64999413996E+02  0.81834779933E+03  0.83435032672E+03  0.12000000000E+03 0.  0.
         25    1    1    2    0    0  0.88444464059E+02  0.64999413996E+02  0.25470483384E+03  0.30219513468E+03  0.12000000000E+03 0.  0.
<mgrwt>
<rscale>  0 0.37455792E+03</rscale>
<asrwt>0</asrwt>
<pdfrwt beam="1">  1        2 0.16996905E+00 0.37455792E+03</pdfrwt>
<pdfrwt beam="2">  1       -2 0.48840646E-02 0.37455792E+03</pdfrwt>
<totfact> 0.46252737E+03</totfact>
</mgrwt>
</event>
<event>
 4    1  0.1726503E-004  0.2781363E+03  0.7818608E-02  0.1096711E+00
         -2   -1    0    0    0  501 -0.00000000000E+00  0.00000000000E+00  0.67308008571E+02  0.67308008571E+02  0.00000000000E+00 0.  1.
          2   -1    0    0  501    0  0.00000000000E+00 -0.00000000000E+00 -0.28733499089E+03  0.28733499089E+03  0.00000000000E+00 0.  1.
         25    1    1    2    0    0 -0.66965656507E+02 -0.16643187614E+02 -0.12705135464E+03  0.18789210085E+03  0.12000000000E+03 0.  0.
         25    1    1    2    0    0  0.66965656507E+02  0.16643187614E+02 -0.92975627676E+02  0.16675089861E+03  0.12000000000E+03 0.  0.
<mgrwt>
<rscale>  0 0.27813627E+03</rscale>
<asrwt>0</asrwt>
<pdfrwt beam="1">  1        2 0.44205383E-01 0.27813627E+03</pdfrwt>
<pdfrwt beam="2">  1       -2 0.10355078E-01 0.27813627E+03</pdfrwt>
<totfact> 0.71411564E+03</totfact>
</mgrwt>
</event>
<event>
 4    1  0.1726503E-004  0.3080951E+03  0.7818608E-02  0.1081263E+00
         -2   -1    0    0    0  501 -0.00000000000E+00  0.00000000000E+00  0.50339445001E+02  0.50339445001E+02  0.00000000000E+00 0. -1.
          2   -1    0    0  501    0  0.00000000000E+00 -0.00000000000E+00 -0.47141253772E+03  0.47141253772E+03  0.00000000000E+00 0. -1.
         25    1    1    2    0    0 -0.53785812503E+02 -0.70542205847E+02 -0.14579500015E+03  0.20862717584E+03  0.12000000000E+03 0.  0.
         25    1    1    2    0    0  0.53785812503E+02  0.70542205847E+02 -0.27527809257E+03  0.31312480688E+03  0.12000000000E+03 0.  0.
<mgrwt>
<rscale>  0 0.30809509E+03</rscale>
<asrwt>0</asrwt>
<pdfrwt beam="1">  1        2 0.72525004E-01 0.30809509E+03</pdfrwt>
<pdfrwt beam="2">  1       -2 0.77445302E-02 0.30809509E+03</pdfrwt>
<totfact> 0.66149258E+03</totfact>
</mgrwt>
</event>
<event>
 4    1  0.1726503E-004  0.4482804E+03  0.7818608E-02  0.1028236E+00
          1   -1    0    0  501    0  0.00000000000E+00  0.00000000000E+00  0.34272706167E+03  0.34272706167E+03  0.00000000000E+00 0. -1.
         -1   -1    0    0    0  501 -0.00000000000E+00 -0.00000000000E+00 -0.14658552302E+03  0.14658552302E+03  0.00000000000E+00 0. -1.
         25    1    1    2    0    0  0.15577034308E+03  0.51769902644E+02 -0.48712327627E+01  0.20339186688E+03  0.12000000000E+03 0.  0.
         25    1    1    2    0    0 -0.15577034308E+03 -0.51769902644E+02  0.20101277140E+03  0.28592071781E+03  0.12000000000E+03 0.  0.
<mgrwt>
<rscale>  0 0.44828038E+03</rscale>
<asrwt>0</asrwt>
<pdfrwt beam="1">  1        1 0.52727240E-01 0.44828038E+03</pdfrwt>
<pdfrwt beam="2">  1       -1 0.22551619E-01 0.44828038E+03</pdfrwt>
<totfact> 0.12279364E+03</totfact>
</mgrwt>
</event>
<event>
 4    1  0.1726503E-004  0.2725573E+03  0.7818608E-02  0.1099825E+00
          1   -1    0    0  501    0  0.00000000000E+00  0.00000000000E+00  0.14749582075E+04  0.14749582075E+04  0.00000000000E+00 0. -1.
         -1   -1    0    0    0  501 -0.00000000000E+00 -0.00000000000E+00 -0.12591452644E+02  0.12591452644E+02  0.00000000000E+00 0. -1.
         25    1    1    2    0    0 -0.14839422072E+02 -0.55992901947E+02  0.57523557070E+03  0.59046708232E+03  0.12000000000E+03 0.  0.
         25    1    1    2    0    0  0.14839422072E+02  0.55992901947E+02  0.88713118418E+03  0.89708257784E+03  0.12000000000E+03 0.  0.
<mgrwt>
<rscale>  0 0.27255727E+03</rscale>
<asrwt>0</asrwt>
<pdfrwt beam="1">  1        1 0.22691651E+00 0.27255727E+03</pdfrwt>
<pdfrwt beam="2">  1       -1 0.19371477E-02 0.27255727E+03</pdfrwt>
<totfact> 0.53421041E+03</totfact>
</mgrwt>
</event>
<event>
 4    1  0.1726503E-004  0.2555319E+03  0.7818608E-02  0.1109858E+00
         -1   -1    0    0    0  501 -0.00000000000E+00  0.00000000000E+00  0.52324429993E+03  0.52324429993E+03  0.00000000000E+00 0. -1.
          1   -1    0    0  501    0  0.00000000000E+00 -0.00000000000E+00 -0.31197920453E+02  0.31197920453E+02  0.00000000000E+00 0. -1.
         25    1    1    2    0    0  0.30507689516E+02 -0.20467974570E+02  0.19401789956E+03  0.23106839345E+03  0.12000000000E+03 0.  0.
         25    1    1    2    0    0 -0.30507689516E+02  0.20467974570E+02  0.29802847992E+03  0.32337382693E+03  0.12000000000E+03 0.  0.
<mgrwt>
<rscale>  0 0.25553187E+03</rscale>
<asrwt>0</asrwt>
<pdfrwt beam="1">  1        1 0.47996805E-02 0.25553187E+03</pdfrwt>
<pdfrwt beam="2">  1       -1 0.80499117E-01 0.25553187E+03</pdfrwt>
<totfact> 0.28235131E+03</totfact>
</mgrwt>
</event>
<event>
 4    1  0.1726503E-004  0.2880265E+03  0.7818608E-02  0.1091384E+00
         -1   -1    0    0    0  501 -0.00000000000E+00  0.00000000000E+00  0.27761275753E+02  0.27761275753E+02  0.00000000000E+00 0. -1.
          1   -1    0    0  501    0  0.00000000000E+00 -0.00000000000E+00 -0.74707738708E+03  0.74707738708E+03  0.00000000000E+00 0. -1.
         25    1    1    2    0    0 -0.41094667932E+01 -0.62245756836E+02 -0.49277088455E+03  0.51099370507E+03  0.12000000000E+03 0.  0.
         25    1    1    2    0    0  0.41094667932E+01  0.62245756836E+02 -0.22654522678E+03  0.26384495777E+03  0.12000000000E+03 0.  0.
<mgrwt>
<rscale>  0 0.28802654E+03</rscale>
<asrwt>0</asrwt>
<pdfrwt beam="1">  1        1 0.11493498E+00 0.28802654E+03</pdfrwt>
<pdfrwt beam="2">  1       -1 0.42709656E-02 0.28802654E+03</pdfrwt>
<totfact> 0.57004418E+03</totfact>
</mgrwt>
</event>
<event>
 4    1  0.1726503E-004  0.2468783E+03  0.7818608E-02  0.1115294E+00
         -2   -1    0    0    0  501 -0.00000000000E+00  0.00000000000E+00  0.28076511532E+03  0.28076511532E+03  0.00000000000E+00 0. -1.
          2   -1    0    0  501    0  0.00000000000E+00 -0.00000000000E+00 -0.54270352881E+02  0.54270352881E+02  0.00000000000E+00 0. -1.
         25    1    1    2    0    0  0.16748797066E+02 -0.16184766929E+02  0.13654636677E+03  0.18326859841E+03  0.12000000000E+03 0.  0.
         25    1    1    2    0    0 -0.16748797066E+02  0.16184766929E+02  0.89948395664E+02  0.15176686979E+03  0.12000000000E+03 0.  0.
<mgrwt>
<rscale>  0 0.24687828E+03</rscale>
<asrwt>0</asrwt>
<pdfrwt beam="1">  1        2 0.83492852E-02 0.24687828E+03</pdfrwt>
<pdfrwt beam="2">  1       -2 0.43194632E-01 0.24687828E+03</pdfrwt>
<totfact> 0.40890234E+03</totfact>
</mgrwt>
</event>
<event>
 4    1  0.1726503E-004  0.2772710E+03  0.7818608E-02  0.1097189E+00
         -2   -1    0    0    0  501 -0.00000000000E+00  0.00000000000E+00  0.20251136866E+02  0.20251136866E+02  0.00000000000E+00 0. -1.
          2   -1    0    0  501    0  0.00000000000E+00 -0.00000000000E+00 -0.94907253986E+03  0.94907253986E+03  0.00000000000E+00 0. -1.
         25    1    1    2    0    0  0.62275740367E+02 -0.17211777343E+02 -0.55321625568E+03  0.56975673640E+03  0.12000000000E+03 0.  0.
         25    1    1    2    0    0 -0.62275740367E+02  0.17211777343E+02 -0.37560514731E+03  0.39956694033E+03  0.12000000000E+03 0.  0.
<mgrwt>
<rscale>  0 0.27727097E+03</rscale>
<asrwt>0</asrwt>
<pdfrwt beam="1">  1        2 0.14601107E+00 0.27727097E+03</pdfrwt>
<pdfrwt beam="2">  1       -2 0.31155614E-02 0.27727097E+03</pdfrwt>
<totfact> 0.11282632E+04</totfact>
</mgrwt>
</event>
<event>
 4    1  0.1726503E-004  0.3284498E+03  0.7818608E-02  0.1071825E+00
          1   -1    0    0  501    0  0.00000000000E+00  0.00000000000E+00  0.81006419876E+03  0.81006419876E+03  0.00000000000E+00 0.  1.
         -1   -1    0    0    0  501 -0.00000000000E+00 -0.00000000000E+00 -0.33293423033E+02  0.33293423033E+02  0.00000000000E+00 0.  1.
         25    1    1    2    0    0 -0.68802251007E+02  0.23224174404E+02  0.16905135625E+03  0.21966217943E+03  0.12000000000E+03 0.  0.
         25    1    1    2    0    0  0.68802251007E+02 -0.23224174404E+02  0.60771941947E+03  0.62369544236E+03  0.12000000000E+03 0.  0.
<mgrwt>
<rscale>  0 0.32844975E+03</rscale>
<asrwt>0</asrwt>
<pdfrwt beam="1">  1        1 0.12462525E+00 0.32844975E+03</pdfrwt>
<pdfrwt beam="2">  1       -1 0.51220657E-02 0.32844975E+03</pdfrwt>
<totfact> 0.38443735E+03</totfact>
</mgrwt>
</event>
<event>
 4    1  0.1726503E-004  0.2501190E+03  0.7818608E-02  0.1113230E+00
         -2   -1    0    0    0  501 -0.00000000000E+00  0.00000000000E+00  0.69932607800E+01  0.69932607800E+01  0.00000000000E+00 0. -1.
          2   -1    0    0  501    0  0.00000000000E+00 -0.00000000000E+00 -0.22364207977E+04  0.22364207977E+04  0.00000000000E+00 0. -1.
         25    1    1    2    0    0  0.25853195222E+02  0.44765121281E+00 -0.90033117678E+03  0.90866100168E+03  0.12000000000E+03 0.  0.
         25    1    1    2    0    0 -0.25853195222E+02 -0.44765121281E+00 -0.13290963601E+04  0.13347530568E+04  0.12000000000E+03 0.  0.
<mgrwt>
<rscale>  0 0.25011896E+03</rscale>
<asrwt>0</asrwt>
<pdfrwt beam="1">  1        2 0.34406473E+00 0.25011896E+03</pdfrwt>
<pdfrwt beam="2">  1       -2 0.10758863E-02 0.25011896E+03</pdfrwt>
<totfact> 0.10658570E+04</totfact>
</mgrwt>
</event>
<event>
 4    1  0.1726503E-004  0.3575703E+03  0.7818608E-02  0.1059550E+00
          1   -1    0    0  501    0  0.00000000000E+00  0.00000000000E+00  0.44000716915E+02  0.44000716915E+02  0.00000000000E+00 0. -1.
         -1   -1    0    0    0  501 -0.00000000000E+00 -0.00000000000E+00 -0.72644561036E+03  0.72644561036E+03  0.00000000000E+00 0. -1.
         25    1    1    2    0    0  0.73727278016E+02 -0.14410702854E+02 -0.57647411662E+03  0.59360406586E+03  0.12000000000E+03 0.  0.
         25    1    1    2    0    0 -0.73727278016E+02  0.14410702854E+02 -0.10597077683E+03  0.17684226142E+03  0.12000000000E+03 0.  0.
<mgrwt>
<rscale>  0 0.35757029E+03</rscale>
<asrwt>0</asrwt>
<pdfrwt beam="1">  1        1 0.67693407E-02 0.35757029E+03</pdfrwt>
<pdfrwt beam="2">  1       -1 0.11176087E+00 0.35757029E+03</pdfrwt>
<totfact> 0.85745990E+02</totfact>
</mgrwt>
</event>
<event>
 4    1  0.1726503E-004  0.2641709E+03  0.7818608E-02  0.1104663E+00
          1   -1    0    0  501    0  0.00000000000E+00  0.00000000000E+00  0.72483894385E+03  0.72483894385E+03  0.00000000000E+00 0.  1.
         -1   -1    0    0    0  501 -0.00000000000E+00 -0.00000000000E+00 -0.24069580233E+02  0.24069580233E+02  0.00000000000E+00 0.  1.
         25    1    1    2    0    0  0.21130592283E+02 -0.21335015974E+02  0.21909043583E+03  0.25159949107E+03  0.12000000000E+03 0.  0.
         25    1    1    2    0    0 -0.21130592283E+02  0.21335015974E+02  0.48167892779E+03  0.49730903301E+03  0.12000000000E+03 0.  0.
<mgrwt>
<rscale>  0 0.26417092E+03</rscale>
<asrwt>0</asrwt>
<pdfrwt beam="1">  1        1 0.11151367E+00 0.26417092E+03</pdfrwt>
<pdfrwt beam="2">  1       -1 0.37030129E-02 0.26417092E+03</pdfrwt>
<totfact> 0.73553697E+03</totfact>
</mgrwt>
</event>
<event>
 4    1  0.1726503E-004  0.2803418E+03  0.7818608E-02  0.1095502E+00
          1   -1    0    0  501    0  0.00000000000E+00  0.00000000000E+00  0.69314216565E+03  0.69314216565E+03  0.00000000000E+00 0. -1.
         -1   -1    0    0    0  501 -0.00000000000E+00 -0.00000000000E+00 -0.28346110675E+02  0.28346110675E+02  0.00000000000E+00 0. -1.
         25    1    1    2    0    0  0.32073240713E+02 -0.60427953368E+02  0.27108068550E+03  0.30424491511E+03  0.12000000000E+03 0.  0.
         25    1    1    2    0    0 -0.32073240713E+02  0.60427953368E+02  0.39371536948E+03  0.41724336122E+03  0.12000000000E+03 0.  0.
<mgrwt>
<rscale>  0 0.28034182E+03</rscale>
<asrwt>0</asrwt>
<pdfrwt beam="1">  1        1 0.10663724E+00 0.28034182E+03</pdfrwt>
<pdfrwt beam="2">  1       -1 0.43609406E-02 0.28034182E+03</pdfrwt>
<totfact> 0.61683437E+03</totfact>
</mgrwt>
</event>
<event>
 4    1  0.1726503E-004  0.3134035E+03  0.7818608E-02  0.1078726E+00
         -2   -1    0    0    0  501 -0.00000000000E+00  0.00000000000E+00  0.93406611796E+02  0.93406611796E+02  0.00000000000E+00 0. -1.
          2   -1    0    0  501    0  0.00000000000E+00 -0.00000000000E+00 -0.26288758054E+03  0.26288758054E+03  0.00000000000E+00 0. -1.
         25    1    1    2    0    0 -0.71819765246E+01  0.10006671688E+03 -0.73924846190E+02  0.17300234535E+03  0.12000000000E+03 0.  0.
         25    1    1    2    0    0  0.71819765246E+01 -0.10006671688E+03 -0.95556122551E+02  0.18329184698E+03  0.12000000000E+03 0.  0.
<mgrwt>
<rscale>  0 0.31340350E+03</rscale>
<asrwt>0</asrwt>
<pdfrwt beam="1">  1        2 0.40444243E-01 0.31340350E+03</pdfrwt>
<pdfrwt beam="2">  1       -2 0.14370248E-01 0.31340350E+03</pdfrwt>
<totfact> 0.46384333E+03</totfact>
</mgrwt>
</event>
<event>
 4    1  0.1726503E-004  0.2961062E+03  0.7818608E-02  0.1087203E+00
         -1   -1    0    0    0  501 -0.00000000000E+00  0.00000000000E+00  0.31117185373E+02  0.31117185373E+02  0.00000000000E+00 0.  1.
          1   -1    0    0  501    0  0.00000000000E+00 -0.00000000000E+00 -0.70442469735E+03  0.70442469735E+03  0.00000000000E+00 0.  1.
         25    1    1    2    0    0 -0.48909987193E+02 -0.67303397688E+02 -0.27591994232E+03  0.31217582988E+03  0.12000000000E+03 0.  0.
         25    1    1    2    0    0  0.48909987193E+02  0.67303397688E+02 -0.39738756965E+03  0.42336605284E+03  0.12000000000E+03 0.  0.
<mgrwt>
<rscale>  0 0.29610616E+03</rscale>
<asrwt>0</asrwt>
<pdfrwt beam="1">  1        1 0.10837303E+00 0.29610616E+03</pdfrwt>
<pdfrwt beam="2">  1       -1 0.47872594E-02 0.29610616E+03</pdfrwt>
<totfact> 0.52465941E+03</totfact>
</mgrwt>
</event>
<event>
 4    1  0.1726503E-004  0.2518842E+03  0.7818608E-02  0.1112120E+00
          2   -1    0    0  501    0  0.00000000000E+00  0.00000000000E+00  0.73239410146E+02  0.73239410146E+02  0.00000000000E+00 0. -1.
         -2   -1    0    0    0  501 -0.00000000000E+00 -0.00000000000E+00 -0.21656940742E+03  0.21656940742E+03  0.00000000000E+00 0. -1.
         25    1    1    2    0    0  0.32134861821E+02 -0.20434766327E+02 -0.75513223004E+02  0.14680761516E+03  0.12000000000E+03 0.  0.
         25    1    1    2    0    0 -0.32134861821E+02  0.20434766327E+02 -0.67816774274E+02  0.14300120241E+03  0.12000000000E+03 0.  0.
<mgrwt>
<rscale>  0 0.25188422E+03</rscale>
<asrwt>0</asrwt>
<pdfrwt beam="1">  1        2 0.11267601E-01 0.25188422E+03</pdfrwt>
<pdfrwt beam="2">  1       -2 0.33318371E-01 0.25188422E+03</pdfrwt>
<totfact> 0.46027748E+03</totfact>
</mgrwt>
</event>
<event>
 4    1  0.1726503E-004  0.2606668E+03  0.7818608E-02  0.1106743E+00
          2   -1    0    0  501    0  0.00000000000E+00  0.00000000000E+00  0.10331771706E+04  0.10331771706E+04  0.00000000000E+00 0. -1.
         -2   -1    0    0    0  501 -0.00000000000E+00 -0.00000000000E+00 -0.16441324843E+02  0.16441324843E+02  0.00000000000E+00 0. -1.
         25    1    1    2    0    0 -0.25897509419E+02  0.38937038442E+02  0.42783181987E+03  0.44679619521E+03  0.12000000000E+03 0.  0.
         25    1    1    2    0    0  0.25897509419E+02 -0.38937038442E+02  0.58890402586E+03  0.60282230021E+03  0.12000000000E+03 0.  0.
<mgrwt>
<rscale>  0 0.26066685E+03</rscale>
<asrwt>0</asrwt>
<pdfrwt beam="1">  1        2 0.15895028E+00 0.26066685E+03</pdfrwt>
<pdfrwt beam="2">  1       -2 0.25294354E-02 0.26066685E+03</pdfrwt>
<totfact> 0.13618936E+04</totfact>
</mgrwt>
</event>
<event>
 4    1  0.1726503E-004  0.3239279E+03  0.7818608E-02  0.1073856E+00
          2   -1    0    0  501    0  0.00000000000E+00  0.00000000000E+00  0.87493084173E+02  0.87493084173E+02  0.00000000000E+00 0.  1.
         -2   -1    0    0    0  501 -0.00000000000E+00 -0.00000000000E+00 -0.29982156917E+03  0.29982156917E+03  0.00000000000E+00 0.  1.
         25    1    1    2    0    0  0.32258758947E+01 -0.84065129833E+02 -0.23714532276E+02  0.14845784375E+03  0.12000000000E+03 0.  0.
         25    1    1    2    0    0 -0.32258758947E+01  0.84065129833E+02 -0.18861395272E+03  0.23885680959E+03  0.12000000000E+03 0.  0.
<mgrwt>
<rscale>  0 0.32392785E+03</rscale>
<asrwt>0</asrwt>
<pdfrwt beam="1">  1        2 0.13460475E-01 0.32392785E+03</pdfrwt>
<pdfrwt beam="2">  1       -2 0.46126395E-01 0.32392785E+03</pdfrwt>
<totfact> 0.20092104E+03</totfact>
</mgrwt>
</event>
<event>
 4    1  0.1726503E-004  0.2538021E+03  0.7818608E-02  0.1110925E+00
          1   -1    0    0  501    0  0.00000000000E+00  0.00000000000E+00  0.60039200184E+03  0.60039200184E+03  0.00000000000E+00 0. -1.
         -1   -1    0    0    0  501 -0.00000000000E+00 -0.00000000000E+00 -0.26822260975E+02  0.26822260975E+02  0.00000000000E+00 0. -1.
         25    1    1    2    0    0  0.18589518443E+02  0.17187275672E+02  0.20621611608E+03  0.23992927952E+03  0.12000000000E+03 0.  0.
         25    1    1    2    0    0 -0.18589518443E+02 -0.17187275672E+02  0.36735362479E+03  0.38728498330E+03  0.12000000000E+03 0.  0.
<mgrwt>
<rscale>  0 0.25380206E+03</rscale>
<asrwt>0</asrwt>
<pdfrwt beam="1">  1        1 0.92367990E-01 0.25380206E+03</pdfrwt>
<pdfrwt beam="2">  1       -1 0.41265021E-02 0.25380206E+03</pdfrwt>
<totfact> 0.81865931E+03</totfact>
</mgrwt>
</event>
<event>
 4    1  0.1726503E-004  0.2714859E+03  0.7818608E-02  0.1100432E+00
         -2   -1    0    0    0  501 -0.00000000000E+00  0.00000000000E+00  0.13060401515E+03  0.13060401515E+03  0.00000000000E+00 0. -1.
          2   -1    0    0  501    0  0.00000000000E+00 -0.00000000000E+00 -0.14108408898E+03  0.14108408898E+03  0.00000000000E+00 0. -1.
         25    1    1    2    0    0  0.24534444362E+02 -0.58516478110E+02 -0.54171558884E+01  0.13585088424E+03  0.12000000000E+03 0.  0.
         25    1    1    2    0    0 -0.24534444362E+02  0.58516478110E+02 -0.50629179374E+01  0.13583721989E+03  0.12000000000E+03 0.  0.
<mgrwt>
<rscale>  0 0.27148590E+03</rscale>
<asrwt>0</asrwt>
<pdfrwt beam="1">  1        2 0.21705245E-01 0.27148590E+03</pdfrwt>
<pdfrwt beam="2">  1       -2 0.20092925E-01 0.27148590E+03</pdfrwt>
<totfact> 0.52285193E+03</totfact>
</mgrwt>
</event>
<event>
 4    1  0.1726503E-004  0.3312171E+03  0.7818608E-02  0.1070600E+00
         -2   -1    0    0    0  501 -0.00000000000E+00  0.00000000000E+00  0.27352899174E+02  0.27352899174E+02  0.00000000000E+00 0. -1.
          2   -1    0    0  501    0  0.00000000000E+00 -0.00000000000E+00 -0.10026795313E+04  0.10026795313E+04  0.00000000000E+00 0. -1.
         25    1    1    2    0    0  0.10253103320E+03  0.49956278430E+02 -0.47448786371E+03  0.50254052108E+03  0.12000000000E+03 0.  0.
         25    1    1    2    0    0 -0.10253103320E+03 -0.49956278430E+02 -0.50083876845E+03  0.52749190942E+03  0.12000000000E+03 0.  0.
<mgrwt>
<rscale>  0 0.33121710E+03</rscale>
<asrwt>0</asrwt>
<pdfrwt beam="1">  1        2 0.15425835E+00 0.33121710E+03</pdfrwt>
<pdfrwt beam="2">  1       -2 0.42081393E-02 0.33121710E+03</pdfrwt>
<totfact> 0.66797505E+03</totfact>
</mgrwt>
</event>
<event>
 4    1  0.1726503E-004  0.2792225E+03  0.7818608E-02  0.1096114E+00
         -2   -1    0    0    0  501 -0.00000000000E+00  0.00000000000E+00  0.18039508656E+03  0.18039508656E+03  0.00000000000E+00 0.  1.
          2   -1    0    0  501    0  0.00000000000E+00 -0.00000000000E+00 -0.10804784211E+03  0.10804784211E+03  0.00000000000E+00 0.  1.
         25    1    1    2    0    0 -0.18327392838E+02  0.22093358156E+02  0.10365525467E+03  0.16114720483E+03  0.12000000000E+03 0.  0.
         25    1    1    2    0    0  0.18327392838E+02 -0.22093358156E+02 -0.31308010219E+02  0.12729572384E+03  0.12000000000E+03 0.  0.
<mgrwt>
<rscale>  0 0.27922249E+03</rscale>
<asrwt>0</asrwt>
<pdfrwt beam="1">  1        2 0.16622745E-01 0.27922249E+03</pdfrwt>
<pdfrwt beam="2">  1       -2 0.27753090E-01 0.27922249E+03</pdfrwt>
<totfact> 0.40433867E+03</totfact>
</mgrwt>
</event>
<event>
 4    1  0.1726503E-004  0.3290449E+03  0.7818608E-02  0.1071560E+00
         -1   -1    0    0    0  501 -0.00000000000E+00  0.00000000000E+00  0.40463536791E+02  0.40463536791E+02  0.00000000000E+00 0. -1.
          1   -1    0    0  501    0  0.00000000000E+00 -0.00000000000E+00 -0.66893891678E+03  0.66893891678E+03  0.00000000000E+00 0. -1.
         25    1    1    2    0    0  0.55221795976E+02 -0.96952434711E+01 -0.52464051360E+03  0.54110175846E+03  0.12000000000E+03 0.  0.
         25    1    1    2    0    0 -0.55221795976E+02  0.96952434711E+01 -0.10383486638E+03  0.16830069511E+03  0.12000000000E+03 0.  0.
<mgrwt>
<rscale>  0 0.32904489E+03</rscale>
<asrwt>0</asrwt>
<pdfrwt beam="1">  1        1 0.10291368E+00 0.32904489E+03</pdfrwt>
<pdfrwt beam="2">  1       -1 0.62251592E-02 0.32904489E+03</pdfrwt>
<totfact> 0.38137553E+03</totfact>
</mgrwt>
</event>
<event>
 4    1  0.1726503E-004  0.2995751E+03  0.7818608E-02  0.1085453E+00
          1   -1    0    0  501    0  0.00000000000E+00  0.00000000000E+00  0.10887249867E+02  0.10887249867E+02  0.00000000000E+00 0.  1.
         -1   -1    0    0    0  501 -0.00000000000E+00 -0.00000000000E+00 -0.20607874616E+04  0.20607874616E+04  0.00000000000E+00 0.  1.
         25    1    1    2    0    0  0.56796159481E+02 -0.72768258932E-01 -0.54531502950E+03  0.56124352150E+03  0.12000000000E+03 0.  0.
         25    1    1    2    0    0 -0.56796159481E+02  0.72768258932E-01 -0.15045851822E+04  0.15104311899E+04  0.12000000000E+03 0.  0.
<mgrwt>
<rscale>  0 0.29957509E+03</rscale>
<asrwt>0</asrwt>
<pdfrwt beam="1">  1        1 0.16749612E-02 0.29957509E+03</pdfrwt>
<pdfrwt beam="2">  1       -1 0.31704428E+00 0.29957509E+03</pdfrwt>
<totfact> 0.23453208E+02</totfact>
</mgrwt>
</event>
<event>
 4    1  0.1726503E-004  0.2824701E+03  0.7818608E-02  0.1094347E+00
         -1   -1    0    0    0  501 -0.00000000000E+00  0.00000000000E+00  0.88910008447E+02  0.88910008447E+02  0.00000000000E+00 0.  1.
          1   -1    0    0  501    0  0.00000000000E+00 -0.00000000000E+00 -0.22435433559E+03  0.22435433559E+03  0.00000000000E+00 0.  1.
         25    1    1    2    0    0  0.82182204912E+01  0.46176191002E+02 -0.35564552921E+01  0.12888920877E+03  0.12000000000E+03 0.  0.
         25    1    1    2    0    0 -0.82182204912E+01 -0.46176191002E+02 -0.13188787185E+03  0.18437513527E+03  0.12000000000E+03 0.  0.
<mgrwt>
<rscale>  0 0.28247015E+03</rscale>
<asrwt>0</asrwt>
<pdfrwt beam="1">  1        1 0.34516051E-01 0.28247015E+03</pdfrwt>
<pdfrwt beam="2">  1       -1 0.13678463E-01 0.28247015E+03</pdfrwt>
<totfact> 0.46931070E+03</totfact>
</mgrwt>
</event>
<event>
 4    1  0.1726503E-004  0.2518549E+03  0.7818608E-02  0.1112138E+00
          1   -1    0    0  501    0  0.00000000000E+00  0.00000000000E+00  0.30248029059E+03  0.30248029059E+03  0.00000000000E+00 0.  1.
         -1   -1    0    0    0  501 -0.00000000000E+00 -0.00000000000E+00 -0.52425633018E+02  0.52425633018E+02  0.00000000000E+00 0.  1.
         25    1    1    2    0    0 -0.43922622214E+01  0.16564690390E+01  0.17842132536E+03  0.21507255799E+03  0.12000000000E+03 0.  0.
         25    1    1    2    0    0  0.43922622214E+01 -0.16564690390E+01  0.71633332220E+02  0.13983336563E+03  0.12000000000E+03 0.  0.
<mgrwt>
<rscale>  0 0.25185488E+03</rscale>
<asrwt>0</asrwt>
<pdfrwt beam="1">  1        1 0.46535428E-01 0.25185488E+03</pdfrwt>
<pdfrwt beam="2">  1       -1 0.80654822E-02 0.25185488E+03</pdfrwt>
<totfact> 0.72839530E+03</totfact>
</mgrwt>
</event>
<event>
 4    1  0.1726503E-004  0.3749348E+03  0.7818608E-02  0.1052822E+00
         -4   -1    0    0    0  501 -0.00000000000E+00  0.00000000000E+00  0.65421692724E+03  0.65421692724E+03  0.00000000000E+00 0. -1.
          4   -1    0    0  501    0  0.00000000000E+00 -0.00000000000E+00 -0.53719231763E+02  0.53719231763E+02  0.00000000000E+00 0. -1.
         25    1    1    2    0    0  0.84834457503E+02 -0.71844489024E+02  0.47315210839E+03  0.50063103525E+03  0.12000000000E+03 0.  0.
         25    1    1    2    0    0 -0.84834457503E+02  0.71844489024E+02  0.12734558709E+03  0.20730512375E+03  0.12000000000E+03 0.  0.
<mgrwt>
<rscale>  0 0.37493482E+03</rscale>
<asrwt>0</asrwt>
<pdfrwt beam="1">  1        4 0.82644977E-02 0.37493482E+03</pdfrwt>
<pdfrwt beam="2">  1       -4 0.10064875E+00 0.37493482E+03</pdfrwt>
<totfact> 0.16946068E+02</totfact>
</mgrwt>
</event>
<event>
 4    1  0.1726503E-004  0.2562080E+03  0.7818608E-02  0.1109443E+00
          3   -1    0    0  501    0  0.00000000000E+00  0.00000000000E+00  0.36542972359E+02  0.36542972359E+02  0.00000000000E+00 0.  1.
         -3   -1    0    0    0  501 -0.00000000000E+00 -0.00000000000E+00 -0.44907766978E+03  0.44907766978E+03  0.00000000000E+00 0.  1.
         25    1    1    2    0    0  0.22945645360E+02  0.31877828647E+02 -0.24726858071E+03  0.27764086444E+03  0.12000000000E+03 0.  0.
         25    1    1    2    0    0 -0.22945645360E+02 -0.31877828647E+02 -0.16526611672E+03  0.20797977771E+03  0.12000000000E+03 0.  0.
<mgrwt>
<rscale>  0 0.25620798E+03</rscale>
<asrwt>0</asrwt>
<pdfrwt beam="1">  1        3 0.56219957E-02 0.25620798E+03</pdfrwt>
<pdfrwt beam="2">  1       -3 0.69088873E-01 0.25620798E+03</pdfrwt>
<totfact> 0.97547336E+02</totfact>
</mgrwt>
</event>
<event>
 4    1  0.1726503E-004  0.3009181E+03  0.7818608E-02  0.1084783E+00
         -1   -1    0    0    0  501 -0.00000000000E+00  0.00000000000E+00  0.57709602867E+02  0.57709602867E+02  0.00000000000E+00 0.  1.
          1   -1    0    0  501    0  0.00000000000E+00 -0.00000000000E+00 -0.39227306215E+03  0.39227306215E+03  0.00000000000E+00 0.  1.
         25    1    1    2    0    0 -0.76260115885E+02 -0.74589510114E+01 -0.24002911714E+03  0.27907923302E+03  0.12000000000E+03 0.  0.
         25    1    1    2    0    0  0.76260115885E+02  0.74589510114E+01 -0.94534342138E+02  0.17090343200E+03  0.12000000000E+03 0.  0.
<mgrwt>
<rscale>  0 0.30091808E+03</rscale>
<asrwt>0</asrwt>
<pdfrwt beam="1">  1        1 0.60349700E-01 0.30091808E+03</pdfrwt>
<pdfrwt beam="2">  1       -1 0.88784007E-02 0.30091808E+03</pdfrwt>
<totfact> 0.45480101E+03</totfact>
</mgrwt>
</event>
<event>
 4    1  0.1726503E-004  0.2793589E+03  0.7818608E-02  0.1096040E+00
          1   -1    0    0  501    0  0.00000000000E+00  0.00000000000E+00  0.12138690964E+03  0.12138690964E+03  0.00000000000E+00 0. -1.
         -1   -1    0    0    0  501 -0.00000000000E+00 -0.00000000000E+00 -0.16072861238E+03  0.16072861238E+03  0.00000000000E+00 0. -1.
         25    1    1    2    0    0  0.88793723035E+01 -0.15291120619E+02  0.50277979237E+02  0.13130322471E+03  0.12000000000E+03 0.  0.
         25    1    1    2    0    0 -0.88793723035E+01  0.15291120619E+02 -0.89619681977E+02  0.15081229731E+03  0.12000000000E+03 0.  0.
<mgrwt>
<rscale>  0 0.27935891E+03</rscale>
<asrwt>0</asrwt>
<pdfrwt beam="1">  1        1 0.18674909E-01 0.27935891E+03</pdfrwt>
<pdfrwt beam="2">  1       -1 0.24727479E-01 0.27935891E+03</pdfrwt>
<totfact> 0.39403956E+03</totfact>
</mgrwt>
</event>
<event>
 4    1  0.1726503E-004  0.3134307E+03  0.7818608E-02  0.1078713E+00
          2   -1    0    0  501    0  0.00000000000E+00  0.00000000000E+00  0.12335247207E+04  0.12335247207E+04  0.00000000000E+00 0. -1.
         -2   -1    0    0    0  501 -0.00000000000E+00 -0.00000000000E+00 -0.19910179359E+02  0.19910179359E+02  0.00000000000E+00 0. -1.
         25    1    1    2    0    0  0.78201059767E+02  0.57395623553E+02  0.49728534758E+03  0.52067492764E+03  0.12000000000E+03 0.  0.
         25    1    1    2    0    0 -0.78201059767E+02 -0.57395623553E+02  0.71632919378E+03  0.73275997244E+03  0.12000000000E+03 0.  0.
<mgrwt>
<rscale>  0 0.31343068E+03</rscale>
<asrwt>0</asrwt>
<pdfrwt beam="1">  1        2 0.18977297E+00 0.31343068E+03</pdfrwt>
<pdfrwt beam="2">  1       -2 0.30631055E-02 0.31343068E+03</pdfrwt>
<totfact> 0.78698316E+03</totfact>
</mgrwt>
</event>
<event>
 4    1  0.1726503E-004  0.2598976E+03  0.7818608E-02  0.1107205E+00
          1   -1    0    0  501    0  0.00000000000E+00  0.00000000000E+00  0.70491812781E+03  0.70491812781E+03  0.00000000000E+00 0.  1.
         -1   -1    0    0    0  501 -0.00000000000E+00 -0.00000000000E+00 -0.23955535059E+02  0.23955535059E+02  0.00000000000E+00 0.  1.
         25    1    1    2    0    0  0.48058707457E+02 -0.97430643254E+01  0.36589603912E+03  0.38818098628E+03  0.12000000000E+03 0.  0.
         25    1    1    2    0    0 -0.48058707457E+02  0.97430643254E+01  0.31506655363E+03  0.34069267659E+03  0.12000000000E+03 0.  0.
<mgrwt>
<rscale>  0 0.25989760E+03</rscale>
<asrwt>0</asrwt>
<pdfrwt beam="1">  1        1 0.10844893E+00 0.25989760E+03</pdfrwt>
<pdfrwt beam="2">  1       -1 0.36854675E-02 0.25989760E+03</pdfrwt>
<totfact> 0.77128327E+03</totfact>
</mgrwt>
</event>
<event>
 4    1  0.1726503E-004  0.2552397E+03  0.7818608E-02  0.1110038E+00
          2   -1    0    0  501    0  0.00000000000E+00  0.00000000000E+00  0.44196773669E+03  0.44196773669E+03  0.00000000000E+00 0.  1.
         -2   -1    0    0    0  501 -0.00000000000E+00 -0.00000000000E+00 -0.36850710033E+02  0.36850710033E+02  0.00000000000E+00 0.  1.
         25    1    1    2    0    0 -0.28803451368E+02  0.23808778882E+02  0.24409847351E+03  0.27455520671E+03  0.12000000000E+03 0.  0.
         25    1    1    2    0    0  0.28803451368E+02 -0.23808778882E+02  0.16101855315E+03  0.20426324001E+03  0.12000000000E+03 0.  0.
<mgrwt>
<rscale>  0 0.25523969E+03</rscale>
<asrwt>0</asrwt>
<pdfrwt beam="1">  1        2 0.67995032E-01 0.25523969E+03</pdfrwt>
<pdfrwt beam="2">  1       -2 0.56693403E-02 0.25523969E+03</pdfrwt>
<totfact> 0.11420767E+04</totfact>
</mgrwt>
</event>
<event>
 4    1  0.1726503E-004  0.3267511E+03  0.7818608E-02  0.1072584E+00
         -2   -1    0    0    0  501 -0.00000000000E+00  0.00000000000E+00  0.18661284649E+03  0.18661284649E+03  0.00000000000E+00 0.  1.
          2   -1    0    0  501    0  0.00000000000E+00 -0.00000000000E+00 -0.14303182013E+03  0.14303182013E+03  0.00000000000E+00 0.  1.
         25    1    1    2    0    0  0.10798504312E+03  0.91647767375E+01 -0.18005842003E+01  0.16170344700E+03  0.12000000000E+03 0.  0.
         25    1    1    2    0    0 -0.10798504312E+03 -0.91647767375E+01  0.45381610556E+02  0.16794121962E+03  0.12000000000E+03 0.  0.
<mgrwt>
<rscale>  0 0.32675113E+03</rscale>
<asrwt>0</asrwt>
<pdfrwt beam="1">  1        2 0.22004895E-01 0.32675113E+03</pdfrwt>
<pdfrwt beam="2">  1       -2 0.28709669E-01 0.32675113E+03</pdfrwt>
<totfact> 0.27625081E+03</totfact>
</mgrwt>
</event>
<event>
 4    1  0.1726503E-004  0.3441078E+03  0.7818608E-02  0.1065060E+00
          1   -1    0    0  501    0  0.00000000000E+00  0.00000000000E+00  0.11789756670E+04  0.11789756670E+04  0.00000000000E+00 0.  1.
         -1   -1    0    0    0  501 -0.00000000000E+00 -0.00000000000E+00 -0.25108698376E+02  0.25108698376E+02  0.00000000000E+00 0.  1.
         25    1    1    2    0    0  0.11335821077E+03 -0.38435475787E+02  0.47341693888E+03  0.50284288576E+03  0.12000000000E+03 0.  0.
         25    1    1    2    0    0 -0.11335821077E+03  0.38435475787E+02  0.68045002975E+03  0.70124147962E+03  0.12000000000E+03 0.  0.
<mgrwt>
<rscale>  0 0.34410780E+03</rscale>
<asrwt>0</asrwt>
<pdfrwt beam="1">  1        1 0.18138083E+00 0.34410780E+03</pdfrwt>
<pdfrwt beam="2">  1       -1 0.38628776E-02 0.34410780E+03</pdfrwt>
<totfact> 0.30758121E+03</totfact>
</mgrwt>
</event>
<event>
 4    1  0.1726503E-004  0.2617195E+03  0.7818608E-02  0.1106115E+00
          1   -1    0    0  501    0  0.00000000000E+00  0.00000000000E+00  0.13602674001E+03  0.13602674001E+03  0.00000000000E+00 0. -1.
         -1   -1    0    0    0  501 -0.00000000000E+00 -0.00000000000E+00 -0.12588900261E+03  0.12588900261E+03  0.00000000000E+00 0. -1.
         25    1    1    2    0    0  0.40479246728E+02  0.17911220372E+01 -0.27857067560E+02  0.12968343667E+03  0.12000000000E+03 0.  0.
         25    1    1    2    0    0 -0.40479246728E+02 -0.17911220372E+01  0.37994804963E+02  0.13223230595E+03  0.12000000000E+03 0.  0.
<mgrwt>
<rscale>  0 0.26171947E+03</rscale>
<asrwt>0</asrwt>
<pdfrwt beam="1">  1        1 0.20927191E-01 0.26171947E+03</pdfrwt>
<pdfrwt beam="2">  1       -1 0.19367539E-01 0.26171947E+03</pdfrwt>
<totfact> 0.50686045E+03</totfact>
</mgrwt>
</event>
<event>
 4    1  0.1726503E-004  0.3047131E+03  0.7818608E-02  0.1082908E+00
         -3   -1    0    0    0  501 -0.00000000000E+00  0.00000000000E+00  0.70822049885E+03  0.70822049885E+03  0.00000000000E+00 0. -1.
          3   -1    0    0  501    0  0.00000000000E+00 -0.00000000000E+00 -0.32775840981E+02  0.32775840981E+02  0.00000000000E+00 0. -1.
         25    1    1    2    0    0 -0.12241146337E+02 -0.64050124776E+02  0.50193989844E+03  0.52018835607E+03  0.12000000000E+03 0.  0.
         25    1    1    2    0    0  0.12241146337E+02  0.64050124776E+02  0.17350475943E+03  0.22080798376E+03  0.12000000000E+03 0.  0.
<mgrwt>
<rscale>  0 0.30471313E+03</rscale>
<asrwt>0</asrwt>
<pdfrwt beam="1">  1        3 0.50424376E-02 0.30471313E+03</pdfrwt>
<pdfrwt beam="2">  1       -3 0.10895699E+00 0.30471313E+03</pdfrwt>
<totfact> 0.42678397E+02</totfact>
</mgrwt>
</event>
<event>
 4    1  0.1726503E-004  0.2457705E+03  0.7818608E-02  0.1116007E+00
          2   -1    0    0  501    0  0.00000000000E+00  0.00000000000E+00  0.39496808136E+03  0.39496808136E+03  0.00000000000E+00 0. -1.
         -2   -1    0    0    0  501 -0.00000000000E+00 -0.00000000000E+00 -0.38232934339E+02  0.38232934339E+02  0.00000000000E+00 0. -1.
         25    1    1    2    0    0 -0.11203679121E+02 -0.23758724335E+02  0.17257786703E+03  0.21183276327E+03  0.12000000000E+03 0.  0.
         25    1    1    2    0    0  0.11203679121E+02  0.23758724335E+02  0.18415727999E+03  0.22136825242E+03  0.12000000000E+03 0.  0.
<mgrwt>
<rscale>  0 0.24577053E+03</rscale>
<asrwt>0</asrwt>
<pdfrwt beam="1">  1        2 0.60764318E-01 0.24577053E+03</pdfrwt>
<pdfrwt beam="2">  1       -2 0.58819901E-02 0.24577053E+03</pdfrwt>
<totfact> 0.12180600E+04</totfact>
</mgrwt>
</event>
<event>
 4    1  0.1726503E-004  0.4032552E+03  0.7818608E-02  0.1042658E+00
         -1   -1    0    0    0  501 -0.00000000000E+00  0.00000000000E+00  0.88372203120E+03  0.88372203120E+03  0.00000000000E+00 0.  1.
          1   -1    0    0  501    0  0.00000000000E+00 -0.00000000000E+00 -0.46002801187E+02  0.46002801187E+02  0.00000000000E+00 0.  1.
         25    1    1    2    0    0 -0.70393494006E+02  0.27550164840E+01  0.75527124746E+03  0.76798274157E+03  0.12000000000E+03 0.  0.
         25    1    1    2    0    0  0.70393494006E+02 -0.27550164840E+01  0.82447982554E+02  0.16174209082E+03  0.12000000000E+03 0.  0.
<mgrwt>
<rscale>  0 0.40325520E+03</rscale>
<asrwt>0</asrwt>
<pdfrwt beam="1">  1        1 0.70773547E-02 0.40325520E+03</pdfrwt>
<pdfrwt beam="2">  1       -1 0.13595722E+00 0.40325520E+03</pdfrwt>
<totfact> 0.50078691E+02</totfact>
</mgrwt>
</event>
<event>
 4    1  0.1726503E-004  0.2483038E+03  0.7818608E-02  0.1114382E+00
         -2   -1    0    0    0  501 -0.00000000000E+00  0.00000000000E+00  0.38506573027E+02  0.38506573027E+02  0.00000000000E+00 0.  1.
          2   -1    0    0  501    0  0.00000000000E+00 -0.00000000000E+00 -0.40028725624E+03  0.40028725624E+03  0.00000000000E+00 0.  1.
         25    1    1    2    0    0 -0.22444996577E+02  0.19267133830E+02 -0.20170167963E+03  0.23655563380E+03  0.12000000000E+03 0.  0.
         25    1    1    2    0    0  0.22444996577E+02 -0.19267133830E+02 -0.16007900359E+03  0.20223819547E+03  0.12000000000E+03 0.  0.
<mgrwt>
<rscale>  0 0.24830377E+03</rscale>
<asrwt>0</asrwt>
<pdfrwt beam="1">  1        2 0.61582656E-01 0.24830377E+03</pdfrwt>
<pdfrwt beam="2">  1       -2 0.59240880E-02 0.24830377E+03</pdfrwt>
<totfact> 0.11880922E+04</totfact>
</mgrwt>
</event>
<event>
 4    1  0.1726503E-004  0.2666060E+03  0.7818608E-02  0.1103238E+00
         -1   -1    0    0    0  501 -0.00000000000E+00  0.00000000000E+00  0.16888214085E+04  0.16888214085E+04  0.00000000000E+00 0.  1.
          1   -1    0    0  501    0  0.00000000000E+00 -0.00000000000E+00 -0.10521945545E+02  0.10521945545E+02  0.00000000000E+00 0.  1.
         25    1    1    2    0    0 -0.79606044720E+01 -0.42523181657E+02  0.10858563990E+04  0.10933232419E+04  0.12000000000E+03 0.  0.
         25    1    1    2    0    0  0.79606044720E+01  0.42523181657E+02  0.59244306400E+03  0.60602011211E+03  0.12000000000E+03 0.  0.
<mgrwt>
<rscale>  0 0.26660598E+03</rscale>
<asrwt>0</asrwt>
<pdfrwt beam="1">  1        1 0.16187622E-02 0.26660598E+03</pdfrwt>
<pdfrwt beam="2">  1       -1 0.25981846E+00 0.26660598E+03</pdfrwt>
<totfact> 0.56208299E+02</totfact>
</mgrwt>
</event>
<event>
 4    1  0.1726503E-004  0.2599685E+03  0.7818608E-02  0.1107162E+00
          2   -1    0    0  501    0  0.00000000000E+00  0.00000000000E+00  0.82036689836E+02  0.82036689836E+02  0.00000000000E+00 0.  1.
         -2   -1    0    0    0  501 -0.00000000000E+00 -0.00000000000E+00 -0.20595547935E+03  0.20595547935E+03  0.00000000000E+00 0.  1.
         25    1    1    2    0    0 -0.32911343108E+02  0.79469107748E+01 -0.10265634041E+03  0.16150738101E+03  0.12000000000E+03 0.  0.
         25    1    1    2    0    0  0.32911343108E+02 -0.79469107748E+01 -0.21262449103E+02  0.12648478817E+03  0.12000000000E+03 0.  0.
<mgrwt>
<rscale>  0 0.25996850E+03</rscale>
<asrwt>0</asrwt>
<pdfrwt beam="1">  1        2 0.12621029E-01 0.25996850E+03</pdfrwt>
<pdfrwt beam="2">  1       -2 0.31685458E-01 0.25996850E+03</pdfrwt>
<totfact> 0.44027520E+03</totfact>
</mgrwt>
</event>
<event>
 4    1  0.1726503E-004  0.2610993E+03  0.7818608E-02  0.1106485E+00
         -3   -1    0    0    0  501 -0.00000000000E+00  0.00000000000E+00  0.89412987359E+02  0.89412987359E+02  0.00000000000E+00 0. -1.
          3   -1    0    0  501    0  0.00000000000E+00 -0.00000000000E+00 -0.19061219980E+03  0.19061219980E+03  0.00000000000E+00 0. -1.
         25    1    1    2    0    0 -0.46293046032E+02  0.19417337674E+02 -0.38699022246E+02  0.13571180286E+03  0.12000000000E+03 0.  0.
         25    1    1    2    0    0  0.46293046032E+02 -0.19417337674E+02 -0.62500190197E+02  0.14431338430E+03  0.12000000000E+03 0.  0.
<mgrwt>
<rscale>  0 0.26109926E+03</rscale>
<asrwt>0</asrwt>
<pdfrwt beam="1">  1        3 0.29324954E-01 0.26109926E+03</pdfrwt>
<pdfrwt beam="2">  1       -3 0.13755844E-01 0.26109926E+03</pdfrwt>
<totfact> 0.12203929E+03</totfact>
</mgrwt>
</event>
<event>
 4    1  0.1726503E-004  0.2493594E+03  0.7818608E-02  0.1113710E+00
          1   -1    0    0  501    0  0.00000000000E+00  0.00000000000E+00  0.56664763405E+02  0.56664763405E+02  0.00000000000E+00 0.  1.
         -1   -1    0    0    0  501 -0.00000000000E+00 -0.00000000000E+00 -0.27433330365E+03  0.27433330365E+03  0.00000000000E+00 0.  1.
         25    1    1    2    0    0 -0.87330926971E+01  0.41965572281E+01 -0.65798183179E+02  0.13719795520E+03  0.12000000000E+03 0.  0.
         25    1    1    2    0    0  0.87330926971E+01 -0.41965572281E+01 -0.15187035706E+03  0.19380011185E+03  0.12000000000E+03 0.  0.
<mgrwt>
<rscale>  0 0.24935943E+03</rscale>
<asrwt>0</asrwt>
<pdfrwt beam="1">  1        1 0.87176561E-02 0.24935943E+03</pdfrwt>
<pdfrwt beam="2">  1       -1 0.42205123E-01 0.24935943E+03</pdfrwt>
<totfact> 0.42921759E+03</totfact>
</mgrwt>
</event>
<event>
 4    1  0.1726503E-004  0.3478270E+03  0.7818608E-02  0.1063510E+00
         -3   -1    0    0    0  501 -0.00000000000E+00  0.00000000000E+00  0.11793458551E+04  0.11793458551E+04  0.00000000000E+00 0.  1.
          3   -1    0    0  501    0  0.00000000000E+00 -0.00000000000E+00 -0.25646334144E+02  0.25646334144E+02  0.00000000000E+00 0.  1.
         25    1    1    2    0    0  0.10402053948E+03 -0.70071370180E+02  0.61410206125E+03  0.63816268395E+03  0.12000000000E+03 0.  0.
         25    1    1    2    0    0 -0.10402053948E+03  0.70071370180E+02  0.53959745967E+03  0.56682950526E+03  0.12000000000E+03 0.  0.
<mgrwt>
<rscale>  0 0.34782696E+03</rscale>
<asrwt>0</asrwt>
<pdfrwt beam="1">  1        3 0.39455908E-02 0.34782696E+03</pdfrwt>
<pdfrwt beam="2">  1       -3 0.18143778E+00 0.34782696E+03</pdfrwt>
<totfact> 0.17728941E+02</totfact>
</mgrwt>
</event>
<event>
 4    1  0.1726503E-004  0.2836009E+03  0.7818608E-02  0.1093738E+00
         -1   -1    0    0    0  501 -0.00000000000E+00  0.00000000000E+00  0.25050874493E+02  0.25050874493E+02  0.00000000000E+00 0. -1.
          1   -1    0    0  501    0  0.00000000000E+00 -0.00000000000E+00 -0.80266148715E+03  0.80266148715E+03  0.00000000000E+00 0. -1.
         25    1    1    2    0    0 -0.31720012542E+02  0.26546533017E+02 -0.20429892100E+03  0.24051803827E+03  0.12000000000E+03 0.  0.
         25    1    1    2    0    0  0.31720012542E+02 -0.26546533017E+02 -0.57331169166E+03  0.58719432337E+03  0.12000000000E+03 0.  0.
<mgrwt>
<rscale>  0 0.28360093E+03</rscale>
<asrwt>0</asrwt>
<pdfrwt beam="1">  1        1 0.12348638E+00 0.28360093E+03</pdfrwt>
<pdfrwt beam="2">  1       -1 0.38539809E-02 0.28360093E+03</pdfrwt>
<totfact> 0.59541584E+03</totfact>
</mgrwt>
</event>
<event>
 4    1  0.1726503E-004  0.2969056E+03  0.7818608E-02  0.1086798E+00
          1   -1    0    0  501    0  0.00000000000E+00  0.00000000000E+00  0.19215721938E+03  0.19215721938E+03  0.00000000000E+00 0.  1.
         -1   -1    0    0    0  501 -0.00000000000E+00 -0.00000000000E+00 -0.11468858442E+03  0.11468858442E+03  0.00000000000E+00 0.  1.
         25    1    1    2    0    0 -0.16065151102E+02 -0.75604986203E+02 -0.34239895512E+01  0.14277929375E+03  0.12000000000E+03 0.  0.
         25    1    1    2    0    0  0.16065151102E+02  0.75604986203E+02  0.80892624513E+02  0.16406651005E+03  0.12000000000E+03 0.  0.
<mgrwt>
<rscale>  0 0.29690564E+03</rscale>
<asrwt>0</asrwt>
<pdfrwt beam="1">  1        1 0.29562649E-01 0.29690564E+03</pdfrwt>
<pdfrwt beam="2">  1       -1 0.17644398E-01 0.29690564E+03</pdfrwt>
<totfact> 0.38081776E+03</totfact>
</mgrwt>
</event>
<event>
 4    1  0.1726503E-004  0.2566396E+03  0.7818608E-02  0.1109179E+00
          2   -1    0    0  501    0  0.00000000000E+00  0.00000000000E+00  0.11659555211E+04  0.11659555211E+04  0.00000000000E+00 0.  1.
         -2   -1    0    0    0  501 -0.00000000000E+00 -0.00000000000E+00 -0.14122294729E+02  0.14122294729E+02  0.00000000000E+00 0.  1.
         25    1    1    2    0    0  0.15627806437E+02 -0.28559326729E+02  0.43006592984E+03  0.44767908985E+03  0.12000000000E+03 0.  0.
         25    1    1    2    0    0 -0.15627806437E+02  0.28559326729E+02  0.72176729653E+03  0.73239872598E+03  0.12000000000E+03 0.  0.
<mgrwt>
<rscale>  0 0.25663957E+03</rscale>
<asrwt>0</asrwt>
<pdfrwt beam="1">  1        2 0.17937770E+00 0.25663957E+03</pdfrwt>
<pdfrwt beam="2">  1       -2 0.21726616E-02 0.25663957E+03</pdfrwt>
<totfact> 0.14237535E+04</totfact>
</mgrwt>
</event>
<event>
 4    1  0.1726503E-004  0.2612553E+03  0.7818608E-02  0.1106391E+00
          2   -1    0    0  501    0  0.00000000000E+00  0.00000000000E+00  0.11157320772E+03  0.11157320772E+03  0.00000000000E+00 0.  1.
         -2   -1    0    0    0  501 -0.00000000000E+00 -0.00000000000E+00 -0.15293616876E+03  0.15293616876E+03  0.00000000000E+00 0.  1.
         25    1    1    2    0    0 -0.31995776384E+02 -0.27015251635E+02  0.98608919943E+01  0.12747858925E+03  0.12000000000E+03 0.  0.
         25    1    1    2    0    0  0.31995776384E+02  0.27015251635E+02 -0.51223853030E+02  0.13703078722E+03  0.12000000000E+03 0.  0.
<mgrwt>
<rscale>  0 0.26125527E+03</rscale>
<asrwt>0</asrwt>
<pdfrwt beam="1">  1        2 0.17165109E-01 0.26125527E+03</pdfrwt>
<pdfrwt beam="2">  1       -2 0.23528641E-01 0.26125527E+03</pdfrwt>
<totfact> 0.52045377E+03</totfact>
</mgrwt>
</event>
<event>
 4    1  0.1726503E-004  0.2487088E+03  0.7818608E-02  0.1114124E+00
          3   -1    0    0  501    0  0.00000000000E+00  0.00000000000E+00  0.10823996882E+02  0.10823996882E+02  0.00000000000E+00 0.  1.
         -3   -1    0    0    0  501 -0.00000000000E+00 -0.00000000000E+00 -0.14286785854E+04  0.14286785854E+04  0.00000000000E+00 0.  1.
         25    1    1    2    0    0  0.15127533598E+02  0.73305655624E+01 -0.54713149022E+03  0.56038865714E+03  0.12000000000E+03 0.  0.
         25    1    1    2    0    0 -0.15127533598E+02 -0.73305655624E+01 -0.87072309827E+03  0.87911392512E+03  0.12000000000E+03 0.  0.
<mgrwt>
<rscale>  0 0.24870877E+03</rscale>
<asrwt>0</asrwt>
<pdfrwt beam="1">  1        3 0.16652305E-02 0.24870877E+03</pdfrwt>
<pdfrwt beam="2">  1       -3 0.21979668E+00 0.24870877E+03</pdfrwt>
<totfact> 0.38533453E+02</totfact>
</mgrwt>
</event>
<event>
 4    1  0.1726503E-004  0.2455573E+03  0.7818608E-02  0.1116145E+00
          3   -1    0    0  501    0  0.00000000000E+00  0.00000000000E+00  0.61471715678E+02  0.61471715678E+02  0.00000000000E+00 0.  1.
         -3   -1    0    0    0  501 -0.00000000000E+00 -0.00000000000E+00 -0.24522812039E+03  0.24522812039E+03  0.00000000000E+00 0.  1.
         25    1    1    2    0    0 -0.11882209300E+02 -0.21845713732E+02 -0.82517303662E+02  0.14774142110E+03  0.12000000000E+03 0.  0.
         25    1    1    2    0    0  0.11882209300E+02  0.21845713732E+02 -0.10123910105E+03  0.15895841496E+03  0.12000000000E+03 0.  0.
<mgrwt>
<rscale>  0 0.24555727E+03</rscale>
<asrwt>0</asrwt>
<pdfrwt beam="1">  1        3 0.94571873E-02 0.24555727E+03</pdfrwt>
<pdfrwt beam="2">  1       -3 0.37727402E-01 0.24555727E+03</pdfrwt>
<totfact> 0.14139574E+03</totfact>
</mgrwt>
</event>
<event>
 4    1  0.1726503E-004  0.3286714E+03  0.7818608E-02  0.1071726E+00
          2   -1    0    0  501    0  0.00000000000E+00  0.00000000000E+00  0.22119738229E+04  0.22119738229E+04  0.00000000000E+00 0.  1.
         -2   -1    0    0    0  501 -0.00000000000E+00 -0.00000000000E+00 -0.12209106076E+02  0.12209106076E+02  0.00000000000E+00 0.  1.
         25    1    1    2    0    0  0.14104590512E+02 -0.10868805660E+03  0.93492517870E+03  0.94894526865E+03  0.12000000000E+03 0.  0.
         25    1    1    2    0    0 -0.14104590512E+02  0.10868805660E+03  0.12648395381E+04  0.12752376603E+04  0.12000000000E+03 0.  0.
<mgrwt>
<rscale>  0 0.32867140E+03</rscale>
<asrwt>0</asrwt>
<pdfrwt beam="1">  1        2 0.34030335E+00 0.32867140E+03</pdfrwt>
<pdfrwt beam="2">  1       -2 0.18783258E-02 0.32867140E+03</pdfrwt>
<totfact> 0.48605474E+03</totfact>
</mgrwt>
</event>
<event>
 4    1  0.1726503E-004  0.2628247E+03  0.7818608E-02  0.1105458E+00
         -1   -1    0    0    0  501 -0.00000000000E+00  0.00000000000E+00  0.63598929068E+03  0.63598929068E+03  0.00000000000E+00 0.  1.
          1   -1    0    0  501    0  0.00000000000E+00 -0.00000000000E+00 -0.27153295001E+02  0.27153295001E+02  0.00000000000E+00 0.  1.
         25    1    1    2    0    0 -0.18126081311E+02  0.39176949783E+02  0.38443829389E+03  0.40503850438E+03  0.12000000000E+03 0.  0.
         25    1    1    2    0    0  0.18126081311E+02 -0.39176949783E+02  0.22439770179E+03  0.25810408130E+03  0.12000000000E+03 0.  0.
<mgrwt>
<rscale>  0 0.26282469E+03</rscale>
<asrwt>0</asrwt>
<pdfrwt beam="1">  1        1 0.41774305E-02 0.26282469E+03</pdfrwt>
<pdfrwt beam="2">  1       -1 0.97844495E-01 0.26282469E+03</pdfrwt>
<totfact> 0.22576071E+03</totfact>
</mgrwt>
</event>
<event>
 4    1  0.1726503E-004  0.4352533E+03  0.7818608E-02  0.1032213E+00
          1   -1    0    0  501    0  0.00000000000E+00  0.00000000000E+00  0.12491813629E+04  0.12491813629E+04  0.00000000000E+00 0.  1.
         -1   -1    0    0    0  501 -0.00000000000E+00 -0.00000000000E+00 -0.37913910361E+02  0.37913910361E+02  0.00000000000E+00 0.  1.
         25    1    1    2    0    0  0.50495865049E+02  0.18529488781E+02  0.92864204936E+02  0.16098737497E+03  0.12000000000E+03 0.  0.
         25    1    1    2    0    0 -0.50495865049E+02 -0.18529488781E+02  0.11184032476E+04  0.11261078983E+04  0.12000000000E+03 0.  0.
<mgrwt>
<rscale>  0 0.43525326E+03</rscale>
<asrwt>0</asrwt>
<pdfrwt beam="1">  1        1 0.19218172E+00 0.43525326E+03</pdfrwt>
<pdfrwt beam="2">  1       -1 0.58329103E-02 0.43525326E+03</pdfrwt>
<totfact> 0.14702619E+03</totfact>
</mgrwt>
</event>
<event>
 4    1  0.1726503E-004  0.4264903E+03  0.7818608E-02  0.1034974E+00
         -1   -1    0    0    0  501 -0.00000000000E+00  0.00000000000E+00  0.29571635245E+03  0.29571635245E+03  0.00000000000E+00 0. -1.
          1   -1    0    0  501    0  0.00000000000E+00 -0.00000000000E+00 -0.15377401499E+03  0.15377401499E+03  0.00000000000E+00 0. -1.
         25    1    1    2    0    0  0.13447738440E+03 -0.93367518940E+02  0.13985515042E+03  0.24649771522E+03  0.12000000000E+03 0.  0.
         25    1    1    2    0    0 -0.13447738440E+03  0.93367518940E+02  0.20871870303E+01  0.20299265222E+03  0.12000000000E+03 0.  0.
<mgrwt>
<rscale>  0 0.42649029E+03</rscale>
<asrwt>0</asrwt>
<pdfrwt beam="1">  1        1 0.23657541E-01 0.42649029E+03</pdfrwt>
<pdfrwt beam="2">  1       -1 0.45494824E-01 0.42649029E+03</pdfrwt>
<totfact> 0.10089691E+03</totfact>
</mgrwt>
</event>
<event>
 4    1  0.1726503E-004  0.3089617E+03  0.7818608E-02  0.1080845E+00
         -3   -1    0    0    0  501 -0.00000000000E+00  0.00000000000E+00  0.90251290382E+02  0.90251290382E+02  0.00000000000E+00 0. -1.
          3   -1    0    0  501    0  0.00000000000E+00 -0.00000000000E+00 -0.26442090681E+03  0.26442090681E+03  0.00000000000E+00 0. -1.
         25    1    1    2    0    0  0.63086819505E+01 -0.80310108386E+02 -0.14969608078E+03  0.20808274695E+03  0.12000000000E+03 0.  0.
         25    1    1    2    0    0 -0.63086819505E+01  0.80310108386E+02 -0.24473535654E+02  0.14658945025E+03  0.12000000000E+03 0.  0.
<mgrwt>
<rscale>  0 0.30896167E+03</rscale>
<asrwt>0</asrwt>
<pdfrwt beam="1">  1        3 0.40680139E-01 0.30896167E+03</pdfrwt>
<pdfrwt beam="2">  1       -3 0.13884814E-01 0.30896167E+03</pdfrwt>
<totfact> 0.65461655E+02</totfact>
</mgrwt>
</event>
<event>
 4    1  0.1726503E-004  0.2681570E+03  0.7818608E-02  0.1102339E+00
         -1   -1    0    0    0  501 -0.00000000000E+00  0.00000000000E+00  0.58460137177E+03  0.58460137177E+03  0.00000000000E+00 0. -1.
          1   -1    0    0  501    0  0.00000000000E+00 -0.00000000000E+00 -0.30750953117E+02  0.30750953117E+02  0.00000000000E+00 0. -1.
         25    1    1    2    0    0  0.57646917405E+02 -0.10762335516E+02  0.30388768756E+03  0.33194385309E+03  0.12000000000E+03 0.  0.
         25    1    1    2    0    0 -0.57646917405E+02  0.10762335516E+02  0.24996273110E+03  0.28340847180E+03  0.12000000000E+03 0.  0.
<mgrwt>
<rscale>  0 0.26815704E+03</rscale>
<asrwt>0</asrwt>
<pdfrwt beam="1">  1        1 0.47309163E-02 0.26815704E+03</pdfrwt>
<pdfrwt beam="2">  1       -1 0.89938664E-01 0.26815704E+03</pdfrwt>
<totfact> 0.22824553E+03</totfact>
</mgrwt>
</event>
<event>
 4    1  0.1726503E-004  0.2713888E+03  0.7818608E-02  0.1100487E+00
          2   -1    0    0  501    0  0.00000000000E+00  0.00000000000E+00  0.10914257346E+03  0.10914257346E+03  0.00000000000E+00 0.  1.
         -2   -1    0    0    0  501 -0.00000000000E+00 -0.00000000000E+00 -0.16870571497E+03  0.16870571497E+03  0.00000000000E+00 0.  1.
         25    1    1    2    0    0  0.29332842458E+02 -0.45718578747E+02  0.35882600770E+01  0.13177055703E+03  0.12000000000E+03 0.  0.
         25    1    1    2    0    0 -0.29332842458E+02  0.45718578747E+02 -0.63151401583E+02  0.14607773140E+03  0.12000000000E+03 0.  0.
<mgrwt>
<rscale>  0 0.27138884E+03</rscale>
<asrwt>0</asrwt>
<pdfrwt beam="1">  1        2 0.16791165E-01 0.27138884E+03</pdfrwt>
<pdfrwt beam="2">  1       -2 0.25954725E-01 0.27138884E+03</pdfrwt>
<totfact> 0.44989454E+03</totfact>
</mgrwt>
</event>
<event>
 4    1  0.1726503E-004  0.2806008E+03  0.7818608E-02  0.1095361E+00
          2   -1    0    0  501    0  0.00000000000E+00  0.00000000000E+00  0.16494620267E+04  0.16494620267E+04  0.00000000000E+00 0. -1.
         -2   -1    0    0    0  501 -0.00000000000E+00 -0.00000000000E+00 -0.11933712422E+02  0.11933712422E+02  0.00000000000E+00 0. -1.
         25    1    1    2    0    0  0.49693587239E+02 -0.28880070316E+02  0.10822716015E+04  0.10904197955E+04  0.12000000000E+03 0.  0.
         25    1    1    2    0    0 -0.49693587239E+02  0.28880070316E+02  0.55525671281E+03  0.57097594362E+03  0.12000000000E+03 0.  0.
<mgrwt>
<rscale>  0 0.28060082E+03</rscale>
<asrwt>0</asrwt>
<pdfrwt beam="1">  1        2 0.25376321E+00 0.28060082E+03</pdfrwt>
<pdfrwt beam="2">  1       -2 0.18359571E-02 0.28060082E+03</pdfrwt>
<totfact> 0.99665539E+03</totfact>
</mgrwt>
</event>
<event>
 4    1  0.1726503E-004  0.4240591E+03  0.7818608E-02  0.1035753E+00
         -2   -1    0    0    0  501 -0.00000000000E+00  0.00000000000E+00  0.29875313099E+02  0.29875313099E+02  0.00000000000E+00 0.  1.
          2   -1    0    0  501    0  0.00000000000E+00 -0.00000000000E+00 -0.15048055373E+04  0.15048055373E+04  0.00000000000E+00 0.  1.
         25    1    1    2    0    0  0.86051872331E+02 -0.82052669148E+00 -0.12881155092E+04  0.12965520287E+04  0.12000000000E+03 0.  0.
         25    1    1    2    0    0 -0.86051872331E+02  0.82052669148E+00 -0.18681471497E+03  0.23812882170E+03  0.12000000000E+03 0.  0.
<mgrwt>
<rscale>  0 0.42405913E+03</rscale>
<asrwt>0</asrwt>
<pdfrwt beam="1">  1        2 0.23150854E+00 0.42405913E+03</pdfrwt>
<pdfrwt beam="2">  1       -2 0.45962020E-02 0.42405913E+03</pdfrwt>
<totfact> 0.30181381E+03</totfact>
</mgrwt>
</event>
<event>
 4    1  0.1726503E-004  0.2960731E+03  0.7818608E-02  0.1087220E+00
          2   -1    0    0  501    0  0.00000000000E+00  0.00000000000E+00  0.16642426068E+04  0.16642426068E+04  0.00000000000E+00 0.  1.
         -2   -1    0    0    0  501 -0.00000000000E+00 -0.00000000000E+00 -0.13168041530E+02  0.13168041530E+02  0.00000000000E+00 0.  1.
         25    1    1    2    0    0  0.82456071401E+02 -0.34281457631E+01  0.67520741223E+03  0.69073569868E+03  0.12000000000E+03 0.  0.
         25    1    1    2    0    0 -0.82456071401E+02  0.34281457631E+01  0.97586715307E+03  0.98667494968E+03  0.12000000000E+03 0.  0.
<mgrwt>
<rscale>  0 0.29607307E+03</rscale>
<asrwt>0</asrwt>
<pdfrwt beam="1">  1        2 0.25603716E+00 0.29607307E+03</pdfrwt>
<pdfrwt beam="2">  1       -2 0.20258539E-02 0.29607307E+03</pdfrwt>
<totfact> 0.84747468E+03</totfact>
</mgrwt>
</event>
<event>
 4    1  0.1726503E-004  0.2998317E+03  0.7818608E-02  0.1085325E+00
          1   -1    0    0  501    0  0.00000000000E+00  0.00000000000E+00  0.63701806013E+03  0.63701806013E+03  0.00000000000E+00 0.  1.
         -1   -1    0    0    0  501 -0.00000000000E+00 -0.00000000000E+00 -0.35281196274E+02  0.35281196274E+02  0.00000000000E+00 0.  1.
         25    1    1    2    0    0  0.36050644791E+02 -0.58577192092E+02  0.43052864709E+03  0.45220111940E+03  0.12000000000E+03 0.  0.
         25    1    1    2    0    0 -0.36050644791E+02  0.58577192092E+02  0.17120821677E+03  0.22009813700E+03  0.12000000000E+03 0.  0.
<mgrwt>
<rscale>  0 0.29983168E+03</rscale>
<asrwt>0</asrwt>
<pdfrwt beam="1">  1        1 0.98002770E-01 0.29983168E+03</pdfrwt>
<pdfrwt beam="2">  1       -1 0.54278768E-02 0.29983168E+03</pdfrwt>
<totfact> 0.50238146E+03</totfact>
</mgrwt>
</event>
<event>
 4    1  0.1726503E-004  0.2872577E+03  0.7818608E-02  0.1091790E+00
          2   -1    0    0  501    0  0.00000000000E+00  0.00000000000E+00  0.21409218165E+04  0.21409218165E+04  0.00000000000E+00 0. -1.
         -2   -1    0    0    0  501 -0.00000000000E+00 -0.00000000000E+00 -0.96356844455E+01  0.96356844455E+01  0.00000000000E+00 0. -1.
         25    1    1    2    0    0  0.76888429510E+02 -0.14686817077E+02  0.99013915658E+03  0.10004514394E+04  0.12000000000E+03 0.  0.
         25    1    1    2    0    0 -0.76888429510E+02  0.14686817077E+02  0.11411469755E+04  0.11501060616E+04  0.12000000000E+03 0.  0.
<mgrwt>
<rscale>  0 0.28725770E+03</rscale>
<asrwt>0</asrwt>
<pdfrwt beam="1">  1        2 0.32937221E+00 0.28725770E+03</pdfrwt>
<pdfrwt beam="2">  1       -2 0.14824147E-02 0.28725770E+03</pdfrwt>
<totfact> 0.75153591E+03</totfact>
</mgrwt>
</event>
<event>
 4    1  0.1726503E-004  0.3255932E+03  0.7818608E-02  0.1073104E+00
         -2   -1    0    0    0  501 -0.00000000000E+00  0.00000000000E+00  0.13359215972E+03  0.13359215972E+03  0.00000000000E+00 0.  1.
          2   -1    0    0  501    0  0.00000000000E+00 -0.00000000000E+00 -0.19838537847E+03  0.19838537847E+03  0.00000000000E+00 0.  1.
         25    1    1    2    0    0  0.74386290710E+02 -0.69627299036E+02  0.99073108183E+01  0.15773216484E+03  0.12000000000E+03 0.  0.
         25    1    1    2    0    0 -0.74386290710E+02  0.69627299036E+02 -0.74700529570E+02  0.17424537335E+03  0.12000000000E+03 0.  0.
<mgrwt>
<rscale>  0 0.32559319E+03</rscale>
<asrwt>0</asrwt>
<pdfrwt beam="1">  1        2 0.30520827E-01 0.32559319E+03</pdfrwt>
<pdfrwt beam="2">  1       -2 0.20552640E-01 0.32559319E+03</pdfrwt>
<totfact> 0.34547227E+03</totfact>
</mgrwt>
</event>
<event>
 4    1  0.1726503E-004  0.3368449E+03  0.7818608E-02  0.1068148E+00
          3   -1    0    0  501    0  0.00000000000E+00  0.00000000000E+00  0.18846572972E+03  0.18846572972E+03  0.00000000000E+00 0.  1.
         -3   -1    0    0    0  501 -0.00000000000E+00 -0.00000000000E+00 -0.15051080576E+03  0.15051080576E+03  0.00000000000E+00 0.  1.
         25    1    1    2    0    0 -0.21188109971E+02 -0.11615816604E+03  0.23955816665E+02  0.17004569002E+03  0.12000000000E+03 0.  0.
         25    1    1    2    0    0  0.21188109971E+02  0.11615816604E+03  0.13999107304E+02  0.16893084546E+03  0.12000000000E+03 0.  0.
<mgrwt>
<rscale>  0 0.33684494E+03</rscale>
<asrwt>0</asrwt>
<pdfrwt beam="1">  1        3 0.28994728E-01 0.33684494E+03</pdfrwt>
<pdfrwt beam="2">  1       -3 0.23155509E-01 0.33684494E+03</pdfrwt>
<totfact> 0.51062253E+02</totfact>
</mgrwt>
</event>
<event>
 4    1  0.1726503E-004  0.3650930E+03  0.7818608E-02  0.1056585E+00
         -2   -1    0    0    0  501 -0.00000000000E+00  0.00000000000E+00  0.69391712512E+02  0.69391712512E+02  0.00000000000E+00 0. -1.
          2   -1    0    0  501    0  0.00000000000E+00 -0.00000000000E+00 -0.48021915593E+03  0.48021915593E+03  0.00000000000E+00 0. -1.
         25    1    1    2    0    0  0.12794892448E+02  0.13340156180E+03 -0.25214282749E+03  0.30973487278E+03  0.12000000000E+03 0.  0.
         25    1    1    2    0    0 -0.12794892448E+02 -0.13340156180E+03 -0.15868461593E+03  0.23987599567E+03  0.12000000000E+03 0.  0.
<mgrwt>
<rscale>  0 0.36509303E+03</rscale>
<asrwt>0</asrwt>
<pdfrwt beam="1">  1        2 0.73879873E-01 0.36509303E+03</pdfrwt>
<pdfrwt beam="2">  1       -2 0.10675648E-01 0.36509303E+03</pdfrwt>
<totfact> 0.39103886E+03</totfact>
</mgrwt>
</event>
<event>
 4    1  0.1726503E-004  0.2778479E+03  0.7818608E-02  0.1096870E+00
          2   -1    0    0  501    0  0.00000000000E+00  0.00000000000E+00  0.20552462806E+03  0.20552462806E+03  0.00000000000E+00 0.  1.
         -2   -1    0    0    0  501 -0.00000000000E+00 -0.00000000000E+00 -0.93905339899E+02  0.93905339899E+02  0.00000000000E+00 0.  1.
         25    1    1    2    0    0 -0.53570000710E+02  0.29421688615E+02  0.92584762354E+02  0.16342374049E+03  0.12000000000E+03 0.  0.
         25    1    1    2    0    0  0.53570000710E+02 -0.29421688615E+02  0.19034525809E+02  0.13600622747E+03  0.12000000000E+03 0.  0.
<mgrwt>
<rscale>  0 0.27784787E+03</rscale>
<asrwt>0</asrwt>
<pdfrwt beam="1">  1        2 0.31619174E-01 0.27784787E+03</pdfrwt>
<pdfrwt beam="2">  1       -2 0.14446975E-01 0.27784787E+03</pdfrwt>
<totfact> 0.59871355E+03</totfact>
</mgrwt>
</event>
<event>
 4    1  0.1726503E-004  0.2784682E+03  0.7818608E-02  0.1096529E+00
         -1   -1    0    0    0  501 -0.00000000000E+00  0.00000000000E+00  0.78995241665E+03  0.78995241665E+03  0.00000000000E+00 0.  1.
          1   -1    0    0  501    0  0.00000000000E+00 -0.00000000000E+00 -0.24540885005E+02  0.24540885005E+02  0.00000000000E+00 0.  1.
         25    1    1    2    0    0 -0.54956410792E+02 -0.16492981435E+02  0.26232514338E+03  0.29412022435E+03  0.12000000000E+03 0.  0.
         25    1    1    2    0    0  0.54956410792E+02  0.16492981435E+02  0.50308638826E+03  0.52037307730E+03  0.12000000000E+03 0.  0.
<mgrwt>
<rscale>  0 0.27846818E+03</rscale>
<asrwt>0</asrwt>
<pdfrwt beam="1">  1        1 0.37755214E-02 0.27846818E+03</pdfrwt>
<pdfrwt beam="2">  1       -1 0.12153112E+00 0.27846818E+03</pdfrwt>
<totfact> 0.15815288E+03</totfact>
</mgrwt>
</event>
<event>
 4    1  0.1726503E-004  0.2859077E+03  0.7818608E-02  0.1092505E+00
         -3   -1    0    0    0  501 -0.00000000000E+00  0.00000000000E+00  0.34865601110E+02  0.34865601110E+02  0.00000000000E+00 0. -1.
          3   -1    0    0  501    0  0.00000000000E+00 -0.00000000000E+00 -0.58613083215E+03  0.58613083215E+03  0.00000000000E+00 0. -1.
         25    1    1    2    0    0 -0.23080231387E+02  0.72882799067E+02 -0.24559869078E+03  0.28383677773E+03  0.12000000000E+03 0.  0.
         25    1    1    2    0    0  0.23080231387E+02 -0.72882799067E+02 -0.30566654026E+03  0.33715965553E+03  0.12000000000E+03 0.  0.
<mgrwt>
<rscale>  0 0.28590770E+03</rscale>
<asrwt>0</asrwt>
<pdfrwt beam="1">  1        3 0.90173974E-01 0.28590770E+03</pdfrwt>
<pdfrwt beam="2">  1       -3 0.53639387E-02 0.28590770E+03</pdfrwt>
<totfact> 0.59475319E+02</totfact>
</mgrwt>
</event>
<event>
 4    1  0.1726503E-004  0.3851813E+03  0.7818608E-02  0.1049035E+00
         -2   -1    0    0    0  501 -0.00000000000E+00  0.00000000000E+00  0.20501927853E+02  0.20501927853E+02  0.00000000000E+00 0.  1.
          2   -1    0    0  501    0  0.00000000000E+00 -0.00000000000E+00 -0.18091551325E+04  0.18091551325E+04  0.00000000000E+00 0.  1.
         25    1    1    2    0    0  0.20033400698E+02  0.14317403877E+03 -0.10953540356E+04  0.11113508024E+04  0.12000000000E+03 0.  0.
         25    1    1    2    0    0 -0.20033400698E+02 -0.14317403877E+03 -0.69329916901E+03  0.71830625799E+03  0.12000000000E+03 0.  0.
<mgrwt>
<rscale>  0 0.38518135E+03</rscale>
<asrwt>0</asrwt>
<pdfrwt beam="1">  1        2 0.27833160E+00 0.38518135E+03</pdfrwt>
<pdfrwt beam="2">  1       -2 0.31541422E-02 0.38518135E+03</pdfrwt>
<totfact> 0.36723504E+03</totfact>
</mgrwt>
</event>
<event>
 4    1  0.1726503E-004  0.2526989E+03  0.7818608E-02  0.1111611E+00
         -2   -1    0    0    0  501 -0.00000000000E+00  0.00000000000E+00  0.12022772424E+02  0.12022772424E+02  0.00000000000E+00 0. -1.
          2   -1    0    0  501    0  0.00000000000E+00 -0.00000000000E+00 -0.13278291280E+04  0.13278291280E+04  0.00000000000E+00 0. -1.
         25    1    1    2    0    0 -0.68977180698E+01 -0.16226468893E+02 -0.84561116430E+03  0.85426525037E+03  0.12000000000E+03 0.  0.
         25    1    1    2    0    0  0.68977180698E+01  0.16226468893E+02 -0.47019519124E+03  0.48558665002E+03  0.12000000000E+03 0.  0.
<mgrwt>
<rscale>  0 0.25269893E+03</rscale>
<asrwt>0</asrwt>
<pdfrwt beam="1">  1        2 0.20428121E+00 0.25269893E+03</pdfrwt>
<pdfrwt beam="2">  1       -2 0.18496591E-02 0.25269893E+03</pdfrwt>
<totfact> 0.14630436E+04</totfact>
</mgrwt>
</event>
<event>
 4    1  0.1726503E-004  0.2715764E+03  0.7818608E-02  0.1100381E+00
          1   -1    0    0  501    0  0.00000000000E+00  0.00000000000E+00  0.24060185273E+02  0.24060185273E+02  0.00000000000E+00 0.  1.
         -1   -1    0    0    0  501 -0.00000000000E+00 -0.00000000000E+00 -0.76634612634E+03  0.76634612634E+03  0.00000000000E+00 0.  1.
         25    1    1    2    0    0  0.58223480206E+02  0.11399260206E+02 -0.30486972144E+03  0.33296465853E+03  0.12000000000E+03 0.  0.
         25    1    1    2    0    0 -0.58223480206E+02 -0.11399260206E+02 -0.43741621963E+03  0.45744165308E+03  0.12000000000E+03 0.  0.
<mgrwt>
<rscale>  0 0.27157636E+03</rscale>
<asrwt>0</asrwt>
<pdfrwt beam="1">  1        1 0.37015674E-02 0.27157636E+03</pdfrwt>
<pdfrwt beam="2">  1       -1 0.11789939E+00 0.27157636E+03</pdfrwt>
<totfact> 0.17469748E+03</totfact>
</mgrwt>
</event>
<event>
 4    1  0.1726503E-004  0.2444543E+03  0.7818608E-02  0.1116861E+00
         -3   -1    0    0    0  501 -0.00000000000E+00  0.00000000000E+00  0.21728086302E+03  0.21728086302E+03  0.00000000000E+00 0. -1.
          3   -1    0    0  501    0  0.00000000000E+00 -0.00000000000E+00 -0.68756503441E+02  0.68756503441E+02  0.00000000000E+00 0. -1.
         25    1    1    2    0    0  0.20550550548E+02 -0.10136159302E+02  0.78703275299E+02  0.14532471364E+03  0.12000000000E+03 0.  0.
         25    1    1    2    0    0 -0.20550550548E+02  0.10136159302E+02  0.69821084284E+02  0.14071265282E+03  0.12000000000E+03 0.  0.
<mgrwt>
<rscale>  0 0.24445427E+03</rscale>
<asrwt>0</asrwt>
<pdfrwt beam="1">  1        3 0.10577924E-01 0.24445427E+03</pdfrwt>
<pdfrwt beam="2">  1       -3 0.33427825E-01 0.24445427E+03</pdfrwt>
<totfact> 0.14773238E+03</totfact>
</mgrwt>
</event>
<event>
 4    1  0.1726503E-004  0.6060792E+03  0.7818608E-02  0.9892873E-01
         -1   -1    0    0    0  501 -0.00000000000E+00  0.00000000000E+00  0.16171430914E+03  0.16171430914E+03  0.00000000000E+00 0.  1.
          1   -1    0    0  501    0  0.00000000000E+00 -0.00000000000E+00 -0.56787188322E+03  0.56787188322E+03  0.00000000000E+00 0.  1.
         25    1    1    2    0    0 -0.26240608104E+03 -0.51774328942E+02 -0.11065012447E+03  0.31333844729E+03  0.12000000000E+03 0.  0.
         25    1    1    2    0    0  0.26240608104E+03  0.51774328942E+02 -0.29550744961E+03  0.41624774507E+03  0.12000000000E+03 0.  0.
<mgrwt>
<rscale>  0 0.60607923E+03</rscale>
<asrwt>0</asrwt>
<pdfrwt beam="1">  1        1 0.87364904E-01 0.60607923E+03</pdfrwt>
<pdfrwt beam="2">  1       -1 0.24879125E-01 0.60607923E+03</pdfrwt>
<totfact> 0.52874852E+02</totfact>
</mgrwt>
</event>
<event>
 4    1  0.1726503E-004  0.2637051E+03  0.7818608E-02  0.1104937E+00
         -1   -1    0    0    0  501 -0.00000000000E+00  0.00000000000E+00  0.19228157912E+03  0.19228157912E+03  0.00000000000E+00 0.  1.
          1   -1    0    0  501    0  0.00000000000E+00 -0.00000000000E+00 -0.90414758047E+02  0.90414758047E+02  0.00000000000E+00 0.  1.
         25    1    1    2    0    0  0.18343210696E+02  0.19899470800E+02  0.53466088269E-01  0.12301408527E+03  0.12000000000E+03 0.  0.
         25    1    1    2    0    0 -0.18343210696E+02 -0.19899470800E+02  0.10181335498E+03  0.15968225189E+03  0.12000000000E+03 0.  0.
<mgrwt>
<rscale>  0 0.26370508E+03</rscale>
<asrwt>0</asrwt>
<pdfrwt beam="1">  1        1 0.13909963E-01 0.26370508E+03</pdfrwt>
<pdfrwt beam="2">  1       -1 0.29581781E-01 0.26370508E+03</pdfrwt>
<totfact> 0.42772344E+03</totfact>
</mgrwt>
</event>
<event>
 4    1  0.1726503E-004  0.2572486E+03  0.7818608E-02  0.1108808E+00
         -2   -1    0    0    0  501 -0.00000000000E+00  0.00000000000E+00  0.44183506207E+02  0.44183506207E+02  0.00000000000E+00 0.  1.
          2   -1    0    0  501    0  0.00000000000E+00 -0.00000000000E+00 -0.37444313577E+03  0.37444313577E+03  0.00000000000E+00 0.  1.
         25    1    1    2    0    0 -0.39714719134E+02 -0.12589119365E+02 -0.13224073837E+03  0.18336673016E+03  0.12000000000E+03 0.  0.
         25    1    1    2    0    0  0.39714719134E+02  0.12589119365E+02 -0.19801889119E+03  0.23525991182E+03  0.12000000000E+03 0.  0.
<mgrwt>
<rscale>  0 0.25724860E+03</rscale>
<asrwt>0</asrwt>
<pdfrwt beam="1">  1        2 0.57606637E-01 0.25724860E+03</pdfrwt>
<pdfrwt beam="2">  1       -2 0.67974624E-02 0.25724860E+03</pdfrwt>
<totfact> 0.10354224E+04</totfact>
</mgrwt>
</event>
<event>
 4    1  0.1726503E-004  0.2617360E+03  0.7818608E-02  0.1106105E+00
          2   -1    0    0  501    0  0.00000000000E+00  0.00000000000E+00  0.15269035499E+04  0.15269035499E+04  0.00000000000E+00 0.  1.
         -2   -1    0    0    0  501 -0.00000000000E+00 -0.00000000000E+00 -0.11216450972E+02  0.11216450972E+02  0.00000000000E+00 0.  1.
         25    1    1    2    0    0 -0.52036175470E+02 -0.87538418200E+00  0.78271274763E+03  0.79356649070E+03  0.12000000000E+03 0.  0.
         25    1    1    2    0    0  0.52036175470E+02  0.87538418200E+00  0.73297435134E+03  0.74455351021E+03  0.12000000000E+03 0.  0.
<mgrwt>
<rscale>  0 0.26173604E+03</rscale>
<asrwt>0</asrwt>
<pdfrwt beam="1">  1        2 0.23490807E+00 0.26173604E+03</pdfrwt>
<pdfrwt beam="2">  1       -2 0.17256091E-02 0.26173604E+03</pdfrwt>
<totfact> 0.12659440E+04</totfact>
</mgrwt>
</event>
<event>
 4    1  0.1726503E-004  0.2618970E+03  0.7818608E-02  0.1106009E+00
         -3   -1    0    0    0  501 -0.00000000000E+00  0.00000000000E+00  0.22310506924E+04  0.22310506924E+04  0.00000000000E+00 0. -1.
          3   -1    0    0  501    0  0.00000000000E+00 -0.00000000000E+00 -0.76858475879E+01  0.76858475879E+01  0.00000000000E+00 0. -1.
         25    1    1    2    0    0  0.44497730216E+02 -0.34286408111E+01  0.87669178936E+03  0.88599113828E+03  0.12000000000E+03 0.  0.
         25    1    1    2    0    0 -0.44497730216E+02  0.34286408111E+01  0.13466730555E+04  0.13527454017E+04  0.12000000000E+03 0.  0.
<mgrwt>
<rscale>  0 0.26189705E+03</rscale>
<asrwt>0</asrwt>
<pdfrwt beam="1">  1        3 0.11824399E-02 0.26189705E+03</pdfrwt>
<pdfrwt beam="2">  1       -3 0.34323805E+00 0.26189705E+03</pdfrwt>
<totfact> 0.13823308E+02</totfact>
</mgrwt>
</event>
<event>
 4    1  0.1726503E-004  0.3339462E+03  0.7818608E-02  0.1069404E+00
          1   -1    0    0  501    0  0.00000000000E+00  0.00000000000E+00  0.40279103823E+03  0.40279103823E+03  0.00000000000E+00 0. -1.
         -1   -1    0    0    0  501 -0.00000000000E+00 -0.00000000000E+00 -0.69217072807E+02  0.69217072807E+02  0.00000000000E+00 0. -1.
         25    1    1    2    0    0  0.10192271580E+03 -0.31747746992E+02  0.23130885001E+03  0.28160245654E+03  0.12000000000E+03 0.  0.
         25    1    1    2    0    0 -0.10192271580E+03  0.31747746992E+02  0.10226511542E+03  0.19040565450E+03  0.12000000000E+03 0.  0.
<mgrwt>
<rscale>  0 0.33394620E+03</rscale>
<asrwt>0</asrwt>
<pdfrwt beam="1">  1        1 0.61967851E-01 0.33394620E+03</pdfrwt>
<pdfrwt beam="2">  1       -1 0.10648781E-01 0.33394620E+03</pdfrwt>
<totfact> 0.33239719E+03</totfact>
</mgrwt>
</event>
<event>
 4    1  0.1726503E-004  0.2648178E+03  0.7818608E-02  0.1104283E+00
         -2   -1    0    0    0  501 -0.00000000000E+00  0.00000000000E+00  0.80438559873E+01  0.80438559873E+01  0.00000000000E+00 0. -1.
          2   -1    0    0  501    0  0.00000000000E+00 -0.00000000000E+00 -0.21795654615E+04  0.21795654615E+04  0.00000000000E+00 0. -1.
         25    1    1    2    0    0 -0.37143757074E+02 -0.66886530054E+01 -0.14271346338E+04  0.14326680215E+04  0.12000000000E+03 0.  0.
         25    1    1    2    0    0  0.37143757074E+02  0.66886530054E+01 -0.74438697176E+03  0.75494129605E+03  0.12000000000E+03 0.  0.
<mgrwt>
<rscale>  0 0.26481775E+03</rscale>
<asrwt>0</asrwt>
<pdfrwt beam="1">  1        2 0.33531745E+00 0.26481775E+03</pdfrwt>
<pdfrwt beam="2">  1       -2 0.12375175E-02 0.26481775E+03</pdfrwt>
<totfact> 0.93277326E+03</totfact>
</mgrwt>
</event>
<event>
 4    1  0.1726503E-004  0.3386995E+03  0.7818608E-02  0.1067351E+00
         -2   -1    0    0    0  501 -0.00000000000E+00  0.00000000000E+00  0.33880357237E+02  0.33880357237E+02  0.00000000000E+00 0.  1.
          2   -1    0    0  501    0  0.00000000000E+00 -0.00000000000E+00 -0.84648852579E+03  0.84648852579E+03  0.00000000000E+00 0.  1.
         25    1    1    2    0    0  0.49672842539E+01 -0.12041422985E+01 -0.71662174911E+03  0.72661740632E+03  0.12000000000E+03 0.  0.
         25    1    1    2    0    0 -0.49672842539E+01  0.12041422985E+01 -0.95986419443E+02  0.15375147671E+03  0.12000000000E+03 0.  0.
<mgrwt>
<rscale>  0 0.33869948E+03</rscale>
<asrwt>0</asrwt>
<pdfrwt beam="1">  1        2 0.13022901E+00 0.33869948E+03</pdfrwt>
<pdfrwt beam="2">  1       -2 0.52123625E-02 0.33869948E+03</pdfrwt>
<totfact> 0.60792622E+03</totfact>
</mgrwt>
</event>
<event>
 4    1  0.1726503E-004  0.3244959E+03  0.7818608E-02  0.1073599E+00
         -2   -1    0    0    0  501 -0.00000000000E+00  0.00000000000E+00  0.13716106191E+02  0.13716106191E+02  0.00000000000E+00 0. -1.
          2   -1    0    0  501    0  0.00000000000E+00 -0.00000000000E+00 -0.19192329064E+04  0.19192329064E+04  0.00000000000E+00 0. -1.
         25    1    1    2    0    0 -0.17980663516E+02  0.10661468490E+03 -0.86155805543E+03  0.87656846747E+03  0.12000000000E+03 0.  0.
         25    1    1    2    0    0  0.17980663516E+02 -0.10661468490E+03 -0.10439587448E+04  0.10563805451E+04  0.12000000000E+03 0.  0.
<mgrwt>
<rscale>  0 0.32449593E+03</rscale>
<asrwt>0</asrwt>
<pdfrwt beam="1">  1        2 0.29526650E+00 0.32449593E+03</pdfrwt>
<pdfrwt beam="2">  1       -2 0.21101709E-02 0.32449593E+03</pdfrwt>
<totfact> 0.58550308E+03</totfact>
</mgrwt>
</event>
<event>
 4    1  0.1726503E-004  0.2518358E+03  0.7818608E-02  0.1112150E+00
          2   -1    0    0  501    0  0.00000000000E+00  0.00000000000E+00  0.35970411981E+03  0.35970411981E+03  0.00000000000E+00 0. -1.
         -2   -1    0    0    0  501 -0.00000000000E+00 -0.00000000000E+00 -0.44078759521E+02  0.44078759521E+02  0.00000000000E+00 0. -1.
         25    1    1    2    0    0 -0.69210391538E+01 -0.27418553234E+02  0.19886721179E+03  0.23398257579E+03  0.12000000000E+03 0.  0.
         25    1    1    2    0    0  0.69210391538E+01  0.27418553234E+02  0.11675814850E+03  0.16980030355E+03  0.12000000000E+03 0.  0.
<mgrwt>
<rscale>  0 0.25183575E+03</rscale>
<asrwt>0</asrwt>
<pdfrwt beam="1">  1        2 0.55339093E-01 0.25183575E+03</pdfrwt>
<pdfrwt beam="2">  1       -2 0.67813478E-02 0.25183575E+03</pdfrwt>
<totfact> 0.10842289E+04</totfact>
</mgrwt>
</event>
<event>
 4    1  0.1726503E-004  0.3253579E+03  0.7818608E-02  0.1073210E+00
         -1   -1    0    0    0  501 -0.00000000000E+00  0.00000000000E+00  0.15610684377E+02  0.15610684377E+02  0.00000000000E+00 0.  1.
          1   -1    0    0  501    0  0.00000000000E+00 -0.00000000000E+00 -0.16952778234E+04  0.16952778234E+04  0.00000000000E+00 0.  1.
         25    1    1    2    0    0 -0.79137780954E+02  0.33677194288E+02 -0.48057866260E+03  0.50274525631E+03  0.12000000000E+03 0.  0.
         25    1    1    2    0    0  0.79137780954E+02 -0.33677194288E+02 -0.11990884764E+04  0.12081432515E+04  0.12000000000E+03 0.  0.
<mgrwt>
<rscale>  0 0.32535794E+03</rscale>
<asrwt>0</asrwt>
<pdfrwt beam="1">  1        1 0.26081207E+00 0.32535794E+03</pdfrwt>
<pdfrwt beam="2">  1       -1 0.24016428E-02 0.32535794E+03</pdfrwt>
<totfact> 0.27887496E+03</totfact>
</mgrwt>
</event>
<event>
 4    1  0.1726503E-004  0.2454396E+03  0.7818608E-02  0.1116221E+00
         -2   -1    0    0    0  501 -0.00000000000E+00  0.00000000000E+00  0.61816810303E+02  0.61816810303E+02  0.00000000000E+00 0.  1.
          2   -1    0    0  501    0  0.00000000000E+00 -0.00000000000E+00 -0.24362556419E+03  0.24362556419E+03  0.00000000000E+00 0.  1.
         25    1    1    2    0    0  0.10781731414E+02 -0.23321857100E+02 -0.90875574202E+02  0.15270404296E+03  0.12000000000E+03 0.  0.
         25    1    1    2    0    0 -0.10781731414E+02  0.23321857100E+02 -0.90933179687E+02  0.15273833153E+03  0.12000000000E+03 0.  0.
<mgrwt>
<rscale>  0 0.24543965E+03</rscale>
<asrwt>0</asrwt>
<pdfrwt beam="1">  1        2 0.37480856E-01 0.24543965E+03</pdfrwt>
<pdfrwt beam="2">  1       -2 0.95102784E-02 0.24543965E+03</pdfrwt>
<totfact> 0.97116027E+03</totfact>
</mgrwt>
</event>
<event>
 4    1  0.1726503E-004  0.4523189E+03  0.7818608E-02  0.1027033E+00
          2   -1    0    0  501    0  0.00000000000E+00  0.00000000000E+00  0.24977410645E+03  0.24977410645E+03  0.00000000000E+00 0. -1.
         -2   -1    0    0    0  501 -0.00000000000E+00 -0.00000000000E+00 -0.20477746362E+03  0.20477746362E+03  0.00000000000E+00 0. -1.
         25    1    1    2    0    0 -0.18441569974E+03  0.50545024892E+02  0.36135792530E+02  0.22862577579E+03  0.12000000000E+03 0.  0.
         25    1    1    2    0    0  0.18441569974E+03 -0.50545024892E+02  0.88608503068E+01  0.22592579428E+03  0.12000000000E+03 0.  0.
<mgrwt>
<rscale>  0 0.45231895E+03</rscale>
<asrwt>0</asrwt>
<pdfrwt beam="1">  1        2 0.38426786E-01 0.45231895E+03</pdfrwt>
<pdfrwt beam="2">  1       -2 0.31504225E-01 0.45231895E+03</pdfrwt>
<totfact> 0.12567747E+03</totfact>
</mgrwt>
</event>
<event>
 4    1  0.1726503E-004  0.3653752E+03  0.7818608E-02  0.1056476E+00
         -1   -1    0    0    0  501 -0.00000000000E+00  0.00000000000E+00  0.17151867538E+02  0.17151867538E+02  0.00000000000E+00 0. -1.
          1   -1    0    0  501    0  0.00000000000E+00 -0.00000000000E+00 -0.19458385224E+04  0.19458385224E+04  0.00000000000E+00 0. -1.
         25    1    1    2    0    0 -0.89748932076E+02 -0.10443945450E+03 -0.94550562964E+03  0.96298669054E+03  0.12000000000E+03 0.  0.
         25    1    1    2    0    0  0.89748932076E+02  0.10443945450E+03 -0.98318102523E+03  0.10000036994E+04  0.12000000000E+03 0.  0.
<mgrwt>
<rscale>  0 0.36537523E+03</rscale>
<asrwt>0</asrwt>
<pdfrwt beam="1">  1        1 0.29935951E+00 0.36537523E+03</pdfrwt>
<pdfrwt beam="2">  1       -1 0.26387511E-02 0.36537523E+03</pdfrwt>
<totfact> 0.16601075E+03</totfact>
</mgrwt>
</event>
<event>
 4    1  0.1726503E-004  0.2853372E+03  0.7818608E-02  0.1092809E+00
          2   -1    0    0  501    0  0.00000000000E+00  0.00000000000E+00  0.16338805056E+04  0.16338805056E+04  0.00000000000E+00 0. -1.
         -2   -1    0    0    0  501 -0.00000000000E+00 -0.00000000000E+00 -0.12457663595E+02  0.12457663595E+02  0.00000000000E+00 0. -1.
         25    1    1    2    0    0 -0.55845224390E+02  0.29033164846E+02  0.10682745783E+04  0.10768343366E+04  0.12000000000E+03 0.  0.
         25    1    1    2    0    0  0.55845224390E+02 -0.29033164846E+02  0.55314826370E+03  0.56950383263E+03  0.12000000000E+03 0.  0.
<mgrwt>
<rscale>  0 0.28533723E+03</rscale>
<asrwt>0</asrwt>
<pdfrwt beam="1">  1        2 0.25136606E+00 0.28533723E+03</pdfrwt>
<pdfrwt beam="2">  1       -2 0.19165649E-02 0.28533723E+03</pdfrwt>
<totfact> 0.95381060E+03</totfact>
</mgrwt>
</event>
<event>
 4    1  0.1726503E-004  0.2923985E+03  0.7818608E-02  0.1089103E+00
         -1   -1    0    0    0  501 -0.00000000000E+00  0.00000000000E+00  0.88119612716E+01  0.88119612716E+01  0.00000000000E+00 0. -1.
          1   -1    0    0  501    0  0.00000000000E+00 -0.00000000000E+00 -0.24255911641E+04  0.24255911641E+04  0.00000000000E+00 0. -1.
         25    1    1    2    0    0 -0.21716944345E+02 -0.68621755113E+02 -0.15609922658E+04  0.15672515512E+04  0.12000000000E+03 0.  0.
         25    1    1    2    0    0  0.21716944345E+02  0.68621755113E+02 -0.85578693699E+03  0.86715157411E+03  0.12000000000E+03 0.  0.
<mgrwt>
<rscale>  0 0.29239846E+03</rscale>
<asrwt>0</asrwt>
<pdfrwt beam="1">  1        1 0.37316812E+00 0.29239846E+03</pdfrwt>
<pdfrwt beam="2">  1       -1 0.13556854E-02 0.29239846E+03</pdfrwt>
<totfact> 0.21465731E+03</totfact>
</mgrwt>
</event>
<event>
 4    1  0.1726503E-004  0.3106409E+03  0.7818608E-02  0.1080039E+00
          1   -1    0    0  501    0  0.00000000000E+00  0.00000000000E+00  0.36752923740E+03  0.36752923740E+03  0.00000000000E+00 0.  1.
         -1   -1    0    0    0  501 -0.00000000000E+00 -0.00000000000E+00 -0.65639527307E+02  0.65639527307E+02  0.00000000000E+00 0.  1.
         25    1    1    2    0    0 -0.81675814810E+02 -0.55192443731E+02  0.14717707947E+03  0.21395849432E+03  0.12000000000E+03 0.  0.
         25    1    1    2    0    0  0.81675814810E+02  0.55192443731E+02  0.15471263063E+03  0.21921027039E+03  0.12000000000E+03 0.  0.
<mgrwt>
<rscale>  0 0.31064092E+03</rscale>
<asrwt>0</asrwt>
<pdfrwt beam="1">  1        1 0.56542958E-01 0.31064092E+03</pdfrwt>
<pdfrwt beam="2">  1       -1 0.10098389E-01 0.31064092E+03</pdfrwt>
<totfact> 0.40549013E+03</totfact>
</mgrwt>
</event>
<event>
 4    1  0.1726503E-004  0.3285582E+03  0.7818608E-02  0.1071777E+00
         -2   -1    0    0    0  501 -0.00000000000E+00  0.00000000000E+00  0.53997987614E+02  0.53997987614E+02  0.00000000000E+00 0.  1.
          2   -1    0    0  501    0  0.00000000000E+00 -0.00000000000E+00 -0.49978948668E+03  0.49978948668E+03  0.00000000000E+00 0.  1.
         25    1    1    2    0    0 -0.10407192124E+03  0.39881621960E+02 -0.20117178572E+03  0.25940623726E+03  0.12000000000E+03 0.  0.
         25    1    1    2    0    0  0.10407192124E+03 -0.39881621960E+02 -0.24461971335E+03  0.29438123704E+03  0.12000000000E+03 0.  0.
<mgrwt>
<rscale>  0 0.32855822E+03</rscale>
<asrwt>0</asrwt>
<pdfrwt beam="1">  1        2 0.76890688E-01 0.32855822E+03</pdfrwt>
<pdfrwt beam="2">  1       -2 0.83073829E-02 0.32855822E+03</pdfrwt>
<totfact> 0.55600160E+03</totfact>
</mgrwt>
</event>
<event>
 4    1  0.1726503E-004  0.3037877E+03  0.7818608E-02  0.1083362E+00
         -1   -1    0    0    0  501 -0.00000000000E+00  0.00000000000E+00  0.24732379696E+03  0.24732379696E+03  0.00000000000E+00 0.  1.
          1   -1    0    0  501    0  0.00000000000E+00 -0.00000000000E+00 -0.93285565685E+02  0.93285565685E+02  0.00000000000E+00 0.  1.
         25    1    1    2    0    0  0.20615571637E+02 -0.68493874226E+02  0.10165295705E+02  0.14007050309E+03  0.12000000000E+03 0.  0.
         25    1    1    2    0    0 -0.20615571637E+02  0.68493874226E+02  0.14387293557E+03  0.20053885955E+03  0.12000000000E+03 0.  0.
<mgrwt>
<rscale>  0 0.30378769E+03</rscale>
<asrwt>0</asrwt>
<pdfrwt beam="1">  1        1 0.14351626E-01 0.30378769E+03</pdfrwt>
<pdfrwt beam="2">  1       -1 0.38049815E-01 0.30378769E+03</pdfrwt>
<totfact> 0.26655912E+03</totfact>
</mgrwt>
</event>
<event>
 4    1  0.1726503E-004  0.3179568E+03  0.7818608E-02  0.1076594E+00
         -1   -1    0    0    0  501 -0.00000000000E+00  0.00000000000E+00  0.46142054004E+02  0.46142054004E+02  0.00000000000E+00 0. -1.
          1   -1    0    0  501    0  0.00000000000E+00 -0.00000000000E+00 -0.54774597427E+03  0.54774597427E+03  0.00000000000E+00 0. -1.
         25    1    1    2    0    0 -0.77181550706E+02 -0.17640968448E+01 -0.38173673297E+03  0.40753286629E+03  0.12000000000E+03 0.  0.
         25    1    1    2    0    0  0.77181550706E+02  0.17640968448E+01 -0.11986718729E+03  0.18635516198E+03  0.12000000000E+03 0.  0.
<mgrwt>
<rscale>  0 0.31795675E+03</rscale>
<asrwt>0</asrwt>
<pdfrwt beam="1">  1        1 0.84268610E-01 0.31795675E+03</pdfrwt>
<pdfrwt beam="2">  1       -1 0.70987777E-02 0.31795675E+03</pdfrwt>
<totfact> 0.41307641E+03</totfact>
</mgrwt>
</event>
<event>
 4    1  0.1726503E-004  0.4554065E+03  0.7818608E-02  0.1026122E+00
          1   -1    0    0  501    0  0.00000000000E+00  0.00000000000E+00  0.19583284180E+04  0.19583284180E+04  0.00000000000E+00 0. -1.
         -1   -1    0    0    0  501 -0.00000000000E+00 -0.00000000000E+00 -0.26476032405E+02  0.26476032405E+02  0.00000000000E+00 0. -1.
         25    1    1    2    0    0  0.15210474267E+03  0.99422828791E+02  0.67590945891E+03  0.71012276986E+03  0.12000000000E+03 0.  0.
         25    1    1    2    0    0 -0.15210474267E+03 -0.99422828791E+02  0.12559429266E+04  0.12746816805E+04  0.12000000000E+03 0.  0.
<mgrwt>
<rscale>  0 0.45540649E+03</rscale>
<asrwt>0</asrwt>
<pdfrwt beam="1">  1        1 0.30128118E+00 0.45540649E+03</pdfrwt>
<pdfrwt beam="2">  1       -1 0.40732373E-02 0.45540649E+03</pdfrwt>
<totfact> 0.84576097E+02</totfact>
</mgrwt>
</event>
<event>
 4    1  0.1726503E-004  0.2519535E+03  0.7818608E-02  0.1112076E+00
          1   -1    0    0  501    0  0.00000000000E+00  0.00000000000E+00  0.57406757434E+03  0.57406757434E+03  0.00000000000E+00 0. -1.
         -1   -1    0    0    0  501 -0.00000000000E+00 -0.00000000000E+00 -0.27645066302E+02  0.27645066302E+02  0.00000000000E+00 0. -1.
         25    1    1    2    0    0 -0.20802083350E+02 -0.30117836002E+02  0.24594764104E+03  0.27609790447E+03  0.12000000000E+03 0.  0.
         25    1    1    2    0    0  0.20802083350E+02  0.30117836002E+02  0.30047486699E+03  0.32561473617E+03  0.12000000000E+03 0.  0.
<mgrwt>
<rscale>  0 0.25195346E+03</rscale>
<asrwt>0</asrwt>
<pdfrwt beam="1">  1        1 0.88318080E-01 0.25195346E+03</pdfrwt>
<pdfrwt beam="2">  1       -1 0.42530875E-02 0.25195346E+03</pdfrwt>
<totfact> 0.83232796E+03</totfact>
</mgrwt>
</event>
<event>
 4    1  0.1726503E-004  0.3185055E+03  0.7818608E-02  0.1076339E+00
          2   -1    0    0  501    0  0.00000000000E+00  0.00000000000E+00  0.19955227242E+03  0.19955227242E+03  0.00000000000E+00 0.  1.
         -2   -1    0    0    0  501 -0.00000000000E+00 -0.00000000000E+00 -0.12709169790E+03  0.12709169790E+03  0.00000000000E+00 0.  1.
         25    1    1    2    0    0  0.24599045835E+01  0.77389204946E+02  0.10850295107E+03  0.17935448298E+03  0.12000000000E+03 0.  0.
         25    1    1    2    0    0 -0.24599045835E+01 -0.77389204946E+02 -0.36042376548E+02  0.14728948734E+03  0.12000000000E+03 0.  0.
<mgrwt>
<rscale>  0 0.31850549E+03</rscale>
<asrwt>0</asrwt>
<pdfrwt beam="1">  1        2 0.30700349E-01 0.31850549E+03</pdfrwt>
<pdfrwt beam="2">  1       -2 0.19552569E-01 0.31850549E+03</pdfrwt>
<totfact> 0.37374936E+03</totfact>
</mgrwt>
</event>
<event>
 4    1  0.1726503E-004  0.2952210E+03  0.7818608E-02  0.1087654E+00
         -1   -1    0    0    0  501 -0.00000000000E+00  0.00000000000E+00  0.21332459134E+02  0.21332459134E+02  0.00000000000E+00 0.  1.
          1   -1    0    0  501    0  0.00000000000E+00 -0.00000000000E+00 -0.10213946778E+04  0.10213946778E+04  0.00000000000E+00 0.  1.
         25    1    1    2    0    0 -0.60843240178E+02  0.55938284240E+02 -0.41660741393E+03  0.44135329257E+03  0.12000000000E+03 0.  0.
         25    1    1    2    0    0  0.60843240178E+02 -0.55938284240E+02 -0.58345480475E+03  0.60137384438E+03  0.12000000000E+03 0.  0.
<mgrwt>
<rscale>  0 0.29522100E+03</rscale>
<asrwt>0</asrwt>
<pdfrwt beam="1">  1        1 0.15713766E+00 0.29522100E+03</pdfrwt>
<pdfrwt beam="2">  1       -1 0.32819164E-02 0.29522100E+03</pdfrwt>
<totfact> 0.50944650E+03</totfact>
</mgrwt>
</event>
<event>
 4    1  0.1726503E-004  0.2545776E+03  0.7818608E-02  0.1110446E+00
         -1   -1    0    0    0  501 -0.00000000000E+00  0.00000000000E+00  0.26581443917E+02  0.26581443917E+02  0.00000000000E+00 0.  1.
          1   -1    0    0  501    0  0.00000000000E+00 -0.00000000000E+00 -0.60953944240E+03  0.60953944240E+03  0.00000000000E+00 0.  1.
         25    1    1    2    0    0 -0.40586380062E+02  0.68627084264E+01 -0.31745708728E+03  0.34186744987E+03  0.12000000000E+03 0.  0.
         25    1    1    2    0    0  0.40586380062E+02 -0.68627084264E+01 -0.26550091120E+03  0.29425343645E+03  0.12000000000E+03 0.  0.
<mgrwt>
<rscale>  0 0.25457760E+03</rscale>
<asrwt>0</asrwt>
<pdfrwt beam="1">  1        1 0.93775295E-01 0.25457760E+03</pdfrwt>
<pdfrwt beam="2">  1       -1 0.40894531E-02 0.25457760E+03</pdfrwt>
<totfact> 0.81254999E+03</totfact>
</mgrwt>
</event>
<event>
 4    1  0.1726503E-004  0.2617837E+03  0.7818608E-02  0.1106076E+00
         -2   -1    0    0    0  501 -0.00000000000E+00  0.00000000000E+00  0.23820812872E+02  0.23820812872E+02  0.00000000000E+00 0. -1.
          2   -1    0    0  501    0  0.00000000000E+00 -0.00000000000E+00 -0.71923128342E+03  0.71923128342E+03  0.00000000000E+00 0. -1.
         25    1    1    2    0    0  0.27305697721E+02  0.42361783923E+02 -0.38709203128E+03  0.40838751517E+03  0.12000000000E+03 0.  0.
         25    1    1    2    0    0 -0.27305697721E+02 -0.42361783923E+02 -0.30831843927E+03  0.33466458112E+03  0.12000000000E+03 0.  0.
<mgrwt>
<rscale>  0 0.26178368E+03</rscale>
<asrwt>0</asrwt>
<pdfrwt beam="1">  1        2 0.11065096E+00 0.26178368E+03</pdfrwt>
<pdfrwt beam="2">  1       -2 0.36647407E-02 0.26178368E+03</pdfrwt>
<totfact> 0.12639816E+04</totfact>
</mgrwt>
</event>
<event>
 4    1  0.1726503E-004  0.2550134E+03  0.7818608E-02  0.1110177E+00
          2   -1    0    0  501    0  0.00000000000E+00  0.00000000000E+00  0.90327557097E+02  0.90327557097E+02  0.00000000000E+00 0.  1.
         -2   -1    0    0    0  501 -0.00000000000E+00 -0.00000000000E+00 -0.17998891943E+03  0.17998891943E+03  0.00000000000E+00 0.  1.
         25    1    1    2    0    0 -0.26832717181E+02 -0.22383712912E+02 -0.71582711548E+02  0.14403162815E+03  0.12000000000E+03 0.  0.
         25    1    1    2    0    0  0.26832717181E+02  0.22383712912E+02 -0.18078650784E+02  0.12628484838E+03  0.12000000000E+03 0.  0.
<mgrwt>
<rscale>  0 0.25501341E+03</rscale>
<asrwt>0</asrwt>
<pdfrwt beam="1">  1        2 0.13896547E-01 0.25501341E+03</pdfrwt>
<pdfrwt beam="2">  1       -2 0.27690603E-01 0.25501341E+03</pdfrwt>
<totfact> 0.50019865E+03</totfact>
</mgrwt>
</event>
<event>
 4    1  0.1726503E-004  0.3180939E+03  0.7818608E-02  0.1076530E+00
         -2   -1    0    0    0  501 -0.00000000000E+00  0.00000000000E+00  0.80467587153E+01  0.80467587153E+01  0.00000000000E+00 0. -1.
          2   -1    0    0  501    0  0.00000000000E+00 -0.00000000000E+00 -0.31436172419E+04  0.31436172419E+04  0.00000000000E+00 0. -1.
         25    1    1    2    0    0 -0.36106422270E+02  0.61213989419E+02 -0.23252818398E+04  0.23294605515E+04  0.12000000000E+03 0.  0.
         25    1    1    2    0    0  0.36106422270E+02 -0.61213989419E+02 -0.81028864332E+03  0.82220344910E+03  0.12000000000E+03 0.  0.
<mgrwt>
<rscale>  0 0.31809388E+03</rscale>
<asrwt>0</asrwt>
<pdfrwt beam="1">  1        2 0.48363271E+00 0.31809388E+03</pdfrwt>
<pdfrwt beam="2">  1       -2 0.12379647E-02 0.31809388E+03</pdfrwt>
<totfact> 0.26555428E+03</totfact>
</mgrwt>
</event>
<event>
 4    1  0.1726503E-004  0.2814892E+03  0.7818608E-02  0.1094878E+00
          2   -1    0    0  501    0  0.00000000000E+00  0.00000000000E+00  0.25835053973E+02  0.25835053973E+02  0.00000000000E+00 0. -1.
         -2   -1    0    0    0  501 -0.00000000000E+00 -0.00000000000E+00 -0.76675076832E+03  0.76675076832E+03  0.00000000000E+00 0. -1.
         25    1    1    2    0    0  0.16543017781E+02 -0.54311747852E+02 -0.23882301688E+03  0.27323958495E+03  0.12000000000E+03 0.  0.
         25    1    1    2    0    0 -0.16543017781E+02  0.54311747852E+02 -0.50209269747E+03  0.51934623734E+03  0.12000000000E+03 0.  0.
<mgrwt>
<rscale>  0 0.28148924E+03</rscale>
<asrwt>0</asrwt>
<pdfrwt beam="1">  1        2 0.39746235E-02 0.28148924E+03</pdfrwt>
<pdfrwt beam="2">  1       -2 0.11796166E+00 0.28148924E+03</pdfrwt>
<totfact> 0.12386045E+03</totfact>
</mgrwt>
</event>
<event>
 4    1  0.1726503E-004  0.4033515E+03  0.7818608E-02  0.1042625E+00
         -1   -1    0    0    0  501 -0.00000000000E+00  0.00000000000E+00  0.13066654763E+03  0.13066654763E+03  0.00000000000E+00 0. -1.
          1   -1    0    0  501    0  0.00000000000E+00 -0.00000000000E+00 -0.31127413911E+03  0.31127413911E+03  0.00000000000E+00 0. -1.
         25    1    1    2    0    0  0.95461046694E+02  0.13099725550E+03 -0.90131459273E+02  0.22089991475E+03  0.12000000000E+03 0.  0.
         25    1    1    2    0    0 -0.95461046694E+02 -0.13099725550E+03 -0.90476132206E+02  0.22104077200E+03  0.12000000000E+03 0.  0.
<mgrwt>
<rscale>  0 0.40335154E+03</rscale>
<asrwt>0</asrwt>
<pdfrwt beam="1">  1        1 0.47888328E-01 0.40335154E+03</pdfrwt>
<pdfrwt beam="2">  1       -1 0.20102546E-01 0.40335154E+03</pdfrwt>
<totfact> 0.16798426E+03</totfact>
</mgrwt>
</event>
<event>
 4    1  0.1726503E-004  0.3222476E+03  0.7818608E-02  0.1074620E+00
         -2   -1    0    0    0  501 -0.00000000000E+00  0.00000000000E+00  0.32266306603E+02  0.32266306603E+02  0.00000000000E+00 0. -1.
          2   -1    0    0  501    0  0.00000000000E+00 -0.00000000000E+00 -0.80458175683E+03  0.80458175683E+03  0.00000000000E+00 0. -1.
         25    1    1    2    0    0 -0.12070434737E+01 -0.10354664566E+03 -0.46131199904E+03  0.48778286689E+03  0.12000000000E+03 0.  0.
         25    1    1    2    0    0  0.12070434737E+01  0.10354664566E+03 -0.31100345119E+03  0.34906519654E+03  0.12000000000E+03 0.  0.
<mgrwt>
<rscale>  0 0.32224762E+03</rscale>
<asrwt>0</asrwt>
<pdfrwt beam="1">  1        2 0.12378180E+00 0.32224762E+03</pdfrwt>
<pdfrwt beam="2">  1       -2 0.49640475E-02 0.32224762E+03</pdfrwt>
<totfact> 0.69893207E+03</totfact>
</mgrwt>
</event>
<event>
 4    1  0.1726503E-004  0.2573108E+03  0.7818608E-02  0.1108770E+00
          2   -1    0    0  501    0  0.00000000000E+00  0.00000000000E+00  0.77611919057E+03  0.77611919057E+03  0.00000000000E+00 0. -1.
         -2   -1    0    0    0  501 -0.00000000000E+00 -0.00000000000E+00 -0.21326889058E+02  0.21326889058E+02  0.00000000000E+00 0. -1.
         25    1    1    2    0    0  0.40126162480E+02  0.19445095675E+02  0.41708315858E+03  0.43628726984E+03  0.12000000000E+03 0.  0.
         25    1    1    2    0    0 -0.40126162480E+02 -0.19445095675E+02  0.33770914294E+03  0.36115880978E+03  0.12000000000E+03 0.  0.
<mgrwt>
<rscale>  0 0.25731077E+03</rscale>
<asrwt>0</asrwt>
<pdfrwt beam="1">  1        2 0.11940293E+00 0.25731077E+03</pdfrwt>
<pdfrwt beam="2">  1       -2 0.32810605E-02 0.25731077E+03</pdfrwt>
<totfact> 0.13559889E+04</totfact>
</mgrwt>
</event>
<event>
 4    1  0.1726503E-004  0.3465591E+03  0.7818608E-02  0.1064036E+00
          2   -1    0    0  501    0  0.00000000000E+00  0.00000000000E+00  0.89112848748E+02  0.89112848748E+02  0.00000000000E+00 0.  1.
         -2   -1    0    0    0  501 -0.00000000000E+00 -0.00000000000E+00 -0.33694130535E+03  0.33694130535E+03  0.00000000000E+00 0.  1.
         25    1    1    2    0    0 -0.20014878921E+02  0.25940677369E+02 -0.27221831558E+03  0.29929304278E+03  0.12000000000E+03 0.  0.
         25    1    1    2    0    0  0.20014878921E+02 -0.25940677369E+02  0.24389858979E+02  0.12676111131E+03  0.12000000000E+03 0.  0.
<mgrwt>
<rscale>  0 0.34655908E+03</rscale>
<asrwt>0</asrwt>
<pdfrwt beam="1">  1        2 0.13709669E-01 0.34655908E+03</pdfrwt>
<pdfrwt beam="2">  1       -2 0.51837124E-01 0.34655908E+03</pdfrwt>
<totfact> 0.15588602E+03</totfact>
</mgrwt>
</event>
<event>
 4    1  0.1726503E-004  0.2922809E+03  0.7818608E-02  0.1089164E+00
         -1   -1    0    0    0  501 -0.00000000000E+00  0.00000000000E+00  0.98367805459E+02  0.98367805459E+02  0.00000000000E+00 0. -1.
          1   -1    0    0  501    0  0.00000000000E+00 -0.00000000000E+00 -0.21711410297E+03  0.21711410297E+03  0.00000000000E+00 0. -1.
         25    1    1    2    0    0 -0.79824652372E+01  0.36539207542E+02 -0.13984448483E+03  0.18803008636E+03  0.12000000000E+03 0.  0.
         25    1    1    2    0    0  0.79824652372E+01 -0.36539207542E+02  0.21098187325E+02  0.12745182206E+03  0.12000000000E+03 0.  0.
<mgrwt>
<rscale>  0 0.29228095E+03</rscale>
<asrwt>0</asrwt>
<pdfrwt beam="1">  1        1 0.33402170E-01 0.29228095E+03</pdfrwt>
<pdfrwt beam="2">  1       -1 0.15133509E-01 0.29228095E+03</pdfrwt>
<totfact> 0.41712530E+03</totfact>
</mgrwt>
</event>
<event>
 4    1  0.1726503E-004  0.2540329E+03  0.7818608E-02  0.1110782E+00
          2   -1    0    0  501    0  0.00000000000E+00  0.00000000000E+00  0.15066372122E+04  0.15066372122E+04  0.00000000000E+00 0. -1.
         -2   -1    0    0    0  501 -0.00000000000E+00 -0.00000000000E+00 -0.10708070382E+02  0.10708070382E+02  0.00000000000E+00 0. -1.
         25    1    1    2    0    0 -0.32878850534E+02  0.11274906391E+01  0.59557776875E+03  0.60843665954E+03  0.12000000000E+03 0.  0.
         25    1    1    2    0    0  0.32878850534E+02 -0.11274906391E+01  0.90035137302E+03  0.90890862299E+03  0.12000000000E+03 0.  0.
<mgrwt>
<rscale>  0 0.25403289E+03</rscale>
<asrwt>0</asrwt>
<pdfrwt beam="1">  1        2 0.23179017E+00 0.25403289E+03</pdfrwt>
<pdfrwt beam="2">  1       -2 0.16473966E-02 0.25403289E+03</pdfrwt>
<totfact> 0.13878762E+04</totfact>
</mgrwt>
</event>
<event>
 4    1  0.1726503E-004  0.2418691E+03  0.7818608E-02  0.1118554E+00
          3   -1    0    0  501    0  0.00000000000E+00  0.00000000000E+00  0.98169684515E+02  0.98169684515E+02  0.00000000000E+00 0. -1.
         -3   -1    0    0    0  501 -0.00000000000E+00 -0.00000000000E+00 -0.14897837227E+03  0.14897837227E+03  0.00000000000E+00 0. -1.
         25    1    1    2    0    0 -0.28340613616E+01 -0.13432327216E+01 -0.10410163255E+02  0.12049152533E+03  0.12000000000E+03 0.  0.
         25    1    1    2    0    0  0.28340613616E+01  0.13432327216E+01 -0.40398524500E+02  0.12665653145E+03  0.12000000000E+03 0.  0.
<mgrwt>
<rscale>  0 0.24186905E+03</rscale>
<asrwt>0</asrwt>
<pdfrwt beam="1">  1        3 0.15103028E-01 0.24186905E+03</pdfrwt>
<pdfrwt beam="2">  1       -3 0.22919750E-01 0.24186905E+03</pdfrwt>
<totfact> 0.16174270E+03</totfact>
</mgrwt>
</event>
<event>
 4    1  0.1726503E-004  0.2457782E+03  0.7818608E-02  0.1116002E+00
          1   -1    0    0  501    0  0.00000000000E+00  0.00000000000E+00  0.12439471482E+04  0.12439471482E+04  0.00000000000E+00 0.  1.
         -1   -1    0    0    0  501 -0.00000000000E+00 -0.00000000000E+00 -0.12140169697E+02  0.12140169697E+02  0.00000000000E+00 0.  1.
         25    1    1    2    0    0  0.21135178160E+02 -0.14594970615E+02  0.58277456316E+03  0.59555511952E+03  0.12000000000E+03 0.  0.
         25    1    1    2    0    0 -0.21135178160E+02  0.14594970615E+02  0.64903241536E+03  0.66053219839E+03  0.12000000000E+03 0.  0.
<mgrwt>
<rscale>  0 0.24577819E+03</rscale>
<asrwt>0</asrwt>
<pdfrwt beam="1">  1        1 0.19137638E+00 0.24577819E+03</pdfrwt>
<pdfrwt beam="2">  1       -1 0.18677194E-02 0.24577819E+03</pdfrwt>
<totfact> 0.80563463E+03</totfact>
</mgrwt>
</event>
<event>
 4    1  0.1726503E-004  0.2914468E+03  0.7818608E-02  0.1089596E+00
          2   -1    0    0  501    0  0.00000000000E+00  0.00000000000E+00  0.98017193591E+03  0.98017193591E+03  0.00000000000E+00 0. -1.
         -2   -1    0    0    0  501 -0.00000000000E+00 -0.00000000000E+00 -0.21664884018E+02  0.21664884018E+02  0.00000000000E+00 0. -1.
         25    1    1    2    0    0 -0.43669842961E+02 -0.57515938038E+02  0.61761601689E+03  0.63329667821E+03  0.12000000000E+03 0.  0.
         25    1    1    2    0    0  0.43669842961E+02  0.57515938038E+02  0.34089103500E+03  0.36854014172E+03  0.12000000000E+03 0.  0.
<mgrwt>
<rscale>  0 0.29144681E+03</rscale>
<asrwt>0</asrwt>
<pdfrwt beam="1">  1        2 0.15079565E+00 0.29144681E+03</pdfrwt>
<pdfrwt beam="2">  1       -2 0.33330598E-02 0.29144681E+03</pdfrwt>
<totfact> 0.97691497E+03</totfact>
</mgrwt>
</event>
<event>
 4    1  0.1726503E-004  0.2712091E+03  0.7818608E-02  0.1100590E+00
         -4   -1    0    0    0  501 -0.00000000000E+00  0.00000000000E+00  0.59163767657E+02  0.59163767657E+02  0.00000000000E+00 0.  1.
          4   -1    0    0  501    0  0.00000000000E+00 -0.00000000000E+00 -0.31080829004E+03  0.31080829004E+03  0.00000000000E+00 0.  1.
         25    1    1    2    0    0 -0.66295156182E+01  0.55439035050E+02 -0.16608578518E+03  0.21237213829E+03  0.12000000000E+03 0.  0.
         25    1    1    2    0    0  0.66295156182E+01 -0.55439035050E+02 -0.85558737209E+02  0.15759991941E+03  0.12000000000E+03 0.  0.
<mgrwt>
<rscale>  0 0.27120907E+03</rscale>
<asrwt>0</asrwt>
<pdfrwt beam="1">  1        4 0.47816660E-01 0.27120907E+03</pdfrwt>
<pdfrwt beam="2">  1       -4 0.91021181E-02 0.27120907E+03</pdfrwt>
<totfact> 0.70730713E+02</totfact>
</mgrwt>
</event>
<event>
 4    1  0.1726503E-004  0.4329057E+03  0.7818608E-02  0.1032946E+00
         -2   -1    0    0    0  501 -0.00000000000E+00  0.00000000000E+00  0.94731422883E+02  0.94731422883E+02  0.00000000000E+00 0.  1.
          2   -1    0    0  501    0  0.00000000000E+00 -0.00000000000E+00 -0.49457546717E+03  0.49457546717E+03  0.00000000000E+00 0.  1.
         25    1    1    2    0    0 -0.11819958126E+03  0.75537049684E+02 -0.35378216345E+03  0.39904737321E+03  0.12000000000E+03 0.  0.
         25    1    1    2    0    0  0.11819958126E+03 -0.75537049684E+02 -0.46061880834E+02  0.19025951685E+03  0.12000000000E+03 0.  0.
<mgrwt>
<rscale>  0 0.43290571E+03</rscale>
<asrwt>0</asrwt>
<pdfrwt beam="1">  1        2 0.76088532E-01 0.43290571E+03</pdfrwt>
<pdfrwt beam="2">  1       -2 0.14574065E-01 0.43290571E+03</pdfrwt>
<totfact> 0.22775088E+03</totfact>
</mgrwt>
</event>
<event>
 4    1  0.1726503E-004  0.2720320E+03  0.7818608E-02  0.1100122E+00
          2   -1    0    0  501    0  0.00000000000E+00  0.00000000000E+00  0.14894666610E+03  0.14894666610E+03  0.00000000000E+00 0.  1.
         -2   -1    0    0    0  501 -0.00000000000E+00 -0.00000000000E+00 -0.12420793590E+03  0.12420793590E+03  0.00000000000E+00 0.  1.
         25    1    1    2    0    0  0.84851411904E+01 -0.61099665695E+02 -0.48826628446E+01  0.13501484054E+03  0.12000000000E+03 0.  0.
         25    1    1    2    0    0 -0.84851411904E+01  0.61099665695E+02  0.29621393049E+02  0.13813976146E+03  0.12000000000E+03 0.  0.
<mgrwt>
<rscale>  0 0.27203204E+03</rscale>
<asrwt>0</asrwt>
<pdfrwt beam="1">  1        2 0.22914872E-01 0.27203204E+03</pdfrwt>
<pdfrwt beam="2">  1       -2 0.19108913E-01 0.27203204E+03</pdfrwt>
<totfact> 0.53576441E+03</totfact>
</mgrwt>
</event>
<event>
 4    1  0.1726503E-004  0.2453338E+03  0.7818608E-02  0.1116290E+00
         -3   -1    0    0    0  501 -0.00000000000E+00  0.00000000000E+00  0.86936634200E+03  0.86936634200E+03  0.00000000000E+00 0. -1.
          3   -1    0    0  501    0  0.00000000000E+00 -0.00000000000E+00 -0.17308200523E+02  0.17308200523E+02  0.00000000000E+00 0. -1.
         25    1    1    2    0    0 -0.16501361644E+02 -0.21692804218E+01  0.35649377757E+03  0.37651668510E+03  0.12000000000E+03 0.  0.
         25    1    1    2    0    0  0.16501361644E+02  0.21692804218E+01  0.49556436390E+03  0.51015785742E+03  0.12000000000E+03 0.  0.
<mgrwt>
<rscale>  0 0.24533379E+03</rscale>
<asrwt>0</asrwt>
<pdfrwt beam="1">  1        3 0.26628008E-02 0.24533379E+03</pdfrwt>
<pdfrwt beam="2">  1       -3 0.13374863E+00 0.24533379E+03</pdfrwt>
<totfact> 0.69966811E+02</totfact>
</mgrwt>
</event>
<event>
 4    1  0.1726503E-004  0.3414267E+03  0.7818608E-02  0.1066190E+00
          1   -1    0    0  501    0  0.00000000000E+00  0.00000000000E+00  0.63148897649E+03  0.63148897649E+03  0.00000000000E+00 0.  1.
         -1   -1    0    0    0  501 -0.00000000000E+00 -0.00000000000E+00 -0.46149731574E+02  0.46149731574E+02  0.00000000000E+00 0.  1.
         25    1    1    2    0    0  0.20862683134E+02  0.11830253187E+03  0.32774408378E+03  0.36911641124E+03  0.12000000000E+03 0.  0.
         25    1    1    2    0    0 -0.20862683134E+02 -0.11830253187E+03  0.25759516114E+03  0.30852229683E+03  0.12000000000E+03 0.  0.
<mgrwt>
<rscale>  0 0.34142669E+03</rscale>
<asrwt>0</asrwt>
<pdfrwt beam="1">  1        1 0.97152144E-01 0.34142669E+03</pdfrwt>
<pdfrwt beam="2">  1       -1 0.70999591E-02 0.34142669E+03</pdfrwt>
<totfact> 0.33921365E+03</totfact>
</mgrwt>
</event>
<event>
 4    1  0.1726503E-004  0.2477581E+03  0.7818608E-02  0.1114730E+00
         -1   -1    0    0    0  501 -0.00000000000E+00  0.00000000000E+00  0.24233062721E+02  0.24233062721E+02  0.00000000000E+00 0. -1.
          1   -1    0    0  501    0  0.00000000000E+00 -0.00000000000E+00 -0.63326792618E+03  0.63326792618E+03  0.00000000000E+00 0. -1.
         25    1    1    2    0    0  0.14246041970E+02  0.27123901602E+02 -0.29731509703E+03  0.32207906276E+03  0.12000000000E+03 0.  0.
         25    1    1    2    0    0 -0.14246041970E+02 -0.27123901602E+02 -0.31171976643E+03  0.33542192613E+03  0.12000000000E+03 0.  0.
<mgrwt>
<rscale>  0 0.24775812E+03</rscale>
<asrwt>0</asrwt>
<pdfrwt beam="1">  1        1 0.97425833E-01 0.24775812E+03</pdfrwt>
<pdfrwt beam="2">  1       -1 0.37281635E-02 0.24775812E+03</pdfrwt>
<totfact> 0.88266208E+03</totfact>
</mgrwt>
</event>
<event>
 4    1  0.1726503E-004  0.2784634E+03  0.7818608E-02  0.1096531E+00
          3   -1    0    0  501    0  0.00000000000E+00  0.00000000000E+00  0.36650404377E+03  0.36650404377E+03  0.00000000000E+00 0.  1.
         -3   -1    0    0    0  501 -0.00000000000E+00 -0.00000000000E+00 -0.52892928021E+02  0.52892928021E+02  0.00000000000E+00 0.  1.
         25    1    1    2    0    0 -0.44619887683E+02 -0.52027219661E+02  0.13125904674E+03  0.19059565397E+03  0.12000000000E+03 0.  0.
         25    1    1    2    0    0  0.44619887683E+02  0.52027219661E+02  0.18235206901E+03  0.22880131782E+03  0.12000000000E+03 0.  0.
<mgrwt>
<rscale>  0 0.27846344E+03</rscale>
<asrwt>0</asrwt>
<pdfrwt beam="1">  1        3 0.56385236E-01 0.27846344E+03</pdfrwt>
<pdfrwt beam="2">  1       -3 0.81373738E-02 0.27846344E+03</pdfrwt>
<totfact> 0.82669286E+02</totfact>
</mgrwt>
</event>
<event>
 4    1  0.1726503E-004  0.2501648E+03  0.7818608E-02  0.1113201E+00
          1   -1    0    0  501    0  0.00000000000E+00  0.00000000000E+00  0.62351971885E+03  0.62351971885E+03  0.00000000000E+00 0. -1.
         -1   -1    0    0    0  501 -0.00000000000E+00 -0.00000000000E+00 -0.25092407726E+02  0.25092407726E+02  0.00000000000E+00 0. -1.
         25    1    1    2    0    0 -0.12102269146E+01  0.34876689447E+02  0.28555238228E+03  0.31170179842E+03  0.12000000000E+03 0.  0.
         25    1    1    2    0    0  0.12102269146E+01 -0.34876689447E+02  0.31287492885E+03  0.33691032816E+03  0.12000000000E+03 0.  0.
<mgrwt>
<rscale>  0 0.25016483E+03</rscale>
<asrwt>0</asrwt>
<pdfrwt beam="1">  1        1 0.95926099E-01 0.25016483E+03</pdfrwt>
<pdfrwt beam="2">  1       -1 0.38603709E-02 0.25016483E+03</pdfrwt>
<totfact> 0.85700391E+03</totfact>
</mgrwt>
</event>
<event>
 4    1  0.1726503E-004  0.2416431E+03  0.7818608E-02  0.1118703E+00
         -1   -1    0    0    0  501 -0.00000000000E+00  0.00000000000E+00  0.13139015741E+02  0.13139015741E+02  0.00000000000E+00 0.  1.
          1   -1    0    0  501    0  0.00000000000E+00 -0.00000000000E+00 -0.11110308183E+04  0.11110308183E+04  0.00000000000E+00 0.  1.
         25    1    1    2    0    0 -0.59278465854E+01 -0.96768509668E+01 -0.58760966080E+03  0.59984489185E+03  0.12000000000E+03 0.  0.
         25    1    1    2    0    0  0.59278465854E+01  0.96768509668E+01 -0.51028214177E+03  0.52432494221E+03  0.12000000000E+03 0.  0.
<mgrwt>
<rscale>  0 0.24164314E+03</rscale>
<asrwt>0</asrwt>
<pdfrwt beam="1">  1        1 0.17092785E+00 0.24164314E+03</pdfrwt>
<pdfrwt beam="2">  1       -1 0.20213866E-02 0.24164314E+03</pdfrwt>
<totfact> 0.88950369E+03</totfact>
</mgrwt>
</event>
<event>
 4    1  0.1726503E-004  0.2670518E+03  0.7818608E-02  0.1102979E+00
         -3   -1    0    0    0  501 -0.00000000000E+00  0.00000000000E+00  0.33144856777E+02  0.33144856777E+02  0.00000000000E+00 0. -1.
          3   -1    0    0  501    0  0.00000000000E+00 -0.00000000000E+00 -0.53791651856E+03  0.53791651856E+03  0.00000000000E+00 0. -1.
         25    1    1    2    0    0 -0.10205704384E+02  0.57614815862E+02 -0.24735149310E+03  0.28108074382E+03  0.12000000000E+03 0.  0.
         25    1    1    2    0    0  0.10205704384E+02 -0.57614815862E+02 -0.25742016868E+03  0.28998063151E+03  0.12000000000E+03 0.  0.
<mgrwt>
<rscale>  0 0.26705180E+03</rscale>
<asrwt>0</asrwt>
<pdfrwt beam="1">  1        3 0.82756387E-01 0.26705180E+03</pdfrwt>
<pdfrwt beam="2">  1       -3 0.50992087E-02 0.26705180E+03</pdfrwt>
<totfact> 0.77543829E+02</totfact>
</mgrwt>
</event>
<event>
 4    1  0.1726503E-004  0.2885794E+03  0.7818608E-02  0.1091093E+00
          1   -1    0    0  501    0  0.00000000000E+00  0.00000000000E+00  0.33482489307E+04  0.33482489307E+04  0.00000000000E+00 0. -1.
         -1   -1    0    0    0  501 -0.00000000000E+00 -0.00000000000E+00 -0.62180324149E+01  0.62180324149E+01  0.00000000000E+00 0. -1.
         25    1    1    2    0    0 -0.77287500987E+02 -0.19475351871E+02  0.15759583926E+04  0.15825288315E+04  0.12000000000E+03 0.  0.
         25    1    1    2    0    0  0.77287500987E+02  0.19475351871E+02  0.17660725057E+04  0.17719381317E+04  0.12000000000E+03 0.  0.
<mgrwt>
<rscale>  0 0.28857942E+03</rscale>
<asrwt>0</asrwt>
<pdfrwt beam="1">  1        1 0.51511378E+00 0.28857942E+03</pdfrwt>
<pdfrwt beam="2">  1       -1 0.95662305E-03 0.28857942E+03</pdfrwt>
<totfact> 0.81498042E+02</totfact>
</mgrwt>
</event>
<event>
 4    1  0.1726503E-004  0.3128687E+03  0.7818608E-02  0.1078979E+00
         -2   -1    0    0    0  501 -0.00000000000E+00  0.00000000000E+00  0.16064727688E+02  0.16064727688E+02  0.00000000000E+00 0.  1.
          2   -1    0    0  501    0  0.00000000000E+00 -0.00000000000E+00 -0.15233188588E+04  0.15233188588E+04  0.00000000000E+00 0.  1.
         25    1    1    2    0    0 -0.38228032948E+02  0.92477284873E+02 -0.79118610288E+03  0.80646691197E+03  0.12000000000E+03 0.  0.
         25    1    1    2    0    0  0.38228032948E+02 -0.92477284873E+02 -0.71606802820E+03  0.73291667448E+03  0.12000000000E+03 0.  0.
<mgrwt>
<rscale>  0 0.31286868E+03</rscale>
<asrwt>0</asrwt>
<pdfrwt beam="1">  1        2 0.23435689E+00 0.31286868E+03</pdfrwt>
<pdfrwt beam="2">  1       -2 0.24714951E-02 0.31286868E+03</pdfrwt>
<totfact> 0.75101742E+03</totfact>
</mgrwt>
</event>
<event>
 4    1  0.1726503E-004  0.3534972E+03  0.7818608E-02  0.1061189E+00
         -1   -1    0    0    0  501 -0.00000000000E+00  0.00000000000E+00  0.10818055992E+03  0.10818055992E+03  0.00000000000E+00 0.  1.
          1   -1    0    0  501    0  0.00000000000E+00 -0.00000000000E+00 -0.28877717308E+03  0.28877717308E+03  0.00000000000E+00 0.  1.
         25    1    1    2    0    0 -0.29334568354E+02  0.12509372955E+03 -0.69864477551E+02  0.18918246033E+03  0.12000000000E+03 0.  0.
         25    1    1    2    0    0  0.29334568354E+02 -0.12509372955E+03 -0.11073213562E+03  0.20777527267E+03  0.12000000000E+03 0.  0.
<mgrwt>
<rscale>  0 0.35349725E+03</rscale>
<asrwt>0</asrwt>
<pdfrwt beam="1">  1        1 0.44427257E-01 0.35349725E+03</pdfrwt>
<pdfrwt beam="2">  1       -1 0.16643163E-01 0.35349725E+03</pdfrwt>
<totfact> 0.25090279E+03</totfact>
</mgrwt>
</event>
<event>
 4    1  0.1726503E-004  0.2624306E+03  0.7818608E-02  0.1105692E+00
          2   -1    0    0  501    0  0.00000000000E+00  0.00000000000E+00  0.82255100629E+03  0.82255100629E+03  0.00000000000E+00 0.  1.
         -2   -1    0    0    0  501 -0.00000000000E+00 -0.00000000000E+00 -0.20931785649E+02  0.20931785649E+02  0.00000000000E+00 0.  1.
         25    1    1    2    0    0 -0.52206094505E+02  0.85389540766E+01  0.38677333362E+03  0.40840176498E+03  0.12000000000E+03 0.  0.
         25    1    1    2    0    0  0.52206094505E+02 -0.85389540766E+01  0.41484588702E+03  0.43508102696E+03  0.12000000000E+03 0.  0.
<mgrwt>
<rscale>  0 0.26243065E+03</rscale>
<asrwt>0</asrwt>
<pdfrwt beam="1">  1        2 0.12654628E+00 0.26243065E+03</pdfrwt>
<pdfrwt beam="2">  1       -2 0.32202754E-02 0.26243065E+03</pdfrwt>
<totfact> 0.12961539E+04</totfact>
</mgrwt>
</event>
<event>
 4    1  0.1726503E-004  0.2759652E+03  0.7818608E-02  0.1097913E+00
          2   -1    0    0  501    0  0.00000000000E+00  0.00000000000E+00  0.12792004115E+04  0.12792004115E+04  0.00000000000E+00 0. -1.
         -2   -1    0    0    0  501 -0.00000000000E+00 -0.00000000000E+00 -0.14883668700E+02  0.14883668700E+02  0.00000000000E+00 0. -1.
         25    1    1    2    0    0 -0.39976510847E+02 -0.47603929489E+02  0.50161881431E+03  0.51950523615E+03  0.12000000000E+03 0.  0.
         25    1    1    2    0    0  0.39976510847E+02  0.47603929489E+02  0.76269792854E+03  0.77457884409E+03  0.12000000000E+03 0.  0.
<mgrwt>
<rscale>  0 0.27596518E+03</rscale>
<asrwt>0</asrwt>
<pdfrwt beam="1">  1        2 0.19679998E+00 0.27596518E+03</pdfrwt>
<pdfrwt beam="2">  1       -2 0.22897962E-02 0.27596518E+03</pdfrwt>
<totfact> 0.11399130E+04</totfact>
</mgrwt>
</event>
<event>
 4    1  0.1726503E-004  0.4321646E+03  0.7818608E-02  0.1033178E+00
         -2   -1    0    0    0  501 -0.00000000000E+00  0.00000000000E+00  0.64536169085E+02  0.64536169085E+02  0.00000000000E+00 0. -1.
          2   -1    0    0  501    0  0.00000000000E+00 -0.00000000000E+00 -0.72349451850E+03  0.72349451850E+03  0.00000000000E+00 0. -1.
         25    1    1    2    0    0 -0.11820405961E+03  0.11786961879E+03 -0.20816671540E+03  0.29257277410E+03  0.12000000000E+03 0.  0.
         25    1    1    2    0    0  0.11820405961E+03 -0.11786961879E+03 -0.45079163401E+03  0.49545791348E+03  0.12000000000E+03 0.  0.
<mgrwt>
<rscale>  0 0.43216462E+03</rscale>
<asrwt>0</asrwt>
<pdfrwt beam="1">  1        2 0.11130685E+00 0.43216462E+03</pdfrwt>
<pdfrwt beam="2">  1       -2 0.99286409E-02 0.43216462E+03</pdfrwt>
<totfact> 0.27168651E+03</totfact>
</mgrwt>
</event>
<event>
 4    1  0.1726503E-004  0.2430686E+03  0.7818608E-02  0.1117765E+00
          1   -1    0    0  501    0  0.00000000000E+00  0.00000000000E+00  0.79688474328E+02  0.79688474328E+02  0.00000000000E+00 0.  1.
         -1   -1    0    0    0  501 -0.00000000000E+00 -0.00000000000E+00 -0.18535410332E+03  0.18535410332E+03  0.00000000000E+00 0.  1.
         25    1    1    2    0    0 -0.13139541356E+02  0.46687181365E+01 -0.38361189431E+02  0.12675182575E+03  0.12000000000E+03 0.  0.
         25    1    1    2    0    0  0.13139541356E+02 -0.46687181365E+01 -0.67304439559E+02  0.13829075190E+03  0.12000000000E+03 0.  0.
<mgrwt>
<rscale>  0 0.24306860E+03</rscale>
<asrwt>0</asrwt>
<pdfrwt beam="1">  1        1 0.12259765E-01 0.24306860E+03</pdfrwt>
<pdfrwt beam="2">  1       -1 0.28516016E-01 0.24306860E+03</pdfrwt>
<totfact> 0.53615833E+03</totfact>
</mgrwt>
</event>
<event>
 4    1  0.1726503E-004  0.2448786E+03  0.7818608E-02  0.1116585E+00
          2   -1    0    0  501    0  0.00000000000E+00  0.00000000000E+00  0.33209074137E+04  0.33209074137E+04  0.00000000000E+00 0. -1.
         -2   -1    0    0    0  501 -0.00000000000E+00 -0.00000000000E+00 -0.45142417970E+01  0.45142417970E+01  0.00000000000E+00 0. -1.
         25    1    1    2    0    0  0.16734002068E+02  0.19562268899E+01  0.14200543485E+04  0.14252151438E+04  0.12000000000E+03 0.  0.
         25    1    1    2    0    0 -0.16734002068E+02 -0.19562268899E+01  0.18963388234E+04  0.19002065117E+04  0.12000000000E+03 0.  0.
<mgrwt>
<rscale>  0 0.24487857E+03</rscale>
<asrwt>0</asrwt>
<pdfrwt beam="1">  1        2 0.51090688E+00 0.24487857E+03</pdfrwt>
<pdfrwt beam="2">  1       -2 0.69450139E-03 0.24487857E+03</pdfrwt>
<totfact> 0.48035119E+03</totfact>
</mgrwt>
</event>
<event>
 4    1  0.1726503E-004  0.2994862E+03  0.7818608E-02  0.1085498E+00
         -2   -1    0    0    0  501 -0.00000000000E+00  0.00000000000E+00  0.16192464442E+02  0.16192464442E+02  0.00000000000E+00 0.  1.
          2   -1    0    0  501    0  0.00000000000E+00 -0.00000000000E+00 -0.13847792515E+04  0.13847792515E+04  0.00000000000E+00 0.  1.
         25    1    1    2    0    0  0.11252826981E+02 -0.40815974044E+02 -0.31505126414E+03  0.33977914722E+03  0.12000000000E+03 0.  0.
         25    1    1    2    0    0 -0.11252826981E+02  0.40815974044E+02 -0.10535355229E+04  0.10611925687E+04  0.12000000000E+03 0.  0.
<mgrwt>
<rscale>  0 0.29948615E+03</rscale>
<asrwt>0</asrwt>
<pdfrwt beam="1">  1        2 0.21304290E+00 0.29948615E+03</pdfrwt>
<pdfrwt beam="2">  1       -2 0.24911491E-02 0.29948615E+03</pdfrwt>
<totfact> 0.88156076E+03</totfact>
</mgrwt>
</event>
<event>
 4    1  0.1726503E-004  0.2558186E+03  0.7818608E-02  0.1109682E+00
          2   -1    0    0  501    0  0.00000000000E+00  0.00000000000E+00  0.19544004559E+04  0.19544004559E+04  0.00000000000E+00 0.  1.
         -2   -1    0    0    0  501 -0.00000000000E+00 -0.00000000000E+00 -0.83712598426E+01  0.83712598426E+01  0.00000000000E+00 0.  1.
         25    1    1    2    0    0 -0.20287724777E+02  0.23333556088E+02  0.12162159919E+04  0.12225127343E+04  0.12000000000E+03 0.  0.
         25    1    1    2    0    0  0.20287724777E+02 -0.23333556088E+02  0.72981320410E+03  0.74025898137E+03  0.12000000000E+03 0.  0.
<mgrwt>
<rscale>  0 0.25581864E+03</rscale>
<asrwt>0</asrwt>
<pdfrwt beam="1">  1        2 0.30067663E+00 0.25581864E+03</pdfrwt>
<pdfrwt beam="2">  1       -2 0.12878877E-02 0.25581864E+03</pdfrwt>
<totfact> 0.11560097E+04</totfact>
</mgrwt>
</event>
<event>
 4    1  0.1726503E-004  0.3562563E+03  0.7818608E-02  0.1060076E+00
         -2   -1    0    0    0  501 -0.00000000000E+00  0.00000000000E+00  0.31514507901E+02  0.31514507901E+02  0.00000000000E+00 0.  1.
          2   -1    0    0  501    0  0.00000000000E+00 -0.00000000000E+00 -0.10068266594E+04  0.10068266594E+04  0.00000000000E+00 0.  1.
         25    1    1    2    0    0 -0.29514063380E+02  0.10213216626E+03 -0.71393766322E+03  0.73171650678E+03  0.12000000000E+03 0.  0.
         25    1    1    2    0    0  0.29514063380E+02 -0.10213216626E+03 -0.26137448831E+03  0.30662466056E+03  0.12000000000E+03 0.  0.
<mgrwt>
<rscale>  0 0.35625635E+03</rscale>
<asrwt>0</asrwt>
<pdfrwt beam="1">  1        2 0.15489641E+00 0.35625635E+03</pdfrwt>
<pdfrwt beam="2">  1       -2 0.48483857E-02 0.35625635E+03</pdfrwt>
<totfact> 0.53589676E+03</totfact>
</mgrwt>
</event>
<event>
 4    1  0.1726503E-004  0.2512821E+03  0.7818608E-02  0.1112497E+00
          2   -1    0    0  501    0  0.00000000000E+00  0.00000000000E+00  0.12634236842E+04  0.12634236842E+04  0.00000000000E+00 0. -1.
         -2   -1    0    0    0  501 -0.00000000000E+00 -0.00000000000E+00 -0.12494357485E+02  0.12494357485E+02  0.00000000000E+00 0. -1.
         25    1    1    2    0    0 -0.23095669175E+02  0.27671791612E+02  0.57823198146E+03  0.59165138585E+03  0.12000000000E+03 0.  0.
         25    1    1    2    0    0  0.23095669175E+02 -0.27671791612E+02  0.67269734522E+03  0.68426665581E+03  0.12000000000E+03 0.  0.
<mgrwt>
<rscale>  0 0.25128205E+03</rscale>
<asrwt>0</asrwt>
<pdfrwt beam="1">  1        2 0.19437277E+00 0.25128205E+03</pdfrwt>
<pdfrwt beam="2">  1       -2 0.19222098E-02 0.25128205E+03</pdfrwt>
<totfact> 0.15006113E+04</totfact>
</mgrwt>
</event>
<event>
 4    1  0.1726503E-004  0.2470132E+03  0.7818608E-02  0.1115207E+00
          1   -1    0    0  501    0  0.00000000000E+00  0.00000000000E+00  0.36280341902E+03  0.36280341902E+03  0.00000000000E+00 0. -1.
         -1   -1    0    0    0  501 -0.00000000000E+00 -0.00000000000E+00 -0.42044479928E+02  0.42044479928E+02  0.00000000000E+00 0. -1.
         25    1    1    2    0    0  0.15257598679E+02 -0.10204015634E+02  0.12311437654E+03  0.17289900509E+03  0.12000000000E+03 0.  0.
         25    1    1    2    0    0 -0.15257598679E+02  0.10204015634E+02  0.19764456256E+03  0.23194889386E+03  0.12000000000E+03 0.  0.
<mgrwt>
<rscale>  0 0.24701321E+03</rscale>
<asrwt>0</asrwt>
<pdfrwt beam="1">  1        1 0.55815908E-01 0.24701321E+03</pdfrwt>
<pdfrwt beam="2">  1       -1 0.64683818E-02 0.24701321E+03</pdfrwt>
<totfact> 0.80886264E+03</totfact>
</mgrwt>
</event>
<event>
 4    1  0.1726503E-004  0.2881490E+03  0.7818608E-02  0.1091320E+00
          2   -1    0    0  501    0  0.00000000000E+00  0.00000000000E+00  0.19714355648E+04  0.19714355648E+04  0.00000000000E+00 0.  1.
         -2   -1    0    0    0  501 -0.00000000000E+00 -0.00000000000E+00 -0.10529110041E+02  0.10529110041E+02  0.00000000000E+00 0.  1.
         25    1    1    2    0    0  0.48583733939E+01 -0.70222435727E+02  0.12380593559E+04  0.12458514209E+04  0.12000000000E+03 0.  0.
         25    1    1    2    0    0 -0.48583733939E+01  0.70222435727E+02  0.72284709888E+03  0.73611325394E+03  0.12000000000E+03 0.  0.
<mgrwt>
<rscale>  0 0.28814900E+03</rscale>
<asrwt>0</asrwt>
<pdfrwt beam="1">  1        2 0.30329749E+00 0.28814900E+03</pdfrwt>
<pdfrwt beam="2">  1       -2 0.16198647E-02 0.28814900E+03</pdfrwt>
<totfact> 0.81108409E+03</totfact>
</mgrwt>
</event>
<event>
 4    1  0.1726503E-004  0.2752595E+03  0.7818608E-02  0.1098307E+00
         -2   -1    0    0    0  501 -0.00000000000E+00  0.00000000000E+00  0.17853635147E+02  0.17853635147E+02  0.00000000000E+00 0. -1.
          2   -1    0    0  501    0  0.00000000000E+00 -0.00000000000E+00 -0.10609571260E+04  0.10609571260E+04  0.00000000000E+00 0. -1.
         25    1    1    2    0    0  0.39747837627E+02  0.44038014318E+02 -0.39621510916E+03  0.41821722828E+03  0.12000000000E+03 0.  0.
         25    1    1    2    0    0 -0.39747837627E+02 -0.44038014318E+02 -0.64688838171E+03  0.66059353289E+03  0.12000000000E+03 0.  0.
<mgrwt>
<rscale>  0 0.27525945E+03</rscale>
<asrwt>0</asrwt>
<pdfrwt beam="1">  1        2 0.16322417E+00 0.27525945E+03</pdfrwt>
<pdfrwt beam="2">  1       -2 0.27467132E-02 0.27525945E+03</pdfrwt>
<totfact> 0.11621481E+04</totfact>
</mgrwt>
</event>
<event>
 4    1  0.1726503E-004  0.3399098E+03  0.7818608E-02  0.1066834E+00
          2   -1    0    0  501    0  0.00000000000E+00  0.00000000000E+00  0.45504172210E+03  0.45504172210E+03  0.00000000000E+00 0.  1.
         -2   -1    0    0    0  501 -0.00000000000E+00 -0.00000000000E+00 -0.63476984682E+02  0.63476984682E+02  0.00000000000E+00 0.  1.
         25    1    1    2    0    0 -0.12672680333E+02  0.11930185322E+03  0.21034610663E+03  0.27025730996E+03  0.12000000000E+03 0.  0.
         25    1    1    2    0    0  0.12672680333E+02 -0.11930185322E+03  0.18121863079E+03  0.24826139683E+03  0.12000000000E+03 0.  0.
<mgrwt>
<rscale>  0 0.33990985E+03</rscale>
<asrwt>0</asrwt>
<pdfrwt beam="1">  1        2 0.70006417E-01 0.33990985E+03</pdfrwt>
<pdfrwt beam="2">  1       -2 0.97656902E-02 0.33990985E+03</pdfrwt>
<totfact> 0.47834563E+03</totfact>
</mgrwt>
</event>
<event>
 4    1  0.1726503E-004  0.2772994E+03  0.7818608E-02  0.1097173E+00
          3   -1    0    0  501    0  0.00000000000E+00  0.00000000000E+00  0.48044954517E+02  0.48044954517E+02  0.00000000000E+00 0.  1.
         -3   -1    0    0    0  501 -0.00000000000E+00 -0.00000000000E+00 -0.40011977499E+03  0.40011977499E+03  0.00000000000E+00 0.  1.
         25    1    1    2    0    0 -0.56014926918E+02  0.20084328245E+02 -0.11815472965E+03  0.17861016885E+03  0.12000000000E+03 0.  0.
         25    1    1    2    0    0  0.56014926918E+02 -0.20084328245E+02 -0.23392009082E+03  0.26955456065E+03  0.12000000000E+03 0.  0.
<mgrwt>
<rscale>  0 0.27729938E+03</rscale>
<asrwt>0</asrwt>
<pdfrwt beam="1">  1        3 0.73915313E-02 0.27729938E+03</pdfrwt>
<pdfrwt beam="2">  1       -3 0.61556890E-01 0.27729938E+03</pdfrwt>
<totfact> 0.80580349E+02</totfact>
</mgrwt>
</event>
<event>
 4    1  0.1726503E-004  0.3233187E+03  0.7818608E-02  0.1074132E+00
         -2   -1    0    0    0  501 -0.00000000000E+00  0.00000000000E+00  0.38096295236E+02  0.38096295236E+02  0.00000000000E+00 0. -1.
          2   -1    0    0  501    0  0.00000000000E+00 -0.00000000000E+00 -0.68599189661E+03  0.68599189661E+03  0.00000000000E+00 0. -1.
         25    1    1    2    0    0  0.53744016263E+02 -0.72051411171E+02 -0.45932340263E+03  0.48317472341E+03  0.12000000000E+03 0.  0.
         25    1    1    2    0    0 -0.53744016263E+02  0.72051411171E+02 -0.18857219874E+03  0.24091346844E+03  0.12000000000E+03 0.  0.
<mgrwt>
<rscale>  0 0.32331873E+03</rscale>
<asrwt>0</asrwt>
<pdfrwt beam="1">  1        2 0.10553721E+00 0.32331873E+03</pdfrwt>
<pdfrwt beam="2">  1       -2 0.58609689E-02 0.32331873E+03</pdfrwt>
<totfact> 0.66119622E+03</totfact>
</mgrwt>
</event>
<event>
 4    1  0.1726503E-004  0.3559276E+03  0.7818608E-02  0.1060208E+00
          2   -1    0    0  501    0  0.00000000000E+00  0.00000000000E+00  0.10399188704E+04  0.10399188704E+04  0.00000000000E+00 0.  1.
         -2   -1    0    0    0  501 -0.00000000000E+00 -0.00000000000E+00 -0.30455377565E+02  0.30455377565E+02  0.00000000000E+00 0.  1.
         25    1    1    2    0    0 -0.73023947016E+02 -0.10974896479E+02  0.83165752850E+03  0.84350885585E+03  0.12000000000E+03 0.  0.
         25    1    1    2    0    0  0.73023947016E+02  0.10974896479E+02  0.17780596439E+03  0.22686539217E+03  0.12000000000E+03 0.  0.
<mgrwt>
<rscale>  0 0.35592764E+03</rscale>
<asrwt>0</asrwt>
<pdfrwt beam="1">  1        2 0.15998749E+00 0.35592764E+03</pdfrwt>
<pdfrwt beam="2">  1       -2 0.46854435E-02 0.35592764E+03</pdfrwt>
<totfact> 0.53884989E+03</totfact>
</mgrwt>
</event>
<event>
 4    1  0.1726503E-004  0.3412979E+03  0.7818608E-02  0.1066244E+00
         -1   -1    0    0    0  501 -0.00000000000E+00  0.00000000000E+00  0.27127193463E+02  0.27127193463E+02  0.00000000000E+00 0. -1.
          1   -1    0    0  501    0  0.00000000000E+00 -0.00000000000E+00 -0.10735009276E+04  0.10735009276E+04  0.00000000000E+00 0. -1.
         25    1    1    2    0    0 -0.10331767865E+03 -0.17491894223E+02 -0.72041786695E+03  0.73782275115E+03  0.12000000000E+03 0.  0.
         25    1    1    2    0    0  0.10331767865E+03  0.17491894223E+02 -0.32595586716E+03  0.36280536989E+03  0.12000000000E+03 0.  0.
<mgrwt>
<rscale>  0 0.34129792E+03</rscale>
<asrwt>0</asrwt>
<pdfrwt beam="1">  1        1 0.16515397E+00 0.34129792E+03</pdfrwt>
<pdfrwt beam="2">  1       -1 0.41734147E-02 0.34129792E+03</pdfrwt>
<totfact> 0.32637535E+03</totfact>
</mgrwt>
</event>
<event>
 4    1  0.1726503E-004  0.2577311E+03  0.7818608E-02  0.1108514E+00
         -2   -1    0    0    0  501 -0.00000000000E+00  0.00000000000E+00  0.43326384279E+02  0.43326384279E+02  0.00000000000E+00 0.  1.
          2   -1    0    0  501    0  0.00000000000E+00 -0.00000000000E+00 -0.38328432930E+03  0.38328432930E+03  0.00000000000E+00 0.  1.
         25    1    1    2    0    0  0.15070356831E+02  0.77125257713E+00 -0.96350547993E+02  0.15463226890E+03  0.12000000000E+03 0.  0.
         25    1    1    2    0    0 -0.15070356831E+02 -0.77125257713E+00 -0.24360739703E+03  0.27197844468E+03  0.12000000000E+03 0.  0.
<mgrwt>
<rscale>  0 0.25773105E+03</rscale>
<asrwt>0</asrwt>
<pdfrwt beam="1">  1        2 0.58966824E-01 0.25773105E+03</pdfrwt>
<pdfrwt beam="2">  1       -2 0.66655971E-02 0.25773105E+03</pdfrwt>
<totfact> 0.10407089E+04</totfact>
</mgrwt>
</event>
<event>
 4    1  0.1726503E-004  0.2561877E+03  0.7818608E-02  0.1109456E+00
          1   -1    0    0  501    0  0.00000000000E+00  0.00000000000E+00  0.10652776795E+04  0.10652776795E+04  0.00000000000E+00 0.  1.
         -1   -1    0    0    0  501 -0.00000000000E+00 -0.00000000000E+00 -0.15402587277E+02  0.15402587277E+02  0.00000000000E+00 0.  1.
         25    1    1    2    0    0  0.89386847939E+01  0.11892039062E+02  0.70324365395E+03  0.71356356234E+03  0.12000000000E+03 0.  0.
         25    1    1    2    0    0 -0.89386847939E+01 -0.11892039062E+02  0.34663143831E+03  0.36711670447E+03  0.12000000000E+03 0.  0.
<mgrwt>
<rscale>  0 0.25618768E+03</rscale>
<asrwt>0</asrwt>
<pdfrwt beam="1">  1        1 0.16388882E+00 0.25618768E+03</pdfrwt>
<pdfrwt beam="2">  1       -1 0.23696297E-02 0.25618768E+03</pdfrwt>
<totfact> 0.76199563E+03</totfact>
</mgrwt>
</event>
<event>
 4    1  0.1726503E-004  0.2480714E+03  0.7818608E-02  0.1114530E+00
          1   -1    0    0  501    0  0.00000000000E+00  0.00000000000E+00  0.18855634543E+04  0.18855634543E+04  0.00000000000E+00 0. -1.
         -1   -1    0    0    0  501 -0.00000000000E+00 -0.00000000000E+00 -0.81592853374E+01  0.81592853374E+01  0.00000000000E+00 0. -1.
         25    1    1    2    0    0 -0.30862846966E+02 -0.46794223630E+01  0.91403902626E+03  0.92241083788E+03  0.12000000000E+03 0.  0.
         25    1    1    2    0    0  0.30862846966E+02  0.46794223630E+01  0.96336514270E+03  0.97131190175E+03  0.12000000000E+03 0.  0.
<mgrwt>
<rscale>  0 0.24807136E+03</rscale>
<asrwt>0</asrwt>
<pdfrwt beam="1">  1        1 0.29008634E+00 0.24807136E+03</pdfrwt>
<pdfrwt beam="2">  1       -1 0.12552762E-02 0.24807136E+03</pdfrwt>
<totfact> 0.54087784E+03</totfact>
</mgrwt>
</event>
<event>
 4    1  0.1726503E-004  0.4517966E+03  0.7818608E-02  0.1027188E+00
         -2   -1    0    0    0  501 -0.00000000000E+00  0.00000000000E+00  0.64906014752E+03  0.64906014752E+03  0.00000000000E+00 0. -1.
          2   -1    0    0  501    0  0.00000000000E+00 -0.00000000000E+00 -0.78621433305E+02  0.78621433305E+02  0.00000000000E+00 0. -1.
         25    1    1    2    0    0  0.34043680882E+02  0.18742633511E+03  0.31502428086E+03  0.38720524381E+03  0.12000000000E+03 0.  0.
         25    1    1    2    0    0 -0.34043680882E+02 -0.18742633511E+03  0.25541443335E+03  0.34047633701E+03  0.12000000000E+03 0.  0.
<mgrwt>
<rscale>  0 0.45179659E+03</rscale>
<asrwt>0</asrwt>
<pdfrwt beam="1">  1        2 0.12095606E-01 0.45179659E+03</pdfrwt>
<pdfrwt beam="2">  1       -2 0.99855404E-01 0.45179659E+03</pdfrwt>
<totfact> 0.43753093E+02</totfact>
</mgrwt>
</event>
<event>
 4    1  0.1726503E-004  0.3749026E+03  0.7818608E-02  0.1052834E+00
         -1   -1    0    0    0  501 -0.00000000000E+00  0.00000000000E+00  0.20265830609E+02  0.20265830609E+02  0.00000000000E+00 0.  1.
          1   -1    0    0  501    0  0.00000000000E+00 -0.00000000000E+00 -0.17338542596E+04  0.17338542596E+04  0.00000000000E+00 0.  1.
         25    1    1    2    0    0  0.20797328062E+02  0.13587585206E+03 -0.10576708831E+04  0.10732951472E+04  0.12000000000E+03 0.  0.
         25    1    1    2    0    0 -0.20797328062E+02 -0.13587585206E+03 -0.65591754597E+03  0.68082494310E+03  0.12000000000E+03 0.  0.
<mgrwt>
<rscale>  0 0.37490264E+03</rscale>
<asrwt>0</asrwt>
<pdfrwt beam="1">  1        1 0.26674688E+00 0.37490264E+03</pdfrwt>
<pdfrwt beam="2">  1       -1 0.31178193E-02 0.37490264E+03</pdfrwt>
<totfact> 0.17834557E+03</totfact>
</mgrwt>
</event>
<event>
 4    1  0.1726503E-004  0.2931484E+03  0.7818608E-02  0.1088717E+00
         -4   -1    0    0    0  501 -0.00000000000E+00  0.00000000000E+00  0.66462662119E+03  0.66462662119E+03  0.00000000000E+00 0. -1.
          4   -1    0    0  501    0  0.00000000000E+00 -0.00000000000E+00 -0.32324903564E+02  0.32324903564E+02  0.00000000000E+00 0. -1.
         25    1    1    2    0    0  0.79739796782E+02 -0.13797939249E+02  0.26115091616E+03  0.29857766047E+03  0.12000000000E+03 0.  0.
         25    1    1    2    0    0 -0.79739796782E+02  0.13797939249E+02  0.37115080147E+03  0.39837386429E+03  0.12000000000E+03 0.  0.
<mgrwt>
<rscale>  0 0.29314837E+03</rscale>
<asrwt>0</asrwt>
<pdfrwt beam="1">  1        4 0.49730626E-02 0.29314837E+03</pdfrwt>
<pdfrwt beam="2">  1       -4 0.10225024E+00 0.29314837E+03</pdfrwt>
<totfact> 0.36826905E+02</totfact>
</mgrwt>
</event>
<event>
 4    1  0.1726503E-004  0.2688108E+03  0.7818608E-02  0.1101962E+00
          1   -1    0    0  501    0  0.00000000000E+00  0.00000000000E+00  0.12846667008E+03  0.12846667008E+03  0.00000000000E+00 0. -1.
         -1   -1    0    0    0  501 -0.00000000000E+00 -0.00000000000E+00 -0.14061869274E+03  0.14061869274E+03  0.00000000000E+00 0. -1.
         25    1    1    2    0    0  0.23843974298E+02  0.45683892416E+02  0.25725319384E+02  0.13310651823E+03  0.12000000000E+03 0.  0.
         25    1    1    2    0    0 -0.23843974298E+02 -0.45683892416E+02 -0.37877342052E+02  0.13597884460E+03  0.12000000000E+03 0.  0.
<mgrwt>
<rscale>  0 0.26881083E+03</rscale>
<asrwt>0</asrwt>
<pdfrwt beam="1">  1        1 0.19764103E-01 0.26881083E+03</pdfrwt>
<pdfrwt beam="2">  1       -1 0.21633645E-01 0.26881083E+03</pdfrwt>
<totfact> 0.45601147E+03</totfact>
</mgrwt>
</event>
<event>
 4    1  0.1726503E-004  0.4329627E+03  0.7818608E-02  0.1032928E+00
          1   -1    0    0  501    0  0.00000000000E+00  0.00000000000E+00  0.14267897079E+04  0.14267897079E+04  0.00000000000E+00 0.  1.
         -1   -1    0    0    0  501 -0.00000000000E+00 -0.00000000000E+00 -0.32845886655E+02  0.32845886655E+02  0.00000000000E+00 0.  1.
         25    1    1    2    0    0  0.29128193967E+01 -0.12438746900E+03  0.25762570591E+03  0.31024463139E+03  0.12000000000E+03 0.  0.
         25    1    1    2    0    0 -0.29128193967E+01  0.12438746900E+03  0.11363181153E+04  0.11493909632E+04  0.12000000000E+03 0.  0.
<mgrwt>
<rscale>  0 0.43296269E+03</rscale>
<asrwt>0</asrwt>
<pdfrwt beam="1">  1        1 0.21950606E+00 0.43296269E+03</pdfrwt>
<pdfrwt beam="2">  1       -1 0.50532144E-02 0.43296269E+03</pdfrwt>
<totfact> 0.13793634E+03</totfact>
</mgrwt>
</event>
<event>
 4    1  0.1726503E-004  0.6011515E+03  0.7818608E-02  0.9903020E-01
         -1   -1    0    0    0  501 -0.00000000000E+00  0.00000000000E+00  0.46244515526E+02  0.46244515526E+02  0.00000000000E+00 0. -1.
          1   -1    0    0  501    0  0.00000000000E+00 -0.00000000000E+00 -0.19536539491E+04  0.19536539491E+04  0.00000000000E+00 0. -1.
         25    1    1    2    0    0 -0.23720135752E+03 -0.18952806136E+02 -0.14161400789E+04  0.14409984094E+04  0.12000000000E+03 0.  0.
         25    1    1    2    0    0  0.23720135752E+03  0.18952806136E+02 -0.49126935463E+03  0.55890005516E+03  0.12000000000E+03 0.  0.
<mgrwt>
<rscale>  0 0.60115150E+03</rscale>
<asrwt>0</asrwt>
<pdfrwt beam="1">  1        1 0.30056213E+00 0.60115150E+03</pdfrwt>
<pdfrwt beam="2">  1       -1 0.71145411E-02 0.60115150E+03</pdfrwt>
<totfact> 0.35876179E+02</totfact>
</mgrwt>
</event>
<event>
 4    1  0.1726503E-004  0.5226870E+03  0.7818608E-02  0.1008021E+00
         -2   -1    0    0    0  501 -0.00000000000E+00  0.00000000000E+00  0.66840265797E+02  0.66840265797E+02  0.00000000000E+00 0.  1.
          2   -1    0    0  501    0  0.00000000000E+00 -0.00000000000E+00 -0.10218454350E+04  0.10218454350E+04  0.00000000000E+00 0.  1.
         25    1    1    2    0    0  0.24678405370E+02 -0.19411717564E+03 -0.21727030990E+03  0.31606469137E+03  0.12000000000E+03 0.  0.
         25    1    1    2    0    0 -0.24678405370E+02  0.19411717564E+03 -0.73773485931E+03  0.77262100943E+03  0.12000000000E+03 0.  0.
<mgrwt>
<rscale>  0 0.52268698E+03</rscale>
<asrwt>0</asrwt>
<pdfrwt beam="1">  1        2 0.15720698E+00 0.52268698E+03</pdfrwt>
<pdfrwt beam="2">  1       -2 0.10283118E-01 0.52268698E+03</pdfrwt>
<totfact> 0.16116423E+03</totfact>
</mgrwt>
</event>
<event>
 4    1  0.1726503E-004  0.2698831E+03  0.7818608E-02  0.1101347E+00
          2   -1    0    0  501    0  0.00000000000E+00  0.00000000000E+00  0.21687638195E+04  0.21687638195E+04  0.00000000000E+00 0. -1.
         -2   -1    0    0    0  501 -0.00000000000E+00 -0.00000000000E+00 -0.83961325522E+01  0.83961325522E+01  0.00000000000E+00 0. -1.
         25    1    1    2    0    0 -0.24142277167E+00  0.32647916799E+02  0.15027064338E+04  0.15078436825E+04  0.12000000000E+03 0.  0.
         25    1    1    2    0    0  0.24142277167E+00 -0.32647916799E+02  0.65766125309E+03  0.66931626946E+03  0.12000000000E+03 0.  0.
<mgrwt>
<rscale>  0 0.26988315E+03</rscale>
<asrwt>0</asrwt>
<pdfrwt beam="1">  1        2 0.33365553E+00 0.26988315E+03</pdfrwt>
<pdfrwt beam="2">  1       -2 0.12917144E-02 0.26988315E+03</pdfrwt>
<totfact> 0.88805338E+03</totfact>
</mgrwt>
</event>
<event>
 4    1  0.1726503E-004  0.2745709E+03  0.7818608E-02  0.1098692E+00
          1   -1    0    0  501    0  0.00000000000E+00  0.00000000000E+00  0.75337673139E+02  0.75337673139E+02  0.00000000000E+00 0.  1.
         -1   -1    0    0    0  501 -0.00000000000E+00 -0.00000000000E+00 -0.25017093415E+03  0.25017093415E+03  0.00000000000E+00 0.  1.
         25    1    1    2    0    0 -0.26622903511E+02 -0.55157890553E+02 -0.56137741727E+02  0.14595416379E+03  0.12000000000E+03 0.  0.
         25    1    1    2    0    0  0.26622903511E+02  0.55157890553E+02 -0.11869551928E+03  0.17955444349E+03  0.12000000000E+03 0.  0.
<mgrwt>
<rscale>  0 0.27457091E+03</rscale>
<asrwt>0</asrwt>
<pdfrwt beam="1">  1        1 0.11590411E-01 0.27457091E+03</pdfrwt>
<pdfrwt beam="2">  1       -1 0.38487836E-01 0.27457091E+03</pdfrwt>
<totfact> 0.34601653E+03</totfact>
</mgrwt>
</event>
<event>
 4    1  0.1726503E-004  0.2424333E+03  0.7818608E-02  0.1118182E+00
         -4   -1    0    0    0  501 -0.00000000000E+00  0.00000000000E+00  0.85836381601E+02  0.85836381601E+02  0.00000000000E+00 0.  1.
          4   -1    0    0  501    0  0.00000000000E+00 -0.00000000000E+00 -0.17118009705E+03  0.17118009705E+03  0.00000000000E+00 0.  1.
         25    1    1    2    0    0  0.40002495113E+01  0.16587077712E+02 -0.41047714778E+02  0.12796893385E+03  0.12000000000E+03 0.  0.
         25    1    1    2    0    0 -0.40002495113E+01 -0.16587077712E+02 -0.44296000673E+02  0.12904754480E+03  0.12000000000E+03 0.  0.
<mgrwt>
<rscale>  0 0.24243333E+03</rscale>
<asrwt>0</asrwt>
<pdfrwt beam="1">  1        4 0.26335399E-01 0.24243333E+03</pdfrwt>
<pdfrwt beam="2">  1       -4 0.13205597E-01 0.24243333E+03</pdfrwt>
<totfact> 0.11794346E+03</totfact>
</mgrwt>
</event>
<event>
 4    1  0.1726503E-004  0.2956649E+03  0.7818608E-02  0.1087428E+00
          1   -1    0    0  501    0  0.00000000000E+00  0.00000000000E+00  0.46565277609E+02  0.46565277609E+02  0.00000000000E+00 0. -1.
         -1   -1    0    0    0  501 -0.00000000000E+00 -0.00000000000E+00 -0.46932880188E+03  0.46932880188E+03  0.00000000000E+00 0. -1.
         25    1    1    2    0    0  0.31797694819E+02 -0.80122390070E+02 -0.21988250651E+03  0.26491320740E+03  0.12000000000E+03 0.  0.
         25    1    1    2    0    0 -0.31797694819E+02  0.80122390070E+02 -0.20288101777E+03  0.25098087209E+03  0.12000000000E+03 0.  0.
<mgrwt>
<rscale>  0 0.29566485E+03</rscale>
<asrwt>0</asrwt>
<pdfrwt beam="1">  1        1 0.71638893E-02 0.29566485E+03</pdfrwt>
<pdfrwt beam="2">  1       -1 0.72204427E-01 0.29566485E+03</pdfrwt>
<totfact> 0.20378124E+03</totfact>
</mgrwt>
</event>
<event>
 4    1  0.1726503E-004  0.2862298E+03  0.7818608E-02  0.1092334E+00
         -2   -1    0    0    0  501 -0.00000000000E+00  0.00000000000E+00  0.85367766216E+02  0.85367766216E+02  0.00000000000E+00 0. -1.
          2   -1    0    0  501    0  0.00000000000E+00 -0.00000000000E+00 -0.23992511724E+03  0.23992511724E+03  0.00000000000E+00 0. -1.
         25    1    1    2    0    0 -0.64896787252E+02 -0.24808314945E+02 -0.37020742286E+02  0.14351857317E+03  0.12000000000E+03 0.  0.
         25    1    1    2    0    0  0.64896787252E+02  0.24808314945E+02 -0.11753660874E+03  0.18177431029E+03  0.12000000000E+03 0.  0.
<mgrwt>
<rscale>  0 0.28622978E+03</rscale>
<asrwt>0</asrwt>
<pdfrwt beam="1">  1        2 0.36911556E-01 0.28622978E+03</pdfrwt>
<pdfrwt beam="2">  1       -2 0.13133503E-01 0.28622978E+03</pdfrwt>
<totfact> 0.59199635E+03</totfact>
</mgrwt>
</event>
<event>
 4    1  0.1726503E-004  0.3311902E+03  0.7818608E-02  0.1070611E+00
         -1   -1    0    0    0  501 -0.00000000000E+00  0.00000000000E+00  0.37019333603E+02  0.37019333603E+02  0.00000000000E+00 0. -1.
          1   -1    0    0  501    0  0.00000000000E+00 -0.00000000000E+00 -0.74074087445E+03  0.74074087445E+03  0.00000000000E+00 0. -1.
         25    1    1    2    0    0 -0.20608857364E+02 -0.10427136671E+03 -0.44938189264E+03  0.47711773007E+03  0.12000000000E+03 0.  0.
         25    1    1    2    0    0  0.20608857364E+02  0.10427136671E+03 -0.25433964821E+03  0.30064247798E+03  0.12000000000E+03 0.  0.
<mgrwt>
<rscale>  0 0.33119018E+03</rscale>
<asrwt>0</asrwt>
<pdfrwt beam="1">  1        1 0.11396013E+00 0.33119018E+03</pdfrwt>
<pdfrwt beam="2">  1       -1 0.56952823E-02 0.33119018E+03</pdfrwt>
<totfact> 0.37559853E+03</totfact>
</mgrwt>
</event>
<event>
 4    1  0.1726503E-004  0.2513851E+03  0.7818608E-02  0.1112433E+00
         -1   -1    0    0    0  501 -0.00000000000E+00  0.00000000000E+00  0.17089319930E+04  0.17089319930E+04  0.00000000000E+00 0. -1.
          1   -1    0    0  501    0  0.00000000000E+00 -0.00000000000E+00 -0.92447334326E+01  0.92447334326E+01  0.00000000000E+00 0. -1.
         25    1    1    2    0    0 -0.28840355099E+02  0.22449802018E+02  0.79565364610E+03  0.80548152321E+03  0.12000000000E+03 0.  0.
         25    1    1    2    0    0  0.28840355099E+02 -0.22449802018E+02  0.90403361348E+03  0.91269520323E+03  0.12000000000E+03 0.  0.
<mgrwt>
<rscale>  0 0.25138513E+03</rscale>
<asrwt>0</asrwt>
<pdfrwt beam="1">  1        1 0.14222680E-02 0.25138513E+03</pdfrwt>
<pdfrwt beam="2">  1       -1 0.26291236E+00 0.25138513E+03</pdfrwt>
<totfact> 0.64576783E+02</totfact>
</mgrwt>
</event>
<event>
 4    1  0.1726503E-004  0.3207945E+03  0.7818608E-02  0.1075284E+00
          2   -1    0    0  501    0  0.00000000000E+00  0.00000000000E+00  0.35991982170E+03  0.35991982170E+03  0.00000000000E+00 0. -1.
         -2   -1    0    0    0  501 -0.00000000000E+00 -0.00000000000E+00 -0.71480587357E+02  0.71480587357E+02  0.00000000000E+00 0. -1.
         25    1    1    2    0    0 -0.22122514383E+02  0.26643821889E+02  0.27955615589E+03  0.30618775806E+03  0.12000000000E+03 0.  0.
         25    1    1    2    0    0  0.22122514383E+02 -0.26643821889E+02  0.88830784516E+01  0.12521265100E+03  0.12000000000E+03 0.  0.
<mgrwt>
<rscale>  0 0.32079452E+03</rscale>
<asrwt>0</asrwt>
<pdfrwt beam="1">  1        2 0.55372279E-01 0.32079452E+03</pdfrwt>
<pdfrwt beam="2">  1       -2 0.10997014E-01 0.32079452E+03</pdfrwt>
<totfact> 0.51074867E+03</totfact>
</mgrwt>
</event>
<event>
 4    1  0.1726503E-004  0.2495910E+03  0.7818608E-02  0.1113564E+00
         -2   -1    0    0    0  501 -0.00000000000E+00  0.00000000000E+00  0.23159851807E+02  0.23159851807E+02  0.00000000000E+00 0.  1.
          2   -1    0    0  501    0  0.00000000000E+00 -0.00000000000E+00 -0.67245311520E+03  0.67245311520E+03  0.00000000000E+00 0.  1.
         25    1    1    2    0    0 -0.26391471832E+02  0.12807247545E+02 -0.37398375332E+03  0.39385832875E+03  0.12000000000E+03 0.  0.
         25    1    1    2    0    0  0.26391471832E+02 -0.12807247545E+02 -0.27530951007E+03  0.30175463826E+03  0.12000000000E+03 0.  0.
<mgrwt>
<rscale>  0 0.24959098E+03</rscale>
<asrwt>0</asrwt>
<pdfrwt beam="1">  1        2 0.10345432E+00 0.24959098E+03</pdfrwt>
<pdfrwt beam="2">  1       -2 0.35630544E-02 0.24959098E+03</pdfrwt>
<totfact> 0.14269961E+04</totfact>
</mgrwt>
</event>
<event>
 4    1  0.1726503E-004  0.3841071E+03  0.7818608E-02  0.1049426E+00
          2   -1    0    0  501    0  0.00000000000E+00  0.00000000000E+00  0.15264006475E+04  0.15264006475E+04  0.00000000000E+00 0. -1.
         -2   -1    0    0    0  501 -0.00000000000E+00 -0.00000000000E+00 -0.24164400520E+02  0.24164400520E+02  0.00000000000E+00 0. -1.
         25    1    1    2    0    0  0.90482139043E+02 -0.11061254149E+03  0.93444437735E+03  0.95289477183E+03  0.12000000000E+03 0.  0.
         25    1    1    2    0    0 -0.90482139043E+02  0.11061254149E+03  0.56779186960E+03  0.59767027616E+03  0.12000000000E+03 0.  0.
<mgrwt>
<rscale>  0 0.38410705E+03</rscale>
<asrwt>0</asrwt>
<pdfrwt beam="1">  1        2 0.23483079E+00 0.38410705E+03</pdfrwt>
<pdfrwt beam="2">  1       -2 0.37176013E-02 0.38410705E+03</pdfrwt>
<totfact> 0.40602919E+03</totfact>
</mgrwt>
</event>
<event>
 4    1  0.1726503E-004  0.2644290E+03  0.7818608E-02  0.1104511E+00
         -1   -1    0    0    0  501 -0.00000000000E+00  0.00000000000E+00  0.37179695480E+03  0.37179695480E+03  0.00000000000E+00 0. -1.
          1   -1    0    0  501    0  0.00000000000E+00 -0.00000000000E+00 -0.47016711547E+02  0.47016711547E+02  0.00000000000E+00 0. -1.
         25    1    1    2    0    0 -0.12804997016E+00  0.35913170349E+02  0.22941672822E+03  0.26138440541E+03  0.12000000000E+03 0.  0.
         25    1    1    2    0    0  0.12804997016E+00 -0.35913170349E+02  0.95363515031E+02  0.15742926094E+03  0.12000000000E+03 0.  0.
<mgrwt>
<rscale>  0 0.26442897E+03</rscale>
<asrwt>0</asrwt>
<pdfrwt beam="1">  1        1 0.72333405E-02 0.26442897E+03</pdfrwt>
<pdfrwt beam="2">  1       -1 0.57199530E-01 0.26442897E+03</pdfrwt>
<totfact> 0.31654845E+03</totfact>
</mgrwt>
</event>
<event>
 4    1  0.1726503E-004  0.2792293E+03  0.7818608E-02  0.1096111E+00
          2   -1    0    0  501    0  0.00000000000E+00  0.00000000000E+00  0.28054291633E+03  0.28054291633E+03  0.00000000000E+00 0.  1.
         -2   -1    0    0    0  501 -0.00000000000E+00 -0.00000000000E+00 -0.69480465748E+02  0.69480465748E+02  0.00000000000E+00 0.  1.
         25    1    1    2    0    0  0.28647496068E+02  0.54847934605E+02  0.15008509518E+03  0.20187746471E+03  0.12000000000E+03 0.  0.
         25    1    1    2    0    0 -0.28647496068E+02 -0.54847934605E+02  0.60977355399E+02  0.14814591737E+03  0.12000000000E+03 0.  0.
<mgrwt>
<rscale>  0 0.27922931E+03</rscale>
<asrwt>0</asrwt>
<pdfrwt beam="1">  1        2 0.43160448E-01 0.27922931E+03</pdfrwt>
<pdfrwt beam="2">  1       -2 0.10689303E-01 0.27922931E+03</pdfrwt>
<totfact> 0.69660115E+03</totfact>
</mgrwt>
</event>
<event>
 4    1  0.1726503E-004  0.2955509E+03  0.7818608E-02  0.1087486E+00
          1   -1    0    0  501    0  0.00000000000E+00  0.00000000000E+00  0.17253795651E+02  0.17253795651E+02  0.00000000000E+00 0. -1.
         -1   -1    0    0    0  501 -0.00000000000E+00 -0.00000000000E+00 -0.12656682988E+04  0.12656682988E+04  0.00000000000E+00 0. -1.
         25    1    1    2    0    0 -0.83471503974E+01  0.23878393650E+02 -0.26631692922E+03  0.29319713401E+03  0.12000000000E+03 0.  0.
         25    1    1    2    0    0  0.83471503974E+01 -0.23878393650E+02 -0.98209757396E+03  0.98972496047E+03  0.12000000000E+03 0.  0.
<mgrwt>
<rscale>  0 0.29555089E+03</rscale>
<asrwt>0</asrwt>
<pdfrwt beam="1">  1        1 0.26544297E-02 0.29555089E+03</pdfrwt>
<pdfrwt beam="2">  1       -1 0.19471823E+00 0.29555089E+03</pdfrwt>
<totfact> 0.73471598E+02</totfact>
</mgrwt>
</event>
<event>
 4    1  0.1726503E-004  0.5176330E+03  0.7818608E-02  0.1009276E+00
         -1   -1    0    0    0  501 -0.00000000000E+00  0.00000000000E+00  0.11785686608E+03  0.11785686608E+03  0.00000000000E+00 0.  1.
          1   -1    0    0  501    0  0.00000000000E+00 -0.00000000000E+00 -0.56836720146E+03  0.56836720146E+03  0.00000000000E+00 0.  1.
         25    1    1    2    0    0  0.19439144170E+03 -0.64906512542E+02 -0.36164791022E+03  0.43265471099E+03  0.12000000000E+03 0.  0.
         25    1    1    2    0    0 -0.19439144170E+03  0.64906512542E+02 -0.88862425155E+02  0.25356935655E+03  0.12000000000E+03 0.  0.
<mgrwt>
<rscale>  0 0.51763299E+03</rscale>
<asrwt>0</asrwt>
<pdfrwt beam="1">  1        1 0.87441110E-01 0.51763299E+03</pdfrwt>
<pdfrwt beam="2">  1       -1 0.18131825E-01 0.51763299E+03</pdfrwt>
<totfact> 0.89690760E+02</totfact>
</mgrwt>
</event>
<event>
 4    1  0.1726503E-004  0.2620608E+03  0.7818608E-02  0.1105911E+00
         -1   -1    0    0    0  501 -0.00000000000E+00  0.00000000000E+00  0.24713443308E+03  0.24713443308E+03  0.00000000000E+00 0. -1.
          1   -1    0    0  501    0  0.00000000000E+00 -0.00000000000E+00 -0.69472159581E+02  0.69472159581E+02  0.00000000000E+00 0. -1.
         25    1    1    2    0    0 -0.24426738418E+02  0.45990305882E+02  0.97967516326E+02  0.16343013198E+03  0.12000000000E+03 0.  0.
         25    1    1    2    0    0  0.24426738418E+02 -0.45990305882E+02  0.79694757172E+02  0.15317646068E+03  0.12000000000E+03 0.  0.
<mgrwt>
<rscale>  0 0.26206078E+03</rscale>
<asrwt>0</asrwt>
<pdfrwt beam="1">  1        1 0.10688025E-01 0.26206078E+03</pdfrwt>
<pdfrwt beam="2">  1       -1 0.38020681E-01 0.26206078E+03</pdfrwt>
<totfact> 0.39339831E+03</totfact>
</mgrwt>
</event>
<event>
 4    1  0.1726503E-004  0.2495630E+03  0.7818608E-02  0.1113581E+00
          1   -1    0    0  501    0  0.00000000000E+00  0.00000000000E+00  0.17283271695E+04  0.17283271695E+04  0.00000000000E+00 0.  1.
         -1   -1    0    0    0  501 -0.00000000000E+00 -0.00000000000E+00 -0.90089542534E+01  0.90089542534E+01  0.00000000000E+00 0.  1.
         25    1    1    2    0    0 -0.26767634962E+02  0.11921021320E+00  0.71134456584E+03  0.72189168983E+03  0.12000000000E+03 0.  0.
         25    1    1    2    0    0  0.26767634962E+02 -0.11921021320E+00  0.10079736494E+04  0.10154444340E+04  0.12000000000E+03 0.  0.
<mgrwt>
<rscale>  0 0.24956298E+03</rscale>
<asrwt>0</asrwt>
<pdfrwt beam="1">  1        1 0.26589622E+00 0.24956298E+03</pdfrwt>
<pdfrwt beam="2">  1       -1 0.13859943E-02 0.24956298E+03</pdfrwt>
<totfact> 0.59251558E+03</totfact>
</mgrwt>
</event>
<event>
 4    1  0.1726503E-004  0.3109389E+03  0.7818608E-02  0.1079897E+00
         -2   -1    0    0    0  501 -0.00000000000E+00  0.00000000000E+00  0.69794943486E+02  0.69794943486E+02  0.00000000000E+00 0. -1.
          2   -1    0    0  501    0  0.00000000000E+00 -0.00000000000E+00 -0.34631101065E+03  0.34631101065E+03  0.00000000000E+00 0. -1.
         25    1    1    2    0    0  0.94161275640E+02  0.13490587110E+02 -0.10228952947E+03  0.18415072525E+03  0.12000000000E+03 0.  0.
         25    1    1    2    0    0 -0.94161275640E+02 -0.13490587110E+02 -0.17422653770E+03  0.23195522889E+03  0.12000000000E+03 0.  0.
<mgrwt>
<rscale>  0 0.31093895E+03</rscale>
<asrwt>0</asrwt>
<pdfrwt beam="1">  1        2 0.53278617E-01 0.31093895E+03</pdfrwt>
<pdfrwt beam="2">  1       -2 0.10737684E-01 0.31093895E+03</pdfrwt>
<totfact> 0.55289423E+03</totfact>
</mgrwt>
</event>
<event>
 4    1  0.1726503E-004  0.2844391E+03  0.7818608E-02  0.1093289E+00
          2   -1    0    0  501    0  0.00000000000E+00  0.00000000000E+00  0.11243383793E+04  0.11243383793E+04  0.00000000000E+00 0. -1.
         -2   -1    0    0    0  501 -0.00000000000E+00 -0.00000000000E+00 -0.17989598631E+02  0.17989598631E+02  0.00000000000E+00 0. -1.
         25    1    1    2    0    0  0.18268797392E+02  0.69500211776E+02  0.65653407133E+03  0.67126821406E+03  0.12000000000E+03 0.  0.
         25    1    1    2    0    0 -0.18268797392E+02 -0.69500211776E+02  0.44981470930E+03  0.47105976383E+03  0.12000000000E+03 0.  0.
<mgrwt>
<rscale>  0 0.28443907E+03</rscale>
<asrwt>0</asrwt>
<pdfrwt beam="1">  1        2 0.17297508E+00 0.28443907E+03</pdfrwt>
<pdfrwt beam="2">  1       -2 0.27676314E-02 0.28443907E+03</pdfrwt>
<totfact> 0.10553680E+04</totfact>
</mgrwt>
</event>
<event>
 4    1  0.1726503E-004  0.2757450E+03  0.7818608E-02  0.1098036E+00
          2   -1    0    0  501    0  0.00000000000E+00  0.00000000000E+00  0.11536440534E+04  0.11536440534E+04  0.00000000000E+00 0. -1.
         -2   -1    0    0    0  501 -0.00000000000E+00 -0.00000000000E+00 -0.16477207024E+02  0.16477207024E+02  0.00000000000E+00 0. -1.
         25    1    1    2    0    0  0.25843178018E+02  0.58438190232E+02  0.47126585476E+03  0.49048384050E+03  0.12000000000E+03 0.  0.
         25    1    1    2    0    0 -0.25843178018E+02 -0.58438190232E+02  0.66590099165E+03  0.67963741996E+03  0.12000000000E+03 0.  0.
<mgrwt>
<rscale>  0 0.27574504E+03</rscale>
<asrwt>0</asrwt>
<pdfrwt beam="1">  1        2 0.17748364E+00 0.27574504E+03</pdfrwt>
<pdfrwt beam="2">  1       -2 0.25349558E-02 0.27574504E+03</pdfrwt>
<totfact> 0.11550787E+04</totfact>
</mgrwt>
</event>
<event>
 4    1  0.1726503E-004  0.3088130E+03  0.7818608E-02  0.1080916E+00
          2   -1    0    0  501    0  0.00000000000E+00  0.00000000000E+00  0.32887159329E+04  0.32887159329E+04  0.00000000000E+00 0. -1.
         -2   -1    0    0    0  501 -0.00000000000E+00 -0.00000000000E+00 -0.72494457274E+01  0.72494457274E+01  0.00000000000E+00 0. -1.
         25    1    1    2    0    0 -0.12694792052E+02  0.38691042812E+02  0.69913308202E+03  0.71052460965E+03  0.12000000000E+03 0.  0.
         25    1    1    2    0    0  0.12694792052E+02 -0.38691042812E+02  0.25823334051E+04  0.25854407689E+04  0.12000000000E+03 0.  0.
<mgrwt>
<rscale>  0 0.30881300E+03</rscale>
<asrwt>0</asrwt>
<pdfrwt beam="1">  1        2 0.50595511E+00 0.30881300E+03</pdfrwt>
<pdfrwt beam="2">  1       -2 0.11153020E-02 0.30881300E+03</pdfrwt>
<totfact> 0.25152246E+03</totfact>
</mgrwt>
</event>
<event>
 4    1  0.1726503E-004  0.2649058E+03  0.7818608E-02  0.1104231E+00
         -1   -1    0    0    0  501 -0.00000000000E+00  0.00000000000E+00  0.21482819269E+03  0.21482819269E+03  0.00000000000E+00 0. -1.
          1   -1    0    0  501    0  0.00000000000E+00 -0.00000000000E+00 -0.81664188419E+02  0.81664188419E+02  0.00000000000E+00 0. -1.
         25    1    1    2    0    0 -0.16407260141E+02 -0.49392526512E+02  0.43239800328E+02  0.13776247745E+03  0.12000000000E+03 0.  0.
         25    1    1    2    0    0  0.16407260141E+02  0.49392526512E+02  0.89924203941E+02  0.15872990366E+03  0.12000000000E+03 0.  0.
<mgrwt>
<rscale>  0 0.26490579E+03</rscale>
<asrwt>0</asrwt>
<pdfrwt beam="1">  1        1 0.12563721E-01 0.26490579E+03</pdfrwt>
<pdfrwt beam="2">  1       -1 0.33050491E-01 0.26490579E+03</pdfrwt>
<totfact> 0.40488164E+03</totfact>
</mgrwt>
</event>
<event>
 4    1  0.1726503E-004  0.3275397E+03  0.7818608E-02  0.1072231E+00
          2   -1    0    0  501    0  0.00000000000E+00  0.00000000000E+00  0.24532934781E+03  0.24532934781E+03  0.00000000000E+00 0. -1.
         -2   -1    0    0    0  501 -0.00000000000E+00 -0.00000000000E+00 -0.10932469284E+03  0.10932469284E+03  0.00000000000E+00 0. -1.
         25    1    1    2    0    0 -0.94051062393E+02  0.43483378076E+02  0.23566701890E+02  0.16028660563E+03  0.12000000000E+03 0.  0.
         25    1    1    2    0    0  0.94051062393E+02 -0.43483378076E+02  0.11243795307E+03  0.19436743502E+03  0.12000000000E+03 0.  0.
<mgrwt>
<rscale>  0 0.32753965E+03</rscale>
<asrwt>0</asrwt>
<pdfrwt beam="1">  1        2 0.37742976E-01 0.32753965E+03</pdfrwt>
<pdfrwt beam="2">  1       -2 0.16819184E-01 0.32753965E+03</pdfrwt>
<totfact> 0.38518213E+03</totfact>
</mgrwt>
</event>
<event>
 4    1  0.1726503E-004  0.2777371E+03  0.7818608E-02  0.1096931E+00
          2   -1    0    0  501    0  0.00000000000E+00  0.00000000000E+00  0.20029054490E+03  0.20029054490E+03  0.00000000000E+00 0.  1.
         -2   -1    0    0    0  501 -0.00000000000E+00 -0.00000000000E+00 -0.96282497986E+02  0.96282497986E+02  0.00000000000E+00 0.  1.
         25    1    1    2    0    0  0.55532856982E+02 -0.69998569116E+01  0.96694243490E+02  0.16395936364E+03  0.12000000000E+03 0.  0.
         25    1    1    2    0    0 -0.55532856982E+02  0.69998569116E+01  0.73138034189E+01  0.13261367924E+03  0.12000000000E+03 0.  0.
<mgrwt>
<rscale>  0 0.27773710E+03</rscale>
<asrwt>0</asrwt>
<pdfrwt beam="1">  1        2 0.30813930E-01 0.27773710E+03</pdfrwt>
<pdfrwt beam="2">  1       -2 0.14812692E-01 0.27773710E+03</pdfrwt>
<totfact> 0.59099176E+03</totfact>
</mgrwt>
</event>
<event>
 4    1  0.1726503E-004  0.2600699E+03  0.7818608E-02  0.1107101E+00
          1   -1    0    0  501    0  0.00000000000E+00  0.00000000000E+00  0.30216526819E+02  0.30216526819E+02  0.00000000000E+00 0. -1.
         -1   -1    0    0    0  501 -0.00000000000E+00 -0.00000000000E+00 -0.55959749721E+03  0.55959749721E+03  0.00000000000E+00 0. -1.
         25    1    1    2    0    0 -0.45722812241E+02 -0.70723304756E+01 -0.22115500720E+03  0.25583223140E+03  0.12000000000E+03 0.  0.
         25    1    1    2    0    0  0.45722812241E+02  0.70723304756E+01 -0.30822596320E+03  0.33398179263E+03  0.12000000000E+03 0.  0.
<mgrwt>
<rscale>  0 0.26006994E+03</rscale>
<asrwt>0</asrwt>
<pdfrwt beam="1">  1        1 0.46486966E-02 0.26006994E+03</pdfrwt>
<pdfrwt beam="2">  1       -1 0.86091919E-01 0.26006994E+03</pdfrwt>
<totfact> 0.25651878E+03</totfact>
</mgrwt>
</event>
<event>
 4    1  0.1726503E-004  0.2541564E+03  0.7818608E-02  0.1110706E+00
         -2   -1    0    0    0  501 -0.00000000000E+00  0.00000000000E+00  0.13700455580E+03  0.13700455580E+03  0.00000000000E+00 0. -1.
          2   -1    0    0  501    0  0.00000000000E+00 -0.00000000000E+00 -0.11787106774E+03  0.11787106774E+03  0.00000000000E+00 0. -1.
         25    1    1    2    0    0 -0.27693910360E+02  0.29232937320E+02 -0.17504006155E+01  0.12658823483E+03  0.12000000000E+03 0.  0.
         25    1    1    2    0    0  0.27693910360E+02 -0.29232937320E+02  0.20883888682E+02  0.12828738871E+03  0.12000000000E+03 0.  0.
<mgrwt>
<rscale>  0 0.25415643E+03</rscale>
<asrwt>0</asrwt>
<pdfrwt beam="1">  1        2 0.18134010E-01 0.25415643E+03</pdfrwt>
<pdfrwt beam="2">  1       -2 0.21077624E-01 0.25415643E+03</pdfrwt>
<totfact> 0.59026653E+03</totfact>
</mgrwt>
</event>
<event>
 4    1  0.1726503E-004  0.3121810E+03  0.7818608E-02  0.1079305E+00
          2   -1    0    0  501    0  0.00000000000E+00  0.00000000000E+00  0.16394736138E+03  0.16394736138E+03  0.00000000000E+00 0.  1.
         -2   -1    0    0    0  501 -0.00000000000E+00 -0.00000000000E+00 -0.14861014831E+03  0.14861014831E+03  0.00000000000E+00 0.  1.
         25    1    1    2    0    0 -0.93566049677E+02 -0.12832768135E+02  0.40033375829E+02  0.15786689574E+03  0.12000000000E+03 0.  0.
         25    1    1    2    0    0  0.93566049677E+02  0.12832768135E+02 -0.24696162762E+02  0.15469061395E+03  0.12000000000E+03 0.  0.
<mgrwt>
<rscale>  0 0.31218098E+03</rscale>
<asrwt>0</asrwt>
<pdfrwt beam="1">  1        2 0.25222671E-01 0.31218098E+03</pdfrwt>
<pdfrwt beam="2">  1       -2 0.22863100E-01 0.31218098E+03</pdfrwt>
<totfact> 0.35454519E+03</totfact>
</mgrwt>
</event>
<event>
 4    1  0.1726503E-004  0.2441207E+03  0.7818608E-02  0.1117078E+00
          4   -1    0    0  501    0  0.00000000000E+00  0.00000000000E+00  0.12674831901E+04  0.12674831901E+04  0.00000000000E+00 0. -1.
         -4   -1    0    0    0  501 -0.00000000000E+00 -0.00000000000E+00 -0.11754572902E+02  0.11754572902E+02  0.00000000000E+00 0. -1.
         25    1    1    2    0    0  0.85030952246E+00  0.12149150655E+02  0.52977357780E+03  0.54333080956E+03  0.12000000000E+03 0.  0.
         25    1    1    2    0    0 -0.85030952246E+00 -0.12149150655E+02  0.72595503942E+03  0.73590695345E+03  0.12000000000E+03 0.  0.
<mgrwt>
<rscale>  0 0.24412066E+03</rscale>
<asrwt>0</asrwt>
<pdfrwt beam="1">  1        4 0.19499731E+00 0.24412066E+03</pdfrwt>
<pdfrwt beam="2">  1       -4 0.18083968E-02 0.24412066E+03</pdfrwt>
<totfact> 0.33993525E+02</totfact>
</mgrwt>
</event>
<event>
 4    1  0.1726503E-004  0.2522980E+03  0.7818608E-02  0.1111861E+00
         -2   -1    0    0    0  501 -0.00000000000E+00  0.00000000000E+00  0.92780760504E+01  0.92780760504E+01  0.00000000000E+00 0.  1.
          2   -1    0    0  501    0  0.00000000000E+00 -0.00000000000E+00 -0.17151804364E+04  0.17151804364E+04  0.00000000000E+00 0.  1.
         25    1    1    2    0    0  0.17671583849E+01  0.32698603261E+02 -0.70937488871E+03  0.72019792712E+03  0.12000000000E+03 0.  0.
         25    1    1    2    0    0 -0.17671583849E+01 -0.32698603261E+02 -0.99652747163E+03  0.10042605853E+04  0.12000000000E+03 0.  0.
<mgrwt>
<rscale>  0 0.25229803E+03</rscale>
<asrwt>0</asrwt>
<pdfrwt beam="1">  1        2 0.26387379E+00 0.25229803E+03</pdfrwt>
<pdfrwt beam="2">  1       -2 0.14273970E-02 0.25229803E+03</pdfrwt>
<totfact> 0.13274483E+04</totfact>
</mgrwt>
</event>
<event>
 4    1  0.1726503E-004  0.5617853E+03  0.7818608E-02  0.9988023E-01
         -1   -1    0    0    0  501 -0.00000000000E+00  0.00000000000E+00  0.89946069265E+02  0.89946069265E+02  0.00000000000E+00 0.  1.
          1   -1    0    0  501    0  0.00000000000E+00 -0.00000000000E+00 -0.87719982059E+03  0.87719982059E+03  0.00000000000E+00 0.  1.
         25    1    1    2    0    0 -0.10275183783E+03 -0.10337834846E+03 -0.75167637282E+03  0.77502412386E+03  0.12000000000E+03 0.  0.
         25    1    1    2    0    0  0.10275183783E+03  0.10337834846E+03 -0.35577378511E+02  0.19212176600E+03  0.12000000000E+03 0.  0.
<mgrwt>
<rscale>  0 0.56178528E+03</rscale>
<asrwt>0</asrwt>
<pdfrwt beam="1">  1        1 0.13495382E+00 0.56178528E+03</pdfrwt>
<pdfrwt beam="2">  1       -1 0.13837857E-01 0.56178528E+03</pdfrwt>
<totfact> 0.72137948E+02</totfact>
</mgrwt>
</event>
<event>
 4    1  0.1726503E-004  0.2785098E+03  0.7818608E-02  0.1096506E+00
          2   -1    0    0  501    0  0.00000000000E+00  0.00000000000E+00  0.58828966456E+02  0.58828966456E+02  0.00000000000E+00 0.  1.
         -2   -1    0    0    0  501 -0.00000000000E+00 -0.00000000000E+00 -0.32963233077E+03  0.32963233077E+03  0.00000000000E+00 0.  1.
         25    1    1    2    0    0  0.15042246468E+02  0.60256262987E+02 -0.88414962384E+02  0.16147536029E+03  0.12000000000E+03 0.  0.
         25    1    1    2    0    0 -0.15042246468E+02 -0.60256262987E+02 -0.18238840193E+03  0.22698593694E+03  0.12000000000E+03 0.  0.
<mgrwt>
<rscale>  0 0.27850982E+03</rscale>
<asrwt>0</asrwt>
<pdfrwt beam="1">  1        2 0.90506103E-02 0.27850982E+03</pdfrwt>
<pdfrwt beam="2">  1       -2 0.50712666E-01 0.27850982E+03</pdfrwt>
<totfact> 0.27048908E+03</totfact>
</mgrwt>
</event>
<event>
 4    1  0.1726503E-004  0.2691583E+03  0.7818608E-02  0.1101762E+00
          1   -1    0    0  501    0  0.00000000000E+00  0.00000000000E+00  0.36412468488E+03  0.36412468488E+03  0.00000000000E+00 0.  1.
         -1   -1    0    0    0  501 -0.00000000000E+00 -0.00000000000E+00 -0.49739964256E+02  0.49739964256E+02  0.00000000000E+00 0.  1.
         25    1    1    2    0    0 -0.18945874594E+02 -0.52246432343E+02  0.19556875944E+03  0.23608425514E+03  0.12000000000E+03 0.  0.
         25    1    1    2    0    0  0.18945874594E+02  0.52246432343E+02  0.11881596118E+03  0.17778039399E+03  0.12000000000E+03 0.  0.
<mgrwt>
<rscale>  0 0.26915831E+03</rscale>
<asrwt>0</asrwt>
<pdfrwt beam="1">  1        1 0.56019181E-01 0.26915831E+03</pdfrwt>
<pdfrwt beam="2">  1       -1 0.76523024E-02 0.26915831E+03</pdfrwt>
<totfact> 0.62598216E+03</totfact>
</mgrwt>
</event>
<event>
 4    1  0.1726503E-004  0.2986988E+03  0.7818608E-02  0.1085893E+00
         -2   -1    0    0    0  501 -0.00000000000E+00  0.00000000000E+00  0.85489182800E+01  0.85489182800E+01  0.00000000000E+00 0. -1.
          2   -1    0    0  501    0  0.00000000000E+00 -0.00000000000E+00 -0.26091311258E+04  0.26091311258E+04  0.00000000000E+00 0. -1.
         25    1    1    2    0    0  0.65003930561E+02  0.50732948315E+02 -0.15917263589E+04  0.15983717166E+04  0.12000000000E+03 0.  0.
         25    1    1    2    0    0 -0.65003930561E+02 -0.50732948315E+02 -0.10088558486E+04  0.10193083274E+04  0.12000000000E+03 0.  0.
<mgrwt>
<rscale>  0 0.29869884E+03</rscale>
<asrwt>0</asrwt>
<pdfrwt beam="1">  1        2 0.40140466E+00 0.29869884E+03</pdfrwt>
<pdfrwt beam="2">  1       -2 0.13152186E-02 0.29869884E+03</pdfrwt>
<totfact> 0.49883872E+03</totfact>
</mgrwt>
</event>
<event>
 4    1  0.1726503E-004  0.4023569E+03  0.7818608E-02  0.1042967E+00
         -2   -1    0    0    0  501 -0.00000000000E+00  0.00000000000E+00  0.15782619497E+02  0.15782619497E+02  0.00000000000E+00 0. -1.
          2   -1    0    0  501    0  0.00000000000E+00 -0.00000000000E+00 -0.25643890287E+04  0.25643890287E+04  0.00000000000E+00 0. -1.
         25    1    1    2    0    0  0.60787791952E+02  0.36742388928E+02 -0.22041944071E+04  0.22086009470E+04  0.12000000000E+03 0.  0.
         25    1    1    2    0    0 -0.60787791952E+02 -0.36742388928E+02 -0.34441200209E+03  0.37157070118E+03  0.12000000000E+03 0.  0.
<mgrwt>
<rscale>  0 0.40235694E+03</rscale>
<asrwt>0</asrwt>
<pdfrwt beam="1">  1        2 0.39452175E+00 0.40235694E+03</pdfrwt>
<pdfrwt beam="2">  1       -2 0.24280931E-02 0.40235694E+03</pdfrwt>
<totfact> 0.21201448E+03</totfact>
</mgrwt>
</event>
<event>
 4    1  0.1726503E-004  0.2688207E+03  0.7818608E-02  0.1101956E+00
         -3   -1    0    0    0  501 -0.00000000000E+00  0.00000000000E+00  0.21065784235E+03  0.21065784235E+03  0.00000000000E+00 0.  1.
          3   -1    0    0  501    0  0.00000000000E+00 -0.00000000000E+00 -0.85760606746E+02  0.85760606746E+02  0.00000000000E+00 0.  1.
         25    1    1    2    0    0 -0.12600637469E+02  0.14776243928E+02 -0.78914179791E+00  0.12156371249E+03  0.12000000000E+03 0.  0.
         25    1    1    2    0    0  0.12600637469E+02 -0.14776243928E+02  0.12568637740E+03  0.17485473660E+03  0.12000000000E+03 0.  0.
<mgrwt>
<rscale>  0 0.26882072E+03</rscale>
<asrwt>0</asrwt>
<pdfrwt beam="1">  1        3 0.13193940E-01 0.26882072E+03</pdfrwt>
<pdfrwt beam="2">  1       -3 0.32408899E-01 0.26882072E+03</pdfrwt>
<totfact> 0.10899789E+03</totfact>
</mgrwt>
</event>
<event>
 4    1  0.1726503E-004  0.2470464E+03  0.7818608E-02  0.1115186E+00
         -2   -1    0    0    0  501 -0.00000000000E+00  0.00000000000E+00  0.67173095211E+02  0.67173095211E+02  0.00000000000E+00 0. -1.
          2   -1    0    0  501    0  0.00000000000E+00 -0.00000000000E+00 -0.22714425860E+03  0.22714425860E+03  0.00000000000E+00 0. -1.
         25    1    1    2    0    0 -0.21367931602E+02  0.63224609937E+01 -0.10263431623E+03  0.15946900916E+03  0.12000000000E+03 0.  0.
         25    1    1    2    0    0  0.21367931602E+02 -0.63224609937E+01 -0.57336847165E+02  0.13484834466E+03  0.12000000000E+03 0.  0.
<mgrwt>
<rscale>  0 0.24704642E+03</rscale>
<asrwt>0</asrwt>
<pdfrwt beam="1">  1        2 0.34945270E-01 0.24704642E+03</pdfrwt>
<pdfrwt beam="2">  1       -2 0.10334322E-01 0.24704642E+03</pdfrwt>
<totfact> 0.91857173E+03</totfact>
</mgrwt>
</event>
<event>
 4    1  0.1726503E-004  0.2948341E+03  0.7818608E-02  0.1087852E+00
          4   -1    0    0  501    0  0.00000000000E+00  0.00000000000E+00  0.51169668567E+03  0.51169668567E+03  0.00000000000E+00 0.  1.
         -4   -1    0    0    0  501 -0.00000000000E+00 -0.00000000000E+00 -0.42470054148E+02  0.42470054148E+02  0.00000000000E+00 0.  1.
         25    1    1    2    0    0 -0.74189870957E+01  0.84991018830E+02  0.24833190286E+03  0.28869923559E+03  0.12000000000E+03 0.  0.
         25    1    1    2    0    0  0.74189870957E+01 -0.84991018830E+02  0.22089472866E+03  0.26546750423E+03  0.12000000000E+03 0.  0.
<mgrwt>
<rscale>  0 0.29483410E+03</rscale>
<asrwt>0</asrwt>
<pdfrwt beam="1">  1        4 0.78722563E-01 0.29483410E+03</pdfrwt>
<pdfrwt beam="2">  1       -4 0.65338549E-02 0.29483410E+03</pdfrwt>
<totfact> 0.42919005E+02</totfact>
</mgrwt>
</event>
<event>
 4    1  0.1726503E-004  0.2727156E+03  0.7818608E-02  0.1099735E+00
          1   -1    0    0  501    0  0.00000000000E+00  0.00000000000E+00  0.12220450401E+03  0.12220450401E+03  0.00000000000E+00 0.  1.
         -1   -1    0    0    0  501 -0.00000000000E+00 -0.00000000000E+00 -0.15215022609E+03  0.15215022609E+03  0.00000000000E+00 0.  1.
         25    1    1    2    0    0 -0.62817454633E+02  0.20771061462E+01 -0.30658109414E+02  0.13888940438E+03  0.12000000000E+03 0.  0.
         25    1    1    2    0    0  0.62817454633E+02 -0.20771061462E+01  0.71238734339E+00  0.13546532572E+03  0.12000000000E+03 0.  0.
<mgrwt>
<rscale>  0 0.27271555E+03</rscale>
<asrwt>0</asrwt>
<pdfrwt beam="1">  1        1 0.18800693E-01 0.27271555E+03</pdfrwt>
<pdfrwt beam="2">  1       -1 0.23407727E-01 0.27271555E+03</pdfrwt>
<totfact> 0.42747652E+03</totfact>
</mgrwt>
</event>
<event>
 4    1  0.1726503E-004  0.2602393E+03  0.7818608E-02  0.1107000E+00
          2   -1    0    0  501    0  0.00000000000E+00  0.00000000000E+00  0.88178903829E+03  0.88178903829E+03  0.00000000000E+00 0. -1.
         -2   -1    0    0    0  501 -0.00000000000E+00 -0.00000000000E+00 -0.19200881825E+02  0.19200881825E+02  0.00000000000E+00 0. -1.
         25    1    1    2    0    0 -0.96840476544E+01  0.38823697121E+02  0.53687953218E+03  0.55158017759E+03  0.12000000000E+03 0.  0.
         25    1    1    2    0    0  0.96840476544E+01 -0.38823697121E+02  0.32570862429E+03  0.34940974252E+03  0.12000000000E+03 0.  0.
<mgrwt>
<rscale>  0 0.26023933E+03</rscale>
<asrwt>0</asrwt>
<pdfrwt beam="1">  1        2 0.13565982E+00 0.26023933E+03</pdfrwt>
<pdfrwt beam="2">  1       -2 0.29539825E-02 0.26023933E+03</pdfrwt>
<totfact> 0.13455955E+04</totfact>
</mgrwt>
</event>
<event>
 4    1  0.1726503E-004  0.2410756E+03  0.7818608E-02  0.1119078E+00
         -4   -1    0    0    0  501 -0.00000000000E+00  0.00000000000E+00  0.28328085004E+03  0.28328085004E+03  0.00000000000E+00 0. -1.
          4   -1    0    0  501    0  0.00000000000E+00 -0.00000000000E+00 -0.51289608557E+02  0.51289608557E+02  0.00000000000E+00 0. -1.
         25    1    1    2    0    0  0.71463388796E+01  0.26411164663E+01  0.12771581067E+03  0.17541201199E+03  0.12000000000E+03 0.  0.
         25    1    1    2    0    0 -0.71463388796E+01 -0.26411164663E+01  0.10427543082E+03  0.15915844661E+03  0.12000000000E+03 0.  0.
<mgrwt>
<rscale>  0 0.24107562E+03</rscale>
<asrwt>0</asrwt>
<pdfrwt beam="1">  1        4 0.78907092E-02 0.24107562E+03</pdfrwt>
<pdfrwt beam="2">  1       -4 0.43581668E-01 0.24107562E+03</pdfrwt>
<totfact> 0.10659533E+03</totfact>
</mgrwt>
</event>
<event>
 4    1  0.1726503E-004  0.2711670E+03  0.7818608E-02  0.1100614E+00
         -2   -1    0    0    0  501 -0.00000000000E+00  0.00000000000E+00  0.89581819459E+02  0.89581819459E+02  0.00000000000E+00 0. -1.
          2   -1    0    0  501    0  0.00000000000E+00 -0.00000000000E+00 -0.20520770002E+03  0.20520770002E+03  0.00000000000E+00 0. -1.
         25    1    1    2    0    0 -0.20563835717E+02  0.57980550957E+02 -0.42505708123E+02  0.14139077357E+03  0.12000000000E+03 0.  0.
         25    1    1    2    0    0  0.20563835717E+02 -0.57980550957E+02 -0.73120172443E+02  0.15339874591E+03  0.12000000000E+03 0.  0.
<mgrwt>
<rscale>  0 0.27116695E+03</rscale>
<asrwt>0</asrwt>
<pdfrwt beam="1">  1        2 0.31570415E-01 0.27116695E+03</pdfrwt>
<pdfrwt beam="2">  1       -2 0.13781819E-01 0.27116695E+03</pdfrwt>
<totfact> 0.64738497E+03</totfact>
</mgrwt>
</event>
<event>
 4    1  0.1726503E-004  0.2788975E+03  0.7818608E-02  0.1096293E+00
         -2   -1    0    0    0  501 -0.00000000000E+00  0.00000000000E+00  0.20671601305E+02  0.20671601305E+02  0.00000000000E+00 0. -1.
          2   -1    0    0  501    0  0.00000000000E+00 -0.00000000000E+00 -0.94070890578E+03  0.94070890578E+03  0.00000000000E+00 0. -1.
         25    1    1    2    0    0  0.60262511646E+02  0.37475047038E+02 -0.47092469817E+03  0.49112729593E+03  0.12000000000E+03 0.  0.
         25    1    1    2    0    0 -0.60262511646E+02 -0.37475047038E+02 -0.44911260631E+03  0.47025321116E+03  0.12000000000E+03 0.  0.
<mgrwt>
<rscale>  0 0.27889754E+03</rscale>
<asrwt>0</asrwt>
<pdfrwt beam="1">  1        2 0.14472446E+00 0.27889754E+03</pdfrwt>
<pdfrwt beam="2">  1       -2 0.31802462E-02 0.27889754E+03</pdfrwt>
<totfact> 0.11077775E+04</totfact>
</mgrwt>
</event>
<event>
 4    1  0.1726503E-004  0.2439470E+03  0.7818608E-02  0.1117191E+00
         -2   -1    0    0    0  501 -0.00000000000E+00  0.00000000000E+00  0.22875591392E+02  0.22875591392E+02  0.00000000000E+00 0. -1.
          2   -1    0    0  501    0  0.00000000000E+00 -0.00000000000E+00 -0.65036745606E+03  0.65036745606E+03  0.00000000000E+00 0. -1.
         25    1    1    2    0    0  0.12476201236E+02  0.16638994413E+02 -0.29522683554E+03  0.31936091833E+03  0.12000000000E+03 0.  0.
         25    1    1    2    0    0 -0.12476201236E+02 -0.16638994413E+02 -0.33226502913E+03  0.35388212912E+03  0.12000000000E+03 0.  0.
<mgrwt>
<rscale>  0 0.24394704E+03</rscale>
<asrwt>0</asrwt>
<pdfrwt beam="1">  1        2 0.10005654E+00 0.24394704E+03</pdfrwt>
<pdfrwt beam="2">  1       -2 0.35193215E-02 0.24394704E+03</pdfrwt>
<totfact> 0.15108114E+04</totfact>
</mgrwt>
</event>
<event>
 4    1  0.1726503E-004  0.2853738E+03  0.7818608E-02  0.1092790E+00
          1   -1    0    0  501    0  0.00000000000E+00  0.00000000000E+00  0.21214067676E+02  0.21214067676E+02  0.00000000000E+00 0. -1.
         -1   -1    0    0    0  501 -0.00000000000E+00 -0.00000000000E+00 -0.95971919956E+03  0.95971919956E+03  0.00000000000E+00 0. -1.
         25    1    1    2    0    0  0.95725432865E+01 -0.63035023088E+02 -0.31963839042E+03  0.34732369391E+03  0.12000000000E+03 0.  0.
         25    1    1    2    0    0 -0.95725432865E+01  0.63035023088E+02 -0.61886674147E+03  0.63360957333E+03  0.12000000000E+03 0.  0.
<mgrwt>
<rscale>  0 0.28537378E+03</rscale>
<asrwt>0</asrwt>
<pdfrwt beam="1">  1        1 0.32637026E-02 0.28537378E+03</pdfrwt>
<pdfrwt beam="2">  1       -1 0.14764911E+00 0.28537378E+03</pdfrwt>
<totfact> 0.11932797E+03</totfact>
</mgrwt>
</event>
<event>
 4    1  0.1726503E-004  0.2426806E+03  0.7818608E-02  0.1118020E+00
          2   -1    0    0  501    0  0.00000000000E+00  0.00000000000E+00  0.17360287957E+04  0.17360287957E+04  0.00000000000E+00 0. -1.
         -2   -1    0    0    0  501 -0.00000000000E+00 -0.00000000000E+00 -0.84811231443E+01  0.84811231443E+01  0.00000000000E+00 0. -1.
         25    1    1    2    0    0  0.81256055979E+01  0.15840813239E+02  0.88212517539E+03  0.89042786450E+03  0.12000000000E+03 0.  0.
         25    1    1    2    0    0 -0.81256055979E+01 -0.15840813239E+02  0.84542249718E+03  0.85408205436E+03  0.12000000000E+03 0.  0.
<mgrwt>
<rscale>  0 0.24268065E+03</rscale>
<asrwt>0</asrwt>
<pdfrwt beam="1">  1        2 0.26708107E+00 0.24268065E+03</pdfrwt>
<pdfrwt beam="2">  1       -2 0.13047896E-02 0.24268065E+03</pdfrwt>
<totfact> 0.14738444E+04</totfact>
</mgrwt>
</event>
<event>
 4    1  0.1726503E-004  0.2798783E+03  0.7818608E-02  0.1095755E+00
          1   -1    0    0  501    0  0.00000000000E+00  0.00000000000E+00  0.10680089311E+04  0.10680089311E+04  0.00000000000E+00 0.  1.
         -1   -1    0    0    0  501 -0.00000000000E+00 -0.00000000000E+00 -0.18335955584E+02  0.18335955584E+02  0.00000000000E+00 0.  1.
         25    1    1    2    0    0 -0.49383158397E+01  0.12793255206E+02  0.25051340955E+03  0.27810973142E+03  0.12000000000E+03 0.  0.
         25    1    1    2    0    0  0.49383158397E+01 -0.12793255206E+02  0.79915956592E+03  0.80823515523E+03  0.12000000000E+03 0.  0.
<mgrwt>
<rscale>  0 0.27987829E+03</rscale>
<asrwt>0</asrwt>
<pdfrwt beam="1">  1        1 0.16430902E+00 0.27987829E+03</pdfrwt>
<pdfrwt beam="2">  1       -1 0.28209171E-02 0.27987829E+03</pdfrwt>
<totfact> 0.58823543E+03</totfact>
</mgrwt>
</event>
<event>
 4    1  0.1726503E-004  0.2424032E+03  0.7818608E-02  0.1118202E+00
          1   -1    0    0  501    0  0.00000000000E+00  0.00000000000E+00  0.25954939811E+02  0.25954939811E+02  0.00000000000E+00 0.  1.
         -1   -1    0    0    0  501 -0.00000000000E+00 -0.00000000000E+00 -0.56597430793E+03  0.56597430793E+03  0.00000000000E+00 0.  1.
         25    1    1    2    0    0  0.68034256934E+01 -0.15249700567E+02 -0.27810461315E+03  0.30334965934E+03  0.12000000000E+03 0.  0.
         25    1    1    2    0    0 -0.68034256934E+01  0.15249700567E+02 -0.26191475497E+03  0.28857958839E+03  0.12000000000E+03 0.  0.
<mgrwt>
<rscale>  0 0.24240321E+03</rscale>
<asrwt>0</asrwt>
<pdfrwt beam="1">  1        1 0.39930679E-02 0.24240321E+03</pdfrwt>
<pdfrwt beam="2">  1       -1 0.87072965E-01 0.24240321E+03</pdfrwt>
<totfact> 0.30869759E+03</totfact>
</mgrwt>
</event>
<event>
 4    1  0.1726503E-004  0.2790999E+03  0.7818608E-02  0.1096182E+00
         -1   -1    0    0    0  501 -0.00000000000E+00  0.00000000000E+00  0.30667026634E+02  0.30667026634E+02  0.00000000000E+00 0.  1.
          1   -1    0    0  501    0  0.00000000000E+00 -0.00000000000E+00 -0.63502048356E+03  0.63502048356E+03  0.00000000000E+00 0.  1.
         25    1    1    2    0    0 -0.66379675014E+02 -0.25835405936E+02 -0.30379550065E+03  0.33431337943E+03  0.12000000000E+03 0.  0.
         25    1    1    2    0    0  0.66379675014E+02  0.25835405936E+02 -0.30055795628E+03  0.33137413076E+03  0.12000000000E+03 0.  0.
<mgrwt>
<rscale>  0 0.27909991E+03</rscale>
<asrwt>0</asrwt>
<pdfrwt beam="1">  1        1 0.97695454E-01 0.27909991E+03</pdfrwt>
<pdfrwt beam="2">  1       -1 0.47180043E-02 0.27909991E+03</pdfrwt>
<totfact> 0.62172340E+03</totfact>
</mgrwt>
</event>
<event>
 4    1  0.1726503E-004  0.2751496E+03  0.7818608E-02  0.1098368E+00
          2   -1    0    0  501    0  0.00000000000E+00  0.00000000000E+00  0.60017489641E+03  0.60017489641E+03  0.00000000000E+00 0.  1.
         -2   -1    0    0    0  501 -0.00000000000E+00 -0.00000000000E+00 -0.31535513891E+02  0.31535513891E+02  0.00000000000E+00 0.  1.
         25    1    1    2    0    0  0.31870327303E+02 -0.30249178184E+02  0.16734031212E+03  0.21055524359E+03  0.12000000000E+03 0.  0.
         25    1    1    2    0    0 -0.31870327303E+02  0.30249178184E+02  0.40129907040E+03  0.42115516671E+03  0.12000000000E+03 0.  0.
<mgrwt>
<rscale>  0 0.27514959E+03</rscale>
<asrwt>0</asrwt>
<pdfrwt beam="1">  1        2 0.92334591E-01 0.27514959E+03</pdfrwt>
<pdfrwt beam="2">  1       -2 0.48516180E-02 0.27514959E+03</pdfrwt>
<totfact> 0.10291980E+04</totfact>
</mgrwt>
</event>
<event>
 4    1  0.1726503E-004  0.2542796E+03  0.7818608E-02  0.1110630E+00
          2   -1    0    0  501    0  0.00000000000E+00  0.00000000000E+00  0.13630195586E+03  0.13630195586E+03  0.00000000000E+00 0. -1.
         -2   -1    0    0    0  501 -0.00000000000E+00 -0.00000000000E+00 -0.11859351516E+03  0.11859351516E+03  0.00000000000E+00 0. -1.
         25    1    1    2    0    0  0.29233101063E+02  0.22944368768E+02  0.28485058779E+02  0.12881155550E+03  0.12000000000E+03 0.  0.
         25    1    1    2    0    0 -0.29233101063E+02 -0.22944368768E+02 -0.10776618079E+02  0.12608391552E+03  0.12000000000E+03 0.  0.
<mgrwt>
<rscale>  0 0.25427959E+03</rscale>
<asrwt>0</asrwt>
<pdfrwt beam="1">  1        2 0.20969532E-01 0.25427959E+03</pdfrwt>
<pdfrwt beam="2">  1       -2 0.18245156E-01 0.25427959E+03</pdfrwt>
<totfact> 0.63898781E+03</totfact>
</mgrwt>
</event>
<event>
 4    1  0.1726503E-004  0.3208923E+03  0.7818608E-02  0.1075239E+00
          1   -1    0    0  501    0  0.00000000000E+00  0.00000000000E+00  0.45326904447E+03  0.45326904447E+03  0.00000000000E+00 0.  1.
         -1   -1    0    0    0  501 -0.00000000000E+00 -0.00000000000E+00 -0.56794016690E+02  0.56794016690E+02  0.00000000000E+00 0.  1.
         25    1    1    2    0    0 -0.19685941912E+02 -0.10300536222E+03  0.22777550163E+03  0.27799158278E+03  0.12000000000E+03 0.  0.
         25    1    1    2    0    0  0.19685941912E+02  0.10300536222E+03  0.16869952616E+03  0.23207147838E+03  0.12000000000E+03 0.  0.
<mgrwt>
<rscale>  0 0.32089232E+03</rscale>
<asrwt>0</asrwt>
<pdfrwt beam="1">  1        1 0.69733697E-01 0.32089232E+03</pdfrwt>
<pdfrwt beam="2">  1       -1 0.87375413E-02 0.32089232E+03</pdfrwt>
<totfact> 0.38698945E+03</totfact>
</mgrwt>
</event>
<event>
 4    1  0.1726503E-004  0.2917829E+03  0.7818608E-02  0.1089422E+00
          2   -1    0    0  501    0  0.00000000000E+00  0.00000000000E+00  0.31801994377E+02  0.31801994377E+02  0.00000000000E+00 0.  1.
         -2   -1    0    0    0  501 -0.00000000000E+00 -0.00000000000E+00 -0.66927630251E+03  0.66927630251E+03  0.00000000000E+00 0.  1.
         25    1    1    2    0    0  0.51718175744E+02 -0.53190936673E+02 -0.40800386969E+03  0.43170731187E+03  0.12000000000E+03 0.  0.
         25    1    1    2    0    0 -0.51718175744E+02  0.53190936673E+02 -0.22947043845E+03  0.26937098501E+03  0.12000000000E+03 0.  0.
<mgrwt>
<rscale>  0 0.29178294E+03</rscale>
<asrwt>0</asrwt>
<pdfrwt beam="1">  1        2 0.48926148E-02 0.29178294E+03</pdfrwt>
<pdfrwt beam="2">  1       -2 0.10296558E+00 0.29178294E+03</pdfrwt>
<totfact> 0.12975770E+03</totfact>
</mgrwt>
</event>
<event>
 4    1  0.1726503E-004  0.2438914E+03  0.7818608E-02  0.1117227E+00
          1   -1    0    0  501    0  0.00000000000E+00  0.00000000000E+00  0.17798203952E+04  0.17798203952E+04  0.00000000000E+00 0.  1.
         -1   -1    0    0    0  501 -0.00000000000E+00 -0.00000000000E+00 -0.83551988678E+01  0.83551988678E+01  0.00000000000E+00 0.  1.
         25    1    1    2    0    0  0.15332845626E+02  0.15279506771E+02  0.89659232804E+03  0.90484604336E+03  0.12000000000E+03 0.  0.
         25    1    1    2    0    0 -0.15332845626E+02 -0.15279506771E+02  0.87487286832E+03  0.88332955074E+03  0.12000000000E+03 0.  0.
<mgrwt>
<rscale>  0 0.24389140E+03</rscale>
<asrwt>0</asrwt>
<pdfrwt beam="1">  1        1 0.27381822E+00 0.24389140E+03</pdfrwt>
<pdfrwt beam="2">  1       -1 0.12854166E-02 0.24389140E+03</pdfrwt>
<totfact> 0.61174035E+03</totfact>
</mgrwt>
</event>
<event>
 4    1  0.1726503E-004  0.3574057E+03  0.7818608E-02  0.1059616E+00
         -2   -1    0    0    0  501 -0.00000000000E+00  0.00000000000E+00  0.30887649586E+02  0.30887649586E+02  0.00000000000E+00 0.  1.
          2   -1    0    0  501    0  0.00000000000E+00 -0.00000000000E+00 -0.10338992179E+04  0.10338992179E+04  0.00000000000E+00 0.  1.
         25    1    1    2    0    0 -0.86727417287E+02  0.96816458687E+02 -0.57685360862E+03  0.60336983465E+03  0.12000000000E+03 0.  0.
         25    1    1    2    0    0  0.86727417287E+02 -0.96816458687E+02 -0.42615795965E+03  0.46141703280E+03  0.12000000000E+03 0.  0.
<mgrwt>
<rscale>  0 0.35740575E+03</rscale>
<asrwt>0</asrwt>
<pdfrwt beam="1">  1        2 0.15906141E+00 0.35740575E+03</pdfrwt>
<pdfrwt beam="2">  1       -2 0.47519462E-02 0.35740575E+03</pdfrwt>
<totfact> 0.53188009E+03</totfact>
</mgrwt>
</event>
<event>
 4    1  0.1726503E-004  0.2707488E+03  0.7818608E-02  0.1100852E+00
          2   -1    0    0  501    0  0.00000000000E+00  0.00000000000E+00  0.85644623192E+03  0.85644623192E+03  0.00000000000E+00 0.  1.
         -2   -1    0    0    0  501 -0.00000000000E+00 -0.00000000000E+00 -0.21397983061E+02  0.21397983061E+02  0.00000000000E+00 0.  1.
         25    1    1    2    0    0 -0.50948066667E+02  0.30928885530E+02  0.48022023881E+03  0.49856171055E+03  0.12000000000E+03 0.  0.
         25    1    1    2    0    0  0.50948066667E+02 -0.30928885530E+02  0.35482801005E+03  0.37928250443E+03  0.12000000000E+03 0.  0.
<mgrwt>
<rscale>  0 0.27074875E+03</rscale>
<asrwt>0</asrwt>
<pdfrwt beam="1">  1        2 0.13176093E+00 0.27074875E+03</pdfrwt>
<pdfrwt beam="2">  1       -2 0.32919981E-02 0.27074875E+03</pdfrwt>
<totfact> 0.11916525E+04</totfact>
</mgrwt>
</event>
<event>
 4    1  0.1726503E-004  0.2557983E+03  0.7818608E-02  0.1109694E+00
         -2   -1    0    0    0  501 -0.00000000000E+00  0.00000000000E+00  0.13216243748E+02  0.13216243748E+02  0.00000000000E+00 0.  1.
          2   -1    0    0  501    0  0.00000000000E+00 -0.00000000000E+00 -0.12377334961E+04  0.12377334961E+04  0.00000000000E+00 0.  1.
         25    1    1    2    0    0  0.38999658435E+02 -0.10243025445E+02 -0.52311219756E+03  0.53821209961E+03  0.12000000000E+03 0.  0.
         25    1    1    2    0    0 -0.38999658435E+02  0.10243025445E+02 -0.70140505480E+03  0.71273764025E+03  0.12000000000E+03 0.  0.
<mgrwt>
<rscale>  0 0.25579826E+03</rscale>
<asrwt>0</asrwt>
<pdfrwt beam="1">  1        2 0.19042057E+00 0.25579826E+03</pdfrwt>
<pdfrwt beam="2">  1       -2 0.20332680E-02 0.25579826E+03</pdfrwt>
<totfact> 0.14291358E+04</totfact>
</mgrwt>
</event>
<event>
 4    1  0.1726503E-004  0.2613914E+03  0.7818608E-02  0.1106310E+00
         -2   -1    0    0    0  501 -0.00000000000E+00  0.00000000000E+00  0.49857002261E+01  0.49857002261E+01  0.00000000000E+00 0.  1.
          2   -1    0    0  501    0  0.00000000000E+00 -0.00000000000E+00 -0.34260717155E+04  0.34260717155E+04  0.00000000000E+00 0.  1.
         25    1    1    2    0    0 -0.51492889275E+02  0.15736000908E+01 -0.16418685537E+04  0.16470538369E+04  0.12000000000E+03 0.  0.
         25    1    1    2    0    0  0.51492889275E+02 -0.15736000908E+01 -0.17792174616E+04  0.17840035789E+04  0.12000000000E+03 0.  0.
<mgrwt>
<rscale>  0 0.26139140E+03</rscale>
<asrwt>0</asrwt>
<pdfrwt beam="1">  1        2 0.52708949E+00 0.26139140E+03</pdfrwt>
<pdfrwt beam="2">  1       -2 0.76702857E-03 0.26139140E+03</pdfrwt>
<totfact> 0.35579894E+03</totfact>
</mgrwt>
</event>
