<event>
 9    1  0.7944303E-001  0.2737520E+03  0.7818608E-02  0.1099151E+00
         -1   -1    0    0    0  501 -0.00000000000E+00  0.00000000000E+00  0.19927669780E+03  0.19927669780E+03  0.00000000000E+00 0.  1.
          1   -1    0    0  501    0  0.00000000000E+00 -0.00000000000E+00 -0.94015180348E+02  0.94015180348E+02  0.00000000000E+00 0.  1.
         35    2    1    2    0    0  0.00000000000E+00  0.00000000000E+00  0.10526151745E+03  0.29329187815E+03  0.27375196571E+03 0.  0.
         25    2    3    3    0    0  0.96880292818E+01  0.55750815862E+02  0.63163106129E+02  0.15131986756E+03  0.12532403186E+03 0.  0.
         25    2    3    3    0    0 -0.96880292818E+01 -0.55750815862E+02  0.42098411324E+02  0.14197201058E+03  0.12321430182E+03 0.  0.
          5    1    4    4  502    0  0.75542233927E+01 -0.37577106855E+02  0.38766753220E+02  0.54717971508E+02  0.47000000000E+01 0.  1.
         -5    1    4    4    0  502  0.21338058891E+01  0.93327922717E+02  0.24396352908E+02  0.96601896056E+02  0.47000000000E+01 0.  1.
          5    1    5    5  503    0  0.55407438535E+02 -0.36331344262E+02  0.11888902875E+02  0.67478788019E+02  0.47000000000E+01 0.  1.
         -5    1    5    5    0  503 -0.65095467817E+02 -0.19419471600E+02  0.30209508449E+02  0.74493222566E+02  0.47000000000E+01 0.  1.
<mgrwt>
<rscale>  0 0.27375197E+03</rscale>
<asrwt>0</asrwt>
<pdfrwt beam="1">  1        1 0.14463874E-01 0.27375197E+03</pdfrwt>
<pdfrwt beam="2">  1       -1 0.30657953E-01 0.27375197E+03</pdfrwt>
<totfact> 0.38277942E+03</totfact>
</mgrwt>
</event>
<event>
 9    1  0.7944303E-001  0.2726600E+03  0.7818608E-02  0.1099767E+00
          1   -1    0    0  501    0  0.00000000000E+00  0.00000000000E+00  0.87887726891E+03  0.87887726891E+03  0.00000000000E+00 0.  1.
         -1   -1    0    0    0  501 -0.00000000000E+00 -0.00000000000E+00 -0.21147289222E+02  0.21147289222E+02  0.00000000000E+00 0.  1.
         35    2    1    2    0    0  0.35527136788E-14  0.00000000000E+00  0.85772997968E+03  0.90002455813E+03  0.27266002125E+03 0.  0.
         25    2    3    3    0    0 -0.16847223943E+02  0.49284748723E+02  0.43005203403E+03  0.45098173375E+03  0.12540716402E+03 0.  0.
         25    2    3    3    0    0  0.16847223943E+02 -0.49284748723E+02  0.42767794565E+03  0.44904282438E+03  0.12656309699E+03 0.  0.
          5    1    4    4  502    0  0.10810748119E+02  0.80669242854E+02  0.18257877851E+03  0.19995374310E+03  0.47000000000E+01 0.  1.
         -5    1    4    4    0  502 -0.27657972061E+02 -0.31384494131E+02  0.24747325552E+03  0.25102799065E+03  0.47000000000E+01 0.  1.
          5    1    5    5  503    0  0.64641050246E+02 -0.49521622746E+01  0.28168920877E+03  0.28909149006E+03  0.47000000000E+01 0.  1.
         -5    1    5    5    0  503 -0.47793826304E+02 -0.44332586448E+02  0.14598873688E+03  0.15995133432E+03  0.47000000000E+01 0.  1.
<mgrwt>
<rscale>  0 0.27266002E+03</rscale>
<asrwt>0</asrwt>
<pdfrwt beam="1">  1        1 0.13521186E+00 0.27266002E+03</pdfrwt>
<pdfrwt beam="2">  1       -1 0.32534298E-02 0.27266002E+03</pdfrwt>
<totfact> 0.66286994E+03</totfact>
</mgrwt>
</event>
<event>
 9    1  0.7944303E-001  0.2785515E+03  0.7818608E-02  0.1096483E+00
         -2   -1    0    0    0  501 -0.00000000000E+00  0.00000000000E+00  0.21207695951E+03  0.21207695951E+03  0.00000000000E+00 0. -1.
          2   -1    0    0  501    0  0.00000000000E+00 -0.00000000000E+00 -0.91465540894E+02  0.91465540894E+02  0.00000000000E+00 0. -1.
         35    2    1    2    0    0 -0.71054273576E-14  0.00000000000E+00  0.12061141862E+03  0.30354250040E+03  0.27855149479E+03 0.  0.
         25    2    3    3    0    0 -0.17362344378E+02 -0.39950016844E+02  0.13754544138E+02  0.13229553771E+03  0.12415903900E+03 0.  0.
         25    2    3    3    0    0  0.17362344378E+02  0.39950016844E+02  0.10685687448E+03  0.17124696269E+03  0.12652934742E+03 0.  0.
          5    1    4    4  502    0 -0.52882971674E+02 -0.40209583750E+02 -0.32238912648E+02  0.73992275321E+02  0.47000000000E+01 0. -1.
         -5    1    4    4    0  502  0.35520627297E+02  0.25956690692E+00  0.45993456785E+02  0.58303262392E+02  0.47000000000E+01 0. -1.
          5    1    5    5  503    0  0.53094625240E+02 -0.17084165832E+02  0.16257004997E+02  0.58286260500E+02  0.47000000000E+01 0. -1.
         -5    1    5    5    0  503 -0.35732280863E+02  0.57034182676E+02  0.90599869481E+02  0.11296070219E+03  0.47000000000E+01 0. -1.
<mgrwt>
<rscale>  0 0.27855149E+03</rscale>
<asrwt>0</asrwt>
<pdfrwt beam="1">  1        2 0.14071622E-01 0.27855149E+03</pdfrwt>
<pdfrwt beam="2">  1       -2 0.32627225E-01 0.27855149E+03</pdfrwt>
<totfact> 0.36693415E+03</totfact>
</mgrwt>
</event>
<event>
 9    1  0.7944303E-001  0.2760786E+03  0.7818608E-02  0.1097850E+00
          1   -1    0    0  501    0  0.00000000000E+00  0.00000000000E+00  0.14132145117E+04  0.14132145117E+04  0.00000000000E+00 0.  1.
         -1   -1    0    0    0  501 -0.00000000000E+00 -0.00000000000E+00 -0.13483339245E+02  0.13483339245E+02  0.00000000000E+00 0.  1.
         35    2    1    2    0    0 -0.71054273576E-14  0.00000000000E+00  0.13997311725E+04  0.14266978510E+04  0.27607861697E+03 0.  0.
         25    2    3    3    0    0 -0.62955413768E+01 -0.59257936388E+02  0.72068146216E+03  0.73379991414E+03  0.12461704226E+03 0.  0.
         25    2    3    3    0    0  0.62955413768E+01  0.59257936388E+02  0.67904971033E+03  0.69289793684E+03  0.12428960099E+03 0.  0.
          5    1    4    4  502    0 -0.35967027325E+02  0.30445572511E+01  0.52488276478E+03  0.52614342451E+03  0.47000000000E+01 0.  1.
         -5    1    4    4    0  502  0.29671485948E+02 -0.62302493639E+02  0.19579869737E+03  0.20765648963E+03  0.47000000000E+01 0.  1.
          5    1    5    5  503    0 -0.51913149364E+02  0.38778604148E+02  0.48200639806E+03  0.48636510256E+03  0.47000000000E+01 0. -1.
         -5    1    5    5    0  503  0.58208690741E+02  0.20479332239E+02  0.19704331227E+03  0.20653283428E+03  0.47000000000E+01 0. -1.
<mgrwt>
<rscale>  0 0.27607862E+03</rscale>
<asrwt>0</asrwt>
<pdfrwt beam="1">  1        1 0.21741750E+00 0.27607862E+03</pdfrwt>
<pdfrwt beam="2">  1       -1 0.20743610E-02 0.27607862E+03</pdfrwt>
<totfact> 0.53152212E+03</totfact>
</mgrwt>
</event>
<event>
 9    1  0.7944303E-001  0.2754092E+03  0.7818608E-02  0.1098223E+00
          1   -1    0    0  501    0  0.00000000000E+00  0.00000000000E+00  0.10521893899E+04  0.10521893899E+04  0.00000000000E+00 0.  1.
         -1   -1    0    0    0  501 -0.00000000000E+00 -0.00000000000E+00 -0.18022000680E+02  0.18022000680E+02  0.00000000000E+00 0.  1.
         35    2    1    2    0    0  0.00000000000E+00 -0.71054273576E-14  0.10341673893E+04  0.10702113906E+04  0.27540920755E+03 0.  0.
         25    2    3    3    0    0  0.94311489724E+01  0.14219428585E+02  0.76806358977E+03  0.77845810504E+03  0.12563520465E+03 0.  0.
         25    2    3    3    0    0 -0.94311489724E+01 -0.14219428585E+02  0.26610379949E+03  0.29175328558E+03  0.11839598315E+03 0.  0.
          5    1    4    4  502    0 -0.18955953873E+02  0.64110455159E+02  0.34049169128E+03  0.34702472603E+03  0.47000000000E+01 0. -1.
         -5    1    4    4    0  502  0.28387102846E+02 -0.49891026574E+02  0.42757189849E+03  0.43143337901E+03  0.47000000000E+01 0. -1.
          5    1    5    5  503    0 -0.27268056954E+01  0.40357319292E+02  0.33613067055E+02  0.52802243954E+02  0.47000000000E+01 0. -1.
         -5    1    5    5    0  503 -0.67043432771E+01 -0.54576747876E+02  0.23249073244E+03  0.23895104163E+03  0.47000000000E+01 0. -1.
<mgrwt>
<rscale>  0 0.27540921E+03</rscale>
<asrwt>0</asrwt>
<pdfrwt beam="1">  1        1 0.16187524E+00 0.27540921E+03</pdfrwt>
<pdfrwt beam="2">  1       -1 0.27726163E-02 0.27540921E+03</pdfrwt>
<totfact> 0.61949517E+03</totfact>
</mgrwt>
</event>
<event>
 9    1  0.7944303E-001  0.2752477E+03  0.7818608E-02  0.1098313E+00
          2   -1    0    0  501    0  0.00000000000E+00  0.00000000000E+00  0.43703271484E+03  0.43703271484E+03  0.00000000000E+00 0. -1.
         -2   -1    0    0    0  501 -0.00000000000E+00 -0.00000000000E+00 -0.43338449803E+02  0.43338449803E+02  0.00000000000E+00 0. -1.
         35    2    1    2    0    0  0.00000000000E+00  0.00000000000E+00  0.39369426504E+03  0.48037116465E+03  0.27524767301E+03 0.  0.
         25    2    3    3    0    0  0.42963864313E+02  0.21525554927E+02  0.16746618802E+03  0.21598211429E+03  0.12764837019E+03 0.  0.
         25    2    3    3    0    0 -0.42963864313E+02 -0.21525554927E+02  0.22622807702E+03  0.26438905035E+03  0.12811394914E+03 0.  0.
          5    1    4    4  502    0  0.57960011857E+02 -0.51005130888E+01  0.17472958483E+03  0.18422240913E+03  0.47000000000E+01 0. -1.
         -5    1    4    4    0  502 -0.14996147544E+02  0.26626068016E+02 -0.72633968099E+01  0.31759705169E+02  0.47000000000E+01 0. -1.
          5    1    5    5  503    0 -0.31426579014E+01  0.31996051810E+02  0.18043540015E+03  0.18333752277E+03  0.47000000000E+01 0.  1.
         -5    1    5    5    0  503 -0.39821206412E+02 -0.53521606738E+02  0.45792676870E+02  0.81051527578E+02  0.47000000000E+01 0.  1.
<mgrwt>
<rscale>  0 0.27524767E+03</rscale>
<asrwt>0</asrwt>
<pdfrwt beam="1">  1        2 0.67235799E-01 0.27524767E+03</pdfrwt>
<pdfrwt beam="2">  1       -2 0.66674541E-02 0.27524767E+03</pdfrwt>
<totfact> 0.90422910E+03</totfact>
</mgrwt>
</event>
<event>
 9    1  0.7944303E-001  0.2725806E+03  0.7818608E-02  0.1099812E+00
         -2   -1    0    0    0  501 -0.00000000000E+00  0.00000000000E+00  0.12094143008E+02  0.12094143008E+02  0.00000000000E+00 0.  1.
          2   -1    0    0  501    0  0.00000000000E+00 -0.00000000000E+00 -0.15358708868E+04  0.15358708868E+04  0.00000000000E+00 0.  1.
         35    2    1    2    0    0  0.00000000000E+00  0.71054273576E-14 -0.15237767438E+04  0.15479650298E+04  0.27258057265E+03 0.  0.
         25    2    3    3    0    0 -0.16052558860E+02  0.49746892697E+02 -0.78176170987E+03  0.79344095437E+03  0.12515885536E+03 0.  0.
         25    2    3    3    0    0  0.16052558860E+02 -0.49746892697E+02 -0.74201503388E+03  0.75452407540E+03  0.12644299849E+03 0.  0.
          5    1    4    4  502    0 -0.63429161066E+02  0.41693928867E+02 -0.30905757242E+03  0.31827710450E+03  0.47000000000E+01 0.  1.
         -5    1    4    4    0  502  0.47376602206E+02  0.80529638296E+01 -0.47270413745E+03  0.47516384987E+03  0.47000000000E+01 0.  1.
          5    1    5    5  503    0  0.62779513537E+02 -0.52365644537E+02 -0.33789160164E+03  0.34767262261E+03  0.47000000000E+01 0. -1.
         -5    1    5    5    0  503 -0.46726954677E+02  0.26187518404E+01 -0.40412343224E+03  0.40685145279E+03  0.47000000000E+01 0. -1.
<mgrwt>
<rscale>  0 0.27258057E+03</rscale>
<asrwt>0</asrwt>
<pdfrwt beam="1">  1        2 0.23628803E+00 0.27258057E+03</pdfrwt>
<pdfrwt beam="2">  1       -2 0.18606358E-02 0.27258057E+03</pdfrwt>
<totfact> 0.11221606E+04</totfact>
</mgrwt>
</event>
<event>
 9    1  0.7944303E-001  0.2713155E+03  0.7818608E-02  0.1100529E+00
         -1   -1    0    0    0  501 -0.00000000000E+00  0.00000000000E+00  0.33531849239E+02  0.33531849239E+02  0.00000000000E+00 0. -1.
          1   -1    0    0  501    0  0.00000000000E+00 -0.00000000000E+00 -0.54882225258E+03  0.54882225258E+03  0.00000000000E+00 0. -1.
         35    2    1    2    0    0  0.71054273576E-14  0.00000000000E+00 -0.51529040334E+03  0.58235410182E+03  0.27131549925E+03 0.  0.
         25    2    3    3    0    0 -0.11572371570E+02  0.36528703916E+02 -0.33405857812E+03  0.35873489901E+03  0.12500931229E+03 0.  0.
         25    2    3    3    0    0  0.11572371570E+02 -0.36528703916E+02 -0.18123182523E+03  0.22361920281E+03  0.12526894028E+03 0.  0.
          5    1    4    4  502    0 -0.57833210413E+02  0.52138494390E+02 -0.16169837429E+03  0.17953149326E+03  0.47000000000E+01 0.  1.
         -5    1    4    4    0  502  0.46260838842E+02 -0.15609790473E+02 -0.17236020383E+03  0.17920340575E+03  0.47000000000E+01 0.  1.
          5    1    5    5  503    0  0.47157481765E+02 -0.26874921740E+02 -0.19806200531E+02  0.57969518580E+02  0.47000000000E+01 0. -1.
         -5    1    5    5    0  503 -0.35585110195E+02 -0.96537821768E+01 -0.16142562470E+03  0.16564968423E+03  0.47000000000E+01 0. -1.
<mgrwt>
<rscale>  0 0.27131550E+03</rscale>
<asrwt>0</asrwt>
<pdfrwt beam="1">  1        1 0.84434189E-01 0.27131550E+03</pdfrwt>
<pdfrwt beam="2">  1       -1 0.51587463E-02 0.27131550E+03</pdfrwt>
<totfact> 0.66496030E+03</totfact>
</mgrwt>
</event>
<event>
 9    1  0.7944303E-001  0.2794324E+03  0.7818608E-02  0.1095999E+00
          2   -1    0    0  501    0  0.00000000000E+00  0.00000000000E+00  0.50450475704E+02  0.50450475704E+02  0.00000000000E+00 0. -1.
         -2   -1    0    0    0  501 -0.00000000000E+00 -0.00000000000E+00 -0.38692640163E+03  0.38692640163E+03  0.00000000000E+00 0. -1.
         35    2    1    2    0    0  0.00000000000E+00  0.00000000000E+00 -0.33647592592E+03  0.43737687733E+03  0.27943243208E+03 0.  0.
         25    2    3    3    0    0  0.34136365866E+01 -0.46116388431E+02 -0.18491700608E+03  0.22830115107E+03  0.12565326197E+03 0.  0.
         25    2    3    3    0    0 -0.34136365866E+01  0.46116388431E+02 -0.15155891984E+03  0.20907572626E+03  0.13639713682E+03 0.  0.
          5    1    4    4  502    0  0.29478206379E+02 -0.41739522215E+02 -0.19344457464E+03  0.20013506895E+03  0.47000000000E+01 0. -1.
         -5    1    4    4    0  502 -0.26064569793E+02 -0.43768662158E+01  0.85275685562E+01  0.28166082117E+02  0.47000000000E+01 0. -1.
          5    1    5    5  503    0 -0.28991240557E+02  0.43511894018E+02  0.27507222765E+01  0.52568369037E+02  0.47000000000E+01 0.  1.
         -5    1    5    5    0  503  0.25577603971E+02  0.26044944124E+01 -0.15430964211E+03  0.15650735723E+03  0.47000000000E+01 0.  1.
<mgrwt>
<rscale>  0 0.27943243E+03</rscale>
<asrwt>0</asrwt>
<pdfrwt beam="1">  1        2 0.77616119E-02 0.27943243E+03</pdfrwt>
<pdfrwt beam="2">  1       -2 0.59527137E-01 0.27943243E+03</pdfrwt>
<totfact> 0.23716585E+03</totfact>
</mgrwt>
</event>
<event>
 9    1  0.7944303E-001  0.2761598E+03  0.7818608E-02  0.1097805E+00
         -2   -1    0    0    0  501 -0.00000000000E+00  0.00000000000E+00  0.76774199929E+02  0.76774199929E+02  0.00000000000E+00 0. -1.
          2   -1    0    0  501    0  0.00000000000E+00 -0.00000000000E+00 -0.24833934957E+03  0.24833934957E+03  0.00000000000E+00 0. -1.
         35    2    1    2    0    0  0.00000000000E+00  0.00000000000E+00 -0.17156514964E+03  0.32511354950E+03  0.27615977168E+03 0.  0.
         25    2    3    3    0    0 -0.50448458416E+02  0.19620296081E+02 -0.64584504657E+02  0.15175385159E+03  0.12620645885E+03 0.  0.
         25    2    3    3    0    0  0.50448458416E+02 -0.19620296081E+02 -0.10698064498E+03  0.17335969791E+03  0.12521470953E+03 0.  0.
          5    1    4    4  502    0 -0.86071279331E+02  0.14028746553E+02 -0.12488963058E+02  0.88222078041E+02  0.47000000000E+01 0. -1.
         -5    1    4    4    0  502  0.35622820915E+02  0.55915495276E+01 -0.52095541599E+02  0.63531773551E+02  0.47000000000E+01 0. -1.
          5    1    5    5  503    0  0.83623203833E+02 -0.47335194557E+01 -0.31797505134E+02  0.89712974304E+02  0.47000000000E+01 0.  1.
         -5    1    5    5    0  503 -0.33174745416E+02 -0.14886776625E+02 -0.75183139849E+02  0.83646723602E+02  0.47000000000E+01 0.  1.
<mgrwt>
<rscale>  0 0.27615977E+03</rscale>
<asrwt>0</asrwt>
<pdfrwt beam="1">  1        2 0.38206055E-01 0.27615977E+03</pdfrwt>
<pdfrwt beam="2">  1       -2 0.11811415E-01 0.27615977E+03</pdfrwt>
<totfact> 0.67652794E+03</totfact>
</mgrwt>
</event>
<event>
 9    1  0.7944303E-001  0.2657743E+03  0.7818608E-02  0.1103723E+00
          2   -1    0    0  501    0  0.00000000000E+00  0.00000000000E+00  0.13786611381E+04  0.13786611381E+04  0.00000000000E+00 0. -1.
         -2   -1    0    0    0  501 -0.00000000000E+00 -0.00000000000E+00 -0.12808803153E+02  0.12808803153E+02  0.00000000000E+00 0. -1.
         35    2    1    2    0    0  0.00000000000E+00 -0.88817841970E-15  0.13658523349E+04  0.13914699412E+04  0.26577433384E+03 0.  0.
         25    2    3    3    0    0 -0.38696362772E+02 -0.24462499502E+01  0.50648661324E+03  0.52228011640E+03  0.12142667731E+03 0.  0.
         25    2    3    3    0    0  0.38696362772E+02  0.24462499502E+01  0.85936572168E+03  0.86918982483E+03  0.12441107409E+03 0.  0.
          5    1    4    4  502    0  0.37554016708E+02  0.49041891892E+01  0.29185153137E+03  0.29433613711E+03  0.47000000000E+01 0. -1.
         -5    1    4    4    0  502 -0.76250379481E+02 -0.73504391394E+01  0.21463508187E+03  0.22794397929E+03  0.47000000000E+01 0. -1.
          5    1    5    5  503    0  0.26053913955E+02  0.22438294148E+02  0.58919698976E+02  0.68380584994E+02  0.47000000000E+01 0. -1.
         -5    1    5    5    0  503  0.12642448817E+02 -0.19992044197E+02  0.80044602270E+03  0.80080923983E+03  0.47000000000E+01 0. -1.
<mgrwt>
<rscale>  0 0.26577433E+03</rscale>
<asrwt>0</asrwt>
<pdfrwt beam="1">  1        2 0.21210160E+00 0.26577433E+03</pdfrwt>
<pdfrwt beam="2">  1       -2 0.19705862E-02 0.26577433E+03</pdfrwt>
<totfact> 0.12524617E+04</totfact>
</mgrwt>
</event>
<event>
 9    1  0.7944303E-001  0.2770145E+03  0.7818608E-02  0.1097331E+00
         -2   -1    0    0    0  501 -0.00000000000E+00  0.00000000000E+00  0.48971159292E+02  0.48971159292E+02  0.00000000000E+00 0.  1.
          2   -1    0    0  501    0  0.00000000000E+00 -0.00000000000E+00 -0.39174605582E+03  0.39174605582E+03  0.00000000000E+00 0.  1.
         35    2    1    2    0    0 -0.35527136788E-14 -0.71054273576E-14 -0.34277489653E+03  0.44071721511E+03  0.27701450144E+03 0.  0.
         25    2    3    3    0    0  0.18773062881E+02 -0.52295053622E+02 -0.13803352472E+03  0.19422530533E+03  0.12483194607E+03 0.  0.
         25    2    3    3    0    0 -0.18773062881E+02  0.52295053622E+02 -0.20474137181E+03  0.24649190978E+03  0.12550709835E+03 0.  0.
          5    1    4    4  502    0 -0.16748186833E+02  0.28732383749E+02 -0.83964847751E+02  0.90433607116E+02  0.47000000000E+01 0. -1.
         -5    1    4    4    0  502  0.35521249714E+02 -0.81027437371E+02 -0.54068676973E+02  0.10379169821E+03  0.47000000000E+01 0. -1.
          5    1    5    5  503    0  0.52911253155E+02  0.33256653371E+02 -0.86051120924E+02  0.10645417378E+03  0.47000000000E+01 0.  1.
         -5    1    5    5    0  503 -0.71684316036E+02  0.19038400251E+02 -0.11869025088E+03  0.14003773600E+03  0.47000000000E+01 0.  1.
<mgrwt>
<rscale>  0 0.27701450E+03</rscale>
<asrwt>0</asrwt>
<pdfrwt beam="1">  1        2 0.60268624E-01 0.27701450E+03</pdfrwt>
<pdfrwt beam="2">  1       -2 0.75340245E-02 0.27701450E+03</pdfrwt>
<totfact> 0.84324761E+03</totfact>
</mgrwt>
</event>
<event>
 9    1  0.7944303E-001  0.2750143E+03  0.7818608E-02  0.1098444E+00
          1   -1    0    0  501    0  0.00000000000E+00  0.00000000000E+00  0.28013199203E+03  0.28013199203E+03  0.00000000000E+00 0.  1.
         -1   -1    0    0    0  501 -0.00000000000E+00 -0.00000000000E+00 -0.67497525062E+02  0.67497525062E+02  0.00000000000E+00 0.  1.
         35    2    1    2    0    0  0.00000000000E+00  0.71054273576E-14  0.21263446697E+03  0.34762951709E+03  0.27501429892E+03 0.  0.
         25    2    3    3    0    0  0.38739854011E+02 -0.41544606273E+02  0.11929898681E+03  0.18112690751E+03  0.12388695561E+03 0.  0.
         25    2    3    3    0    0 -0.38739854011E+02  0.41544606273E+02  0.93335480159E+02  0.16650260958E+03  0.12563787861E+03 0.  0.
          5    1    4    4  502    0  0.23939526384E+02 -0.77905684317E+02  0.11545631994E+03  0.14140243416E+03  0.47000000000E+01 0.  1.
         -5    1    4    4    0  502  0.14800327627E+02  0.36361078044E+02  0.38426668723E+01  0.39724473352E+02  0.47000000000E+01 0.  1.
          5    1    5    5  503    0  0.25558347863E+02  0.56590450963E+02  0.15215140924E+02  0.64103812671E+02  0.47000000000E+01 0.  1.
         -5    1    5    5    0  503 -0.64298201874E+02 -0.15045844690E+02  0.78120339236E+02  0.10239879691E+03  0.47000000000E+01 0.  1.
<mgrwt>
<rscale>  0 0.27501430E+03</rscale>
<asrwt>0</asrwt>
<pdfrwt beam="1">  1        1 0.43097229E-01 0.27501430E+03</pdfrwt>
<pdfrwt beam="2">  1       -1 0.10384235E-01 0.27501430E+03</pdfrwt>
<totfact> 0.54568595E+03</totfact>
</mgrwt>
</event>
<event>
 9    1  0.7944303E-001  0.2828072E+03  0.7818608E-02  0.1094165E+00
          2   -1    0    0  501    0  0.00000000000E+00  0.00000000000E+00  0.26100254667E+03  0.26100254667E+03  0.00000000000E+00 0. -1.
         -2   -1    0    0    0  501 -0.00000000000E+00 -0.00000000000E+00 -0.76608380165E+02  0.76608380165E+02  0.00000000000E+00 0. -1.
         35    2    1    2    0    0  0.71054273576E-14  0.71054273576E-14  0.18439416651E+03  0.33761092684E+03  0.28280722989E+03 0.  0.
         25    2    3    3    0    0  0.26446110364E+02  0.33622175935E+02  0.26988466792E+02  0.13220877843E+03  0.12215128442E+03 0.  0.
         25    2    3    3    0    0 -0.26446110364E+02 -0.33622175935E+02  0.15740569972E+03  0.20540214841E+03  0.12483445358E+03 0.  0.
          5    1    4    4  502    0 -0.31584961675E+02 -0.22605830136E+02 -0.13908796349E+02  0.41523222129E+02  0.47000000000E+01 0. -1.
         -5    1    4    4    0  502  0.58031072039E+02  0.56228006070E+02  0.40897263141E+02  0.90685556298E+02  0.47000000000E+01 0. -1.
          5    1    5    5  503    0 -0.53804119248E+02 -0.66807690190E+02  0.83728938084E+02  0.11996155963E+03  0.47000000000E+01 0. -1.
         -5    1    5    5    0  503  0.27358008884E+02  0.33185514256E+02  0.73676761633E+02  0.85440588781E+02  0.47000000000E+01 0. -1.
<mgrwt>
<rscale>  0 0.28280723E+03</rscale>
<asrwt>0</asrwt>
<pdfrwt beam="1">  1        2 0.40154237E-01 0.28280723E+03</pdfrwt>
<pdfrwt beam="2">  1       -2 0.11785905E-01 0.28280723E+03</pdfrwt>
<totfact> 0.64393519E+03</totfact>
</mgrwt>
</event>
<event>
 9    1  0.7944303E-001  0.2729095E+03  0.7818608E-02  0.1099626E+00
          2   -1    0    0  501    0  0.00000000000E+00  0.00000000000E+00  0.12386973023E+04  0.12386973023E+04  0.00000000000E+00 0.  1.
         -2   -1    0    0    0  501 -0.00000000000E+00 -0.00000000000E+00 -0.15031837080E+02  0.15031837080E+02  0.00000000000E+00 0.  1.
         35    2    1    2    0    0 -0.35527136788E-14  0.00000000000E+00  0.12236654652E+04  0.12537291394E+04  0.27290947978E+03 0.  0.
         25    2    3    3    0    0  0.24180014892E+02 -0.36835103518E+02  0.46495241839E+03  0.48361634568E+03  0.12554887682E+03 0.  0.
         25    2    3    3    0    0 -0.24180014892E+02  0.36835103518E+02  0.75871304680E+03  0.77011279367E+03  0.12444568943E+03 0.  0.
          5    1    4    4  502    0 -0.28825979959E+02  0.33759889349E+02  0.15902124450E+03  0.16516813692E+03  0.47000000000E+01 0. -1.
         -5    1    4    4    0  502  0.53005994851E+02 -0.70594992867E+02  0.30593117389E+03  0.31844820876E+03  0.47000000000E+01 0. -1.
          5    1    5    5  503    0 -0.43296516781E+01 -0.17779290845E+02  0.15013941276E+02  0.24132084436E+02  0.47000000000E+01 0.  1.
         -5    1    5    5    0  503 -0.19850363214E+02  0.54614394363E+02  0.74369910553E+03  0.74598070924E+03  0.47000000000E+01 0.  1.
<mgrwt>
<rscale>  0 0.27290948E+03</rscale>
<asrwt>0</asrwt>
<pdfrwt beam="1">  1        2 0.19056873E+00 0.27290948E+03</pdfrwt>
<pdfrwt beam="2">  1       -2 0.23125913E-02 0.27290948E+03</pdfrwt>
<totfact> 0.11831561E+04</totfact>
</mgrwt>
</event>
<event>
 9    1  0.7944303E-001  0.2689839E+03  0.7818608E-02  0.1101863E+00
         -4   -1    0    0    0  501 -0.00000000000E+00  0.00000000000E+00  0.94413105074E+01  0.94413105074E+01  0.00000000000E+00 0. -1.
          4   -1    0    0  501    0  0.00000000000E+00 -0.00000000000E+00 -0.19158442082E+04  0.19158442082E+04  0.00000000000E+00 0. -1.
         35    2    1    2    0    0  0.35527136788E-14  0.00000000000E+00 -0.19064028977E+04  0.19252855187E+04  0.26898386608E+03 0.  0.
         25    2    3    3    0    0 -0.24164601275E+02  0.29550217116E+02 -0.72492655107E+03  0.73650149770E+03  0.12433345641E+03 0.  0.
         25    2    3    3    0    0  0.24164601275E+02 -0.29550217116E+02 -0.11814763466E+04  0.11887840210E+04  0.12595216428E+03 0.  0.
          5    1    4    4  502    0  0.20501139230E+02  0.34975098505E+02 -0.78332392254E+02  0.88326711144E+02  0.47000000000E+01 0.  1.
         -5    1    4    4    0  502 -0.44665740505E+02 -0.54248813891E+01 -0.64659415882E+03  0.64817478656E+03  0.47000000000E+01 0.  1.
          5    1    5    5  503    0 -0.30561640087E+02 -0.34685719518E+02 -0.18377346896E+03  0.18955709134E+03  0.47000000000E+01 0.  1.
         -5    1    5    5    0  503  0.54726241362E+02  0.51355024016E+01 -0.99770287766E+03  0.99922692966E+03  0.47000000000E+01 0.  1.
<mgrwt>
<rscale>  0 0.26898387E+03</rscale>
<asrwt>0</asrwt>
<pdfrwt beam="1">  1        4 0.29474554E+00 0.26898387E+03</pdfrwt>
<pdfrwt beam="2">  1       -4 0.14525079E-02 0.26898387E+03</pdfrwt>
<totfact> 0.12102591E+02</totfact>
</mgrwt>
</event>
<event>
 9    1  0.7944303E-001  0.2761460E+03  0.7818608E-02  0.1097813E+00
          1   -1    0    0  501    0  0.00000000000E+00  0.00000000000E+00  0.81301908157E+02  0.81301908157E+02  0.00000000000E+00 0.  1.
         -1   -1    0    0    0  501 -0.00000000000E+00 -0.00000000000E+00 -0.23448595933E+03  0.23448595933E+03  0.00000000000E+00 0.  1.
         35    2    1    2    0    0  0.71054273576E-14 -0.71054273576E-14 -0.15318405117E+03  0.31578786748E+03  0.27614601883E+03 0.  0.
         25    2    3    3    0    0  0.18174862445E+02 -0.47439465379E+02 -0.51430555639E+02  0.14709407299E+03  0.12810439397E+03 0.  0.
         25    2    3    3    0    0 -0.18174862445E+02  0.47439465379E+02 -0.10175349553E+03  0.16869379449E+03  0.12459130767E+03 0.  0.
          5    1    4    4  502    0  0.10029977012E+02  0.35345021299E+02 -0.51917143094E+02  0.63775784719E+02  0.47000000000E+01 0. -1.
         -5    1    4    4    0  502  0.81448854336E+01 -0.82784486677E+02  0.48658745544E+00  0.83318288271E+02  0.47000000000E+01 0. -1.
          5    1    5    5  503    0 -0.24216250498E+02  0.36794598417E+02 -0.13011457267E+03  0.13744875875E+03  0.47000000000E+01 0.  1.
         -5    1    5    5    0  503  0.60413880531E+01  0.10644866962E+02  0.28361077138E+02  0.31245035745E+02  0.47000000000E+01 0.  1.
<mgrwt>
<rscale>  0 0.27614602E+03</rscale>
<asrwt>0</asrwt>
<pdfrwt beam="1">  1        1 0.12507986E-01 0.27614602E+03</pdfrwt>
<pdfrwt beam="2">  1       -1 0.36074763E-01 0.27614602E+03</pdfrwt>
<totfact> 0.35034456E+03</totfact>
</mgrwt>
</event>
<event>
 9    1  0.7944303E-001  0.2770904E+03  0.7818608E-02  0.1097289E+00
          3   -1    0    0  501    0  0.00000000000E+00  0.00000000000E+00  0.79139585221E+02  0.79139585221E+02  0.00000000000E+00 0.  1.
         -3   -1    0    0    0  501 -0.00000000000E+00 -0.00000000000E+00 -0.24254325450E+03  0.24254325450E+03  0.00000000000E+00 0.  1.
         35    2    1    2    0    0 -0.71054273576E-14  0.00000000000E+00 -0.16340366927E+03  0.32168283972E+03  0.27709040084E+03 0.  0.
         25    2    3    3    0    0 -0.54294645608E+02  0.95186395795E+01 -0.10950129583E+03  0.17509103793E+03  0.12501129842E+03 0.  0.
         25    2    3    3    0    0  0.54294645608E+02 -0.95186395795E+01 -0.53902373444E+02  0.14659180179E+03  0.12468030096E+03 0.  0.
          5    1    4    4  502    0 -0.60544310343E+02 -0.42125012593E+02 -0.29561261133E+02  0.79599550003E+02  0.47000000000E+01 0. -1.
         -5    1    4    4    0  502  0.62496647348E+01  0.51643652173E+02 -0.79940034697E+02  0.95491487927E+02  0.47000000000E+01 0. -1.
          5    1    5    5  503    0 -0.14347213290E+02 -0.44852120507E+02  0.73990259879E+01  0.47899799882E+02  0.47000000000E+01 0.  1.
         -5    1    5    5    0  503  0.68641858899E+02  0.35333480928E+02 -0.61301399432E+02  0.98692001904E+02  0.47000000000E+01 0.  1.
<mgrwt>
<rscale>  0 0.27709040E+03</rscale>
<asrwt>0</asrwt>
<pdfrwt beam="1">  1        3 0.12175321E-01 0.27709040E+03</pdfrwt>
<pdfrwt beam="2">  1       -3 0.37314347E-01 0.27709040E+03</pdfrwt>
<totfact> 0.95827883E+02</totfact>
</mgrwt>
</event>
<event>
 9    1  0.7944303E-001  0.2749232E+03  0.7818608E-02  0.1098495E+00
          3   -1    0    0  501    0  0.00000000000E+00  0.00000000000E+00  0.77428317860E+02  0.77428317860E+02  0.00000000000E+00 0. -1.
         -3   -1    0    0    0  501 -0.00000000000E+00 -0.00000000000E+00 -0.24404101509E+03  0.24404101509E+03  0.00000000000E+00 0. -1.
         35    2    1    2    0    0  0.35527136788E-14  0.71054273576E-14 -0.16661269723E+03  0.32146933295E+03  0.27492315499E+03 0.  0.
         25    2    3    3    0    0  0.25409127332E+02 -0.47428902667E+02 -0.10605503863E+03  0.17175363458E+03  0.12392140741E+03 0.  0.
         25    2    3    3    0    0 -0.25409127332E+02  0.47428902667E+02 -0.60557658595E+02  0.14971569836E+03  0.12590645639E+03 0.  0.
          5    1    4    4  502    0 -0.73153561330E+01 -0.65406788551E+02 -0.76815939766E+01  0.66427850409E+02  0.47000000000E+01 0.  1.
         -5    1    4    4    0  502  0.32724483465E+02  0.17977885884E+02 -0.98373444655E+02  0.10532578418E+03  0.47000000000E+01 0.  1.
          5    1    5    5  503    0  0.15299420609E+02  0.16545447937E+02  0.34627066250E+02  0.41580618508E+02  0.47000000000E+01 0. -1.
         -5    1    5    5    0  503 -0.40708547941E+02  0.30883454730E+02 -0.95184724845E+02  0.10813507986E+03  0.47000000000E+01 0. -1.
<mgrwt>
<rscale>  0 0.27492315E+03</rscale>
<asrwt>0</asrwt>
<pdfrwt beam="1">  1        3 0.11912049E-01 0.27492315E+03</pdfrwt>
<pdfrwt beam="2">  1       -3 0.37544771E-01 0.27492315E+03</pdfrwt>
<totfact> 0.98188014E+02</totfact>
</mgrwt>
</event>
<event>
 9    1  0.7944303E-001  0.2742641E+03  0.7818608E-02  0.1098864E+00
          2   -1    0    0  501    0  0.00000000000E+00  0.00000000000E+00  0.12070935079E+04  0.12070935079E+04  0.00000000000E+00 0.  1.
         -2   -1    0    0    0  501 -0.00000000000E+00 -0.00000000000E+00 -0.15578911949E+02  0.15578911949E+02  0.00000000000E+00 0.  1.
         35    2    1    2    0    0 -0.35527136788E-14 -0.53290705182E-14  0.11915145960E+04  0.12226724199E+04  0.27426413163E+03 0.  0.
         25    2    3    3    0    0  0.11288850837E+02  0.82815293698E+01  0.35105507391E+03  0.37290220427E+03  0.12498146723E+03 0.  0.
         25    2    3    3    0    0 -0.11288850837E+02 -0.82815293698E+01  0.84045952209E+03  0.84977021562E+03  0.12466430608E+03 0.  0.
          5    1    4    4  502    0 -0.41658774764E+02  0.26392605772E+01  0.42517236480E+02  0.59768090225E+02  0.47000000000E+01 0. -1.
         -5    1    4    4    0  502  0.52947625601E+02  0.56422687926E+01  0.30853783743E+03  0.31313411405E+03  0.47000000000E+01 0. -1.
          5    1    5    5  503    0 -0.20663051899E+02 -0.57796650834E+02  0.64251971397E+03  0.64546191786E+03  0.47000000000E+01 0. -1.
         -5    1    5    5    0  503  0.93742010620E+01  0.49515121464E+02  0.19793980812E+03  0.20430829777E+03  0.47000000000E+01 0. -1.
<mgrwt>
<rscale>  0 0.27426413E+03</rscale>
<asrwt>0</asrwt>
<pdfrwt beam="1">  1        2 0.18570662E+00 0.27426413E+03</pdfrwt>
<pdfrwt beam="2">  1       -2 0.23967566E-02 0.27426413E+03</pdfrwt>
<totfact> 0.11695185E+04</totfact>
</mgrwt>
</event>
<event>
 9    1  0.7944303E-001  0.2829971E+03  0.7818608E-02  0.1094063E+00
         -1   -1    0    0    0  501 -0.00000000000E+00  0.00000000000E+00  0.59116558356E+03  0.59116558356E+03  0.00000000000E+00 0.  1.
          1   -1    0    0  501    0  0.00000000000E+00 -0.00000000000E+00 -0.33868417153E+02  0.33868417153E+02  0.00000000000E+00 0.  1.
         35    2    1    2    0    0  0.00000000000E+00  0.71054273576E-14  0.55729716641E+03  0.62503400072E+03  0.28299712077E+03 0.  0.
         25    2    3    3    0    0 -0.59937896112E+02 -0.22859144001E+01  0.21573573851E+03  0.25640006700E+03  0.12490519883E+03 0.  0.
         25    2    3    3    0    0  0.59937896112E+02  0.22859144001E+01  0.34156142790E+03  0.36863393371E+03  0.12501596402E+03 0.  0.
          5    1    4    4  502    0  0.94061845679E+00 -0.52302776982E+02  0.12815644268E+03  0.13850136838E+03  0.47000000000E+01 0. -1.
         -5    1    4    4    0  502 -0.60878514568E+02  0.50016862582E+02  0.87579295828E+02  0.11789869862E+03  0.47000000000E+01 0. -1.
          5    1    5    5  503    0  0.81197600582E+02  0.41446241724E+02  0.26024089670E+03  0.27578661246E+03  0.47000000000E+01 0. -1.
         -5    1    5    5    0  503 -0.21259704470E+02 -0.39160327324E+02  0.81320531196E+02  0.92847321255E+02  0.47000000000E+01 0. -1.
<mgrwt>
<rscale>  0 0.28299712E+03</rscale>
<asrwt>0</asrwt>
<pdfrwt beam="1">  1        1 0.52105262E-02 0.28299712E+03</pdfrwt>
<pdfrwt beam="2">  1       -1 0.90948544E-01 0.28299712E+03</pdfrwt>
<totfact> 0.19512495E+03</totfact>
</mgrwt>
</event>
<event>
 9    1  0.7944303E-001  0.2791094E+03  0.7818608E-02  0.1096176E+00
          2   -1    0    0  501    0  0.00000000000E+00  0.00000000000E+00  0.49611449077E+03  0.49611449077E+03  0.00000000000E+00 0.  1.
         -2   -1    0    0    0  501 -0.00000000000E+00 -0.00000000000E+00 -0.39256089088E+02  0.39256089088E+02  0.00000000000E+00 0.  1.
         35    2    1    2    0    0 -0.35527136788E-14 -0.71054273576E-14  0.45685840168E+03  0.53537057986E+03  0.27910940255E+03 0.  0.
         25    2    3    3    0    0  0.96886334767E+01  0.49304431058E+02  0.15996094462E+03  0.20917380182E+03  0.12506549894E+03 0.  0.
         25    2    3    3    0    0 -0.96886334767E+01 -0.49304431058E+02  0.29689745706E+03  0.32619677803E+03  0.12542504315E+03 0.  0.
          5    1    4    4  502    0  0.75675564734E+01  0.24006872471E+02  0.17660783460E+03  0.17845451824E+03  0.47000000000E+01 0. -1.
         -5    1    4    4    0  502  0.21210770033E+01  0.25297558586E+02 -0.16646889981E+02  0.30719283587E+02  0.47000000000E+01 0. -1.
          5    1    5    5  503    0 -0.52135205086E+02  0.16331171018E+02  0.95678958033E+02  0.11027846465E+03  0.47000000000E+01 0. -1.
         -5    1    5    5    0  503  0.42446571609E+02 -0.65635602076E+02  0.20121849903E+03  0.21591831338E+03  0.47000000000E+01 0. -1.
<mgrwt>
<rscale>  0 0.27910940E+03</rscale>
<asrwt>0</asrwt>
<pdfrwt beam="1">  1        2 0.76325302E-01 0.27910940E+03</pdfrwt>
<pdfrwt beam="2">  1       -2 0.60393987E-02 0.27910940E+03</pdfrwt>
<totfact> 0.91560347E+03</totfact>
</mgrwt>
</event>
<event>
 9    1  0.7944303E-001  0.2764470E+03  0.7818608E-02  0.1097646E+00
          2   -1    0    0  501    0  0.00000000000E+00  0.00000000000E+00  0.80179930633E+03  0.80179930633E+03  0.00000000000E+00 0.  1.
         -2   -1    0    0    0  501 -0.00000000000E+00 -0.00000000000E+00 -0.23828571002E+02  0.23828571002E+02  0.00000000000E+00 0.  1.
         35    2    1    2    0    0 -0.71054273576E-14  0.00000000000E+00  0.77797073532E+03  0.82562787733E+03  0.27644696923E+03 0.  0.
         25    2    3    3    0    0  0.20239000501E+02 -0.53436860096E+02  0.36058001091E+03  0.38593723839E+03  0.12515787053E+03 0.  0.
         25    2    3    3    0    0 -0.20239000501E+02  0.53436860096E+02  0.41739072442E+03  0.43969063893E+03  0.12588775150E+03 0.  0.
          5    1    4    4  502    0  0.63724106898E+02 -0.44729048150E+02  0.30426118826E+03  0.31409936362E+03  0.47000000000E+01 0.  1.
         -5    1    4    4    0  502 -0.43485106396E+02 -0.87078119452E+01  0.56318822648E+02  0.71837874771E+02  0.47000000000E+01 0.  1.
          5    1    5    5  503    0  0.20620170855E+01 -0.36915145870E+02  0.19562108474E+03  0.19913984710E+03  0.47000000000E+01 0.  1.
         -5    1    5    5    0  503 -0.22301017587E+02  0.90352005966E+02  0.22176963968E+03  0.24055079183E+03  0.47000000000E+01 0.  1.
<mgrwt>
<rscale>  0 0.27644697E+03</rscale>
<asrwt>0</asrwt>
<pdfrwt beam="1">  1        2 0.12335372E+00 0.27644697E+03</pdfrwt>
<pdfrwt beam="2">  1       -2 0.36659346E-02 0.27644697E+03</pdfrwt>
<totfact> 0.11054629E+04</totfact>
</mgrwt>
</event>
<event>
 9    1  0.7944303E-001  0.2746924E+03  0.7818608E-02  0.1098624E+00
         -2   -1    0    0    0  501 -0.00000000000E+00  0.00000000000E+00  0.26437057440E+02  0.26437057440E+02  0.00000000000E+00 0. -1.
          2   -1    0    0  501    0  0.00000000000E+00 -0.00000000000E+00 -0.71354329184E+03  0.71354329184E+03  0.00000000000E+00 0. -1.
         35    2    1    2    0    0  0.35527136788E-14  0.71054273576E-14 -0.68710623440E+03  0.73998034928E+03  0.27469244614E+03 0.  0.
         25    2    3    3    0    0  0.26145748226E+02 -0.37783557485E+02 -0.24518063866E+03  0.27897252377E+03  0.12490366720E+03 0.  0.
         25    2    3    3    0    0 -0.26145748226E+02  0.37783557485E+02 -0.44192559574E+03  0.46100782551E+03  0.12295847120E+03 0.  0.
          5    1    4    4  502    0  0.90205289250E+01  0.32610990671E+02 -0.14452532174E+02  0.37091944420E+02  0.47000000000E+01 0.  1.
         -5    1    4    4    0  502  0.17125219301E+02 -0.70394548156E+02 -0.23072810648E+03  0.24188057935E+03  0.47000000000E+01 0.  1.
          5    1    5    5  503    0 -0.31810509734E+02  0.78020398496E+02 -0.22597773637E+03  0.24122006228E+03  0.47000000000E+01 0. -1.
         -5    1    5    5    0  503  0.56647615080E+01 -0.40236841011E+02 -0.21594785937E+03  0.21978776323E+03  0.47000000000E+01 0. -1.
<mgrwt>
<rscale>  0 0.27469245E+03</rscale>
<asrwt>0</asrwt>
<pdfrwt beam="1">  1        2 0.10977588E+00 0.27469245E+03</pdfrwt>
<pdfrwt beam="2">  1       -2 0.40672402E-02 0.27469245E+03</pdfrwt>
<totfact> 0.10934918E+04</totfact>
</mgrwt>
</event>
<event>
 9    1  0.7944303E-001  0.2732948E+03  0.7818608E-02  0.1099409E+00
         -1   -1    0    0    0  501 -0.00000000000E+00  0.00000000000E+00  0.43177967576E+02  0.43177967576E+02  0.00000000000E+00 0. -1.
          1   -1    0    0  501    0  0.00000000000E+00 -0.00000000000E+00 -0.43245473730E+03  0.43245473730E+03  0.00000000000E+00 0. -1.
         35    2    1    2    0    0  0.35527136788E-14  0.00000000000E+00 -0.38927676972E+03  0.47563270487E+03  0.27329483438E+03 0.  0.
         25    2    3    3    0    0 -0.45461255290E+01  0.19922916974E+01 -0.29185313066E+03  0.31592806662E+03  0.12086214014E+03 0.  0.
         25    2    3    3    0    0  0.45461255290E+01 -0.19922916974E+01 -0.97423639062E+02  0.15970463825E+03  0.12644986970E+03 0.  0.
          5    1    4    4  502    0 -0.30484162887E+02  0.17188917750E+02 -0.16634419578E+02  0.39032512026E+02  0.47000000000E+01 0.  1.
         -5    1    4    4    0  502  0.25938037358E+02 -0.15196626053E+02 -0.27521871108E+03  0.27689555459E+03  0.47000000000E+01 0.  1.
          5    1    5    5  503    0  0.36434339762E+02  0.26431491039E+02 -0.10655721699E+03  0.11576966496E+03  0.47000000000E+01 0.  1.
         -5    1    5    5    0  503 -0.31888214233E+02 -0.28423782736E+02  0.91335779324E+01  0.43934973288E+02  0.47000000000E+01 0.  1.
<mgrwt>
<rscale>  0 0.27329483E+03</rscale>
<asrwt>0</asrwt>
<pdfrwt beam="1">  1        1 0.66531497E-01 0.27329483E+03</pdfrwt>
<pdfrwt beam="2">  1       -1 0.66427644E-02 0.27329483E+03</pdfrwt>
<totfact> 0.62282582E+03</totfact>
</mgrwt>
</event>
<event>
 9    1  0.7944303E-001  0.2787413E+03  0.7818608E-02  0.1096378E+00
          1   -1    0    0  501    0  0.00000000000E+00  0.00000000000E+00  0.36141588236E+03  0.36141588236E+03  0.00000000000E+00 0. -1.
         -1   -1    0    0    0  501 -0.00000000000E+00 -0.00000000000E+00 -0.53744685009E+02  0.53744685009E+02  0.00000000000E+00 0. -1.
         35    2    1    2    0    0  0.00000000000E+00 -0.17763568394E-14  0.30767119735E+03  0.41516056736E+03  0.27874133353E+03 0.  0.
         25    2    3    3    0    0 -0.86866573268E+01  0.80403854729E+01  0.24468275529E+03  0.27475722327E+03  0.12442578185E+03 0.  0.
         25    2    3    3    0    0  0.86866573268E+01 -0.80403854729E+01  0.62988442053E+02  0.14040334409E+03  0.12492177306E+03 0.  0.
          5    1    4    4  502    0 -0.91310460946E+01  0.46707357988E+02  0.29746608683E+02  0.56319659277E+02  0.47000000000E+01 0. -1.
         -5    1    4    4    0  502  0.44438876787E+00 -0.38666972515E+02  0.21493614661E+03  0.21843756400E+03  0.47000000000E+01 0. -1.
          5    1    5    5  503    0  0.66776553246E+02 -0.43361054453E+01  0.33285544616E+02  0.74886095867E+02  0.47000000000E+01 0. -1.
         -5    1    5    5    0  503 -0.58089895920E+02 -0.37042800276E+01  0.29702897437E+02  0.65517248222E+02  0.47000000000E+01 0. -1.
<mgrwt>
<rscale>  0 0.27874133E+03</rscale>
<asrwt>0</asrwt>
<pdfrwt beam="1">  1        1 0.55602442E-01 0.27874133E+03</pdfrwt>
<pdfrwt beam="2">  1       -1 0.82684133E-02 0.27874133E+03</pdfrwt>
<totfact> 0.56212198E+03</totfact>
</mgrwt>
</event>
<event>
 9    1  0.7944303E-001  0.2779601E+03  0.7818608E-02  0.1096808E+00
          1   -1    0    0  501    0  0.00000000000E+00  0.00000000000E+00  0.17110167862E+04  0.17110167862E+04  0.00000000000E+00 0. -1.
         -1   -1    0    0    0  501 -0.00000000000E+00 -0.00000000000E+00 -0.11288871750E+02  0.11288871750E+02  0.00000000000E+00 0. -1.
         35    2    1    2    0    0  0.35527136788E-14  0.00000000000E+00  0.16997279144E+04  0.17223056579E+04  0.27796006233E+03 0.  0.
         25    2    3    3    0    0  0.11111117261E+02 -0.58957111954E+02  0.83782883167E+03  0.84930467897E+03  0.12554636020E+03 0.  0.
         25    2    3    3    0    0 -0.11111117261E+02  0.58957111954E+02  0.86189908278E+03  0.87300097898E+03  0.12514504558E+03 0.  0.
          5    1    4    4  502    0 -0.15256678806E+02 -0.86453388868E+02  0.72079906689E+03  0.72614071607E+03  0.47000000000E+01 0.  1.
         -5    1    4    4    0  502  0.26367796067E+02  0.27496276914E+02  0.11702976478E+03  0.12316396290E+03  0.47000000000E+01 0.  1.
          5    1    5    5  503    0  0.35218943163E+02 -0.19498334203E+02  0.15388386603E+03  0.15913168515E+03  0.47000000000E+01 0. -1.
         -5    1    5    5    0  503 -0.46330060424E+02  0.78455446158E+02  0.70801521675E+03  0.71386929383E+03  0.47000000000E+01 0. -1.
<mgrwt>
<rscale>  0 0.27796006E+03</rscale>
<asrwt>0</asrwt>
<pdfrwt beam="1">  1        1 0.26323315E+00 0.27796006E+03</pdfrwt>
<pdfrwt beam="2">  1       -1 0.17367509E-02 0.27796006E+03</pdfrwt>
<totfact> 0.43830833E+03</totfact>
</mgrwt>
</event>
<event>
 9    1  0.7944303E-001  0.2761473E+03  0.7818608E-02  0.1097812E+00
          2   -1    0    0  501    0  0.00000000000E+00  0.00000000000E+00  0.35328255985E+04  0.35328255985E+04  0.00000000000E+00 0. -1.
         -2   -1    0    0    0  501 -0.00000000000E+00 -0.00000000000E+00 -0.53963429521E+01  0.53963429521E+01  0.00000000000E+00 0. -1.
         35    2    1    2    0    0  0.00000000000E+00  0.00000000000E+00  0.35274292555E+04  0.35382219414E+04  0.27614734125E+03 0.  0.
         25    2    3    3    0    0 -0.35196564347E+02  0.23477385640E+02  0.20457607602E+04  0.20506064095E+04  0.13438591095E+03 0.  0.
         25    2    3    3    0    0  0.35196564347E+02 -0.23477385640E+02  0.14816684954E+04  0.14876155319E+04  0.12597005567E+03 0.  0.
          5    1    4    4  502    0 -0.77073755618E+02 -0.37338754020E+01  0.77265678618E+03  0.77651458766E+03  0.47000000000E+01 0. -1.
         -5    1    4    4    0  502  0.41877191271E+02  0.27211261042E+02  0.12731039740E+04  0.12740918218E+04  0.47000000000E+01 0. -1.
          5    1    5    5  503    0 -0.16094211806E+02 -0.63478921038E+02  0.61423189584E+03  0.61773093571E+03  0.47000000000E+01 0.  1.
         -5    1    5    5    0  503  0.51290776152E+02  0.40001535398E+02  0.86743659952E+03  0.86988459622E+03  0.47000000000E+01 0.  1.
<mgrwt>
<rscale>  0 0.27614734E+03</rscale>
<asrwt>0</asrwt>
<pdfrwt beam="1">  1        2 0.54350978E+00 0.27614734E+03</pdfrwt>
<pdfrwt beam="2">  1       -2 0.83020943E-03 0.27614734E+03</pdfrwt>
<totfact> 0.26933877E+03</totfact>
</mgrwt>
</event>
<event>
 9    1  0.7944303E-001  0.2778796E+03  0.7818608E-02  0.1096853E+00
          4   -1    0    0  501    0  0.00000000000E+00  0.00000000000E+00  0.18109271949E+03  0.18109271949E+03  0.00000000000E+00 0.  1.
         -4   -1    0    0    0  501 -0.00000000000E+00 -0.00000000000E+00 -0.10659878264E+03  0.10659878264E+03  0.00000000000E+00 0.  1.
         35    2    1    2    0    0  0.00000000000E+00  0.00000000000E+00  0.74493936849E+02  0.28769150212E+03  0.27787956702E+03 0.  0.
         25    2    3    3    0    0 -0.49878350272E+02 -0.11552957619E+02  0.70821333187E+02  0.15253511074E+03  0.12501991089E+03 0.  0.
         25    2    3    3    0    0  0.49878350272E+02  0.11552957619E+02  0.36726036625E+01  0.13515639138E+03  0.12502976229E+03 0.  0.
          5    1    4    4  502    0 -0.33978672334E+02  0.21947043715E+01 -0.32312820314E+02  0.47176002984E+02  0.47000000000E+01 0. -1.
         -5    1    4    4    0  502 -0.15899677938E+02 -0.13747661991E+02  0.10313415350E+03  0.10535910776E+03  0.47000000000E+01 0. -1.
          5    1    5    5  503    0  0.90322425711E+02  0.43917216824E+01  0.16135272033E+02  0.91977523391E+02  0.47000000000E+01 0.  1.
         -5    1    5    5    0  503 -0.40444075439E+02  0.71612359371E+01 -0.12462668370E+02  0.43178867993E+02  0.47000000000E+01 0.  1.
<mgrwt>
<rscale>  0 0.27787957E+03</rscale>
<asrwt>0</asrwt>
<pdfrwt beam="1">  1        4 0.27860418E-01 0.27787957E+03</pdfrwt>
<pdfrwt beam="2">  1       -4 0.16399813E-01 0.27787957E+03</pdfrwt>
<totfact> 0.73964423E+02</totfact>
</mgrwt>
</event>
<event>
 9    1  0.7944303E-001  0.2751252E+03  0.7818608E-02  0.1098382E+00
         -2   -1    0    0    0  501 -0.00000000000E+00  0.00000000000E+00  0.22353866060E+02  0.22353866060E+02  0.00000000000E+00 0.  1.
          2   -1    0    0  501    0  0.00000000000E+00 -0.00000000000E+00 -0.84654107945E+03  0.84654107945E+03  0.00000000000E+00 0.  1.
         35    2    1    2    0    0  0.00000000000E+00  0.00000000000E+00 -0.82418721339E+03  0.86889494551E+03  0.27512517809E+03 0.  0.
         25    2    3    3    0    0 -0.22897886671E+02 -0.10179816204E+02 -0.25168306901E+03  0.28219845846E+03  0.12515454790E+03 0.  0.
         25    2    3    3    0    0  0.22897886671E+02  0.10179816204E+02 -0.57250414438E+03  0.58669648704E+03  0.12579280866E+03 0.  0.
          5    1    4    4  502    0 -0.52145956718E+02  0.38144924459E+02 -0.90160269817E+02  0.11101891874E+03  0.47000000000E+01 0.  1.
         -5    1    4    4    0  502  0.29248070047E+02 -0.48324740663E+02 -0.16152279919E+03  0.17117953973E+03  0.47000000000E+01 0.  1.
          5    1    5    5  503    0  0.17603274071E+02  0.66944450671E+02 -0.26595185286E+03  0.27485252914E+03  0.47000000000E+01 0. -1.
         -5    1    5    5    0  503  0.52946125998E+01 -0.56764634467E+02 -0.30655229152E+03  0.31184395791E+03  0.47000000000E+01 0. -1.
<mgrwt>
<rscale>  0 0.27512518E+03</rscale>
<asrwt>0</asrwt>
<pdfrwt beam="1">  1        2 0.13023710E+00 0.27512518E+03</pdfrwt>
<pdfrwt beam="2">  1       -2 0.34390559E-02 0.27512518E+03</pdfrwt>
<totfact> 0.11340522E+04</totfact>
</mgrwt>
</event>
<event>
 9    1  0.7944303E-001  0.2766698E+03  0.7818608E-02  0.1097522E+00
         -2   -1    0    0    0  501 -0.00000000000E+00  0.00000000000E+00  0.13836238484E+02  0.13836238484E+02  0.00000000000E+00 0.  1.
          2   -1    0    0  501    0  0.00000000000E+00 -0.00000000000E+00 -0.13830739233E+04  0.13830739233E+04  0.00000000000E+00 0.  1.
         35    2    1    2    0    0  0.00000000000E+00 -0.17763568394E-14 -0.13692376848E+04  0.13969101618E+04  0.27666977171E+03 0.  0.
         25    2    3    3    0    0  0.26644175316E+02 -0.13245751299E+02 -0.94909326317E+03  0.95776630897E+03  0.12511162372E+03 0.  0.
         25    2    3    3    0    0 -0.26644175316E+02  0.13245751299E+02 -0.42014442166E+03  0.43914385283E+03  0.12426031717E+03 0.  0.
          5    1    4    4  502    0  0.29832504520E+02  0.48786173996E+02 -0.28243981021E+03  0.28820896151E+03  0.47000000000E+01 0. -1.
         -5    1    4    4    0  502 -0.31883292040E+01 -0.62031925294E+02 -0.66665345296E+03  0.66955734746E+03  0.47000000000E+01 0. -1.
          5    1    5    5  503    0  0.15754228608E+02  0.76588425073E+01 -0.37958137984E+03  0.38001443066E+03  0.47000000000E+01 0. -1.
         -5    1    5    5    0  503 -0.42398403924E+02  0.55869087914E+01 -0.40563041825E+02  0.59129422179E+02  0.47000000000E+01 0. -1.
<mgrwt>
<rscale>  0 0.27666977E+03</rscale>
<asrwt>0</asrwt>
<pdfrwt beam="1">  1        2 0.21278064E+00 0.27666977E+03</pdfrwt>
<pdfrwt beam="2">  1       -2 0.21286517E-02 0.27666977E+03</pdfrwt>
<totfact> 0.11129607E+04</totfact>
</mgrwt>
</event>
<event>
 9    1  0.7944303E-001  0.2759303E+03  0.7818608E-02  0.1097933E+00
          2   -1    0    0  501    0  0.00000000000E+00  0.00000000000E+00  0.38714917060E+03  0.38714917060E+03  0.00000000000E+00 0. -1.
         -2   -1    0    0    0  501 -0.00000000000E+00 -0.00000000000E+00 -0.49165511363E+02  0.49165511363E+02  0.00000000000E+00 0. -1.
         35    2    1    2    0    0  0.53290705182E-14 -0.35527136788E-14  0.33798365924E+03  0.43631468196E+03  0.27593033140E+03 0.  0.
         25    2    3    3    0    0  0.62893374472E+01 -0.44128322133E+01  0.75907205895E+02  0.14613213097E+03  0.12463413233E+03 0.  0.
         25    2    3    3    0    0 -0.62893374472E+01  0.44128322133E+01  0.26207645334E+03  0.29018255099E+03  0.12434957438E+03 0.  0.
          5    1    4    4  502    0 -0.31585053823E+02 -0.51815427736E+02  0.54260926059E+02  0.81540126767E+02  0.47000000000E+01 0. -1.
         -5    1    4    4    0  502  0.37874391270E+02  0.47402595523E+02  0.21646279836E+02  0.64592004204E+02  0.47000000000E+01 0. -1.
          5    1    5    5  503    0  0.10116539562E+02  0.21361390772E+02 -0.27600090855E+01  0.24256154654E+02  0.47000000000E+01 0. -1.
         -5    1    5    5    0  503 -0.16405877009E+02 -0.16948558559E+02  0.26483646243E+03  0.26592639634E+03  0.47000000000E+01 0. -1.
<mgrwt>
<rscale>  0 0.27593033E+03</rscale>
<asrwt>0</asrwt>
<pdfrwt beam="1">  1        2 0.59561409E-01 0.27593033E+03</pdfrwt>
<pdfrwt beam="2">  1       -2 0.75639251E-02 0.27593033E+03</pdfrwt>
<totfact> 0.84873761E+03</totfact>
</mgrwt>
</event>
<event>
 9    1  0.7944303E-001  0.2716445E+03  0.7818608E-02  0.1100342E+00
          1   -1    0    0  501    0  0.00000000000E+00  0.00000000000E+00  0.60667534016E+03  0.60667534016E+03  0.00000000000E+00 0. -1.
         -1   -1    0    0    0  501 -0.00000000000E+00 -0.00000000000E+00 -0.30407833869E+02  0.30407833869E+02  0.00000000000E+00 0. -1.
         35    2    1    2    0    0  0.35527136788E-14  0.00000000000E+00  0.57626750629E+03  0.63708317403E+03  0.27164449529E+03 0.  0.
         25    2    3    3    0    0  0.20545767532E+02 -0.23842571803E+02  0.39214574211E+03  0.41288161119E+03  0.12530899815E+03 0.  0.
         25    2    3    3    0    0 -0.20545767532E+02  0.23842571803E+02  0.18412176418E+03  0.22420156283E+03  0.12399564483E+03 0.  0.
          5    1    4    4  502    0 -0.11615786311E+02  0.38387934759E+02  0.26119108916E+03  0.26429422068E+03  0.47000000000E+01 0. -1.
         -5    1    4    4    0  502  0.32161553844E+02 -0.62230506563E+02  0.13095465294E+03  0.14858739051E+03  0.47000000000E+01 0. -1.
          5    1    5    5  503    0 -0.70147094452E+02 -0.47254538852E+01  0.10393313799E+03  0.12556724074E+03  0.47000000000E+01 0. -1.
         -5    1    5    5    0  503  0.49601326919E+02  0.28568025689E+02  0.80188626194E+02  0.98634322093E+02  0.47000000000E+01 0. -1.
<mgrwt>
<rscale>  0 0.27164450E+03</rscale>
<asrwt>0</asrwt>
<pdfrwt beam="1">  1        1 0.93334658E-01 0.27164450E+03</pdfrwt>
<pdfrwt beam="2">  1       -1 0.46781288E-02 0.27164450E+03</pdfrwt>
<totfact> 0.67079402E+03</totfact>
</mgrwt>
</event>
<event>
 9    1  0.7944303E-001  0.2772311E+03  0.7818608E-02  0.1097211E+00
          3   -1    0    0  501    0  0.00000000000E+00  0.00000000000E+00  0.25636150613E+02  0.25636150613E+02  0.00000000000E+00 0.  1.
         -3   -1    0    0    0  501 -0.00000000000E+00 -0.00000000000E+00 -0.74949885931E+03  0.74949885931E+03  0.00000000000E+00 0.  1.
         35    2    1    2    0    0  0.00000000000E+00  0.00000000000E+00 -0.72386270869E+03  0.77513500992E+03  0.27723106349E+03 0.  0.
         25    2    3    3    0    0 -0.47986081134E+02  0.28242102256E+02 -0.43077779701E+03  0.45200388689E+03  0.12505088182E+03 0.  0.
         25    2    3    3    0    0  0.47986081134E+02 -0.28242102256E+02 -0.29308491168E+03  0.32313112303E+03  0.12415585726E+03 0.  0.
          5    1    4    4  502    0  0.39177168797E+02  0.10202775083E+02 -0.20988308472E+03  0.21380352295E+03  0.47000000000E+01 0. -1.
         -5    1    4    4    0  502 -0.87163249931E+02  0.18039327174E+02 -0.22089471229E+03  0.23820036394E+03  0.47000000000E+01 0. -1.
          5    1    5    5  503    0  0.53242997098E+02 -0.32045654555E+02 -0.30358939005E+03  0.30991990653E+03  0.47000000000E+01 0.  1.
         -5    1    5    5    0  503 -0.52569159634E+01  0.38035522989E+01  0.10504478365E+02  0.13211216495E+02  0.47000000000E+01 0.  1.
<mgrwt>
<rscale>  0 0.27723106E+03</rscale>
<asrwt>0</asrwt>
<pdfrwt beam="1">  1        3 0.39440234E-02 0.27723106E+03</pdfrwt>
<pdfrwt beam="2">  1       -3 0.11530751E+00 0.27723106E+03</pdfrwt>
<totfact> 0.54749089E+02</totfact>
</mgrwt>
</event>
<event>
 9    1  0.7944303E-001  0.2736968E+03  0.7818608E-02  0.1099182E+00
         -1   -1    0    0    0  501 -0.00000000000E+00  0.00000000000E+00  0.51770718049E+03  0.51770718049E+03  0.00000000000E+00 0. -1.
          1   -1    0    0  501    0  0.00000000000E+00 -0.00000000000E+00 -0.36173900945E+02  0.36173900945E+02  0.00000000000E+00 0. -1.
         35    2    1    2    0    0  0.00000000000E+00  0.00000000000E+00  0.48153327954E+03  0.55388108143E+03  0.27369682691E+03 0.  0.
         25    2    3    3    0    0 -0.43361560957E+02 -0.20096954124E+02  0.30070187161E+03  0.32889213354E+03  0.12435556835E+03 0.  0.
         25    2    3    3    0    0  0.43361560957E+02  0.20096954124E+02  0.18083140793E+03  0.22498894789E+03  0.12504365656E+03 0.  0.
          5    1    4    4  502    0 -0.56439206170E+02  0.24905303829E+02  0.25800931297E+03  0.26532348884E+03  0.47000000000E+01 0.  1.
         -5    1    4    4    0  502  0.13077645213E+02 -0.45002257953E+02  0.42692558642E+02  0.63568644697E+02  0.47000000000E+01 0.  1.
          5    1    5    5  503    0  0.85004176606E+02  0.89784315353E+00  0.95037747694E+02  0.12759615844E+03  0.47000000000E+01 0. -1.
         -5    1    5    5    0  503 -0.41642615648E+02  0.19199110970E+02  0.85793660236E+02  0.97392789450E+02  0.47000000000E+01 0. -1.
<mgrwt>
<rscale>  0 0.27369683E+03</rscale>
<asrwt>0</asrwt>
<pdfrwt beam="1">  1        1 0.55652159E-02 0.27369683E+03</pdfrwt>
<pdfrwt beam="2">  1       -1 0.79647253E-01 0.27369683E+03</pdfrwt>
<totfact> 0.23563583E+03</totfact>
</mgrwt>
</event>
<event>
 9    1  0.7944303E-001  0.2681187E+03  0.7818608E-02  0.1102361E+00
          2   -1    0    0  501    0  0.00000000000E+00  0.00000000000E+00  0.64447363632E+03  0.64447363632E+03  0.00000000000E+00 0.  1.
         -2   -1    0    0    0  501 -0.00000000000E+00 -0.00000000000E+00 -0.27886173603E+02  0.27886173603E+02  0.00000000000E+00 0.  1.
         35    2    1    2    0    0  0.71054273576E-14  0.00000000000E+00  0.61658746272E+03  0.67235980993E+03  0.26811865810E+03 0.  0.
         25    2    3    3    0    0  0.38678415344E+02 -0.26347093933E+02  0.33652876273E+03  0.36224820302E+03  0.12562628417E+03 0.  0.
         25    2    3    3    0    0 -0.38678415344E+02  0.26347093933E+02  0.28005869999E+03  0.31011160690E+03  0.12468417753E+03 0.  0.
          5    1    4    4  502    0 -0.30222645222E+02  0.29252339902E+01  0.22952594174E+03  0.23157334305E+03  0.47000000000E+01 0.  1.
         -5    1    4    4    0  502  0.68901060566E+02 -0.29272327923E+02  0.10700282099E+03  0.13067485998E+03  0.47000000000E+01 0.  1.
          5    1    5    5  503    0 -0.33059517807E+01 -0.11590879442E+02  0.24927767843E+03  0.24961315824E+03  0.47000000000E+01 0. -1.
         -5    1    5    5    0  503 -0.35372463563E+02  0.37937973375E+02  0.30781021554E+02  0.60498448660E+02  0.47000000000E+01 0. -1.
<mgrwt>
<rscale>  0 0.26811866E+03</rscale>
<asrwt>0</asrwt>
<pdfrwt beam="1">  1        2 0.99149779E-01 0.26811866E+03</pdfrwt>
<pdfrwt beam="2">  1       -2 0.42901810E-02 0.26811866E+03</pdfrwt>
<totfact> 0.11392461E+04</totfact>
</mgrwt>
</event>
<event>
 9    1  0.7944303E-001  0.2780424E+03  0.7818608E-02  0.1096763E+00
          2   -1    0    0  501    0  0.00000000000E+00  0.00000000000E+00  0.20717085868E+04  0.20717085868E+04  0.00000000000E+00 0.  1.
         -2   -1    0    0    0  501 -0.00000000000E+00 -0.00000000000E+00 -0.93289610711E+01  0.93289610711E+01  0.00000000000E+00 0.  1.
         35    2    1    2    0    0  0.14210854715E-13  0.71054273576E-14  0.20623796257E+04  0.20810375478E+04  0.27804236193E+03 0.  0.
         25    2    3    3    0    0 -0.45938919708E+02 -0.32883152752E+02  0.84196353767E+03  0.85311881857E+03  0.12536918979E+03 0.  0.
         25    2    3    3    0    0  0.45938919708E+02  0.32883152752E+02  0.12204160880E+04  0.12279187293E+04  0.12319615134E+03 0.  0.
          5    1    4    4  502    0 -0.11659889838E+02 -0.48818286491E+02  0.12009914362E+03  0.13025003810E+03  0.47000000000E+01 0.  1.
         -5    1    4    4    0  502 -0.34279029870E+02  0.15935133739E+02  0.72186439404E+03  0.72286878046E+03  0.47000000000E+01 0.  1.
          5    1    5    5  503    0  0.86537070999E+02  0.37337205386E+02  0.83371390969E+03  0.83903736793E+03  0.47000000000E+01 0. -1.
         -5    1    5    5    0  503 -0.40598151291E+02 -0.44540526348E+01  0.38670217832E+03  0.38888136134E+03  0.47000000000E+01 0. -1.
<mgrwt>
<rscale>  0 0.27804236E+03</rscale>
<asrwt>0</asrwt>
<pdfrwt beam="1">  1        2 0.31872403E+00 0.27804236E+03</pdfrwt>
<pdfrwt beam="2">  1       -2 0.14352264E-02 0.27804236E+03</pdfrwt>
<totfact> 0.85717227E+03</totfact>
</mgrwt>
</event>
<event>
 9    1  0.7944303E-001  0.2732900E+03  0.7818608E-02  0.1099411E+00
          3   -1    0    0  501    0  0.00000000000E+00  0.00000000000E+00  0.10750160617E+04  0.10750160617E+04  0.00000000000E+00 0.  1.
         -3   -1    0    0    0  501 -0.00000000000E+00 -0.00000000000E+00 -0.17368903205E+02  0.17368903205E+02  0.00000000000E+00 0.  1.
         35    2    1    2    0    0  0.71054273576E-14  0.35527136788E-14  0.10576471585E+04  0.10923849649E+04  0.27328995532E+03 0.  0.
         25    2    3    3    0    0  0.37946879579E+02  0.22487497303E+02  0.39344771972E+03  0.41502829288E+03  0.12450591366E+03 0.  0.
         25    2    3    3    0    0 -0.37946879579E+02 -0.22487497303E+02  0.66419943882E+03  0.67735667206E+03  0.12532164003E+03 0.  0.
          5    1    4    4  502    0 -0.28032723163E+02  0.51713463532E+02  0.19917570173E+03  0.20773340135E+03  0.47000000000E+01 0. -1.
         -5    1    4    4    0  502  0.65979602741E+02 -0.29225966229E+02  0.19427201799E+03  0.20729489153E+03  0.47000000000E+01 0. -1.
          5    1    5    5  503    0 -0.91056089128E+01 -0.12451948785E+02  0.42398214343E+01  0.16674208468E+02  0.47000000000E+01 0. -1.
         -5    1    5    5    0  503 -0.28841270666E+02 -0.10035548518E+02  0.65995961738E+03  0.66068246360E+03  0.47000000000E+01 0. -1.
<mgrwt>
<rscale>  0 0.27328996E+03</rscale>
<asrwt>0</asrwt>
<pdfrwt beam="1">  1        3 0.16538703E+00 0.27328996E+03</pdfrwt>
<pdfrwt beam="2">  1       -3 0.26721398E-02 0.27328996E+03</pdfrwt>
<totfact> 0.41315242E+02</totfact>
</mgrwt>
</event>
<event>
 9    1  0.7944303E-001  0.2729304E+03  0.7818608E-02  0.1099614E+00
          4   -1    0    0  501    0  0.00000000000E+00  0.00000000000E+00  0.67679007390E+02  0.67679007390E+02  0.00000000000E+00 0. -1.
         -4   -1    0    0    0  501 -0.00000000000E+00 -0.00000000000E+00 -0.27516285614E+03  0.27516285614E+03  0.00000000000E+00 0. -1.
         35    2    1    2    0    0 -0.17763568394E-14  0.00000000000E+00 -0.20748384875E+03  0.34284186353E+03  0.27293038654E+03 0.  0.
         25    2    3    3    0    0  0.13691224620E+02  0.35500540392E+02 -0.15232399364E+03  0.20083550458E+03  0.12523802481E+03 0.  0.
         25    2    3    3    0    0 -0.13691224620E+02 -0.35500540392E+02 -0.55159855104E+02  0.14200635895E+03  0.12520167079E+03 0.  0.
          5    1    4    4  502    0  0.63260335410E+02  0.40511070946E+01 -0.43263561868E+02  0.76890228836E+02  0.47000000000E+01 0.  1.
         -5    1    4    4    0  502 -0.49569110790E+02  0.31449433297E+02 -0.10906043178E+03  0.12394527574E+03  0.47000000000E+01 0.  1.
          5    1    5    5  503    0  0.10009837375E+00 -0.50064159609E+01  0.40227174161E+02  0.40809187219E+02  0.47000000000E+01 0. -1.
         -5    1    5    5    0  503 -0.13791322994E+02 -0.30494124431E+02 -0.95387029265E+02  0.10119717173E+03  0.47000000000E+01 0. -1.
<mgrwt>
<rscale>  0 0.27293039E+03</rscale>
<asrwt>0</asrwt>
<pdfrwt beam="1">  1        4 0.10412155E-01 0.27293039E+03</pdfrwt>
<pdfrwt beam="2">  1       -4 0.42332748E-01 0.27293039E+03</pdfrwt>
<totfact> 0.72101389E+02</totfact>
</mgrwt>
</event>
<event>
 9    1  0.7944303E-001  0.2727126E+03  0.7818608E-02  0.1099737E+00
          1   -1    0    0  501    0  0.00000000000E+00  0.00000000000E+00  0.13621515099E+04  0.13621515099E+04  0.00000000000E+00 0. -1.
         -1   -1    0    0    0  501 -0.00000000000E+00 -0.00000000000E+00 -0.13649763809E+02  0.13649763809E+02  0.00000000000E+00 0. -1.
         35    2    1    2    0    0 -0.17763568394E-14 -0.71054273576E-14  0.13485017461E+04  0.13758012737E+04  0.27271264277E+03 0.  0.
         25    2    3    3    0    0 -0.10174959714E+02 -0.54018382626E+02  0.65904683892E+03  0.67297596142E+03  0.12462902270E+03 0.  0.
         25    2    3    3    0    0  0.10174959714E+02  0.54018382626E+02  0.68945490719E+03  0.70282531230E+03  0.12487527817E+03 0.  0.
          5    1    4    4  502    0 -0.99216407177E+01  0.24047322951E+02  0.43255044845E+03  0.43335746578E+03  0.47000000000E+01 0.  1.
         -5    1    4    4    0  502 -0.25331899585E+00 -0.78065705577E+02  0.22649639047E+03  0.23961849564E+03  0.47000000000E+01 0.  1.
          5    1    5    5  503    0 -0.73442891516E+00  0.75945032895E+02  0.65938083439E+03  0.66375700536E+03  0.47000000000E+01 0. -1.
         -5    1    5    5    0  503  0.10909388629E+02 -0.21926650269E+02  0.30074072795E+02  0.39068306935E+02  0.47000000000E+01 0. -1.
<mgrwt>
<rscale>  0 0.27271264E+03</rscale>
<asrwt>0</asrwt>
<pdfrwt beam="1">  1        1 0.20956166E+00 0.27271264E+03</pdfrwt>
<pdfrwt beam="2">  1       -1 0.20999648E-02 0.27271264E+03</pdfrwt>
<totfact> 0.56497607E+03</totfact>
</mgrwt>
</event>
<event>
 9    1  0.7944303E-001  0.2725530E+03  0.7818608E-02  0.1099827E+00
         -4   -1    0    0    0  501 -0.00000000000E+00  0.00000000000E+00  0.25969772812E+02  0.25969772812E+02  0.00000000000E+00 0. -1.
          4   -1    0    0  501    0  0.00000000000E+00 -0.00000000000E+00 -0.71511159948E+03  0.71511159948E+03  0.00000000000E+00 0. -1.
         35    2    1    2    0    0  0.00000000000E+00  0.35527136788E-14 -0.68914182667E+03  0.74108137229E+03  0.27255300970E+03 0.  0.
         25    2    3    3    0    0 -0.51172352099E+02 -0.16748432960E+02 -0.36261507125E+03  0.38741797587E+03  0.12531511679E+03 0.  0.
         25    2    3    3    0    0  0.51172352099E+02  0.16748432960E+02 -0.32652675542E+03  0.35366339643E+03  0.12473554563E+03 0.  0.
          5    1    4    4  502    0  0.26200451590E+02 -0.17507627835E+02 -0.24167882254E+03  0.24376981757E+03  0.47000000000E+01 0. -1.
         -5    1    4    4    0  502 -0.77372803689E+02  0.75919487480E+00 -0.12093624872E+03  0.14364815830E+03  0.47000000000E+01 0. -1.
          5    1    5    5  503    0  0.34831663233E+02 -0.47795344790E+02 -0.89187608649E+02  0.10711750223E+03  0.47000000000E+01 0.  1.
         -5    1    5    5    0  503  0.16340688866E+02  0.64543777749E+02 -0.23733914677E+03  0.24654589420E+03  0.47000000000E+01 0.  1.
<mgrwt>
<rscale>  0 0.27255301E+03</rscale>
<asrwt>0</asrwt>
<pdfrwt beam="1">  1        4 0.11001717E+00 0.27255301E+03</pdfrwt>
<pdfrwt beam="2">  1       -4 0.39953496E-02 0.27255301E+03</pdfrwt>
<totfact> 0.43657384E+02</totfact>
</mgrwt>
</event>
<event>
 9    1  0.7944303E-001  0.2698953E+03  0.7818608E-02  0.1101340E+00
         -2   -1    0    0    0  501 -0.00000000000E+00  0.00000000000E+00  0.11958840180E+02  0.11958840180E+02  0.00000000000E+00 0. -1.
          2   -1    0    0  501    0  0.00000000000E+00 -0.00000000000E+00 -0.15227954807E+04  0.15227954807E+04  0.00000000000E+00 0. -1.
         35    2    1    2    0    0  0.00000000000E+00  0.71054273576E-14 -0.15108366405E+04  0.15347543209E+04  0.26989529659E+03 0.  0.
         25    2    3    3    0    0  0.38457955970E+02  0.34865343802E+02 -0.69130369343E+03  0.70443459926E+03  0.12503080227E+03 0.  0.
         25    2    3    3    0    0 -0.38457955970E+02 -0.34865343802E+02 -0.81953294712E+03  0.83031972164E+03  0.12289012231E+03 0.  0.
          5    1    4    4  502    0  0.27745400642E+02  0.45328284173E+02 -0.68569552651E+03  0.68776806096E+03  0.47000000000E+01 0. -1.
         -5    1    4    4    0  502  0.10712555328E+02 -0.10462940371E+02 -0.56081669225E+01  0.16666538306E+02  0.47000000000E+01 0. -1.
          5    1    5    5  503    0 -0.38899526082E+01  0.27963097836E+02 -0.51390544700E+02  0.58822994283E+02  0.47000000000E+01 0.  1.
         -5    1    5    5    0  503 -0.34568003362E+02 -0.62828441639E+02 -0.76814240242E+03  0.77149672736E+03  0.47000000000E+01 0.  1.
<mgrwt>
<rscale>  0 0.26989530E+03</rscale>
<asrwt>0</asrwt>
<pdfrwt beam="1">  1        2 0.23427619E+00 0.26989530E+03</pdfrwt>
<pdfrwt beam="2">  1       -2 0.18398219E-02 0.26989530E+03</pdfrwt>
<totfact> 0.11590650E+04</totfact>
</mgrwt>
</event>
<event>
 9    1  0.7944303E-001  0.2742812E+03  0.7818608E-02  0.1098854E+00
          1   -1    0    0  501    0  0.00000000000E+00  0.00000000000E+00  0.30779608855E+03  0.30779608855E+03  0.00000000000E+00 0.  1.
         -1   -1    0    0    0  501 -0.00000000000E+00 -0.00000000000E+00 -0.61103904203E+02  0.61103904203E+02  0.00000000000E+00 0.  1.
         35    2    1    2    0    0  0.35527136788E-14  0.00000000000E+00  0.24669218435E+03  0.36889999276E+03  0.27428118936E+03 0.  0.
         25    2    3    3    0    0 -0.25536759373E+01  0.50092548519E+02  0.15576582209E+03  0.20737084975E+03  0.12737304785E+03 0.  0.
         25    2    3    3    0    0  0.25536759373E+01 -0.50092548519E+02  0.90926362262E+02  0.16152914300E+03  0.12372661802E+03 0.  0.
          5    1    4    4  502    0 -0.57885096805E+02  0.50396793226E+02  0.11559168168E+03  0.13883100544E+03  0.47000000000E+01 0. -1.
         -5    1    4    4    0  502  0.55331420868E+02 -0.30424470719E+00  0.40174140412E+02  0.68539844309E+02  0.47000000000E+01 0. -1.
          5    1    5    5  503    0 -0.21107062607E+02 -0.10698732060E+02  0.10921460668E+03  0.11184762524E+03  0.47000000000E+01 0. -1.
         -5    1    5    5    0  503  0.23660738545E+02 -0.39393816458E+02 -0.18288244416E+02  0.49681517765E+02  0.47000000000E+01 0. -1.
<mgrwt>
<rscale>  0 0.27428119E+03</rscale>
<asrwt>0</asrwt>
<pdfrwt beam="1">  1        1 0.47353244E-01 0.27428119E+03</pdfrwt>
<pdfrwt beam="2">  1       -1 0.94006008E-02 0.27428119E+03</pdfrwt>
<totfact> 0.56525713E+03</totfact>
</mgrwt>
</event>
<event>
 9    1  0.7944303E-001  0.2750482E+03  0.7818608E-02  0.1098425E+00
          2   -1    0    0  501    0  0.00000000000E+00  0.00000000000E+00  0.30206436118E+04  0.30206436118E+04  0.00000000000E+00 0.  1.
         -2   -1    0    0    0  501 -0.00000000000E+00 -0.00000000000E+00 -0.62612057684E+01  0.62612057684E+01  0.00000000000E+00 0.  1.
         35    2    1    2    0    0  0.00000000000E+00  0.71054273576E-14  0.30143824061E+04  0.30269048176E+04  0.27504815001E+03 0.  0.
         25    2    3    3    0    0  0.33115598118E+02  0.18094713874E+02  0.10406403482E+04  0.10489049143E+04  0.12587741421E+03 0.  0.
         25    2    3    3    0    0 -0.33115598118E+02 -0.18094713874E+02  0.19737420579E+04  0.19779999033E+04  0.12410417000E+03 0.  0.
          5    1    4    4  502    0  0.57374442083E+01  0.70397055080E+02  0.64178606564E+03  0.64567802168E+03  0.47000000000E+01 0.  1.
         -5    1    4    4    0  502  0.27378153910E+02 -0.52302341206E+02  0.39885428253E+03  0.40322689258E+03  0.47000000000E+01 0.  1.
          5    1    5    5  503    0 -0.56649035028E+02 -0.41892219351E+02  0.64959909337E+03  0.65342569839E+03  0.47000000000E+01 0. -1.
         -5    1    5    5    0  503  0.23533436910E+02  0.23797505478E+02  0.13241429645E+04  0.13245742049E+04  0.47000000000E+01 0. -1.
<mgrwt>
<rscale>  0 0.27504815E+03</rscale>
<asrwt>0</asrwt>
<pdfrwt beam="1">  1        2 0.46471324E+00 0.27504815E+03</pdfrwt>
<pdfrwt beam="2">  1       -2 0.96326484E-03 0.27504815E+03</pdfrwt>
<totfact> 0.45601493E+03</totfact>
</mgrwt>
</event>
<event>
 9    1  0.7944303E-001  0.2768196E+03  0.7818608E-02  0.1097439E+00
          2   -1    0    0  501    0  0.00000000000E+00  0.00000000000E+00  0.36186393106E+03  0.36186393106E+03  0.00000000000E+00 0. -1.
         -2   -1    0    0    0  501 -0.00000000000E+00 -0.00000000000E+00 -0.52940533082E+02  0.52940533082E+02  0.00000000000E+00 0. -1.
         35    2    1    2    0    0  0.35527136788E-14 -0.17763568394E-14  0.30892339798E+03  0.41480446415E+03  0.27681957600E+03 0.  0.
         25    2    3    3    0    0 -0.10431965666E+02 -0.97967286719E+01  0.24199005167E+03  0.27286921169E+03  0.12527417842E+03 0.  0.
         25    2    3    3    0    0  0.10431965666E+02  0.97967286719E+01  0.66933346308E+02  0.14193525246E+03  0.12434122905E+03 0.  0.
          5    1    4    4  502    0 -0.27434232731E+02  0.15547966462E+02  0.31455466789E+01  0.32036867053E+02  0.47000000000E+01 0.  1.
         -5    1    4    4    0  502  0.17002267066E+02 -0.25344695134E+02  0.23884450499E+03  0.24083234464E+03  0.47000000000E+01 0.  1.
          5    1    5    5  503    0  0.52350720557E+02 -0.34415112181E+02  0.43846193807E+02  0.76613162059E+02  0.47000000000E+01 0. -1.
         -5    1    5    5    0  503 -0.41918754892E+02  0.44211840853E+02  0.23087152501E+02  0.65322090398E+02  0.47000000000E+01 0. -1.
<mgrwt>
<rscale>  0 0.27681958E+03</rscale>
<asrwt>0</asrwt>
<pdfrwt beam="1">  1        2 0.55671372E-01 0.27681958E+03</pdfrwt>
<pdfrwt beam="2">  1       -2 0.81446976E-02 0.27681958E+03</pdfrwt>
<totfact> 0.81366741E+03</totfact>
</mgrwt>
</event>
<event>
 9    1  0.7944303E-001  0.2763046E+03  0.7818608E-02  0.1097725E+00
          1   -1    0    0  501    0  0.00000000000E+00  0.00000000000E+00  0.21727997380E+02  0.21727997380E+02  0.00000000000E+00 0.  1.
         -1   -1    0    0    0  501 -0.00000000000E+00 -0.00000000000E+00 -0.87840860337E+03  0.87840860337E+03  0.00000000000E+00 0.  1.
         35    2    1    2    0    0  0.00000000000E+00  0.00000000000E+00 -0.85668060599E+03  0.90013660075E+03  0.27630461330E+03 0.  0.
         25    2    3    3    0    0  0.31279008995E+02 -0.48654643847E+02 -0.40156429469E+03  0.42452544269E+03  0.12498927132E+03 0.  0.
         25    2    3    3    0    0 -0.31279008995E+02  0.48654643847E+02 -0.45511631130E+03  0.47561115807E+03  0.12541716826E+03 0.  0.
          5    1    4    4  502    0 -0.33772993198E+02 -0.22407932318E+00 -0.25223553052E+03  0.25452999458E+03  0.47000000000E+01 0.  1.
         -5    1    4    4    0  502  0.65052002193E+02 -0.48430564524E+02 -0.14932876417E+03  0.16999544811E+03  0.47000000000E+01 0.  1.
          5    1    5    5  503    0 -0.81603529890E+01 -0.79590703915E+01 -0.37256799224E+03  0.37277196381E+03  0.47000000000E+01 0.  1.
         -5    1    5    5    0  503 -0.23118656006E+02  0.56613714238E+02 -0.82548319060E+02  0.10283919425E+03  0.47000000000E+01 0.  1.
<mgrwt>
<rscale>  0 0.27630461E+03</rscale>
<asrwt>0</asrwt>
<pdfrwt beam="1">  1        1 0.33427697E-02 0.27630461E+03</pdfrwt>
<pdfrwt beam="2">  1       -1 0.13513975E+00 0.27630461E+03</pdfrwt>
<totfact> 0.14462000E+03</totfact>
</mgrwt>
</event>
<event>
 9    1  0.7944303E-001  0.2747932E+03  0.7818608E-02  0.1098567E+00
          2   -1    0    0  501    0  0.00000000000E+00  0.00000000000E+00  0.44786864963E+04  0.44786864963E+04  0.00000000000E+00 0.  1.
         -2   -1    0    0    0  501 -0.00000000000E+00 -0.00000000000E+00 -0.42150362644E+01  0.42150362644E+01  0.00000000000E+00 0.  1.
         35    2    1    2    0    0 -0.35527136788E-14  0.00000000000E+00  0.44744714600E+04  0.44829015326E+04  0.27479320224E+03 0.  0.
         25    2    3    3    0    0  0.11438614992E+02  0.43040795540E+01  0.31716460669E+04  0.31740732354E+04  0.12350207775E+03 0.  0.
         25    2    3    3    0    0 -0.11438614992E+02 -0.43040795540E+01  0.13028253932E+04  0.13088282972E+04  0.12461195510E+03 0.  0.
          5    1    4    4  502    0  0.45489771994E+02 -0.28955646810E+02  0.25555918528E+04  0.25561650098E+04  0.47000000000E+01 0.  1.
         -5    1    4    4    0  502 -0.34051157002E+02  0.33259726364E+02  0.61605421402E+03  0.61790822563E+03  0.47000000000E+01 0.  1.
          5    1    5    5  503    0  0.31085809867E+02  0.18572798167E+02  0.10871683023E+04  0.10877813585E+04  0.47000000000E+01 0. -1.
         -5    1    5    5    0  503 -0.42524424859E+02 -0.22876877721E+02  0.21565709090E+03  0.22104693868E+03  0.47000000000E+01 0. -1.
<mgrwt>
<rscale>  0 0.27479320E+03</rscale>
<asrwt>0</asrwt>
<pdfrwt beam="1">  1        2 0.68902488E+00 0.27479320E+03</pdfrwt>
<pdfrwt beam="2">  1       -2 0.64847070E-03 0.27479320E+03</pdfrwt>
<totfact> 0.70958923E+02</totfact>
</mgrwt>
</event>
<event>
 9    1  0.7944303E-001  0.2552578E+03  0.7818608E-02  0.1110026E+00
         -2   -1    0    0    0  501 -0.00000000000E+00  0.00000000000E+00  0.65908003007E+02  0.65908003007E+02  0.00000000000E+00 0.  1.
          2   -1    0    0  501    0  0.00000000000E+00 -0.00000000000E+00 -0.24714953825E+03  0.24714953825E+03  0.00000000000E+00 0.  1.
         35    2    1    2    0    0  0.00000000000E+00  0.00000000000E+00 -0.18124153525E+03  0.31305754126E+03  0.25525777175E+03 0.  0.
         25    2    3    3    0    0  0.22373454597E+02  0.99978553454E+01 -0.91275367752E+02  0.15661782713E+03  0.12488964102E+03 0.  0.
         25    2    3    3    0    0 -0.22373454597E+02 -0.99978553454E+01 -0.89966167495E+02  0.15643971413E+03  0.12561426783E+03 0.  0.
          5    1    4    4  502    0 -0.34942111930E+02 -0.30310639374E+02 -0.68500426973E+02  0.82789398723E+02  0.47000000000E+01 0. -1.
         -5    1    4    4    0  502  0.57315566528E+02  0.40308494719E+02 -0.22774940780E+02  0.73828428403E+02  0.47000000000E+01 0. -1.
          5    1    5    5  503    0 -0.59664502990E+02 -0.45439303550E+02 -0.42755059689E+02  0.86456164344E+02  0.47000000000E+01 0. -1.
         -5    1    5    5    0  503  0.37291048392E+02  0.35441448204E+02 -0.47211107805E+02  0.69983549790E+02  0.47000000000E+01 0. -1.
<mgrwt>
<rscale>  0 0.25525777E+03</rscale>
<asrwt>0</asrwt>
<pdfrwt beam="1">  1        2 0.38023006E-01 0.25525777E+03</pdfrwt>
<pdfrwt beam="2">  1       -2 0.10139693E-01 0.25525777E+03</pdfrwt>
<totfact> 0.86543950E+03</totfact>
</mgrwt>
</event>
<event>
 9    1  0.7944303E-001  0.2778256E+03  0.7818608E-02  0.1096883E+00
         -2   -1    0    0    0  501 -0.00000000000E+00  0.00000000000E+00  0.25543648374E+02  0.25543648374E+02  0.00000000000E+00 0.  1.
          2   -1    0    0  501    0  0.00000000000E+00 -0.00000000000E+00 -0.75544264460E+03  0.75544264460E+03  0.00000000000E+00 0.  1.
         35    2    1    2    0    0  0.71054273576E-14  0.35527136788E-14 -0.72989899623E+03  0.78098629298E+03  0.27782556600E+03 0.  0.
         25    2    3    3    0    0 -0.34207990052E+02 -0.25482513998E+02 -0.47765200784E+03  0.49557723315E+03  0.12500323324E+03 0.  0.
         25    2    3    3    0    0  0.34207990052E+02  0.25482513998E+02 -0.25224698839E+03  0.28540905983E+03  0.12653158964E+03 0.  0.
          5    1    4    4  502    0 -0.20181806085E+02 -0.73425647762E+02 -0.35411012398E+03  0.36223569806E+03  0.47000000000E+01 0.  1.
         -5    1    4    4    0  502 -0.14026183967E+02  0.47943133764E+02 -0.12354188386E+03  0.13334153509E+03  0.47000000000E+01 0.  1.
          5    1    5    5  503    0  0.74405471564E+02  0.34553404008E+02 -0.11040749296E+03  0.13762999829E+03  0.47000000000E+01 0. -1.
         -5    1    5    5    0  503 -0.40197481512E+02 -0.90708900100E+01 -0.14183949544E+03  0.14777906154E+03  0.47000000000E+01 0. -1.
<mgrwt>
<rscale>  0 0.27782557E+03</rscale>
<asrwt>0</asrwt>
<pdfrwt beam="1">  1        2 0.11622195E+00 0.27782557E+03</pdfrwt>
<pdfrwt beam="2">  1       -2 0.39297918E-02 0.27782557E+03</pdfrwt>
<totfact> 0.10737166E+04</totfact>
</mgrwt>
</event>
<event>
 9    1  0.7944303E-001  0.2737654E+03  0.7818608E-02  0.1099144E+00
          2   -1    0    0  501    0  0.00000000000E+00  0.00000000000E+00  0.25201688027E+03  0.25201688027E+03  0.00000000000E+00 0. -1.
         -2   -1    0    0    0  501 -0.00000000000E+00 -0.00000000000E+00 -0.74347672551E+02  0.74347672551E+02  0.00000000000E+00 0. -1.
         35    2    1    2    0    0  0.35527136788E-14  0.71054273576E-14  0.17766920771E+03  0.32636455282E+03  0.27376536298E+03 0.  0.
         25    2    3    3    0    0  0.20253972313E+02  0.50441587760E+02  0.92755219160E+02  0.16635202478E+03  0.12694442996E+03 0.  0.
         25    2    3    3    0    0 -0.20253972313E+02 -0.50441587760E+02  0.84913988554E+02  0.16001252804E+03  0.12425395972E+03 0.  0.
          5    1    4    4  502    0  0.43700246420E+02  0.54979307408E+02  0.11404330480E+03  0.13401642119E+03  0.47000000000E+01 0. -1.
         -5    1    4    4    0  502 -0.23446274106E+02 -0.45377196477E+01 -0.21288085639E+02  0.32335603586E+02  0.47000000000E+01 0. -1.
          5    1    5    5  503    0 -0.30127077623E+01 -0.88764874753E+02  0.37613499397E+02  0.96566788984E+02  0.47000000000E+01 0. -1.
         -5    1    5    5    0  503 -0.17241264551E+02  0.38323286993E+02  0.47300489158E+02  0.63445739052E+02  0.47000000000E+01 0. -1.
<mgrwt>
<rscale>  0 0.27376536E+03</rscale>
<asrwt>0</asrwt>
<pdfrwt beam="1">  1        2 0.38771827E-01 0.27376536E+03</pdfrwt>
<pdfrwt beam="2">  1       -2 0.11438104E-01 0.27376536E+03</pdfrwt>
<totfact> 0.70097077E+03</totfact>
</mgrwt>
</event>
<event>
 9    1  0.7944303E-001  0.2779725E+03  0.7818608E-02  0.1096802E+00
          2   -1    0    0  501    0  0.00000000000E+00  0.00000000000E+00  0.80562490177E+02  0.80562490177E+02  0.00000000000E+00 0.  1.
         -2   -1    0    0    0  501 -0.00000000000E+00 -0.00000000000E+00 -0.23977871985E+03  0.23977871985E+03  0.00000000000E+00 0.  1.
         35    2    1    2    0    0  0.00000000000E+00  0.00000000000E+00 -0.15921622967E+03  0.32034121003E+03  0.27797245017E+03 0.  0.
         25    2    3    3    0    0 -0.24609480540E+02  0.25314395812E+02 -0.13625235349E+03  0.18925063136E+03  0.12650949557E+03 0.  0.
         25    2    3    3    0    0  0.24609480540E+02 -0.25314395812E+02 -0.22963876184E+02  0.13109057867E+03  0.12414086772E+03 0.  0.
          5    1    4    4  502    0  0.12454089815E+02  0.36000197314E+02 -0.14451341127E+03  0.14952369243E+03  0.47000000000E+01 0. -1.
         -5    1    4    4    0  502 -0.37063570355E+02 -0.10685801501E+02  0.82610577802E+01  0.39726938932E+02  0.47000000000E+01 0. -1.
          5    1    5    5  503    0  0.69032455769E+02 -0.15362848633E+02  0.14018072147E+02  0.72250213939E+02  0.47000000000E+01 0.  1.
         -5    1    5    5    0  503 -0.44422975228E+02 -0.99515471796E+01 -0.36981948331E+02  0.58840364732E+02  0.47000000000E+01 0.  1.
<mgrwt>
<rscale>  0 0.27797245E+03</rscale>
<asrwt>0</asrwt>
<pdfrwt beam="1">  1        2 0.12394229E-01 0.27797245E+03</pdfrwt>
<pdfrwt beam="2">  1       -2 0.36889034E-01 0.27797245E+03</pdfrwt>
<totfact> 0.34013828E+03</totfact>
</mgrwt>
</event>
<event>
 9    1  0.7944303E-001  0.2749016E+03  0.7818608E-02  0.1098507E+00
         -2   -1    0    0    0  501 -0.00000000000E+00  0.00000000000E+00  0.21184053936E+02  0.21184053936E+02  0.00000000000E+00 0.  1.
          2   -1    0    0  501    0  0.00000000000E+00 -0.00000000000E+00 -0.89183688973E+03  0.89183688973E+03  0.00000000000E+00 0.  1.
         35    2    1    2    0    0  0.00000000000E+00  0.35527136788E-14 -0.87065283579E+03  0.91302094366E+03  0.27490158802E+03 0.  0.
         25    2    3    3    0    0 -0.36582225062E+02 -0.88295039944E+01 -0.29892745653E+03  0.32632788787E+03  0.12536365821E+03 0.  0.
         25    2    3    3    0    0  0.36582225062E+02  0.88295039944E+01 -0.57172537926E+03  0.58669305579E+03  0.12618483704E+03 0.  0.
          5    1    4    4  502    0 -0.16394308259E+02 -0.66935808694E+02 -0.16495333229E+03  0.17883195369E+03  0.47000000000E+01 0. -1.
         -5    1    4    4    0  502 -0.20187916803E+02  0.58106304699E+02 -0.13397412424E+03  0.14749593417E+03  0.47000000000E+01 0. -1.
          5    1    5    5  503    0  0.41929950563E+02 -0.15374351083E+02 -0.63130720014E+02  0.77473022627E+02  0.47000000000E+01 0. -1.
         -5    1    5    5    0  503 -0.53477255008E+01  0.24203855077E+02 -0.50859465924E+03  0.50922003317E+03  0.47000000000E+01 0. -1.
<mgrwt>
<rscale>  0 0.27490159E+03</rscale>
<asrwt>0</asrwt>
<pdfrwt beam="1">  1        2 0.13720571E+00 0.27490159E+03</pdfrwt>
<pdfrwt beam="2">  1       -2 0.32590844E-02 0.27490159E+03</pdfrwt>
<totfact> 0.11472710E+04</totfact>
</mgrwt>
</event>
<event>
 9    1  0.7944303E-001  0.2770834E+03  0.7818608E-02  0.1097293E+00
          2   -1    0    0  501    0  0.00000000000E+00  0.00000000000E+00  0.13118241253E+04  0.13118241253E+04  0.00000000000E+00 0.  1.
         -2   -1    0    0    0  501 -0.00000000000E+00 -0.00000000000E+00 -0.14631382231E+02  0.14631382231E+02  0.00000000000E+00 0.  1.
         35    2    1    2    0    0 -0.88817841970E-15  0.71054273576E-14  0.12971927430E+04  0.13264555075E+04  0.27708338237E+03 0.  0.
         25    2    3    3    0    0  0.73706313052E+01  0.37220338155E+02  0.43201998887E+03  0.45148251703E+03  0.12552096487E+03 0.  0.
         25    2    3    3    0    0 -0.73706313052E+01 -0.37220338155E+02  0.86517275418E+03  0.87497299048E+03  0.12495663135E+03 0.  0.
          5    1    4    4  502    0 -0.42327925708E+01  0.82791725614E+02  0.25005267092E+03  0.26347830005E+03  0.47000000000E+01 0. -1.
         -5    1    4    4    0  502  0.11603423876E+02 -0.45571387459E+02  0.18196731795E+03  0.18800421698E+03  0.47000000000E+01 0. -1.
          5    1    5    5  503    0  0.44729381635E+02 -0.28115452496E+01  0.13936549856E+03  0.14646997834E+03  0.47000000000E+01 0.  1.
         -5    1    5    5    0  503 -0.52100012940E+02 -0.34408792906E+02  0.72580725562E+03  0.72850301214E+03  0.47000000000E+01 0.  1.
<mgrwt>
<rscale>  0 0.27708338E+03</rscale>
<asrwt>0</asrwt>
<pdfrwt beam="1">  1        2 0.20181900E+00 0.27708338E+03</pdfrwt>
<pdfrwt beam="2">  1       -2 0.22509829E-02 0.27708338E+03</pdfrwt>
<totfact> 0.11214655E+04</totfact>
</mgrwt>
</event>
<event>
 9    1  0.7944303E-001  0.2802377E+03  0.7818608E-02  0.1095559E+00
          2   -1    0    0  501    0  0.00000000000E+00  0.00000000000E+00  0.39110660078E+04  0.39110660078E+04  0.00000000000E+00 0. -1.
         -2   -1    0    0    0  501 -0.00000000000E+00 -0.00000000000E+00 -0.50199352077E+01  0.50199352077E+01  0.00000000000E+00 0. -1.
         35    2    1    2    0    0 -0.71054273576E-14 -0.71054273576E-14  0.39060460726E+04  0.39160859430E+04  0.28023774159E+03 0.  0.
         25    2    3    3    0    0 -0.63011856780E+02 -0.17582029300E+02  0.19175310804E+04  0.19227397789E+04  0.12539214987E+03 0.  0.
         25    2    3    3    0    0  0.63011856780E+02  0.17582029300E+02  0.19885149922E+04  0.19933461641E+04  0.12230058833E+03 0.  0.
          5    1    4    4  502    0 -0.41590240742E+02  0.14272657958E+02  0.17591322359E+04  0.17596879753E+04  0.47000000000E+01 0. -1.
         -5    1    4    4    0  502 -0.21421616038E+02 -0.31854687259E+02  0.15839884446E+03  0.16305180361E+03  0.47000000000E+01 0. -1.
          5    1    5    5  503    0  0.22839514883E+02 -0.51541738480E+02  0.66034495988E+03  0.66276372131E+03  0.47000000000E+01 0. -1.
         -5    1    5    5    0  503  0.40172341897E+02  0.69123767780E+02  0.13281700323E+04  0.13305824428E+04  0.47000000000E+01 0. -1.
<mgrwt>
<rscale>  0 0.28023774E+03</rscale>
<asrwt>0</asrwt>
<pdfrwt beam="1">  1        2 0.60170002E+00 0.28023774E+03</pdfrwt>
<pdfrwt beam="2">  1       -2 0.77230085E-03 0.28023774E+03</pdfrwt>
<totfact> 0.16176498E+03</totfact>
</mgrwt>
</event>
<event>
 9    1  0.7944303E-001  0.2776493E+03  0.7818608E-02  0.1096980E+00
          2   -1    0    0  501    0  0.00000000000E+00  0.00000000000E+00  0.38319088076E+03  0.38319088076E+03  0.00000000000E+00 0.  1.
         -2   -1    0    0    0  501 -0.00000000000E+00 -0.00000000000E+00 -0.50294204812E+02  0.50294204812E+02  0.00000000000E+00 0.  1.
         35    2    1    2    0    0  0.00000000000E+00  0.00000000000E+00  0.33289667594E+03  0.43348508557E+03  0.27764927977E+03 0.  0.
         25    2    3    3    0    0 -0.51976176643E+02  0.24427308918E+02  0.20175536808E+03  0.24297764035E+03  0.12261602178E+03 0.  0.
         25    2    3    3    0    0  0.51976176643E+02 -0.24427308918E+02  0.13114130786E+03  0.19050744522E+03  0.12568543153E+03 0.  0.
          5    1    4    4  502    0 -0.26753038312E+02 -0.49384336734E+02  0.98509845044E+02  0.11349368856E+03  0.47000000000E+01 0.  1.
         -5    1    4    4    0  502 -0.25223138331E+02  0.73811645652E+02  0.10324552304E+03  0.12948395178E+03  0.47000000000E+01 0.  1.
          5    1    5    5  503    0 -0.25572450700E+02  0.25418606618E+02  0.72616034469E+02  0.81211047642E+02  0.47000000000E+01 0.  1.
         -5    1    5    5    0  503  0.77548627343E+02 -0.49845915536E+02  0.58525273393E+02  0.10929639758E+03  0.47000000000E+01 0.  1.
<mgrwt>
<rscale>  0 0.27764928E+03</rscale>
<asrwt>0</asrwt>
<pdfrwt beam="1">  1        2 0.58952441E-01 0.27764928E+03</pdfrwt>
<pdfrwt beam="2">  1       -2 0.77375702E-02 0.27764928E+03</pdfrwt>
<totfact> 0.82862607E+03</totfact>
</mgrwt>
</event>
<event>
 9    1  0.7944303E-001  0.2747983E+03  0.7818608E-02  0.1098564E+00
          2   -1    0    0  501    0  0.00000000000E+00  0.00000000000E+00  0.89567603961E+03  0.89567603961E+03  0.00000000000E+00 0. -1.
         -2   -1    0    0    0  501 -0.00000000000E+00 -0.00000000000E+00 -0.21077406177E+02  0.21077406177E+02  0.00000000000E+00 0. -1.
         35    2    1    2    0    0  0.00000000000E+00 -0.71054273576E-14  0.87459863343E+03  0.91675344579E+03  0.27479830924E+03 0.  0.
         25    2    3    3    0    0  0.39842892701E+02  0.16645985160E+02  0.33554980171E+03  0.36083297246E+03  0.12546800255E+03 0.  0.
         25    2    3    3    0    0 -0.39842892701E+02 -0.16645985160E+02  0.53904883172E+03  0.55592047333E+03  0.12887740207E+03 0.  0.
          5    1    4    4  502    0  0.20973968430E+02 -0.54119137471E+02  0.17149198870E+03  0.18110875346E+03  0.47000000000E+01 0. -1.
         -5    1    4    4    0  502  0.18868924272E+02  0.70765122630E+02  0.16405781301E+03  0.17972421900E+03  0.47000000000E+01 0. -1.
          5    1    5    5  503    0 -0.12037754262E+02 -0.84231632663E+01 -0.63427431834E+00  0.15438572181E+02  0.47000000000E+01 0. -1.
         -5    1    5    5    0  503 -0.27805138439E+02 -0.82228218933E+01  0.53968310604E+03  0.54048190114E+03  0.47000000000E+01 0. -1.
<mgrwt>
<rscale>  0 0.27479831E+03</rscale>
<asrwt>0</asrwt>
<pdfrwt beam="1">  1        2 0.13779628E+00 0.27479831E+03</pdfrwt>
<pdfrwt beam="2">  1       -2 0.32426786E-02 0.27479831E+03</pdfrwt>
<totfact> 0.11493235E+04</totfact>
</mgrwt>
</event>
<event>
 9    1  0.7944303E-001  0.2759981E+03  0.7818608E-02  0.1097895E+00
          2   -1    0    0  501    0  0.00000000000E+00  0.00000000000E+00  0.39106536625E+03  0.39106536625E+03  0.00000000000E+00 0. -1.
         -2   -1    0    0    0  501 -0.00000000000E+00 -0.00000000000E+00 -0.48697068195E+02  0.48697068195E+02  0.00000000000E+00 0. -1.
         35    2    1    2    0    0 -0.35527136788E-14  0.21316282073E-13  0.34236829805E+03  0.43976243444E+03  0.27599809281E+03 0.  0.
         25    2    3    3    0    0  0.12056903424E+02 -0.56267799186E+02  0.17680851974E+03  0.22416562555E+03  0.12520998714E+03 0.  0.
         25    2    3    3    0    0 -0.12056903424E+02  0.56267799186E+02  0.16555977831E+03  0.21559680889E+03  0.12554086850E+03 0.  0.
          5    1    4    4  502    0 -0.28799962516E+02  0.18852564597E+02  0.11056447489E+03  0.11589413333E+03  0.47000000000E+01 0.  1.
         -5    1    4    4    0  502  0.40856865940E+02 -0.75120363783E+02  0.66244044857E+02  0.10827149222E+03  0.47000000000E+01 0.  1.
          5    1    5    5  503    0  0.40550863419E+02 -0.16355763900E+02  0.30922551233E+02  0.53760373060E+02  0.47000000000E+01 0.  1.
         -5    1    5    5    0  503 -0.52607766843E+02  0.72623563086E+02  0.13463722708E+03  0.16183643583E+03  0.47000000000E+01 0.  1.
<mgrwt>
<rscale>  0 0.27599809E+03</rscale>
<asrwt>0</asrwt>
<pdfrwt beam="1">  1        2 0.60163901E-01 0.27599809E+03</pdfrwt>
<pdfrwt beam="2">  1       -2 0.74918569E-02 0.27599809E+03</pdfrwt>
<totfact> 0.85213043E+03</totfact>
</mgrwt>
</event>
<event>
 9    1  0.7944303E-001  0.2794994E+03  0.7818608E-02  0.1095963E+00
         -1   -1    0    0    0  501 -0.00000000000E+00  0.00000000000E+00  0.26470303853E+03  0.26470303853E+03  0.00000000000E+00 0. -1.
          1   -1    0    0  501    0  0.00000000000E+00 -0.00000000000E+00 -0.73780737844E+02  0.73780737844E+02  0.00000000000E+00 0. -1.
         35    2    1    2    0    0  0.00000000000E+00  0.88817841970E-15  0.19092230069E+03  0.33848377638E+03  0.27949944896E+03 0.  0.
         25    2    3    3    0    0 -0.52580261848E+02  0.76107331846E+01  0.84903635712E+02  0.15978519625E+03  0.12449929473E+03 0.  0.
         25    2    3    3    0    0  0.52580261848E+02 -0.76107331846E+01  0.10601866498E+03  0.17869858013E+03  0.13368103090E+03 0.  0.
          5    1    4    4  502    0 -0.12024727247E+02  0.73980631474E+00  0.11040541373E+03  0.11116018514E+03  0.47000000000E+01 0. -1.
         -5    1    4    4    0  502 -0.40555534601E+02  0.68709268698E+01 -0.25501778022E+02  0.48625011107E+02  0.47000000000E+01 0. -1.
          5    1    5    5  503    0  0.25774175766E+01 -0.81309745654E+01 -0.31142988859E+02  0.32630225004E+02  0.47000000000E+01 0.  1.
         -5    1    5    5    0  503  0.50002844271E+02  0.52024138084E+00  0.13716165384E+03  0.14606835513E+03  0.47000000000E+01 0.  1.
<mgrwt>
<rscale>  0 0.27949945E+03</rscale>
<asrwt>0</asrwt>
<pdfrwt beam="1">  1        1 0.11350883E-01 0.27949945E+03</pdfrwt>
<pdfrwt beam="2">  1       -1 0.40723544E-01 0.27949945E+03</pdfrwt>
<totfact> 0.32206358E+03</totfact>
</mgrwt>
</event>
<event>
 9    1  0.7944303E-001  0.2718854E+03  0.7818608E-02  0.1100205E+00
          2   -1    0    0  501    0  0.00000000000E+00  0.00000000000E+00  0.28210222917E+02  0.28210222917E+02  0.00000000000E+00 0. -1.
         -2   -1    0    0    0  501 -0.00000000000E+00 -0.00000000000E+00 -0.65509630712E+03  0.65509630712E+03  0.00000000000E+00 0. -1.
         35    2    1    2    0    0  0.71054273576E-14  0.00000000000E+00 -0.62688608421E+03  0.68330653004E+03  0.27188536449E+03 0.  0.
         25    2    3    3    0    0 -0.40348517279E+02  0.13228423882E+01 -0.39614373252E+03  0.41771037545E+03  0.12618378732E+03 0.  0.
         25    2    3    3    0    0  0.40348517279E+02 -0.13228423882E+01 -0.23074235168E+03  0.26559615459E+03  0.12517800012E+03 0.  0.
          5    1    4    4  502    0 -0.19901174990E+02 -0.52893241957E+02 -0.92097140528E+02  0.10815602204E+03  0.47000000000E+01 0.  1.
         -5    1    4    4    0  502 -0.20447342289E+02  0.54216084345E+02 -0.30404659199E+03  0.30955435340E+03  0.47000000000E+01 0.  1.
          5    1    5    5  503    0  0.26905241053E+02  0.60201631611E+02 -0.14246822519E+03  0.15705863120E+03  0.47000000000E+01 0.  1.
         -5    1    5    5    0  503  0.13443276226E+02 -0.61524473999E+02 -0.88274126495E+02  0.10853752340E+03  0.47000000000E+01 0.  1.
<mgrwt>
<rscale>  0 0.27188536E+03</rscale>
<asrwt>0</asrwt>
<pdfrwt beam="1">  1        2 0.43400349E-02 0.27188536E+03</pdfrwt>
<pdfrwt beam="2">  1       -2 0.10078403E+00 0.27188536E+03</pdfrwt>
<totfact> 0.15973605E+03</totfact>
</mgrwt>
</event>
<event>
 9    1  0.7944303E-001  0.2893236E+03  0.7818608E-02  0.1090703E+00
         -3   -1    0    0    0  501 -0.00000000000E+00  0.00000000000E+00  0.40016098246E+02  0.40016098246E+02  0.00000000000E+00 0.  1.
          3   -1    0    0  501    0  0.00000000000E+00 -0.00000000000E+00 -0.52296557100E+03  0.52296557100E+03  0.00000000000E+00 0.  1.
         35    2    1    2    0    0 -0.71054273576E-14  0.00000000000E+00 -0.48294947275E+03  0.56298166925E+03  0.28932363656E+03 0.  0.
         25    2    3    3    0    0  0.24878873194E+02  0.55350242579E+02 -0.16339125314E+03  0.21468318279E+03  0.12533778235E+03 0.  0.
         25    2    3    3    0    0 -0.24878873194E+02 -0.55350242579E+02 -0.31955821961E+03  0.34829848646E+03  0.12454626555E+03 0.  0.
          5    1    4    4  502    0 -0.23605769633E+02  0.54119975863E+02 -0.18863259170E+02  0.62162019706E+02  0.47000000000E+01 0. -1.
         -5    1    4    4    0  502  0.48484642827E+02  0.12302667164E+01 -0.14452799397E+03  0.15252116308E+03  0.47000000000E+01 0. -1.
          5    1    5    5  503    0  0.21402007711E+02 -0.73801216594E+02 -0.12008561756E+03  0.14264400110E+03  0.47000000000E+01 0. -1.
         -5    1    5    5    0  503 -0.46280880904E+02  0.18450974014E+02 -0.19947260205E+03  0.20565448536E+03  0.47000000000E+01 0. -1.
<mgrwt>
<rscale>  0 0.28932364E+03</rscale>
<asrwt>0</asrwt>
<pdfrwt beam="1">  1        3 0.80456241E-01 0.28932364E+03</pdfrwt>
<pdfrwt beam="2">  1       -3 0.61563228E-02 0.28932364E+03</pdfrwt>
<totfact> 0.61432854E+02</totfact>
</mgrwt>
</event>
<event>
 9    1  0.7944303E-001  0.2743852E+03  0.7818608E-02  0.1098796E+00
          2   -1    0    0  501    0  0.00000000000E+00  0.00000000000E+00  0.24865374918E+04  0.24865374918E+04  0.00000000000E+00 0. -1.
         -2   -1    0    0    0  501 -0.00000000000E+00 -0.00000000000E+00 -0.75694836300E+01  0.75694836300E+01  0.00000000000E+00 0. -1.
         35    2    1    2    0    0  0.00000000000E+00 -0.35527136788E-14  0.24789680082E+04  0.24941069754E+04  0.27438516607E+03 0.  0.
         25    2    3    3    0    0  0.36292212406E+02  0.28644074346E+02  0.15593742914E+04  0.15650908217E+04  0.12539334828E+03 0.  0.
         25    2    3    3    0    0 -0.36292212406E+02 -0.28644074346E+02  0.91959371681E+03  0.92901615378E+03  0.12361554233E+03 0.  0.
          5    1    4    4  502    0  0.61890637443E+02  0.61427521058E+02  0.84756077419E+03  0.85204762032E+03  0.47000000000E+01 0. -1.
         -5    1    4    4    0  502 -0.25598425037E+02 -0.32783446712E+02  0.71181351717E+03  0.71304320134E+03  0.47000000000E+01 0. -1.
          5    1    5    5  503    0 -0.68330011348E+01 -0.75817901525E+01  0.29127347083E+01  0.11608077787E+02  0.47000000000E+01 0.  1.
         -5    1    5    5    0  503 -0.29459211272E+02 -0.21062284194E+02  0.91668098211E+03  0.91740807599E+03  0.47000000000E+01 0.  1.
<mgrwt>
<rscale>  0 0.27438517E+03</rscale>
<asrwt>0</asrwt>
<pdfrwt beam="1">  1        2 0.38254358E+00 0.27438517E+03</pdfrwt>
<pdfrwt beam="2">  1       -2 0.11645379E-02 0.27438517E+03</pdfrwt>
<totfact> 0.69675958E+03</totfact>
</mgrwt>
</event>
<event>
 9    1  0.7944303E-001  0.2646948E+03  0.7818608E-02  0.1104355E+00
          1   -1    0    0  501    0  0.00000000000E+00  0.00000000000E+00  0.14236204446E+03  0.14236204446E+03  0.00000000000E+00 0. -1.
         -1   -1    0    0    0  501 -0.00000000000E+00 -0.00000000000E+00 -0.12303721398E+03  0.12303721398E+03  0.00000000000E+00 0. -1.
         35    2    1    2    0    0  0.00000000000E+00  0.35527136788E-14  0.19324830481E+02  0.26539925845E+03  0.26469476253E+03 0.  0.
         25    2    3    3    0    0 -0.84130005710E+01  0.29436106346E+02 -0.28359691799E+02  0.12853278668E+03  0.12156949534E+03 0.  0.
         25    2    3    3    0    0  0.84130005710E+01 -0.29436106346E+02  0.47684522280E+02  0.13686647177E+03  0.12458472818E+03 0.  0.
          5    1    4    4  502    0  0.48426720131E+02  0.20640726663E+02  0.16579467726E+02  0.55390934005E+02  0.47000000000E+01 0. -1.
         -5    1    4    4    0  502 -0.56839720702E+02  0.87953796832E+01 -0.44939159525E+02  0.73141852670E+02  0.47000000000E+01 0. -1.
          5    1    5    5  503    0  0.35928770945E+02  0.37062416001E+02  0.27742308500E+01  0.51906508438E+02  0.47000000000E+01 0. -1.
         -5    1    5    5    0  503 -0.27515770374E+02 -0.66498522347E+02  0.44910291430E+02  0.84959963335E+02  0.47000000000E+01 0. -1.
<mgrwt>
<rscale>  0 0.26469476E+03</rscale>
<asrwt>0</asrwt>
<pdfrwt beam="1">  1        1 0.21901853E-01 0.26469476E+03</pdfrwt>
<pdfrwt beam="2">  1       -1 0.18928802E-01 0.26469476E+03</pdfrwt>
<totfact> 0.49637300E+03</totfact>
</mgrwt>
</event>
<event>
 9    1  0.7944303E-001  0.2739247E+03  0.7818608E-02  0.1099054E+00
         -2   -1    0    0    0  501 -0.00000000000E+00  0.00000000000E+00  0.83622453148E+01  0.83622453148E+01  0.00000000000E+00 0. -1.
          2   -1    0    0  501    0  0.00000000000E+00 -0.00000000000E+00 -0.22432597505E+04  0.22432597505E+04  0.00000000000E+00 0. -1.
         35    2    1    2    0    0  0.71054273576E-14  0.00000000000E+00 -0.22348975052E+04  0.22516219958E+04  0.27392472206E+03 0.  0.
         25    2    3    3    0    0  0.37788035684E+02 -0.15054893950E+02 -0.81484966113E+03  0.82545890537E+03  0.12549043285E+03 0.  0.
         25    2    3    3    0    0 -0.37788035684E+02  0.15054893950E+02 -0.14200478441E+04  0.14261630904E+04  0.12550177557E+03 0.  0.
          5    1    4    4  502    0  0.26079182088E+02 -0.50882139416E+02 -0.73281567796E+03  0.73505783698E+03  0.47000000000E+01 0.  1.
         -5    1    4    4    0  502  0.11708853596E+02  0.35827245466E+02 -0.82033983171E+02  0.90401068385E+02  0.47000000000E+01 0.  1.
          5    1    5    5  503    0 -0.22182301696E+02  0.39456505961E+02 -0.13421553004E+04  0.13429265843E+04  0.47000000000E+01 0. -1.
         -5    1    5    5    0  503 -0.15605733988E+02 -0.24401612011E+02 -0.77892543682E+02  0.83236506193E+02  0.47000000000E+01 0. -1.
<mgrwt>
<rscale>  0 0.27392472E+03</rscale>
<asrwt>0</asrwt>
<pdfrwt beam="1">  1        2 0.34511685E+00 0.27392472E+03</pdfrwt>
<pdfrwt beam="2">  1       -2 0.12864994E-02 0.27392472E+03</pdfrwt>
<totfact> 0.81545329E+03</totfact>
</mgrwt>
</event>
<event>
 9    1  0.7944303E-001  0.2746096E+03  0.7818608E-02  0.1098670E+00
          2   -1    0    0  501    0  0.00000000000E+00  0.00000000000E+00  0.10228480616E+04  0.10228480616E+04  0.00000000000E+00 0.  1.
         -2   -1    0    0    0  501 -0.00000000000E+00 -0.00000000000E+00 -0.18431487716E+02  0.18431487716E+02  0.00000000000E+00 0.  1.
         35    2    1    2    0    0  0.00000000000E+00  0.35527136788E-14  0.10044165739E+04  0.10412795494E+04  0.27460962462E+03 0.  0.
         25    2    3    3    0    0  0.11868809322E-01 -0.16024647770E+02  0.71293575526E+03  0.72390495744E+03  0.12451588975E+03 0.  0.
         25    2    3    3    0    0 -0.11868809322E-01  0.16024647770E+02  0.29148081866E+03  0.31737459192E+03  0.12453423011E+03 0.  0.
          5    1    4    4  502    0 -0.10146107574E+02  0.28642014213E+02  0.45691593124E+02  0.55073770156E+02  0.47000000000E+01 0. -1.
         -5    1    4    4    0  502  0.10157976383E+02 -0.44666661983E+02  0.66724416214E+03  0.66883118728E+03  0.47000000000E+01 0. -1.
          5    1    5    5  503    0  0.55022156650E+02  0.30842189672E+02  0.10768285004E+03  0.12488540578E+03  0.47000000000E+01 0. -1.
         -5    1    5    5    0  503 -0.55034025460E+02 -0.14817541902E+02  0.18379796863E+03  0.19248918613E+03  0.47000000000E+01 0. -1.
<mgrwt>
<rscale>  0 0.27460962E+03</rscale>
<asrwt>0</asrwt>
<pdfrwt beam="1">  1        2 0.15736120E+00 0.27460962E+03</pdfrwt>
<pdfrwt beam="2">  1       -2 0.28356143E-02 0.27460962E+03</pdfrwt>
<totfact> 0.11684278E+04</totfact>
</mgrwt>
</event>
<event>
 9    1  0.7944303E-001  0.2803895E+03  0.7818608E-02  0.1095476E+00
         -2   -1    0    0    0  501 -0.00000000000E+00  0.00000000000E+00  0.19231086974E+02  0.19231086974E+02  0.00000000000E+00 0. -1.
          2   -1    0    0  501    0  0.00000000000E+00 -0.00000000000E+00 -0.10220207652E+04  0.10220207652E+04  0.00000000000E+00 0. -1.
         35    2    1    2    0    0 -0.35527136788E-14  0.71054273576E-14 -0.10027896782E+04  0.10412518522E+04  0.28038951639E+03 0.  0.
         25    2    3    3    0    0  0.19457568264E+02  0.31511503153E+02 -0.31876027626E+03  0.34485283623E+03  0.12626873381E+03 0.  0.
         25    2    3    3    0    0 -0.19457568264E+02 -0.31511503153E+02 -0.68402940197E+03  0.69639901595E+03  0.12531478312E+03 0.  0.
          5    1    4    4  502    0  0.63991621672E+00 -0.48483433402E+02 -0.13422656800E+03  0.14279325742E+03  0.47000000000E+01 0.  1.
         -5    1    4    4    0  502  0.18817652048E+02  0.79994936555E+02 -0.18453370826E+03  0.20205957881E+03  0.47000000000E+01 0.  1.
          5    1    5    5  503    0  0.26492344877E+02 -0.65251794749E+02 -0.44871654746E+03  0.45423371849E+03  0.47000000000E+01 0. -1.
         -5    1    5    5    0  503 -0.45949913141E+02  0.33740291596E+02 -0.23531285452E+03  0.24216529746E+03  0.47000000000E+01 0. -1.
<mgrwt>
<rscale>  0 0.28038952E+03</rscale>
<asrwt>0</asrwt>
<pdfrwt beam="1">  1        2 0.15723394E+00 0.28038952E+03</pdfrwt>
<pdfrwt beam="2">  1       -2 0.29586292E-02 0.28038952E+03</pdfrwt>
<totfact> 0.10988961E+04</totfact>
</mgrwt>
</event>
<event>
 9    1  0.7944303E-001  0.2794053E+03  0.7818608E-02  0.1096014E+00
          1   -1    0    0  501    0  0.00000000000E+00  0.00000000000E+00  0.12824993678E+04  0.12824993678E+04  0.00000000000E+00 0. -1.
         -1   -1    0    0    0  501 -0.00000000000E+00 -0.00000000000E+00 -0.15217804154E+02  0.15217804154E+02  0.00000000000E+00 0. -1.
         35    2    1    2    0    0  0.88817841970E-15  0.00000000000E+00  0.12672815636E+04  0.12977171719E+04  0.27940525555E+03 0.  0.
         25    2    3    3    0    0 -0.77632059992E+01  0.52513702157E+02  0.78779395444E+03  0.79937658220E+03  0.12476237108E+03 0.  0.
         25    2    3    3    0    0  0.77632059992E+01 -0.52513702157E+02  0.47948760919E+03  0.49834058974E+03  0.12496807485E+03 0.  0.
          5    1    4    4  502    0 -0.59982573716E+01  0.92450054224E+02  0.47212825468E+03  0.48115503789E+03  0.47000000000E+01 0.  1.
         -5    1    4    4    0  502 -0.17649486276E+01 -0.39936352066E+02  0.31566569976E+03  0.31822154431E+03  0.47000000000E+01 0.  1.
          5    1    5    5  503    0 -0.33531193384E+02  0.27696449868E+02  0.19534499454E+03  0.20018289427E+03  0.47000000000E+01 0.  1.
         -5    1    5    5    0  503  0.41294399383E+02 -0.80210152026E+02  0.28414261465E+03  0.29815769547E+03  0.47000000000E+01 0.  1.
<mgrwt>
<rscale>  0 0.27940526E+03</rscale>
<asrwt>0</asrwt>
<pdfrwt beam="1">  1        1 0.19730751E+00 0.27940526E+03</pdfrwt>
<pdfrwt beam="2">  1       -1 0.23412017E-02 0.27940526E+03</pdfrwt>
<totfact> 0.54599525E+03</totfact>
</mgrwt>
</event>
<event>
 9    1  0.7944303E-001  0.2822832E+03  0.7818608E-02  0.1094448E+00
          1   -1    0    0  501    0  0.00000000000E+00  0.00000000000E+00  0.16498827631E+04  0.16498827631E+04  0.00000000000E+00 0.  1.
         -1   -1    0    0    0  501 -0.00000000000E+00 -0.00000000000E+00 -0.12074162316E+02  0.12074162316E+02  0.00000000000E+00 0.  1.
         35    2    1    2    0    0  0.35527136788E-14  0.14210854715E-13  0.16378086008E+04  0.16619569254E+04  0.28228320733E+03 0.  0.
         25    2    3    3    0    0  0.13270046391E+02 -0.62039407967E+02  0.90859279367E+03  0.91938528130E+03  0.12531340105E+03 0.  0.
         25    2    3    3    0    0 -0.13270046391E+02  0.62039407967E+02  0.72921580714E+03  0.74257164415E+03  0.12502788103E+03 0.  0.
          5    1    4    4  502    0 -0.37805742098E+02 -0.77436435707E+02  0.51832140978E+03  0.52545680084E+03  0.47000000000E+01 0.  1.
         -5    1    4    4    0  502  0.51075788488E+02  0.15397027739E+02  0.39027138389E+03  0.39392848046E+03  0.47000000000E+01 0.  1.
          5    1    5    5  503    0 -0.59070109189E+01  0.93028471967E+02  0.65576930099E+03  0.66237803066E+03  0.47000000000E+01 0. -1.
         -5    1    5    5    0  503 -0.73630354718E+01 -0.30989064000E+02  0.73446506151E+02  0.80193613491E+02  0.47000000000E+01 0. -1.
<mgrwt>
<rscale>  0 0.28228321E+03</rscale>
<asrwt>0</asrwt>
<pdfrwt beam="1">  1        1 0.25382794E+00 0.28228321E+03</pdfrwt>
<pdfrwt beam="2">  1       -1 0.18575647E-02 0.28228321E+03</pdfrwt>
<totfact> 0.43561926E+03</totfact>
</mgrwt>
</event>
<event>
 9    1  0.7944303E-001  0.2808608E+03  0.7818608E-02  0.1095220E+00
         -2   -1    0    0    0  501 -0.00000000000E+00  0.00000000000E+00  0.31085001637E+03  0.31085001637E+03  0.00000000000E+00 0. -1.
          2   -1    0    0  501    0  0.00000000000E+00 -0.00000000000E+00 -0.63441201794E+02  0.63441201794E+02  0.00000000000E+00 0. -1.
         35    2    1    2    0    0  0.00000000000E+00  0.17763568394E-14  0.24740881458E+03  0.37429121817E+03  0.28086080977E+03 0.  0.
         25    2    3    3    0    0 -0.54884074248E+02  0.23128051999E+01  0.15813282584E+03  0.20919860106E+03  0.12546096367E+03 0.  0.
         25    2    3    3    0    0  0.54884074248E+02 -0.23128051999E+01  0.89275988739E+02  0.16509261711E+03  0.12754512685E+03 0.  0.
          5    1    4    4  502    0 -0.46502308399E+02  0.93602450457E+01 -0.28716690804E+01  0.47753694695E+02  0.47000000000E+01 0. -1.
         -5    1    4    4    0  502 -0.83817658493E+01 -0.70474398457E+01  0.16100449492E+03  0.16144490636E+03  0.47000000000E+01 0. -1.
          5    1    5    5  503    0  0.16902085029E+02 -0.43529476276E+02  0.97540018153E+02  0.10824343363E+03  0.47000000000E+01 0.  1.
         -5    1    5    5    0  503  0.37981989219E+02  0.41216671076E+02 -0.82640294132E+01  0.56849183475E+02  0.47000000000E+01 0.  1.
<mgrwt>
<rscale>  0 0.28086081E+03</rscale>
<asrwt>0</asrwt>
<pdfrwt beam="1">  1        2 0.97601850E-02 0.28086081E+03</pdfrwt>
<pdfrwt beam="2">  1       -2 0.47823079E-01 0.28086081E+03</pdfrwt>
<totfact> 0.27665283E+03</totfact>
</mgrwt>
</event>
<event>
 9    1  0.7944303E-001  0.2734680E+03  0.7818608E-02  0.1099311E+00
          2   -1    0    0  501    0  0.00000000000E+00  0.00000000000E+00  0.56805903712E+03  0.56805903712E+03  0.00000000000E+00 0. -1.
         -2   -1    0    0    0  501 -0.00000000000E+00 -0.00000000000E+00 -0.32912396119E+02  0.32912396119E+02  0.00000000000E+00 0. -1.
         35    2    1    2    0    0  0.00000000000E+00  0.35527136788E-14  0.53514664100E+03  0.60097143324E+03  0.27346798020E+03 0.  0.
         25    2    3    3    0    0  0.30581044259E+02 -0.29755412815E+02  0.33899949953E+03  0.36413208847E+03  0.12590048577E+03 0.  0.
         25    2    3    3    0    0 -0.30581044259E+02  0.29755412815E+02  0.19614714147E+03  0.23683934476E+03  0.12569243915E+03 0.  0.
          5    1    4    4  502    0 -0.44090961982E+02 -0.68328382321E+01  0.63603987556E+02  0.77834811234E+02  0.47000000000E+01 0. -1.
         -5    1    4    4    0  502  0.74672006241E+02 -0.22922574583E+02  0.27539551197E+03  0.28629727724E+03  0.47000000000E+01 0. -1.
          5    1    5    5  503    0 -0.37884844358E+02  0.18453797382E+02  0.21160591634E+03  0.21581232101E+03  0.47000000000E+01 0. -1.
         -5    1    5    5    0  503  0.73038000996E+01  0.11301615433E+02 -0.15458774870E+02  0.21027023750E+02  0.47000000000E+01 0. -1.
<mgrwt>
<rscale>  0 0.27346798E+03</rscale>
<asrwt>0</asrwt>
<pdfrwt beam="1">  1        2 0.87393691E-01 0.27346798E+03</pdfrwt>
<pdfrwt beam="2">  1       -2 0.50634460E-02 0.27346798E+03</pdfrwt>
<totfact> 0.10274626E+04</totfact>
</mgrwt>
</event>
<event>
 9    1  0.7944303E-001  0.2780830E+03  0.7818608E-02  0.1096741E+00
          2   -1    0    0  501    0  0.00000000000E+00  0.00000000000E+00  0.93919472370E+03  0.93919472370E+03  0.00000000000E+00 0.  1.
         -2   -1    0    0    0  501 -0.00000000000E+00 -0.00000000000E+00 -0.20584166433E+02  0.20584166433E+02  0.00000000000E+00 0.  1.
         35    2    1    2    0    0  0.00000000000E+00  0.00000000000E+00  0.91861055727E+03  0.95977889014E+03  0.27808301283E+03 0.  0.
         25    2    3    3    0    0 -0.48447528879E+01 -0.60322009290E+02  0.48372974543E+03  0.50336605069E+03  0.12538220741E+03 0.  0.
         25    2    3    3    0    0  0.48447528879E+01  0.60322009290E+02  0.43488081184E+03  0.45641283945E+03  0.12461598241E+03 0.  0.
          5    1    4    4  502    0 -0.26761043427E+02 -0.91783314749E+02  0.27737732090E+03  0.29342903480E+03  0.47000000000E+01 0.  1.
         -5    1    4    4    0  502  0.21916290539E+02  0.31461305458E+02  0.20635242453E+03  0.20993701589E+03  0.47000000000E+01 0.  1.
          5    1    5    5  503    0  0.28364192180E+02 -0.12987072492E+02  0.29494154048E+03  0.29662399389E+03  0.47000000000E+01 0.  1.
         -5    1    5    5    0  503 -0.23519439292E+02  0.73309081783E+02  0.13993927136E+03  0.15978884556E+03  0.47000000000E+01 0.  1.
<mgrwt>
<rscale>  0 0.27808301E+03</rscale>
<asrwt>0</asrwt>
<pdfrwt beam="1">  1        2 0.14449146E+00 0.27808301E+03</pdfrwt>
<pdfrwt beam="2">  1       -2 0.31667956E-02 0.27808301E+03</pdfrwt>
<totfact> 0.11171585E+04</totfact>
</mgrwt>
</event>
<event>
 9    1  0.7944303E-001  0.2749345E+03  0.7818608E-02  0.1098488E+00
          2   -1    0    0  501    0  0.00000000000E+00  0.00000000000E+00  0.20572555169E+03  0.20572555169E+03  0.00000000000E+00 0. -1.
         -2   -1    0    0    0  501 -0.00000000000E+00 -0.00000000000E+00 -0.91856550682E+02  0.91856550682E+02  0.00000000000E+00 0. -1.
         35    2    1    2    0    0  0.00000000000E+00  0.00000000000E+00  0.11386900101E+03  0.29758210237E+03  0.27493446176E+03 0.  0.
         25    2    3    3    0    0  0.40453578158E+02  0.84896938806E+01  0.15410133064E+02  0.13249878274E+03  0.12493953873E+03 0.  0.
         25    2    3    3    0    0 -0.40453578158E+02 -0.84896938806E+01  0.98458867943E+02  0.16508331963E+03  0.12589593662E+03 0.  0.
          5    1    4    4  502    0  0.73173852580E+02 -0.24816073350E+02  0.30507204838E+02  0.83204745928E+02  0.47000000000E+01 0.  1.
         -5    1    4    4    0  502 -0.32720274421E+02  0.33305767230E+02 -0.15097071774E+02  0.49294036811E+02  0.47000000000E+01 0.  1.
          5    1    5    5  503    0 -0.11995507195E+02 -0.29994959069E+02 -0.22000221168E+02  0.39366095741E+02  0.47000000000E+01 0. -1.
         -5    1    5    5    0  503 -0.28458070964E+02  0.21505265189E+02  0.12045908911E+03  0.12571722389E+03  0.47000000000E+01 0. -1.
<mgrwt>
<rscale>  0 0.27493446E+03</rscale>
<asrwt>0</asrwt>
<pdfrwt beam="1">  1        2 0.31650085E-01 0.27493446E+03</pdfrwt>
<pdfrwt beam="2">  1       -2 0.14131777E-01 0.27493446E+03</pdfrwt>
<totfact> 0.61992119E+03</totfact>
</mgrwt>
</event>
<event>
 9    1  0.7944303E-001  0.2758931E+03  0.7818608E-02  0.1097953E+00
         -1   -1    0    0    0  501 -0.00000000000E+00  0.00000000000E+00  0.92285584739E+02  0.92285584739E+02  0.00000000000E+00 0. -1.
          1   -1    0    0  501    0  0.00000000000E+00 -0.00000000000E+00 -0.20619960771E+03  0.20619960771E+03  0.00000000000E+00 0. -1.
         35    2    1    2    0    0 -0.35527136788E-14  0.71054273576E-14 -0.11391402297E+03  0.29848519245E+03  0.27589310517E+03 0.  0.
         25    2    3    3    0    0 -0.84132911296E+01  0.63268785593E+01 -0.11990947196E+03  0.17444962004E+03  0.12626787242E+03 0.  0.
         25    2    3    3    0    0  0.84132911296E+01 -0.63268785593E+01  0.59954489957E+01  0.12403557240E+03  0.12344255730E+03 0.  0.
          5    1    4    4  502    0  0.91423147856E+01  0.62642329060E+02 -0.40061249813E+02  0.75064219481E+02  0.47000000000E+01 0. -1.
         -5    1    4    4    0  502 -0.17555605915E+02 -0.56315450501E+02 -0.79848222150E+02  0.99385400561E+02  0.47000000000E+01 0. -1.
          5    1    5    5  503    0 -0.21770308832E+02  0.49191722844E+02 -0.17020341375E+02  0.56617611779E+02  0.47000000000E+01 0.  1.
         -5    1    5    5    0  503  0.30183599961E+02 -0.55518601403E+02  0.23015790370E+02  0.67417960625E+02  0.47000000000E+01 0.  1.
<mgrwt>
<rscale>  0 0.27589311E+03</rscale>
<asrwt>0</asrwt>
<pdfrwt beam="1">  1        1 0.31723016E-01 0.27589311E+03</pdfrwt>
<pdfrwt beam="2">  1       -1 0.14197783E-01 0.27589311E+03</pdfrwt>
<totfact> 0.49172708E+03</totfact>
</mgrwt>
</event>
<event>
 9    1  0.7944303E-001  0.2772242E+03  0.7818608E-02  0.1097215E+00
         -1   -1    0    0    0  501 -0.00000000000E+00  0.00000000000E+00  0.32768780844E+02  0.32768780844E+02  0.00000000000E+00 0. -1.
          1   -1    0    0  501    0  0.00000000000E+00 -0.00000000000E+00 -0.58632965478E+03  0.58632965478E+03  0.00000000000E+00 0. -1.
         35    2    1    2    0    0  0.00000000000E+00  0.35527136788E-14 -0.55356087393E+03  0.61909843562E+03  0.27722415450E+03 0.  0.
         25    2    3    3    0    0  0.23890518519E+02  0.17528163964E+02 -0.16582946193E+03  0.21025965052E+03  0.12582415025E+03 0.  0.
         25    2    3    3    0    0 -0.23890518519E+02 -0.17528163964E+02 -0.38773141200E+03  0.40883878510E+03  0.12623593364E+03 0.  0.
          5    1    4    4  502    0 -0.38656416576E+02 -0.31078297795E+02 -0.67833018119E+02  0.84164051017E+02  0.47000000000E+01 0.  1.
         -5    1    4    4    0  502  0.62546935096E+02  0.48606461760E+02 -0.97996443810E+02  0.12609559950E+03  0.47000000000E+01 0.  1.
          5    1    5    5  503    0  0.36059807645E+02 -0.44029112758E+02 -0.11626759618E+03  0.12953422875E+03  0.47000000000E+01 0. -1.
         -5    1    5    5    0  503 -0.59950326164E+02  0.26500948794E+02 -0.27146381582E+03  0.27930455635E+03  0.47000000000E+01 0. -1.
<mgrwt>
<rscale>  0 0.27722415E+03</rscale>
<asrwt>0</asrwt>
<pdfrwt beam="1">  1        1 0.90204551E-01 0.27722415E+03</pdfrwt>
<pdfrwt beam="2">  1       -1 0.50413515E-02 0.27722415E+03</pdfrwt>
<totfact> 0.62919437E+03</totfact>
</mgrwt>
</event>
<event>
 9    1  0.7944303E-001  0.2756886E+03  0.7818608E-02  0.1098067E+00
         -1   -1    0    0    0  501 -0.00000000000E+00  0.00000000000E+00  0.19376084819E+03  0.19376084819E+03  0.00000000000E+00 0. -1.
          1   -1    0    0  501    0  0.00000000000E+00 -0.00000000000E+00 -0.98064445276E+02  0.98064445276E+02  0.00000000000E+00 0. -1.
         35    2    1    2    0    0  0.00000000000E+00  0.71054273576E-14  0.95696402918E+02  0.29182529347E+03  0.27568859312E+03 0.  0.
         25    2    3    3    0    0  0.36260662955E+02 -0.18306019651E+02  0.93088901997E+02  0.16035144097E+03  0.12408503098E+03 0.  0.
         25    2    3    3    0    0 -0.36260662955E+02  0.18306019651E+02  0.26075009211E+01  0.13147385250E+03  0.12501451434E+03 0.  0.
          5    1    4    4  502    0  0.19139792261E+02 -0.50233442041E+02 -0.64264132948E+01  0.54342608834E+02  0.47000000000E+01 0.  1.
         -5    1    4    4    0  502  0.17120870695E+02  0.31927422390E+02  0.99515315292E+02  0.10600883214E+03  0.47000000000E+01 0.  1.
          5    1    5    5  503    0 -0.26999185387E+02  0.67388510527E+02  0.24462825944E+02  0.76750812476E+02  0.47000000000E+01 0.  1.
         -5    1    5    5    0  503 -0.92614775683E+01 -0.49082490876E+02 -0.21855325023E+02  0.54723040021E+02  0.47000000000E+01 0.  1.
<mgrwt>
<rscale>  0 0.27568859E+03</rscale>
<asrwt>0</asrwt>
<pdfrwt beam="1">  1        1 0.15086838E-01 0.27568859E+03</pdfrwt>
<pdfrwt beam="2">  1       -1 0.29809361E-01 0.27568859E+03</pdfrwt>
<totfact> 0.37996588E+03</totfact>
</mgrwt>
</event>
<event>
 9    1  0.7944303E-001  0.2740620E+03  0.7818608E-02  0.1098977E+00
         -1   -1    0    0    0  501 -0.00000000000E+00  0.00000000000E+00  0.11163110557E+03  0.11163110557E+03  0.00000000000E+00 0.  1.
          1   -1    0    0  501    0  0.00000000000E+00 -0.00000000000E+00 -0.16821028666E+03  0.16821028666E+03  0.00000000000E+00 0.  1.
         35    2    1    2    0    0  0.00000000000E+00  0.00000000000E+00 -0.56579181093E+02  0.27984139223E+03  0.27406203873E+03 0.  0.
         25    2    3    3    0    0 -0.21925576921E+02  0.48387021938E+02 -0.14858565827E+02  0.13745241263E+03  0.12589818880E+03 0.  0.
         25    2    3    3    0    0  0.21925576921E+02 -0.48387021938E+02 -0.41720615266E+02  0.14238897960E+03  0.12534742502E+03 0.  0.
          5    1    4    4  502    0 -0.65632038687E+02  0.37177137168E+02 -0.40080995828E+02  0.85546947676E+02  0.47000000000E+01 0.  1.
         -5    1    4    4    0  502  0.43706461766E+02  0.11209884770E+02  0.25222430001E+02  0.51905464951E+02  0.47000000000E+01 0.  1.
          5    1    5    5  503    0  0.25590133018E+02  0.21519956115E+02 -0.60917905343E+02  0.69649440848E+02  0.47000000000E+01 0. -1.
         -5    1    5    5    0  503 -0.36645560969E+01 -0.69906978053E+02  0.19197290077E+02  0.72739538754E+02  0.47000000000E+01 0. -1.
<mgrwt>
<rscale>  0 0.27406204E+03</rscale>
<asrwt>0</asrwt>
<pdfrwt beam="1">  1        1 0.25878505E-01 0.27406204E+03</pdfrwt>
<pdfrwt beam="2">  1       -1 0.17174016E-01 0.27406204E+03</pdfrwt>
<totfact> 0.46978258E+03</totfact>
</mgrwt>
</event>
<event>
 9    1  0.7944303E-001  0.2745245E+03  0.7818608E-02  0.1098718E+00
         -1   -1    0    0    0  501 -0.00000000000E+00  0.00000000000E+00  0.54367741361E+02  0.54367741361E+02  0.00000000000E+00 0. -1.
          1   -1    0    0  501    0  0.00000000000E+00 -0.00000000000E+00 -0.34654592028E+03  0.34654592028E+03  0.00000000000E+00 0. -1.
         35    2    1    2    0    0  0.00000000000E+00  0.71054273576E-14 -0.29217817892E+03  0.40091366164E+03  0.27452445402E+03 0.  0.
         25    2    3    3    0    0  0.19702681868E+02  0.16586984558E+02 -0.69693978647E+02  0.14537126362E+03  0.12494890915E+03 0.  0.
         25    2    3    3    0    0 -0.19702681868E+02 -0.16586984558E+02 -0.22248420027E+03  0.25554239802E+03  0.12304216386E+03 0.  0.
          5    1    4    4  502    0 -0.47338742123E+02  0.32745386181E+02 -0.24172201132E+02  0.62606725913E+02  0.47000000000E+01 0. -1.
         -5    1    4    4    0  502  0.67041423991E+02 -0.16158401623E+02 -0.45521777515E+02  0.82764537707E+02  0.47000000000E+01 0. -1.
          5    1    5    5  503    0 -0.24308670781E+02  0.51581351029E+02 -0.99848791498E+02  0.11508005219E+03  0.47000000000E+01 0. -1.
         -5    1    5    5    0  503  0.46059889129E+01 -0.68168335588E+02 -0.12263540878E+03  0.14046234583E+03  0.47000000000E+01 0. -1.
<mgrwt>
<rscale>  0 0.27452445E+03</rscale>
<asrwt>0</asrwt>
<pdfrwt beam="1">  1        1 0.53314757E-01 0.27452445E+03</pdfrwt>
<pdfrwt beam="2">  1       -1 0.83642679E-02 0.27452445E+03</pdfrwt>
<totfact> 0.58226587E+03</totfact>
</mgrwt>
</event>
<event>
 9    1  0.7944303E-001  0.2730365E+03  0.7818608E-02  0.1099554E+00
          1   -1    0    0  501    0  0.00000000000E+00  0.00000000000E+00  0.27508861310E+03  0.27508861310E+03  0.00000000000E+00 0. -1.
         -1   -1    0    0    0  501 -0.00000000000E+00 -0.00000000000E+00 -0.67749927860E+02  0.67749927860E+02  0.00000000000E+00 0. -1.
         35    2    1    2    0    0 -0.35527136788E-14  0.00000000000E+00  0.20733868524E+03  0.34283854096E+03  0.27303650813E+03 0.  0.
         25    2    3    3    0    0 -0.23360259206E+02 -0.35870041652E+02  0.61240164978E+02  0.14593619970E+03  0.12535810695E+03 0.  0.
         25    2    3    3    0    0  0.23360259206E+02  0.35870041652E+02  0.14609852027E+03  0.19690234126E+03  0.12487350709E+03 0.  0.
          5    1    4    4  502    0  0.29804754398E+02  0.13748397241E+02 -0.18453579885E+02  0.37946889490E+02  0.47000000000E+01 0.  1.
         -5    1    4    4    0  502 -0.53165013603E+02 -0.49618438893E+02  0.79693744862E+02  0.10798931021E+03  0.47000000000E+01 0.  1.
          5    1    5    5  503    0 -0.13498810702E+02  0.72569593061E+02  0.11305719379E+03  0.13510211988E+03  0.47000000000E+01 0. -1.
         -5    1    5    5    0  503  0.36859069908E+02 -0.36699551409E+02  0.33041326475E+02  0.61800221386E+02  0.47000000000E+01 0. -1.
<mgrwt>
<rscale>  0 0.27303651E+03</rscale>
<asrwt>0</asrwt>
<pdfrwt beam="1">  1        1 0.42321324E-01 0.27303651E+03</pdfrwt>
<pdfrwt beam="2">  1       -1 0.10423066E-01 0.27303651E+03</pdfrwt>
<totfact> 0.55492077E+03</totfact>
</mgrwt>
</event>
<event>
 9    1  0.7944303E-001  0.2728326E+03  0.7818608E-02  0.1099669E+00
          1   -1    0    0  501    0  0.00000000000E+00  0.00000000000E+00  0.40003228527E+03  0.40003228527E+03  0.00000000000E+00 0. -1.
         -1   -1    0    0    0  501 -0.00000000000E+00 -0.00000000000E+00 -0.46519764516E+02  0.46519764516E+02  0.00000000000E+00 0. -1.
         35    2    1    2    0    0 -0.71054273576E-14  0.00000000000E+00  0.35351252075E+03  0.44655204978E+03  0.27283260589E+03 0.  0.
         25    2    3    3    0    0  0.40177535196E+02  0.30167206960E+02  0.15198418583E+03  0.20335049380E+03  0.12541106761E+03 0.  0.
         25    2    3    3    0    0 -0.40177535196E+02 -0.30167206960E+02  0.20152833492E+03  0.24320155598E+03  0.12652680484E+03 0.  0.
          5    1    4    4  502    0  0.50927707882E+02 -0.36361204833E+02  0.46560143117E+02  0.78139014417E+02  0.47000000000E+01 0. -1.
         -5    1    4    4    0  502 -0.10750172686E+02  0.66528411793E+02  0.10542404271E+03  0.12521147939E+03  0.47000000000E+01 0. -1.
          5    1    5    5  503    0 -0.69753963624E+02 -0.37799222596E+02  0.63423321408E+02  0.10168089481E+03  0.47000000000E+01 0. -1.
         -5    1    5    5    0  503  0.29576428428E+02  0.76320156358E+01  0.13810501352E+03  0.14152066117E+03  0.47000000000E+01 0. -1.
<mgrwt>
<rscale>  0 0.27283261E+03</rscale>
<asrwt>0</asrwt>
<pdfrwt beam="1">  1        1 0.61543426E-01 0.27283261E+03</pdfrwt>
<pdfrwt beam="2">  1       -1 0.71568871E-02 0.27283261E+03</pdfrwt>
<totfact> 0.61496763E+03</totfact>
</mgrwt>
</event>
<event>
 9    1  0.7944303E-001  0.2729169E+03  0.7818608E-02  0.1099622E+00
          2   -1    0    0  501    0  0.00000000000E+00  0.00000000000E+00  0.11773292139E+03  0.11773292139E+03  0.00000000000E+00 0.  1.
         -2   -1    0    0    0  501 -0.00000000000E+00 -0.00000000000E+00 -0.15816233557E+03  0.15816233557E+03  0.00000000000E+00 0.  1.
         35    2    1    2    0    0  0.44408920985E-15 -0.71054273576E-14 -0.40429414181E+02  0.27589525695E+03  0.27291693842E+03 0.  0.
         25    2    3    3    0    0  0.13103517536E+00 -0.41538784707E+02 -0.22329629630E+02  0.13373931750E+03  0.12514833151E+03 0.  0.
         25    2    3    3    0    0 -0.13103517536E+00  0.41538784707E+02 -0.18099784551E+02  0.14215593945E+03  0.13474131184E+03 0.  0.
          5    1    4    4  502    0  0.22639072112E+01 -0.24279038434E+02 -0.74508608647E+02  0.78538014653E+02  0.47000000000E+01 0.  1.
         -5    1    4    4    0  502 -0.21328720358E+01 -0.17259746273E+02  0.52178979017E+02  0.55201302845E+02  0.47000000000E+01 0.  1.
          5    1    5    5  503    0  0.34928502245E+02 -0.21954072292E+02  0.33225537051E+02  0.53179017212E+02  0.47000000000E+01 0.  1.
         -5    1    5    5    0  503 -0.35059537421E+02  0.63492856999E+02 -0.51325321602E+02  0.88976922242E+02  0.47000000000E+01 0.  1.
<mgrwt>
<rscale>  0 0.27291694E+03</rscale>
<asrwt>0</asrwt>
<pdfrwt beam="1">  1        2 0.18112757E-01 0.27291694E+03</pdfrwt>
<pdfrwt beam="2">  1       -2 0.24332667E-01 0.27291694E+03</pdfrwt>
<totfact> 0.46171157E+03</totfact>
</mgrwt>
</event>
<event>
 9    1  0.7944303E-001  0.2734229E+03  0.7818608E-02  0.1099336E+00
          2   -1    0    0  501    0  0.00000000000E+00  0.00000000000E+00  0.50961210799E+03  0.50961210799E+03  0.00000000000E+00 0.  1.
         -2   -1    0    0    0  501 -0.00000000000E+00 -0.00000000000E+00 -0.36675006037E+02  0.36675006037E+02  0.00000000000E+00 0.  1.
         35    2    1    2    0    0 -0.71054273576E-14  0.71054273576E-14  0.47293710195E+03  0.54628711402E+03  0.27342294810E+03 0.  0.
         25    2    3    3    0    0  0.23184877899E+02 -0.21611840670E+02  0.32893404846E+03  0.35372512328E+03  0.12617148799E+03 0.  0.
         25    2    3    3    0    0 -0.23184877899E+02  0.21611840670E+02  0.14400305349E+03  0.19256199075E+03  0.12384922545E+03 0.  0.
          5    1    4    4  502    0 -0.18836753332E+02 -0.65602974820E+02  0.19152182168E+03  0.20337470777E+03  0.47000000000E+01 0.  1.
         -5    1    4    4    0  502  0.42021631231E+02  0.43991134150E+02  0.13741222678E+03  0.15035041551E+03  0.47000000000E+01 0.  1.
          5    1    5    5  503    0  0.46965785171E+02  0.62325069778E+01  0.92591809947E+02  0.10411514006E+03  0.47000000000E+01 0. -1.
         -5    1    5    5    0  503 -0.70150663070E+02  0.15379333692E+02  0.51411243547E+02  0.88446850690E+02  0.47000000000E+01 0. -1.
<mgrwt>
<rscale>  0 0.27342295E+03</rscale>
<asrwt>0</asrwt>
<pdfrwt beam="1">  1        2 0.78401858E-01 0.27342295E+03</pdfrwt>
<pdfrwt beam="2">  1       -2 0.56423090E-02 0.27342295E+03</pdfrwt>
<totfact> 0.98527557E+03</totfact>
</mgrwt>
</event>
<event>
 9    1  0.7944303E-001  0.2739043E+03  0.7818608E-02  0.1099066E+00
          2   -1    0    0  501    0  0.00000000000E+00  0.00000000000E+00  0.44631202751E+03  0.44631202751E+03  0.00000000000E+00 0.  1.
         -2   -1    0    0    0  501 -0.00000000000E+00 -0.00000000000E+00 -0.42024160881E+02  0.42024160881E+02  0.00000000000E+00 0.  1.
         35    2    1    2    0    0  0.00000000000E+00 -0.35527136788E-14  0.40428786663E+03  0.48833618839E+03  0.27390427852E+03 0.  0.
         25    2    3    3    0    0 -0.43378371064E+02  0.26248742145E+02  0.24877991641E+03  0.28274122913E+03  0.12442056221E+03 0.  0.
         25    2    3    3    0    0  0.43378371064E+02 -0.26248742145E+02  0.15550795022E+03  0.20559495926E+03  0.12456277595E+03 0.  0.
          5    1    4    4  502    0 -0.43368530471E+02  0.29365949610E+02  0.26260065204E+03  0.26781407895E+03  0.47000000000E+01 0. -1.
         -5    1    4    4    0  502 -0.98405930800E-02 -0.31172074650E+01 -0.13820735629E+02  0.14927150182E+02  0.47000000000E+01 0. -1.
          5    1    5    5  503    0  0.29110227843E+01 -0.27274398218E+02 -0.14073757234E+02  0.31185373085E+02  0.47000000000E+01 0.  1.
         -5    1    5    5    0  503  0.40467348280E+02  0.10256560731E+01  0.16958170745E+03  0.17440958617E+03  0.47000000000E+01 0.  1.
<mgrwt>
<rscale>  0 0.27390428E+03</rscale>
<asrwt>0</asrwt>
<pdfrwt beam="1">  1        2 0.68663386E-01 0.27390428E+03</pdfrwt>
<pdfrwt beam="2">  1       -2 0.64652558E-02 0.27390428E+03</pdfrwt>
<totfact> 0.92640893E+03</totfact>
</mgrwt>
</event>
<event>
 9    1  0.7944303E-001  0.2680848E+03  0.7818608E-02  0.1102381E+00
          1   -1    0    0  501    0  0.00000000000E+00  0.00000000000E+00  0.23787573852E+04  0.23787573852E+04  0.00000000000E+00 0.  1.
         -1   -1    0    0    0  501 -0.00000000000E+00 -0.00000000000E+00 -0.75532545351E+01  0.75532545351E+01  0.00000000000E+00 0.  1.
         35    2    1    2    0    0  0.00000000000E+00  0.71054273576E-14  0.23712041306E+04  0.23863106397E+04  0.26808476277E+03 0.  0.
         25    2    3    3    0    0  0.38616744453E+02  0.20347005722E+02  0.10105814974E+04  0.10192233710E+04  0.12504424600E+03 0.  0.
         25    2    3    3    0    0 -0.38616744453E+02 -0.20347005722E+02  0.13606226332E+04  0.13670872687E+04  0.12541290469E+03 0.  0.
          5    1    4    4  502    0 -0.21999133211E+02  0.57066980569E+02  0.45107971009E+03  0.45523136643E+03  0.47000000000E+01 0.  1.
         -5    1    4    4    0  502  0.60615877664E+02 -0.36719974847E+02  0.55950178731E+03  0.56399200453E+03  0.47000000000E+01 0.  1.
          5    1    5    5  503    0  0.13542358842E+00  0.44261134014E+02  0.82159880318E+03  0.82280359121E+03  0.47000000000E+01 0. -1.
         -5    1    5    5    0  503 -0.38752168041E+02 -0.64608139736E+02  0.53902383006E+03  0.54428367752E+03  0.47000000000E+01 0. -1.
<mgrwt>
<rscale>  0 0.26808476E+03</rscale>
<asrwt>0</asrwt>
<pdfrwt beam="1">  1        1 0.36596208E+00 0.26808476E+03</pdfrwt>
<pdfrwt beam="2">  1       -1 0.11620411E-02 0.26808476E+03</pdfrwt>
<totfact> 0.28872141E+03</totfact>
</mgrwt>
</event>
<event>
 9    1  0.7944303E-001  0.2752222E+03  0.7818608E-02  0.1098327E+00
         -4   -1    0    0    0  501 -0.00000000000E+00  0.00000000000E+00  0.58198692402E+02  0.58198692402E+02  0.00000000000E+00 0.  1.
          4   -1    0    0  501    0  0.00000000000E+00 -0.00000000000E+00 -0.32538217952E+03  0.32538217952E+03  0.00000000000E+00 0.  1.
         35    2    1    2    0    0  0.00000000000E+00  0.00000000000E+00 -0.26718348711E+03  0.38358087192E+03  0.27522221842E+03 0.  0.
         25    2    3    3    0    0 -0.53089708121E+02  0.16664305191E+02 -0.11735021263E+03  0.18035136317E+03  0.12513722714E+03 0.  0.
         25    2    3    3    0    0  0.53089708121E+02 -0.16664305191E+02 -0.14983327448E+03  0.20322950875E+03  0.12552293380E+03 0.  0.
          5    1    4    4  502    0 -0.82989774926E+02  0.45296790661E+02 -0.73357327684E+02  0.11976013323E+03  0.47000000000E+01 0.  1.
         -5    1    4    4    0  502  0.29900066805E+02 -0.28632485470E+02 -0.43992884946E+02  0.60591229935E+02  0.47000000000E+01 0.  1.
          5    1    5    5  503    0  0.69426904241E+02 -0.58662005224E+02 -0.11111752298E+03  0.14363328237E+03  0.47000000000E+01 0. -1.
         -5    1    5    5    0  503 -0.16337196120E+02  0.41997700033E+02 -0.38715751500E+02  0.59596226385E+02  0.47000000000E+01 0. -1.
<mgrwt>
<rscale>  0 0.27522222E+03</rscale>
<asrwt>0</asrwt>
<pdfrwt beam="1">  1        4 0.50058796E-01 0.27522222E+03</pdfrwt>
<pdfrwt beam="2">  1       -4 0.89536451E-02 0.27522222E+03</pdfrwt>
<totfact> 0.66335320E+02</totfact>
</mgrwt>
</event>
<event>
 9    1  0.7944303E-001  0.2753592E+03  0.7818608E-02  0.1098251E+00
          1   -1    0    0  501    0  0.00000000000E+00  0.00000000000E+00  0.29388806867E+02  0.29388806867E+02  0.00000000000E+00 0. -1.
         -1   -1    0    0    0  501 -0.00000000000E+00 -0.00000000000E+00 -0.64499620934E+03  0.64499620934E+03  0.00000000000E+00 0. -1.
         35    2    1    2    0    0  0.00000000000E+00 -0.17763568394E-14 -0.61560740247E+03  0.67438501621E+03  0.27535917654E+03 0.  0.
         25    2    3    3    0    0  0.36703609501E+02 -0.88527635607E+01 -0.20446799903E+03  0.24295412685E+03  0.12567425653E+03 0.  0.
         25    2    3    3    0    0 -0.36703609501E+02  0.88527635607E+01 -0.41113940344E+03  0.43143088935E+03  0.12518576937E+03 0.  0.
          5    1    4    4  502    0 -0.49215380303E+01  0.26264882755E+02 -0.18174118303E+03  0.18375530799E+03  0.47000000000E+01 0.  1.
         -5    1    4    4    0  502  0.41625147532E+02 -0.35117646316E+02 -0.22726815998E+02  0.59198818867E+02  0.47000000000E+01 0.  1.
          5    1    5    5  503    0 -0.51379115147E+02  0.14626961560E+02 -0.41149135628E+03  0.41497106860E+03  0.47000000000E+01 0. -1.
         -5    1    5    5    0  503  0.14675505646E+02 -0.57741979997E+01  0.35195284240E+00  0.16459820756E+02  0.47000000000E+01 0. -1.
<mgrwt>
<rscale>  0 0.27535918E+03</rscale>
<asrwt>0</asrwt>
<pdfrwt beam="1">  1        1 0.45213554E-02 0.27535918E+03</pdfrwt>
<pdfrwt beam="2">  1       -1 0.99230176E-01 0.27535918E+03</pdfrwt>
<totfact> 0.19623056E+03</totfact>
</mgrwt>
</event>
<event>
 9    1  0.7944303E-001  0.2704877E+03  0.7818608E-02  0.1101001E+00
          1   -1    0    0  501    0  0.00000000000E+00  0.00000000000E+00  0.21977656681E+04  0.21977656681E+04  0.00000000000E+00 0. -1.
         -1   -1    0    0    0  501 -0.00000000000E+00 -0.00000000000E+00 -0.83224957336E+01  0.83224957336E+01  0.00000000000E+00 0. -1.
         35    2    1    2    0    0 -0.35527136788E-14 -0.14210854715E-13  0.21894431724E+04  0.22060881639E+04  0.27048767363E+03 0.  0.
         25    2    3    3    0    0  0.27758758265E+02  0.29170075483E+02  0.13657959055E+04  0.13720917872E+04  0.12496389537E+03 0.  0.
         25    2    3    3    0    0 -0.27758758265E+02 -0.29170075483E+02  0.82364726688E+03  0.83399637661E+03  0.12463424089E+03 0.  0.
          5    1    4    4  502    0  0.25925610363E+02  0.68496629477E+02  0.11712350516E+04  0.11735320880E+04  0.47000000000E+01 0. -1.
         -5    1    4    4    0  502  0.18331479019E+01 -0.39326553994E+02  0.19456085392E+03  0.19855969923E+03  0.47000000000E+01 0. -1.
          5    1    5    5  503    0 -0.65249502512E+01 -0.74938861772E+02  0.59790801062E+03  0.60263959971E+03  0.47000000000E+01 0.  1.
         -5    1    5    5    0  503 -0.21233808014E+02  0.45768786289E+02  0.22573925626E+03  0.23135677690E+03  0.47000000000E+01 0.  1.
<mgrwt>
<rscale>  0 0.27048767E+03</rscale>
<asrwt>0</asrwt>
<pdfrwt beam="1">  1        1 0.33811733E+00 0.27048767E+03</pdfrwt>
<pdfrwt beam="2">  1       -1 0.12803857E-02 0.27048767E+03</pdfrwt>
<totfact> 0.32961656E+03</totfact>
</mgrwt>
</event>
<event>
 9    1  0.7944303E-001  0.2749917E+03  0.7818608E-02  0.1098456E+00
          2   -1    0    0  501    0  0.00000000000E+00  0.00000000000E+00  0.92192912473E+03  0.92192912473E+03  0.00000000000E+00 0.  1.
         -2   -1    0    0    0  501 -0.00000000000E+00 -0.00000000000E+00 -0.20506035258E+02  0.20506035258E+02  0.00000000000E+00 0.  1.
         35    2    1    2    0    0  0.35527136788E-14 -0.71054273576E-14  0.90142308947E+03  0.94243515999E+03  0.27499171723E+03 0.  0.
         25    2    3    3    0    0  0.19345503834E+02 -0.65258777856E+01  0.63363930493E+03  0.64644103509E+03  0.12637407760E+03 0.  0.
         25    2    3    3    0    0 -0.19345503834E+02  0.65258777856E+01  0.26778378454E+03  0.29599412490E+03  0.12444890965E+03 0.  0.
          5    1    4    4  502    0  0.94680102082E+01  0.57988037981E+02  0.37758371502E+03  0.38215678408E+03  0.47000000000E+01 0.  1.
         -5    1    4    4    0  502  0.98774936254E+01 -0.64513915766E+02  0.25605558991E+03  0.26428425101E+03  0.47000000000E+01 0.  1.
          5    1    5    5  503    0 -0.40059722203E+01 -0.50523330029E+02  0.54250952814E+02  0.74390258582E+02  0.47000000000E+01 0.  1.
         -5    1    5    5    0  503 -0.15339531613E+02  0.57049207815E+02  0.21353283173E+03  0.22160386632E+03  0.47000000000E+01 0.  1.
<mgrwt>
<rscale>  0 0.27499172E+03</rscale>
<asrwt>0</asrwt>
<pdfrwt beam="1">  1        2 0.14183522E+00 0.27499172E+03</pdfrwt>
<pdfrwt beam="2">  1       -2 0.31547754E-02 0.27499172E+03</pdfrwt>
<totfact> 0.11518138E+04</totfact>
</mgrwt>
</event>
<event>
 9    1  0.7944303E-001  0.2558159E+03  0.7818608E-02  0.1109683E+00
         -2   -1    0    0    0  501 -0.00000000000E+00  0.00000000000E+00  0.65095898215E+01  0.65095898215E+01  0.00000000000E+00 0.  1.
          2   -1    0    0  501    0  0.00000000000E+00 -0.00000000000E+00 -0.25132841536E+04  0.25132841536E+04  0.00000000000E+00 0.  1.
         35    2    1    2    0    0  0.00000000000E+00  0.00000000000E+00 -0.25067745638E+04  0.25197937434E+04  0.25581594121E+03 0.  0.
         25    2    3    3    0    0 -0.29758584755E+02  0.67369390412E+01 -0.12643078853E+04  0.12708545878E+04  0.12516387212E+03 0.  0.
         25    2    3    3    0    0  0.29758584755E+02 -0.67369390412E+01 -0.12424666785E+04  0.12489391556E+04  0.12326640867E+03 0.  0.
          5    1    4    4  502    0  0.31496743965E+02  0.39502431438E+02 -0.76961689455E+03  0.77128771632E+03  0.47000000000E+01 0.  1.
         -5    1    4    4    0  502 -0.61255328720E+02 -0.32765492397E+02 -0.49469099072E+03  0.49956687149E+03  0.47000000000E+01 0.  1.
          5    1    5    5  503    0 -0.11355359216E+02  0.38498142620E+02 -0.17062184005E+03  0.17534238925E+03  0.47000000000E+01 0.  1.
         -5    1    5    5    0  503  0.41113943971E+02 -0.45235081661E+02 -0.10718448385E+04  0.10735967664E+04  0.47000000000E+01 0.  1.
<mgrwt>
<rscale>  0 0.25581594E+03</rscale>
<asrwt>0</asrwt>
<pdfrwt beam="1">  1        2 0.38665962E+00 0.25581594E+03</pdfrwt>
<pdfrwt beam="2">  1       -2 0.10014740E-02 0.25581594E+03</pdfrwt>
<totfact> 0.83885650E+03</totfact>
</mgrwt>
</event>
<event>
 9    1  0.7944303E-001  0.2700452E+03  0.7818608E-02  0.1101254E+00
          2   -1    0    0  501    0  0.00000000000E+00  0.00000000000E+00  0.95523414122E+03  0.95523414122E+03  0.00000000000E+00 0. -1.
         -2   -1    0    0    0  501 -0.00000000000E+00 -0.00000000000E+00 -0.19085482729E+02  0.19085482729E+02  0.00000000000E+00 0. -1.
         35    2    1    2    0    0 -0.71054273576E-14  0.17763568394E-14  0.93614865849E+03  0.97431962395E+03  0.27004521625E+03 0.  0.
         25    2    3    3    0    0  0.25910667581E+02  0.14600437985E+02  0.62136515211E+03  0.63432982372E+03  0.12407714343E+03 0.  0.
         25    2    3    3    0    0 -0.25910667581E+02 -0.14600437985E+02  0.31478350638E+03  0.33998980022E+03  0.12497948986E+03 0.  0.
          5    1    4    4  502    0  0.23021227258E+02 -0.48326017542E+02  0.16291085956E+03  0.17154421890E+03  0.47000000000E+01 0. -1.
         -5    1    4    4    0  502  0.28894403237E+01  0.62926455527E+02  0.45845429255E+03  0.46278560482E+03  0.47000000000E+01 0. -1.
          5    1    5    5  503    0  0.45451755610E+02 -0.21328779644E+02  0.80951452194E+02  0.95372986435E+02  0.47000000000E+01 0. -1.
         -5    1    5    5    0  503 -0.71362423192E+02  0.67283416582E+01  0.23383205418E+03  0.24461681379E+03  0.47000000000E+01 0. -1.
<mgrwt>
<rscale>  0 0.27004522E+03</rscale>
<asrwt>0</asrwt>
<pdfrwt beam="1">  1        2 0.14695906E+00 0.27004522E+03</pdfrwt>
<pdfrwt beam="2">  1       -2 0.29362289E-02 0.27004522E+03</pdfrwt>
<totfact> 0.12203788E+04</totfact>
</mgrwt>
</event>
<event>
 9    1  0.7944303E-001  0.2710681E+03  0.7818608E-02  0.1100670E+00
         -2   -1    0    0    0  501 -0.00000000000E+00  0.00000000000E+00  0.50159479190E+02  0.50159479190E+02  0.00000000000E+00 0.  1.
          2   -1    0    0  501    0  0.00000000000E+00 -0.00000000000E+00 -0.36622157496E+03  0.36622157496E+03  0.00000000000E+00 0.  1.
         35    2    1    2    0    0  0.00000000000E+00  0.00000000000E+00 -0.31606209577E+03  0.41638105415E+03  0.27106813511E+03 0.  0.
         25    2    3    3    0    0  0.14862477233E+01 -0.47081608109E+02 -0.12114593734E+03  0.17994501358E+03  0.12443867173E+03 0.  0.
         25    2    3    3    0    0 -0.14862477233E+01  0.47081608109E+02 -0.19491615843E+03  0.23643604057E+03  0.12526294628E+03 0.  0.
          5    1    4    4  502    0  0.24298309907E+02  0.23917695008E+02 -0.94569120207E+02  0.10063733152E+03  0.47000000000E+01 0. -1.
         -5    1    4    4    0  502 -0.22812062184E+02 -0.70999303118E+02 -0.26576817133E+02  0.79307682056E+02  0.47000000000E+01 0. -1.
          5    1    5    5  503    0  0.45820292207E+02 -0.58831359625E+01 -0.26184819567E+02  0.53308960245E+02  0.47000000000E+01 0.  1.
         -5    1    5    5    0  503 -0.47306539930E+02  0.52964744072E+02 -0.16873133886E+03  0.18312708033E+03  0.47000000000E+01 0.  1.
<mgrwt>
<rscale>  0 0.27106814E+03</rscale>
<asrwt>0</asrwt>
<pdfrwt beam="1">  1        2 0.56341781E-01 0.27106814E+03</pdfrwt>
<pdfrwt beam="2">  1       -2 0.77168429E-02 0.27106814E+03</pdfrwt>
<totfact> 0.87308531E+03</totfact>
</mgrwt>
</event>
<event>
 9    1  0.7944303E-001  0.2731759E+03  0.7818608E-02  0.1099476E+00
         -2   -1    0    0    0  501 -0.00000000000E+00  0.00000000000E+00  0.78644715933E+02  0.78644715933E+02  0.00000000000E+00 0. -1.
          2   -1    0    0  501    0  0.00000000000E+00 -0.00000000000E+00 -0.23722209461E+03  0.23722209461E+03  0.00000000000E+00 0. -1.
         35    2    1    2    0    0  0.00000000000E+00 -0.35527136788E-14 -0.15857737868E+03  0.31586681054E+03  0.27317587187E+03 0.  0.
         25    2    3    3    0    0 -0.32160176684E+02 -0.12909470981E+02 -0.33890037501E+02  0.13283705494E+03  0.12367787643E+03 0.  0.
         25    2    3    3    0    0  0.32160176684E+02  0.12909470981E+02 -0.12468734117E+03  0.18302975560E+03  0.12942962173E+03 0.  0.
          5    1    4    4  502    0 -0.24285073400E+02  0.49967402762E+02  0.85764278003E+01  0.56410559673E+02  0.47000000000E+01 0.  1.
         -5    1    4    4    0  502 -0.78751032836E+01 -0.62876873743E+02 -0.42466465302E+02  0.76426495266E+02  0.47000000000E+01 0.  1.
          5    1    5    5  503    0  0.80183406115E+02 -0.89564621600E+01 -0.70465139705E+02  0.10722417052E+03  0.47000000000E+01 0. -1.
         -5    1    5    5    0  503 -0.48023229431E+02  0.21865933141E+02 -0.54222201469E+02  0.75805585079E+02  0.47000000000E+01 0. -1.
<mgrwt>
<rscale>  0 0.27317587E+03</rscale>
<asrwt>0</asrwt>
<pdfrwt beam="1">  1        2 0.36495706E-01 0.27317587E+03</pdfrwt>
<pdfrwt beam="2">  1       -2 0.12099187E-01 0.27317587E+03</pdfrwt>
<totfact> 0.68353481E+03</totfact>
</mgrwt>
</event>
<event>
 9    1  0.7944303E-001  0.2767771E+03  0.7818608E-02  0.1097462E+00
         -3   -1    0    0    0  501 -0.00000000000E+00  0.00000000000E+00  0.69638118556E+02  0.69638118556E+02  0.00000000000E+00 0.  1.
          3   -1    0    0  501    0  0.00000000000E+00 -0.00000000000E+00 -0.27501303794E+03  0.27501303794E+03  0.00000000000E+00 0.  1.
         35    2    1    2    0    0  0.00000000000E+00 -0.71054273576E-14 -0.20537491938E+03  0.34465115650E+03  0.27677709833E+03 0.  0.
         25    2    3    3    0    0  0.13065674077E+02 -0.58169948443E+02 -0.10125885765E+03  0.17117183153E+03  0.12446680247E+03 0.  0.
         25    2    3    3    0    0 -0.13065674077E+02  0.58169948443E+02 -0.10411606173E+03  0.17347932496E+03  0.12530150493E+03 0.  0.
          5    1    4    4  502    0  0.59263601296E+02 -0.68088474187E+02 -0.62753819517E+02  0.11003793264E+03  0.47000000000E+01 0.  1.
         -5    1    4    4    0  502 -0.46197927220E+02  0.99185257438E+01 -0.38505038132E+02  0.61133898893E+02  0.47000000000E+01 0.  1.
          5    1    5    5  503    0  0.29485801424E+02 -0.15060385578E+02  0.65162246190E+01  0.34070205205E+02  0.47000000000E+01 0. -1.
         -5    1    5    5    0  503 -0.42551475501E+02  0.73230334021E+02 -0.11063228635E+03  0.13940911976E+03  0.47000000000E+01 0. -1.
<mgrwt>
<rscale>  0 0.27677710E+03</rscale>
<asrwt>0</asrwt>
<pdfrwt beam="1">  1        3 0.42309699E-01 0.27677710E+03</pdfrwt>
<pdfrwt beam="2">  1       -3 0.10713557E-01 0.27677710E+03</pdfrwt>
<totfact> 0.93150523E+02</totfact>
</mgrwt>
</event>
<event>
 9    1  0.7944303E-001  0.2720276E+03  0.7818608E-02  0.1100125E+00
         -2   -1    0    0    0  501 -0.00000000000E+00  0.00000000000E+00  0.37043381878E+02  0.37043381878E+02  0.00000000000E+00 0.  1.
          2   -1    0    0  501    0  0.00000000000E+00 -0.00000000000E+00 -0.49940772103E+03  0.49940772103E+03  0.00000000000E+00 0.  1.
         35    2    1    2    0    0 -0.71054273576E-14  0.71054273576E-14 -0.46236433915E+03  0.53645110291E+03  0.27202757892E+03 0.  0.
         25    2    3    3    0    0  0.37588946198E+02 -0.39510604578E+02 -0.21942724327E+03  0.25799620791E+03  0.12425663548E+03 0.  0.
         25    2    3    3    0    0 -0.37588946198E+02  0.39510604578E+02 -0.24293709588E+03  0.27845489499E+03  0.12467830300E+03 0.  0.
          5    1    4    4  502    0  0.63317378901E+02 -0.73849461699E+01 -0.43645965227E+02  0.77399536054E+02  0.47000000000E+01 0. -1.
         -5    1    4    4    0  502 -0.25728432702E+02 -0.32125658408E+02 -0.17578127804E+03  0.18059667186E+03  0.47000000000E+01 0. -1.
          5    1    5    5  503    0  0.31421203940E+02  0.13713986506E+02 -0.13013603696E+02  0.36970384960E+02  0.47000000000E+01 0. -1.
         -5    1    5    5    0  503 -0.69010150138E+02  0.25796618073E+02 -0.22992349219E+03  0.24148451003E+03  0.47000000000E+01 0. -1.
<mgrwt>
<rscale>  0 0.27202758E+03</rscale>
<asrwt>0</asrwt>
<pdfrwt beam="1">  1        2 0.76831960E-01 0.27202758E+03</pdfrwt>
<pdfrwt beam="2">  1       -2 0.56989816E-02 0.27202758E+03</pdfrwt>
<totfact> 0.99237179E+03</totfact>
</mgrwt>
</event>
<event>
 9    1  0.7944303E-001  0.2815558E+03  0.7818608E-02  0.1094842E+00
         -2   -1    0    0    0  501 -0.00000000000E+00  0.00000000000E+00  0.12487539322E+03  0.12487539322E+03  0.00000000000E+00 0.  1.
          2   -1    0    0  501    0  0.00000000000E+00 -0.00000000000E+00 -0.15870552953E+03  0.15870552953E+03  0.00000000000E+00 0.  1.
         35    2    1    2    0    0  0.00000000000E+00  0.00000000000E+00 -0.33830136315E+02  0.28358092275E+03  0.28155578777E+03 0.  0.
         25    2    3    3    0    0 -0.42576591510E+02 -0.32580465044E+02 -0.45666856016E+02  0.14584069826E+03  0.12770980653E+03 0.  0.
         25    2    3    3    0    0  0.42576591510E+02  0.32580465044E+02  0.11836719701E+02  0.13774022449E+03  0.12632501202E+03 0.  0.
          5    1    4    4  502    0 -0.60556098334E+02 -0.47540888573E+01 -0.78226823574E+02  0.99152248249E+02  0.47000000000E+01 0.  1.
         -5    1    4    4    0  502  0.17979506824E+02 -0.27826376186E+02  0.32559967558E+02  0.46688450014E+02  0.47000000000E+01 0.  1.
          5    1    5    5  503    0  0.84497838657E+02  0.29979195432E+02 -0.97021622706E+01  0.90304257093E+02  0.47000000000E+01 0. -1.
         -5    1    5    5    0  503 -0.41921247147E+02  0.26012696115E+01  0.21538881971E+02  0.47435967393E+02  0.47000000000E+01 0. -1.
<mgrwt>
<rscale>  0 0.28155579E+03</rscale>
<asrwt>0</asrwt>
<pdfrwt beam="1">  1        2 0.24416235E-01 0.28155579E+03</pdfrwt>
<pdfrwt beam="2">  1       -2 0.19211599E-01 0.28155579E+03</pdfrwt>
<totfact> 0.49493672E+03</totfact>
</mgrwt>
</event>
<event>
 9    1  0.7944303E-001  0.2770422E+03  0.7818608E-02  0.1097315E+00
          2   -1    0    0  501    0  0.00000000000E+00  0.00000000000E+00  0.61702886664E+03  0.61702886664E+03  0.00000000000E+00 0. -1.
         -2   -1    0    0    0  501 -0.00000000000E+00 -0.00000000000E+00 -0.31097561949E+02  0.31097561949E+02  0.00000000000E+00 0. -1.
         35    2    1    2    0    0  0.00000000000E+00  0.71054273576E-14  0.58593130469E+03  0.64812642859E+03  0.27704218743E+03 0.  0.
         25    2    3    3    0    0 -0.32260592326E+02  0.17826850864E+02  0.17419937998E+03  0.21634512470E+03  0.12288712937E+03 0.  0.
         25    2    3    3    0    0  0.32260592326E+02 -0.17826850864E+02  0.41173192471E+03  0.43178130389E+03  0.12471316745E+03 0.  0.
          5    1    4    4  502    0 -0.48554429143E+02  0.50092592949E+02  0.47555932565E+02  0.84560375944E+02  0.47000000000E+01 0.  1.
         -5    1    4    4    0  502  0.16293836817E+02 -0.32265742085E+02  0.12664344742E+03  0.13178474875E+03  0.47000000000E+01 0.  1.
          5    1    5    5  503    0 -0.31102852472E+00  0.46353268850E+02  0.25537934252E+03  0.25959472425E+03  0.47000000000E+01 0.  1.
         -5    1    5    5    0  503  0.32571620850E+02 -0.64180119713E+02  0.15635258219E+03  0.17218657964E+03  0.47000000000E+01 0.  1.
<mgrwt>
<rscale>  0 0.27704219E+03</rscale>
<asrwt>0</asrwt>
<pdfrwt beam="1">  1        2 0.94927509E-01 0.27704219E+03</pdfrwt>
<pdfrwt beam="2">  1       -2 0.47842408E-02 0.27704219E+03</pdfrwt>
<totfact> 0.10181263E+04</totfact>
</mgrwt>
</event>
<event>
 9    1  0.7944303E-001  0.2942761E+03  0.7818608E-02  0.1088137E+00
         -2   -1    0    0    0  501 -0.00000000000E+00  0.00000000000E+00  0.10911580349E+02  0.10911580349E+02  0.00000000000E+00 0.  1.
          2   -1    0    0  501    0  0.00000000000E+00 -0.00000000000E+00 -0.19840941801E+04  0.19840941801E+04  0.00000000000E+00 0.  1.
         35    2    1    2    0    0  0.10658141036E-13  0.00000000000E+00 -0.19731825997E+04  0.19950057604E+04  0.29427608170E+03 0.  0.
         25    2    3    3    0    0 -0.27085954950E+02 -0.19894254056E+02 -0.14677246072E+04  0.14732807769E+04  0.12333407774E+03 0.  0.
         25    2    3    3    0    0  0.27085954950E+02  0.19894254056E+02 -0.50545799248E+03  0.52172498347E+03  0.12481885239E+03 0.  0.
          5    1    4    4  502    0 -0.67734303543E+02  0.12468529183E+02 -0.10577250013E+04  0.10599753151E+04  0.47000000000E+01 0. -1.
         -5    1    4    4    0  502  0.40648348593E+02 -0.32362783239E+02 -0.40999960590E+03  0.41330546188E+03  0.47000000000E+01 0. -1.
          5    1    5    5  503    0  0.14226300917E+02  0.72521476542E+02 -0.26174276996E+03  0.27201676386E+03  0.47000000000E+01 0. -1.
         -5    1    5    5    0  503  0.12859654033E+02 -0.52627222486E+02 -0.24371522252E+03  0.24970821960E+03  0.47000000000E+01 0. -1.
<mgrwt>
<rscale>  0 0.29427608E+03</rscale>
<asrwt>0</asrwt>
<pdfrwt beam="1">  1        2 0.30524506E+00 0.29427608E+03</pdfrwt>
<pdfrwt beam="2">  1       -2 0.16787058E-02 0.29427608E+03</pdfrwt>
<totfact> 0.75806238E+03</totfact>
</mgrwt>
</event>
<event>
 9    1  0.7944303E-001  0.2769034E+03  0.7818608E-02  0.1097392E+00
         -3   -1    0    0    0  501 -0.00000000000E+00  0.00000000000E+00  0.14895631749E+03  0.14895631749E+03  0.00000000000E+00 0. -1.
          3   -1    0    0  501    0  0.00000000000E+00 -0.00000000000E+00 -0.12868788099E+03  0.12868788099E+03  0.00000000000E+00 0. -1.
         35    2    1    2    0    0  0.00000000000E+00  0.00000000000E+00  0.20268436500E+02  0.27764419847E+03  0.27690339728E+03 0.  0.
         25    2    3    3    0    0 -0.43347677639E+02  0.19943019771E+02  0.47197267521E+02  0.14186427257E+03  0.12498457735E+03 0.  0.
         25    2    3    3    0    0  0.43347677639E+02 -0.19943019771E+02 -0.26928831021E+02  0.13577992591E+03  0.12423478235E+03 0.  0.
          5    1    4    4  502    0 -0.20689500016E+02 -0.48461440946E+02  0.45267128469E+02  0.69625926129E+02  0.47000000000E+01 0. -1.
         -5    1    4    4    0  502 -0.22658177623E+02  0.68404460717E+02  0.19301390522E+01  0.72238346437E+02  0.47000000000E+01 0. -1.
          5    1    5    5  503    0  0.13134198751E+02 -0.28241495500E+02 -0.73206665995E+02  0.79695640978E+02  0.47000000000E+01 0. -1.
         -5    1    5    5    0  503  0.30213478888E+02  0.82984757290E+01  0.46277834973E+02  0.56084284927E+02  0.47000000000E+01 0. -1.
<mgrwt>
<rscale>  0 0.27690340E+03</rscale>
<asrwt>0</asrwt>
<pdfrwt beam="1">  1        3 0.19798136E-01 0.27690340E+03</pdfrwt>
<pdfrwt beam="2">  1       -3 0.22916357E-01 0.27690340E+03</pdfrwt>
<totfact> 0.10229522E+03</totfact>
</mgrwt>
</event>
<event>
 9    1  0.7944303E-001  0.2734528E+03  0.7818608E-02  0.1099320E+00
         -2   -1    0    0    0  501 -0.00000000000E+00  0.00000000000E+00  0.31981014704E+02  0.31981014704E+02  0.00000000000E+00 0. -1.
          2   -1    0    0  501    0  0.00000000000E+00 -0.00000000000E+00 -0.58453773568E+03  0.58453773568E+03  0.00000000000E+00 0. -1.
         35    2    1    2    0    0 -0.17763568394E-14 -0.71054273576E-14 -0.55255672097E+03  0.61651875038E+03  0.27345281070E+03 0.  0.
         25    2    3    3    0    0  0.11262196385E+02  0.51166375710E+02 -0.29789720056E+03  0.32809266873E+03  0.12711106206E+03 0.  0.
         25    2    3    3    0    0 -0.11262196385E+02 -0.51166375710E+02 -0.25465952041E+03  0.28842608165E+03  0.12487312830E+03 0.  0.
          5    1    4    4  502    0  0.63891663003E+01  0.89354724673E+02 -0.14629645431E+03  0.17160953007E+03  0.47000000000E+01 0. -1.
         -5    1    4    4    0  502  0.48730300845E+01 -0.38188348963E+02 -0.15160074626E+03  0.15648313866E+03  0.47000000000E+01 0. -1.
          5    1    5    5  503    0 -0.56067769817E+02  0.41984461334E+01 -0.16145567476E+03  0.17102995842E+03  0.47000000000E+01 0.  1.
         -5    1    5    5    0  503  0.44805573432E+02 -0.55364821843E+02 -0.93203845644E+02  0.11739612324E+03  0.47000000000E+01 0.  1.
<mgrwt>
<rscale>  0 0.27345281E+03</rscale>
<asrwt>0</asrwt>
<pdfrwt beam="1">  1        2 0.89928888E-01 0.27345281E+03</pdfrwt>
<pdfrwt beam="2">  1       -2 0.49201558E-02 0.27345281E+03</pdfrwt>
<totfact> 0.10385406E+04</totfact>
</mgrwt>
</event>
<event>
 9    1  0.7944303E-001  0.2761088E+03  0.7818608E-02  0.1097833E+00
          3   -1    0    0  501    0  0.00000000000E+00  0.00000000000E+00  0.12140908372E+04  0.12140908372E+04  0.00000000000E+00 0.  1.
         -3   -1    0    0    0  501 -0.00000000000E+00 -0.00000000000E+00 -0.15698184350E+02  0.15698184350E+02  0.00000000000E+00 0.  1.
         35    2    1    2    0    0 -0.71054273576E-14  0.00000000000E+00  0.11983926529E+04  0.12297890216E+04  0.27610883203E+03 0.  0.
         25    2    3    3    0    0 -0.37324823905E+02 -0.36962416621E+02  0.48238563302E+03  0.50073034803E+03  0.12359457826E+03 0.  0.
         25    2    3    3    0    0  0.37324823905E+02  0.36962416621E+02  0.71600701984E+03  0.72905867353E+03  0.12689024495E+03 0.  0.
          5    1    4    4  502    0 -0.61158290453E+02  0.23176436203E+02  0.18281368062E+03  0.19421744389E+03  0.47000000000E+01 0.  1.
         -5    1    4    4    0  502  0.23833466548E+02 -0.60138852824E+02  0.29957195240E+03  0.30651290415E+03  0.47000000000E+01 0.  1.
          5    1    5    5  503    0  0.58847377975E+02 -0.16079366051E+02  0.55008207288E+03  0.55347442290E+03  0.47000000000E+01 0. -1.
         -5    1    5    5    0  503 -0.21522554071E+02  0.53041782672E+02  0.16592494696E+03  0.17558425062E+03  0.47000000000E+01 0. -1.
<mgrwt>
<rscale>  0 0.27610883E+03</rscale>
<asrwt>0</asrwt>
<pdfrwt beam="1">  1        3 0.18678313E+00 0.27610883E+03</pdfrwt>
<pdfrwt beam="2">  1       -3 0.24151062E-02 0.27610883E+03</pdfrwt>
<totfact> 0.34990846E+02</totfact>
</mgrwt>
</event>
<event>
 9    1  0.7944303E-001  0.2746846E+03  0.7818608E-02  0.1098628E+00
          2   -1    0    0  501    0  0.00000000000E+00  0.00000000000E+00  0.11250683303E+03  0.11250683303E+03  0.00000000000E+00 0. -1.
         -2   -1    0    0    0  501 -0.00000000000E+00 -0.00000000000E+00 -0.16766010714E+03  0.16766010714E+03  0.00000000000E+00 0. -1.
         35    2    1    2    0    0  0.00000000000E+00  0.17763568394E-14 -0.55153274108E+02  0.28016694017E+03  0.27468460226E+03 0.  0.
         25    2    3    3    0    0  0.51553639781E+02  0.15037029729E+02 -0.46923157235E+02  0.14394673224E+03  0.12503994961E+03 0.  0.
         25    2    3    3    0    0 -0.51553639781E+02 -0.15037029729E+02 -0.82301168734E+01  0.13622020793E+03  0.12491725336E+03 0.  0.
          5    1    4    4  502    0  0.43355519503E+01  0.11770514580E+02 -0.83109791185E+02  0.84182358098E+02  0.47000000000E+01 0. -1.
         -5    1    4    4    0  502  0.47218087830E+02  0.32665151495E+01  0.36186633950E+02  0.59764374139E+02  0.47000000000E+01 0. -1.
          5    1    5    5  503    0  0.21859379294E+02 -0.49812650215E+02 -0.36523790960E+01  0.54722595495E+02  0.47000000000E+01 0.  1.
         -5    1    5    5    0  503 -0.73413019074E+02  0.34775620486E+02 -0.45777377774E+01  0.81497612437E+02  0.47000000000E+01 0.  1.
<mgrwt>
<rscale>  0 0.27468460E+03</rscale>
<asrwt>0</asrwt>
<pdfrwt beam="1">  1        2 0.17308744E-01 0.27468460E+03</pdfrwt>
<pdfrwt beam="2">  1       -2 0.25793863E-01 0.27468460E+03</pdfrwt>
<totfact> 0.43922296E+03</totfact>
</mgrwt>
</event>
<event>
 9    1  0.7944303E-001  0.2764594E+03  0.7818608E-02  0.1097639E+00
          2   -1    0    0  501    0  0.00000000000E+00  0.00000000000E+00  0.71789396208E+03  0.71789396208E+03  0.00000000000E+00 0.  1.
         -2   -1    0    0    0  501 -0.00000000000E+00 -0.00000000000E+00 -0.26615984025E+02  0.26615984025E+02  0.00000000000E+00 0.  1.
         35    2    1    2    0    0  0.14210854715E-13 -0.71054273576E-14  0.69127797805E+03  0.74450994611E+03  0.27645943085E+03 0.  0.
         25    2    3    3    0    0  0.41263660404E+02 -0.35990584835E+02  0.41116114976E+03  0.43294916022E+03  0.12407043319E+03 0.  0.
         25    2    3    3    0    0 -0.41263660404E+02  0.35990584835E+02  0.28011682829E+03  0.31156078589E+03  0.12492667427E+03 0.  0.
          5    1    4    4  502    0 -0.31422865910E+02  0.24291521840E+02  0.98660561345E+02  0.10645877559E+03  0.47000000000E+01 0.  1.
         -5    1    4    4    0  502  0.72686526314E+02 -0.60282106675E+02  0.31250058842E+03  0.32649038463E+03  0.47000000000E+01 0.  1.
          5    1    5    5  503    0  0.43168708776E+01 -0.35882854982E+02  0.16108840051E+03  0.16515985419E+03  0.47000000000E+01 0. -1.
         -5    1    5    5    0  503 -0.45580531281E+02  0.71873439817E+02  0.11902842778E+03  0.14640093170E+03  0.47000000000E+01 0. -1.
<mgrwt>
<rscale>  0 0.27645943E+03</rscale>
<asrwt>0</asrwt>
<pdfrwt beam="1">  1        2 0.11044521E+00 0.27645943E+03</pdfrwt>
<pdfrwt beam="2">  1       -2 0.40947673E-02 0.27645943E+03</pdfrwt>
<totfact> 0.10746793E+04</totfact>
</mgrwt>
</event>
<event>
 9    1  0.7944303E-001  0.2939517E+03  0.7818608E-02  0.1088304E+00
          1   -1    0    0  501    0  0.00000000000E+00  0.00000000000E+00  0.11326690952E+04  0.11326690952E+04  0.00000000000E+00 0. -1.
         -1   -1    0    0    0  501 -0.00000000000E+00 -0.00000000000E+00 -0.19071680929E+02  0.19071680929E+02  0.00000000000E+00 0. -1.
         35    2    1    2    0    0  0.00000000000E+00  0.00000000000E+00  0.11135974143E+04  0.11517407762E+04  0.29395172109E+03 0.  0.
         25    2    3    3    0    0 -0.39675788460E+02 -0.57602401764E+02  0.42554979632E+03  0.44897622418E+03  0.12487920504E+03 0.  0.
         25    2    3    3    0    0  0.39675788460E+02  0.57602401764E+02  0.68804761798E+03  0.70276455198E+03  0.12480499201E+03 0.  0.
          5    1    4    4  502    0 -0.64004267015E-01 -0.77129262448E+02  0.36934667223E+03  0.37734332048E+03  0.47000000000E+01 0. -1.
         -5    1    4    4    0  502 -0.39611784193E+02  0.19526860684E+02  0.56203124084E+02  0.71632903696E+02  0.47000000000E+01 0. -1.
          5    1    5    5  503    0  0.21013698805E+02  0.11052597274E+02  0.16413655619E+02  0.29244376122E+02  0.47000000000E+01 0. -1.
         -5    1    5    5    0  503  0.18662089655E+02  0.46549804490E+02  0.67163396236E+03  0.67352017586E+03  0.47000000000E+01 0. -1.
<mgrwt>
<rscale>  0 0.29395172E+03</rscale>
<asrwt>0</asrwt>
<pdfrwt beam="1">  1        1 0.17425673E+00 0.29395172E+03</pdfrwt>
<pdfrwt beam="2">  1       -1 0.29341056E-02 0.29395172E+03</pdfrwt>
<totfact> 0.49885884E+03</totfact>
</mgrwt>
</event>
<event>
 9    1  0.7944303E-001  0.2685352E+03  0.7818608E-02  0.1102121E+00
          2   -1    0    0  501    0  0.00000000000E+00  0.00000000000E+00  0.36313329843E+02  0.36313329843E+02  0.00000000000E+00 0. -1.
         -2   -1    0    0    0  501 -0.00000000000E+00 -0.00000000000E+00 -0.49645112179E+03  0.49645112179E+03  0.00000000000E+00 0. -1.
         35    2    1    2    0    0  0.71054273576E-14  0.00000000000E+00 -0.46013779194E+03  0.53276445163E+03  0.26853523669E+03 0.  0.
         25    2    3    3    0    0  0.21437244392E+02  0.43920328234E+02 -0.20864847471E+03  0.24803065900E+03  0.12488583236E+03 0.  0.
         25    2    3    3    0    0 -0.21437244392E+02 -0.43920328234E+02 -0.25148931723E+03  0.28473379263E+03  0.12424936742E+03 0.  0.
          5    1    4    4  502    0  0.21084331842E+02 -0.26134652319E+02 -0.71538875802E+01  0.34653098109E+02  0.47000000000E+01 0.  1.
         -5    1    4    4    0  502  0.35291255068E+00  0.70054980553E+02 -0.20149458713E+03  0.21337756089E+03  0.47000000000E+01 0.  1.
          5    1    5    5  503    0  0.19436957485E+02  0.27704264027E+02 -0.15018484261E+03  0.15402239613E+03  0.47000000000E+01 0.  1.
         -5    1    5    5    0  503 -0.40874201877E+02 -0.71624592261E+02 -0.10130447463E+03  0.13071139650E+03  0.47000000000E+01 0.  1.
<mgrwt>
<rscale>  0 0.26853524E+03</rscale>
<asrwt>0</asrwt>
<pdfrwt beam="1">  1        2 0.55866665E-02 0.26853524E+03</pdfrwt>
<pdfrwt beam="2">  1       -2 0.76377091E-01 0.26853524E+03</pdfrwt>
<totfact> 0.21346482E+03</totfact>
</mgrwt>
</event>
<event>
 9    1  0.7944303E-001  0.2623062E+03  0.7818608E-02  0.1105766E+00
          2   -1    0    0  501    0  0.00000000000E+00  0.00000000000E+00  0.22271675716E+04  0.22271675716E+04  0.00000000000E+00 0.  1.
         -2   -1    0    0    0  501 -0.00000000000E+00 -0.00000000000E+00 -0.77233210268E+01  0.77233210268E+01  0.00000000000E+00 0.  1.
         35    2    1    2    0    0  0.00000000000E+00 -0.88817841970E-15  0.22194442506E+04  0.22348908927E+04  0.26230615804E+03 0.  0.
         25    2    3    3    0    0  0.36048314240E+02 -0.31992052270E+00  0.98152365482E+03  0.99021550231E+03  0.12585099423E+03 0.  0.
         25    2    3    3    0    0 -0.36048314240E+02  0.31992052270E+00  0.12379205958E+04  0.12446753903E+04  0.12437782176E+03 0.  0.
          5    1    4    4  502    0 -0.40969898909E+02  0.35973745158E+01  0.16773269456E+03  0.17276521798E+03  0.47000000000E+01 0.  1.
         -5    1    4    4    0  502  0.77018213149E+02 -0.39172950385E+01  0.81379096026E+03  0.81745028433E+03  0.47000000000E+01 0.  1.
          5    1    5    5  503    0 -0.69528294088E+02  0.17636168724E+02  0.10743521868E+04  0.10767543496E+04  0.47000000000E+01 0.  1.
         -5    1    5    5    0  503  0.33479979848E+02 -0.17316248201E+02  0.16356840902E+03  0.16792104076E+03  0.47000000000E+01 0.  1.
<mgrwt>
<rscale>  0 0.26230616E+03</rscale>
<asrwt>0</asrwt>
<pdfrwt beam="1">  1        2 0.34264065E+00 0.26230616E+03</pdfrwt>
<pdfrwt beam="2">  1       -2 0.11882050E-02 0.26230616E+03</pdfrwt>
<totfact> 0.93360432E+03</totfact>
</mgrwt>
</event>
<event>
 9    1  0.7944303E-001  0.2716653E+03  0.7818608E-02  0.1100330E+00
         -1   -1    0    0    0  501 -0.00000000000E+00  0.00000000000E+00  0.20184515067E+03  0.20184515067E+03  0.00000000000E+00 0. -1.
          1   -1    0    0  501    0  0.00000000000E+00 -0.00000000000E+00 -0.91409242647E+02  0.91409242647E+02  0.00000000000E+00 0. -1.
         35    2    1    2    0    0 -0.71054273576E-14  0.17763568394E-14  0.11043590802E+03  0.29325439332E+03  0.27166532612E+03 0.  0.
         25    2    3    3    0    0 -0.48908979551E+02  0.20399898727E+01  0.33923769104E+02  0.13877311515E+03  0.12534315115E+03 0.  0.
         25    2    3    3    0    0  0.48908979551E+02 -0.20399898727E+01  0.76512138917E+02  0.15448127816E+03  0.12495642465E+03 0.  0.
          5    1    4    4  502    0 -0.39045943820E+02 -0.33197960432E+02 -0.33855761563E+02  0.61603513671E+02  0.47000000000E+01 0. -1.
         -5    1    4    4    0  502 -0.98630357314E+01  0.35237950304E+02  0.67779530668E+02  0.77169601483E+02  0.47000000000E+01 0. -1.
          5    1    5    5  503    0  0.42175175345E+01 -0.10854106903E+02 -0.33253754349E+02  0.35545763026E+02  0.47000000000E+01 0.  1.
         -5    1    5    5    0  503  0.44691462017E+02  0.88141170302E+01  0.10976589327E+03  0.11893551514E+03  0.47000000000E+01 0.  1.
<mgrwt>
<rscale>  0 0.27166533E+03</rscale>
<asrwt>0</asrwt>
<pdfrwt beam="1">  1        1 0.14062960E-01 0.27166533E+03</pdfrwt>
<pdfrwt beam="2">  1       -1 0.31053100E-01 0.27166533E+03</pdfrwt>
<totfact> 0.38852592E+03</totfact>
</mgrwt>
</event>
<event>
 9    1  0.7944303E-001  0.2736606E+03  0.7818608E-02  0.1099203E+00
         -2   -1    0    0    0  501 -0.00000000000E+00  0.00000000000E+00  0.22460133050E+02  0.22460133050E+02  0.00000000000E+00 0.  1.
          2   -1    0    0  501    0  0.00000000000E+00 -0.00000000000E+00 -0.83358921112E+03  0.83358921112E+03  0.00000000000E+00 0.  1.
         35    2    1    2    0    0  0.00000000000E+00  0.00000000000E+00 -0.81112907807E+03  0.85604934417E+03  0.27366055317E+03 0.  0.
         25    2    3    3    0    0 -0.45363052761E+02  0.10903360333E+02 -0.50054485278E+03  0.51809779520E+03  0.12531355045E+03 0.  0.
         25    2    3    3    0    0  0.45363052761E+02 -0.10903360333E+02 -0.31058422529E+03  0.33795154896E+03  0.12478781442E+03 0.  0.
          5    1    4    4  502    0 -0.26396613399E+02 -0.55460149098E+02 -0.29029050683E+03  0.29675457485E+03  0.47000000000E+01 0. -1.
         -5    1    4    4    0  502 -0.18966439362E+02  0.66363509431E+02 -0.21025434595E+03  0.22134322036E+03  0.47000000000E+01 0. -1.
          5    1    5    5  503    0  0.32356904307E+02  0.54874642851E+02 -0.18155532574E+03  0.19246459931E+03  0.47000000000E+01 0. -1.
         -5    1    5    5    0  503  0.13006148453E+02 -0.65778003185E+02 -0.12902889955E+03  0.14548694965E+03  0.47000000000E+01 0. -1.
<mgrwt>
<rscale>  0 0.27366055E+03</rscale>
<asrwt>0</asrwt>
<pdfrwt beam="1">  1        2 0.12824451E+00 0.27366055E+03</pdfrwt>
<pdfrwt beam="2">  1       -2 0.34554047E-02 0.27366055E+03</pdfrwt>
<totfact> 0.11485952E+04</totfact>
</mgrwt>
</event>
<event>
 9    1  0.7944303E-001  0.2731923E+03  0.7818608E-02  0.1099466E+00
         -2   -1    0    0    0  501 -0.00000000000E+00  0.00000000000E+00  0.33642787817E+03  0.33642787817E+03  0.00000000000E+00 0. -1.
          2   -1    0    0  501    0  0.00000000000E+00 -0.00000000000E+00 -0.55460645182E+02  0.55460645182E+02  0.00000000000E+00 0. -1.
         35    2    1    2    0    0 -0.71054273576E-14 -0.35527136788E-14  0.28096723299E+03  0.39188852336E+03  0.27319229258E+03 0.  0.
         25    2    3    3    0    0 -0.49564793929E+02  0.22899249556E+02  0.15421473537E+03  0.20632425637E+03  0.12572378348E+03 0.  0.
         25    2    3    3    0    0  0.49564793929E+02 -0.22899249556E+02  0.12675249762E+03  0.18556426699E+03  0.12404377091E+03 0.  0.
          5    1    4    4  502    0 -0.34490790522E+02 -0.42600788782E+01  0.16828599992E+03  0.17190122359E+03  0.47000000000E+01 0.  1.
         -5    1    4    4    0  502 -0.15074003407E+02  0.27159328434E+02 -0.14071264549E+02  0.34423032779E+02  0.47000000000E+01 0.  1.
          5    1    5    5  503    0  0.70224841237E+02 -0.55276244632E+02  0.11377064348E+03  0.14475096154E+03  0.47000000000E+01 0. -1.
         -5    1    5    5    0  503 -0.20660047308E+02  0.32376995076E+02  0.12981854141E+02  0.40813305451E+02  0.47000000000E+01 0. -1.
<mgrwt>
<rscale>  0 0.27319229E+03</rscale>
<asrwt>0</asrwt>
<pdfrwt beam="1">  1        2 0.85324072E-02 0.27319229E+03</pdfrwt>
<pdfrwt beam="2">  1       -2 0.51758134E-01 0.27319229E+03</pdfrwt>
<totfact> 0.27950160E+03</totfact>
</mgrwt>
</event>
<event>
 9    1  0.7944303E-001  0.2755360E+03  0.7818608E-02  0.1098152E+00
         -2   -1    0    0    0  501 -0.00000000000E+00  0.00000000000E+00  0.15317717691E+02  0.15317717691E+02  0.00000000000E+00 0. -1.
          2   -1    0    0  501    0  0.00000000000E+00 -0.00000000000E+00 -0.12390897008E+04  0.12390897008E+04  0.00000000000E+00 0. -1.
         35    2    1    2    0    0  0.35527136788E-14  0.00000000000E+00 -0.12237719831E+04  0.12544074185E+04  0.27553603199E+03 0.  0.
         25    2    3    3    0    0  0.54542836699E+01  0.39951912861E+02 -0.80841970040E+03  0.81911239519E+03  0.12560572998E+03 0.  0.
         25    2    3    3    0    0 -0.54542836699E+01 -0.39951912861E+02 -0.41535228267E+03  0.43529502327E+03  0.12384802788E+03 0.  0.
          5    1    4    4  502    0 -0.45222186887E+02  0.38589007735E+02 -0.20360242307E+03  0.21215606139E+03  0.47000000000E+01 0.  1.
         -5    1    4    4    0  502  0.50676470557E+02  0.13629051260E+01 -0.60481727734E+03  0.60695633380E+03  0.47000000000E+01 0.  1.
          5    1    5    5  503    0 -0.28700815166E+02 -0.87863775403E+01 -0.16593192181E+02  0.34617354727E+02  0.47000000000E+01 0. -1.
         -5    1    5    5    0  503  0.23246531497E+02 -0.31165535321E+02 -0.39875909049E+03  0.40067766854E+03  0.47000000000E+01 0. -1.
<mgrwt>
<rscale>  0 0.27553603E+03</rscale>
<asrwt>0</asrwt>
<pdfrwt beam="1">  1        2 0.19062921E+00 0.27553603E+03</pdfrwt>
<pdfrwt beam="2">  1       -2 0.23565716E-02 0.27553603E+03</pdfrwt>
<totfact> 0.11503997E+04</totfact>
</mgrwt>
</event>
<event>
 9    1  0.7944303E-001  0.2743829E+03  0.7818608E-02  0.1098797E+00
         -2   -1    0    0    0  501 -0.00000000000E+00  0.00000000000E+00  0.18679522360E+02  0.18679522360E+02  0.00000000000E+00 0.  1.
          2   -1    0    0  501    0  0.00000000000E+00 -0.00000000000E+00 -0.10076004734E+04  0.10076004734E+04  0.00000000000E+00 0.  1.
         35    2    1    2    0    0 -0.71054273576E-14 -0.35527136788E-14 -0.98892095101E+03  0.10262799957E+04  0.27438291180E+03 0.  0.
         25    2    3    3    0    0 -0.54235719692E+02 -0.64417777457E+01 -0.54354775283E+03  0.56019481516E+03  0.12406071713E+03 0.  0.
         25    2    3    3    0    0  0.54235719692E+02  0.64417777457E+01 -0.44537319818E+03  0.46608518057E+03  0.12607577126E+03 0.  0.
          5    1    4    4  502    0 -0.71180584549E+02  0.42155820713E+02 -0.30062101195E+03  0.31183147959E+03  0.47000000000E+01 0.  1.
         -5    1    4    4    0  502  0.16944864857E+02 -0.48597598459E+02 -0.24292674088E+03  0.24836333557E+03  0.47000000000E+01 0.  1.
          5    1    5    5  503    0  0.50000271301E+02 -0.31201684245E+02 -0.84111664135E+02  0.10281261729E+03  0.47000000000E+01 0. -1.
         -5    1    5    5    0  503  0.42354483919E+01  0.37643461990E+02 -0.36126153404E+03  0.36327256328E+03  0.47000000000E+01 0. -1.
<mgrwt>
<rscale>  0 0.27438291E+03</rscale>
<asrwt>0</asrwt>
<pdfrwt beam="1">  1        2 0.15501539E+00 0.27438291E+03</pdfrwt>
<pdfrwt beam="2">  1       -2 0.28737740E-02 0.27438291E+03</pdfrwt>
<totfact> 0.11701450E+04</totfact>
</mgrwt>
</event>
<event>
 9    1  0.7944303E-001  0.2730898E+03  0.7818608E-02  0.1099524E+00
         -2   -1    0    0    0  501 -0.00000000000E+00  0.00000000000E+00  0.39171997668E+02  0.39171997668E+02  0.00000000000E+00 0.  1.
          2   -1    0    0  501    0  0.00000000000E+00 -0.00000000000E+00 -0.47596522213E+03  0.47596522213E+03  0.00000000000E+00 0.  1.
         35    2    1    2    0    0  0.00000000000E+00 -0.17763568394E-14 -0.43679322446E+03  0.51513721980E+03  0.27308979162E+03 0.  0.
         25    2    3    3    0    0  0.52012140278E+02  0.10133012796E+02 -0.23983960126E+03  0.27559718673E+03  0.12499133696E+03 0.  0.
         25    2    3    3    0    0 -0.52012140278E+02 -0.10133012796E+02 -0.19695362320E+03  0.23954003307E+03  0.12562148330E+03 0.  0.
          5    1    4    4  502    0  0.93158445404E+02  0.13274569742E+02 -0.16488372486E+03  0.18990377267E+03  0.47000000000E+01 0. -1.
         -5    1    4    4    0  502 -0.41146305126E+02 -0.31415569463E+01 -0.74955876406E+02  0.85693414060E+02  0.47000000000E+01 0. -1.
          5    1    5    5  503    0  0.25311798710E+02  0.37423563469E+02 -0.67436285124E+02  0.81307765976E+02  0.47000000000E+01 0.  1.
         -5    1    5    5    0  503 -0.77323938988E+02 -0.47556576264E+02 -0.12951733807E+03  0.15823226709E+03  0.47000000000E+01 0.  1.
<mgrwt>
<rscale>  0 0.27308979E+03</rscale>
<asrwt>0</asrwt>
<pdfrwt beam="1">  1        2 0.73225419E-01 0.27308979E+03</pdfrwt>
<pdfrwt beam="2">  1       -2 0.60264612E-02 0.27308979E+03</pdfrwt>
<totfact> 0.96123241E+03</totfact>
</mgrwt>
</event>
<event>
 9    1  0.7944303E-001  0.2659164E+03  0.7818608E-02  0.1103640E+00
          2   -1    0    0  501    0  0.00000000000E+00  0.00000000000E+00  0.20476201378E+04  0.20476201378E+04  0.00000000000E+00 0. -1.
         -2   -1    0    0    0  501 -0.00000000000E+00 -0.00000000000E+00 -0.86333815457E+01  0.86333815457E+01  0.00000000000E+00 0. -1.
         35    2    1    2    0    0  0.00000000000E+00  0.35527136788E-14  0.20389867562E+04  0.20562535193E+04  0.26591642228E+03 0.  0.
         25    2    3    3    0    0 -0.32380085392E+00 -0.74686019012E+01  0.67301364125E+03  0.68446019599E+03  0.12442874956E+03 0.  0.
         25    2    3    3    0    0  0.32380085392E+00  0.74686019012E+01  0.13659731150E+04  0.13717933233E+04  0.12600986566E+03 0.  0.
          5    1    4    4  502    0 -0.44622711359E+02 -0.94755901734E+01  0.57445929610E+03  0.57628686090E+03  0.47000000000E+01 0. -1.
         -5    1    4    4    0  502  0.44298910505E+02  0.20069882723E+01  0.98554345155E+02  0.10817333508E+03  0.47000000000E+01 0. -1.
          5    1    5    5  503    0 -0.55013006006E+02  0.33726053810E+02  0.72819786642E+03  0.73106641298E+03  0.47000000000E+01 0. -1.
         -5    1    5    5    0  503  0.55336806860E+02 -0.26257451909E+02  0.63777524855E+03  0.64072691035E+03  0.47000000000E+01 0. -1.
<mgrwt>
<rscale>  0 0.26591642E+03</rscale>
<asrwt>0</asrwt>
<pdfrwt beam="1">  1        2 0.31501810E+00 0.26591642E+03</pdfrwt>
<pdfrwt beam="2">  1       -2 0.13282142E-02 0.26591642E+03</pdfrwt>
<totfact> 0.98795258E+03</totfact>
</mgrwt>
</event>
<event>
 9    1  0.7944303E-001  0.2750869E+03  0.7818608E-02  0.1098403E+00
         -1   -1    0    0    0  501 -0.00000000000E+00  0.00000000000E+00  0.14004353201E+02  0.14004353201E+02  0.00000000000E+00 0.  1.
          1   -1    0    0  501    0  0.00000000000E+00 -0.00000000000E+00 -0.13508801210E+04  0.13508801210E+04  0.00000000000E+00 0.  1.
         35    2    1    2    0    0  0.00000000000E+00  0.71054273576E-14 -0.13368757678E+04  0.13648844742E+04  0.27508691242E+03 0.  0.
         25    2    3    3    0    0  0.41092427185E+02 -0.36488089315E+02 -0.72751108948E+03  0.74035009468E+03  0.12580106971E+03 0.  0.
         25    2    3    3    0    0 -0.41092427185E+02  0.36488089315E+02 -0.60936467832E+03  0.62453437952E+03  0.12529130771E+03 0.  0.
          5    1    4    4  502    0  0.49861203909E+02  0.33589717633E+02 -0.22760883791E+03  0.23546184803E+03  0.47000000000E+01 0.  1.
         -5    1    4    4    0  502 -0.87687767239E+01 -0.70077806948E+02 -0.49990225157E+03  0.50488824665E+03  0.47000000000E+01 0.  1.
          5    1    5    5  503    0 -0.60844009424E+02 -0.25028829963E+02 -0.39919663659E+03  0.40460904646E+03  0.47000000000E+01 0. -1.
         -5    1    5    5    0  503  0.19751582239E+02  0.61516919278E+02 -0.21016804172E+03  0.21992533306E+03  0.47000000000E+01 0. -1.
<mgrwt>
<rscale>  0 0.27508691E+03</rscale>
<asrwt>0</asrwt>
<pdfrwt beam="1">  1        1 0.20782779E+00 0.27508691E+03</pdfrwt>
<pdfrwt beam="2">  1       -1 0.21545151E-02 0.27508691E+03</pdfrwt>
<totfact> 0.55385319E+03</totfact>
</mgrwt>
</event>
<event>
 9    1  0.7944303E-001  0.2749141E+03  0.7818608E-02  0.1098500E+00
         -1   -1    0    0    0  501 -0.00000000000E+00  0.00000000000E+00  0.25276823786E+02  0.25276823786E+02  0.00000000000E+00 0.  1.
          1   -1    0    0  501    0  0.00000000000E+00 -0.00000000000E+00 -0.74750068944E+03  0.74750068944E+03  0.00000000000E+00 0.  1.
         35    2    1    2    0    0 -0.35527136788E-14  0.00000000000E+00 -0.72222386566E+03  0.77277751323E+03  0.27491411900E+03 0.  0.
         25    2    3    3    0    0 -0.26658641035E+02 -0.18536036297E+02 -0.22738820331E+03  0.26190427024E+03  0.12583395402E+03 0.  0.
         25    2    3    3    0    0  0.26658641035E+02  0.18536036297E+02 -0.49483566235E+03  0.51087324299E+03  0.12277976170E+03 0.  0.
          5    1    4    4  502    0 -0.26160827518E+02  0.42138616675E+02 -0.17385090128E+03  0.18084877049E+03  0.47000000000E+01 0. -1.
         -5    1    4    4    0  502 -0.49781351663E+00 -0.60674652972E+02 -0.53537302024E+02  0.81055499749E+02  0.47000000000E+01 0. -1.
          5    1    5    5  503    0 -0.34490450115E+02 -0.31188859139E+02 -0.22066825876E+03  0.22556353098E+03  0.47000000000E+01 0.  1.
         -5    1    5    5    0  503  0.61149091150E+02  0.49724895436E+02 -0.27416740359E+03  0.28530971200E+03  0.47000000000E+01 0.  1.
<mgrwt>
<rscale>  0 0.27491412E+03</rscale>
<asrwt>0</asrwt>
<pdfrwt beam="1">  1        1 0.11500011E+00 0.27491412E+03</pdfrwt>
<pdfrwt beam="2">  1       -1 0.38887420E-02 0.27491412E+03</pdfrwt>
<totfact> 0.65415576E+03</totfact>
</mgrwt>
</event>
<event>
 9    1  0.7944303E-001  0.2958967E+03  0.7818608E-02  0.1087310E+00
         -2   -1    0    0    0  501 -0.00000000000E+00  0.00000000000E+00  0.10393243252E+02  0.10393243252E+02  0.00000000000E+00 0.  1.
          2   -1    0    0  501    0  0.00000000000E+00 -0.00000000000E+00 -0.21060527947E+04  0.21060527947E+04  0.00000000000E+00 0.  1.
         35    2    1    2    0    0  0.00000000000E+00  0.00000000000E+00 -0.20956595515E+04  0.21164460380E+04  0.29589673196E+03 0.  0.
         25    2    3    3    0    0 -0.49320007411E+02  0.16347688808E+02 -0.60738024841E+03  0.62226693157E+03  0.12492260767E+03 0.  0.
         25    2    3    3    0    0  0.49320007411E+02 -0.16347688808E+02 -0.14882793030E+04  0.14941791064E+04  0.12205002267E+03 0.  0.
          5    1    4    4  502    0 -0.35443611990E+02 -0.50300059874E+02 -0.20312595691E+03  0.21229364103E+03  0.47000000000E+01 0.  1.
         -5    1    4    4    0  502 -0.13876395421E+02  0.66647748682E+02 -0.40425429151E+03  0.40997329054E+03  0.47000000000E+01 0.  1.
          5    1    5    5  503    0 -0.12835550545E+02  0.41357925491E+02 -0.34311904185E+03  0.34587280356E+03  0.47000000000E+01 0. -1.
         -5    1    5    5    0  503  0.62155557956E+02 -0.57705614299E+02 -0.11451602612E+04  0.11483063028E+04  0.47000000000E+01 0. -1.
<mgrwt>
<rscale>  0 0.29589673E+03</rscale>
<asrwt>0</asrwt>
<pdfrwt beam="1">  1        2 0.32400852E+00 0.29589673E+03</pdfrwt>
<pdfrwt beam="2">  1       -2 0.15989585E-02 0.29589673E+03</pdfrwt>
<totfact> 0.70191869E+03</totfact>
</mgrwt>
</event>
<event>
 9    1  0.7944303E-001  0.2736752E+03  0.7818608E-02  0.1099194E+00
          2   -1    0    0  501    0  0.00000000000E+00  0.00000000000E+00  0.43103066217E+02  0.43103066217E+02  0.00000000000E+00 0. -1.
         -2   -1    0    0    0  501 -0.00000000000E+00 -0.00000000000E+00 -0.43441304594E+03  0.43441304594E+03  0.00000000000E+00 0. -1.
         35    2    1    2    0    0 -0.71054273576E-14 -0.71054273576E-14 -0.39130997972E+03  0.47751611215E+03  0.27367524027E+03 0.  0.
         25    2    3    3    0    0  0.43217121469E+02  0.26725777510E+02 -0.19343808077E+03  0.23587058365E+03  0.12503861150E+03 0.  0.
         25    2    3    3    0    0 -0.43217121469E+02 -0.26725777510E+02 -0.19787189894E+03  0.24164552850E+03  0.12906310969E+03 0.  0.
          5    1    4    4  502    0  0.25334026148E+02 -0.35203545868E+02 -0.15071549641E+02  0.46155651129E+02  0.47000000000E+01 0.  1.
         -5    1    4    4    0  502  0.17883095320E+02  0.61929323378E+02 -0.17836653113E+03  0.18971493252E+03  0.47000000000E+01 0.  1.
          5    1    5    5  503    0  0.15273708220E+02  0.43818076086E+02 -0.74405131267E+02  0.87815280638E+02  0.47000000000E+01 0.  1.
         -5    1    5    5    0  503 -0.58490829688E+02 -0.70543853596E+02 -0.12346676768E+03  0.15383024787E+03  0.47000000000E+01 0.  1.
<mgrwt>
<rscale>  0 0.27367524E+03</rscale>
<asrwt>0</asrwt>
<pdfrwt beam="1">  1        2 0.66312413E-02 0.27367524E+03</pdfrwt>
<pdfrwt beam="2">  1       -2 0.66832772E-01 0.27367524E+03</pdfrwt>
<totfact> 0.22768642E+03</totfact>
</mgrwt>
</event>
<event>
 9    1  0.7944303E-001  0.2762585E+03  0.7818608E-02  0.1097750E+00
          2   -1    0    0  501    0  0.00000000000E+00  0.00000000000E+00  0.25374150460E+03  0.25374150460E+03  0.00000000000E+00 0. -1.
         -2   -1    0    0    0  501 -0.00000000000E+00 -0.00000000000E+00 -0.75193437113E+02  0.75193437113E+02  0.00000000000E+00 0. -1.
         35    2    1    2    0    0  0.00000000000E+00 -0.71054273576E-14  0.17854806749E+03  0.32893494172E+03  0.27625854462E+03 0.  0.
         25    2    3    3    0    0 -0.33069300438E+02 -0.32529124650E+02  0.13667551187E+03  0.18940609247E+03  0.12264888805E+03 0.  0.
         25    2    3    3    0    0  0.33069300438E+02  0.32529124650E+02  0.41872555624E+02  0.13952884924E+03  0.12475282071E+03 0.  0.
          5    1    4    4  502    0  0.31627144631E+02 -0.43593267636E+02  0.24501157678E+02  0.59355252407E+02  0.47000000000E+01 0. -1.
         -5    1    4    4    0  502 -0.64696445070E+02  0.11064142986E+02  0.11217435419E+03  0.13005084007E+03  0.47000000000E+01 0. -1.
          5    1    5    5  503    0  0.53991367693E+02  0.59725458008E+02 -0.55113921374E+01  0.80837265929E+02  0.47000000000E+01 0.  1.
         -5    1    5    5    0  503 -0.20922067255E+02 -0.27196333357E+02  0.47383947761E+02  0.58691583312E+02  0.47000000000E+01 0.  1.
<mgrwt>
<rscale>  0 0.27625854E+03</rscale>
<asrwt>0</asrwt>
<pdfrwt beam="1">  1        2 0.39037154E-01 0.27625854E+03</pdfrwt>
<pdfrwt beam="2">  1       -2 0.11568221E-01 0.27625854E+03</pdfrwt>
<totfact> 0.68351170E+03</totfact>
</mgrwt>
</event>
<event>
 9    1  0.7944303E-001  0.2762945E+03  0.7818608E-02  0.1097730E+00
         -2   -1    0    0    0  501 -0.00000000000E+00  0.00000000000E+00  0.15111117456E+03  0.15111117456E+03  0.00000000000E+00 0.  1.
          2   -1    0    0  501    0  0.00000000000E+00 -0.00000000000E+00 -0.12629548227E+03  0.12629548227E+03  0.00000000000E+00 0.  1.
         35    2    1    2    0    0  0.00000000000E+00  0.00000000000E+00  0.24815692292E+02  0.27740665683E+03  0.27629447093E+03 0.  0.
         25    2    3    3    0    0  0.43280711558E+02 -0.29867117723E+02  0.25477507817E+02  0.13741874846E+03  0.12437662285E+03 0.  0.
         25    2    3    3    0    0 -0.43280711558E+02  0.29867117723E+02 -0.66181552460E+00  0.13998790836E+03  0.12973400392E+03 0.  0.
          5    1    4    4  502    0  0.64216102016E+02 -0.56850242223E+02 -0.11734874409E+02  0.86691724382E+02  0.47000000000E+01 0. -1.
         -5    1    4    4    0  502 -0.20935390458E+02  0.26983124499E+02  0.37212382225E+02  0.50727024083E+02  0.47000000000E+01 0. -1.
          5    1    5    5  503    0 -0.45831828888E+02  0.13970918265E+02 -0.60801031003E+02  0.77553842377E+02  0.47000000000E+01 0. -1.
         -5    1    5    5    0  503  0.25511173303E+01  0.15896199459E+02  0.60139215479E+02  0.62434065984E+02  0.47000000000E+01 0. -1.
<mgrwt>
<rscale>  0 0.27629447E+03</rscale>
<asrwt>0</asrwt>
<pdfrwt beam="1">  1        2 0.19430074E-01 0.27629447E+03</pdfrwt>
<pdfrwt beam="2">  1       -2 0.23247873E-01 0.27629447E+03</pdfrwt>
<totfact> 0.46138355E+03</totfact>
</mgrwt>
</event>
<event>
 9    1  0.7944303E-001  0.2731501E+03  0.7818608E-02  0.1099490E+00
         -2   -1    0    0    0  501 -0.00000000000E+00  0.00000000000E+00  0.19374277782E+02  0.19374277782E+02  0.00000000000E+00 0. -1.
          2   -1    0    0  501    0  0.00000000000E+00 -0.00000000000E+00 -0.96275838323E+03  0.96275838323E+03  0.00000000000E+00 0. -1.
         35    2    1    2    0    0  0.00000000000E+00  0.71054273576E-14 -0.94338410545E+03  0.98213266101E+03  0.27315012981E+03 0.  0.
         25    2    3    3    0    0  0.15368959091E+01 -0.55138084571E+02 -0.38166954215E+03  0.40399053543E+03  0.12039162300E+03 0.  0.
         25    2    3    3    0    0 -0.15368959091E+01  0.55138084571E+02 -0.56171456330E+03  0.57814212558E+03  0.12522977416E+03 0.  0.
          5    1    4    4  502    0  0.18366164901E+02  0.62632229198E+01 -0.32556294155E+01  0.20229510558E+02  0.47000000000E+01 0. -1.
         -5    1    4    4    0  502 -0.16829268992E+02 -0.61401307491E+02 -0.37841391274E+03  0.38376102487E+03  0.47000000000E+01 0. -1.
          5    1    5    5  503    0 -0.15460536210E+02  0.46610535978E+02 -0.67344524330E+02  0.83480208441E+02  0.47000000000E+01 0.  1.
         -5    1    5    5    0  503  0.13923640301E+02  0.85275485925E+01 -0.49437003897E+03  0.49466191714E+03  0.47000000000E+01 0.  1.
<mgrwt>
<rscale>  0 0.27315013E+03</rscale>
<asrwt>0</asrwt>
<pdfrwt beam="1">  1        2 0.14811664E+00 0.27315013E+03</pdfrwt>
<pdfrwt beam="2">  1       -2 0.29806588E-02 0.27315013E+03</pdfrwt>
<totfact> 0.11810229E+04</totfact>
</mgrwt>
</event>
<event>
 9    1  0.7944303E-001  0.2784994E+03  0.7818608E-02  0.1096511E+00
         -2   -1    0    0    0  501 -0.00000000000E+00  0.00000000000E+00  0.68617121437E+02  0.68617121437E+02  0.00000000000E+00 0.  1.
          2   -1    0    0  501    0  0.00000000000E+00 -0.00000000000E+00 -0.28258955769E+03  0.28258955769E+03  0.00000000000E+00 0.  1.
         35    2    1    2    0    0 -0.71054273576E-14  0.00000000000E+00 -0.21397243625E+03  0.35120667912E+03  0.27849942188E+03 0.  0.
         25    2    3    3    0    0 -0.28922101439E+02  0.12380727684E+02 -0.18273067241E+03  0.22313483291E+03  0.12413252857E+03 0.  0.
         25    2    3    3    0    0  0.28922101439E+02 -0.12380727684E+02 -0.31241763837E+02  0.12807184621E+03  0.12015231839E+03 0.  0.
          5    1    4    4  502    0  0.41641281972E+02  0.26954108529E+02 -0.42848843206E+02  0.65716312244E+02  0.47000000000E+01 0. -1.
         -5    1    4    4    0  502 -0.70563383411E+02 -0.14573380845E+02 -0.13988182921E+03  0.15741852067E+03  0.47000000000E+01 0. -1.
          5    1    5    5  503    0  0.61409157911E+02 -0.24955652395E+02  0.16799967231E+02  0.68543403481E+02  0.47000000000E+01 0. -1.
         -5    1    5    5    0  503 -0.32487056473E+02  0.12574924711E+02 -0.48041731068E+02  0.59528442729E+02  0.47000000000E+01 0. -1.
<mgrwt>
<rscale>  0 0.27849942E+03</rscale>
<asrwt>0</asrwt>
<pdfrwt beam="1">  1        2 0.43475317E-01 0.27849942E+03</pdfrwt>
<pdfrwt beam="2">  1       -2 0.10556480E-01 0.27849942E+03</pdfrwt>
<totfact> 0.70505324E+03</totfact>
</mgrwt>
</event>
<event>
 9    1  0.7944303E-001  0.2795445E+03  0.7818608E-02  0.1095938E+00
         -2   -1    0    0    0  501 -0.00000000000E+00  0.00000000000E+00  0.10284154968E+03  0.10284154968E+03  0.00000000000E+00 0.  1.
          2   -1    0    0  501    0  0.00000000000E+00 -0.00000000000E+00 -0.18996485363E+03  0.18996485363E+03  0.00000000000E+00 0.  1.
         35    2    1    2    0    0  0.00000000000E+00  0.71054273576E-14 -0.87123303946E+02  0.29280640331E+03  0.27954448613E+03 0.  0.
         25    2    3    3    0    0  0.53533114921E+02  0.31692622830E+02 -0.45354659312E+02  0.14699625580E+03  0.12522235169E+03 0.  0.
         25    2    3    3    0    0 -0.53533114921E+02 -0.31692622830E+02 -0.41768644634E+02  0.14581014751E+03  0.12508302326E+03 0.  0.
          5    1    4    4  502    0 -0.31854178136E+02 -0.18654905208E+02 -0.27245754153E+02  0.46120659931E+02  0.47000000000E+01 0.  1.
         -5    1    4    4    0  502  0.85387293058E+02  0.50347528038E+02 -0.18108905159E+02  0.10087559587E+03  0.47000000000E+01 0.  1.
          5    1    5    5  503    0 -0.76623734516E+01 -0.63668211900E+02  0.14961025659E+02  0.66017236100E+02  0.47000000000E+01 0. -1.
         -5    1    5    5    0  503 -0.45870741470E+02  0.31975589071E+02 -0.56729670293E+02  0.79792911408E+02  0.47000000000E+01 0. -1.
<mgrwt>
<rscale>  0 0.27954449E+03</rscale>
<asrwt>0</asrwt>
<pdfrwt beam="1">  1        2 0.29225362E-01 0.27954449E+03</pdfrwt>
<pdfrwt beam="2">  1       -2 0.15821777E-01 0.27954449E+03</pdfrwt>
<totfact> 0.56171349E+03</totfact>
</mgrwt>
</event>
<event>
 9    1  0.7944303E-001  0.2778280E+03  0.7818608E-02  0.1096881E+00
         -2   -1    0    0    0  501 -0.00000000000E+00  0.00000000000E+00  0.82816491500E+02  0.82816491500E+02  0.00000000000E+00 0. -1.
          2   -1    0    0  501    0  0.00000000000E+00 -0.00000000000E+00 -0.23301040198E+03  0.23301040198E+03  0.00000000000E+00 0. -1.
         35    2    1    2    0    0  0.71054273576E-14  0.35527136788E-14 -0.15019391048E+03  0.31582689348E+03  0.27782803296E+03 0.  0.
         25    2    3    3    0    0 -0.17501286581E+02 -0.86356814908E+01 -0.13936973587E+03  0.18963671770E+03  0.12711133465E+03 0.  0.
         25    2    3    3    0    0  0.17501286581E+02  0.86356814908E+01 -0.10824174609E+02  0.12619017578E+03  0.12420115813E+03 0.  0.
          5    1    4    4  502    0  0.50267815216E+02  0.18056222384E+02 -0.75796514908E+02  0.92844397169E+02  0.47000000000E+01 0.  1.
         -5    1    4    4    0  502 -0.67769101797E+02 -0.26691903875E+02 -0.63573220960E+02  0.96792320532E+02  0.47000000000E+01 0.  1.
          5    1    5    5  503    0 -0.12854475637E+01  0.32866495898E+02 -0.59687903832E+02  0.68312479035E+02  0.47000000000E+01 0. -1.
         -5    1    5    5    0  503  0.18786734145E+02 -0.24230814407E+02  0.48863729223E+02  0.57877696742E+02  0.47000000000E+01 0. -1.
<mgrwt>
<rscale>  0 0.27782803E+03</rscale>
<asrwt>0</asrwt>
<pdfrwt beam="1">  1        2 0.35847755E-01 0.27782803E+03</pdfrwt>
<pdfrwt beam="2">  1       -2 0.12740998E-01 0.27782803E+03</pdfrwt>
<totfact> 0.64136016E+03</totfact>
</mgrwt>
</event>
<event>
 9    1  0.7944303E-001  0.2769275E+03  0.7818608E-02  0.1097379E+00
         -1   -1    0    0    0  501 -0.00000000000E+00  0.00000000000E+00  0.12130032311E+02  0.12130032311E+02  0.00000000000E+00 0.  1.
          1   -1    0    0  501    0  0.00000000000E+00 -0.00000000000E+00 -0.15805568921E+04  0.15805568921E+04  0.00000000000E+00 0.  1.
         35    2    1    2    0    0  0.35527136788E-14 -0.71054273576E-14 -0.15684268598E+04  0.15926869244E+04  0.27692747189E+03 0.  0.
         25    2    3    3    0    0  0.86431182508E+01  0.28010059988E+02 -0.48056783733E+03  0.49739985648E+03  0.12490758180E+03 0.  0.
         25    2    3    3    0    0 -0.86431182508E+01 -0.28010059988E+02 -0.10878590224E+04  0.10952870679E+04  0.12392433777E+03 0.  0.
          5    1    4    4  502    0  0.60281493300E+02 -0.46140584778E+01 -0.31674310500E+03  0.32249563181E+03  0.47000000000E+01 0.  1.
         -5    1    4    4    0  502 -0.51638375049E+02  0.32624118465E+02 -0.16382473233E+03  0.17490422467E+03  0.47000000000E+01 0.  1.
          5    1    5    5  503    0  0.46213915400E-01  0.44510392340E+02 -0.63269199016E+03  0.63427314430E+03  0.47000000000E+01 0. -1.
         -5    1    5    5    0  503 -0.86893321662E+01 -0.72520452328E+02 -0.45516703228E+03  0.46101392362E+03  0.47000000000E+01 0. -1.
<mgrwt>
<rscale>  0 0.27692747E+03</rscale>
<asrwt>0</asrwt>
<pdfrwt beam="1">  1        1 0.24316266E+00 0.27692747E+03</pdfrwt>
<pdfrwt beam="2">  1       -1 0.18661584E-02 0.27692747E+03</pdfrwt>
<totfact> 0.48044419E+03</totfact>
</mgrwt>
</event>
<event>
 9    1  0.7944303E-001  0.2767338E+03  0.7818608E-02  0.1097486E+00
         -2   -1    0    0    0  501 -0.00000000000E+00  0.00000000000E+00  0.16529942429E+02  0.16529942429E+02  0.00000000000E+00 0.  1.
          2   -1    0    0  501    0  0.00000000000E+00 -0.00000000000E+00 -0.11582250859E+04  0.11582250859E+04  0.00000000000E+00 0.  1.
         35    2    1    2    0    0  0.71054273576E-14  0.17763568394E-14 -0.11416951435E+04  0.11747550283E+04  0.27673376368E+03 0.  0.
         25    2    3    3    0    0 -0.24151631744E+02  0.98156603706E+01 -0.79533763466E+03  0.80563126981E+03  0.12569861291E+03 0.  0.
         25    2    3    3    0    0  0.24151631744E+02 -0.98156603706E+01 -0.34635750883E+03  0.36912375854E+03  0.12493669072E+03 0.  0.
          5    1    4    4  502    0 -0.65045725034E+02  0.32370715721E+02 -0.61462954279E+03  0.61892679248E+03  0.47000000000E+01 0.  1.
         -5    1    4    4    0  502  0.40894093291E+02 -0.22555055351E+02 -0.18070809187E+03  0.18670447733E+03  0.47000000000E+01 0.  1.
          5    1    5    5  503    0  0.39342006144E+02 -0.24842917545E+02 -0.38735482364E+02  0.60724719790E+02  0.47000000000E+01 0.  1.
         -5    1    5    5    0  503 -0.15190374400E+02  0.15027257174E+02 -0.30762202647E+03  0.30839903875E+03  0.47000000000E+01 0.  1.
<mgrwt>
<rscale>  0 0.27673376E+03</rscale>
<asrwt>0</asrwt>
<pdfrwt beam="1">  1        2 0.17818852E+00 0.27673376E+03</pdfrwt>
<pdfrwt beam="2">  1       -2 0.25430674E-02 0.27673376E+03</pdfrwt>
<totfact> 0.11427763E+04</totfact>
</mgrwt>
</event>
<event>
 9    1  0.7944303E-001  0.2747583E+03  0.7818608E-02  0.1098587E+00
         -2   -1    0    0    0  501 -0.00000000000E+00  0.00000000000E+00  0.20529621078E+02  0.20529621078E+02  0.00000000000E+00 0. -1.
          2   -1    0    0  501    0  0.00000000000E+00 -0.00000000000E+00 -0.91930745820E+03  0.91930745820E+03  0.00000000000E+00 0. -1.
         35    2    1    2    0    0 -0.71054273576E-14  0.71054273576E-14 -0.89877783712E+03  0.93983707928E+03  0.27475832123E+03 0.  0.
         25    2    3    3    0    0  0.18098616767E+02 -0.40255162548E+02 -0.32936222886E+03  0.35521458218E+03  0.12549854004E+03 0.  0.
         25    2    3    3    0    0 -0.18098616767E+02  0.40255162548E+02 -0.56941560826E+03  0.58462249710E+03  0.12490512856E+03 0.  0.
          5    1    4    4  502    0 -0.48385704405E+02 -0.34385773551E+02 -0.21109889043E+03  0.21933624724E+03  0.47000000000E+01 0.  1.
         -5    1    4    4    0  502  0.66484321172E+02 -0.58693889964E+01 -0.11826333843E+03  0.13587833494E+03  0.47000000000E+01 0.  1.
          5    1    5    5  503    0  0.13236382307E+01 -0.42380496750E+02 -0.12312513640E+03  0.13030636107E+03  0.47000000000E+01 0.  1.
         -5    1    5    5    0  503 -0.19422254998E+02  0.82635659298E+02 -0.44629047186E+03  0.45431613602E+03  0.47000000000E+01 0.  1.
<mgrwt>
<rscale>  0 0.27475832E+03</rscale>
<asrwt>0</asrwt>
<pdfrwt beam="1">  1        2 0.14143191E+00 0.27475832E+03</pdfrwt>
<pdfrwt beam="2">  1       -2 0.31584034E-02 0.27475832E+03</pdfrwt>
<totfact> 0.11542482E+04</totfact>
</mgrwt>
</event>
<event>
 9    1  0.7944303E-001  0.2716578E+03  0.7818608E-02  0.1100335E+00
          2   -1    0    0  501    0  0.00000000000E+00  0.00000000000E+00  0.27603772362E+04  0.27603772362E+04  0.00000000000E+00 0.  1.
         -2   -1    0    0    0  501 -0.00000000000E+00 -0.00000000000E+00 -0.66836867381E+01  0.66836867381E+01  0.00000000000E+00 0.  1.
         35    2    1    2    0    0  0.71054273576E-14  0.35527136788E-14  0.27536935495E+04  0.27670609230E+04  0.27165784896E+03 0.  0.
         25    2    3    3    0    0  0.42278407457E+02 -0.14969547987E+02  0.11008815404E+04  0.11088463207E+04  0.12485369772E+03 0.  0.
         25    2    3    3    0    0 -0.42278407457E+02  0.14969547987E+02  0.16528120091E+04  0.16582146023E+04  0.12600229628E+03 0.  0.
          5    1    4    4  502    0 -0.75349789350E+00  0.93835539428E+01  0.46724868545E+01  0.11512644226E+02  0.47000000000E+01 0. -1.
         -5    1    4    4    0  502  0.43031905350E+02 -0.24353101930E+02  0.10962090535E+04  0.10973336764E+04  0.47000000000E+01 0. -1.
          5    1    5    5  503    0  0.14139281535E+02 -0.38086086211E+02  0.25570639201E+03  0.25895620896E+03  0.47000000000E+01 0.  1.
         -5    1    5    5    0  503 -0.56417688992E+02  0.53055634199E+02  0.13971056171E+04  0.13992583934E+04  0.47000000000E+01 0.  1.
<mgrwt>
<rscale>  0 0.27165785E+03</rscale>
<asrwt>0</asrwt>
<pdfrwt beam="1">  1        2 0.42467251E+00 0.27165785E+03</pdfrwt>
<pdfrwt beam="2">  1       -2 0.10282617E-02 0.27165785E+03</pdfrwt>
<totfact> 0.58770669E+03</totfact>
</mgrwt>
</event>
<event>
 9    1  0.7944303E-001  0.2855603E+03  0.7818608E-02  0.1092690E+00
         -2   -1    0    0    0  501 -0.00000000000E+00  0.00000000000E+00  0.61350440758E+03  0.61350440758E+03  0.00000000000E+00 0.  1.
          2   -1    0    0  501    0  0.00000000000E+00 -0.00000000000E+00 -0.33229062464E+02  0.33229062464E+02  0.00000000000E+00 0.  1.
         35    2    1    2    0    0  0.00000000000E+00 -0.35527136788E-14  0.58027534512E+03  0.64673347005E+03  0.28556033535E+03 0.  0.
         25    2    3    3    0    0  0.19797261943E+02 -0.80659816967E+01  0.43731998637E+03  0.45541516919E+03  0.12528852388E+03 0.  0.
         25    2    3    3    0    0 -0.19797261943E+02  0.80659816967E+01  0.14295535875E+03  0.19131830085E+03  0.12533740864E+03 0.  0.
          5    1    4    4  502    0  0.15372950582E+02  0.48091994028E+02  0.33231581258E+03  0.33616224771E+03  0.47000000000E+01 0. -1.
         -5    1    4    4    0  502  0.44243113613E+01 -0.56157975725E+02  0.10500417379E+03  0.11925292148E+03  0.47000000000E+01 0. -1.
          5    1    5    5  503    0 -0.71807214271E+02  0.30758108492E+01  0.63010734235E+02  0.95698376489E+02  0.47000000000E+01 0.  1.
         -5    1    5    5    0  503  0.52009952328E+02  0.49901708475E+01  0.79944624519E+02  0.95619924366E+02  0.47000000000E+01 0.  1.
<mgrwt>
<rscale>  0 0.28556034E+03</rscale>
<asrwt>0</asrwt>
<pdfrwt beam="1">  1        2 0.51121639E-02 0.28556034E+03</pdfrwt>
<pdfrwt beam="2">  1       -2 0.94385285E-01 0.28556034E+03</pdfrwt>
<totfact> 0.14971419E+03</totfact>
</mgrwt>
</event>
<event>
 9    1  0.7944303E-001  0.2741761E+03  0.7818608E-02  0.1098913E+00
         -1   -1    0    0    0  501 -0.00000000000E+00  0.00000000000E+00  0.73157904245E+01  0.73157904245E+01  0.00000000000E+00 0. -1.
          1   -1    0    0  501    0  0.00000000000E+00 -0.00000000000E+00 -0.25688448000E+04  0.25688448000E+04  0.00000000000E+00 0. -1.
         35    2    1    2    0    0  0.14210854715E-13  0.00000000000E+00 -0.25615290096E+04  0.25761605904E+04  0.27417607620E+03 0.  0.
         25    2    3    3    0    0  0.35743495498E+02  0.31085191946E+02 -0.15603540185E+04  0.15660665346E+04  0.12496335848E+03 0.  0.
         25    2    3    3    0    0 -0.35743495498E+02 -0.31085191946E+02 -0.10011749911E+04  0.10100940559E+04  0.12527869862E+03 0.  0.
          5    1    4    4  502    0  0.75534498001E+02 -0.47711441583E+01 -0.10935479283E+04  0.10961739760E+04  0.47000000000E+01 0. -1.
         -5    1    4    4    0  502 -0.39791002503E+02  0.35856336104E+02 -0.46680609021E+03  0.46989255854E+03  0.47000000000E+01 0. -1.
          5    1    5    5  503    0  0.45980313856E+02 -0.21398490813E+00 -0.31857921449E+03  0.32191464856E+03  0.47000000000E+01 0. -1.
         -5    1    5    5    0  503 -0.81723809354E+02 -0.30871207038E+02 -0.68259577658E+03  0.68817940731E+03  0.47000000000E+01 0. -1.
<mgrwt>
<rscale>  0 0.27417608E+03</rscale>
<asrwt>0</asrwt>
<pdfrwt beam="1">  1        1 0.39520693E+00 0.27417608E+03</pdfrwt>
<pdfrwt beam="2">  1       -1 0.11255061E-02 0.27417608E+03</pdfrwt>
<totfact> 0.22608951E+03</totfact>
</mgrwt>
</event>
<event>
 9    1  0.7944303E-001  0.2769129E+03  0.7818608E-02  0.1097387E+00
         -2   -1    0    0    0  501 -0.00000000000E+00  0.00000000000E+00  0.89218955736E+02  0.89218955736E+02  0.00000000000E+00 0.  1.
          2   -1    0    0  501    0  0.00000000000E+00 -0.00000000000E+00 -0.21486682064E+03  0.21486682064E+03  0.00000000000E+00 0.  1.
         35    2    1    2    0    0  0.00000000000E+00  0.00000000000E+00 -0.12564786490E+03  0.30408577637E+03  0.27691293476E+03 0.  0.
         25    2    3    3    0    0 -0.26808940260E+02  0.46747003692E+02 -0.87508469761E+02  0.16189312133E+03  0.12509056248E+03 0.  0.
         25    2    3    3    0    0  0.26808940260E+02 -0.46747003692E+02 -0.38139395140E+02  0.14219265504E+03  0.12593703210E+03 0.  0.
          5    1    4    4  502    0 -0.28711838751E+02 -0.39759565694E+02 -0.36774314938E+02  0.61478719796E+02  0.47000000000E+01 0.  1.
         -5    1    4    4    0  502  0.19028984915E+01  0.86506569386E+02 -0.50734154823E+02  0.10041440153E+03  0.47000000000E+01 0.  1.
          5    1    5    5  503    0  0.66193217107E+02  0.85624136277E+01 -0.67746700388E+01  0.67252086007E+02  0.47000000000E+01 0. -1.
         -5    1    5    5    0  503 -0.39384276847E+02 -0.55309417320E+02 -0.31364725101E+02  0.74940569038E+02  0.47000000000E+01 0. -1.
<mgrwt>
<rscale>  0 0.27691293E+03</rscale>
<asrwt>0</asrwt>
<pdfrwt beam="1">  1        2 0.33056434E-01 0.27691293E+03</pdfrwt>
<pdfrwt beam="2">  1       -2 0.13725993E-01 0.27691293E+03</pdfrwt>
<totfact> 0.62027693E+03</totfact>
</mgrwt>
</event>
<event>
 9    1  0.7944303E-001  0.2693962E+03  0.7818608E-02  0.1101626E+00
          2   -1    0    0  501    0  0.00000000000E+00  0.00000000000E+00  0.37368140910E+02  0.37368140910E+02  0.00000000000E+00 0.  1.
         -2   -1    0    0    0  501 -0.00000000000E+00 -0.00000000000E+00 -0.48553595111E+03  0.48553595111E+03  0.00000000000E+00 0.  1.
         35    2    1    2    0    0  0.35527136788E-14  0.35527136788E-14 -0.44816781020E+03  0.52290409202E+03  0.26939618288E+03 0.  0.
         25    2    3    3    0    0 -0.94691404873E+01  0.21528380826E+02 -0.29940779157E+03  0.32726569162E+03  0.13001796591E+03 0.  0.
         25    2    3    3    0    0  0.94691404873E+01 -0.21528380826E+02 -0.14876001863E+03  0.19563840039E+03  0.12486674803E+03 0.  0.
          5    1    4    4  502    0 -0.38749770005E+02  0.42162622210E+02 -0.52823894723E+02  0.78049248816E+02  0.47000000000E+01 0. -1.
         -5    1    4    4    0  502  0.29280629518E+02 -0.20634241384E+02 -0.24658389684E+03  0.24921644281E+03  0.47000000000E+01 0. -1.
          5    1    5    5  503    0  0.13675697441E+02 -0.33291308314E+02 -0.16819205979E+03  0.17206392674E+03  0.47000000000E+01 0. -1.
         -5    1    5    5    0  503 -0.42065569541E+01  0.11762927488E+02  0.19432041157E+02  0.23574473653E+02  0.47000000000E+01 0. -1.
<mgrwt>
<rscale>  0 0.26939618E+03</rscale>
<asrwt>0</asrwt>
<pdfrwt beam="1">  1        2 0.57489448E-02 0.26939618E+03</pdfrwt>
<pdfrwt beam="2">  1       -2 0.74697839E-01 0.26939618E+03</pdfrwt>
<totfact> 0.21582838E+03</totfact>
</mgrwt>
</event>
<event>
 9    1  0.7944303E-001  0.2763858E+03  0.7818608E-02  0.1097679E+00
         -2   -1    0    0    0  501 -0.00000000000E+00  0.00000000000E+00  0.36260754805E+02  0.36260754805E+02  0.00000000000E+00 0.  1.
          2   -1    0    0  501    0  0.00000000000E+00 -0.00000000000E+00 -0.52666512379E+03  0.52666512379E+03  0.00000000000E+00 0.  1.
         35    2    1    2    0    0  0.71054273576E-14  0.35527136788E-14 -0.49040436898E+03  0.56292587859E+03  0.27638578052E+03 0.  0.
         25    2    3    3    0    0 -0.52544228945E+02 -0.16971286477E+02 -0.28399565883E+03  0.31505913208E+03  0.12473893504E+03 0.  0.
         25    2    3    3    0    0  0.52544228945E+02  0.16971286477E+02 -0.20640871016E+03  0.24786674651E+03  0.12563617249E+03 0.  0.
          5    1    4    4  502    0 -0.50796938299E+02 -0.68547882156E+00 -0.27423669544E+02  0.57921899770E+02  0.47000000000E+01 0.  1.
         -5    1    4    4    0  502 -0.17472906467E+01 -0.16285807655E+02 -0.25657198928E+03  0.25713723231E+03  0.47000000000E+01 0.  1.
          5    1    5    5  503    0  0.69579110431E+02  0.48178860374E+02 -0.80304493904E+02  0.11676196700E+03  0.47000000000E+01 0. -1.
         -5    1    5    5    0  503 -0.17034881486E+02 -0.31207573898E+02 -0.12610421625E+03  0.13110477952E+03  0.47000000000E+01 0. -1.
<mgrwt>
<rscale>  0 0.27638578E+03</rscale>
<asrwt>0</asrwt>
<pdfrwt beam="1">  1        2 0.81025402E-01 0.27638578E+03</pdfrwt>
<pdfrwt beam="2">  1       -2 0.55785778E-02 0.27638578E+03</pdfrwt>
<totfact> 0.96646087E+03</totfact>
</mgrwt>
</event>
<event>
 9    1  0.7944303E-001  0.2704910E+03  0.7818608E-02  0.1100999E+00
          1   -1    0    0  501    0  0.00000000000E+00  0.00000000000E+00  0.10980364679E+04  0.10980364679E+04  0.00000000000E+00 0. -1.
         -1   -1    0    0    0  501 -0.00000000000E+00 -0.00000000000E+00 -0.16658226094E+02  0.16658226094E+02  0.00000000000E+00 0. -1.
         35    2    1    2    0    0  0.00000000000E+00 -0.35527136788E-14  0.10813782418E+04  0.11146946940E+04  0.27049095911E+03 0.  0.
         25    2    3    3    0    0  0.35852400418E+02  0.74007193006E+01  0.38228192049E+03  0.40358321259E+03  0.12409583996E+03 0.  0.
         25    2    3    3    0    0 -0.35852400418E+02 -0.74007193006E+01  0.69909632128E+03  0.71111148136E+03  0.12491479989E+03 0.  0.
          5    1    4    4  502    0  0.47835149381E+02  0.56768278028E+02  0.27345442776E+03  0.28339063669E+03  0.47000000000E+01 0.  1.
         -5    1    4    4    0  502 -0.11982748963E+02 -0.49367558727E+02  0.10882749273E+03  0.12019257590E+03  0.47000000000E+01 0.  1.
          5    1    5    5  503    0  0.16709623621E+02 -0.31893018073E+02  0.65845084064E+02  0.75193358874E+02  0.47000000000E+01 0. -1.
         -5    1    5    5    0  503 -0.52562024039E+02  0.24492298772E+02  0.63325123722E+03  0.63591812248E+03  0.47000000000E+01 0. -1.
<mgrwt>
<rscale>  0 0.27049096E+03</rscale>
<asrwt>0</asrwt>
<pdfrwt beam="1">  1        1 0.16892863E+00 0.27049096E+03</pdfrwt>
<pdfrwt beam="2">  1       -1 0.25628049E-02 0.27049096E+03</pdfrwt>
<totfact> 0.64391059E+03</totfact>
</mgrwt>
</event>
<event>
 9    1  0.7944303E-001  0.2763891E+03  0.7818608E-02  0.1097678E+00
          1   -1    0    0  501    0  0.00000000000E+00  0.00000000000E+00  0.11162815289E+04  0.11162815289E+04  0.00000000000E+00 0.  1.
         -1   -1    0    0    0  501 -0.00000000000E+00 -0.00000000000E+00 -0.17108344952E+02  0.17108344952E+02  0.00000000000E+00 0.  1.
         35    2    1    2    0    0  0.17763568394E-14  0.00000000000E+00  0.10991731840E+04  0.11333898739E+04  0.27638906969E+03 0.  0.
         25    2    3    3    0    0  0.13854940970E+02  0.51586867202E+02  0.66890885196E+03  0.68228868457E+03  0.12339219020E+03 0.  0.
         25    2    3    3    0    0 -0.13854940970E+02 -0.51586867202E+02  0.43026433200E+03  0.45110118930E+03  0.12454606913E+03 0.  0.
          5    1    4    4  502    0 -0.38797408767E+01 -0.36002803440E+02  0.10155049145E+03  0.10791592356E+03  0.47000000000E+01 0.  1.
         -5    1    4    4    0  502  0.17734681847E+02  0.87589670642E+02  0.56735836051E+03  0.57437276100E+03  0.47000000000E+01 0.  1.
          5    1    5    5  503    0 -0.16388752246E+02 -0.73443251407E+02  0.41938747106E+03  0.42611083448E+03  0.47000000000E+01 0.  1.
         -5    1    5    5    0  503  0.25338112752E+01  0.21856384205E+02  0.10876860943E+02  0.24990354821E+02  0.47000000000E+01 0.  1.
<mgrwt>
<rscale>  0 0.27638907E+03</rscale>
<asrwt>0</asrwt>
<pdfrwt beam="1">  1        1 0.17173556E+00 0.27638907E+03</pdfrwt>
<pdfrwt beam="2">  1       -1 0.26320539E-02 0.27638907E+03</pdfrwt>
<totfact> 0.60098208E+03</totfact>
</mgrwt>
</event>
<event>
 9    1  0.7944303E-001  0.2626996E+03  0.7818608E-02  0.1105532E+00
         -2   -1    0    0    0  501 -0.00000000000E+00  0.00000000000E+00  0.15184588097E+03  0.15184588097E+03  0.00000000000E+00 0. -1.
          2   -1    0    0  501    0  0.00000000000E+00 -0.00000000000E+00 -0.11362022748E+03  0.11362022748E+03  0.00000000000E+00 0. -1.
         35    2    1    2    0    0  0.71054273576E-14  0.22204460493E-14  0.38225653491E+02  0.26546610845E+03  0.26269955111E+03 0.  0.
         25    2    3    3    0    0  0.35314135592E+02  0.32433447523E+00  0.27786527321E+01  0.12982763178E+03  0.12490115971E+03 0.  0.
         25    2    3    3    0    0 -0.35314135592E+02 -0.32433447523E+00  0.35447000759E+02  0.13563847667E+03  0.12607185699E+03 0.  0.
          5    1    4    4  502    0  0.82227468212E+02  0.36289208107E+01 -0.59243784430E+00  0.82443717634E+02  0.47000000000E+01 0.  1.
         -5    1    4    4    0  502 -0.46913332620E+02 -0.33045863355E+01  0.33710905764E+01  0.47383914148E+02  0.47000000000E+01 0.  1.
          5    1    5    5  503    0 -0.55886620101E+01 -0.58113127003E+02  0.39032144065E+02  0.70384422590E+02  0.47000000000E+01 0.  1.
         -5    1    5    5    0  503 -0.29725473582E+02  0.57788792527E+02 -0.35851433059E+01  0.65254054081E+02  0.47000000000E+01 0.  1.
<mgrwt>
<rscale>  0 0.26269955E+03</rscale>
<asrwt>0</asrwt>
<pdfrwt beam="1">  1        2 0.17480035E-01 0.26269955E+03</pdfrwt>
<pdfrwt beam="2">  1       -2 0.23360905E-01 0.26269955E+03</pdfrwt>
<totfact> 0.51606790E+03</totfact>
</mgrwt>
</event>
<event>
 9    1  0.7944303E-001  0.2751671E+03  0.7818608E-02  0.1098358E+00
         -2   -1    0    0    0  501 -0.00000000000E+00  0.00000000000E+00  0.50497005899E+02  0.50497005899E+02  0.00000000000E+00 0.  1.
          2   -1    0    0  501    0  0.00000000000E+00 -0.00000000000E+00 -0.37485865152E+03  0.37485865152E+03  0.00000000000E+00 0.  1.
         35    2    1    2    0    0 -0.88817841970E-15  0.00000000000E+00 -0.32436164562E+03  0.42535565742E+03  0.27516714584E+03 0.  0.
         25    2    3    3    0    0  0.23283172642E+01 -0.54702691213E+02 -0.16022061643E+03  0.21165757096E+03  0.12700581062E+03 0.  0.
         25    2    3    3    0    0 -0.23283172642E+01  0.54702691213E+02 -0.16414102920E+03  0.21369808646E+03  0.12540649586E+03 0.  0.
          5    1    4    4  502    0  0.21310109242E+01 -0.70294473438E+01 -0.16341397372E+03  0.16364648223E+03  0.47000000000E+01 0. -1.
         -5    1    4    4    0  502  0.19730634003E+00 -0.47673243869E+02  0.31933572971E+01  0.48011088736E+02  0.47000000000E+01 0. -1.
          5    1    5    5  503    0  0.11650231954E+02  0.65970759099E+02 -0.17818733926E+03  0.19042239058E+03  0.47000000000E+01 0.  1.
         -5    1    5    5    0  503 -0.13978549218E+02 -0.11268067886E+02  0.14046310066E+02  0.23275695878E+02  0.47000000000E+01 0.  1.
<mgrwt>
<rscale>  0 0.27516715E+03</rscale>
<asrwt>0</asrwt>
<pdfrwt beam="1">  1        2 0.57670560E-01 0.27516715E+03</pdfrwt>
<pdfrwt beam="2">  1       -2 0.77687704E-02 0.27516715E+03</pdfrwt>
<totfact> 0.84298597E+03</totfact>
</mgrwt>
</event>
<event>
 9    1  0.7944303E-001  0.2745395E+03  0.7818608E-02  0.1098709E+00
          1   -1    0    0  501    0  0.00000000000E+00  0.00000000000E+00  0.18369233583E+03  0.18369233583E+03  0.00000000000E+00 0.  1.
         -1   -1    0    0    0  501 -0.00000000000E+00 -0.00000000000E+00 -0.10257905736E+03  0.10257905736E+03  0.00000000000E+00 0.  1.
         35    2    1    2    0    0  0.00000000000E+00  0.00000000000E+00  0.81113278469E+02  0.28627139320E+03  0.27453951741E+03 0.  0.
         25    2    3    3    0    0  0.67906128143E+02  0.12571344612E+02  0.45133705464E+02  0.13949868520E+03  0.11248800317E+03 0.  0.
         25    2    3    3    0    0 -0.67906128143E+02 -0.12571344612E+02  0.35979573005E+02  0.14677270800E+03  0.12441228716E+03 0.  0.
          5    1    4    4  502    0  0.32737972096E+02  0.62092738901E+02  0.31445760508E+02  0.77059774818E+02  0.47000000000E+01 0. -1.
         -5    1    4    4    0  502  0.35168156047E+02 -0.49521394289E+02  0.13687944956E+02  0.62438910378E+02  0.47000000000E+01 0. -1.
          5    1    5    5  503    0 -0.81749268518E+02  0.35857283210E+02  0.35502985322E+02  0.96183364618E+02  0.47000000000E+01 0.  1.
         -5    1    5    5    0  503  0.13843140375E+02 -0.48428627822E+02  0.47658768295E+00  0.50589343384E+02  0.47000000000E+01 0.  1.
<mgrwt>
<rscale>  0 0.27453952E+03</rscale>
<asrwt>0</asrwt>
<pdfrwt beam="1">  1        1 0.28260359E-01 0.27453952E+03</pdfrwt>
<pdfrwt beam="2">  1       -1 0.15781394E-01 0.27453952E+03</pdfrwt>
<totfact> 0.48099694E+03</totfact>
</mgrwt>
</event>
<event>
 9    1  0.7944303E-001  0.2806114E+03  0.7818608E-02  0.1095355E+00
         -1   -1    0    0    0  501 -0.00000000000E+00  0.00000000000E+00  0.71898702128E+02  0.71898702128E+02  0.00000000000E+00 0.  1.
          1   -1    0    0  501    0  0.00000000000E+00 -0.00000000000E+00 -0.27379761499E+03  0.27379761499E+03  0.00000000000E+00 0.  1.
         35    2    1    2    0    0  0.00000000000E+00 -0.71054273576E-14 -0.20189891286E+03  0.34569631712E+03  0.28061142645E+03 0.  0.
         25    2    3    3    0    0 -0.19187500247E+02 -0.59452156751E+02 -0.10704148554E+03  0.17586707179E+03  0.12477430908E+03 0.  0.
         25    2    3    3    0    0  0.19187500247E+02  0.59452156751E+02 -0.94857427318E+02  0.16982924533E+03  0.12625894797E+03 0.  0.
          5    1    4    4  502    0 -0.36923939798E+02  0.30242280486E+02 -0.35106137317E+02  0.59434869702E+02  0.47000000000E+01 0.  1.
         -5    1    4    4    0  502  0.17736439551E+02 -0.89694437237E+02 -0.71935348228E+02  0.11643220209E+03  0.47000000000E+01 0.  1.
          5    1    5    5  503    0  0.17241570735E+02 -0.18872908847E+02 -0.87171406358E+02  0.90963742976E+02  0.47000000000E+01 0.  1.
         -5    1    5    5    0  503  0.19459295120E+01  0.78325065598E+02 -0.76860209594E+01  0.78865502349E+02  0.47000000000E+01 0.  1.
<mgrwt>
<rscale>  0 0.28061143E+03</rscale>
<asrwt>0</asrwt>
<pdfrwt beam="1">  1        1 0.42122710E-01 0.28061143E+03</pdfrwt>
<pdfrwt beam="2">  1       -1 0.11061339E-01 0.28061143E+03</pdfrwt>
<totfact> 0.50947055E+03</totfact>
</mgrwt>
</event>
<event>
 9    1  0.7944303E-001  0.2732013E+03  0.7818608E-02  0.1099461E+00
         -2   -1    0    0    0  501 -0.00000000000E+00  0.00000000000E+00  0.15426576023E+02  0.15426576023E+02  0.00000000000E+00 0.  1.
          2   -1    0    0  501    0  0.00000000000E+00 -0.00000000000E+00 -0.12095837539E+04  0.12095837539E+04  0.00000000000E+00 0.  1.
         35    2    1    2    0    0  0.00000000000E+00  0.00000000000E+00 -0.11941571779E+04  0.12250103299E+04  0.27320128650E+03 0.  0.
         25    2    3    3    0    0 -0.51845837423E+02  0.38748741004E+01 -0.67625015933E+03  0.68971213089E+03  0.12524192588E+03 0.  0.
         25    2    3    3    0    0  0.51845837423E+02 -0.38748741004E+01 -0.51790701852E+03  0.53529819901E+03  0.12495389757E+03 0.  0.
          5    1    4    4  502    0  0.14269695687E+02  0.51463130777E+02 -0.24276172528E+03  0.24861098791E+03  0.47000000000E+01 0.  1.
         -5    1    4    4    0  502 -0.66115533110E+02 -0.47588256677E+02 -0.43348843404E+03  0.44110114298E+03  0.47000000000E+01 0.  1.
          5    1    5    5  503    0 -0.22202463430E+02  0.10822234923E+02 -0.21266042056E+02  0.32930300573E+02  0.47000000000E+01 0.  1.
         -5    1    5    5    0  503  0.74048300853E+02 -0.14697109023E+02 -0.49664097647E+03  0.50236789844E+03  0.47000000000E+01 0.  1.
<mgrwt>
<rscale>  0 0.27320129E+03</rscale>
<asrwt>0</asrwt>
<pdfrwt beam="1">  1        2 0.18608981E+00 0.27320129E+03</pdfrwt>
<pdfrwt beam="2">  1       -2 0.23733194E-02 0.27320129E+03</pdfrwt>
<totfact> 0.11826476E+04</totfact>
</mgrwt>
</event>
<event>
 9    1  0.7944303E-001  0.2764692E+03  0.7818608E-02  0.1097633E+00
          4   -1    0    0  501    0  0.00000000000E+00  0.00000000000E+00  0.26617520093E+03  0.26617520093E+03  0.00000000000E+00 0.  1.
         -4   -1    0    0    0  501 -0.00000000000E+00 -0.00000000000E+00 -0.71790311011E+02  0.71790311011E+02  0.00000000000E+00 0.  1.
         35    2    1    2    0    0  0.00000000000E+00  0.00000000000E+00  0.19438488992E+03  0.33796551194E+03  0.27646916977E+03 0.  0.
         25    2    3    3    0    0 -0.46162054620E+02  0.20460522765E+02  0.55127393947E+02  0.14323416778E+03  0.12217785797E+03 0.  0.
         25    2    3    3    0    0  0.46162054620E+02 -0.20460522765E+02  0.13925749597E+03  0.19473134416E+03  0.12640442214E+03 0.  0.
          5    1    4    4  502    0 -0.71526817862E+02 -0.27407992565E+02  0.23179114538E+02  0.80166358784E+02  0.47000000000E+01 0. -1.
         -5    1    4    4    0  502  0.25364763242E+02  0.47868515330E+02  0.31948279409E+02  0.63067808995E+02  0.47000000000E+01 0. -1.
          5    1    5    5  503    0  0.27663434241E+02 -0.10297538483E+02 -0.18728422181E+02  0.35272491976E+02  0.47000000000E+01 0.  1.
         -5    1    5    5    0  503  0.18498620378E+02 -0.10162984282E+02  0.15798591816E+03  0.15945885219E+03  0.47000000000E+01 0.  1.
<mgrwt>
<rscale>  0 0.27646917E+03</rscale>
<asrwt>0</asrwt>
<pdfrwt beam="1">  1        4 0.40950030E-01 0.27646917E+03</pdfrwt>
<pdfrwt beam="2">  1       -4 0.11044663E-01 0.27646917E+03</pdfrwt>
<totfact> 0.69785817E+02</totfact>
</mgrwt>
</event>
<event>
 9    1  0.7944303E-001  0.3079703E+03  0.7818608E-02  0.1081323E+00
         -1   -1    0    0    0  501 -0.00000000000E+00  0.00000000000E+00  0.24482571280E+02  0.24482571280E+02  0.00000000000E+00 0.  1.
          1   -1    0    0  501    0  0.00000000000E+00 -0.00000000000E+00 -0.96850245409E+03  0.96850245409E+03  0.00000000000E+00 0.  1.
         35    2    1    2    0    0 -0.71054273576E-14  0.00000000000E+00 -0.94401988281E+03  0.99298502537E+03  0.30797032563E+03 0.  0.
         25    2    3    3    0    0  0.16554347433E+02 -0.89276748505E+02 -0.47969613923E+03  0.50374978286E+03  0.12414134485E+03 0.  0.
         25    2    3    3    0    0 -0.16554347433E+02  0.89276748505E+02 -0.46432374358E+03  0.48923524251E+03  0.12453995108E+03 0.  0.
          5    1    4    4  502    0 -0.34170767622E+02 -0.10248029991E+02 -0.28796833388E+03  0.29020770974E+03  0.47000000000E+01 0.  1.
         -5    1    4    4    0  502  0.50725115055E+02 -0.79028718515E+02 -0.19172780535E+03  0.21354207312E+03  0.47000000000E+01 0.  1.
          5    1    5    5  503    0  0.23298886403E+02 -0.22343463942E+02 -0.65935052062E+02  0.73563507114E+02  0.47000000000E+01 0.  1.
         -5    1    5    5    0  503 -0.39853233836E+02  0.11162021245E+03 -0.39838869152E+03  0.41567173540E+03  0.47000000000E+01 0.  1.
<mgrwt>
<rscale>  0 0.30797033E+03</rscale>
<asrwt>0</asrwt>
<pdfrwt beam="1">  1        1 0.14900035E+00 0.30797033E+03</pdfrwt>
<pdfrwt beam="2">  1       -1 0.37665501E-02 0.30797033E+03</pdfrwt>
<totfact> 0.45531461E+03</totfact>
</mgrwt>
</event>
<event>
 9    1  0.7944303E-001  0.2727735E+03  0.7818608E-02  0.1099703E+00
         -2   -1    0    0    0  501 -0.00000000000E+00  0.00000000000E+00  0.37991063870E+02  0.37991063870E+02  0.00000000000E+00 0.  1.
          2   -1    0    0  501    0  0.00000000000E+00 -0.00000000000E+00 -0.48962426338E+03  0.48962426338E+03  0.00000000000E+00 0.  1.
         35    2    1    2    0    0  0.00000000000E+00  0.71054273576E-14 -0.45163319951E+03  0.52761532725E+03  0.27277350797E+03 0.  0.
         25    2    3    3    0    0  0.54865028296E+02 -0.10161053983E+02 -0.21794566556E+03  0.25689509846E+03  0.12402161154E+03 0.  0.
         25    2    3    3    0    0 -0.54865028296E+02  0.10161053983E+02 -0.23368753395E+03  0.27072022879E+03  0.12476441962E+03 0.  0.
          5    1    4    4  502    0  0.20871787380E+02  0.43818610600E+01 -0.21853102123E+03  0.21961951064E+03  0.47000000000E+01 0.  1.
         -5    1    4    4    0  502  0.33993240915E+02 -0.14542915043E+02  0.58535567213E+00  0.37275587817E+02  0.47000000000E+01 0.  1.
          5    1    5    5  503    0 -0.33188266332E+02 -0.56315287244E+02 -0.12979222700E+03  0.14539939748E+03  0.47000000000E+01 0.  1.
         -5    1    5    5    0  503 -0.21676761964E+02  0.66476341227E+02 -0.10389530696E+03  0.12532083131E+03  0.47000000000E+01 0.  1.
<mgrwt>
<rscale>  0 0.27277351E+03</rscale>
<asrwt>0</asrwt>
<pdfrwt beam="1">  1        2 0.75326809E-01 0.27277351E+03</pdfrwt>
<pdfrwt beam="2">  1       -2 0.58447791E-02 0.27277351E+03</pdfrwt>
<totfact> 0.97616310E+03</totfact>
</mgrwt>
</event>
<event>
 9    1  0.7944303E-001  0.2749333E+03  0.7818608E-02  0.1098489E+00
         -2   -1    0    0    0  501 -0.00000000000E+00  0.00000000000E+00  0.65249392662E+02  0.65249392662E+02  0.00000000000E+00 0. -1.
          2   -1    0    0  501    0  0.00000000000E+00 -0.00000000000E+00 -0.28961321468E+03  0.28961321468E+03  0.00000000000E+00 0. -1.
         35    2    1    2    0    0  0.00000000000E+00 -0.35527136788E-14 -0.22436382201E+03  0.35486260734E+03  0.27493334730E+03 0.  0.
         25    2    3    3    0    0  0.57928877131E+02 -0.13621997794E+02 -0.10601524943E+03  0.17296552314E+03  0.12303058747E+03 0.  0.
         25    2    3    3    0    0 -0.57928877131E+02  0.13621997794E+02 -0.11834857258E+03  0.18189708420E+03  0.12465492761E+03 0.  0.
          5    1    4    4  502    0  0.58292350530E+02 -0.39540091766E+01  0.73652597346E+01  0.59075962708E+02  0.47000000000E+01 0.  1.
         -5    1    4    4    0  502 -0.36347339889E+00 -0.96679886178E+01 -0.11338050917E+03  0.11388956043E+03  0.47000000000E+01 0.  1.
          5    1    5    5  503    0  0.20753973232E+02 -0.36203353871E+02 -0.20500194023E+02  0.46730698598E+02  0.47000000000E+01 0.  1.
         -5    1    5    5    0  503 -0.78682850363E+02  0.49825351666E+02 -0.97848378559E+02  0.13516638560E+03  0.47000000000E+01 0.  1.
<mgrwt>
<rscale>  0 0.27493335E+03</rscale>
<asrwt>0</asrwt>
<pdfrwt beam="1">  1        2 0.44555879E-01 0.27493335E+03</pdfrwt>
<pdfrwt beam="2">  1       -2 0.10038368E-01 0.27493335E+03</pdfrwt>
<totfact> 0.74364822E+03</totfact>
</mgrwt>
</event>
<event>
 9    1  0.7944303E-001  0.2758468E+03  0.7818608E-02  0.1097979E+00
          2   -1    0    0  501    0  0.00000000000E+00  0.00000000000E+00  0.18998018205E+04  0.18998018205E+04  0.00000000000E+00 0.  1.
         -2   -1    0    0    0  501 -0.00000000000E+00 -0.00000000000E+00 -0.10013079691E+02  0.10013079691E+02  0.00000000000E+00 0.  1.
         35    2    1    2    0    0  0.00000000000E+00 -0.35527136788E-14  0.18897887408E+04  0.19098149002E+04  0.27584681999E+03 0.  0.
         25    2    3    3    0    0  0.25554988801E+02  0.95240596150E+01  0.12801427206E+04  0.12868400775E+04  0.12825067206E+03 0.  0.
         25    2    3    3    0    0 -0.25554988801E+02 -0.95240596150E+01  0.60964602027E+03  0.62297482272E+03  0.12524214363E+03 0.  0.
          5    1    4    4  502    0 -0.38433030272E+02 -0.35403781947E+02  0.46967214097E+03  0.47259341467E+03  0.47000000000E+01 0. -1.
         -5    1    4    4    0  502  0.63988019073E+02  0.44927841562E+02  0.81047057958E+03  0.81424666281E+03  0.47000000000E+01 0. -1.
          5    1    5    5  503    0 -0.68175016897E+02  0.21878102047E+02  0.41717210089E+03  0.42329792823E+03  0.47000000000E+01 0. -1.
         -5    1    5    5    0  503  0.42620028096E+02 -0.31402161662E+02  0.19247391938E+03  0.19967689449E+03  0.47000000000E+01 0. -1.
<mgrwt>
<rscale>  0 0.27584682E+03</rscale>
<asrwt>0</asrwt>
<pdfrwt beam="1">  1        2 0.29227692E+00 0.27584682E+03</pdfrwt>
<pdfrwt beam="2">  1       -2 0.15404753E-02 0.27584682E+03</pdfrwt>
<totfact> 0.95176644E+03</totfact>
</mgrwt>
</event>
<event>
 9    1  0.7944303E-001  0.2760321E+03  0.7818608E-02  0.1097876E+00
          2   -1    0    0  501    0  0.00000000000E+00  0.00000000000E+00  0.17798580541E+03  0.17798580541E+03  0.00000000000E+00 0. -1.
         -2   -1    0    0    0  501 -0.00000000000E+00 -0.00000000000E+00 -0.10702214882E+03  0.10702214882E+03  0.00000000000E+00 0. -1.
         35    2    1    2    0    0  0.00000000000E+00  0.35527136788E-14  0.70963656595E+02  0.28500795423E+03  0.27603205143E+03 0.  0.
         25    2    3    3    0    0 -0.13694018670E+02  0.90695494487E+01  0.94623037661E+02  0.15657148577E+03  0.12365810942E+03 0.  0.
         25    2    3    3    0    0  0.13694018670E+02 -0.90695494487E+01 -0.23659381066E+02  0.12843646847E+03  0.12516539955E+03 0.  0.
          5    1    4    4  502    0  0.25208978651E+02 -0.40250657056E+02  0.77967459983E+02  0.91414565657E+02  0.47000000000E+01 0.  1.
         -5    1    4    4    0  502 -0.38902997321E+02  0.49320206505E+02  0.16655577678E+02  0.65156920109E+02  0.47000000000E+01 0.  1.
          5    1    5    5  503    0  0.57853499707E+02  0.46573740343E+01  0.22969370307E+02  0.62597128796E+02  0.47000000000E+01 0. -1.
         -5    1    5    5    0  503 -0.44159481037E+02 -0.13726923483E+02 -0.46628751373E+02  0.65839339671E+02  0.47000000000E+01 0. -1.
<mgrwt>
<rscale>  0 0.27603205E+03</rscale>
<asrwt>0</asrwt>
<pdfrwt beam="1">  1        2 0.27382432E-01 0.27603205E+03</pdfrwt>
<pdfrwt beam="2">  1       -2 0.16464946E-01 0.27603205E+03</pdfrwt>
<totfact> 0.56455135E+03</totfact>
</mgrwt>
</event>
<event>
 9    1  0.7944303E-001  0.2758922E+03  0.7818608E-02  0.1097954E+00
         -2   -1    0    0    0  501 -0.00000000000E+00  0.00000000000E+00  0.70687637126E+03  0.70687637126E+03  0.00000000000E+00 0.  1.
          2   -1    0    0  501    0  0.00000000000E+00 -0.00000000000E+00 -0.26920024667E+02  0.26920024667E+02  0.00000000000E+00 0.  1.
         35    2    1    2    0    0  0.00000000000E+00  0.35527136788E-14  0.67995634659E+03  0.73379639592E+03  0.27589222063E+03 0.  0.
         25    2    3    3    0    0  0.44470790693E+02 -0.76624409738E+01  0.43773637750E+03  0.45779502512E+03  0.12620136532E+03 0.  0.
         25    2    3    3    0    0 -0.44470790693E+02  0.76624409738E+01  0.24221996909E+03  0.27600137081E+03  0.12437796845E+03 0.  0.
          5    1    4    4  502    0  0.18547011604E+02  0.38971140847E+02  0.49332721962E+02  0.65715667192E+02  0.47000000000E+01 0. -1.
         -5    1    4    4    0  502  0.25923779089E+02 -0.46633581820E+02  0.38840365554E+03  0.39207935792E+03  0.47000000000E+01 0. -1.
          5    1    5    5  503    0  0.31866080187E+02  0.37945419599E+02  0.82751308385E+02  0.96566924847E+02  0.47000000000E+01 0. -1.
         -5    1    5    5    0  503 -0.76336870879E+02 -0.30282978625E+02  0.15946866071E+03  0.17943444596E+03  0.47000000000E+01 0. -1.
<mgrwt>
<rscale>  0 0.27589222E+03</rscale>
<asrwt>0</asrwt>
<pdfrwt beam="1">  1        2 0.41415428E-02 0.27589222E+03</pdfrwt>
<pdfrwt beam="2">  1       -2 0.10875020E+00 0.27589222E+03</pdfrwt>
<totfact> 0.14225367E+03</totfact>
</mgrwt>
</event>
<event>
 9    1  0.7944303E-001  0.2755581E+03  0.7818608E-02  0.1098140E+00
          1   -1    0    0  501    0  0.00000000000E+00  0.00000000000E+00  0.15368911971E+04  0.15368911971E+04  0.00000000000E+00 0.  1.
         -1   -1    0    0    0  501 -0.00000000000E+00 -0.00000000000E+00 -0.12351602008E+02  0.12351602008E+02  0.00000000000E+00 0.  1.
         35    2    1    2    0    0 -0.35527136788E-14  0.00000000000E+00  0.15245395951E+04  0.15492427991E+04  0.27555811290E+03 0.  0.
         25    2    3    3    0    0  0.69997553056E+01 -0.52578642140E+02  0.64298935378E+03  0.65713787000E+03  0.12482532166E+03 0.  0.
         25    2    3    3    0    0 -0.69997553056E+01  0.52578642140E+02  0.88155024127E+03  0.89210492907E+03  0.12612242623E+03 0.  0.
          5    1    4    4  502    0 -0.22439379792E+02  0.32337807458E+02  0.11773450829E+03  0.12422867623E+03  0.47000000000E+01 0. -1.
         -5    1    4    4    0  502  0.29439135098E+02 -0.84916449599E+02  0.52525484549E+03  0.53290919377E+03  0.47000000000E+01 0. -1.
          5    1    5    5  503    0  0.59395029354E+02  0.27511662649E+02  0.43752416540E+03  0.44241851951E+03  0.47000000000E+01 0. -1.
         -5    1    5    5    0  503 -0.66394784659E+02  0.25066979491E+02  0.44402607587E+03  0.44968640956E+03  0.47000000000E+01 0. -1.
<mgrwt>
<rscale>  0 0.27555811E+03</rscale>
<asrwt>0</asrwt>
<pdfrwt beam="1">  1        1 0.23644465E+00 0.27555811E+03</pdfrwt>
<pdfrwt beam="2">  1       -1 0.19002477E-02 0.27555811E+03</pdfrwt>
<totfact> 0.49995015E+03</totfact>
</mgrwt>
</event>
<event>
 9    1  0.7944303E-001  0.2749078E+03  0.7818608E-02  0.1098503E+00
          2   -1    0    0  501    0  0.00000000000E+00  0.00000000000E+00  0.21305633116E+03  0.21305633116E+03  0.00000000000E+00 0. -1.
         -2   -1    0    0    0  501 -0.00000000000E+00 -0.00000000000E+00 -0.88678756725E+02  0.88678756725E+02  0.00000000000E+00 0. -1.
         35    2    1    2    0    0  0.35527136788E-14  0.00000000000E+00  0.12437757444E+03  0.30173508789E+03  0.27490777042E+03 0.  0.
         25    2    3    3    0    0 -0.21736672142E+02 -0.29229910542E+02  0.10990489665E+03  0.17155898169E+03  0.12659592135E+03 0.  0.
         25    2    3    3    0    0  0.21736672142E+02  0.29229910542E+02  0.14472677788E+02  0.13017610620E+03  0.12413496541E+03 0.  0.
          5    1    4    4  502    0  0.29867245158E+02  0.29626958492E+02  0.74135137648E+02  0.85369301490E+02  0.47000000000E+01 0.  1.
         -5    1    4    4    0  502 -0.51603917301E+02 -0.58856869034E+02  0.35769759000E+02  0.86189680196E+02  0.47000000000E+01 0.  1.
          5    1    5    5  503    0  0.29480904666E+02  0.48155576972E+02 -0.41610459807E+02  0.70296541158E+02  0.47000000000E+01 0.  1.
         -5    1    5    5    0  503 -0.77442325238E+01 -0.18925666430E+02  0.56083137595E+02  0.59879565043E+02  0.47000000000E+01 0.  1.
<mgrwt>
<rscale>  0 0.27490777E+03</rscale>
<asrwt>0</asrwt>
<pdfrwt beam="1">  1        2 0.32777897E-01 0.27490777E+03</pdfrwt>
<pdfrwt beam="2">  1       -2 0.13642886E-01 0.27490777E+03</pdfrwt>
<totfact> 0.63210915E+03</totfact>
</mgrwt>
</event>
<event>
 9    1  0.7944303E-001  0.2750684E+03  0.7818608E-02  0.1098413E+00
         -2   -1    0    0    0  501 -0.00000000000E+00  0.00000000000E+00  0.30049790406E+02  0.30049790406E+02  0.00000000000E+00 0. -1.
          2   -1    0    0  501    0  0.00000000000E+00 -0.00000000000E+00 -0.62947728161E+03  0.62947728161E+03  0.00000000000E+00 0. -1.
         35    2    1    2    0    0  0.00000000000E+00 -0.14210854715E-13 -0.59942749121E+03  0.65952707202E+03  0.27506843060E+03 0.  0.
         25    2    3    3    0    0  0.19921899664E+01  0.38175236025E+02 -0.38422555794E+03  0.40599446056E+03  0.12546276407E+03 0.  0.
         25    2    3    3    0    0 -0.19921899664E+01 -0.38175236025E+02 -0.21520193327E+03  0.25353261146E+03  0.12847410448E+03 0.  0.
          5    1    4    4  502    0 -0.38940509714E+02  0.66467997491E+02 -0.27939735942E+03  0.28986088463E+03  0.47000000000E+01 0.  1.
         -5    1    4    4    0  502  0.40932699681E+02 -0.28292761467E+02 -0.10482819851E+03  0.11613357593E+03  0.47000000000E+01 0.  1.
          5    1    5    5  503    0  0.48563542414E+02 -0.60031355487E+02 -0.10708640312E+03  0.13210514383E+03  0.47000000000E+01 0. -1.
         -5    1    5    5    0  503 -0.50555732380E+02  0.21856119462E+02 -0.10811553015E+03  0.12142746763E+03  0.47000000000E+01 0. -1.
<mgrwt>
<rscale>  0 0.27506843E+03</rscale>
<asrwt>0</asrwt>
<pdfrwt beam="1">  1        2 0.96842653E-01 0.27506843E+03</pdfrwt>
<pdfrwt beam="2">  1       -2 0.46230450E-02 0.27506843E+03</pdfrwt>
<totfact> 0.10472869E+04</totfact>
</mgrwt>
</event>
<event>
 9    1  0.7944303E-001  0.2758188E+03  0.7818608E-02  0.1097995E+00
         -2   -1    0    0    0  501 -0.00000000000E+00  0.00000000000E+00  0.36587531074E+02  0.36587531074E+02  0.00000000000E+00 0. -1.
          2   -1    0    0  501    0  0.00000000000E+00 -0.00000000000E+00 -0.51982179949E+03  0.51982179949E+03  0.00000000000E+00 0. -1.
         35    2    1    2    0    0 -0.71054273576E-14  0.35527136788E-14 -0.48323426842E+03  0.55640933056E+03  0.27581875384E+03 0.  0.
         25    2    3    3    0    0  0.26655676904E+02  0.31773716494E+02 -0.32123445132E+03  0.34722966023E+03  0.12512701570E+03 0.  0.
         25    2    3    3    0    0 -0.26655676904E+02 -0.31773716494E+02 -0.16199981710E+03  0.20917967033E+03  0.12566662075E+03 0.  0.
          5    1    4    4  502    0  0.12832437485E+02  0.13382615914E+02 -0.32310742152E+03  0.32367307843E+03  0.47000000000E+01 0. -1.
         -5    1    4    4    0  502  0.13823239419E+02  0.18391100580E+02  0.18729702023E+01  0.23556581797E+02  0.47000000000E+01 0. -1.
          5    1    5    5  503    0 -0.65741510729E+02 -0.18945387704E+02 -0.15174804762E+03  0.16652457447E+03  0.47000000000E+01 0. -1.
         -5    1    5    5    0  503  0.39085833825E+02 -0.12828328790E+02 -0.10251769480E+02  0.42655095860E+02  0.47000000000E+01 0. -1.
<mgrwt>
<rscale>  0 0.27581875E+03</rscale>
<asrwt>0</asrwt>
<pdfrwt beam="1">  1        2 0.79972580E-01 0.27581875E+03</pdfrwt>
<pdfrwt beam="2">  1       -2 0.56288513E-02 0.27581875E+03</pdfrwt>
<totfact> 0.96739152E+03</totfact>
</mgrwt>
</event>
<event>
 9    1  0.7944303E-001  0.2750388E+03  0.7818608E-02  0.1098430E+00
          1   -1    0    0  501    0  0.00000000000E+00  0.00000000000E+00  0.15113928709E+04  0.15113928709E+04  0.00000000000E+00 0.  1.
         -1   -1    0    0    0  501 -0.00000000000E+00 -0.00000000000E+00 -0.12512685971E+02  0.12512685971E+02  0.00000000000E+00 0.  1.
         35    2    1    2    0    0  0.71054273576E-14  0.35527136788E-14  0.14988801850E+04  0.15239055569E+04  0.27503879271E+03 0.  0.
         25    2    3    3    0    0  0.48681017260E+02 -0.10463999481E+01  0.89014007576E+03  0.90048569079E+03  0.12709912842E+03 0.  0.
         25    2    3    3    0    0 -0.48681017260E+02  0.10463999481E+01  0.60874010921E+03  0.62341986613E+03  0.12536695149E+03 0.  0.
          5    1    4    4  502    0 -0.12142224026E+02 -0.25264455162E+02  0.47941307460E+02  0.55733161223E+02  0.47000000000E+01 0.  1.
         -5    1    4    4    0  502  0.60823241286E+02  0.24218055214E+02  0.84219876830E+03  0.84475252957E+03  0.47000000000E+01 0.  1.
          5    1    5    5  503    0  0.12143743595E+02  0.52492477836E+02  0.27541330218E+03  0.28067331144E+03  0.47000000000E+01 0. -1.
         -5    1    5    5    0  503 -0.60824760855E+02 -0.51446077888E+02  0.33332680703E+03  0.34274655469E+03  0.47000000000E+01 0. -1.
<mgrwt>
<rscale>  0 0.27503879E+03</rscale>
<asrwt>0</asrwt>
<pdfrwt beam="1">  1        1 0.23252184E+00 0.27503879E+03</pdfrwt>
<pdfrwt beam="2">  1       -1 0.19250298E-02 0.27503879E+03</pdfrwt>
<totfact> 0.50998732E+03</totfact>
</mgrwt>
</event>
<event>
 9    1  0.7944303E-001  0.2798507E+03  0.7818608E-02  0.1095770E+00
          1   -1    0    0  501    0  0.00000000000E+00  0.00000000000E+00  0.13564262496E+03  0.13564262496E+03  0.00000000000E+00 0. -1.
         -1   -1    0    0    0  501 -0.00000000000E+00 -0.00000000000E+00 -0.14434332707E+03  0.14434332707E+03  0.00000000000E+00 0. -1.
         35    2    1    2    0    0  0.00000000000E+00  0.00000000000E+00 -0.87007021108E+01  0.27998595203E+03  0.27985073006E+03 0.  0.
         25    2    3    3    0    0  0.49186945817E+02  0.12686818802E+02  0.34321077130E+02  0.13922250258E+03  0.12499863151E+03 0.  0.
         25    2    3    3    0    0 -0.49186945817E+02 -0.12686818802E+02 -0.43021779241E+02  0.14076344945E+03  0.12402888454E+03 0.  0.
          5    1    4    4  502    0  0.76790921236E+02  0.47338710662E+02  0.24621515037E+02  0.93627496571E+02  0.47000000000E+01 0. -1.
         -5    1    4    4    0  502 -0.27603975419E+02 -0.34651891860E+02  0.96995620935E+01  0.45595006012E+02  0.47000000000E+01 0. -1.
          5    1    5    5  503    0  0.40103360398E+01 -0.29699242635E+02  0.33962255873E+02  0.45537376211E+02  0.47000000000E+01 0.  1.
         -5    1    5    5    0  503 -0.53197281856E+02  0.17012423832E+02 -0.76984035114E+02  0.95226073236E+02  0.47000000000E+01 0.  1.
<mgrwt>
<rscale>  0 0.27985073E+03</rscale>
<asrwt>0</asrwt>
<pdfrwt beam="1">  1        1 0.20868096E-01 0.27985073E+03</pdfrwt>
<pdfrwt beam="2">  1       -1 0.22206666E-01 0.27985073E+03</pdfrwt>
<totfact> 0.40785217E+03</totfact>
</mgrwt>
</event>
<event>
 9    1  0.7944303E-001  0.3130896E+03  0.7818608E-02  0.1078874E+00
         -1   -1    0    0    0  501 -0.00000000000E+00  0.00000000000E+00  0.50515690791E+03  0.50515690791E+03  0.00000000000E+00 0. -1.
          1   -1    0    0  501    0  0.00000000000E+00 -0.00000000000E+00 -0.48512197059E+02  0.48512197059E+02  0.00000000000E+00 0. -1.
         35    2    1    2    0    0  0.14210854715E-13  0.14210854715E-13  0.45664471085E+03  0.55366910497E+03  0.31308958119E+03 0.  0.
         25    2    3    3    0    0  0.69926074174E+02  0.50017573816E+02  0.17801901953E+03  0.23386643512E+03  0.12494528651E+03 0.  0.
         25    2    3    3    0    0 -0.69926074174E+02 -0.50017573816E+02  0.27862569132E+03  0.31980266985E+03  0.13133947708E+03 0.  0.
          5    1    4    4  502    0  0.34622777998E+02 -0.37063194266E+02  0.31972288809E+02  0.60139291459E+02  0.47000000000E+01 0.  1.
         -5    1    4    4    0  502  0.35303296176E+02  0.87080768082E+02  0.14604673072E+03  0.17372714366E+03  0.47000000000E+01 0.  1.
          5    1    5    5  503    0 -0.34053690291E+02 -0.78558666840E+01 -0.43511865520E+00  0.35265390853E+02  0.47000000000E+01 0.  1.
         -5    1    5    5    0  503 -0.35872383884E+02 -0.42161707132E+02  0.27906080998E+03  0.28453727899E+03  0.47000000000E+01 0.  1.
<mgrwt>
<rscale>  0 0.31308958E+03</rscale>
<asrwt>0</asrwt>
<pdfrwt beam="1">  1        1 0.74634153E-02 0.31308958E+03</pdfrwt>
<pdfrwt beam="2">  1       -1 0.77716444E-01 0.31308958E+03</pdfrwt>
<totfact> 0.16595241E+03</totfact>
</mgrwt>
</event>
<event>
 9    1  0.7944303E-001  0.2780533E+03  0.7818608E-02  0.1096757E+00
         -2   -1    0    0    0  501 -0.00000000000E+00  0.00000000000E+00  0.36996892687E+02  0.36996892687E+02  0.00000000000E+00 0.  1.
          2   -1    0    0  501    0  0.00000000000E+00 -0.00000000000E+00 -0.52243320308E+03  0.52243320308E+03  0.00000000000E+00 0.  1.
         35    2    1    2    0    0  0.00000000000E+00 -0.35527136788E-14 -0.48543631039E+03  0.55943009576E+03  0.27805326936E+03 0.  0.
         25    2    3    3    0    0 -0.59031106926E+02  0.10337545555E+02 -0.26666898422E+03  0.30044292140E+03  0.12474800776E+03 0.  0.
         25    2    3    3    0    0  0.59031106926E+02 -0.10337545555E+02 -0.21876732617E+03  0.25898717437E+03  0.12499470811E+03 0.  0.
          5    1    4    4  502    0 -0.44429216582E+02 -0.25186079920E+02 -0.25488572597E+03  0.25999445612E+03  0.47000000000E+01 0. -1.
         -5    1    4    4    0  502 -0.14601890344E+02  0.35523625475E+02 -0.11783258250E+02  0.40448465280E+02  0.47000000000E+01 0. -1.
          5    1    5    5  503    0  0.59580755838E+01 -0.42373601445E+02 -0.14430856515E+02  0.45402206817E+02  0.47000000000E+01 0.  1.
         -5    1    5    5    0  503  0.53073031342E+02  0.32036055890E+02 -0.20433646965E+03  0.21358496755E+03  0.47000000000E+01 0.  1.
<mgrwt>
<rscale>  0 0.27805327E+03</rscale>
<asrwt>0</asrwt>
<pdfrwt beam="1">  1        2 0.80374339E-01 0.27805327E+03</pdfrwt>
<pdfrwt beam="2">  1       -2 0.56918297E-02 0.27805327E+03</pdfrwt>
<totfact> 0.94599962E+03</totfact>
</mgrwt>
</event>
<event>
 9    1  0.7944303E-001  0.2733824E+03  0.7818608E-02  0.1099359E+00
          1   -1    0    0  501    0  0.00000000000E+00  0.00000000000E+00  0.22709297352E+03  0.22709297352E+03  0.00000000000E+00 0. -1.
         -1   -1    0    0    0  501 -0.00000000000E+00 -0.00000000000E+00 -0.82276831770E+02  0.82276831770E+02  0.00000000000E+00 0. -1.
         35    2    1    2    0    0  0.00000000000E+00  0.00000000000E+00  0.14481614175E+03  0.30936980529E+03  0.27338244551E+03 0.  0.
         25    2    3    3    0    0 -0.44398613709E+02 -0.26880607504E+02  0.53261645349E+02  0.14563066155E+03  0.12521055371E+03 0.  0.
         25    2    3    3    0    0  0.44398613709E+02  0.26880607504E+02  0.91554496400E+02  0.16373914374E+03  0.12543714530E+03 0.  0.
          5    1    4    4  502    0 -0.39088881519E+02 -0.21913112233E+02 -0.34932162851E+02  0.57012903343E+02  0.47000000000E+01 0. -1.
         -5    1    4    4    0  502 -0.53097321904E+01 -0.49674952707E+01  0.88193808200E+02  0.88617758209E+02  0.47000000000E+01 0. -1.
          5    1    5    5  503    0  0.31124049940E+02  0.17854860770E+02 -0.26279684954E+02  0.44723756317E+02  0.47000000000E+01 0.  1.
         -5    1    5    5    0  503  0.13274563769E+02  0.90257467344E+01  0.11783418135E+03  0.11901538742E+03  0.47000000000E+01 0.  1.
<mgrwt>
<rscale>  0 0.27338245E+03</rscale>
<asrwt>0</asrwt>
<pdfrwt beam="1">  1        1 0.34937380E-01 0.27338245E+03</pdfrwt>
<pdfrwt beam="2">  1       -1 0.12657974E-01 0.27338245E+03</pdfrwt>
<totfact> 0.52159768E+03</totfact>
</mgrwt>
</event>
<event>
 9    1  0.7944303E-001  0.2759257E+03  0.7818608E-02  0.1097935E+00
         -1   -1    0    0    0  501 -0.00000000000E+00  0.00000000000E+00  0.13970164235E+02  0.13970164235E+02  0.00000000000E+00 0. -1.
          1   -1    0    0  501    0  0.00000000000E+00 -0.00000000000E+00 -0.13624567215E+04  0.13624567215E+04  0.00000000000E+00 0. -1.
         35    2    1    2    0    0  0.35527136788E-14  0.71054273576E-14 -0.13484865573E+04  0.13764268857E+04  0.27592567232E+03 0.  0.
         25    2    3    3    0    0  0.72625661340E+01  0.32195050033E+02 -0.43705795420E+03  0.45588531710E+03  0.12538939712E+03 0.  0.
         25    2    3    3    0    0 -0.72625661340E+01 -0.32195050033E+02 -0.91142860305E+03  0.92054156862E+03  0.12492163534E+03 0.  0.
          5    1    4    4  502    0  0.37089426461E+02  0.55277466909E+01 -0.39794793870E+03  0.39973845631E+03  0.47000000000E+01 0.  1.
         -5    1    4    4    0  502 -0.29826860327E+02  0.26667303342E+02 -0.39110015497E+02  0.56146860791E+02  0.47000000000E+01 0.  1.
          5    1    5    5  503    0  0.32199580354E+02 -0.50185583975E+02 -0.22776353136E+03  0.23548613979E+03  0.47000000000E+01 0.  1.
         -5    1    5    5    0  503 -0.39462146488E+02  0.17990533942E+02 -0.68366507170E+03  0.68505542883E+03  0.47000000000E+01 0.  1.
<mgrwt>
<rscale>  0 0.27592567E+03</rscale>
<asrwt>0</asrwt>
<pdfrwt beam="1">  1        1 0.20960877E+00 0.27592567E+03</pdfrwt>
<pdfrwt beam="2">  1       -1 0.21492555E-02 0.27592567E+03</pdfrwt>
<totfact> 0.54592434E+03</totfact>
</mgrwt>
</event>
<event>
 9    1  0.7944303E-001  0.2744545E+03  0.7818608E-02  0.1098757E+00
         -2   -1    0    0    0  501 -0.00000000000E+00  0.00000000000E+00  0.10497786637E+03  0.10497786637E+03  0.00000000000E+00 0.  1.
          2   -1    0    0  501    0  0.00000000000E+00 -0.00000000000E+00 -0.17938375226E+03  0.17938375226E+03  0.00000000000E+00 0.  1.
         35    2    1    2    0    0 -0.35527136788E-14  0.71054273576E-14 -0.74405885890E+02  0.28436161862E+03  0.27445453957E+03 0.  0.
         25    2    3    3    0    0 -0.49968302084E+01 -0.63269849700E+02 -0.33032734795E+02  0.14387355020E+03  0.12482145122E+03 0.  0.
         25    2    3    3    0    0  0.49968302084E+01  0.63269849700E+02 -0.41373151095E+02  0.14048806842E+03  0.11830941444E+03 0.  0.
          5    1    4    4  502    0  0.59396588776E+02 -0.31140067245E+02 -0.23037805230E+02  0.71066792640E+02  0.47000000000E+01 0. -1.
         -5    1    4    4    0  502 -0.64393418984E+02 -0.32129782455E+02 -0.99949295647E+01  0.72806757558E+02  0.47000000000E+01 0. -1.
          5    1    5    5  503    0 -0.12857780471E+02  0.81769722767E+02  0.93437080312E+01  0.83432637258E+02  0.47000000000E+01 0.  1.
         -5    1    5    5    0  503  0.17854610679E+02 -0.18499873067E+02 -0.50716859127E+02  0.57055431167E+02  0.47000000000E+01 0.  1.
<mgrwt>
<rscale>  0 0.27445454E+03</rscale>
<asrwt>0</asrwt>
<pdfrwt beam="1">  1        2 0.27597500E-01 0.27445454E+03</pdfrwt>
<pdfrwt beam="2">  1       -2 0.16150441E-01 0.27445454E+03</pdfrwt>
<totfact> 0.57786107E+03</totfact>
</mgrwt>
</event>
<event>
 9    1  0.7944303E-001  0.2796732E+03  0.7818608E-02  0.1095868E+00
         -1   -1    0    0    0  501 -0.00000000000E+00  0.00000000000E+00  0.18765627200E+02  0.18765627200E+02  0.00000000000E+00 0. -1.
          1   -1    0    0  501    0  0.00000000000E+00 -0.00000000000E+00 -0.10420263121E+04  0.10420263121E+04  0.00000000000E+00 0. -1.
         35    2    1    2    0    0  0.71054273576E-14  0.71054273576E-14 -0.10232606849E+04  0.10607919393E+04  0.27967321864E+03 0.  0.
         25    2    3    3    0    0 -0.46042997740E+02 -0.33927844270E+02 -0.60746933441E+03  0.62282394447E+03  0.12497846732E+03 0.  0.
         25    2    3    3    0    0  0.46042997740E+02  0.33927844270E+02 -0.41579135052E+03  0.43796799486E+03  0.12514975470E+03 0.  0.
          5    1    4    4  502    0 -0.26500848257E+02  0.42022572418E+02 -0.35278832737E+03  0.35630027432E+03  0.47000000000E+01 0. -1.
         -5    1    4    4    0  502 -0.19542149483E+02 -0.75950416688E+02 -0.25468100704E+03  0.26652367014E+03  0.47000000000E+01 0. -1.
          5    1    5    5  503    0  0.25953984797E+02  0.80728647937E+02 -0.28987981269E+03  0.30206476082E+03  0.47000000000E+01 0.  1.
         -5    1    5    5    0  503  0.20089012942E+02 -0.46800803667E+02 -0.12591153782E+03  0.13590323404E+03  0.47000000000E+01 0.  1.
<mgrwt>
<rscale>  0 0.27967322E+03</rscale>
<asrwt>0</asrwt>
<pdfrwt beam="1">  1        1 0.16031176E+00 0.27967322E+03</pdfrwt>
<pdfrwt beam="2">  1       -1 0.28870193E-02 0.27967322E+03</pdfrwt>
<totfact> 0.59395959E+03</totfact>
</mgrwt>
</event>
<event>
 9    1  0.7944303E-001  0.2759423E+03  0.7818608E-02  0.1097926E+00
          4   -1    0    0  501    0  0.00000000000E+00  0.00000000000E+00  0.76115160761E+03  0.76115160761E+03  0.00000000000E+00 0.  1.
         -4   -1    0    0    0  501 -0.00000000000E+00 -0.00000000000E+00 -0.25009521698E+02  0.25009521698E+02  0.00000000000E+00 0.  1.
         35    2    1    2    0    0  0.00000000000E+00 -0.71054273576E-14  0.73614208591E+03  0.78616112931E+03  0.27594229575E+03 0.  0.
         25    2    3    3    0    0  0.15087516561E+02  0.56081662305E+02  0.40262169091E+03  0.42525739563E+03  0.12396306119E+03 0.  0.
         25    2    3    3    0    0 -0.15087516561E+02 -0.56081662305E+02  0.33352039500E+03  0.36090373368E+03  0.12507143999E+03 0.  0.
          5    1    4    4  502    0  0.34584660236E+02  0.90532687687E+02  0.28443658572E+03  0.30053041037E+03  0.47000000000E+01 0.  1.
         -5    1    4    4    0  502 -0.19497143675E+02 -0.34451025382E+02  0.11818510520E+03  0.12472698526E+03  0.47000000000E+01 0.  1.
          5    1    5    5  503    0 -0.34578051357E+02 -0.35911962432E+01  0.16188190225E+02  0.38635292529E+02  0.47000000000E+01 0.  1.
         -5    1    5    5    0  503  0.19490534796E+02 -0.52490466062E+02  0.31733220477E+03  0.32226844115E+03  0.47000000000E+01 0.  1.
<mgrwt>
<rscale>  0 0.27594230E+03</rscale>
<asrwt>0</asrwt>
<pdfrwt beam="1">  1        4 0.11710023E+00 0.27594230E+03</pdfrwt>
<pdfrwt beam="2">  1       -4 0.38476193E-02 0.27594230E+03</pdfrwt>
<totfact> 0.39983634E+02</totfact>
</mgrwt>
</event>
<event>
 9    1  0.7944303E-001  0.2777693E+03  0.7818608E-02  0.1096914E+00
          2   -1    0    0  501    0  0.00000000000E+00  0.00000000000E+00  0.12930504349E+04  0.12930504349E+04  0.00000000000E+00 0.  1.
         -2   -1    0    0    0  501 -0.00000000000E+00 -0.00000000000E+00 -0.14917392118E+02  0.14917392118E+02  0.00000000000E+00 0.  1.
         35    2    1    2    0    0 -0.71054273576E-14  0.00000000000E+00  0.12781330428E+04  0.13079678270E+04  0.27776925939E+03 0.  0.
         25    2    3    3    0    0  0.28930762248E+02  0.27640361219E+02  0.43039393865E+03  0.45009987351E+03  0.12549890491E+03 0.  0.
         25    2    3    3    0    0 -0.28930762248E+02 -0.27640361219E+02  0.84773910415E+03  0.85786795353E+03  0.12519927479E+03 0.  0.
          5    1    4    4  502    0 -0.35758851494E+02 -0.27239507629E+02  0.11804548929E+03  0.12640219056E+03  0.47000000000E+01 0. -1.
         -5    1    4    4    0  502  0.64689613742E+02  0.54879868848E+02  0.31234844936E+03  0.32369768295E+03  0.47000000000E+01 0. -1.
          5    1    5    5  503    0 -0.39948005503E+02  0.14336776273E+02  0.74521583698E+03  0.74643828946E+03  0.47000000000E+01 0. -1.
         -5    1    5    5    0  503  0.11017243255E+02 -0.41977137492E+02  0.10252326717E+03  0.11142966406E+03  0.47000000000E+01 0. -1.
<mgrwt>
<rscale>  0 0.27776926E+03</rscale>
<asrwt>0</asrwt>
<pdfrwt beam="1">  1        2 0.19893075E+00 0.27776926E+03</pdfrwt>
<pdfrwt beam="2">  1       -2 0.22949844E-02 0.27776926E+03</pdfrwt>
<totfact> 0.11163353E+04</totfact>
</mgrwt>
</event>
<event>
 9    1  0.7944303E-001  0.2779298E+03  0.7818608E-02  0.1096825E+00
         -1   -1    0    0    0  501 -0.00000000000E+00  0.00000000000E+00  0.35845758541E+02  0.35845758541E+02  0.00000000000E+00 0. -1.
          1   -1    0    0  501    0  0.00000000000E+00 -0.00000000000E+00 -0.53873159934E+03  0.53873159934E+03  0.00000000000E+00 0. -1.
         35    2    1    2    0    0  0.44408920985E-15  0.14210854715E-13 -0.50288584080E+03  0.57457735788E+03  0.27792979566E+03 0.  0.
         25    2    3    3    0    0 -0.39730849773E+01  0.48166296435E+02 -0.33097885073E+03  0.35651422500E+03  0.12336780570E+03 0.  0.
         25    2    3    3    0    0  0.39730849773E+01 -0.48166296435E+02 -0.17190699007E+03  0.21806313288E+03  0.12515486075E+03 0.  0.
          5    1    4    4  502    0 -0.42309737782E+01 -0.19940685434E+02 -0.25608767903E+01  0.21075582190E+02  0.47000000000E+01 0. -1.
         -5    1    4    4    0  502  0.25788880083E+00  0.68106981869E+02 -0.32841797394E+03  0.33543864281E+03  0.47000000000E+01 0. -1.
          5    1    5    5  503    0  0.12069924927E+02 -0.87847896616E+02 -0.89257247322E+02  0.12590425818E+03  0.47000000000E+01 0.  1.
         -5    1    5    5    0  503 -0.80968399494E+01  0.39681600181E+02 -0.82649742746E+02  0.92158874700E+02  0.47000000000E+01 0.  1.
<mgrwt>
<rscale>  0 0.27792980E+03</rscale>
<asrwt>0</asrwt>
<pdfrwt beam="1">  1        1 0.82881770E-01 0.27792980E+03</pdfrwt>
<pdfrwt beam="2">  1       -1 0.55147331E-02 0.27792980E+03</pdfrwt>
<totfact> 0.61731317E+03</totfact>
</mgrwt>
</event>
<event>
 9    1  0.7944303E-001  0.2759086E+03  0.7818608E-02  0.1097945E+00
          1   -1    0    0  501    0  0.00000000000E+00  0.00000000000E+00  0.16144570314E+03  0.16144570314E+03  0.00000000000E+00 0.  1.
         -1   -1    0    0    0  501 -0.00000000000E+00 -0.00000000000E+00 -0.11788105980E+03  0.11788105980E+03  0.00000000000E+00 0.  1.
         35    2    1    2    0    0  0.00000000000E+00  0.35527136788E-14  0.43564643341E+02  0.27932676293E+03  0.27590861230E+03 0.  0.
         25    2    3    3    0    0 -0.47016396102E+02  0.30811847521E+02  0.37512627429E+02  0.14208080524E+03  0.12497938450E+03 0.  0.
         25    2    3    3    0    0  0.47016396102E+02 -0.30811847521E+02  0.60520159125E+01  0.13724595769E+03  0.12505964400E+03 0.  0.
          5    1    4    4  502    0 -0.84607034577E+02  0.45574789141E+02  0.23164187164E+02  0.98965050761E+02  0.47000000000E+01 0.  1.
         -5    1    4    4    0  502  0.37590638475E+02 -0.14762941619E+02  0.14348440265E+02  0.43115754478E+02  0.47000000000E+01 0.  1.
          5    1    5    5  503    0  0.71012831514E+01 -0.57136981263E+02 -0.40339774214E+02  0.70458854901E+02  0.47000000000E+01 0. -1.
         -5    1    5    5    0  503  0.39915112951E+02  0.26325133742E+02  0.46391790127E+02  0.66787102794E+02  0.47000000000E+01 0. -1.
<mgrwt>
<rscale>  0 0.27590861E+03</rscale>
<asrwt>0</asrwt>
<pdfrwt beam="1">  1        1 0.24837801E-01 0.27590861E+03</pdfrwt>
<pdfrwt beam="2">  1       -1 0.18135548E-01 0.27590861E+03</pdfrwt>
<totfact> 0.45356036E+03</totfact>
</mgrwt>
</event>
<event>
 9    1  0.7944303E-001  0.2755325E+03  0.7818608E-02  0.1098154E+00
         -1   -1    0    0    0  501 -0.00000000000E+00  0.00000000000E+00  0.77244739788E+03  0.77244739788E+03  0.00000000000E+00 0.  1.
          1   -1    0    0  501    0  0.00000000000E+00 -0.00000000000E+00 -0.24570655481E+02  0.24570655481E+02  0.00000000000E+00 0.  1.
         35    2    1    2    0    0  0.71054273576E-14 -0.13322676296E-14  0.74787674240E+03  0.79701805336E+03  0.27553249456E+03 0.  0.
         25    2    3    3    0    0  0.53125123393E+02 -0.10818154878E+01  0.43554950321E+03  0.45638849301E+03  0.12555332631E+03 0.  0.
         25    2    3    3    0    0 -0.53125123393E+02  0.10818154878E+01  0.31232723919E+03  0.34062956035E+03  0.12512691151E+03 0.  0.
          5    1    4    4  502    0  0.68083981741E+00 -0.22374016524E+01  0.37928079635E+03  0.37931712588E+03  0.47000000000E+01 0. -1.
         -5    1    4    4    0  502  0.52444283576E+02  0.11555861646E+01  0.56268706857E+02  0.77071367125E+02  0.47000000000E+01 0. -1.
          5    1    5    5  503    0 -0.36943747906E+02  0.13928798396E+02  0.14919593234E+02  0.42468060897E+02  0.47000000000E+01 0.  1.
         -5    1    5    5    0  503 -0.16181375487E+02 -0.12846982908E+02  0.29740764596E+03  0.29816149945E+03  0.47000000000E+01 0.  1.
<mgrwt>
<rscale>  0 0.27553249E+03</rscale>
<asrwt>0</asrwt>
<pdfrwt beam="1">  1        1 0.37801014E-02 0.27553249E+03</pdfrwt>
<pdfrwt beam="2">  1       -1 0.11883804E+00 0.27553249E+03</pdfrwt>
<totfact> 0.16653385E+03</totfact>
</mgrwt>
</event>
<event>
 9    1  0.7944303E-001  0.2723744E+03  0.7818608E-02  0.1099928E+00
          2   -1    0    0  501    0  0.00000000000E+00  0.00000000000E+00  0.56620937927E+03  0.56620937927E+03  0.00000000000E+00 0. -1.
         -2   -1    0    0    0  501 -0.00000000000E+00 -0.00000000000E+00 -0.32756354694E+02  0.32756354694E+02  0.00000000000E+00 0. -1.
         35    2    1    2    0    0  0.00000000000E+00  0.00000000000E+00  0.53345302457E+03  0.59896573396E+03  0.27237441332E+03 0.  0.
         25    2    3    3    0    0  0.82323040713E+01  0.35556946220E+02  0.35195564941E+03  0.37531794023E+03  0.12513476676E+03 0.  0.
         25    2    3    3    0    0 -0.82323040713E+01 -0.35556946220E+02  0.18149737517E+03  0.22364779374E+03  0.12547896714E+03 0.  0.
          5    1    4    4  502    0  0.41534667902E+02 -0.32416355884E+02  0.11641235632E+03  0.12786663158E+03  0.47000000000E+01 0.  1.
         -5    1    4    4    0  502 -0.33302363830E+02  0.67973302104E+02  0.23554329308E+03  0.24745130865E+03  0.47000000000E+01 0.  1.
          5    1    5    5  503    0 -0.63400042510E+02 -0.31727754360E+02  0.73521488211E+02  0.10224341062E+03  0.47000000000E+01 0. -1.
         -5    1    5    5    0  503  0.55167738438E+02 -0.38291918598E+01  0.10797588696E+03  0.12140438311E+03  0.47000000000E+01 0. -1.
<mgrwt>
<rscale>  0 0.27237441E+03</rscale>
<asrwt>0</asrwt>
<pdfrwt beam="1">  1        2 0.87109128E-01 0.27237441E+03</pdfrwt>
<pdfrwt beam="2">  1       -2 0.50394396E-02 0.27237441E+03</pdfrwt>
<totfact> 0.10386260E+04</totfact>
</mgrwt>
</event>
<event>
 9    1  0.7944303E-001  0.2733690E+03  0.7818608E-02  0.1099367E+00
         -2   -1    0    0    0  501 -0.00000000000E+00  0.00000000000E+00  0.83390389317E+01  0.83390389317E+01  0.00000000000E+00 0. -1.
          2   -1    0    0  501    0  0.00000000000E+00 -0.00000000000E+00 -0.22403845075E+04  0.22403845075E+04  0.00000000000E+00 0. -1.
         35    2    1    2    0    0  0.00000000000E+00  0.00000000000E+00 -0.22320454686E+04  0.22487235465E+04  0.27336900798E+03 0.  0.
         25    2    3    3    0    0 -0.44177412715E+02  0.23634171069E+02 -0.12728290301E+04  0.12800884498E+04  0.12657994200E+03 0.  0.
         25    2    3    3    0    0  0.44177412715E+02 -0.23634171069E+02 -0.95921643855E+03  0.96863509668E+03  0.12509019419E+03 0.  0.
          5    1    4    4  502    0 -0.41202654591E+02 -0.19476505935E+02 -0.11267056622E+04  0.11276367909E+04  0.47000000000E+01 0. -1.
         -5    1    4    4    0  502 -0.29747581243E+01  0.43110677004E+02 -0.14612336785E+03  0.15245165887E+03  0.47000000000E+01 0. -1.
          5    1    5    5  503    0  0.20137228279E+02  0.44236097928E+02 -0.61509756111E+03  0.61703277061E+03  0.47000000000E+01 0.  1.
         -5    1    5    5    0  503  0.24040184437E+02 -0.67870268997E+02 -0.34411887744E+03  0.35160232606E+03  0.47000000000E+01 0.  1.
<mgrwt>
<rscale>  0 0.27336901E+03</rscale>
<asrwt>0</asrwt>
<pdfrwt beam="1">  1        2 0.34467454E+00 0.27336901E+03</pdfrwt>
<pdfrwt beam="2">  1       -2 0.12829291E-02 0.27336901E+03</pdfrwt>
<totfact> 0.82165737E+03</totfact>
</mgrwt>
</event>
<event>
 9    1  0.7944303E-001  0.2702397E+03  0.7818608E-02  0.1101143E+00
          2   -1    0    0  501    0  0.00000000000E+00  0.00000000000E+00  0.16014685591E+02  0.16014685591E+02  0.00000000000E+00 0.  1.
         -2   -1    0    0    0  501 -0.00000000000E+00 -0.00000000000E+00 -0.11400392272E+04  0.11400392272E+04  0.00000000000E+00 0.  1.
         35    2    1    2    0    0  0.35527136788E-14  0.71054273576E-14 -0.11240245416E+04  0.11560539128E+04  0.27023966982E+03 0.  0.
         25    2    3    3    0    0  0.14137254756E+02  0.49934477098E+02 -0.55845476472E+03  0.57448033231E+03  0.12434875953E+03 0.  0.
         25    2    3    3    0    0 -0.14137254756E+02 -0.49934477098E+02 -0.56556977691E+03  0.58157358051E+03  0.12516126801E+03 0.  0.
          5    1    4    4  502    0 -0.90203297936E+00  0.75754037841E+02 -0.18731586480E+03  0.20211088818E+03  0.47000000000E+01 0. -1.
         -5    1    4    4    0  502  0.15039287736E+02 -0.25819560743E+02 -0.37113889992E+03  0.37236944414E+03  0.47000000000E+01 0. -1.
          5    1    5    5  503    0 -0.79205423518E+01 -0.89347687410E+02 -0.45847607454E+03  0.46719176487E+03  0.47000000000E+01 0. -1.
         -5    1    5    5    0  503 -0.62167124046E+01  0.39413210312E+02 -0.10709370237E+03  0.11438181564E+03  0.47000000000E+01 0. -1.
<mgrwt>
<rscale>  0 0.27023967E+03</rscale>
<asrwt>0</asrwt>
<pdfrwt beam="1">  1        2 0.24637965E-02 0.27023967E+03</pdfrwt>
<pdfrwt beam="2">  1       -2 0.17539074E+00 0.27023967E+03</pdfrwt>
<totfact> 0.85787162E+02</totfact>
</mgrwt>
</event>
<event>
 9    1  0.7944303E-001  0.2748654E+03  0.7818608E-02  0.1098527E+00
          1   -1    0    0  501    0  0.00000000000E+00  0.00000000000E+00  0.12385373582E+04  0.12385373582E+04  0.00000000000E+00 0. -1.
         -1   -1    0    0    0  501 -0.00000000000E+00 -0.00000000000E+00 -0.15250038380E+02  0.15250038380E+02  0.00000000000E+00 0. -1.
         35    2    1    2    0    0  0.00000000000E+00  0.14210854715E-13  0.12232873198E+04  0.12537873966E+04  0.27486536521E+03 0.  0.
         25    2    3    3    0    0  0.13707164630E+02 -0.60563934003E+02  0.63323361925E+03  0.64733171461E+03  0.11915391611E+03 0.  0.
         25    2    3    3    0    0 -0.13707164630E+02  0.60563934003E+02  0.59005370057E+03  0.60645568198E+03  0.12557566713E+03 0.  0.
          5    1    4    4  502    0  0.52474392886E+02 -0.34233387630E+02  0.16211156887E+03  0.17386125934E+03  0.47000000000E+01 0.  1.
         -5    1    4    4    0  502 -0.38767228257E+02 -0.26330546374E+02  0.47112205038E+03  0.47347045527E+03  0.47000000000E+01 0.  1.
          5    1    5    5  503    0  0.32796500662E+02  0.81720420598E+02  0.39945951800E+03  0.40907680711E+03  0.47000000000E+01 0. -1.
         -5    1    5    5    0  503 -0.46503665292E+02 -0.21156486594E+02  0.19059418258E+03  0.19737887486E+03  0.47000000000E+01 0. -1.
<mgrwt>
<rscale>  0 0.27486537E+03</rscale>
<asrwt>0</asrwt>
<pdfrwt beam="1">  1        1 0.19054413E+00 0.27486537E+03</pdfrwt>
<pdfrwt beam="2">  1       -1 0.23461607E-02 0.27486537E+03</pdfrwt>
<totfact> 0.58353163E+03</totfact>
</mgrwt>
</event>
<event>
 9    1  0.7944303E-001  0.2736034E+03  0.7818608E-02  0.1099235E+00
         -1   -1    0    0    0  501 -0.00000000000E+00  0.00000000000E+00  0.62503363954E+02  0.62503363954E+02  0.00000000000E+00 0.  1.
          1   -1    0    0  501    0  0.00000000000E+00 -0.00000000000E+00 -0.29941907965E+03  0.29941907965E+03  0.00000000000E+00 0.  1.
         35    2    1    2    0    0  0.00000000000E+00 -0.35527136788E-14 -0.23691571569E+03  0.36192244360E+03  0.27360336043E+03 0.  0.
         25    2    3    3    0    0 -0.52980450503E+02  0.13006429573E+02 -0.10666596162E+03  0.17341014611E+03  0.12536887995E+03 0.  0.
         25    2    3    3    0    0  0.52980450503E+02 -0.13006429573E+02 -0.13024975407E+03  0.18851229749E+03  0.12488311544E+03 0.  0.
          5    1    4    4  502    0 -0.34786690546E+02 -0.38098305441E+02 -0.10708621831E+03  0.11895857628E+03  0.47000000000E+01 0. -1.
         -5    1    4    4    0  502 -0.18193759958E+02  0.51104735013E+02  0.42025669205E+00  0.54451569838E+02  0.47000000000E+01 0. -1.
          5    1    5    5  503    0 -0.36581815584E+02 -0.21161225922E+02 -0.63474399241E+02  0.76401021413E+02  0.47000000000E+01 0.  1.
         -5    1    5    5    0  503  0.89562266088E+02  0.81547963493E+01 -0.66775354828E+02  0.11211127607E+03  0.47000000000E+01 0.  1.
<mgrwt>
<rscale>  0 0.27360336E+03</rscale>
<asrwt>0</asrwt>
<pdfrwt beam="1">  1        1 0.46064474E-01 0.27360336E+03</pdfrwt>
<pdfrwt beam="2">  1       -1 0.96159020E-02 0.27360336E+03</pdfrwt>
<totfact> 0.56510816E+03</totfact>
</mgrwt>
</event>
<event>
 9    1  0.7944303E-001  0.2724763E+03  0.7818608E-02  0.1099871E+00
          1   -1    0    0  501    0  0.00000000000E+00  0.00000000000E+00  0.31621692439E+03  0.31621692439E+03  0.00000000000E+00 0.  1.
         -1   -1    0    0    0  501 -0.00000000000E+00 -0.00000000000E+00 -0.58696528266E+02  0.58696528266E+02  0.00000000000E+00 0.  1.
         35    2    1    2    0    0  0.35527136788E-14  0.00000000000E+00  0.25752039612E+03  0.37491345265E+03  0.27247631560E+03 0.  0.
         25    2    3    3    0    0  0.84071099669E+01  0.24822797958E+00  0.59854972862E+02  0.13865752845E+03  0.12479002887E+03 0.  0.
         25    2    3    3    0    0 -0.84071099669E+01 -0.24822797958E+00  0.19766542326E+03  0.23625592420E+03  0.12912978376E+03 0.  0.
          5    1    4    4  502    0 -0.27700853402E+02 -0.27735070104E+02  0.79457821926E+02  0.88725457779E+02  0.47000000000E+01 0.  1.
         -5    1    4    4    0  502  0.36107963369E+02  0.27983298084E+02 -0.19602849064E+02  0.49932070673E+02  0.47000000000E+01 0.  1.
          5    1    5    5  503    0 -0.39550643780E+02  0.51323249675E+02  0.73028489212E+02  0.97742414627E+02  0.47000000000E+01 0.  1.
         -5    1    5    5    0  503  0.31143533813E+02 -0.51571477654E+02  0.12463693405E+03  0.13851350957E+03  0.47000000000E+01 0.  1.
<mgrwt>
<rscale>  0 0.27247632E+03</rscale>
<asrwt>0</asrwt>
<pdfrwt beam="1">  1        1 0.48648756E-01 0.27247632E+03</pdfrwt>
<pdfrwt beam="2">  1       -1 0.90302353E-02 0.27247632E+03</pdfrwt>
<totfact> 0.58109036E+03</totfact>
</mgrwt>
</event>
<event>
 9    1  0.7944303E-001  0.2745308E+03  0.7818608E-02  0.1098714E+00
         -3   -1    0    0    0  501 -0.00000000000E+00  0.00000000000E+00  0.99949965410E+02  0.99949965410E+02  0.00000000000E+00 0. -1.
          3   -1    0    0  501    0  0.00000000000E+00 -0.00000000000E+00 -0.18851226237E+03  0.18851226237E+03  0.00000000000E+00 0. -1.
         35    2    1    2    0    0  0.00000000000E+00  0.35527136788E-14 -0.88562296956E+02  0.28846222778E+03  0.27453082962E+03 0.  0.
         25    2    3    3    0    0 -0.24969720880E+02  0.31931797491E+01  0.12268911171E+02  0.12932802536E+03  0.12625976637E+03 0.  0.
         25    2    3    3    0    0  0.24969720880E+02 -0.31931797491E+01 -0.10083120813E+03  0.15913420242E+03  0.12051173590E+03 0.  0.
          5    1    4    4  502    0 -0.51556990864E+02  0.50172603943E+02  0.19444120598E+02  0.74669788531E+02  0.47000000000E+01 0. -1.
         -5    1    4    4    0  502  0.26587269984E+02 -0.46979424194E+02 -0.71752094271E+01  0.54658236828E+02  0.47000000000E+01 0. -1.
          5    1    5    5  503    0  0.12829392456E+02 -0.17196366785E+02  0.24181886570E+02  0.32667445255E+02  0.47000000000E+01 0. -1.
         -5    1    5    5    0  503  0.12140328424E+02  0.14003187036E+02 -0.12501309470E+03  0.12646675716E+03  0.47000000000E+01 0. -1.
<mgrwt>
<rscale>  0 0.27453083E+03</rscale>
<asrwt>0</asrwt>
<pdfrwt beam="1">  1        3 0.29001886E-01 0.27453083E+03</pdfrwt>
<pdfrwt beam="2">  1       -3 0.15376918E-01 0.27453083E+03</pdfrwt>
<totfact> 0.10340311E+03</totfact>
</mgrwt>
</event>
<event>
 9    1  0.7944303E-001  0.2764745E+03  0.7818608E-02  0.1097630E+00
         -2   -1    0    0    0  501 -0.00000000000E+00  0.00000000000E+00  0.10308598364E+03  0.10308598364E+03  0.00000000000E+00 0.  1.
          2   -1    0    0  501    0  0.00000000000E+00 -0.00000000000E+00 -0.18537476977E+03  0.18537476977E+03  0.00000000000E+00 0.  1.
         35    2    1    2    0    0  0.00000000000E+00  0.00000000000E+00 -0.82288786127E+02  0.28846075340E+03  0.27647452312E+03 0.  0.
         25    2    3    3    0    0 -0.33205662635E+02  0.65111895175E+01 -0.86395418459E+02  0.15697796462E+03  0.12662109392E+03 0.  0.
         25    2    3    3    0    0  0.33205662635E+02 -0.65111895175E+01  0.41066323321E+01  0.13148278879E+03  0.12698758876E+03 0.  0.
          5    1    4    4  502    0  0.19494622536E+02 -0.49530921529E+02 -0.28337178085E+02  0.60485024238E+02  0.47000000000E+01 0. -1.
         -5    1    4    4    0  502 -0.52700285171E+02  0.56042111046E+02 -0.58058240374E+02  0.96492940379E+02  0.47000000000E+01 0. -1.
          5    1    5    5  503    0 -0.23894058890E+02 -0.48527131146E+02  0.21401281885E+02  0.58360203682E+02  0.47000000000E+01 0. -1.
         -5    1    5    5    0  503  0.57099721525E+02  0.42015941629E+02 -0.17294649553E+02  0.73122585105E+02  0.47000000000E+01 0. -1.
<mgrwt>
<rscale>  0 0.27647452E+03</rscale>
<asrwt>0</asrwt>
<pdfrwt beam="1">  1        2 0.28519195E-01 0.27647452E+03</pdfrwt>
<pdfrwt beam="2">  1       -2 0.15859382E-01 0.27647452E+03</pdfrwt>
<totfact> 0.57455348E+03</totfact>
</mgrwt>
</event>
<event>
 9    1  0.7944303E-001  0.2708524E+03  0.7818608E-02  0.1100793E+00
         -1   -1    0    0    0  501 -0.00000000000E+00  0.00000000000E+00  0.62118456530E+02  0.62118456530E+02  0.00000000000E+00 0. -1.
          1   -1    0    0  501    0  0.00000000000E+00 -0.00000000000E+00 -0.29524646763E+03  0.29524646763E+03  0.00000000000E+00 0. -1.
         35    2    1    2    0    0  0.00000000000E+00  0.00000000000E+00 -0.23312801110E+03  0.35736492416E+03  0.27085239423E+03 0.  0.
         25    2    3    3    0    0  0.40151435910E+02 -0.21355326141E+02 -0.73355459674E+02  0.14954102910E+03  0.12212005634E+03 0.  0.
         25    2    3    3    0    0 -0.40151435910E+02  0.21355326141E+02 -0.15977255143E+03  0.20782389506E+03  0.12488120518E+03 0.  0.
          5    1    4    4  502    0  0.19041843703E+02  0.11333375800E+02 -0.99748323469E+02  0.10228809928E+03  0.47000000000E+01 0.  1.
         -5    1    4    4    0  502  0.21109592207E+02 -0.32688701941E+02  0.26392863794E+02  0.47252929825E+02  0.47000000000E+01 0.  1.
          5    1    5    5  503    0 -0.10277708280E+02  0.71862524633E+02 -0.10250940648E+03  0.12569853679E+03  0.47000000000E+01 0. -1.
         -5    1    5    5    0  503 -0.29873727630E+02 -0.50507198492E+02 -0.57263144949E+02  0.82125358273E+02  0.47000000000E+01 0. -1.
<mgrwt>
<rscale>  0 0.27085239E+03</rscale>
<asrwt>0</asrwt>
<pdfrwt beam="1">  1        1 0.45422535E-01 0.27085239E+03</pdfrwt>
<pdfrwt beam="2">  1       -1 0.95566854E-02 0.27085239E+03</pdfrwt>
<totfact> 0.58047159E+03</totfact>
</mgrwt>
</event>
<event>
 9    1  0.7944303E-001  0.2759001E+03  0.7818608E-02  0.1097950E+00
          2   -1    0    0  501    0  0.00000000000E+00  0.00000000000E+00  0.12087872604E+04  0.12087872604E+04  0.00000000000E+00 0.  1.
         -2   -1    0    0    0  501 -0.00000000000E+00 -0.00000000000E+00 -0.15743226064E+02  0.15743226064E+02  0.00000000000E+00 0.  1.
         35    2    1    2    0    0 -0.71054273576E-14  0.00000000000E+00  0.11930440343E+04  0.12245304865E+04  0.27590006237E+03 0.  0.
         25    2    3    3    0    0 -0.48100174164E+02 -0.17964187510E+02  0.75881253474E+03  0.76990186670E+03  0.11964983362E+03 0.  0.
         25    2    3    3    0    0  0.48100174164E+02  0.17964187510E+02  0.43423149959E+03  0.45462861976E+03  0.12447428601E+03 0.  0.
          5    1    4    4  502    0 -0.85497551312E+02 -0.36128474823E+01  0.59794464909E+03  0.60405527671E+03  0.47000000000E+01 0.  1.
         -5    1    4    4    0  502  0.37397377148E+02 -0.14351340027E+02  0.16086788566E+03  0.16584659000E+03  0.47000000000E+01 0.  1.
          5    1    5    5  503    0 -0.65740285359E+00  0.31614506793E+02  0.20930106095E+02  0.38210843480E+02  0.47000000000E+01 0. -1.
         -5    1    5    5    0  503  0.48757577018E+02 -0.13650319283E+02  0.41330139350E+03  0.41641777628E+03  0.47000000000E+01 0. -1.
<mgrwt>
<rscale>  0 0.27590006E+03</rscale>
<asrwt>0</asrwt>
<pdfrwt beam="1">  1        2 0.18596720E+00 0.27590006E+03</pdfrwt>
<pdfrwt beam="2">  1       -2 0.24220357E-02 0.27590006E+03</pdfrwt>
<totfact> 0.11491615E+04</totfact>
</mgrwt>
</event>
<event>
 9    1  0.7944303E-001  0.2710449E+03  0.7818608E-02  0.1100683E+00
         -1   -1    0    0    0  501 -0.00000000000E+00  0.00000000000E+00  0.27796586086E+02  0.27796586086E+02  0.00000000000E+00 0. -1.
          1   -1    0    0  501    0  0.00000000000E+00 -0.00000000000E+00 -0.66074083629E+03  0.66074083629E+03  0.00000000000E+00 0. -1.
         35    2    1    2    0    0  0.71054273576E-14  0.71054273576E-14 -0.63294425021E+03  0.68853742238E+03  0.27104493750E+03 0.  0.
         25    2    3    3    0    0 -0.30637255174E+02  0.80879208274E+01 -0.42645321403E+03  0.44510431122E+03  0.12349675398E+03 0.  0.
         25    2    3    3    0    0  0.30637255174E+02 -0.80879208274E+01 -0.20649103618E+03  0.24343311116E+03  0.12496829885E+03 0.  0.
          5    1    4    4  502    0  0.27311389609E+02  0.48191349181E+02 -0.21952901101E+03  0.22645837324E+03  0.47000000000E+01 0. -1.
         -5    1    4    4    0  502 -0.57948644784E+02 -0.40103428354E+02 -0.20692420302E+03  0.21864593797E+03  0.47000000000E+01 0. -1.
          5    1    5    5  503    0  0.27059290799E+02  0.55231597608E+02 -0.73022380726E+02  0.95588140895E+02  0.47000000000E+01 0.  1.
         -5    1    5    5    0  503  0.35779643750E+01 -0.63319518435E+02 -0.13346865545E+03  0.14784497027E+03  0.47000000000E+01 0.  1.
<mgrwt>
<rscale>  0 0.27104494E+03</rscale>
<asrwt>0</asrwt>
<pdfrwt beam="1">  1        1 0.10165244E+00 0.27104494E+03</pdfrwt>
<pdfrwt beam="2">  1       -1 0.42763978E-02 0.27104494E+03</pdfrwt>
<totfact> 0.67989192E+03</totfact>
</mgrwt>
</event>
<event>
 9    1  0.7944303E-001  0.2748594E+03  0.7818608E-02  0.1098530E+00
         -2   -1    0    0    0  501 -0.00000000000E+00  0.00000000000E+00  0.55392992909E+02  0.55392992909E+02  0.00000000000E+00 0.  1.
          2   -1    0    0  501    0  0.00000000000E+00 -0.00000000000E+00 -0.34096219152E+03  0.34096219152E+03  0.00000000000E+00 0.  1.
         35    2    1    2    0    0  0.00000000000E+00  0.00000000000E+00 -0.28556919861E+03  0.39635518443E+03  0.27485935500E+03 0.  0.
         25    2    3    3    0    0  0.75683899240E+01 -0.29396327356E+02 -0.73718553578E+02  0.14827247810E+03  0.12501551116E+03 0.  0.
         25    2    3    3    0    0 -0.75683899240E+01  0.29396327356E+02 -0.21185064503E+03  0.24808270633E+03  0.12547074876E+03 0.  0.
          5    1    4    4  502    0  0.39427616718E+02 -0.39862903859E+02 -0.93450211989E+02  0.10908079659E+03  0.47000000000E+01 0.  1.
         -5    1    4    4    0  502 -0.31859226794E+02  0.10466576503E+02  0.19731658410E+02  0.39191681505E+02  0.47000000000E+01 0.  1.
          5    1    5    5  503    0  0.57535560759E+02  0.23060060677E+01 -0.83068376809E+02  0.10118351467E+03  0.47000000000E+01 0.  1.
         -5    1    5    5    0  503 -0.65103950683E+02  0.27090321289E+02 -0.12878226822E+03  0.14689919166E+03  0.47000000000E+01 0.  1.
<mgrwt>
<rscale>  0 0.27485935E+03</rscale>
<asrwt>0</asrwt>
<pdfrwt beam="1">  1        2 0.52455722E-01 0.27485935E+03</pdfrwt>
<pdfrwt beam="2">  1       -2 0.85219989E-02 0.27485935E+03</pdfrwt>
<totfact> 0.80800324E+03</totfact>
</mgrwt>
</event>
<event>
 9    1  0.7944303E-001  0.2718419E+03  0.7818608E-02  0.1100230E+00
          3   -1    0    0  501    0  0.00000000000E+00  0.00000000000E+00  0.24920849778E+03  0.24920849778E+03  0.00000000000E+00 0.  1.
         -3   -1    0    0    0  501 -0.00000000000E+00 -0.00000000000E+00 -0.74132702427E+02  0.74132702427E+02  0.00000000000E+00 0.  1.
         35    2    1    2    0    0 -0.35527136788E-14  0.00000000000E+00  0.17507579535E+03  0.32334120021E+03  0.27184186144E+03 0.  0.
         25    2    3    3    0    0  0.97478582430E+01 -0.43962284879E+02  0.12390190032E+03  0.18122107272E+03  0.12434505644E+03 0.  0.
         25    2    3    3    0    0 -0.97478582430E+01  0.43962284879E+02  0.51173895029E+02  0.14212012749E+03  0.12470629444E+03 0.  0.
          5    1    4    4  502    0  0.41196250429E+02  0.86284021342E+01 -0.62337473484E+00  0.42356333280E+02  0.47000000000E+01 0. -1.
         -5    1    4    4    0  502 -0.31448392186E+02 -0.52590687013E+02  0.12452527506E+03  0.13886473944E+03  0.47000000000E+01 0. -1.
          5    1    5    5  503    0  0.20976485097E+02 -0.38128424717E+02  0.25534270316E+02  0.50674240586E+02  0.47000000000E+01 0.  1.
         -5    1    5    5    0  503 -0.30724343340E+02  0.82090709596E+02  0.25639624713E+02  0.91445886901E+02  0.47000000000E+01 0.  1.
<mgrwt>
<rscale>  0 0.27184186E+03</rscale>
<asrwt>0</asrwt>
<pdfrwt beam="1">  1        3 0.38339769E-01 0.27184186E+03</pdfrwt>
<pdfrwt beam="2">  1       -3 0.11405031E-01 0.27184186E+03</pdfrwt>
<totfact> 0.10139160E+03</totfact>
</mgrwt>
</event>
<event>
 9    1  0.7944303E-001  0.2742487E+03  0.7818608E-02  0.1098872E+00
         -2   -1    0    0    0  501 -0.00000000000E+00  0.00000000000E+00  0.44270800013E+02  0.44270800013E+02  0.00000000000E+00 0. -1.
          2   -1    0    0  501    0  0.00000000000E+00 -0.00000000000E+00 -0.42472895224E+03  0.42472895224E+03  0.00000000000E+00 0. -1.
         35    2    1    2    0    0  0.00000000000E+00  0.00000000000E+00 -0.38045815223E+03  0.46899975225E+03  0.27424872291E+03 0.  0.
         25    2    3    3    0    0 -0.12572063665E+01 -0.51707710786E+02 -0.22704771356E+03  0.26428187510E+03  0.12497590709E+03 0.  0.
         25    2    3    3    0    0  0.12572063665E+01  0.51707710786E+02 -0.15341043866E+03  0.20471787715E+03  0.12529716122E+03 0.  0.
          5    1    4    4  502    0  0.24261663585E+02 -0.84102753586E+02 -0.11365864801E+03  0.14353494261E+03  0.47000000000E+01 0.  1.
         -5    1    4    4    0  502 -0.25518869952E+02  0.32395042800E+02 -0.11338906555E+03  0.12074693250E+03  0.47000000000E+01 0.  1.
          5    1    5    5  503    0 -0.28158083183E+02 -0.33374020899E+02 -0.36609139986E+02  0.57175362264E+02  0.47000000000E+01 0.  1.
         -5    1    5    5    0  503  0.29415289549E+02  0.85081731684E+02 -0.11680129868E+03  0.14754251488E+03  0.47000000000E+01 0.  1.
<mgrwt>
<rscale>  0 0.27424872E+03</rscale>
<asrwt>0</asrwt>
<pdfrwt beam="1">  1        2 0.65342914E-01 0.27424872E+03</pdfrwt>
<pdfrwt beam="2">  1       -2 0.68108924E-02 0.27424872E+03</pdfrwt>
<totfact> 0.90264909E+03</totfact>
</mgrwt>
</event>
<event>
 9    1  0.7944303E-001  0.2708076E+03  0.7818608E-02  0.1100818E+00
         -2   -1    0    0    0  501 -0.00000000000E+00  0.00000000000E+00  0.41117454939E+02  0.41117454939E+02  0.00000000000E+00 0.  1.
          2   -1    0    0  501    0  0.00000000000E+00 -0.00000000000E+00 -0.44589791756E+03  0.44589791756E+03  0.00000000000E+00 0.  1.
         35    2    1    2    0    0 -0.71054273576E-14  0.35527136788E-14 -0.40478046262E+03  0.48701537250E+03  0.27080758876E+03 0.  0.
         25    2    3    3    0    0  0.34940361623E+02  0.12275567067E+02 -0.26709295272E+03  0.29725406804E+03  0.12509922924E+03 0.  0.
         25    2    3    3    0    0 -0.34940361623E+02 -0.12275567067E+02 -0.13768750990E+03  0.18976130446E+03  0.12521974234E+03 0.  0.
          5    1    4    4  502    0  0.55168552493E+02  0.57319918615E+02 -0.14474831647E+03  0.16523712469E+03  0.47000000000E+01 0.  1.
         -5    1    4    4    0  502 -0.20228190871E+02 -0.45044351548E+02 -0.12234463625E+03  0.13201694335E+03  0.47000000000E+01 0.  1.
          5    1    5    5  503    0  0.26804179157E+02  0.23361380481E+01  0.98936031707E+01  0.29049869965E+02  0.47000000000E+01 0. -1.
         -5    1    5    5    0  503 -0.61744540780E+02 -0.14611705115E+02 -0.14758111307E+03  0.16071143449E+03  0.47000000000E+01 0. -1.
<mgrwt>
<rscale>  0 0.27080759E+03</rscale>
<asrwt>0</asrwt>
<pdfrwt beam="1">  1        2 0.68599681E-01 0.27080759E+03</pdfrwt>
<pdfrwt beam="2">  1       -2 0.63257622E-02 0.27080759E+03</pdfrwt>
<totfact> 0.95860063E+03</totfact>
</mgrwt>
</event>
<event>
 9    1  0.7944303E-001  0.2754837E+03  0.7818608E-02  0.1098182E+00
          1   -1    0    0  501    0  0.00000000000E+00  0.00000000000E+00  0.18472120568E+04  0.18472120568E+04  0.00000000000E+00 0.  1.
         -1   -1    0    0    0  501 -0.00000000000E+00 -0.00000000000E+00 -0.10271058890E+02  0.10271058890E+02  0.00000000000E+00 0.  1.
         35    2    1    2    0    0  0.00000000000E+00  0.71054273576E-14  0.18369409979E+04  0.18574831157E+04  0.27548374774E+03 0.  0.
         25    2    3    3    0    0  0.57199420534E+02 -0.14383975228E+01  0.88052602860E+03  0.89112698228E+03  0.12452858635E+03 0.  0.
         25    2    3    3    0    0 -0.57199420534E+02  0.14383975228E+01  0.95641496933E+03  0.96635613342E+03  0.12586000298E+03 0.  0.
          5    1    4    4  502    0  0.86956314118E+02 -0.31035955377E+02  0.67546743570E+03  0.68176460584E+03  0.47000000000E+01 0. -1.
         -5    1    4    4    0  502 -0.29756893584E+02  0.29597557854E+02  0.20505859290E+03  0.20936237644E+03  0.47000000000E+01 0. -1.
          5    1    5    5  503    0  0.16909536562E+02 -0.38130231397E+02  0.53370318875E+03  0.53535131517E+03  0.47000000000E+01 0.  1.
         -5    1    5    5    0  503 -0.74108957097E+02  0.39568628919E+02  0.42271178057E+03  0.43100481825E+03  0.47000000000E+01 0.  1.
<mgrwt>
<rscale>  0 0.27548375E+03</rscale>
<asrwt>0</asrwt>
<pdfrwt beam="1">  1        1 0.28418621E+00 0.27548375E+03</pdfrwt>
<pdfrwt beam="2">  1       -1 0.15801644E-02 0.27548375E+03</pdfrwt>
<totfact> 0.41018420E+03</totfact>
</mgrwt>
</event>
<event>
 9    1  0.7944303E-001  0.2756215E+03  0.7818608E-02  0.1098105E+00
         -1   -1    0    0    0  501 -0.00000000000E+00  0.00000000000E+00  0.12632059491E+03  0.12632059491E+03  0.00000000000E+00 0. -1.
          1   -1    0    0  501    0  0.00000000000E+00 -0.00000000000E+00 -0.15034610227E+03  0.15034610227E+03  0.00000000000E+00 0. -1.
         35    2    1    2    0    0  0.71054273576E-14 -0.71054273576E-14 -0.24025507362E+02  0.27666669718E+03  0.27562154546E+03 0.  0.
         25    2    3    3    0    0  0.53570862303E+02  0.81437928360E+01 -0.31329220768E+02  0.13963081202E+03  0.12481620465E+03 0.  0.
         25    2    3    3    0    0 -0.53570862303E+02 -0.81437928360E+01  0.73037134065E+01  0.13703588516E+03  0.12565560450E+03 0.  0.
          5    1    4    4  502    0  0.77129781570E+02  0.43424717368E+02 -0.37979607197E+02  0.96432618166E+02  0.47000000000E+01 0. -1.
         -5    1    4    4    0  502 -0.23558919267E+02 -0.35280924532E+02  0.66503864286E+01  0.43198193857E+02  0.47000000000E+01 0. -1.
          5    1    5    5  503    0 -0.44938640547E+01  0.48326796138E+02 -0.25709402679E+02  0.55124744219E+02  0.47000000000E+01 0.  1.
         -5    1    5    5    0  503 -0.49076998249E+02 -0.56470588974E+02  0.33013116085E+02  0.81911140938E+02  0.47000000000E+01 0.  1.
<mgrwt>
<rscale>  0 0.27562155E+03</rscale>
<asrwt>0</asrwt>
<pdfrwt beam="1">  1        1 0.23130170E-01 0.27562155E+03</pdfrwt>
<pdfrwt beam="2">  1       -1 0.19433938E-01 0.27562155E+03</pdfrwt>
<totfact> 0.44416464E+03</totfact>
</mgrwt>
</event>
<event>
 9    1  0.7944303E-001  0.2841783E+03  0.7818608E-02  0.1093428E+00
         -2   -1    0    0    0  501 -0.00000000000E+00  0.00000000000E+00  0.35166497763E+02  0.35166497763E+02  0.00000000000E+00 0. -1.
          2   -1    0    0  501    0  0.00000000000E+00 -0.00000000000E+00 -0.57410670053E+03  0.57410670053E+03  0.00000000000E+00 0. -1.
         35    2    1    2    0    0 -0.71054273576E-14 -0.71054273576E-14 -0.53894020277E+03  0.60927319830E+03  0.28417826799E+03 0.  0.
         25    2    3    3    0    0  0.47002932066E+02 -0.29683758750E+02 -0.35122400192E+03  0.37679942425E+03  0.12461583141E+03 0.  0.
         25    2    3    3    0    0 -0.47002932066E+02  0.29683758750E+02 -0.18771620085E+03  0.23247377404E+03  0.12536459787E+03 0.  0.
          5    1    4    4  502    0 -0.34550461518E+02  0.19970685348E+02 -0.12174597215E+03  0.12820582826E+03  0.47000000000E+01 0. -1.
         -5    1    4    4    0  502  0.81553393584E+02 -0.49654444098E+02 -0.22947802976E+03  0.24859359599E+03  0.47000000000E+01 0. -1.
          5    1    5    5  503    0 -0.68130492011E+01 -0.44322748558E+02 -0.10529851835E+03  0.11454602414E+03  0.47000000000E+01 0. -1.
         -5    1    5    5    0  503 -0.40189882864E+02  0.74006507309E+02 -0.82417682504E+02  0.11792774991E+03  0.47000000000E+01 0. -1.
<mgrwt>
<rscale>  0 0.28417827E+03</rscale>
<asrwt>0</asrwt>
<pdfrwt beam="1">  1        2 0.88324097E-01 0.28417827E+03</pdfrwt>
<pdfrwt beam="2">  1       -2 0.54102311E-02 0.28417827E+03</pdfrwt>
<totfact> 0.91887982E+03</totfact>
</mgrwt>
</event>
<event>
 9    1  0.7944303E-001  0.2789695E+03  0.7818608E-02  0.1096253E+00
          2   -1    0    0  501    0  0.00000000000E+00  0.00000000000E+00  0.22004568702E+03  0.22004568702E+03  0.00000000000E+00 0. -1.
         -2   -1    0    0    0  501 -0.00000000000E+00 -0.00000000000E+00 -0.88417993080E+02  0.88417993080E+02  0.00000000000E+00 0. -1.
         35    2    1    2    0    0  0.00000000000E+00  0.00000000000E+00  0.13162769394E+03  0.30846368010E+03  0.27896951828E+03 0.  0.
         25    2    3    3    0    0 -0.26626170485E+02 -0.50399178331E+02  0.39722098562E+02  0.14313541473E+03  0.12514340456E+03 0.  0.
         25    2    3    3    0    0  0.26626170485E+02  0.50399178331E+02  0.91905595381E+02  0.16532826537E+03  0.12505105652E+03 0.  0.
          5    1    4    4  502    0  0.16101465326E+02 -0.95583456109E+01  0.72747107121E+02  0.75265202789E+02  0.47000000000E+01 0. -1.
         -5    1    4    4    0  502 -0.42727635811E+02 -0.40840832720E+02 -0.33025008559E+02  0.67870211946E+02  0.47000000000E+01 0. -1.
          5    1    5    5  503    0  0.11087800433E+02  0.47977544628E+02 -0.19167024835E+02  0.53049495266E+02  0.47000000000E+01 0.  1.
         -5    1    5    5    0  503  0.15538370052E+02  0.24216337031E+01  0.11107262022E+03  0.11227877010E+03  0.47000000000E+01 0.  1.
<mgrwt>
<rscale>  0 0.27896952E+03</rscale>
<asrwt>0</asrwt>
<pdfrwt beam="1">  1        2 0.33853182E-01 0.27896952E+03</pdfrwt>
<pdfrwt beam="2">  1       -2 0.13602768E-01 0.27896952E+03</pdfrwt>
<totfact> 0.61354284E+03</totfact>
</mgrwt>
</event>
<event>
 9    1  0.7944303E-001  0.2709224E+03  0.7818608E-02  0.1100753E+00
          1   -1    0    0  501    0  0.00000000000E+00  0.00000000000E+00  0.29375070379E+03  0.29375070379E+03  0.00000000000E+00 0.  1.
         -1   -1    0    0    0  501 -0.00000000000E+00 -0.00000000000E+00 -0.62467061868E+02  0.62467061868E+02  0.00000000000E+00 0.  1.
         35    2    1    2    0    0  0.00000000000E+00 -0.71054273576E-14  0.23128364192E+03  0.35621776565E+03  0.27092244933E+03 0.  0.
         25    2    3    3    0    0 -0.14644723300E+02  0.49463158113E+02  0.12680558296E+03  0.18548434816E+03  0.12515476663E+03 0.  0.
         25    2    3    3    0    0  0.14644723300E+02 -0.49463158113E+02  0.10447805895E+03  0.17073341749E+03  0.12479248020E+03 0.  0.
          5    1    4    4  502    0  0.20329739381E+02 -0.35134351914E+02  0.57635425920E+02  0.70651633447E+02  0.47000000000E+01 0. -1.
         -5    1    4    4    0  502 -0.34974462681E+02  0.84597510027E+02  0.69170157045E+02  0.11483271471E+03  0.47000000000E+01 0. -1.
          5    1    5    5  503    0  0.23731535639E+02 -0.25222768955E+02 -0.22165483380E+02  0.41385655861E+02  0.47000000000E+01 0.  1.
         -5    1    5    5    0  503 -0.90868123393E+01 -0.24240389158E+02  0.12664354233E+03  0.12934776163E+03  0.47000000000E+01 0.  1.
<mgrwt>
<rscale>  0 0.27092245E+03</rscale>
<asrwt>0</asrwt>
<pdfrwt beam="1">  1        1 0.45192415E-01 0.27092245E+03</pdfrwt>
<pdfrwt beam="2">  1       -1 0.96103174E-02 0.27092245E+03</pdfrwt>
<totfact> 0.57917523E+03</totfact>
</mgrwt>
</event>
<event>
 9    1  0.7944303E-001  0.2816660E+03  0.7818608E-02  0.1094782E+00
          1   -1    0    0  501    0  0.00000000000E+00  0.00000000000E+00  0.91352133659E+03  0.91352133659E+03  0.00000000000E+00 0.  1.
         -1   -1    0    0    0  501 -0.00000000000E+00 -0.00000000000E+00 -0.21711514983E+02  0.21711514983E+02  0.00000000000E+00 0.  1.
         35    2    1    2    0    0  0.00000000000E+00  0.00000000000E+00  0.89180982161E+03  0.93523285157E+03  0.28166598791E+03 0.  0.
         25    2    3    3    0    0 -0.29291973151E+01  0.56784321188E+02  0.35135817369E+03  0.37741126175E+03  0.12551356481E+03 0.  0.
         25    2    3    3    0    0  0.29291973151E+01 -0.56784321188E+02  0.54045164792E+03  0.55782158982E+03  0.12587256651E+03 0.  0.
          5    1    4    4  502    0  0.58350267353E+02  0.42545399707E+02  0.15277257999E+03  0.16904560312E+03  0.47000000000E+01 0. -1.
         -5    1    4    4    0  502 -0.61279464668E+02  0.14238921480E+02  0.19858559370E+03  0.20836565864E+03  0.47000000000E+01 0. -1.
          5    1    5    5  503    0  0.39776397748E+02  0.81153125352E+01  0.66843660190E+02  0.78346569950E+02  0.47000000000E+01 0.  1.
         -5    1    5    5    0  503 -0.36847200433E+02 -0.64899633723E+02  0.47360798773E+03  0.47947501987E+03  0.47000000000E+01 0.  1.
<mgrwt>
<rscale>  0 0.28166599E+03</rscale>
<asrwt>0</asrwt>
<pdfrwt beam="1">  1        1 0.14054171E+00 0.28166599E+03</pdfrwt>
<pdfrwt beam="2">  1       -1 0.33402338E-02 0.28166599E+03</pdfrwt>
<totfact> 0.59915884E+03</totfact>
</mgrwt>
</event>
<event>
 9    1  0.7944303E-001  0.2752833E+03  0.7818608E-02  0.1098293E+00
          2   -1    0    0  501    0  0.00000000000E+00  0.00000000000E+00  0.28040356256E+02  0.28040356256E+02  0.00000000000E+00 0.  1.
         -2   -1    0    0    0  501 -0.00000000000E+00 -0.00000000000E+00 -0.67564119556E+03  0.67564119556E+03  0.00000000000E+00 0.  1.
         35    2    1    2    0    0  0.00000000000E+00 -0.71054273576E-14 -0.64760083931E+03  0.70368155182E+03  0.27528327101E+03 0.  0.
         25    2    3    3    0    0 -0.13347253533E+02 -0.53916642756E+02 -0.25102194152E+03  0.28581263521E+03  0.12486670404E+03 0.  0.
         25    2    3    3    0    0  0.13347253533E+02  0.53916642756E+02 -0.39657889778E+03  0.41786891661E+03  0.11939202551E+03 0.  0.
          5    1    4    4  502    0  0.17212961996E+02 -0.55367411538E+02 -0.35647284635E+02  0.68225033697E+02  0.47000000000E+01 0.  1.
         -5    1    4    4    0  502 -0.30560215529E+02  0.14507687814E+01 -0.21537465689E+03  0.21758760151E+03  0.47000000000E+01 0.  1.
          5    1    5    5  503    0  0.40489355171E+02  0.58489384787E+02 -0.37720522260E+03  0.38388314104E+03  0.47000000000E+01 0.  1.
         -5    1    5    5    0  503 -0.27142101638E+02 -0.45727420310E+01 -0.19373675182E+02  0.33985775570E+02  0.47000000000E+01 0.  1.
<mgrwt>
<rscale>  0 0.27528327E+03</rscale>
<asrwt>0</asrwt>
<pdfrwt beam="1">  1        2 0.43139010E-02 0.27528327E+03</pdfrwt>
<pdfrwt beam="2">  1       -2 0.10394480E+00 0.27528327E+03</pdfrwt>
<totfact> 0.14985171E+03</totfact>
</mgrwt>
</event>
<event>
 9    1  0.7944303E-001  0.2751604E+03  0.7818608E-02  0.1098362E+00
         -1   -1    0    0    0  501 -0.00000000000E+00  0.00000000000E+00  0.18286868252E+03  0.18286868252E+03  0.00000000000E+00 0.  1.
          1   -1    0    0  501    0  0.00000000000E+00 -0.00000000000E+00 -0.10350763502E+03  0.10350763502E+03  0.00000000000E+00 0.  1.
         35    2    1    2    0    0  0.71054273576E-14  0.00000000000E+00  0.79361047506E+02  0.28637631754E+03  0.27516035213E+03 0.  0.
         25    2    3    3    0    0 -0.52620017518E+02 -0.22393266864E+02  0.29119530772E+02  0.14017276827E+03  0.12461995525E+03 0.  0.
         25    2    3    3    0    0  0.52620017518E+02  0.22393266864E+02  0.50241516734E+02  0.14620354927E+03  0.12482364828E+03 0.  0.
          5    1    4    4  502    0 -0.67974191911E+02 -0.62665506143E+02  0.28331287660E+02  0.96810166236E+02  0.47000000000E+01 0.  1.
         -5    1    4    4    0  502  0.15354174393E+02  0.40272239279E+02  0.78824311224E+00  0.43362602032E+02  0.47000000000E+01 0.  1.
          5    1    5    5  503    0 -0.12725964404E+02 -0.42769517330E+02  0.17787835315E+02  0.48266747020E+02  0.47000000000E+01 0.  1.
         -5    1    5    5    0  503  0.65345981922E+02  0.65162784194E+02  0.32453681419E+02  0.97936802250E+02  0.47000000000E+01 0.  1.
<mgrwt>
<rscale>  0 0.27516035E+03</rscale>
<asrwt>0</asrwt>
<pdfrwt beam="1">  1        1 0.15924252E-01 0.27516035E+03</pdfrwt>
<pdfrwt beam="2">  1       -1 0.28133643E-01 0.27516035E+03</pdfrwt>
<totfact> 0.39043727E+03</totfact>
</mgrwt>
</event>
<event>
 9    1  0.7944303E-001  0.2760403E+03  0.7818608E-02  0.1097872E+00
         -2   -1    0    0    0  501 -0.00000000000E+00  0.00000000000E+00  0.23881306105E+02  0.23881306105E+02  0.00000000000E+00 0. -1.
          2   -1    0    0  501    0  0.00000000000E+00 -0.00000000000E+00 -0.79767671204E+03  0.79767671204E+03  0.00000000000E+00 0. -1.
         35    2    1    2    0    0  0.71054273576E-14 -0.71054273576E-14 -0.77379540593E+03  0.82155801814E+03  0.27604029947E+03 0.  0.
         25    2    3    3    0    0 -0.33115007095E+02 -0.37232689536E+02 -0.48451721617E+03  0.50263037013E+03  0.12408658003E+03 0.  0.
         25    2    3    3    0    0  0.33115007095E+02  0.37232689536E+02 -0.28927818976E+03  0.31892764801E+03  0.12470002699E+03 0.  0.
          5    1    4    4  502    0 -0.53229638701E+02 -0.20987189262E+02 -0.46817978422E+03  0.47168660878E+03  0.47000000000E+01 0.  1.
         -5    1    4    4    0  502  0.20114631605E+02 -0.16245500274E+02 -0.16337431957E+02  0.30943761354E+02  0.47000000000E+01 0.  1.
          5    1    5    5  503    0  0.13309972849E+02  0.37711720368E+02 -0.29503386642E+03  0.29776904064E+03  0.47000000000E+01 0.  1.
         -5    1    5    5    0  503  0.19805034246E+02 -0.47903083151E+00  0.57556766604E+01  0.21158607370E+02  0.47000000000E+01 0.  1.
<mgrwt>
<rscale>  0 0.27604030E+03</rscale>
<asrwt>0</asrwt>
<pdfrwt beam="1">  1        2 0.12271948E+00 0.27604030E+03</pdfrwt>
<pdfrwt beam="2">  1       -2 0.36740474E-02 0.27604030E+03</pdfrwt>
<totfact> 0.11090027E+04</totfact>
</mgrwt>
</event>
<event>
 9    1  0.7944303E-001  0.2728205E+03  0.7818608E-02  0.1099676E+00
          2   -1    0    0  501    0  0.00000000000E+00  0.00000000000E+00  0.35298166505E+03  0.35298166505E+03  0.00000000000E+00 0.  1.
         -2   -1    0    0    0  501 -0.00000000000E+00 -0.00000000000E+00 -0.52715944680E+02  0.52715944680E+02  0.00000000000E+00 0.  1.
         35    2    1    2    0    0  0.00000000000E+00  0.71054273576E-14  0.30026572037E+03  0.40569760973E+03  0.27282054122E+03 0.  0.
         25    2    3    3    0    0  0.15752378038E+02  0.15690692775E+02  0.22332698133E+03  0.25694232710E+03  0.12510029420E+03 0.  0.
         25    2    3    3    0    0 -0.15752378038E+02 -0.15690692775E+02  0.76938739036E+02  0.14875528263E+03  0.12535640906E+03 0.  0.
          5    1    4    4  502    0  0.19954890899E+02 -0.50383800296E+02  0.61910634606E+02  0.82412023882E+02  0.47000000000E+01 0.  1.
         -5    1    4    4    0  502 -0.42025128614E+01  0.66074493071E+02  0.16141634673E+03  0.17453030321E+03  0.47000000000E+01 0.  1.
          5    1    5    5  503    0  0.86551488668E+01 -0.66840456932E+02  0.25948408369E+02  0.72373808672E+02  0.47000000000E+01 0.  1.
         -5    1    5    5    0  503 -0.24407526905E+02  0.51149764157E+02  0.50990330668E+02  0.76381473962E+02  0.47000000000E+01 0.  1.
<mgrwt>
<rscale>  0 0.27282054E+03</rscale>
<asrwt>0</asrwt>
<pdfrwt beam="1">  1        2 0.54304870E-01 0.27282054E+03</pdfrwt>
<pdfrwt beam="2">  1       -2 0.81101456E-02 0.27282054E+03</pdfrwt>
<totfact> 0.84091478E+03</totfact>
</mgrwt>
</event>
<event>
 9    1  0.7944303E-001  0.2740397E+03  0.7818608E-02  0.1098990E+00
         -1   -1    0    0    0  501 -0.00000000000E+00  0.00000000000E+00  0.40742957489E+02  0.40742957489E+02  0.00000000000E+00 0. -1.
          1   -1    0    0  501    0  0.00000000000E+00 -0.00000000000E+00 -0.46080216244E+03  0.46080216244E+03  0.00000000000E+00 0. -1.
         35    2    1    2    0    0  0.00000000000E+00  0.00000000000E+00 -0.42005920496E+03  0.50154511993E+03  0.27403972643E+03 0.  0.
         25    2    3    3    0    0  0.33650638035E+02 -0.15964013548E+02 -0.14524609491E+03  0.19700688048E+03  0.12778132767E+03 0.  0.
         25    2    3    3    0    0 -0.33650638035E+02  0.15964013548E+02 -0.27481311004E+03  0.30453823945E+03  0.12583353555E+03 0.  0.
          5    1    4    4  502    0  0.12489876808E+02 -0.41580920364E+02  0.41702682405E+01  0.43868566174E+02  0.47000000000E+01 0. -1.
         -5    1    4    4    0  502  0.21160761226E+02  0.25616906816E+02 -0.14941636315E+03  0.15313831431E+03  0.47000000000E+01 0. -1.
          5    1    5    5  503    0  0.90693655494E+01  0.53717902127E+01 -0.25629862765E+03  0.25655834825E+03  0.47000000000E+01 0. -1.
         -5    1    5    5    0  503 -0.42720003584E+02  0.10592223335E+02 -0.18514482390E+02  0.47979891200E+02  0.47000000000E+01 0. -1.
<mgrwt>
<rscale>  0 0.27403973E+03</rscale>
<asrwt>0</asrwt>
<pdfrwt beam="1">  1        1 0.70892645E-01 0.27403973E+03</pdfrwt>
<pdfrwt beam="2">  1       -1 0.62681469E-02 0.27403973E+03</pdfrwt>
<totfact> 0.62609745E+03</totfact>
</mgrwt>
</event>
<event>
 9    1  0.7944303E-001  0.2740094E+03  0.7818608E-02  0.1099007E+00
         -1   -1    0    0    0  501 -0.00000000000E+00  0.00000000000E+00  0.48153153516E+03  0.48153153516E+03  0.00000000000E+00 0.  1.
          1   -1    0    0  501    0  0.00000000000E+00 -0.00000000000E+00 -0.38980405357E+02  0.38980405357E+02  0.00000000000E+00 0.  1.
         35    2    1    2    0    0 -0.88817841970E-15  0.35527136788E-14  0.44255112980E+03  0.52051194051E+03  0.27400944825E+03 0.  0.
         25    2    3    3    0    0 -0.17831363372E+01 -0.14874442845E+02  0.11906418698E+03  0.17327217971E+03  0.12499015568E+03 0.  0.
         25    2    3    3    0    0  0.17831363372E+01  0.14874442845E+02  0.32348694282E+03  0.34723976080E+03  0.12532845120E+03 0.  0.
          5    1    4    4  502    0 -0.24640889693E+02 -0.41608518055E+02 -0.46399234573E+00  0.48587524206E+02  0.47000000000E+01 0. -1.
         -5    1    4    4    0  502  0.22857753356E+02  0.26734075210E+02  0.11952817932E+03  0.12468465550E+03  0.47000000000E+01 0. -1.
          5    1    5    5  503    0  0.76983921790E+01 -0.38996325313E+02  0.33500792416E+02  0.52195514391E+02  0.47000000000E+01 0. -1.
         -5    1    5    5    0  503 -0.59152558418E+01  0.53870768158E+02  0.28998615040E+03  0.29504424641E+03  0.47000000000E+01 0. -1.
<mgrwt>
<rscale>  0 0.27400945E+03</rscale>
<asrwt>0</asrwt>
<pdfrwt beam="1">  1        1 0.59969858E-02 0.27400945E+03</pdfrwt>
<pdfrwt beam="2">  1       -1 0.74081770E-01 0.27400945E+03</pdfrwt>
<totfact> 0.24659739E+03</totfact>
</mgrwt>
</event>
<event>
 9    1  0.7944303E-001  0.2773564E+03  0.7818608E-02  0.1097142E+00
         -2   -1    0    0    0  501 -0.00000000000E+00  0.00000000000E+00  0.40122409095E+03  0.40122409095E+03  0.00000000000E+00 0.  1.
          2   -1    0    0  501    0  0.00000000000E+00 -0.00000000000E+00 -0.47932437084E+02  0.47932437084E+02  0.00000000000E+00 0.  1.
         35    2    1    2    0    0  0.00000000000E+00 -0.71054273576E-14  0.35329165386E+03  0.44915652803E+03  0.27735643851E+03 0.  0.
         25    2    3    3    0    0  0.28456413211E+00 -0.56081900690E+02  0.14456644856E+03  0.19941525565E+03  0.12538630537E+03 0.  0.
         25    2    3    3    0    0 -0.28456413211E+00  0.56081900690E+02  0.20872520530E+03  0.24974127238E+03  0.12513685006E+03 0.  0.
          5    1    4    4  502    0 -0.12669699307E+02 -0.92559127279E+02  0.12401693358E+03  0.15533835051E+03  0.47000000000E+01 0.  1.
         -5    1    4    4    0  502  0.12954263439E+02  0.36477226589E+02  0.20549514980E+02  0.44076905141E+02  0.47000000000E+01 0.  1.
          5    1    5    5  503    0 -0.61808691426E+02  0.29293518084E+02  0.12250025485E+03  0.14038100646E+03  0.47000000000E+01 0.  1.
         -5    1    5    5    0  503  0.61524127293E+02  0.26788382606E+02  0.86224950451E+02  0.10936026592E+03  0.47000000000E+01 0.  1.
<mgrwt>
<rscale>  0 0.27735644E+03</rscale>
<asrwt>0</asrwt>
<pdfrwt beam="1">  1        2 0.73742214E-02 0.27735644E+03</pdfrwt>
<pdfrwt beam="2">  1       -2 0.61726781E-01 0.27735644E+03</pdfrwt>
<totfact> 0.23478630E+03</totfact>
</mgrwt>
</event>
<event>
 9    1  0.7944303E-001  0.3150817E+03  0.7818608E-02  0.1077935E+00
          2   -1    0    0  501    0  0.00000000000E+00  0.00000000000E+00  0.35138795619E+03  0.35138795619E+03  0.00000000000E+00 0.  1.
         -2   -1    0    0    0  501 -0.00000000000E+00 -0.00000000000E+00 -0.70631667530E+02  0.70631667530E+02  0.00000000000E+00 0.  1.
         35    2    1    2    0    0  0.71054273576E-14  0.00000000000E+00  0.28075628866E+03  0.42201962372E+03  0.31508168652E+03 0.  0.
         25    2    3    3    0    0 -0.55331054352E+02  0.72206045890E+02  0.21448653422E+03  0.26251322169E+03  0.12096891981E+03 0.  0.
         25    2    3    3    0    0  0.55331054352E+02 -0.72206045890E+02  0.66269754435E+02  0.15950640203E+03  0.11302819691E+03 0.  0.
          5    1    4    4  502    0  0.25098644283E+02  0.40302434846E+02  0.24358051067E+02  0.53568954173E+02  0.47000000000E+01 0.  1.
         -5    1    4    4    0  502 -0.80429698635E+02  0.31903611044E+02  0.19012848316E+03  0.20894426752E+03  0.47000000000E+01 0.  1.
          5    1    5    5  503    0  0.18867127916E+02  0.10902995133E+02 -0.23061565251E+02  0.32074438584E+02  0.47000000000E+01 0. -1.
         -5    1    5    5    0  503  0.36463926436E+02 -0.83109041023E+02  0.89331319687E+02  0.12743196345E+03  0.47000000000E+01 0. -1.
<mgrwt>
<rscale>  0 0.31508169E+03</rscale>
<asrwt>0</asrwt>
<pdfrwt beam="1">  1        2 0.54059685E-01 0.31508169E+03</pdfrwt>
<pdfrwt beam="2">  1       -2 0.10866411E-01 0.31508169E+03</pdfrwt>
<totfact> 0.53412821E+03</totfact>
</mgrwt>
</event>
<event>
 9    1  0.7944303E-001  0.2787996E+03  0.7818608E-02  0.1096346E+00
          1   -1    0    0  501    0  0.00000000000E+00  0.00000000000E+00  0.40336305281E+02  0.40336305281E+02  0.00000000000E+00 0. -1.
         -1   -1    0    0    0  501 -0.00000000000E+00 -0.00000000000E+00 -0.48175722533E+03  0.48175722533E+03  0.00000000000E+00 0. -1.
         35    2    1    2    0    0  0.71054273576E-14  0.14210854715E-13 -0.44142092005E+03  0.52209353061E+03  0.27879961630E+03 0.  0.
         25    2    3    3    0    0  0.46963814150E+02  0.35931122260E+02 -0.19669624853E+03  0.24100155969E+03  0.12607811944E+03 0.  0.
         25    2    3    3    0    0 -0.46963814150E+02 -0.35931122260E+02 -0.24472467152E+03  0.28109197092E+03  0.12500354347E+03 0.  0.
          5    1    4    4  502    0 -0.80416566639E+01  0.71830378323E+02 -0.11716584814E+03  0.13774686008E+03  0.47000000000E+01 0.  1.
         -5    1    4    4    0  502  0.55005470814E+02 -0.35899256063E+02 -0.79530400390E+02  0.10325469961E+03  0.47000000000E+01 0.  1.
          5    1    5    5  503    0 -0.33827242749E+02  0.40165313134E+02 -0.54942381894E+02  0.76146503920E+02  0.47000000000E+01 0. -1.
         -5    1    5    5    0  503 -0.13136571400E+02 -0.76096435394E+02 -0.18978228963E+03  0.20494546700E+03  0.47000000000E+01 0. -1.
<mgrwt>
<rscale>  0 0.27879962E+03</rscale>
<asrwt>0</asrwt>
<pdfrwt beam="1">  1        1 0.62055854E-02 0.27879962E+03</pdfrwt>
<pdfrwt beam="2">  1       -1 0.74116496E-01 0.27879962E+03</pdfrwt>
<totfact> 0.23513331E+03</totfact>
</mgrwt>
</event>
<event>
 9    1  0.7944303E-001  0.2745633E+03  0.7818608E-02  0.1098696E+00
         -1   -1    0    0    0  501 -0.00000000000E+00  0.00000000000E+00  0.97397367393E+01  0.97397367393E+01  0.00000000000E+00 0.  1.
          1   -1    0    0  501    0  0.00000000000E+00 -0.00000000000E+00 -0.19349859441E+04  0.19349859441E+04  0.00000000000E+00 0.  1.
         35    2    1    2    0    0  0.71054273576E-14  0.00000000000E+00 -0.19252462073E+04  0.19447256808E+04  0.27456331648E+03 0.  0.
         25    2    3    3    0    0  0.28096171281E+02  0.24519997928E+02 -0.68872301879E+03  0.70082971721E+03  0.12422669112E+03 0.  0.
         25    2    3    3    0    0 -0.28096171281E+02 -0.24519997928E+02 -0.12365231885E+04  0.12438959636E+04  0.12998825832E+03 0.  0.
          5    1    4    4  502    0  0.44165799116E+02  0.49746610342E+02 -0.19326651262E+03  0.20444896173E+03  0.47000000000E+01 0. -1.
         -5    1    4    4    0  502 -0.16069627835E+02 -0.25226612414E+02 -0.49545650617E+03  0.49638075549E+03  0.47000000000E+01 0. -1.
          5    1    5    5  503    0  0.49814856656E+02 -0.25866609676E+02 -0.45115842818E+03  0.45466099322E+03  0.47000000000E+01 0.  1.
         -5    1    5    5    0  503 -0.77911027937E+02  0.13466117483E+01 -0.78536476037E+03  0.78923497038E+03  0.47000000000E+01 0.  1.
<mgrwt>
<rscale>  0 0.27456332E+03</rscale>
<asrwt>0</asrwt>
<pdfrwt beam="1">  1        1 0.29768961E+00 0.27456332E+03</pdfrwt>
<pdfrwt beam="2">  1       -1 0.14984238E-02 0.27456332E+03</pdfrwt>
<totfact> 0.38867922E+03</totfact>
</mgrwt>
</event>
<event>
 9    1  0.7944303E-001  0.2770649E+03  0.7818608E-02  0.1097303E+00
         -2   -1    0    0    0  501 -0.00000000000E+00  0.00000000000E+00  0.84728827487E+02  0.84728827487E+02  0.00000000000E+00 0. -1.
          2   -1    0    0  501    0  0.00000000000E+00 -0.00000000000E+00 -0.22650192349E+03  0.22650192349E+03  0.00000000000E+00 0. -1.
         35    2    1    2    0    0  0.00000000000E+00  0.00000000000E+00 -0.14177309601E+03  0.31123075098E+03  0.27706491948E+03 0.  0.
         25    2    3    3    0    0  0.48351916809E+01  0.17702441306E+02 -0.98539585747E+01  0.12860496733E+03  0.12690698017E+03 0.  0.
         25    2    3    3    0    0 -0.48351916809E+01 -0.17702441306E+02 -0.13191913743E+03  0.18262578365E+03  0.12495104052E+03 0.  0.
          5    1    4    4  502    0 -0.56727027752E+02 -0.73393010088E+01 -0.20879061293E+02  0.61072466934E+02  0.47000000000E+01 0. -1.
         -5    1    4    4    0  502  0.61562219433E+02  0.25041742315E+02  0.11025102719E+02  0.67532500395E+02  0.47000000000E+01 0. -1.
          5    1    5    5  503    0  0.42517902869E+02 -0.24103278091E+02 -0.80230916614E+01  0.49751382684E+02  0.47000000000E+01 0. -1.
         -5    1    5    5    0  503 -0.47353094550E+02  0.64008367856E+01 -0.12389604577E+03  0.13287440097E+03  0.47000000000E+01 0. -1.
<mgrwt>
<rscale>  0 0.27706492E+03</rscale>
<asrwt>0</asrwt>
<pdfrwt beam="1">  1        2 0.34846449E-01 0.27706492E+03</pdfrwt>
<pdfrwt beam="2">  1       -2 0.13035204E-01 0.27706492E+03</pdfrwt>
<totfact> 0.63722105E+03</totfact>
</mgrwt>
</event>
<event>
 9    1  0.7944303E-001  0.2750511E+03  0.7818608E-02  0.1098423E+00
         -1   -1    0    0    0  501 -0.00000000000E+00  0.00000000000E+00  0.38984364761E+02  0.38984364761E+02  0.00000000000E+00 0. -1.
          1   -1    0    0  501    0  0.00000000000E+00 -0.00000000000E+00 -0.48515029439E+03  0.48515029439E+03  0.00000000000E+00 0. -1.
         35    2    1    2    0    0 -0.26645352591E-14  0.00000000000E+00 -0.44616592963E+03  0.52413465915E+03  0.27505109373E+03 0.  0.
         25    2    3    3    0    0 -0.77005599971E+01 -0.41342196361E+02 -0.14643996500E+03  0.19688328008E+03  0.12469918525E+03 0.  0.
         25    2    3    3    0    0  0.77005599971E+01  0.41342196361E+02 -0.29972596463E+03  0.32725137907E+03  0.12445615858E+03 0.  0.
          5    1    4    4  502    0 -0.13443431163E+02  0.27301458786E+02 -0.11844126512E+03  0.12237858790E+03  0.47000000000E+01 0.  1.
         -5    1    4    4    0  502  0.57428711658E+01 -0.68643655147E+02 -0.27998699875E+02  0.74504692174E+02  0.47000000000E+01 0.  1.
          5    1    5    5  503    0 -0.37742582833E+02  0.61835366521E+02 -0.11616380931E+03  0.13698261096E+03  0.47000000000E+01 0.  1.
         -5    1    5    5    0  503  0.45443142830E+02 -0.20493170160E+02 -0.18356215533E+03  0.19026876812E+03  0.47000000000E+01 0.  1.
<mgrwt>
<rscale>  0 0.27505109E+03</rscale>
<asrwt>0</asrwt>
<pdfrwt beam="1">  1        1 0.74638510E-01 0.27505109E+03</pdfrwt>
<pdfrwt beam="2">  1       -1 0.59975943E-02 0.27505109E+03</pdfrwt>
<totfact> 0.62549306E+03</totfact>
</mgrwt>
</event>
<event>
 9    1  0.7944303E-001  0.2802039E+03  0.7818608E-02  0.1095578E+00
          1   -1    0    0  501    0  0.00000000000E+00  0.00000000000E+00  0.22502509292E+04  0.22502509292E+04  0.00000000000E+00 0. -1.
         -1   -1    0    0    0  501 -0.00000000000E+00 -0.00000000000E+00 -0.87228293101E+01  0.87228293101E+01  0.00000000000E+00 0. -1.
         35    2    1    2    0    0  0.00000000000E+00 -0.71054273576E-14  0.22415280998E+04  0.22589737585E+04  0.28020388834E+03 0.  0.
         25    2    3    3    0    0 -0.52424611535E+02  0.33543326333E+02  0.12332195962E+04  0.12410670881E+04  0.12467337347E+03 0.  0.
         25    2    3    3    0    0  0.52424611535E+02 -0.33543326333E+02  0.10083085037E+04  0.10179066704E+04  0.12479766198E+03 0.  0.
          5    1    4    4  502    0  0.16240789327E+02 -0.13577436161E+02  0.45296935098E+02  0.50219640978E+02  0.47000000000E+01 0.  1.
         -5    1    4    4    0  502 -0.68665400861E+02  0.47120762493E+02  0.11879226611E+04  0.11908474471E+04  0.47000000000E+01 0.  1.
          5    1    5    5  503    0 -0.12031071761E+01  0.38576256464E+02  0.51430361274E+03  0.51577114218E+03  0.47000000000E+01 0. -1.
         -5    1    5    5    0  503  0.53627718711E+02 -0.72119582797E+02  0.49400489092E+03  0.50213552821E+03  0.47000000000E+01 0. -1.
<mgrwt>
<rscale>  0 0.28020389E+03</rscale>
<asrwt>0</asrwt>
<pdfrwt beam="1">  1        1 0.34619199E+00 0.28020389E+03</pdfrwt>
<pdfrwt beam="2">  1       -1 0.13419755E-02 0.28020389E+03</pdfrwt>
<totfact> 0.28438245E+03</totfact>
</mgrwt>
</event>
<event>
 9    1  0.7944303E-001  0.2730241E+03  0.7818608E-02  0.1099561E+00
         -2   -1    0    0    0  501 -0.00000000000E+00  0.00000000000E+00  0.53500921915E+03  0.53500921915E+03  0.00000000000E+00 0. -1.
          2   -1    0    0  501    0  0.00000000000E+00 -0.00000000000E+00 -0.34832179427E+02  0.34832179427E+02  0.00000000000E+00 0. -1.
         35    2    1    2    0    0  0.35527136788E-14 -0.17763568394E-14  0.50017703973E+03  0.56984139858E+03  0.27302408038E+03 0.  0.
         25    2    3    3    0    0  0.61416181149E+01 -0.82414014218E+01  0.15279180141E+03  0.20133729315E+03  0.13071239751E+03 0.  0.
         25    2    3    3    0    0 -0.61416181149E+01  0.82414014218E+01  0.34738523832E+03  0.36850410543E+03  0.12252808556E+03 0.  0.
          5    1    4    4  502    0  0.41522267910E+02 -0.53527554421E+02  0.11099973470E+03  0.13012428258E+03  0.47000000000E+01 0. -1.
         -5    1    4    4    0  502 -0.35380649795E+02  0.45286152999E+02  0.41792066715E+02  0.71213010565E+02  0.47000000000E+01 0. -1.
          5    1    5    5  503    0 -0.26794380762E+02 -0.46051109191E+01  0.87223186922E+01  0.28936391109E+02  0.47000000000E+01 0.  1.
         -5    1    5    5    0  503  0.20652762647E+02  0.12846512341E+02  0.33866291962E+03  0.33956771433E+03  0.47000000000E+01 0.  1.
<mgrwt>
<rscale>  0 0.27302408E+03</rscale>
<asrwt>0</asrwt>
<pdfrwt beam="1">  1        2 0.53587972E-02 0.27302408E+03</pdfrwt>
<pdfrwt beam="2">  1       -2 0.82309105E-01 0.27302408E+03</pdfrwt>
<totfact> 0.19132615E+03</totfact>
</mgrwt>
</event>
<event>
 9    1  0.7944303E-001  0.2789571E+03  0.7818608E-02  0.1096260E+00
          2   -1    0    0  501    0  0.00000000000E+00  0.00000000000E+00  0.28183141352E+03  0.28183141352E+03  0.00000000000E+00 0.  1.
         -2   -1    0    0    0  501 -0.00000000000E+00 -0.00000000000E+00 -0.69028016356E+02  0.69028016356E+02  0.00000000000E+00 0.  1.
         35    2    1    2    0    0  0.00000000000E+00 -0.71054273576E-14  0.21280339717E+03  0.35085942988E+03  0.27895708216E+03 0.  0.
         25    2    3    3    0    0 -0.21765406365E+02  0.34040828260E+02  0.16367229430E+03  0.21013685279E+03  0.12544467336E+03 0.  0.
         25    2    3    3    0    0  0.21765406365E+02 -0.34040828260E+02  0.49131102865E+02  0.14072257709E+03  0.12552476860E+03 0.  0.
          5    1    4    4  502    0 -0.19582499098E+02 -0.46704039908E+02  0.64922460922E+02  0.82472768517E+02  0.47000000000E+01 0.  1.
         -5    1    4    4    0  502 -0.21829072669E+01  0.80744868168E+02  0.98749833381E+02  0.12766408427E+03  0.47000000000E+01 0.  1.
          5    1    5    5  503    0  0.42407427434E+02  0.35709687997E+02  0.37024070290E+02  0.66831455911E+02  0.47000000000E+01 0. -1.
         -5    1    5    5    0  503 -0.20642021069E+02 -0.69750516257E+02  0.12107032576E+02  0.73891121183E+02  0.47000000000E+01 0. -1.
<mgrwt>
<rscale>  0 0.27895708E+03</rscale>
<asrwt>0</asrwt>
<pdfrwt beam="1">  1        2 0.43358679E-01 0.27895708E+03</pdfrwt>
<pdfrwt beam="2">  1       -2 0.10619695E-01 0.27895708E+03</pdfrwt>
<totfact> 0.70042535E+03</totfact>
</mgrwt>
</event>
<event>
 9    1  0.7944303E-001  0.2803085E+03  0.7818608E-02  0.1095521E+00
         -1   -1    0    0    0  501 -0.00000000000E+00  0.00000000000E+00  0.91074552302E+02  0.91074552302E+02  0.00000000000E+00 0. -1.
          1   -1    0    0  501    0  0.00000000000E+00 -0.00000000000E+00 -0.21568282450E+03  0.21568282450E+03  0.00000000000E+00 0. -1.
         35    2    1    2    0    0  0.00000000000E+00 -0.17763568394E-13 -0.12460827220E+03  0.30675737681E+03  0.28030852061E+03 0.  0.
         25    2    3    3    0    0 -0.46514524205E+02 -0.30156935813E+02 -0.37512931758E+02  0.14448940377E+03  0.12805048228E+03 0.  0.
         25    2    3    3    0    0  0.46514524205E+02  0.30156935813E+02 -0.87095340445E+02  0.16226797304E+03  0.12518887733E+03 0.  0.
          5    1    4    4  502    0 -0.42686938659E+02 -0.65950814720E+02  0.15524624887E+02  0.80217134530E+02  0.47000000000E+01 0.  1.
         -5    1    4    4    0  502 -0.38275855466E+01  0.35793878907E+02 -0.53037556645E+02  0.64272269240E+02  0.47000000000E+01 0.  1.
          5    1    5    5  503    0  0.77456671177E+02  0.54711684979E+02 -0.47597501486E+02  0.10620977606E+03  0.47000000000E+01 0. -1.
         -5    1    5    5    0  503 -0.30942146972E+02 -0.24554749167E+02 -0.39497838959E+02  0.56058196977E+02  0.47000000000E+01 0. -1.
<mgrwt>
<rscale>  0 0.28030852E+03</rscale>
<asrwt>0</asrwt>
<pdfrwt beam="1">  1        1 0.33181973E-01 0.28030852E+03</pdfrwt>
<pdfrwt beam="2">  1       -1 0.14011470E-01 0.28030852E+03</pdfrwt>
<totfact> 0.47469732E+03</totfact>
</mgrwt>
</event>
<event>
 9    1  0.7944303E-001  0.2741114E+03  0.7818608E-02  0.1098949E+00
          1   -1    0    0  501    0  0.00000000000E+00  0.00000000000E+00  0.19493700931E+03  0.19493700931E+03  0.00000000000E+00 0.  1.
         -1   -1    0    0    0  501 -0.00000000000E+00 -0.00000000000E+00 -0.96360723955E+02  0.96360723955E+02  0.00000000000E+00 0.  1.
         35    2    1    2    0    0  0.00000000000E+00  0.00000000000E+00  0.98576285356E+02  0.29129773327E+03  0.27411144699E+03 0.  0.
         25    2    3    3    0    0 -0.32944120107E+02  0.48213464337E+02  0.45620429220E+02  0.14240233600E+03  0.12160324232E+03 0.  0.
         25    2    3    3    0    0  0.32944120107E+02 -0.48213464337E+02  0.52955856136E+02  0.14889539727E+03  0.12631572917E+03 0.  0.
          5    1    4    4  502    0  0.29314885906E+02  0.34179030349E+02  0.61596064482E+02  0.76444318369E+02  0.47000000000E+01 0. -1.
         -5    1    4    4    0  502 -0.62259006013E+02  0.14034433988E+02 -0.15975635262E+02  0.65958017626E+02  0.47000000000E+01 0. -1.
          5    1    5    5  503    0 -0.44792074190E+02 -0.20092306811E+02 -0.22687681598E+01  0.49368694657E+02  0.47000000000E+01 0.  1.
         -5    1    5    5    0  503  0.77736194297E+02 -0.28121157526E+02  0.55224624296E+02  0.99526702613E+02  0.47000000000E+01 0.  1.
<mgrwt>
<rscale>  0 0.27411145E+03</rscale>
<asrwt>0</asrwt>
<pdfrwt beam="1">  1        1 0.29990309E-01 0.27411145E+03</pdfrwt>
<pdfrwt beam="2">  1       -1 0.14824727E-01 0.27411145E+03</pdfrwt>
<totfact> 0.49281237E+03</totfact>
</mgrwt>
</event>
<event>
 9    1  0.7944303E-001  0.2748399E+03  0.7818608E-02  0.1098541E+00
         -1   -1    0    0    0  501 -0.00000000000E+00  0.00000000000E+00  0.22129156264E+02  0.22129156264E+02  0.00000000000E+00 0. -1.
          1   -1    0    0  501    0  0.00000000000E+00 -0.00000000000E+00 -0.85336496887E+03  0.85336496887E+03  0.00000000000E+00 0. -1.
         35    2    1    2    0    0  0.00000000000E+00  0.00000000000E+00 -0.83123581261E+03  0.87549412514E+03  0.27483992975E+03 0.  0.
         25    2    3    3    0    0  0.95246759763E+01  0.57481952108E+02 -0.43748116498E+03  0.45831532319E+03  0.12356484730E+03 0.  0.
         25    2    3    3    0    0 -0.95246759763E+01 -0.57481952108E+02 -0.39375464763E+03  0.41717880195E+03  0.12490210564E+03 0.  0.
          5    1    4    4  502    0  0.20528343961E+02 -0.25763163946E+02 -0.39984679044E+02  0.52019401002E+02  0.47000000000E+01 0.  1.
         -5    1    4    4    0  502 -0.11003667985E+02  0.83245116054E+02 -0.39749648593E+03  0.40629592218E+03  0.47000000000E+01 0.  1.
          5    1    5    5  503    0 -0.38789500222E+01  0.39472731507E+02 -0.13384050237E+03  0.13967287804E+03  0.47000000000E+01 0. -1.
         -5    1    5    5    0  503 -0.56457259541E+01 -0.96954683615E+02 -0.25991414527E+03  0.27750592391E+03  0.47000000000E+01 0. -1.
<mgrwt>
<rscale>  0 0.27483993E+03</rscale>
<asrwt>0</asrwt>
<pdfrwt beam="1">  1        1 0.13128689E+00 0.27483993E+03</pdfrwt>
<pdfrwt beam="2">  1       -1 0.34044863E-02 0.27483993E+03</pdfrwt>
<totfact> 0.64980474E+03</totfact>
</mgrwt>
</event>
<event>
 9    1  0.7944303E-001  0.2742279E+03  0.7818608E-02  0.1098884E+00
         -2   -1    0    0    0  501 -0.00000000000E+00  0.00000000000E+00  0.13066700848E+03  0.13066700848E+03  0.00000000000E+00 0. -1.
          2   -1    0    0  501    0  0.00000000000E+00 -0.00000000000E+00 -0.14387892283E+03  0.14387892283E+03  0.00000000000E+00 0. -1.
         35    2    1    2    0    0  0.35527136788E-14  0.00000000000E+00 -0.13211914350E+02  0.27454593131E+03  0.27422785001E+03 0.  0.
         25    2    3    3    0    0  0.30478605352E+02 -0.34657585392E+02 -0.38446355175E+02  0.13876460441E+03  0.12508956632E+03 0.  0.
         25    2    3    3    0    0 -0.30478605352E+02  0.34657585392E+02  0.25234440824E+02  0.13578132690E+03  0.12517866481E+03 0.  0.
          5    1    4    4  502    0  0.87422866702E+01 -0.47174637726E+02  0.35935043980E+02  0.60127293359E+02  0.47000000000E+01 0.  1.
         -5    1    4    4    0  502  0.21736318681E+02  0.12517052334E+02 -0.74381399155E+02  0.78637311050E+02  0.47000000000E+01 0.  1.
          5    1    5    5  503    0  0.28556980519E+02  0.54528443020E+02 -0.12241696257E+02  0.62934897805E+02  0.47000000000E+01 0. -1.
         -5    1    5    5    0  503 -0.59035585870E+02 -0.19870857628E+02  0.37476137082E+02  0.72846429099E+02  0.47000000000E+01 0. -1.
<mgrwt>
<rscale>  0 0.27422785E+03</rscale>
<asrwt>0</asrwt>
<pdfrwt beam="1">  1        2 0.22135219E-01 0.27422785E+03</pdfrwt>
<pdfrwt beam="2">  1       -2 0.20102617E-01 0.27422785E+03</pdfrwt>
<totfact> 0.51111974E+03</totfact>
</mgrwt>
</event>
<event>
 9    1  0.7944303E-001  0.2728130E+03  0.7818608E-02  0.1099680E+00
         -2   -1    0    0    0  501 -0.00000000000E+00  0.00000000000E+00  0.19736832953E+02  0.19736832953E+02  0.00000000000E+00 0. -1.
          2   -1    0    0  501    0  0.00000000000E+00 -0.00000000000E+00 -0.94274183403E+03  0.94274183403E+03  0.00000000000E+00 0. -1.
         35    2    1    2    0    0  0.00000000000E+00  0.71054273576E-14 -0.92300500108E+03  0.96247866699E+03  0.27281303558E+03 0.  0.
         25    2    3    3    0    0  0.44859808209E+02 -0.30439804300E+02 -0.50227090379E+03  0.52027563070E+03  0.12438523638E+03 0.  0.
         25    2    3    3    0    0 -0.44859808209E+02  0.30439804300E+02 -0.42073409729E+03  0.44220303628E+03  0.12484935161E+03 0.  0.
          5    1    4    4  502    0  0.62773751788E+02  0.31024920583E+02 -0.29815904947E+03  0.30630703288E+03  0.47000000000E+01 0. -1.
         -5    1    4    4    0  502 -0.17913943579E+02 -0.61464724883E+02 -0.20411185432E+03  0.21396859782E+03  0.47000000000E+01 0. -1.
          5    1    5    5  503    0  0.15779627120E+01  0.64238194757E+02 -0.12206561238E+03  0.13802586482E+03  0.47000000000E+01 0. -1.
         -5    1    5    5    0  503 -0.46437770921E+02 -0.33798390457E+02 -0.29866848491E+03  0.30417717147E+03  0.47000000000E+01 0. -1.
<mgrwt>
<rscale>  0 0.27281304E+03</rscale>
<asrwt>0</asrwt>
<pdfrwt beam="1">  1        2 0.14503720E+00 0.27281304E+03</pdfrwt>
<pdfrwt beam="2">  1       -2 0.30364359E-02 0.27281304E+03</pdfrwt>
<totfact> 0.11825189E+04</totfact>
</mgrwt>
</event>
<event>
 9    1  0.7944303E-001  0.2925108E+03  0.7818608E-02  0.1089045E+00
         -2   -1    0    0    0  501 -0.00000000000E+00  0.00000000000E+00  0.16325078645E+03  0.16325078645E+03  0.00000000000E+00 0. -1.
          2   -1    0    0  501    0  0.00000000000E+00 -0.00000000000E+00 -0.13102932262E+03  0.13102932262E+03  0.00000000000E+00 0. -1.
         35    2    1    2    0    0 -0.14210854715E-13  0.00000000000E+00  0.32221463823E+02  0.29428010907E+03  0.29251078589E+03 0.  0.
         25    2    3    3    0    0 -0.73750007582E+02 -0.12476810742E+02  0.33049873725E+02  0.14893364726E+03  0.12447571132E+03 0.  0.
         25    2    3    3    0    0  0.73750007582E+02  0.12476810742E+02 -0.82840990115E+00  0.14534646181E+03  0.12462011584E+03 0.  0.
          5    1    4    4  502    0 -0.10517536879E+03  0.86908492509E+01  0.33267871475E+02  0.11075301500E+03  0.47000000000E+01 0. -1.
         -5    1    4    4    0  502  0.31425361203E+02 -0.21167659993E+02 -0.21799775008E+00  0.38180632254E+02  0.47000000000E+01 0. -1.
          5    1    5    5  503    0  0.66242819108E+02 -0.35788680311E+02 -0.37347355183E+02  0.84177524678E+02  0.47000000000E+01 0. -1.
         -5    1    5    5    0  503  0.75071884745E+01  0.48265491054E+02  0.36518945282E+02  0.61168937133E+02  0.47000000000E+01 0. -1.
<mgrwt>
<rscale>  0 0.29251079E+03</rscale>
<asrwt>0</asrwt>
<pdfrwt beam="1">  1        2 0.20158357E-01 0.29251079E+03</pdfrwt>
<pdfrwt beam="2">  1       -2 0.25115505E-01 0.29251079E+03</pdfrwt>
<totfact> 0.38681652E+03</totfact>
</mgrwt>
</event>
<event>
 9    1  0.7944303E-001  0.2724475E+03  0.7818608E-02  0.1099887E+00
          2   -1    0    0  501    0  0.00000000000E+00  0.00000000000E+00  0.10175758169E+04  0.10175758169E+04  0.00000000000E+00 0. -1.
         -2   -1    0    0    0  501 -0.00000000000E+00 -0.00000000000E+00 -0.18236388493E+02  0.18236388493E+02  0.00000000000E+00 0. -1.
         35    2    1    2    0    0  0.71054273576E-14 -0.14210854715E-13  0.99933942838E+03  0.10358122054E+04  0.27244748424E+03 0.  0.
         25    2    3    3    0    0  0.34296183367E+02 -0.29578161146E+02  0.33152053217E+03  0.35466525751E+03  0.11760308596E+03 0.  0.
         25    2    3    3    0    0 -0.34296183367E+02  0.29578161146E+02  0.66781889621E+03  0.68114694785E+03  0.12620614336E+03 0.  0.
          5    1    4    4  502    0  0.65576588223E+02  0.17583157718E+02  0.15633147983E+03  0.17050242797E+03  0.47000000000E+01 0.  1.
         -5    1    4    4    0  502 -0.31280404856E+02 -0.47161318864E+02  0.17518905234E+03  0.18416282954E+03  0.47000000000E+01 0.  1.
          5    1    5    5  503    0  0.15276257550E+02 -0.42600997117E+02  0.19222845109E+03  0.19754006279E+03  0.47000000000E+01 0. -1.
         -5    1    5    5    0  503 -0.49572440917E+02  0.72179158263E+02  0.47559044512E+03  0.48360688506E+03  0.47000000000E+01 0. -1.
<mgrwt>
<rscale>  0 0.27244748E+03</rscale>
<asrwt>0</asrwt>
<pdfrwt beam="1">  1        2 0.15655008E+00 0.27244748E+03</pdfrwt>
<pdfrwt beam="2">  1       -2 0.28055990E-02 0.27244748E+03</pdfrwt>
<totfact> 0.11955153E+04</totfact>
</mgrwt>
</event>
<event>
 9    1  0.7944303E-001  0.2738316E+03  0.7818608E-02  0.1099107E+00
          2   -1    0    0  501    0  0.00000000000E+00  0.00000000000E+00  0.23676673935E+03  0.23676673935E+03  0.00000000000E+00 0.  1.
         -2   -1    0    0    0  501 -0.00000000000E+00 -0.00000000000E+00 -0.79174679127E+02  0.79174679127E+02  0.00000000000E+00 0.  1.
         35    2    1    2    0    0  0.00000000000E+00  0.00000000000E+00  0.15759206022E+03  0.31594141847E+03  0.27383155856E+03 0.  0.
         25    2    3    3    0    0  0.21918050206E+02 -0.44182754264E+02  0.10293074084E+03  0.17056570816E+03  0.12674938537E+03 0.  0.
         25    2    3    3    0    0 -0.21918050206E+02  0.44182754264E+02  0.54661319381E+02  0.14537571031E+03  0.12535438011E+03 0.  0.
          5    1    4    4  502    0  0.60630784461E+02 -0.32620952808E+02  0.10791863481E+02  0.69848213319E+02  0.47000000000E+01 0.  1.
         -5    1    4    4    0  502 -0.38712734255E+02 -0.11561801456E+02  0.92138877359E+02  0.10071749484E+03  0.47000000000E+01 0.  1.
          5    1    5    5  503    0  0.26094760468E+02  0.56194816434E+02 -0.10911875597E+02  0.63086868262E+02  0.47000000000E+01 0. -1.
         -5    1    5    5    0  503 -0.48012810675E+02 -0.12012062171E+02  0.65573194978E+02  0.82288842051E+02  0.47000000000E+01 0. -1.
<mgrwt>
<rscale>  0 0.27383156E+03</rscale>
<asrwt>0</asrwt>
<pdfrwt beam="1">  1        2 0.36425652E-01 0.27383156E+03</pdfrwt>
<pdfrwt beam="2">  1       -2 0.12180720E-01 0.27383156E+03</pdfrwt>
<totfact> 0.67762517E+03</totfact>
</mgrwt>
</event>
<event>
 9    1  0.7944303E-001  0.2827956E+03  0.7818608E-02  0.1094172E+00
          2   -1    0    0  501    0  0.00000000000E+00  0.00000000000E+00  0.39447876347E+03  0.39447876347E+03  0.00000000000E+00 0.  1.
         -2   -1    0    0    0  501 -0.00000000000E+00 -0.00000000000E+00 -0.50682940601E+02  0.50682940601E+02  0.00000000000E+00 0.  1.
         35    2    1    2    0    0 -0.71054273576E-14  0.35527136788E-14  0.34379582287E+03  0.44516170407E+03  0.28279564167E+03 0.  0.
         25    2    3    3    0    0 -0.42636256300E+02 -0.31458158723E+02  0.10511567002E+03  0.17079348266E+03  0.12374830720E+03 0.  0.
         25    2    3    3    0    0  0.42636256300E+02  0.31458158723E+02  0.23868015285E+03  0.27436822141E+03  0.12450798951E+03 0.  0.
          5    1    4    4  502    0  0.92051158724E+01 -0.61857251925E+02  0.88128162335E+02  0.10816522903E+03  0.47000000000E+01 0. -1.
         -5    1    4    4    0  502 -0.51841372173E+02  0.30399093203E+02  0.16987507682E+02  0.62628253636E+02  0.47000000000E+01 0. -1.
          5    1    5    5  503    0  0.80760719030E+02  0.40272304297E+01  0.10507505680E+03  0.13267015446E+03  0.47000000000E+01 0.  1.
         -5    1    5    5    0  503 -0.38124462730E+02  0.27430928293E+02  0.13360509605E+03  0.14169806695E+03  0.47000000000E+01 0.  1.
<mgrwt>
<rscale>  0 0.28279564E+03</rscale>
<asrwt>0</asrwt>
<pdfrwt beam="1">  1        2 0.60689038E-01 0.28279564E+03</pdfrwt>
<pdfrwt beam="2">  1       -2 0.77973757E-02 0.28279564E+03</pdfrwt>
<totfact> 0.79387605E+03</totfact>
</mgrwt>
</event>
<event>
 9    1  0.7944303E-001  0.2739005E+03  0.7818608E-02  0.1099068E+00
         -2   -1    0    0    0  501 -0.00000000000E+00  0.00000000000E+00  0.19465173539E+03  0.19465173539E+03  0.00000000000E+00 0.  1.
          2   -1    0    0  501    0  0.00000000000E+00 -0.00000000000E+00 -0.96353469577E+02  0.96353469577E+02  0.00000000000E+00 0.  1.
         35    2    1    2    0    0 -0.35527136788E-14 -0.71054273576E-14  0.98298265814E+02  0.29100520497E+03  0.27390049335E+03 0.  0.
         25    2    3    3    0    0  0.12839248287E+02  0.41046680479E+02  0.11191939052E+02  0.13277164820E+03  0.12511344768E+03 0.  0.
         25    2    3    3    0    0 -0.12839248287E+02 -0.41046680479E+02  0.87106326762E+02  0.15823355677E+03  0.12490264229E+03 0.  0.
          5    1    4    4  502    0  0.64111816953E+02  0.35998683225E+02 -0.14372015232E+02  0.75065805057E+02  0.47000000000E+01 0. -1.
         -5    1    4    4    0  502 -0.51272568667E+02  0.50479972543E+01  0.25563954284E+02  0.57705843141E+02  0.47000000000E+01 0. -1.
          5    1    5    5  503    0  0.37815074089E+01  0.30721221994E+02  0.77761315624E+02  0.83827235947E+02  0.47000000000E+01 0. -1.
         -5    1    5    5    0  503 -0.16620755695E+02 -0.71767902473E+02  0.93450111383E+01  0.74406320823E+02  0.47000000000E+01 0. -1.
<mgrwt>
<rscale>  0 0.27390049E+03</rscale>
<asrwt>0</asrwt>
<pdfrwt beam="1">  1        2 0.14823611E-01 0.27390049E+03</pdfrwt>
<pdfrwt beam="2">  1       -2 0.29946421E-01 0.27390049E+03</pdfrwt>
<totfact> 0.40320138E+03</totfact>
</mgrwt>
</event>
<event>
 9    1  0.7944303E-001  0.2584017E+03  0.7818608E-02  0.1108107E+00
          1   -1    0    0  501    0  0.00000000000E+00  0.00000000000E+00  0.15555788904E+04  0.15555788904E+04  0.00000000000E+00 0. -1.
         -1   -1    0    0    0  501 -0.00000000000E+00 -0.00000000000E+00 -0.10730959388E+02  0.10730959388E+02  0.00000000000E+00 0. -1.
         35    2    1    2    0    0 -0.35527136788E-14  0.71054273576E-14  0.15448479310E+04  0.15663098498E+04  0.25840165555E+03 0.  0.
         25    2    3    3    0    0 -0.18180628077E+02  0.27307948016E+02  0.72389357982E+03  0.73515179747E+03  0.12389508125E+03 0.  0.
         25    2    3    3    0    0  0.18180628077E+02 -0.27307948016E+02  0.82095435121E+03  0.83115805234E+03  0.12562404996E+03 0.  0.
          5    1    4    4  502    0  0.13387520001E+02 -0.50844608604E+01  0.66597934891E+01  0.16477872537E+02  0.47000000000E+01 0.  1.
         -5    1    4    4    0  502 -0.31568148078E+02  0.32392408877E+02  0.71723378633E+03  0.71867392493E+03  0.47000000000E+01 0.  1.
          5    1    5    5  503    0  0.34143589351E+02 -0.15969871784E+02  0.80382449403E+03  0.80472152245E+03  0.47000000000E+01 0. -1.
         -5    1    5    5    0  503 -0.15962961273E+02 -0.11338076232E+02  0.17129857187E+02  0.26436529888E+02  0.47000000000E+01 0. -1.
<mgrwt>
<rscale>  0 0.25840166E+03</rscale>
<asrwt>0</asrwt>
<pdfrwt beam="1">  1        1 0.23931965E+00 0.25840166E+03</pdfrwt>
<pdfrwt beam="2">  1       -1 0.16509181E-02 0.25840166E+03</pdfrwt>
<totfact> 0.59620537E+03</totfact>
</mgrwt>
</event>
<event>
 9    1  0.7944303E-001  0.2757653E+03  0.7818608E-02  0.1098025E+00
          2   -1    0    0  501    0  0.00000000000E+00  0.00000000000E+00  0.12161971628E+04  0.12161971628E+04  0.00000000000E+00 0. -1.
         -2   -1    0    0    0  501 -0.00000000000E+00 -0.00000000000E+00 -0.15632021517E+02  0.15632021517E+02  0.00000000000E+00 0. -1.
         35    2    1    2    0    0 -0.71054273576E-14  0.00000000000E+00  0.12005651413E+04  0.12318291844E+04  0.27576526408E+03 0.  0.
         25    2    3    3    0    0  0.35791110415E+02 -0.39928906793E+02  0.64654744504E+03  0.66067397994E+03  0.12486467837E+03 0.  0.
         25    2    3    3    0    0 -0.35791110415E+02  0.39928906793E+02  0.55401769628E+03  0.57115520442E+03  0.12809113378E+03 0.  0.
          5    1    4    4  502    0 -0.24703470002E+02 -0.43511155765E+02  0.49267367898E+03  0.49523017483E+03  0.47000000000E+01 0.  1.
         -5    1    4    4    0  502  0.60494580417E+02  0.35822489719E+01  0.15387376606E+03  0.16544380511E+03  0.47000000000E+01 0.  1.
          5    1    5    5  503    0 -0.18526945264E+02  0.84773264697E+02  0.41472861928E+03  0.42373537940E+03  0.47000000000E+01 0. -1.
         -5    1    5    5    0  503 -0.17264165151E+02 -0.44844357904E+02  0.13928907701E+03  0.14741982502E+03  0.47000000000E+01 0. -1.
<mgrwt>
<rscale>  0 0.27576526E+03</rscale>
<asrwt>0</asrwt>
<pdfrwt beam="1">  1        2 0.18710718E+00 0.27576526E+03</pdfrwt>
<pdfrwt beam="2">  1       -2 0.24049273E-02 0.27576526E+03</pdfrwt>
<totfact> 0.11500875E+04</totfact>
</mgrwt>
</event>
<event>
 9    1  0.7944303E-001  0.2722852E+03  0.7818608E-02  0.1099979E+00
         -1   -1    0    0    0  501 -0.00000000000E+00  0.00000000000E+00  0.21555391419E+02  0.21555391419E+02  0.00000000000E+00 0. -1.
          1   -1    0    0  501    0  0.00000000000E+00 -0.00000000000E+00 -0.85986868622E+03  0.85986868622E+03  0.00000000000E+00 0. -1.
         35    2    1    2    0    0  0.00000000000E+00  0.71054273576E-14 -0.83831329480E+03  0.88142407764E+03  0.27228518947E+03 0.  0.
         25    2    3    3    0    0  0.72631660138E+00 -0.40011167079E+02 -0.31266888245E+03  0.33950569770E+03  0.12609864271E+03 0.  0.
         25    2    3    3    0    0 -0.72631660138E+00  0.40011167079E+02 -0.52564441236E+03  0.54191837994E+03  0.12558686734E+03 0.  0.
          5    1    4    4  502    0  0.10252506828E+02 -0.15004286540E+02  0.59804141746E+01  0.19700199606E+02  0.47000000000E+01 0. -1.
         -5    1    4    4    0  502 -0.95261902262E+01 -0.25006880539E+02 -0.31864929662E+03  0.31980549809E+03  0.47000000000E+01 0. -1.
          5    1    5    5  503    0 -0.34799548865E+02 -0.32388837130E+02 -0.26342546148E+03  0.26772207442E+03  0.47000000000E+01 0.  1.
         -5    1    5    5    0  503  0.34073232264E+02  0.72400004209E+02 -0.26221895087E+03  0.27419630552E+03  0.47000000000E+01 0.  1.
<mgrwt>
<rscale>  0 0.27228519E+03</rscale>
<asrwt>0</asrwt>
<pdfrwt beam="1">  1        1 0.13228748E+00 0.27228519E+03</pdfrwt>
<pdfrwt beam="2">  1       -1 0.33162144E-02 0.27228519E+03</pdfrwt>
<totfact> 0.66731034E+03</totfact>
</mgrwt>
</event>
<event>
 9    1  0.7944303E-001  0.2756610E+03  0.7818608E-02  0.1098083E+00
         -1   -1    0    0    0  501 -0.00000000000E+00  0.00000000000E+00  0.92661801284E+02  0.92661801284E+02  0.00000000000E+00 0.  1.
          1   -1    0    0  501    0  0.00000000000E+00 -0.00000000000E+00 -0.20501704873E+03  0.20501704873E+03  0.00000000000E+00 0.  1.
         35    2    1    2    0    0  0.00000000000E+00  0.35527136788E-14 -0.11235524745E+03  0.29767885002E+03  0.27566101668E+03 0.  0.
         25    2    3    3    0    0  0.91240186038E+01 -0.30772699663E+02 -0.40419589564E+01  0.12905268251E+03  0.12493218429E+03 0.  0.
         25    2    3    3    0    0 -0.91240186038E+01  0.30772699663E+02 -0.10831328849E+03  0.16862616750E+03  0.12519109051E+03 0.  0.
          5    1    4    4  502    0  0.21818487108E+02 -0.53509346793E+02 -0.49645164481E+02  0.76328428061E+02  0.47000000000E+01 0.  1.
         -5    1    4    4    0  502 -0.12694468504E+02  0.22736647130E+02  0.45603205524E+02  0.52724254451E+02  0.47000000000E+01 0.  1.
          5    1    5    5  503    0  0.14910581734E+02 -0.20707304077E+02  0.16955738595E+02  0.30995240943E+02  0.47000000000E+01 0. -1.
         -5    1    5    5    0  503 -0.24034600338E+02  0.51480003740E+02 -0.12526902709E+03  0.13763092656E+03  0.47000000000E+01 0. -1.
<mgrwt>
<rscale>  0 0.27566102E+03</rscale>
<asrwt>0</asrwt>
<pdfrwt beam="1">  1        1 0.31541084E-01 0.27566102E+03</pdfrwt>
<pdfrwt beam="2">  1       -1 0.14255662E-01 0.27566102E+03</pdfrwt>
<totfact> 0.49211458E+03</totfact>
</mgrwt>
</event>
<event>
 9    1  0.7944303E-001  0.2760337E+03  0.7818608E-02  0.1097875E+00
         -4   -1    0    0    0  501 -0.00000000000E+00  0.00000000000E+00  0.36261833924E+02  0.36261833924E+02  0.00000000000E+00 0. -1.
          4   -1    0    0  501    0  0.00000000000E+00 -0.00000000000E+00 -0.52530869346E+03  0.52530869346E+03  0.00000000000E+00 0. -1.
         35    2    1    2    0    0  0.14210854715E-13  0.00000000000E+00 -0.48904685954E+03  0.56157052738E+03  0.27603374142E+03 0.  0.
         25    2    3    3    0    0  0.39816278610E+02  0.40901074820E+02 -0.26346143150E+03  0.29732402198E+03  0.12542493452E+03 0.  0.
         25    2    3    3    0    0 -0.39816278610E+02 -0.40901074820E+02 -0.22558542804E+03  0.26424650540E+03  0.12521659758E+03 0.  0.
          5    1    4    4  502    0  0.51474972892E+02  0.73479991553E+02 -0.12135738480E+03  0.15099234033E+03  0.47000000000E+01 0.  1.
         -5    1    4    4    0  502 -0.11658694282E+02 -0.32578916733E+02 -0.14210404670E+03  0.14633168166E+03  0.47000000000E+01 0.  1.
          5    1    5    5  503    0 -0.39491792509E+02 -0.23584706970E+02 -0.23798403878E+03  0.24243418239E+03  0.47000000000E+01 0. -1.
         -5    1    5    5    0  503 -0.32448610118E+00 -0.17316367850E+02  0.12398610740E+02  0.21812323008E+02  0.47000000000E+01 0. -1.
<mgrwt>
<rscale>  0 0.27603374E+03</rscale>
<asrwt>0</asrwt>
<pdfrwt beam="1">  1        4 0.80816716E-01 0.27603374E+03</pdfrwt>
<pdfrwt beam="2">  1       -4 0.55787441E-02 0.27603374E+03</pdfrwt>
<totfact> 0.52025419E+02</totfact>
</mgrwt>
</event>
<event>
 9    1  0.7944303E-001  0.2777017E+03  0.7818608E-02  0.1096951E+00
         -3   -1    0    0    0  501 -0.00000000000E+00  0.00000000000E+00  0.89825227192E+01  0.89825227192E+01  0.00000000000E+00 0. -1.
          3   -1    0    0  501    0  0.00000000000E+00 -0.00000000000E+00 -0.21463411730E+04  0.21463411730E+04  0.00000000000E+00 0. -1.
         35    2    1    2    0    0  0.00000000000E+00 -0.71054273576E-14 -0.21373586503E+04  0.21553236958E+04  0.27770169859E+03 0.  0.
         25    2    3    3    0    0 -0.53482375167E+02 -0.21735963521E+02 -0.80534553806E+03  0.81619975216E+03  0.11944782623E+03 0.  0.
         25    2    3    3    0    0  0.53482375167E+02  0.21735963521E+02 -0.13320131123E+04  0.13391239436E+04  0.12514467036E+03 0.  0.
          5    1    4    4  502    0 -0.25307440423E+02 -0.68256687853E+02 -0.34495395373E+03  0.35258298622E+03  0.47000000000E+01 0.  1.
         -5    1    4    4    0  502 -0.28174934744E+02  0.46520724332E+02 -0.46039158433E+03  0.46361676594E+03  0.47000000000E+01 0.  1.
          5    1    5    5  503    0  0.66230193308E+02  0.62059478719E+02 -0.10490362112E+04  0.10529657544E+04  0.47000000000E+01 0. -1.
         -5    1    5    5    0  503 -0.12747818141E+02 -0.40323515198E+02 -0.28297690103E+03  0.28615818922E+03  0.47000000000E+01 0. -1.
<mgrwt>
<rscale>  0 0.27770170E+03</rscale>
<asrwt>0</asrwt>
<pdfrwt beam="1">  1        3 0.33020688E+00 0.27770170E+03</pdfrwt>
<pdfrwt beam="2">  1       -3 0.13819243E-02 0.27770170E+03</pdfrwt>
<totfact> 0.13122217E+02</totfact>
</mgrwt>
</event>
<event>
 9    1  0.7944303E-001  0.2875171E+03  0.7818608E-02  0.1091653E+00
         -1   -1    0    0    0  501 -0.00000000000E+00  0.00000000000E+00  0.73581234424E+02  0.73581234424E+02  0.00000000000E+00 0. -1.
          1   -1    0    0  501    0  0.00000000000E+00 -0.00000000000E+00 -0.28086673919E+03  0.28086673919E+03  0.00000000000E+00 0. -1.
         35    2    1    2    0    0 -0.17763568394E-14  0.71054273576E-14 -0.20728550476E+03  0.35444797361E+03  0.28751710473E+03 0.  0.
         25    2    3    3    0    0 -0.14019179325E+02  0.40915228515E+02 -0.17592398983E+03  0.22027328343E+03  0.12530153983E+03 0.  0.
         25    2    3    3    0    0  0.14019179325E+02 -0.40915228515E+02 -0.31361514937E+02  0.13417469018E+03  0.12308009405E+03 0.  0.
          5    1    4    4  502    0  0.37943989502E+01  0.72921196688E+01 -0.18131008125E+03  0.18155717567E+03  0.47000000000E+01 0. -1.
         -5    1    4    4    0  502 -0.17813578275E+02  0.33623108847E+02  0.53860914264E+01  0.38716107763E+02  0.47000000000E+01 0. -1.
          5    1    5    5  503    0 -0.10815266524E+02  0.13348822739E+02 -0.63695199140E+02  0.66138713716E+02  0.47000000000E+01 0. -1.
         -5    1    5    5    0  503  0.24834445849E+02 -0.54264051254E+02  0.32333684203E+02  0.68035976463E+02  0.47000000000E+01 0. -1.
<mgrwt>
<rscale>  0 0.28751710E+03</rscale>
<asrwt>0</asrwt>
<pdfrwt beam="1">  1        1 0.43210268E-01 0.28751710E+03</pdfrwt>
<pdfrwt beam="2">  1       -1 0.11320190E-01 0.28751710E+03</pdfrwt>
<totfact> 0.47628496E+03</totfact>
</mgrwt>
</event>
<event>
 9    1  0.7944303E-001  0.2774248E+03  0.7818608E-02  0.1097104E+00
          2   -1    0    0  501    0  0.00000000000E+00  0.00000000000E+00  0.10964618688E+04  0.10964618688E+04  0.00000000000E+00 0. -1.
         -2   -1    0    0    0  501 -0.00000000000E+00 -0.00000000000E+00 -0.17548382088E+02  0.17548382088E+02  0.00000000000E+00 0. -1.
         35    2    1    2    0    0 -0.71054273576E-14 -0.71054273576E-14  0.10789134867E+04  0.11140102509E+04  0.27742481373E+03 0.  0.
         25    2    3    3    0    0  0.18003582865E+02  0.54366054969E+02  0.53202669352E+03  0.55007174552E+03  0.12746264421E+03 0.  0.
         25    2    3    3    0    0 -0.18003582865E+02 -0.54366054969E+02  0.54688679316E+03  0.56393850534E+03  0.12514661938E+03 0.  0.
          5    1    4    4  502    0 -0.54102450318E+02  0.11589583106E+02  0.19629029951E+03  0.20399354218E+03  0.47000000000E+01 0.  1.
         -5    1    4    4    0  502  0.72106033183E+02  0.42776471863E+02  0.33573639401E+03  0.34607820334E+03  0.47000000000E+01 0.  1.
          5    1    5    5  503    0 -0.57371081850E+02 -0.23546573700E+02  0.13080753668E+03  0.14483985576E+03  0.47000000000E+01 0. -1.
         -5    1    5    5    0  503  0.39367498985E+02 -0.30819481269E+02  0.41607925648E+03  0.41909864958E+03  0.47000000000E+01 0. -1.
<mgrwt>
<rscale>  0 0.27742481E+03</rscale>
<asrwt>0</asrwt>
<pdfrwt beam="1">  1        2 0.16868639E+00 0.27742481E+03</pdfrwt>
<pdfrwt beam="2">  1       -2 0.26997520E-02 0.27742481E+03</pdfrwt>
<totfact> 0.11361742E+04</totfact>
</mgrwt>
</event>
<event>
 9    1  0.7944303E-001  0.2748327E+03  0.7818608E-02  0.1098545E+00
         -2   -1    0    0    0  501 -0.00000000000E+00  0.00000000000E+00  0.12072198097E+02  0.12072198097E+02  0.00000000000E+00 0. -1.
          2   -1    0    0  501    0  0.00000000000E+00 -0.00000000000E+00 -0.15641939201E+04  0.15641939201E+04  0.00000000000E+00 0. -1.
         35    2    1    2    0    0  0.00000000000E+00 -0.71054273576E-14 -0.15521217220E+04  0.15762661182E+04  0.27483274088E+03 0.  0.
         25    2    3    3    0    0 -0.12832049814E+02  0.51664656166E+02 -0.90555141370E+03  0.91569845556E+03  0.12508557257E+03 0.  0.
         25    2    3    3    0    0  0.12832049814E+02 -0.51664656166E+02 -0.64657030830E+03  0.66056766263E+03  0.12434860329E+03 0.  0.
          5    1    4    4  502    0  0.44546112634E+02  0.57146474391E+02 -0.37183488699E+03  0.37885795342E+03  0.47000000000E+01 0. -1.
         -5    1    4    4    0  502 -0.57378162448E+02 -0.54818182243E+01 -0.53371652671E+03  0.53684050214E+03  0.47000000000E+01 0. -1.
          5    1    5    5  503    0  0.16998491835E+02 -0.88772712298E+02 -0.34565906762E+03  0.35731194243E+03  0.47000000000E+01 0. -1.
         -5    1    5    5    0  503 -0.41664420219E+01  0.37108056132E+02 -0.30091124068E+03  0.30325572020E+03  0.47000000000E+01 0. -1.
<mgrwt>
<rscale>  0 0.27483274E+03</rscale>
<asrwt>0</asrwt>
<pdfrwt beam="1">  1        2 0.24064515E+00 0.27483274E+03</pdfrwt>
<pdfrwt beam="2">  1       -2 0.18572617E-02 0.27483274E+03</pdfrwt>
<totfact> 0.10869531E+04</totfact>
</mgrwt>
</event>
<event>
 9    1  0.7944303E-001  0.2729946E+03  0.7818608E-02  0.1099578E+00
          2   -1    0    0  501    0  0.00000000000E+00  0.00000000000E+00  0.48995545909E+03  0.48995545909E+03  0.00000000000E+00 0. -1.
         -2   -1    0    0    0  501 -0.00000000000E+00 -0.00000000000E+00 -0.38026954576E+02  0.38026954576E+02  0.00000000000E+00 0. -1.
         35    2    1    2    0    0  0.00000000000E+00  0.35527136788E-14  0.45192850451E+03  0.52798241367E+03  0.27299460791E+03 0.  0.
         25    2    3    3    0    0  0.34488347096E+02  0.22223713001E+02  0.30683886097E+03  0.33221006602E+03  0.12054087215E+03 0.  0.
         25    2    3    3    0    0 -0.34488347096E+02 -0.22223713001E+02  0.14508964354E+03  0.19577234764E+03  0.12486980393E+03 0.  0.
          5    1    4    4  502    0  0.42456722767E+02  0.61375891816E+01  0.31033994526E+03  0.31332605211E+03  0.47000000000E+01 0.  1.
         -5    1    4    4    0  502 -0.79683756701E+01  0.16086123819E+02 -0.35010842820E+01  0.18884013914E+02  0.47000000000E+01 0.  1.
          5    1    5    5  503    0 -0.27202090976E+02 -0.12082797526E+02  0.16722960915E+03  0.16992286463E+03  0.47000000000E+01 0.  1.
         -5    1    5    5    0  503 -0.72862561204E+01 -0.10140915475E+02 -0.22139965606E+02  0.25849483011E+02  0.47000000000E+01 0.  1.
<mgrwt>
<rscale>  0 0.27299461E+03</rscale>
<asrwt>0</asrwt>
<pdfrwt beam="1">  1        2 0.75377759E-01 0.27299461E+03</pdfrwt>
<pdfrwt beam="2">  1       -2 0.58503010E-02 0.27299461E+03</pdfrwt>
<totfact> 0.97404874E+03</totfact>
</mgrwt>
</event>
<event>
 9    1  0.7944303E-001  0.2701842E+03  0.7818608E-02  0.1101174E+00
          2   -1    0    0  501    0  0.00000000000E+00  0.00000000000E+00  0.89639999978E+03  0.89639999978E+03  0.00000000000E+00 0.  1.
         -2   -1    0    0    0  501 -0.00000000000E+00 -0.00000000000E+00 -0.20359073750E+02  0.20359073750E+02  0.00000000000E+00 0.  1.
         35    2    1    2    0    0  0.00000000000E+00 -0.71054273576E-14  0.87604092603E+03  0.91675907353E+03  0.27018418685E+03 0.  0.
         25    2    3    3    0    0  0.34662482223E+02 -0.33748287726E+02  0.39557732514E+03  0.41759537309E+03  0.12475592517E+03 0.  0.
         25    2    3    3    0    0 -0.34662482223E+02  0.33748287726E+02  0.48046360089E+03  0.49916370044E+03  0.12640685685E+03 0.  0.
          5    1    4    4  502    0  0.61033797968E+02 -0.66980078333E+02  0.25384309297E+03  0.26957348021E+03  0.47000000000E+01 0. -1.
         -5    1    4    4    0  502 -0.26371315745E+02  0.33231790608E+02  0.14173423217E+03  0.14802189287E+03  0.47000000000E+01 0. -1.
          5    1    5    5  503    0 -0.72809070684E+02  0.40050420019E+01  0.17174367423E+03  0.18664185162E+03  0.47000000000E+01 0. -1.
         -5    1    5    5    0  503  0.38146588461E+02  0.29743245724E+02  0.30871992666E+03  0.31252184883E+03  0.47000000000E+01 0. -1.
<mgrwt>
<rscale>  0 0.27018419E+03</rscale>
<asrwt>0</asrwt>
<pdfrwt beam="1">  1        2 0.13790766E+00 0.27018419E+03</pdfrwt>
<pdfrwt beam="2">  1       -2 0.31321659E-02 0.27018419E+03</pdfrwt>
<totfact> 0.12083048E+04</totfact>
</mgrwt>
</event>
<event>
 9    1  0.7944303E-001  0.2723191E+03  0.7818608E-02  0.1099960E+00
         -1   -1    0    0    0  501 -0.00000000000E+00  0.00000000000E+00  0.36231623591E+02  0.36231623591E+02  0.00000000000E+00 0. -1.
          1   -1    0    0  501    0  0.00000000000E+00 -0.00000000000E+00 -0.51169165521E+03  0.51169165521E+03  0.00000000000E+00 0. -1.
         35    2    1    2    0    0  0.00000000000E+00  0.00000000000E+00 -0.47546003161E+03  0.54792327880E+03  0.27231907349E+03 0.  0.
         25    2    3    3    0    0  0.34002788050E+02 -0.23441578529E+02 -0.30764078810E+03  0.33438674751E+03  0.12436215344E+03 0.  0.
         25    2    3    3    0    0 -0.34002788050E+02  0.23441578529E+02 -0.16781924351E+03  0.21353653128E+03  0.12541473000E+03 0.  0.
          5    1    4    4  502    0  0.62123948212E+02 -0.34836488213E+02 -0.29066751054E+03  0.29930362099E+03  0.47000000000E+01 0.  1.
         -5    1    4    4    0  502 -0.28121160162E+02  0.11394909684E+02 -0.16973277564E+02  0.35083126526E+02  0.47000000000E+01 0.  1.
          5    1    5    5  503    0 -0.49892829339E+02  0.60163969464E+02 -0.15056702464E+03  0.16971009561E+03  0.47000000000E+01 0.  1.
         -5    1    5    5    0  503  0.15890041289E+02 -0.36722390935E+02 -0.17252218868E+02  0.43826435676E+02  0.47000000000E+01 0.  1.
<mgrwt>
<rscale>  0 0.27231907E+03</rscale>
<asrwt>0</asrwt>
<pdfrwt beam="1">  1        1 0.78721789E-01 0.27231907E+03</pdfrwt>
<pdfrwt beam="2">  1       -1 0.55740962E-02 0.27231907E+03</pdfrwt>
<totfact> 0.65053571E+03</totfact>
</mgrwt>
</event>
<event>
 9    1  0.7944303E-001  0.2749651E+03  0.7818608E-02  0.1098471E+00
         -2   -1    0    0    0  501 -0.00000000000E+00  0.00000000000E+00  0.63480929611E+02  0.63480929611E+02  0.00000000000E+00 0.  1.
          2   -1    0    0  501    0  0.00000000000E+00 -0.00000000000E+00 -0.29775011513E+03  0.29775011513E+03  0.00000000000E+00 0.  1.
         35    2    1    2    0    0  0.00000000000E+00  0.00000000000E+00 -0.23426918552E+03  0.36123104474E+03  0.27496511852E+03 0.  0.
         25    2    3    3    0    0  0.50679464689E+02  0.76176342558E+00 -0.15319928040E+03  0.20415304635E+03  0.12505782021E+03 0.  0.
         25    2    3    3    0    0 -0.50679464689E+02 -0.76176342558E+00 -0.81069905124E+02  0.15707799839E+03  0.12462816550E+03 0.  0.
          5    1    4    4  502    0  0.38301288488E+02 -0.57611484845E+02 -0.11114130393E+03  0.13099828749E+03  0.47000000000E+01 0. -1.
         -5    1    4    4    0  502  0.12378176200E+02  0.58373248271E+02 -0.42057976461E+02  0.73154758859E+02  0.47000000000E+01 0. -1.
          5    1    5    5  503    0 -0.71496665239E+02 -0.33623922787E+02 -0.15439007077E+02  0.80639904907E+02  0.47000000000E+01 0. -1.
         -5    1    5    5    0  503  0.20817200551E+02  0.32862159361E+02 -0.65630898047E+02  0.76438093481E+02  0.47000000000E+01 0. -1.
<mgrwt>
<rscale>  0 0.27496512E+03</rscale>
<asrwt>0</asrwt>
<pdfrwt beam="1">  1        2 0.45807710E-01 0.27496512E+03</pdfrwt>
<pdfrwt beam="2">  1       -2 0.97662968E-02 0.27496512E+03</pdfrwt>
<totfact> 0.75401600E+03</totfact>
</mgrwt>
</event>
<event>
 9    1  0.7944303E-001  0.2765331E+03  0.7818608E-02  0.1097598E+00
         -2   -1    0    0    0  501 -0.00000000000E+00  0.00000000000E+00  0.75898689286E+01  0.75898689286E+01  0.00000000000E+00 0. -1.
          2   -1    0    0  501    0  0.00000000000E+00 -0.00000000000E+00 -0.25188359030E+04  0.25188359030E+04  0.00000000000E+00 0. -1.
         35    2    1    2    0    0  0.00000000000E+00 -0.71054273576E-14 -0.25112460341E+04  0.25264257720E+04  0.27653306751E+03 0.  0.
         25    2    3    3    0    0  0.22130785559E+02  0.25369906261E+02 -0.16787441074E+04  0.16837972453E+04  0.12592847752E+03 0.  0.
         25    2    3    3    0    0 -0.22130785559E+02 -0.25369906261E+02 -0.83250192674E+03  0.84262852666E+03  0.12581721705E+03 0.  0.
          5    1    4    4  502    0  0.27340106237E+02  0.58788380727E+02 -0.15215072206E+04  0.15228952254E+04  0.47000000000E+01 0.  1.
         -5    1    4    4    0  502 -0.52093206778E+01 -0.33418474465E+02 -0.15723688675E+03  0.16090201991E+03  0.47000000000E+01 0.  1.
          5    1    5    5  503    0 -0.65510197525E+02 -0.98479963487E+01 -0.68036874461E+03  0.68360243391E+03  0.47000000000E+01 0.  1.
         -5    1    5    5    0  503  0.43379411966E+02 -0.15521909913E+02 -0.15213318213E+03  0.15902609275E+03  0.47000000000E+01 0.  1.
<mgrwt>
<rscale>  0 0.27653307E+03</rscale>
<asrwt>0</asrwt>
<pdfrwt beam="1">  1        2 0.38751308E+00 0.27653307E+03</pdfrwt>
<pdfrwt beam="2">  1       -2 0.11676726E-02 0.27653307E+03</pdfrwt>
<totfact> 0.66627565E+03</totfact>
</mgrwt>
</event>
<event>
 9    1  0.7944303E-001  0.2805002E+03  0.7818608E-02  0.1095416E+00
         -2   -1    0    0    0  501 -0.00000000000E+00  0.00000000000E+00  0.13945387881E+02  0.13945387881E+02  0.00000000000E+00 0. -1.
          2   -1    0    0  501    0  0.00000000000E+00 -0.00000000000E+00 -0.14105087637E+04  0.14105087637E+04  0.00000000000E+00 0. -1.
         35    2    1    2    0    0  0.00000000000E+00 -0.35527136788E-14 -0.13965633759E+04  0.14244541516E+04  0.28050020905E+03 0.  0.
         25    2    3    3    0    0  0.23148074640E+02 -0.31989375772E+02 -0.93231482276E+03  0.94214193397E+03  0.12985122823E+03 0.  0.
         25    2    3    3    0    0 -0.23148074640E+02  0.31989375772E+02 -0.46424855309E+03  0.48231221765E+03  0.12465633848E+03 0.  0.
          5    1    4    4  502    0  0.50880452670E+02 -0.72215151317E+00 -0.14566772354E+03  0.15437136278E+03  0.47000000000E+01 0.  1.
         -5    1    4    4    0  502 -0.27732378029E+02 -0.31267224259E+02 -0.78664709923E+03  0.78777057118E+03  0.47000000000E+01 0.  1.
          5    1    5    5  503    0  0.40655989297E+02  0.41919354361E+02 -0.30187126215E+03  0.30750364331E+03  0.47000000000E+01 0. -1.
         -5    1    5    5    0  503 -0.63804063937E+02 -0.99299785895E+01 -0.16237729094E+03  0.17480857434E+03  0.47000000000E+01 0. -1.
<mgrwt>
<rscale>  0 0.28050021E+03</rscale>
<asrwt>0</asrwt>
<pdfrwt beam="1">  1        2 0.21700135E+00 0.28050021E+03</pdfrwt>
<pdfrwt beam="2">  1       -2 0.21454443E-02 0.28050021E+03</pdfrwt>
<totfact> 0.10633262E+04</totfact>
</mgrwt>
</event>
<event>
 9    1  0.7944303E-001  0.2715548E+03  0.7818608E-02  0.1100393E+00
         -2   -1    0    0    0  501 -0.00000000000E+00  0.00000000000E+00  0.12816414613E+03  0.12816414613E+03  0.00000000000E+00 0.  1.
          2   -1    0    0  501    0  0.00000000000E+00 -0.00000000000E+00 -0.14384292395E+03  0.14384292395E+03  0.00000000000E+00 0.  1.
         35    2    1    2    0    0  0.00000000000E+00  0.00000000000E+00 -0.15678777816E+02  0.27200707008E+03  0.27155482337E+03 0.  0.
         25    2    3    3    0    0 -0.14188223130E+02  0.41206367003E+02 -0.37397755079E+02  0.13782465958E+03  0.12529075922E+03 0.  0.
         25    2    3    3    0    0  0.14188223130E+02 -0.41206367003E+02  0.21718977262E+02  0.13418241049E+03  0.12503573471E+03 0.  0.
          5    1    4    4  502    0  0.16221309053E+02  0.70878812092E+02 -0.55308709646E+02  0.91477211554E+02  0.47000000000E+01 0.  1.
         -5    1    4    4    0  502 -0.30409532183E+02 -0.29672445089E+02  0.17910954567E+02  0.46347448027E+02  0.47000000000E+01 0.  1.
          5    1    5    5  503    0  0.62864595169E+02 -0.44978985359E+02  0.32464910519E+02  0.83970988232E+02  0.47000000000E+01 0. -1.
         -5    1    5    5    0  503 -0.48676372039E+02  0.37726183561E+01 -0.10745933256E+02  0.50211422263E+02  0.47000000000E+01 0. -1.
<mgrwt>
<rscale>  0 0.27155482E+03</rscale>
<asrwt>0</asrwt>
<pdfrwt beam="1">  1        2 0.22129681E-01 0.27155482E+03</pdfrwt>
<pdfrwt beam="2">  1       -2 0.19717561E-01 0.27155482E+03</pdfrwt>
<totfact> 0.52826536E+03</totfact>
</mgrwt>
</event>
<event>
 9    1  0.7944303E-001  0.2718328E+03  0.7818608E-02  0.1100235E+00
          2   -1    0    0  501    0  0.00000000000E+00  0.00000000000E+00  0.16970506559E+04  0.16970506559E+04  0.00000000000E+00 0. -1.
         -2   -1    0    0    0  501 -0.00000000000E+00 -0.00000000000E+00 -0.10885513047E+02  0.10885513047E+02  0.00000000000E+00 0. -1.
         35    2    1    2    0    0  0.00000000000E+00  0.71054273576E-14  0.16861651429E+04  0.17079361690E+04  0.27183279462E+03 0.  0.
         25    2    3    3    0    0  0.64041249644E+01  0.46255693137E+02  0.67262313904E+03  0.68566884092E+03  0.12465660945E+03 0.  0.
         25    2    3    3    0    0 -0.64041249644E+01 -0.46255693137E+02  0.10135420039E+04  0.10222673281E+04  0.12482986215E+03 0.  0.
          5    1    4    4  502    0  0.22701221922E+02 -0.35049875762E+02  0.35051190540E+03  0.35302198953E+03  0.47000000000E+01 0.  1.
         -5    1    4    4    0  502 -0.16297096958E+02  0.81305568899E+02  0.32211123364E+03  0.33264685139E+03  0.47000000000E+01 0.  1.
          5    1    5    5  503    0 -0.54289756644E+02 -0.23828230643E+02  0.80066970628E+03  0.80287560108E+03  0.47000000000E+01 0.  1.
         -5    1    5    5    0  503  0.47885631679E+02 -0.22427462494E+02  0.21287229759E+03  0.21939172700E+03  0.47000000000E+01 0.  1.
<mgrwt>
<rscale>  0 0.27183279E+03</rscale>
<asrwt>0</asrwt>
<pdfrwt beam="1">  1        2 0.26108451E+00 0.27183279E+03</pdfrwt>
<pdfrwt beam="2">  1       -2 0.16746957E-02 0.27183279E+03</pdfrwt>
<totfact> 0.10759600E+04</totfact>
</mgrwt>
</event>
<event>
 9    1  0.7944303E-001  0.2745487E+03  0.7818608E-02  0.1098704E+00
          1   -1    0    0  501    0  0.00000000000E+00  0.00000000000E+00  0.44680631490E+03  0.44680631490E+03  0.00000000000E+00 0.  1.
         -1   -1    0    0    0  501 -0.00000000000E+00 -0.00000000000E+00 -0.42175416473E+02  0.42175416473E+02  0.00000000000E+00 0.  1.
         35    2    1    2    0    0  0.71054273576E-14 -0.71054273576E-14  0.40463089843E+03  0.48898173137E+03  0.27454866537E+03 0.  0.
         25    2    3    3    0    0  0.23438615967E+01  0.48283696496E+02  0.15159261163E+03  0.20238843872E+03  0.12507578181E+03 0.  0.
         25    2    3    3    0    0 -0.23438615967E+01 -0.48283696496E+02  0.25303828680E+03  0.28659329265E+03  0.12558077787E+03 0.  0.
          5    1    4    4  502    0 -0.56205723610E+02  0.11165521590E+02  0.36990290820E+02  0.68367564341E+02  0.47000000000E+01 0. -1.
         -5    1    4    4    0  502  0.58549585207E+02  0.37118174906E+02  0.11460232081E+03  0.13402087438E+03  0.47000000000E+01 0. -1.
          5    1    5    5  503    0  0.41298658962E+02 -0.36387041330E+02  0.22816515348E+03  0.23475737107E+03  0.47000000000E+01 0.  1.
         -5    1    5    5    0  503 -0.43642520559E+02 -0.11896655167E+02  0.24873133321E+02  0.51835921580E+02  0.47000000000E+01 0.  1.
<mgrwt>
<rscale>  0 0.27454867E+03</rscale>
<asrwt>0</asrwt>
<pdfrwt beam="1">  1        1 0.68739430E-01 0.27454867E+03</pdfrwt>
<pdfrwt beam="2">  1       -1 0.64885259E-02 0.27454867E+03</pdfrwt>
<totfact> 0.61867143E+03</totfact>
</mgrwt>
</event>
<event>
 9    1  0.7944303E-001  0.2792080E+03  0.7818608E-02  0.1096122E+00
         -2   -1    0    0    0  501 -0.00000000000E+00  0.00000000000E+00  0.11302265337E+02  0.11302265337E+02  0.00000000000E+00 0. -1.
          2   -1    0    0  501    0  0.00000000000E+00 -0.00000000000E+00 -0.17243694487E+04  0.17243694487E+04  0.00000000000E+00 0. -1.
         35    2    1    2    0    0 -0.71054273576E-14 -0.71054273576E-14 -0.17130671834E+04  0.17356717141E+04  0.27920803032E+03 0.  0.
         25    2    3    3    0    0 -0.53083625275E+02  0.37132748314E+02 -0.81463927033E+03  0.82628958331E+03  0.12214999982E+03 0.  0.
         25    2    3    3    0    0  0.53083625275E+02 -0.37132748314E+02 -0.89842791306E+03  0.90938213075E+03  0.12492570791E+03 0.  0.
          5    1    4    4  502    0 -0.34452908816E+02  0.78381130928E+02 -0.64414845213E+03  0.64983068794E+03  0.47000000000E+01 0.  1.
         -5    1    4    4    0  502 -0.18630716459E+02 -0.41248382614E+02 -0.17049081820E+03  0.17645889537E+03  0.47000000000E+01 0.  1.
          5    1    5    5  503    0 -0.32311031137E+02  0.64098165452E+01 -0.10437086065E+03  0.10954658842E+03  0.47000000000E+01 0.  1.
         -5    1    5    5    0  503  0.85394656412E+02 -0.43542564859E+02 -0.79405705241E+03  0.79983554233E+03  0.47000000000E+01 0.  1.
<mgrwt>
<rscale>  0 0.27920803E+03</rscale>
<asrwt>0</asrwt>
<pdfrwt beam="1">  1        2 0.26528772E+00 0.27920803E+03</pdfrwt>
<pdfrwt beam="2">  1       -2 0.17388093E-02 0.27920803E+03</pdfrwt>
<totfact> 0.98553998E+03</totfact>
</mgrwt>
</event>
<event>
 9    1  0.7944303E-001  0.2727536E+03  0.7818608E-02  0.1099714E+00
          1   -1    0    0  501    0  0.00000000000E+00  0.00000000000E+00  0.12048195171E+04  0.12048195171E+04  0.00000000000E+00 0.  1.
         -1   -1    0    0    0  501 -0.00000000000E+00 -0.00000000000E+00 -0.15436857503E+02  0.15436857503E+02  0.00000000000E+00 0.  1.
         35    2    1    2    0    0  0.00000000000E+00  0.00000000000E+00  0.11893826596E+04  0.12202563746E+04  0.27275356791E+03 0.  0.
         25    2    3    3    0    0  0.52129373982E+02 -0.75229933698E-01  0.63722684134E+03  0.65149754090E+03  0.12519393431E+03 0.  0.
         25    2    3    3    0    0 -0.52129373982E+02  0.75229933698E-01  0.55215581830E+03  0.56875883374E+03  0.12606778329E+03 0.  0.
          5    1    4    4  502    0 -0.24196134111E+02 -0.21766529672E+02  0.56630998895E+02  0.65485836298E+02  0.47000000000E+01 0. -1.
         -5    1    4    4    0  502  0.76325508093E+02  0.21691299738E+02  0.58059584244E+03  0.58601170460E+03  0.47000000000E+01 0. -1.
          5    1    5    5  503    0 -0.35706377314E+01 -0.38200844018E+02  0.52101876758E+02  0.64874875716E+02  0.47000000000E+01 0. -1.
         -5    1    5    5    0  503 -0.48558736251E+02  0.38276073951E+02  0.50005394154E+03  0.50388395802E+03  0.47000000000E+01 0. -1.
<mgrwt>
<rscale>  0 0.27275357E+03</rscale>
<asrwt>0</asrwt>
<pdfrwt beam="1">  1        1 0.18535678E+00 0.27275357E+03</pdfrwt>
<pdfrwt beam="2">  1       -1 0.23749021E-02 0.27275357E+03</pdfrwt>
<totfact> 0.60494265E+03</totfact>
</mgrwt>
</event>
<event>
 9    1  0.7944303E-001  0.2767479E+03  0.7818608E-02  0.1097479E+00
         -3   -1    0    0    0  501 -0.00000000000E+00  0.00000000000E+00  0.35838048086E+03  0.35838048086E+03  0.00000000000E+00 0. -1.
          3   -1    0    0  501    0  0.00000000000E+00 -0.00000000000E+00 -0.53427442826E+02  0.53427442826E+02  0.00000000000E+00 0. -1.
         35    2    1    2    0    0  0.35527136788E-14  0.00000000000E+00  0.30495303803E+03  0.41180792368E+03  0.27674791888E+03 0.  0.
         25    2    3    3    0    0 -0.88616988953E+01 -0.37354778818E+02  0.22160551905E+03  0.25719740429E+03  0.12477014662E+03 0.  0.
         25    2    3    3    0    0  0.88616988953E+01  0.37354778818E+02  0.83347518977E+02  0.15461051940E+03  0.12443349461E+03 0.  0.
          5    1    4    4  502    0 -0.41133749848E+02  0.23879909612E+02  0.15027362729E+03  0.15769111743E+03  0.47000000000E+01 0.  1.
         -5    1    4    4    0  502  0.32272050953E+02 -0.61234688430E+02  0.71331891769E+02  0.99506286853E+02  0.47000000000E+01 0.  1.
          5    1    5    5  503    0 -0.27512931261E+02  0.47571097416E+01 -0.23653888475E+02  0.36894280311E+02  0.47000000000E+01 0. -1.
         -5    1    5    5    0  503  0.36374630156E+02  0.32597669077E+02  0.10700140745E+03  0.11771623909E+03  0.47000000000E+01 0. -1.
<mgrwt>
<rscale>  0 0.27674792E+03</rscale>
<asrwt>0</asrwt>
<pdfrwt beam="1">  1        3 0.82196068E-02 0.27674792E+03</pdfrwt>
<pdfrwt beam="2">  1       -3 0.55135457E-01 0.27674792E+03</pdfrwt>
<totfact> 0.85030384E+02</totfact>
</mgrwt>
</event>
<event>
 9    1  0.7944303E-001  0.2758983E+03  0.7818608E-02  0.1097951E+00
          2   -1    0    0  501    0  0.00000000000E+00  0.00000000000E+00  0.60842659728E+03  0.60842659728E+03  0.00000000000E+00 0.  1.
         -2   -1    0    0    0  501 -0.00000000000E+00 -0.00000000000E+00 -0.31277346083E+02  0.31277346083E+02  0.00000000000E+00 0.  1.
         35    2    1    2    0    0  0.35527136788E-14 -0.17763568394E-14  0.57714925119E+03  0.63970394336E+03  0.27589830916E+03 0.  0.
         25    2    3    3    0    0 -0.29111617903E+02 -0.49182862552E+01  0.17467527819E+03  0.21685607660E+03  0.12507369553E+03 0.  0.
         25    2    3    3    0    0  0.29111617903E+02  0.49182862552E+01  0.40247397300E+03  0.42284786675E+03  0.12626695386E+03 0.  0.
          5    1    4    4  502    0 -0.39999170646E+02  0.32721384763E+01  0.19091452190E+03  0.19514375526E+03  0.47000000000E+01 0.  1.
         -5    1    4    4    0  502  0.10887552743E+02 -0.81904247315E+01 -0.16239243712E+02  0.21712321349E+02  0.47000000000E+01 0.  1.
          5    1    5    5  503    0 -0.66525365518E+01 -0.55160317178E+02  0.23042513338E+03  0.23707540768E+03  0.47000000000E+01 0. -1.
         -5    1    5    5    0  503  0.35764154455E+02  0.60078603433E+02  0.17204883962E+03  0.18577245907E+03  0.47000000000E+01 0. -1.
<mgrwt>
<rscale>  0 0.27589831E+03</rscale>
<asrwt>0</asrwt>
<pdfrwt beam="1">  1        2 0.93604083E-01 0.27589831E+03</pdfrwt>
<pdfrwt beam="2">  1       -2 0.48118998E-02 0.27589831E+03</pdfrwt>
<totfact> 0.10257904E+04</totfact>
</mgrwt>
</event>
<event>
 9    1  0.7944303E-001  0.2757403E+03  0.7818608E-02  0.1098038E+00
          2   -1    0    0  501    0  0.00000000000E+00  0.00000000000E+00  0.12146900720E+03  0.12146900720E+03  0.00000000000E+00 0. -1.
         -2   -1    0    0    0  501 -0.00000000000E+00 -0.00000000000E+00 -0.15648588261E+03  0.15648588261E+03  0.00000000000E+00 0. -1.
         35    2    1    2    0    0  0.17763568394E-14 -0.71054273576E-14 -0.35016875405E+02  0.27795488981E+03  0.27574034744E+03 0.  0.
         25    2    3    3    0    0  0.50452383858E+01 -0.45229414815E+02 -0.56120037165E+02  0.14268932273E+03  0.12304320321E+03 0.  0.
         25    2    3    3    0    0 -0.50452383858E+01  0.45229414815E+02  0.21103161759E+02  0.13526556707E+03  0.12561956776E+03 0.  0.
          5    1    4    4  502    0  0.19805184783E+02  0.65418985828E+00 -0.84255351159E+02  0.86681759948E+02  0.47000000000E+01 0.  1.
         -5    1    4    4    0  502 -0.14759946397E+02 -0.45883604674E+02  0.28135313994E+02  0.56007562784E+02  0.47000000000E+01 0.  1.
          5    1    5    5  503    0 -0.24664443520E+01  0.40016522078E+02  0.72686327718E+02  0.83143235588E+02  0.47000000000E+01 0.  1.
         -5    1    5    5    0  503 -0.25787940338E+01  0.52128927377E+01 -0.51583165958E+02  0.52122331487E+02  0.47000000000E+01 0.  1.
<mgrwt>
<rscale>  0 0.27574035E+03</rscale>
<asrwt>0</asrwt>
<pdfrwt beam="1">  1        2 0.18687540E-01 0.27574035E+03</pdfrwt>
<pdfrwt beam="2">  1       -2 0.24074751E-01 0.27574035E+03</pdfrwt>
<totfact> 0.45389160E+03</totfact>
</mgrwt>
</event>
<event>
 9    1  0.7944303E-001  0.2750297E+03  0.7818608E-02  0.1098435E+00
          2   -1    0    0  501    0  0.00000000000E+00  0.00000000000E+00  0.46363364492E+03  0.46363364492E+03  0.00000000000E+00 0. -1.
         -2   -1    0    0    0  501 -0.00000000000E+00 -0.00000000000E+00 -0.40787243116E+02  0.40787243116E+02  0.00000000000E+00 0. -1.
         35    2    1    2    0    0  0.35527136788E-14  0.71054273576E-14  0.42284640180E+03  0.50442088803E+03  0.27502973070E+03 0.  0.
         25    2    3    3    0    0  0.23811459514E+02  0.32852517964E+02  0.28551306129E+03  0.31424621235E+03  0.12484670707E+03 0.  0.
         25    2    3    3    0    0 -0.23811459514E+02 -0.32852517964E+02  0.13733334051E+03  0.19017467569E+03  0.12513867234E+03 0.  0.
          5    1    4    4  502    0  0.51973165630E+01  0.21255092230E+02 -0.49476923049E+01  0.22920748336E+02  0.47000000000E+01 0. -1.
         -5    1    4    4    0  502  0.18614142951E+02  0.11597425734E+02  0.29046075359E+03  0.29132546401E+03  0.47000000000E+01 0. -1.
          5    1    5    5  503    0 -0.54380104291E+01 -0.80193210786E+02  0.86332620988E+02  0.11805055892E+03  0.47000000000E+01 0.  1.
         -5    1    5    5    0  503 -0.18373449085E+02  0.47340692822E+02  0.51000719523E+02  0.72124116771E+02  0.47000000000E+01 0.  1.
<mgrwt>
<rscale>  0 0.27502973E+03</rscale>
<asrwt>0</asrwt>
<pdfrwt beam="1">  1        2 0.71328249E-01 0.27502973E+03</pdfrwt>
<pdfrwt beam="2">  1       -2 0.62749608E-02 0.27502973E+03</pdfrwt>
<totfact> 0.93028203E+03</totfact>
</mgrwt>
</event>
<event>
 9    1  0.7944303E-001  0.2785291E+03  0.7818608E-02  0.1096495E+00
         -1   -1    0    0    0  501 -0.00000000000E+00  0.00000000000E+00  0.13787645736E+02  0.13787645736E+02  0.00000000000E+00 0. -1.
          1   -1    0    0  501    0  0.00000000000E+00 -0.00000000000E+00 -0.14066658523E+04  0.14066658523E+04  0.00000000000E+00 0. -1.
         35    2    1    2    0    0  0.00000000000E+00  0.00000000000E+00 -0.13928782065E+04  0.14204534980E+04  0.27852906807E+03 0.  0.
         25    2    3    3    0    0 -0.54253681966E+02  0.45835721275E+01 -0.85347244772E+03  0.86404767246E+03  0.12328296768E+03 0.  0.
         25    2    3    3    0    0  0.54253681966E+02 -0.45835721275E+01 -0.53940575881E+03  0.55640582554E+03  0.12515749648E+03 0.  0.
          5    1    4    4  502    0  0.37205747304E+02 -0.15900716213E+02 -0.23748605828E+03  0.24095397545E+03  0.47000000000E+01 0.  1.
         -5    1    4    4    0  502 -0.91459429270E+02  0.20484288340E+02 -0.61598638944E+03  0.62309369700E+03  0.47000000000E+01 0.  1.
          5    1    5    5  503    0  0.18010552676E+02  0.51099873674E+02 -0.37653545230E+03  0.38044265525E+03  0.47000000000E+01 0.  1.
         -5    1    5    5    0  503  0.36243129289E+02 -0.55683445802E+02 -0.16287030651E+03  0.17596317030E+03  0.47000000000E+01 0.  1.
<mgrwt>
<rscale>  0 0.27852907E+03</rscale>
<asrwt>0</asrwt>
<pdfrwt beam="1">  1        1 0.21641022E+00 0.27852907E+03</pdfrwt>
<pdfrwt beam="2">  1       -1 0.21211754E-02 0.27852907E+03</pdfrwt>
<totfact> 0.51971093E+03</totfact>
</mgrwt>
</event>
<event>
 9    1  0.7944303E-001  0.2785821E+03  0.7818608E-02  0.1096466E+00
         -2   -1    0    0    0  501 -0.00000000000E+00  0.00000000000E+00  0.20244327922E+02  0.20244327922E+02  0.00000000000E+00 0.  1.
          2   -1    0    0  501    0  0.00000000000E+00 -0.00000000000E+00 -0.95839154717E+03  0.95839154717E+03  0.00000000000E+00 0.  1.
         35    2    1    2    0    0  0.00000000000E+00  0.17763568394E-14 -0.93814721925E+03  0.97863587509E+03  0.27858207235E+03 0.  0.
         25    2    3    3    0    0  0.37143702567E+02  0.41439309086E+01 -0.30130842265E+03  0.32865931538E+03  0.12583065296E+03 0.  0.
         25    2    3    3    0    0 -0.37143702567E+02 -0.41439309086E+01 -0.63683879660E+03  0.64997655971E+03  0.12453533040E+03 0.  0.
          5    1    4    4  502    0 -0.11107160260E+02 -0.10363823619E+02  0.61609478699E+01  0.17053595741E+02  0.47000000000E+01 0.  1.
         -5    1    4    4    0  502  0.48250862827E+02  0.14507754527E+02 -0.30746937052E+03  0.31160571964E+03  0.47000000000E+01 0.  1.
          5    1    5    5  503    0 -0.62091194834E+02  0.24623240261E+02 -0.18925748711E+03  0.20075384645E+03  0.47000000000E+01 0.  1.
         -5    1    5    5    0  503  0.24947492267E+02 -0.28767171170E+02 -0.44758130949E+03  0.44922271326E+03  0.47000000000E+01 0.  1.
<mgrwt>
<rscale>  0 0.27858207E+03</rscale>
<asrwt>0</asrwt>
<pdfrwt beam="1">  1        2 0.14744488E+00 0.27858207E+03</pdfrwt>
<pdfrwt beam="2">  1       -2 0.31145114E-02 0.27858207E+03</pdfrwt>
<totfact> 0.11139066E+04</totfact>
</mgrwt>
</event>
<event>
 9    1  0.7944303E-001  0.2743294E+03  0.7818608E-02  0.1098827E+00
          2   -1    0    0  501    0  0.00000000000E+00  0.00000000000E+00  0.43678736659E+03  0.43678736659E+03  0.00000000000E+00 0.  1.
         -2   -1    0    0    0  501 -0.00000000000E+00 -0.00000000000E+00 -0.43073944607E+02  0.43073944607E+02  0.00000000000E+00 0.  1.
         35    2    1    2    0    0  0.00000000000E+00 -0.35527136788E-14  0.39371342198E+03  0.47986131119E+03  0.27432939932E+03 0.  0.
         25    2    3    3    0    0 -0.45149531425E+02  0.16058876856E+02  0.15061070127E+03  0.20198441444E+03  0.12576864723E+03 0.  0.
         25    2    3    3    0    0  0.45149531425E+02 -0.16058876856E+02  0.24310272071E+03  0.27787689675E+03  0.12577865168E+03 0.  0.
          5    1    4    4  502    0 -0.10077461609E+01 -0.20703922606E+01 -0.22115286913E+02  0.22726152153E+02  0.47000000000E+01 0. -1.
         -5    1    4    4    0  502 -0.44141785264E+02  0.18129269116E+02  0.17272598818E+03  0.17925826228E+03  0.47000000000E+01 0. -1.
          5    1    5    5  503    0  0.52080185363E+02 -0.47264127082E+02  0.61874599129E+02  0.93791254569E+02  0.47000000000E+01 0.  1.
         -5    1    5    5    0  503 -0.69306539378E+01  0.31205250226E+02  0.18122812158E+03  0.18408564219E+03  0.47000000000E+01 0.  1.
<mgrwt>
<rscale>  0 0.27432940E+03</rscale>
<asrwt>0</asrwt>
<pdfrwt beam="1">  1        2 0.67198053E-01 0.27432940E+03</pdfrwt>
<pdfrwt beam="2">  1       -2 0.66267610E-02 0.27432940E+03</pdfrwt>
<totfact> 0.91325897E+03</totfact>
</mgrwt>
</event>
<event>
 9    1  0.7944303E-001  0.2752713E+03  0.7818608E-02  0.1098300E+00
         -3   -1    0    0    0  501 -0.00000000000E+00  0.00000000000E+00  0.15432361211E+03  0.15432361211E+03  0.00000000000E+00 0. -1.
          3   -1    0    0  501    0  0.00000000000E+00 -0.00000000000E+00 -0.12275223717E+03  0.12275223717E+03  0.00000000000E+00 0. -1.
         35    2    1    2    0    0  0.00000000000E+00  0.14210854715E-13  0.31571374945E+02  0.27707584928E+03  0.27527127446E+03 0.  0.
         25    2    3    3    0    0  0.25691888000E+02 -0.52198793578E+02  0.10496479261E+02  0.13821203877E+03  0.12493039832E+03 0.  0.
         25    2    3    3    0    0 -0.25691888000E+02  0.52198793578E+02  0.21074895684E+02  0.13886381051E+03  0.12431500103E+03 0.  0.
          5    1    4    4  502    0  0.63769777754E+02 -0.62553924522E+02 -0.15415691492E+02  0.90770653695E+02  0.47000000000E+01 0. -1.
         -5    1    4    4    0  502 -0.38077889754E+02  0.10355130944E+02  0.25912170753E+02  0.47441385078E+02  0.47000000000E+01 0. -1.
          5    1    5    5  503    0 -0.64731940724E+02  0.43185623551E+02 -0.20834257106E+02  0.80693113093E+02  0.47000000000E+01 0. -1.
         -5    1    5    5    0  503  0.39040052724E+02  0.90131700268E+01  0.41909152790E+02  0.58170697419E+02  0.47000000000E+01 0. -1.
<mgrwt>
<rscale>  0 0.27527127E+03</rscale>
<asrwt>0</asrwt>
<pdfrwt beam="1">  1        3 0.18884959E-01 0.27527127E+03</pdfrwt>
<pdfrwt beam="2">  1       -3 0.23742094E-01 0.27527127E+03</pdfrwt>
<totfact> 0.10425604E+03</totfact>
</mgrwt>
</event>
<event>
 9    1  0.7944303E-001  0.2919240E+03  0.7818608E-02  0.1089349E+00
          2   -1    0    0  501    0  0.00000000000E+00  0.00000000000E+00  0.35562950014E+03  0.35562950014E+03  0.00000000000E+00 0.  1.
         -2   -1    0    0    0  501 -0.00000000000E+00 -0.00000000000E+00 -0.59907595330E+02  0.59907595330E+02  0.00000000000E+00 0.  1.
         35    2    1    2    0    0  0.21316282073E-13 -0.35527136788E-14  0.29572190481E+03  0.41553709547E+03  0.29192401876E+03 0.  0.
         25    2    3    3    0    0 -0.53949084332E+02  0.22332026388E+02  0.21665041205E+03  0.25647855060E+03  0.12423615727E+03 0.  0.
         25    2    3    3    0    0  0.53949084332E+02 -0.22332026388E+02  0.79071492765E+02  0.15905854487E+03  0.12505237553E+03 0.  0.
          5    1    4    4  502    0 -0.26465864017E+01 -0.35783453140E+02  0.12882270455E+02  0.38412274474E+02  0.47000000000E+01 0.  1.
         -5    1    4    4    0  502 -0.51302497930E+02  0.58115479528E+02  0.20376814159E+03  0.21806627612E+03  0.47000000000E+01 0.  1.
          5    1    5    5  503    0 -0.39700230861E+02 -0.11770243830E+02  0.37058695522E+02  0.55768126059E+02  0.47000000000E+01 0.  1.
         -5    1    5    5    0  503  0.93649315193E+02 -0.10561782558E+02  0.42012797243E+02  0.10329041882E+03  0.47000000000E+01 0.  1.
<mgrwt>
<rscale>  0 0.29192402E+03</rscale>
<asrwt>0</asrwt>
<pdfrwt beam="1">  1        2 0.54712229E-01 0.29192402E+03</pdfrwt>
<pdfrwt beam="2">  1       -2 0.92165534E-02 0.29192402E+03</pdfrwt>
<totfact> 0.68385861E+03</totfact>
</mgrwt>
</event>
<event>
 9    1  0.7944303E-001  0.2741832E+03  0.7818608E-02  0.1098909E+00
         -2   -1    0    0    0  501 -0.00000000000E+00  0.00000000000E+00  0.14143536197E+02  0.14143536197E+02  0.00000000000E+00 0.  1.
          2   -1    0    0  501    0  0.00000000000E+00 -0.00000000000E+00 -0.13288128385E+04  0.13288128385E+04  0.00000000000E+00 0.  1.
         35    2    1    2    0    0  0.71054273576E-14 -0.71054273576E-14 -0.13146693023E+04  0.13429563747E+04  0.27418324151E+03 0.  0.
         25    2    3    3    0    0 -0.46892701017E+02  0.16156462094E+02 -0.79619574722E+03  0.80743683583E+03  0.12476625863E+03 0.  0.
         25    2    3    3    0    0  0.46892701017E+02 -0.16156462094E+02 -0.51847355507E+03  0.53551953885E+03  0.12452466627E+03 0.  0.
          5    1    4    4  502    0 -0.27549841085E+02 -0.82575282029E+01 -0.75507550865E+03  0.75563767394E+03  0.47000000000E+01 0.  1.
         -5    1    4    4    0  502 -0.19342859932E+02  0.24413990297E+02 -0.41120238569E+02  0.51799161890E+02  0.47000000000E+01 0.  1.
          5    1    5    5  503    0  0.54178736810E+02 -0.46093169489E+02 -0.48327874171E+03  0.48850828856E+03  0.47000000000E+01 0. -1.
         -5    1    5    5    0  503 -0.72860357927E+01  0.29936707395E+02 -0.35194813356E+02  0.47011250295E+02  0.47000000000E+01 0. -1.
<mgrwt>
<rscale>  0 0.27418324E+03</rscale>
<asrwt>0</asrwt>
<pdfrwt beam="1">  1        2 0.20443268E+00 0.27418324E+03</pdfrwt>
<pdfrwt beam="2">  1       -2 0.21759294E-02 0.27418324E+03</pdfrwt>
<totfact> 0.11535325E+04</totfact>
</mgrwt>
</event>
<event>
 9    1  0.7944303E-001  0.2739244E+03  0.7818608E-02  0.1099054E+00
          1   -1    0    0  501    0  0.00000000000E+00  0.00000000000E+00  0.14745057889E+04  0.14745057889E+04  0.00000000000E+00 0. -1.
         -1   -1    0    0    0  501 -0.00000000000E+00 -0.00000000000E+00 -0.12721989005E+02  0.12721989005E+02  0.00000000000E+00 0. -1.
         35    2    1    2    0    0 -0.35527136788E-14  0.14210854715E-13  0.14617837999E+04  0.14872277779E+04  0.27392441611E+03 0.  0.
         25    2    3    3    0    0  0.11168287491E+02 -0.43921512399E+02  0.88678613208E+03  0.89730440837E+03  0.12927384629E+03 0.  0.
         25    2    3    3    0    0 -0.11168287491E+02  0.43921512399E+02  0.57499766782E+03  0.58992336954E+03  0.12382824409E+03 0.  0.
          5    1    4    4  502    0  0.53562181791E+02  0.19881114638E+02  0.29074435977E+03  0.29634192882E+03  0.47000000000E+01 0. -1.
         -5    1    4    4    0  502 -0.42393894300E+02 -0.63802627037E+02  0.59604177231E+03  0.60096247955E+03  0.47000000000E+01 0. -1.
          5    1    5    5  503    0  0.63239829865E+01  0.24726565995E+02  0.16392859377E+02  0.30695466527E+02  0.47000000000E+01 0.  1.
         -5    1    5    5    0  503 -0.17492270477E+02  0.19194946403E+02  0.55860480844E+03  0.55922790301E+03  0.47000000000E+01 0.  1.
<mgrwt>
<rscale>  0 0.27392442E+03</rscale>
<asrwt>0</asrwt>
<pdfrwt beam="1">  1        1 0.22684691E+00 0.27392442E+03</pdfrwt>
<pdfrwt beam="2">  1       -1 0.19572302E-02 0.27392442E+03</pdfrwt>
<totfact> 0.52660940E+03</totfact>
</mgrwt>
</event>
<event>
 9    1  0.7944303E-001  0.2731673E+03  0.7818608E-02  0.1099480E+00
          2   -1    0    0  501    0  0.00000000000E+00  0.00000000000E+00  0.90630645635E+02  0.90630645635E+02  0.00000000000E+00 0.  1.
         -2   -1    0    0    0  501 -0.00000000000E+00 -0.00000000000E+00 -0.20583643436E+03  0.20583643436E+03  0.00000000000E+00 0.  1.
         35    2    1    2    0    0  0.35527136788E-14  0.00000000000E+00 -0.11520578872E+03  0.29646707999E+03  0.27316726701E+03 0.  0.
         25    2    3    3    0    0 -0.58633148983E+01 -0.55166133175E+02 -0.61122931695E+02  0.15085132645E+03  0.12626333276E+03 0.  0.
         25    2    3    3    0    0  0.58633148983E+01  0.55166133175E+02 -0.54082857025E+02  0.14561575355E+03  0.12329359896E+03 0.  0.
          5    1    4    4  502    0  0.72855554895E+01 -0.29095561969E+02 -0.98566830596E+02  0.10313651700E+03  0.47000000000E+01 0.  1.
         -5    1    4    4    0  502 -0.13148870388E+02 -0.26070571207E+02  0.37443898901E+02  0.47714809445E+02  0.47000000000E+01 0.  1.
          5    1    5    5  503    0  0.57286452232E+02  0.58219541086E+02 -0.44071657761E+02  0.92928217412E+02  0.47000000000E+01 0.  1.
         -5    1    5    5    0  503 -0.51423137334E+02 -0.30534079104E+01 -0.10011199264E+02  0.52687536133E+02  0.47000000000E+01 0.  1.
<mgrwt>
<rscale>  0 0.27316727E+03</rscale>
<asrwt>0</asrwt>
<pdfrwt beam="1">  1        2 0.13943176E-01 0.27316727E+03</pdfrwt>
<pdfrwt beam="2">  1       -2 0.31667143E-01 0.27316727E+03</pdfrwt>
<totfact> 0.39166026E+03</totfact>
</mgrwt>
</event>
<event>
 9    1  0.7944303E-001  0.2758131E+03  0.7818608E-02  0.1097998E+00
          2   -1    0    0  501    0  0.00000000000E+00  0.00000000000E+00  0.63620846182E+02  0.63620846182E+02  0.00000000000E+00 0. -1.
         -2   -1    0    0    0  501 -0.00000000000E+00 -0.00000000000E+00 -0.29893061142E+03  0.29893061142E+03  0.00000000000E+00 0. -1.
         35    2    1    2    0    0  0.00000000000E+00 -0.14210854715E-13 -0.23530976524E+03  0.36255145761E+03  0.27581311389E+03 0.  0.
         25    2    3    3    0    0 -0.24414674562E+02  0.48594585504E+02 -0.89381257617E+02  0.16272796518E+03  0.12463495242E+03 0.  0.
         25    2    3    3    0    0  0.24414674562E+02 -0.48594585504E+02 -0.14592850762E+03  0.19982349242E+03  0.12520698348E+03 0.  0.
          5    1    4    4  502    0  0.23096811205E+02  0.76855491090E+02 -0.56140689873E+02  0.98051497990E+02  0.47000000000E+01 0. -1.
         -5    1    4    4    0  502 -0.47511485767E+02 -0.28260905587E+02 -0.33240567743E+02  0.64676467191E+02  0.47000000000E+01 0. -1.
          5    1    5    5  503    0  0.36111692069E+02  0.35760715612E+02 -0.59596796992E+02  0.78464968597E+02  0.47000000000E+01 0.  1.
         -5    1    5    5    0  503 -0.11697017506E+02 -0.84355301116E+02 -0.86331710632E+02  0.12135852383E+03  0.47000000000E+01 0.  1.
<mgrwt>
<rscale>  0 0.27581311E+03</rscale>
<asrwt>0</asrwt>
<pdfrwt beam="1">  1        2 0.97878226E-02 0.27581311E+03</pdfrwt>
<pdfrwt beam="2">  1       -2 0.45989324E-01 0.27581311E+03</pdfrwt>
<totfact> 0.29759524E+03</totfact>
</mgrwt>
</event>
<event>
 9    1  0.7944303E-001  0.2754018E+03  0.7818608E-02  0.1098227E+00
          2   -1    0    0  501    0  0.00000000000E+00  0.00000000000E+00  0.20585139292E+04  0.20585139292E+04  0.00000000000E+00 0. -1.
         -2   -1    0    0    0  501 -0.00000000000E+00 -0.00000000000E+00 -0.92112779821E+01  0.92112779821E+01  0.00000000000E+00 0. -1.
         35    2    1    2    0    0 -0.35527136788E-14  0.00000000000E+00  0.20493026512E+04  0.20677252072E+04  0.27540184482E+03 0.  0.
         25    2    3    3    0    0 -0.15128030416E+01  0.54102735675E+02  0.12133626263E+04  0.12208093393E+04  0.12327686446E+03 0.  0.
         25    2    3    3    0    0  0.15128030416E+01 -0.54102735675E+02  0.83594002490E+03  0.84691586792E+03  0.12466502123E+03 0.  0.
          5    1    4    4  502    0 -0.42204682360E+02  0.19585216039E+02  0.99035776967E+03  0.99146125383E+03  0.47000000000E+01 0. -1.
         -5    1    4    4    0  502  0.40691879318E+02  0.34517519637E+02  0.22300485667E+03  0.22934808545E+03  0.47000000000E+01 0. -1.
          5    1    5    5  503    0 -0.14890624395E+02 -0.96460659128E+01  0.73581597781E+03  0.73604484951E+03  0.47000000000E+01 0. -1.
         -5    1    5    5    0  503  0.16403427437E+02 -0.44456669763E+02  0.10012404709E+03  0.11087101841E+03  0.47000000000E+01 0. -1.
<mgrwt>
<rscale>  0 0.27540184E+03</rscale>
<asrwt>0</asrwt>
<pdfrwt beam="1">  1        2 0.31669408E+00 0.27540184E+03</pdfrwt>
<pdfrwt beam="2">  1       -2 0.14171213E-02 0.27540184E+03</pdfrwt>
<totfact> 0.88728164E+03</totfact>
</mgrwt>
</event>
<event>
 9    1  0.7944303E-001  0.2815503E+03  0.7818608E-02  0.1094845E+00
          3   -1    0    0  501    0  0.00000000000E+00  0.00000000000E+00  0.20516485255E+03  0.20516485255E+03  0.00000000000E+00 0.  1.
         -3   -1    0    0    0  501 -0.00000000000E+00 -0.00000000000E+00 -0.96593744700E+02  0.96593744700E+02  0.00000000000E+00 0.  1.
         35    2    1    2    0    0  0.00000000000E+00  0.71054273576E-14  0.10857110785E+03  0.30175859725E+03  0.28155028957E+03 0.  0.
         25    2    3    3    0    0 -0.35723446780E+02 -0.49755188727E+02  0.28565569308E+02  0.14206174003E+03  0.12495520308E+03 0.  0.
         25    2    3    3    0    0  0.35723446780E+02  0.49755188727E+02  0.80005538542E+02  0.15969685722E+03  0.12389695941E+03 0.  0.
          5    1    4    4  502    0  0.28898434098E+02 -0.43208728550E+02  0.51203893861E+02  0.73116636019E+02  0.47000000000E+01 0.  1.
         -5    1    4    4    0  502 -0.64621880878E+02 -0.65464601773E+01 -0.22638324553E+02  0.68945104015E+02  0.47000000000E+01 0.  1.
          5    1    5    5  503    0 -0.50706127355E+01  0.51147951699E+02 -0.17006369066E+02  0.54342714924E+02  0.47000000000E+01 0.  1.
         -5    1    5    5    0  503  0.40794059515E+02 -0.13927629715E+01  0.97011907608E+02  0.10535414229E+03  0.47000000000E+01 0.  1.
<mgrwt>
<rscale>  0 0.28155029E+03</rscale>
<asrwt>0</asrwt>
<pdfrwt beam="1">  1        3 0.31563823E-01 0.28155029E+03</pdfrwt>
<pdfrwt beam="2">  1       -3 0.14860576E-01 0.28155029E+03</pdfrwt>
<totfact> 0.93882012E+02</totfact>
</mgrwt>
</event>
<event>
 9    1  0.7944303E-001  0.2772269E+03  0.7818608E-02  0.1097213E+00
          2   -1    0    0  501    0  0.00000000000E+00  0.00000000000E+00  0.20325219499E+03  0.20325219499E+03  0.00000000000E+00 0.  1.
         -2   -1    0    0    0  501 -0.00000000000E+00 -0.00000000000E+00 -0.94531281926E+02  0.94531281926E+02  0.00000000000E+00 0.  1.
         35    2    1    2    0    0  0.17763568394E-14 -0.71054273576E-14  0.10872091306E+03  0.29778347692E+03  0.27722691461E+03 0.  0.
         25    2    3    3    0    0 -0.12797726684E+02  0.59467904824E+02  0.61472851417E+02  0.15153906061E+03  0.12443858693E+03 0.  0.
         25    2    3    3    0    0  0.12797726684E+02 -0.59467904824E+02  0.47248061646E+02  0.14624441630E+03  0.12431748251E+03 0.  0.
          5    1    4    4  502    0 -0.35064468668E+02  0.55861806913E+02  0.91997300355E+02  0.11329453520E+03  0.47000000000E+01 0. -1.
         -5    1    4    4    0  502  0.22266741984E+02  0.36060979109E+01 -0.30524448937E+02  0.38244525408E+02  0.47000000000E+01 0. -1.
          5    1    5    5  503    0  0.21138358434E+02 -0.57294071145E+02 -0.30120671911E+02  0.68255297684E+02  0.47000000000E+01 0. -1.
         -5    1    5    5    0  503 -0.83406317497E+01 -0.21738336793E+01  0.77368733557E+02  0.77989118619E+02  0.47000000000E+01 0. -1.
<mgrwt>
<rscale>  0 0.27722691E+03</rscale>
<asrwt>0</asrwt>
<pdfrwt beam="1">  1        2 0.31269568E-01 0.27722691E+03</pdfrwt>
<pdfrwt beam="2">  1       -2 0.14543274E-01 0.27722691E+03</pdfrwt>
<totfact> 0.59939813E+03</totfact>
</mgrwt>
</event>
<event>
 9    1  0.7944303E-001  0.2758213E+03  0.7818608E-02  0.1097993E+00
         -2   -1    0    0    0  501 -0.00000000000E+00  0.00000000000E+00  0.78015889861E+01  0.78015889861E+01  0.00000000000E+00 0. -1.
          2   -1    0    0  501    0  0.00000000000E+00 -0.00000000000E+00 -0.24378820916E+04  0.24378820916E+04  0.00000000000E+00 0. -1.
         35    2    1    2    0    0  0.00000000000E+00 -0.71054273576E-14 -0.24300805026E+04  0.24456836806E+04  0.27582134852E+03 0.  0.
         25    2    3    3    0    0  0.93156985169E+00  0.11910289990E+02 -0.17351048420E+04  0.17395153129E+04  0.12321521198E+03 0.  0.
         25    2    3    3    0    0 -0.93156985169E+00 -0.11910289990E+02 -0.69497566064E+03  0.70616836765E+03  0.12465902197E+03 0.  0.
          5    1    4    4  502    0  0.53042241274E+02 -0.14783108807E+02 -0.11840128103E+04  0.11853018370E+04  0.47000000000E+01 0. -1.
         -5    1    4    4    0  502 -0.52110671422E+02  0.26693398797E+02 -0.55109203165E+03  0.55421347599E+03  0.47000000000E+01 0. -1.
          5    1    5    5  503    0  0.42488298562E+02 -0.47303896908E+02 -0.26648325800E+03  0.27400425356E+03  0.47000000000E+01 0.  1.
         -5    1    5    5    0  503 -0.43419868413E+02  0.35393606918E+02 -0.42849240264E+03  0.43216411409E+03  0.47000000000E+01 0.  1.
<mgrwt>
<rscale>  0 0.27582135E+03</rscale>
<asrwt>0</asrwt>
<pdfrwt beam="1">  1        2 0.37505937E+00 0.27582135E+03</pdfrwt>
<pdfrwt beam="2">  1       -2 0.12002426E-02 0.27582135E+03</pdfrwt>
<totfact> 0.70877869E+03</totfact>
</mgrwt>
</event>
<event>
 9    1  0.7944303E-001  0.2732199E+03  0.7818608E-02  0.1099451E+00
          1   -1    0    0  501    0  0.00000000000E+00  0.00000000000E+00  0.12713917967E+02  0.12713917967E+02  0.00000000000E+00 0.  1.
         -1   -1    0    0    0  501 -0.00000000000E+00 -0.00000000000E+00 -0.14678615953E+04  0.14678615953E+04  0.00000000000E+00 0.  1.
         35    2    1    2    0    0  0.00000000000E+00  0.00000000000E+00 -0.14551476773E+04  0.14805755132E+04  0.27321985220E+03 0.  0.
         25    2    3    3    0    0  0.21824494025E+01 -0.55330566729E+02 -0.71520298152E+03  0.72810444448E+03  0.12471785192E+03 0.  0.
         25    2    3    3    0    0 -0.21824494025E+01  0.55330566729E+02 -0.73994469578E+03  0.75247106876E+03  0.12501328653E+03 0.  0.
          5    1    4    4  502    0 -0.31191697288E+02 -0.34442959273E+02 -0.65080203943E+03  0.65247576503E+03  0.47000000000E+01 0.  1.
         -5    1    4    4    0  502  0.33374146690E+02 -0.20887607456E+02 -0.64400942092E+02  0.75628679447E+02  0.47000000000E+01 0.  1.
          5    1    5    5  503    0 -0.58240469643E+02  0.48969400500E+02 -0.33351511121E+03  0.34211748552E+03  0.47000000000E+01 0. -1.
         -5    1    5    5    0  503  0.56058020240E+02  0.63611662287E+01 -0.40642958457E+03  0.41035358324E+03  0.47000000000E+01 0. -1.
<mgrwt>
<rscale>  0 0.27321985E+03</rscale>
<asrwt>0</asrwt>
<pdfrwt beam="1">  1        1 0.19559867E-02 0.27321985E+03</pdfrwt>
<pdfrwt beam="2">  1       -1 0.22582494E+00 0.27321985E+03</pdfrwt>
<totfact> 0.70593762E+02</totfact>
</mgrwt>
</event>
<event>
 9    1  0.7944303E-001  0.3043734E+03  0.7818608E-02  0.1083075E+00
          2   -1    0    0  501    0  0.00000000000E+00  0.00000000000E+00  0.14190227704E+04  0.14190227704E+04  0.00000000000E+00 0.  1.
         -2   -1    0    0    0  501 -0.00000000000E+00 -0.00000000000E+00 -0.16321651802E+02  0.16321651802E+02  0.00000000000E+00 0.  1.
         35    2    1    2    0    0 -0.71054273576E-14  0.00000000000E+00  0.14027011186E+04  0.14353444222E+04  0.30437342563E+03 0.  0.
         25    2    3    3    0    0 -0.39402385141E+02  0.26280863292E+02  0.36100446131E+03  0.38503774961E+03  0.12524622075E+03 0.  0.
         25    2    3    3    0    0  0.39402385141E+02 -0.26280863292E+02  0.10416966573E+04  0.10503066726E+04  0.12557447570E+03 0.  0.
          5    1    4    4  502    0  0.14662318934E+01  0.11810497414E+02 -0.69138335282E+01  0.14544028988E+02  0.47000000000E+01 0. -1.
         -5    1    4    4    0  502 -0.40868617035E+02  0.14470365878E+02  0.36791829484E+03  0.37049372063E+03  0.47000000000E+01 0. -1.
          5    1    5    5  503    0 -0.34174610399E+02 -0.24869084953E+02  0.67103227884E+03  0.67237845342E+03  0.47000000000E+01 0. -1.
         -5    1    5    5    0  503  0.73576995540E+02 -0.14117783388E+01  0.37066437848E+03  0.37792821920E+03  0.47000000000E+01 0. -1.
<mgrwt>
<rscale>  0 0.30437343E+03</rscale>
<asrwt>0</asrwt>
<pdfrwt beam="1">  1        2 0.21831110E+00 0.30437343E+03</pdfrwt>
<pdfrwt beam="2">  1       -2 0.25110245E-02 0.30437343E+03</pdfrwt>
<totfact> 0.83479523E+03</totfact>
</mgrwt>
</event>
<event>
 9    1  0.7944303E-001  0.2770624E+03  0.7818608E-02  0.1097304E+00
          2   -1    0    0  501    0  0.00000000000E+00  0.00000000000E+00  0.46630304593E+03  0.46630304593E+03  0.00000000000E+00 0.  1.
         -2   -1    0    0    0  501 -0.00000000000E+00 -0.00000000000E+00 -0.41155399486E+02  0.41155399486E+02  0.00000000000E+00 0.  1.
         35    2    1    2    0    0 -0.14210854715E-13 -0.35527136788E-14  0.42514764645E+03  0.50745844542E+03  0.27706236220E+03 0.  0.
         25    2    3    3    0    0  0.37060419025E+02  0.22211108744E+02  0.29237834850E+03  0.31966142240E+03  0.12178472108E+03 0.  0.
         25    2    3    3    0    0 -0.37060419025E+02 -0.22211108744E+02  0.13276929794E+03  0.18779702302E+03  0.12559150994E+03 0.  0.
          5    1    4    4  502    0  0.42036083135E+02  0.45875370041E+02  0.28794860855E+03  0.29463209776E+03  0.47000000000E+01 0. -1.
         -5    1    4    4    0  502 -0.49756641106E+01 -0.23664261296E+02  0.44297399497E+01  0.25029324643E+02  0.47000000000E+01 0. -1.
          5    1    5    5  503    0  0.43005747299E+02 -0.12456904229E+02  0.78418039183E+02  0.90422052803E+02  0.47000000000E+01 0. -1.
         -5    1    5    5    0  503 -0.80066166324E+02 -0.97542045156E+01  0.54351258762E+02  0.97374970216E+02  0.47000000000E+01 0. -1.
<mgrwt>
<rscale>  0 0.27706236E+03</rscale>
<asrwt>0</asrwt>
<pdfrwt beam="1">  1        2 0.71738926E-01 0.27706236E+03</pdfrwt>
<pdfrwt beam="2">  1       -2 0.63316003E-02 0.27706236E+03</pdfrwt>
<totfact> 0.91195491E+03</totfact>
</mgrwt>
</event>
<event>
 9    1  0.7944303E-001  0.2734651E+03  0.7818608E-02  0.1099313E+00
          1   -1    0    0  501    0  0.00000000000E+00  0.00000000000E+00  0.38169388138E+03  0.38169388138E+03  0.00000000000E+00 0.  1.
         -1   -1    0    0    0  501 -0.00000000000E+00 -0.00000000000E+00 -0.48981127210E+02  0.48981127210E+02  0.00000000000E+00 0.  1.
         35    2    1    2    0    0 -0.71054273576E-14  0.00000000000E+00  0.33271275417E+03  0.43067500859E+03  0.27346514629E+03 0.  0.
         25    2    3    3    0    0 -0.44400414724E+02  0.20614243510E+02  0.20892684045E+03  0.24819504972E+03  0.12471573349E+03 0.  0.
         25    2    3    3    0    0  0.44400414724E+02 -0.20614243510E+02  0.12378591372E+03  0.18247995887E+03  0.12481842449E+03 0.  0.
          5    1    4    4  502    0 -0.35809796170E+02  0.29497192178E+02  0.22361940231E+03  0.22842975493E+03  0.47000000000E+01 0. -1.
         -5    1    4    4    0  502 -0.85906185538E+01 -0.88829486679E+01 -0.14692561858E+02  0.19765294790E+02  0.47000000000E+01 0. -1.
          5    1    5    5  503    0  0.83345906454E+02 -0.49243516944E+00  0.52355108585E+02  0.98538977111E+02  0.47000000000E+01 0.  1.
         -5    1    5    5    0  503 -0.38945491730E+02 -0.20121808341E+02  0.71430805135E+02  0.83940981763E+02  0.47000000000E+01 0.  1.
<mgrwt>
<rscale>  0 0.27346515E+03</rscale>
<asrwt>0</asrwt>
<pdfrwt beam="1">  1        1 0.58722134E-01 0.27346515E+03</pdfrwt>
<pdfrwt beam="2">  1       -1 0.75355583E-02 0.27346515E+03</pdfrwt>
<totfact> 0.60380355E+03</totfact>
</mgrwt>
</event>
<event>
 9    1  0.7944303E-001  0.2729362E+03  0.7818608E-02  0.1099611E+00
          2   -1    0    0  501    0  0.00000000000E+00  0.00000000000E+00  0.22035362637E+04  0.22035362637E+04  0.00000000000E+00 0. -1.
         -2   -1    0    0    0  501 -0.00000000000E+00 -0.00000000000E+00 -0.84516592642E+01  0.84516592642E+01  0.00000000000E+00 0. -1.
         35    2    1    2    0    0 -0.35527136788E-14 -0.71054273576E-14  0.21950846045E+04  0.22119879230E+04  0.27293616600E+03 0.  0.
         25    2    3    3    0    0  0.21200226951E+02  0.24505382237E+02  0.14471973916E+04  0.14529517635E+04  0.12505428168E+03 0.  0.
         25    2    3    3    0    0 -0.21200226951E+02 -0.24505382237E+02  0.74788721287E+03  0.75903615952E+03  0.12550157329E+03 0.  0.
          5    1    4    4  502    0  0.22169299683E+02  0.57834883652E+02  0.36626033980E+03  0.37149034728E+03  0.47000000000E+01 0. -1.
         -5    1    4    4    0  502 -0.96907273243E+00 -0.33329501415E+02  0.10809370518E+04  0.10814614162E+04  0.47000000000E+01 0. -1.
          5    1    5    5  503    0 -0.42974501405E+02 -0.67325234451E+02  0.41180452034E+03  0.41950512266E+03  0.47000000000E+01 0.  1.
         -5    1    5    5    0  503  0.21774274454E+02  0.42819852214E+02  0.33608269253E+03  0.33953103686E+03  0.47000000000E+01 0.  1.
<mgrwt>
<rscale>  0 0.27293617E+03</rscale>
<asrwt>0</asrwt>
<pdfrwt beam="1">  1        2 0.33900512E+00 0.27293617E+03</pdfrwt>
<pdfrwt beam="2">  1       -2 0.13002570E-02 0.27293617E+03</pdfrwt>
<totfact> 0.84298615E+03</totfact>
</mgrwt>
</event>
<event>
 9    1  0.7944303E-001  0.2724023E+03  0.7818608E-02  0.1099913E+00
         -2   -1    0    0    0  501 -0.00000000000E+00  0.00000000000E+00  0.64632690525E+01  0.64632690525E+01  0.00000000000E+00 0. -1.
          2   -1    0    0  501    0  0.00000000000E+00 -0.00000000000E+00 -0.28701817379E+04  0.28701817379E+04  0.00000000000E+00 0. -1.
         35    2    1    2    0    0 -0.71054273576E-14  0.35527136788E-14 -0.28637184688E+04  0.28766450069E+04  0.27240232599E+03 0.  0.
         25    2    3    3    0    0 -0.36565294911E+02 -0.23158553613E+02 -0.13261830977E+04  0.13334780341E+04  0.13239607021E+03 0.  0.
         25    2    3    3    0    0  0.36565294911E+02  0.23158553613E+02 -0.15375353711E+04  0.15431669728E+04  0.12440236803E+03 0.  0.
          5    1    4    4  502    0  0.22289139344E+02  0.39166360665E+02 -0.26660505525E+03  0.27042772607E+03  0.47000000000E+01 0. -1.
         -5    1    4    4    0  502 -0.58854434255E+02 -0.62324914279E+02 -0.10595780425E+04  0.10630503081E+04  0.47000000000E+01 0. -1.
          5    1    5    5  503    0  0.26613377631E+02  0.11607954594E+02 -0.75241600451E+02  0.80786167859E+02  0.47000000000E+01 0.  1.
         -5    1    5    5    0  503  0.99519172804E+01  0.11550599019E+02 -0.14622937706E+04  0.14623808049E+04  0.47000000000E+01 0.  1.
<mgrwt>
<rscale>  0 0.27240233E+03</rscale>
<asrwt>0</asrwt>
<pdfrwt beam="1">  1        2 0.44156766E+00 0.27240233E+03</pdfrwt>
<pdfrwt beam="2">  1       -2 0.99434629E-03 0.27240233E+03</pdfrwt>
<totfact> 0.53372947E+03</totfact>
</mgrwt>
</event>
<event>
 9    1  0.7944303E-001  0.2747521E+03  0.7818608E-02  0.1098590E+00
         -4   -1    0    0    0  501 -0.00000000000E+00  0.00000000000E+00  0.32342329727E+02  0.32342329727E+02  0.00000000000E+00 0. -1.
          4   -1    0    0  501    0  0.00000000000E+00 -0.00000000000E+00 -0.58351329198E+03  0.58351329198E+03  0.00000000000E+00 0. -1.
         35    2    1    2    0    0  0.00000000000E+00  0.71054273576E-14 -0.55117096225E+03  0.61585562171E+03  0.27475210128E+03 0.  0.
         25    2    3    3    0    0  0.93201955431E+01  0.54055175496E+02 -0.31073338720E+03  0.33940650732E+03  0.12503084118E+03 0.  0.
         25    2    3    3    0    0 -0.93201955431E+01 -0.54055175496E+02 -0.24043757505E+03  0.27644911439E+03  0.12492020375E+03 0.  0.
          5    1    4    4  502    0  0.39313838684E+02  0.38050014441E+02 -0.29765641854E+03  0.30267939311E+03  0.47000000000E+01 0.  1.
         -5    1    4    4    0  502 -0.29993643141E+02  0.16005161055E+02 -0.13076968657E+02  0.36727114214E+02  0.47000000000E+01 0.  1.
          5    1    5    5  503    0  0.55808846683E+02 -0.27761006161E+02 -0.82264235239E+02  0.10331890065E+03  0.47000000000E+01 0. -1.
         -5    1    5    5    0  503 -0.65129042226E+02 -0.26294169335E+02 -0.15817333981E+03  0.17313021374E+03  0.47000000000E+01 0. -1.
<mgrwt>
<rscale>  0 0.27475210E+03</rscale>
<asrwt>0</asrwt>
<pdfrwt beam="1">  1        4 0.89771266E-01 0.27475210E+03</pdfrwt>
<pdfrwt beam="2">  1       -4 0.49757436E-02 0.27475210E+03</pdfrwt>
<totfact> 0.49374166E+02</totfact>
</mgrwt>
</event>
<event>
 9    1  0.7944303E-001  0.2795157E+03  0.7818608E-02  0.1095954E+00
          1   -1    0    0  501    0  0.00000000000E+00  0.00000000000E+00  0.65864588603E+03  0.65864588603E+03  0.00000000000E+00 0.  1.
         -1   -1    0    0    0  501 -0.00000000000E+00 -0.00000000000E+00 -0.29655181982E+02  0.29655181982E+02  0.00000000000E+00 0.  1.
         35    2    1    2    0    0 -0.21316282073E-13  0.00000000000E+00  0.62899070405E+03  0.68830106802E+03  0.27951574991E+03 0.  0.
         25    2    3    3    0    0  0.62517121054E+02 -0.90163004336E+01  0.33337562028E+03  0.36151865421E+03  0.12476677861E+03 0.  0.
         25    2    3    3    0    0 -0.62517121054E+02  0.90163004336E+01  0.29561508377E+03  0.32678241380E+03  0.12413212365E+03 0.  0.
          5    1    4    4  502    0  0.95940566375E+02  0.16397940272E+02  0.24006272503E+03  0.25908625334E+03  0.47000000000E+01 0.  1.
         -5    1    4    4    0  502 -0.33423445321E+02 -0.25414240705E+02  0.93312895259E+02  0.10243240088E+03  0.47000000000E+01 0.  1.
          5    1    5    5  503    0 -0.73527607907E+02 -0.12446407213E+02  0.78857801146E+02  0.10863638883E+03  0.47000000000E+01 0. -1.
         -5    1    5    5    0  503  0.11010486854E+02  0.21462707647E+02  0.21675728262E+03  0.21814602497E+03  0.47000000000E+01 0. -1.
<mgrwt>
<rscale>  0 0.27951575E+03</rscale>
<asrwt>0</asrwt>
<pdfrwt beam="1">  1        1 0.10133013E+00 0.27951575E+03</pdfrwt>
<pdfrwt beam="2">  1       -1 0.45623362E-02 0.27951575E+03</pdfrwt>
<totfact> 0.62064878E+03</totfact>
</mgrwt>
</event>
<event>
 9    1  0.7944303E-001  0.2748228E+03  0.7818608E-02  0.1098551E+00
         -1   -1    0    0    0  501 -0.00000000000E+00  0.00000000000E+00  0.75719325670E+02  0.75719325670E+02  0.00000000000E+00 0. -1.
          1   -1    0    0  501    0  0.00000000000E+00 -0.00000000000E+00 -0.24936697296E+03  0.24936697296E+03  0.00000000000E+00 0. -1.
         35    2    1    2    0    0  0.71054273576E-14 -0.71054273576E-14 -0.17364764729E+03  0.32508629863E+03  0.27482284502E+03 0.  0.
         25    2    3    3    0    0 -0.74940219709E+01 -0.50096815206E+02 -0.54913810304E+02  0.14545606914E+03  0.12480420757E+03 0.  0.
         25    2    3    3    0    0  0.74940219709E+01  0.50096815206E+02 -0.11873383698E+03  0.17963022949E+03  0.12491374642E+03 0.  0.
          5    1    4    4  502    0  0.24247053588E+02 -0.21233104865E+02 -0.86201241597E+02  0.92149380914E+02  0.47000000000E+01 0.  1.
         -5    1    4    4    0  502 -0.31741075559E+02 -0.28863710341E+02  0.31287431293E+02  0.53306688222E+02  0.47000000000E+01 0.  1.
          5    1    5    5  503    0  0.41081534633E+02  0.54902079050E+02 -0.14948344585E+02  0.70338281026E+02  0.47000000000E+01 0.  1.
         -5    1    5    5    0  503 -0.33587512662E+02 -0.48052638446E+01 -0.10378549240E+03  0.10929194847E+03  0.47000000000E+01 0.  1.
<mgrwt>
<rscale>  0 0.27482285E+03</rscale>
<asrwt>0</asrwt>
<pdfrwt beam="1">  1        1 0.38364150E-01 0.27482285E+03</pdfrwt>
<pdfrwt beam="2">  1       -1 0.11649127E-01 0.27482285E+03</pdfrwt>
<totfact> 0.52815580E+03</totfact>
</mgrwt>
</event>
<event>
 9    1  0.7944303E-001  0.2770392E+03  0.7818608E-02  0.1097317E+00
         -2   -1    0    0    0  501 -0.00000000000E+00  0.00000000000E+00  0.13244638761E+04  0.13244638761E+04  0.00000000000E+00 0.  1.
          2   -1    0    0  501    0  0.00000000000E+00 -0.00000000000E+00 -0.14487132810E+02  0.14487132810E+02  0.00000000000E+00 0.  1.
         35    2    1    2    0    0 -0.71054273576E-14  0.00000000000E+00  0.13099767433E+04  0.13389510090E+04  0.27703923243E+03 0.  0.
         25    2    3    3    0    0 -0.59239232442E+02 -0.12836754531E+02  0.70254554111E+03  0.71614552134E+03  0.12498040441E+03 0.  0.
         25    2    3    3    0    0  0.59239232442E+02  0.12836754531E+02  0.60743120223E+03  0.62280548761E+03  0.12345015605E+03 0.  0.
          5    1    4    4  502    0 -0.40510228084E+02 -0.37525313005E+02  0.66469942980E+03  0.66700573436E+03  0.47000000000E+01 0.  1.
         -5    1    4    4    0  502 -0.18729004358E+02  0.24688558474E+02  0.37846111310E+02  0.49139786986E+02  0.47000000000E+01 0.  1.
          5    1    5    5  503    0 -0.17633250733E+01  0.22485303053E+02  0.15789110701E+02  0.27929987207E+02  0.47000000000E+01 0. -1.
         -5    1    5    5    0  503  0.61002557516E+02 -0.96485485220E+01  0.59164209153E+03  0.59487550040E+03  0.47000000000E+01 0. -1.
<mgrwt>
<rscale>  0 0.27703923E+03</rscale>
<asrwt>0</asrwt>
<pdfrwt beam="1">  1        2 0.22287907E-02 0.27703923E+03</pdfrwt>
<pdfrwt beam="2">  1       -2 0.20376358E+00 0.27703923E+03</pdfrwt>
<totfact> 0.64379051E+02</totfact>
</mgrwt>
</event>
<event>
 9    1  0.7944303E-001  0.2750735E+03  0.7818608E-02  0.1098411E+00
         -2   -1    0    0    0  501 -0.00000000000E+00  0.00000000000E+00  0.16556835821E+04  0.16556835821E+04  0.00000000000E+00 0. -1.
          2   -1    0    0  501    0  0.00000000000E+00 -0.00000000000E+00 -0.11425100820E+02  0.11425100820E+02  0.00000000000E+00 0. -1.
         35    2    1    2    0    0  0.00000000000E+00  0.00000000000E+00  0.16442584813E+04  0.16671086829E+04  0.27507345820E+03 0.  0.
         25    2    3    3    0    0 -0.17426975746E+02 -0.37618827045E+02  0.58824264690E+03  0.60274229197E+03  0.12469957207E+03 0.  0.
         25    2    3    3    0    0  0.17426975746E+02  0.37618827045E+02  0.10560158344E+04  0.10643663909E+04  0.12644167064E+03 0.  0.
          5    1    4    4  502    0 -0.44988884853E+02 -0.35099032014E+02  0.56000584317E+03  0.56292501827E+03  0.47000000000E+01 0. -1.
         -5    1    4    4    0  502  0.27561909107E+02 -0.25197950306E+01  0.28236803728E+02  0.39817273707E+02  0.47000000000E+01 0. -1.
          5    1    5    5  503    0  0.57864097387E+02 -0.44617687229E+00  0.81172985613E+03  0.81380335596E+03  0.47000000000E+01 0. -1.
         -5    1    5    5    0  503 -0.40437121641E+02  0.38065003917E+02  0.24428597825E+03  0.25056303499E+03  0.47000000000E+01 0. -1.
<mgrwt>
<rscale>  0 0.27507346E+03</rscale>
<asrwt>0</asrwt>
<pdfrwt beam="1">  1        2 0.17577091E-02 0.27507346E+03</pdfrwt>
<pdfrwt beam="2">  1       -2 0.25472036E+00 0.27507346E+03</pdfrwt>
<totfact> 0.44088713E+02</totfact>
</mgrwt>
</event>
<event>
 9    1  0.7944303E-001  0.2763034E+03  0.7818608E-02  0.1097725E+00
         -1   -1    0    0    0  501 -0.00000000000E+00  0.00000000000E+00  0.17921956306E+02  0.17921956306E+02  0.00000000000E+00 0. -1.
          1   -1    0    0  501    0  0.00000000000E+00 -0.00000000000E+00 -0.10649443718E+04  0.10649443718E+04  0.00000000000E+00 0. -1.
         35    2    1    2    0    0  0.00000000000E+00  0.71054273576E-14 -0.10470224155E+04  0.10828663281E+04  0.27630335865E+03 0.  0.
         25    2    3    3    0    0  0.38368936392E+02 -0.40268553144E+02 -0.45030566139E+03  0.47083533402E+03  0.12576562104E+03 0.  0.
         25    2    3    3    0    0 -0.38368936392E+02  0.40268553144E+02 -0.59671675411E+03  0.61203099409E+03  0.12416650690E+03 0.  0.
          5    1    4    4  502    0  0.81022756734E+02 -0.16362639339E+02 -0.21354635426E+03  0.22903396799E+03  0.47000000000E+01 0.  1.
         -5    1    4    4    0  502 -0.42653820342E+02 -0.23905913805E+02 -0.23675930712E+03  0.24180136603E+03  0.47000000000E+01 0.  1.
          5    1    5    5  503    0 -0.33666542423E+02  0.75207095530E+02 -0.53036714448E+03  0.53675035281E+03  0.47000000000E+01 0. -1.
         -5    1    5    5    0  503 -0.47023939693E+01 -0.34938542386E+02 -0.66349609630E+02  0.75280641277E+02  0.47000000000E+01 0. -1.
<mgrwt>
<rscale>  0 0.27630336E+03</rscale>
<asrwt>0</asrwt>
<pdfrwt beam="1">  1        1 0.16383764E+00 0.27630336E+03</pdfrwt>
<pdfrwt beam="2">  1       -1 0.27572233E-02 0.27630336E+03</pdfrwt>
<totfact> 0.61135690E+03</totfact>
</mgrwt>
</event>
<event>
 9    1  0.7944303E-001  0.2764747E+03  0.7818608E-02  0.1097630E+00
         -1   -1    0    0    0  501 -0.00000000000E+00  0.00000000000E+00  0.23553806188E+03  0.23553806188E+03  0.00000000000E+00 0.  1.
          1   -1    0    0  501    0  0.00000000000E+00 -0.00000000000E+00 -0.81131527468E+02  0.81131527468E+02  0.00000000000E+00 0.  1.
         35    2    1    2    0    0  0.71054273576E-14  0.00000000000E+00  0.15440653441E+03  0.31666958935E+03  0.27647468410E+03 0.  0.
         25    2    3    3    0    0  0.41473710027E+02 -0.87113611438E+01  0.36647537766E+02  0.13741508577E+03  0.12547472788E+03 0.  0.
         25    2    3    3    0    0 -0.41473710027E+02  0.87113611438E+01  0.11775899664E+03  0.17925450357E+03  0.12833175493E+03 0.  0.
          5    1    4    4  502    0  0.44456034554E+02 -0.49277670549E+02  0.60585200431E+02  0.89984911703E+02  0.47000000000E+01 0. -1.
         -5    1    4    4    0  502 -0.29823245269E+01  0.40566309405E+02 -0.23937662665E+02  0.47430174069E+02  0.47000000000E+01 0. -1.
          5    1    5    5  503    0 -0.60411775117E+02 -0.40891720351E+02  0.98319335446E+02  0.12251733383E+03  0.47000000000E+01 0.  1.
         -5    1    5    5    0  503  0.18938065090E+02  0.49603081495E+02  0.19439661199E+02  0.56737169745E+02  0.47000000000E+01 0.  1.
<mgrwt>
<rscale>  0 0.27647468E+03</rscale>
<asrwt>0</asrwt>
<pdfrwt beam="1">  1        1 0.12481774E-01 0.27647468E+03</pdfrwt>
<pdfrwt beam="2">  1       -1 0.36236625E-01 0.27647468E+03</pdfrwt>
<totfact> 0.34859683E+03</totfact>
</mgrwt>
</event>
<event>
 9    1  0.7944303E-001  0.2749035E+03  0.7818608E-02  0.1098506E+00
         -2   -1    0    0    0  501 -0.00000000000E+00  0.00000000000E+00  0.14832667141E+02  0.14832667141E+02  0.00000000000E+00 0.  1.
          2   -1    0    0  501    0  0.00000000000E+00 -0.00000000000E+00 -0.12737415957E+04  0.12737415957E+04  0.00000000000E+00 0.  1.
         35    2    1    2    0    0  0.53290705182E-14  0.71054273576E-14 -0.12589089285E+04  0.12885742628E+04  0.27490351116E+03 0.  0.
         25    2    3    3    0    0  0.12215504313E+02 -0.66564823107E+01 -0.36957758135E+03  0.39037493719E+03  0.12494589086E+03 0.  0.
         25    2    3    3    0    0 -0.12215504313E+02  0.66564823107E+01 -0.88933134716E+03  0.89819932561E+03  0.12513295400E+03 0.  0.
          5    1    4    4  502    0  0.51550594886E+02  0.38335572246E+02 -0.21986773456E+03  0.22910912385E+03  0.47000000000E+01 0. -1.
         -5    1    4    4    0  502 -0.39335090572E+02 -0.44992054557E+02 -0.14970984680E+03  0.16126581334E+03  0.47000000000E+01 0. -1.
          5    1    5    5  503    0 -0.19622982592E+02  0.63444548956E+02 -0.39954313685E+03  0.40505194783E+03  0.47000000000E+01 0. -1.
         -5    1    5    5    0  503  0.74074782782E+01 -0.56788066645E+02 -0.48978821031E+03  0.49314737778E+03  0.47000000000E+01 0. -1.
<mgrwt>
<rscale>  0 0.27490351E+03</rscale>
<asrwt>0</asrwt>
<pdfrwt beam="1">  1        2 0.19596023E+00 0.27490351E+03</pdfrwt>
<pdfrwt beam="2">  1       -2 0.22819489E-02 0.27490351E+03</pdfrwt>
<totfact> 0.11536372E+04</totfact>
</mgrwt>
</event>
<event>
 9    1  0.7944303E-001  0.2628367E+03  0.7818608E-02  0.1105451E+00
         -1   -1    0    0    0  501 -0.00000000000E+00  0.00000000000E+00  0.11663437148E+03  0.11663437148E+03  0.00000000000E+00 0.  1.
          1   -1    0    0  501    0  0.00000000000E+00 -0.00000000000E+00 -0.14807624556E+03  0.14807624556E+03  0.00000000000E+00 0.  1.
         35    2    1    2    0    0  0.00000000000E+00  0.00000000000E+00 -0.31441874081E+02  0.26471061704E+03  0.26283667805E+03 0.  0.
         25    2    3    3    0    0 -0.24781205989E+02 -0.24749000253E+02 -0.32208023062E+02  0.13392402390E+03  0.12518652580E+03 0.  0.
         25    2    3    3    0    0  0.24781205989E+02  0.24749000253E+02  0.76614898108E+00  0.13078659314E+03  0.12600763778E+03 0.  0.
          5    1    4    4  502    0  0.34277221622E+02 -0.31288356521E+02 -0.53177780434E+02  0.70737935422E+02  0.47000000000E+01 0. -1.
         -5    1    4    4    0  502 -0.59058427611E+02  0.65393562688E+01  0.20969757371E+02  0.63186088473E+02  0.47000000000E+01 0. -1.
          5    1    5    5  503    0  0.32340404494E+02 -0.86266403042E+01  0.56135798989E+02  0.65525862176E+02  0.47000000000E+01 0. -1.
         -5    1    5    5    0  503 -0.75591985053E+01  0.33375640557E+02 -0.55369650008E+02  0.65260730969E+02  0.47000000000E+01 0. -1.
<mgrwt>
<rscale>  0 0.26283668E+03</rscale>
<asrwt>0</asrwt>
<pdfrwt beam="1">  1        1 0.22780961E-01 0.26283668E+03</pdfrwt>
<pdfrwt beam="2">  1       -1 0.17943750E-01 0.26283668E+03</pdfrwt>
<totfact> 0.51434583E+03</totfact>
</mgrwt>
</event>
<event>
 9    1  0.7944303E-001  0.2731980E+03  0.7818608E-02  0.1099463E+00
          3   -1    0    0  501    0  0.00000000000E+00  0.00000000000E+00  0.14816166348E+03  0.14816166348E+03  0.00000000000E+00 0. -1.
         -3   -1    0    0    0  501 -0.00000000000E+00 -0.00000000000E+00 -0.12593871945E+03  0.12593871945E+03  0.00000000000E+00 0. -1.
         35    2    1    2    0    0  0.35527136788E-14  0.35527136788E-14  0.22222944037E+02  0.27410038293E+03  0.27319802466E+03 0.  0.
         25    2    3    3    0    0  0.23076384556E+02 -0.53355784309E+01  0.59664189749E+02  0.14023666726E+03  0.12468167220E+03 0.  0.
         25    2    3    3    0    0 -0.23076384556E+02  0.53355784309E+01 -0.37441245712E+02  0.13386371567E+03  0.12631967215E+03 0.  0.
          5    1    4    4  502    0  0.52855535441E+02 -0.57352544519E+01  0.85326019569E+02  0.10064402807E+03  0.47000000000E+01 0.  1.
         -5    1    4    4    0  502 -0.29779150885E+02  0.39967602107E+00 -0.25661829819E+02  0.39592639190E+02  0.47000000000E+01 0.  1.
          5    1    5    5  503    0 -0.50988890849E+02  0.51486714963E+02 -0.10429425585E+02  0.73359469230E+02  0.47000000000E+01 0. -1.
         -5    1    5    5    0  503  0.27912506293E+02 -0.46151136532E+02 -0.27011820127E+02  0.60504246441E+02  0.47000000000E+01 0. -1.
<mgrwt>
<rscale>  0 0.27319802E+03</rscale>
<asrwt>0</asrwt>
<pdfrwt beam="1">  1        3 0.22794102E-01 0.27319802E+03</pdfrwt>
<pdfrwt beam="2">  1       -3 0.19375188E-01 0.27319802E+03</pdfrwt>
<totfact> 0.10717098E+03</totfact>
</mgrwt>
</event>
<event>
 9    1  0.7944303E-001  0.2708888E+03  0.7818608E-02  0.1100772E+00
          1   -1    0    0  501    0  0.00000000000E+00  0.00000000000E+00  0.80760920870E+03  0.80760920870E+03  0.00000000000E+00 0.  1.
         -1   -1    0    0    0  501 -0.00000000000E+00 -0.00000000000E+00 -0.22715423169E+02  0.22715423169E+02  0.00000000000E+00 0.  1.
         35    2    1    2    0    0  0.00000000000E+00  0.00000000000E+00  0.78489378553E+03  0.83032463187E+03  0.27088879586E+03 0.  0.
         25    2    3    3    0    0 -0.47172225629E+02  0.17389972771E+02  0.43089434494E+03  0.45154909285E+03  0.12529571713E+03 0.  0.
         25    2    3    3    0    0  0.47172225629E+02 -0.17389972771E+02  0.35399944060E+03  0.37877553902E+03  0.12501069952E+03 0.  0.
          5    1    4    4  502    0  0.20112338732E+02 -0.24535838885E+02  0.27229323832E+03  0.27417551166E+03  0.47000000000E+01 0. -1.
         -5    1    4    4    0  502 -0.67284564360E+02  0.41925811656E+02  0.15860110662E+03  0.17737358119E+03  0.47000000000E+01 0. -1.
          5    1    5    5  503    0 -0.22799610290E+02 -0.46585033037E+02  0.89138275304E+02  0.10323618385E+03  0.47000000000E+01 0.  1.
         -5    1    5    5    0  503  0.69971835919E+02  0.29195060266E+02  0.26486116529E+03  0.27553935517E+03  0.47000000000E+01 0.  1.
<mgrwt>
<rscale>  0 0.27088880E+03</rscale>
<asrwt>0</asrwt>
<pdfrwt beam="1">  1        1 0.12424755E+00 0.27088880E+03</pdfrwt>
<pdfrwt beam="2">  1       -1 0.34946811E-02 0.27088880E+03</pdfrwt>
<totfact> 0.68120236E+03</totfact>
</mgrwt>
</event>
<event>
 9    1  0.7944303E-001  0.2863092E+03  0.7818608E-02  0.1092292E+00
          2   -1    0    0  501    0  0.00000000000E+00  0.00000000000E+00  0.42087615276E+03  0.42087615276E+03  0.00000000000E+00 0. -1.
         -2   -1    0    0    0  501 -0.00000000000E+00 -0.00000000000E+00 -0.48691856051E+02  0.48691856051E+02  0.00000000000E+00 0. -1.
         35    2    1    2    0    0  0.00000000000E+00  0.71054273576E-14  0.37218429671E+03  0.46956800881E+03  0.28630921079E+03 0.  0.
         25    2    3    3    0    0  0.47958134854E+02  0.36142196103E+02  0.24418565645E+03  0.28078951407E+03  0.12493948679E+03 0.  0.
         25    2    3    3    0    0 -0.47958134854E+02 -0.36142196103E+02  0.12799864026E+03  0.18877849474E+03  0.12508967635E+03 0.  0.
          5    1    4    4  502    0  0.79585190414E+02 -0.11373085420E+02  0.12743118324E+03  0.15074463860E+03  0.47000000000E+01 0.  1.
         -5    1    4    4    0  502 -0.31627055560E+02  0.47515281523E+02  0.11675447321E+03  0.13004487547E+03  0.47000000000E+01 0.  1.
          5    1    5    5  503    0 -0.71823205360E+02 -0.58612470325E+02  0.12476498089E+03  0.15550686468E+03  0.47000000000E+01 0. -1.
         -5    1    5    5    0  503  0.23865070506E+02  0.22470274222E+02  0.32336593672E+01  0.33271630059E+02  0.47000000000E+01 0. -1.
<mgrwt>
<rscale>  0 0.28630921E+03</rscale>
<asrwt>0</asrwt>
<pdfrwt beam="1">  1        2 0.64750175E-01 0.28630921E+03</pdfrwt>
<pdfrwt beam="2">  1       -2 0.74910550E-02 0.28630921E+03</pdfrwt>
<totfact> 0.78776410E+03</totfact>
</mgrwt>
</event>
<event>
 9    1  0.7944303E-001  0.2738643E+03  0.7818608E-02  0.1099088E+00
          1   -1    0    0  501    0  0.00000000000E+00  0.00000000000E+00  0.47936224664E+03  0.47936224664E+03  0.00000000000E+00 0. -1.
         -1   -1    0    0    0  501 -0.00000000000E+00 -0.00000000000E+00 -0.39115325475E+02  0.39115325475E+02  0.00000000000E+00 0. -1.
         35    2    1    2    0    0  0.00000000000E+00  0.35527136788E-14  0.44024692117E+03  0.51847757212E+03  0.27386427513E+03 0.  0.
         25    2    3    3    0    0  0.19711021326E+02 -0.30508074070E+02  0.31795851740E+03  0.34379381140E+03  0.12560771881E+03 0.  0.
         25    2    3    3    0    0 -0.19711021326E+02  0.30508074070E+02  0.12228840377E+03  0.17468376072E+03  0.11933438573E+03 0.  0.
          5    1    4    4  502    0  0.60021812244E+02 -0.56490191323E+02  0.19901410180E+03  0.21545872546E+03  0.47000000000E+01 0.  1.
         -5    1    4    4    0  502 -0.40310790918E+02  0.25982117253E+02  0.11894441560E+03  0.12833508594E+03  0.47000000000E+01 0.  1.
          5    1    5    5  503    0 -0.60496948223E+02 -0.41707826440E+01  0.29836205211E+02  0.67746330628E+02  0.47000000000E+01 0.  1.
         -5    1    5    5    0  503  0.40785926897E+02  0.34678856714E+02  0.92452198560E+02  0.10693743009E+03  0.47000000000E+01 0.  1.
<mgrwt>
<rscale>  0 0.27386428E+03</rscale>
<asrwt>0</asrwt>
<pdfrwt beam="1">  1        1 0.73748034E-01 0.27386428E+03</pdfrwt>
<pdfrwt beam="2">  1       -1 0.60177427E-02 0.27386428E+03</pdfrwt>
<totfact> 0.63218491E+03</totfact>
</mgrwt>
</event>
<event>
 9    1  0.7944303E-001  0.2640706E+03  0.7818608E-02  0.1104722E+00
         -2   -1    0    0    0  501 -0.00000000000E+00  0.00000000000E+00  0.55596406572E+02  0.55596406572E+02  0.00000000000E+00 0. -1.
          2   -1    0    0  501    0  0.00000000000E+00 -0.00000000000E+00 -0.31356913153E+03  0.31356913153E+03  0.00000000000E+00 0. -1.
         35    2    1    2    0    0  0.00000000000E+00  0.00000000000E+00 -0.25797272496E+03  0.36916553810E+03  0.26407057333E+03 0.  0.
         25    2    3    3    0    0  0.41800399817E+02 -0.12105641371E+02 -0.14625986081E+03  0.19734218477E+03  0.12513261376E+03 0.  0.
         25    2    3    3    0    0 -0.41800399817E+02  0.12105641371E+02 -0.11171286415E+03  0.17182335334E+03  0.12308403941E+03 0.  0.
          5    1    4    4  502    0 -0.27390857952E+02  0.37878334980E+02 -0.50338799132E+02  0.68855733663E+02  0.47000000000E+01 0.  1.
         -5    1    4    4    0  502  0.69191257768E+02 -0.49983976351E+02 -0.95921061679E+02  0.12848645110E+03  0.47000000000E+01 0.  1.
          5    1    5    5  503    0 -0.60465033068E+02 -0.18425657391E+02 -0.11916175433E+03  0.13497088119E+03  0.47000000000E+01 0.  1.
         -5    1    5    5    0  503  0.18664633251E+02  0.30531298762E+02  0.74488901805E+01  0.36852472148E+02  0.47000000000E+01 0.  1.
<mgrwt>
<rscale>  0 0.26407057E+03</rscale>
<asrwt>0</asrwt>
<pdfrwt beam="1">  1        2 0.48241405E-01 0.26407057E+03</pdfrwt>
<pdfrwt beam="2">  1       -2 0.85532932E-02 0.26407057E+03</pdfrwt>
<totfact> 0.87773826E+03</totfact>
</mgrwt>
</event>
<event>
 9    1  0.7944303E-001  0.2763171E+03  0.7818608E-02  0.1097718E+00
          2   -1    0    0  501    0  0.00000000000E+00  0.00000000000E+00  0.17554356275E+04  0.17554356275E+04  0.00000000000E+00 0.  1.
         -2   -1    0    0    0  501 -0.00000000000E+00 -0.00000000000E+00 -0.10873528045E+02  0.10873528045E+02  0.00000000000E+00 0.  1.
         35    2    1    2    0    0 -0.71054273576E-14  0.35527136788E-14  0.17445620994E+04  0.17663091555E+04  0.27631705359E+03 0.  0.
         25    2    3    3    0    0  0.48122240528E+02 -0.18323218881E+02  0.71382771463E+03  0.72646339657E+03  0.12468989534E+03 0.  0.
         25    2    3    3    0    0 -0.48122240528E+02  0.18323218881E+02  0.10307343848E+04  0.10398457589E+04  0.12733554102E+03 0.  0.
          5    1    4    4  502    0 -0.16055181835E+02  0.13318492287E+02  0.50895182811E+03  0.50940082885E+03  0.47000000000E+01 0. -1.
         -5    1    4    4    0  502  0.64177422363E+02 -0.31641711168E+02  0.20487588652E+03  0.21706256771E+03  0.47000000000E+01 0. -1.
          5    1    5    5  503    0 -0.71380871278E+02  0.30127376278E+02  0.97548822171E+03  0.97857153457E+03  0.47000000000E+01 0.  1.
         -5    1    5    5    0  503  0.23258630750E+02 -0.11804157397E+02  0.55246163088E+02  0.61274224371E+02  0.47000000000E+01 0.  1.
<mgrwt>
<rscale>  0 0.27631705E+03</rscale>
<asrwt>0</asrwt>
<pdfrwt beam="1">  1        2 0.27006679E+00 0.27631705E+03</pdfrwt>
<pdfrwt beam="2">  1       -2 0.16728519E-02 0.27631705E+03</pdfrwt>
<totfact> 0.10043855E+04</totfact>
</mgrwt>
</event>
<event>
 9    1  0.7944303E-001  0.2767967E+03  0.7818608E-02  0.1097451E+00
          2   -1    0    0  501    0  0.00000000000E+00  0.00000000000E+00  0.16564517558E+04  0.16564517558E+04  0.00000000000E+00 0. -1.
         -2   -1    0    0    0  501 -0.00000000000E+00 -0.00000000000E+00 -0.11563335175E+02  0.11563335175E+02  0.00000000000E+00 0. -1.
         35    2    1    2    0    0  0.35527136788E-14 -0.71054273576E-14  0.16448884206E+04  0.16680150910E+04  0.27679672579E+03 0.  0.
         25    2    3    3    0    0 -0.45646581768E+01  0.33421533747E+02  0.53533609276E+03  0.55089311052E+03  0.12554143533E+03 0.  0.
         25    2    3    3    0    0  0.45646581768E+01 -0.33421533747E+02  0.11095523278E+04  0.11171219804E+04  0.12536871986E+03 0.  0.
          5    1    4    4  502    0 -0.54302329865E+02 -0.13834541387E+02  0.31809909066E+03  0.32303135922E+03  0.47000000000E+01 0.  1.
         -5    1    4    4    0  502  0.49737671688E+02  0.47256075134E+02  0.21723700210E+03  0.22786175130E+03  0.47000000000E+01 0.  1.
          5    1    5    5  503    0  0.29048104635E+02  0.41226128693E+02  0.48201731155E+03  0.48467119236E+03  0.47000000000E+01 0. -1.
         -5    1    5    5    0  503 -0.24483446458E+02 -0.74647662441E+02  0.62753501630E+03  0.63245078808E+03  0.47000000000E+01 0. -1.
<mgrwt>
<rscale>  0 0.27679673E+03</rscale>
<asrwt>0</asrwt>
<pdfrwt beam="1">  1        2 0.25483854E+00 0.27679673E+03</pdfrwt>
<pdfrwt beam="2">  1       -2 0.17789760E-02 0.27679673E+03</pdfrwt>
<totfact> 0.10348162E+04</totfact>
</mgrwt>
</event>
<event>
 9    1  0.7944303E-001  0.2759517E+03  0.7818608E-02  0.1097921E+00
          1   -1    0    0  501    0  0.00000000000E+00  0.00000000000E+00  0.57599116900E+03  0.57599116900E+03  0.00000000000E+00 0. -1.
         -1   -1    0    0    0  501 -0.00000000000E+00 -0.00000000000E+00 -0.33051434065E+02  0.33051434065E+02  0.00000000000E+00 0. -1.
         35    2    1    2    0    0  0.00000000000E+00  0.00000000000E+00  0.54293973493E+03  0.60904260306E+03  0.27595169247E+03 0.  0.
         25    2    3    3    0    0 -0.38236971123E+02 -0.42306757816E+02  0.26426283826E+03  0.29868408265E+03  0.12698584891E+03 0.  0.
         25    2    3    3    0    0  0.38236971123E+02  0.42306757816E+02  0.27867689667E+03  0.31035852041E+03  0.12413569486E+03 0.  0.
          5    1    4    4  502    0  0.46634059450E+02 -0.13674524273E+02  0.79390856776E+02  0.93202608625E+02  0.47000000000E+01 0. -1.
         -5    1    4    4    0  502 -0.84871030573E+02 -0.28632233543E+02  0.18487198149E+03  0.20548147403E+03  0.47000000000E+01 0. -1.
          5    1    5    5  503    0 -0.13354936556E+02 -0.36667073607E+02  0.55404228427E+02  0.67930458153E+02  0.47000000000E+01 0. -1.
         -5    1    5    5    0  503  0.51591907679E+02  0.78973831423E+02  0.22327266824E+03  0.24242806226E+03  0.47000000000E+01 0. -1.
<mgrwt>
<rscale>  0 0.27595169E+03</rscale>
<asrwt>0</asrwt>
<pdfrwt beam="1">  1        1 0.88614019E-01 0.27595169E+03</pdfrwt>
<pdfrwt beam="2">  1       -1 0.50848364E-02 0.27595169E+03</pdfrwt>
<totfact> 0.63646440E+03</totfact>
</mgrwt>
</event>
<event>
 9    1  0.7944303E-001  0.2746724E+03  0.7818608E-02  0.1098635E+00
          1   -1    0    0  501    0  0.00000000000E+00  0.00000000000E+00  0.10090835028E+03  0.10090835028E+03  0.00000000000E+00 0.  1.
         -1   -1    0    0    0  501 -0.00000000000E+00 -0.00000000000E+00 -0.18691446844E+03  0.18691446844E+03  0.00000000000E+00 0.  1.
         35    2    1    2    0    0 -0.71054273576E-14  0.10658141036E-13 -0.86006118162E+02  0.28782281872E+03  0.27467239143E+03 0.  0.
         25    2    3    3    0    0  0.33605610373E+02 -0.30609428317E+02 -0.96974031729E+01  0.13434497934E+03  0.12604864019E+03 0.  0.
         25    2    3    3    0    0 -0.33605610373E+02  0.30609428317E+02 -0.76308714989E+02  0.15347783938E+03  0.12516450395E+03 0.  0.
          5    1    4    4  502    0  0.11820214954E+01  0.48119509089E+02  0.11989582840E+01  0.48377803079E+02  0.47000000000E+01 0. -1.
         -5    1    4    4    0  502  0.32423588878E+02 -0.78728937406E+02 -0.10896361457E+02  0.85967176258E+02  0.47000000000E+01 0. -1.
          5    1    5    5  503    0  0.37866427619E+02 -0.10038902889E+02 -0.56259456955E+02  0.68715809015E+02  0.47000000000E+01 0. -1.
         -5    1    5    5    0  503 -0.71472037992E+02  0.40648331206E+02 -0.20049258034E+02  0.84762030369E+02  0.47000000000E+01 0. -1.
<mgrwt>
<rscale>  0 0.27467239E+03</rscale>
<asrwt>0</asrwt>
<pdfrwt beam="1">  1        1 0.15524362E-01 0.27467239E+03</pdfrwt>
<pdfrwt beam="2">  1       -1 0.28756072E-01 0.27467239E+03</pdfrwt>
<totfact> 0.38897474E+03</totfact>
</mgrwt>
</event>
<event>
 9    1  0.7944303E-001  0.2746379E+03  0.7818608E-02  0.1098654E+00
          2   -1    0    0  501    0  0.00000000000E+00  0.00000000000E+00  0.14229349629E+04  0.14229349629E+04  0.00000000000E+00 0. -1.
         -2   -1    0    0    0  501 -0.00000000000E+00 -0.00000000000E+00 -0.13251831433E+02  0.13251831433E+02  0.00000000000E+00 0. -1.
         35    2    1    2    0    0  0.00000000000E+00  0.71054273576E-14  0.14096831315E+04  0.14361867944E+04  0.27463790174E+03 0.  0.
         25    2    3    3    0    0  0.17992599465E+02  0.29783035678E+02  0.94303527285E+03  0.95186240532E+03  0.12456223331E+03 0.  0.
         25    2    3    3    0    0 -0.17992599465E+02 -0.29783035678E+02  0.46664785864E+03  0.48432438903E+03  0.12489646510E+03 0.  0.
          5    1    4    4  502    0  0.37134699693E+02 -0.37978000124E+02  0.54662083091E+03  0.54921556533E+03  0.47000000000E+01 0.  1.
         -5    1    4    4    0  502 -0.19142100229E+02  0.67761035803E+02  0.39641444194E+03  0.40264683999E+03  0.47000000000E+01 0.  1.
          5    1    5    5  503    0 -0.63140151407E+02 -0.44701778755E+02  0.22434891431E+03  0.23735933328E+03  0.47000000000E+01 0. -1.
         -5    1    5    5    0  503  0.45147551943E+02  0.14918743077E+02  0.24229894432E+03  0.24696505575E+03  0.47000000000E+01 0. -1.
<mgrwt>
<rscale>  0 0.27463790E+03</rscale>
<asrwt>0</asrwt>
<pdfrwt beam="1">  1        2 0.21891295E+00 0.27463790E+03</pdfrwt>
<pdfrwt beam="2">  1       -2 0.20387444E-02 0.27463790E+03</pdfrwt>
<totfact> 0.11281685E+04</totfact>
</mgrwt>
</event>
<event>
 9    1  0.7944303E-001  0.2752341E+03  0.7818608E-02  0.1098321E+00
          2   -1    0    0  501    0  0.00000000000E+00  0.00000000000E+00  0.23349069544E+03  0.23349069544E+03  0.00000000000E+00 0. -1.
         -2   -1    0    0    0  501 -0.00000000000E+00 -0.00000000000E+00 -0.81110085848E+02  0.81110085848E+02  0.00000000000E+00 0. -1.
         35    2    1    2    0    0  0.00000000000E+00  0.35527136788E-14  0.15238060960E+03  0.31460078129E+03  0.27523408475E+03 0.  0.
         25    2    3    3    0    0 -0.47842859499E+02 -0.18676968025E+02  0.43717054393E+02  0.14127552688E+03  0.12413631746E+03 0.  0.
         25    2    3    3    0    0  0.47842859499E+02  0.18676968025E+02  0.10866355520E+03  0.17332525441E+03  0.12488437551E+03 0.  0.
          5    1    4    4  502    0  0.14833673044E+02 -0.51069964278E+02 -0.75742942989E+01  0.53922528144E+02  0.47000000000E+01 0.  1.
         -5    1    4    4    0  502 -0.62676532544E+02  0.32392996253E+02  0.51291348692E+02  0.87352998738E+02  0.47000000000E+01 0.  1.
          5    1    5    5  503    0 -0.11550867768E+02 -0.35490899049E+01 -0.23398537748E+02  0.26750703806E+02  0.47000000000E+01 0. -1.
         -5    1    5    5    0  503  0.59393727267E+02  0.22226057930E+02  0.13206209295E+03  0.14657455060E+03  0.47000000000E+01 0. -1.
<mgrwt>
<rscale>  0 0.27523408E+03</rscale>
<asrwt>0</asrwt>
<pdfrwt beam="1">  1        2 0.35921645E-01 0.27523408E+03</pdfrwt>
<pdfrwt beam="2">  1       -2 0.12478475E-01 0.27523408E+03</pdfrwt>
<totfact> 0.66168702E+03</totfact>
</mgrwt>
</event>
<event>
 9    1  0.7944303E-001  0.2764665E+03  0.7818608E-02  0.1097635E+00
         -2   -1    0    0    0  501 -0.00000000000E+00  0.00000000000E+00  0.90398754639E+01  0.90398754639E+01  0.00000000000E+00 0. -1.
          2   -1    0    0  501    0  0.00000000000E+00 -0.00000000000E+00 -0.21137931068E+04  0.21137931068E+04  0.00000000000E+00 0. -1.
         35    2    1    2    0    0 -0.35527136788E-14  0.00000000000E+00 -0.21047532313E+04  0.21228329822E+04  0.27646646409E+03 0.  0.
         25    2    3    3    0    0 -0.21137339365E+02  0.54886489940E+02 -0.11528397226E+04  0.11611952662E+04  0.12599883486E+03 0.  0.
         25    2    3    3    0    0  0.21137339365E+02 -0.54886489940E+02 -0.95191350867E+03  0.96163771598E+03  0.12307905961E+03 0.  0.
          5    1    4    4  502    0 -0.14056755231E+02 -0.17354256619E+02 -0.82786306630E+03  0.82817758309E+03  0.47000000000E+01 0.  1.
         -5    1    4    4    0  502 -0.70805841340E+01  0.72240746559E+02 -0.32497665632E+03  0.33301768314E+03  0.47000000000E+01 0.  1.
          5    1    5    5  503    0 -0.32933569017E+02  0.11988006113E+02 -0.52115270749E+03  0.52235099960E+03  0.47000000000E+01 0.  1.
         -5    1    5    5    0  503  0.54070908383E+02 -0.66874496053E+02 -0.43076080118E+03  0.43928671638E+03  0.47000000000E+01 0.  1.
<mgrwt>
<rscale>  0 0.27646646E+03</rscale>
<asrwt>0</asrwt>
<pdfrwt beam="1">  1        2 0.32519912E+00 0.27646646E+03</pdfrwt>
<pdfrwt beam="2">  1       -2 0.13907493E-02 0.27646646E+03</pdfrwt>
<totfact> 0.85269534E+03</totfact>
</mgrwt>
</event>
<event>
 9    1  0.7944303E-001  0.2764678E+03  0.7818608E-02  0.1097634E+00
          3   -1    0    0  501    0  0.00000000000E+00  0.00000000000E+00  0.35141993543E+03  0.35141993543E+03  0.00000000000E+00 0.  1.
         -3   -1    0    0    0  501 -0.00000000000E+00 -0.00000000000E+00 -0.54375424476E+02  0.54375424476E+02  0.00000000000E+00 0.  1.
         35    2    1    2    0    0  0.17763568394E-14 -0.71054273576E-14  0.29704451096E+03  0.40579535991E+03  0.27646777865E+03 0.  0.
         25    2    3    3    0    0  0.37583318486E+01 -0.52312912918E+02  0.10943937957E+03  0.17404060758E+03  0.12474930609E+03 0.  0.
         25    2    3    3    0    0 -0.37583318486E+01  0.52312912918E+02  0.18760513139E+03  0.23175475233E+03  0.12555402817E+03 0.  0.
          5    1    4    4  502    0 -0.45847818570E+02 -0.43100291631E+01  0.21030348342E+01  0.46336935316E+02  0.47000000000E+01 0. -1.
         -5    1    4    4    0  502  0.49606150418E+02 -0.48002883755E+02  0.10733634473E+03  0.12770367226E+03  0.47000000000E+01 0. -1.
          5    1    5    5  503    0 -0.32219774485E+01  0.41000521741E+02 -0.22959391630E+01  0.41458235109E+02  0.47000000000E+01 0. -1.
         -5    1    5    5    0  503 -0.53635440008E+00  0.11312391177E+02  0.18990107055E+03  0.19029651722E+03  0.47000000000E+01 0. -1.
<mgrwt>
<rscale>  0 0.27646778E+03</rscale>
<asrwt>0</asrwt>
<pdfrwt beam="1">  1        3 0.54064604E-01 0.27646778E+03</pdfrwt>
<pdfrwt beam="2">  1       -3 0.83654501E-02 0.27646778E+03</pdfrwt>
<totfact> 0.86033546E+02</totfact>
</mgrwt>
</event>
<event>
 9    1  0.7944303E-001  0.2766428E+03  0.7818608E-02  0.1097537E+00
         -2   -1    0    0    0  501 -0.00000000000E+00  0.00000000000E+00  0.53793303824E+02  0.53793303824E+02  0.00000000000E+00 0.  1.
          2   -1    0    0  501    0  0.00000000000E+00 -0.00000000000E+00 -0.35567278907E+03  0.35567278907E+03  0.00000000000E+00 0.  1.
         35    2    1    2    0    0  0.00000000000E+00 -0.14210854715E-13 -0.30187948524E+03  0.40946609289E+03  0.27664283402E+03 0.  0.
         25    2    3    3    0    0  0.30482915114E+02 -0.38949529238E+02 -0.10157456798E+03  0.16795389837E+03  0.12427729147E+03 0.  0.
         25    2    3    3    0    0 -0.30482915114E+02  0.38949529238E+02 -0.20030491726E+03  0.24151219452E+03  0.12553806705E+03 0.  0.
          5    1    4    4  502    0  0.60436442744E+02 -0.68291506495E+02 -0.64631685192E+02  0.11187331318E+03  0.47000000000E+01 0. -1.
         -5    1    4    4    0  502 -0.29953527629E+02  0.29341977257E+02 -0.36942882790E+02  0.56080585193E+02  0.47000000000E+01 0. -1.
          5    1    5    5  503    0  0.18127853281E+02 -0.38453891294E+02 -0.75054345769E+02  0.86386142634E+02  0.47000000000E+01 0.  1.
         -5    1    5    5    0  503 -0.48610768396E+02  0.77403420532E+02 -0.12525057149E+03  0.15512605188E+03  0.47000000000E+01 0.  1.
<mgrwt>
<rscale>  0 0.27664283E+03</rscale>
<asrwt>0</asrwt>
<pdfrwt beam="1">  1        2 0.54718890E-01 0.27664283E+03</pdfrwt>
<pdfrwt beam="2">  1       -2 0.82758930E-02 0.27664283E+03</pdfrwt>
<totfact> 0.80848923E+03</totfact>
</mgrwt>
</event>
<event>
 9    1  0.7944303E-001  0.2774983E+03  0.7818608E-02  0.1097063E+00
         -2   -1    0    0    0  501 -0.00000000000E+00  0.00000000000E+00  0.91685446074E+01  0.91685446074E+01  0.00000000000E+00 0.  1.
          2   -1    0    0  501    0  0.00000000000E+00 -0.00000000000E+00 -0.20997144345E+04  0.20997144345E+04  0.00000000000E+00 0.  1.
         35    2    1    2    0    0  0.00000000000E+00 -0.17763568394E-14 -0.20905458899E+04  0.21088829792E+04  0.27749829157E+03 0.  0.
         25    2    3    3    0    0 -0.48186577361E+02  0.13206815068E+02 -0.13037803982E+04  0.13106733657E+04  0.12459927171E+03 0.  0.
         25    2    3    3    0    0  0.48186577361E+02 -0.13206815068E+02 -0.78676549171E+03  0.79820961347E+03  0.12506910843E+03 0.  0.
          5    1    4    4  502    0 -0.23736819465E+02 -0.22444461902E+02 -0.85980787634E+02  0.92097645521E+02  0.47000000000E+01 0. -1.
         -5    1    4    4    0  502 -0.24449757896E+02  0.35651276970E+02 -0.12177996106E+04  0.12185757202E+04  0.47000000000E+01 0. -1.
          5    1    5    5  503    0  0.40375896805E+02  0.77633462147E+01 -0.71752650228E+02  0.82831246532E+02  0.47000000000E+01 0. -1.
         -5    1    5    5    0  503  0.78106805558E+01 -0.20970161282E+02 -0.71501284149E+03  0.71537836694E+03  0.47000000000E+01 0. -1.
<mgrwt>
<rscale>  0 0.27749829E+03</rscale>
<asrwt>0</asrwt>
<pdfrwt beam="1">  1        2 0.32303266E+00 0.27749829E+03</pdfrwt>
<pdfrwt beam="2">  1       -2 0.14105467E-02 0.27749829E+03</pdfrwt>
<totfact> 0.84972716E+03</totfact>
</mgrwt>
</event>
<event>
 9    1  0.7944303E-001  0.2724216E+03  0.7818608E-02  0.1099902E+00
          1   -1    0    0  501    0  0.00000000000E+00  0.00000000000E+00  0.57452466628E+03  0.57452466628E+03  0.00000000000E+00 0. -1.
         -1   -1    0    0    0  501 -0.00000000000E+00 -0.00000000000E+00 -0.32293440180E+02  0.32293440180E+02  0.00000000000E+00 0. -1.
         35    2    1    2    0    0  0.17763568394E-14  0.00000000000E+00  0.54223122610E+03  0.60681810646E+03  0.27242156994E+03 0.  0.
         25    2    3    3    0    0  0.11641985372E+02  0.24511159116E+02  0.36728650938E+03  0.39018274703E+03  0.12886761952E+03 0.  0.
         25    2    3    3    0    0 -0.11641985372E+02 -0.24511159116E+02  0.17494471672E+03  0.21663535943E+03  0.12485548568E+03 0.  0.
          5    1    4    4  502    0  0.27452115102E+02  0.65289849251E+02  0.30963074300E+03  0.31766282447E+03  0.47000000000E+01 0.  1.
         -5    1    4    4    0  502 -0.15810129730E+02 -0.40778690135E+02  0.57655766378E+02  0.72519922558E+02  0.47000000000E+01 0.  1.
          5    1    5    5  503    0 -0.10161875971E+02 -0.69467353060E+02  0.14829606828E+03  0.16414259268E+03  0.47000000000E+01 0. -1.
         -5    1    5    5    0  503 -0.14801094010E+01  0.44956193944E+02  0.26648648443E+02  0.52492766755E+02  0.47000000000E+01 0. -1.
<mgrwt>
<rscale>  0 0.27242157E+03</rscale>
<asrwt>0</asrwt>
<pdfrwt beam="1">  1        1 0.88388403E-01 0.27242157E+03</pdfrwt>
<pdfrwt beam="2">  1       -1 0.49682220E-02 0.27242157E+03</pdfrwt>
<totfact> 0.66103617E+03</totfact>
</mgrwt>
</event>
<event>
 9    1  0.7944303E-001  0.2759138E+03  0.7818608E-02  0.1097942E+00
          1   -1    0    0  501    0  0.00000000000E+00  0.00000000000E+00  0.20889985189E+04  0.20889985189E+04  0.00000000000E+00 0.  1.
         -1   -1    0    0    0  501 -0.00000000000E+00 -0.00000000000E+00 -0.91106370866E+01  0.91106370866E+01  0.00000000000E+00 0.  1.
         35    2    1    2    0    0 -0.35527136788E-14 -0.14210854715E-13  0.20798878818E+04  0.20981091559E+04  0.27591380813E+03 0.  0.
         25    2    3    3    0    0 -0.23588042689E+02 -0.51038129295E+02  0.83342113641E+03  0.84477494441E+03  0.12606597355E+03 0.  0.
         25    2    3    3    0    0  0.23588042689E+02  0.51038129295E+02  0.12464667454E+04  0.12533342115E+04  0.11834699874E+03 0.  0.
          5    1    4    4  502    0 -0.56540595702E+02  0.51188928463E+01  0.59028946925E+03  0.59303186216E+03  0.47000000000E+01 0. -1.
         -5    1    4    4    0  502  0.32952553013E+02 -0.56157022142E+02  0.24313166716E+03  0.25174308225E+03  0.47000000000E+01 0. -1.
          5    1    5    5  503    0 -0.19710674005E+02 -0.17362004840E+02  0.73458071424E+03  0.73506521181E+03  0.47000000000E+01 0.  1.
         -5    1    5    5    0  503  0.43298716695E+02  0.68400134136E+02  0.51188603112E+03  0.51826899972E+03  0.47000000000E+01 0.  1.
<mgrwt>
<rscale>  0 0.27591381E+03</rscale>
<asrwt>0</asrwt>
<pdfrwt beam="1">  1        1 0.32138401E+00 0.27591381E+03</pdfrwt>
<pdfrwt beam="2">  1       -1 0.14016381E-02 0.27591381E+03</pdfrwt>
<totfact> 0.34019357E+03</totfact>
</mgrwt>
</event>
<event>
 9    1  0.7944303E-001  0.2744283E+03  0.7818608E-02  0.1098772E+00
          2   -1    0    0  501    0  0.00000000000E+00  0.00000000000E+00  0.38114363771E+03  0.38114363771E+03  0.00000000000E+00 0.  1.
         -2   -1    0    0    0  501 -0.00000000000E+00 -0.00000000000E+00 -0.49397967148E+02  0.49397967148E+02  0.00000000000E+00 0.  1.
         35    2    1    2    0    0  0.71054273576E-14 -0.35527136788E-14  0.33174567057E+03  0.43054160486E+03  0.27442828495E+03 0.  0.
         25    2    3    3    0    0 -0.46533232281E+02  0.16050469123E+02  0.12149380575E+03  0.18127186692E+03  0.12520297775E+03 0.  0.
         25    2    3    3    0    0  0.46533232281E+02 -0.16050469123E+02  0.21025186481E+03  0.24926973794E+03  0.12452548465E+03 0.  0.
          5    1    4    4  502    0 -0.48539732736E+02 -0.32789888550E+02  0.10224770905E+02  0.59648289039E+02  0.47000000000E+01 0.  1.
         -5    1    4    4    0  502  0.20065004555E+01  0.48840357673E+02  0.11126903485E+03  0.12162357788E+03  0.47000000000E+01 0.  1.
          5    1    5    5  503    0  0.10601918753E+02  0.31901448563E+02  0.36933668867E+01  0.34144312273E+02  0.47000000000E+01 0. -1.
         -5    1    5    5    0  503  0.35931313528E+02 -0.47951917686E+02  0.20655849793E+03  0.21512542567E+03  0.47000000000E+01 0. -1.
<mgrwt>
<rscale>  0 0.27442828E+03</rscale>
<asrwt>0</asrwt>
<pdfrwt beam="1">  1        2 0.58637481E-01 0.27442828E+03</pdfrwt>
<pdfrwt beam="2">  1       -2 0.75996875E-02 0.27442828E+03</pdfrwt>
<totfact> 0.85674067E+03</totfact>
</mgrwt>
</event>
<event>
 9    1  0.7944303E-001  0.2766756E+03  0.7818608E-02  0.1097519E+00
         -2   -1    0    0    0  501 -0.00000000000E+00  0.00000000000E+00  0.35372191671E+03  0.35372191671E+03  0.00000000000E+00 0. -1.
          2   -1    0    0  501    0  0.00000000000E+00 -0.00000000000E+00 -0.54102786189E+02  0.54102786189E+02  0.00000000000E+00 0. -1.
         35    2    1    2    0    0  0.00000000000E+00  0.00000000000E+00  0.29961913052E+03  0.40782470290E+03  0.27667555895E+03 0.  0.
         25    2    3    3    0    0 -0.44250347418E+02 -0.29029328829E+02  0.10962395187E+03  0.17443972531E+03  0.12494403453E+03 0.  0.
         25    2    3    3    0    0  0.44250347418E+02  0.29029328829E+02  0.18999517864E+03  0.23338497758E+03  0.12477814181E+03 0.  0.
          5    1    4    4  502    0  0.95752375089E+01 -0.37681014328E+02 -0.12095085761E+02  0.40986889534E+02  0.47000000000E+01 0.  1.
         -5    1    4    4    0  502 -0.53825584927E+02  0.86516854990E+01  0.12171903763E+03  0.13345283578E+03  0.47000000000E+01 0.  1.
          5    1    5    5  503    0  0.53833350581E+02  0.40373162500E+02  0.32063730661E+02  0.74687312905E+02  0.47000000000E+01 0. -1.
         -5    1    5    5    0  503 -0.95830031622E+01 -0.11343833671E+02  0.15793144798E+03  0.15869766468E+03  0.47000000000E+01 0. -1.
<mgrwt>
<rscale>  0 0.27667556E+03</rscale>
<asrwt>0</asrwt>
<pdfrwt beam="1">  1        2 0.83235058E-02 0.27667556E+03</pdfrwt>
<pdfrwt beam="2">  1       -2 0.54418755E-01 0.27667556E+03</pdfrwt>
<totfact> 0.26073332E+03</totfact>
</mgrwt>
</event>
<event>
 9    1  0.7944303E-001  0.2730325E+03  0.7818608E-02  0.1099556E+00
         -1   -1    0    0    0  501 -0.00000000000E+00  0.00000000000E+00  0.26074939771E+02  0.26074939771E+02  0.00000000000E+00 0. -1.
          1   -1    0    0  501    0  0.00000000000E+00 -0.00000000000E+00 -0.71473542639E+03  0.71473542639E+03  0.00000000000E+00 0. -1.
         35    2    1    2    0    0  0.00000000000E+00  0.71054273576E-14 -0.68866048662E+03  0.74081036616E+03  0.27303247569E+03 0.  0.
         25    2    3    3    0    0 -0.60111390268E+01 -0.28763947471E+02 -0.22666013279E+03  0.26069744004E+03  0.12539872800E+03 0.  0.
         25    2    3    3    0    0  0.60111390268E+01  0.28763947471E+02 -0.46200035383E+03  0.48011292612E+03  0.12728156355E+03 0.  0.
          5    1    4    4  502    0 -0.30058582575E+02 -0.50405767983E+02 -0.39957842541E+02  0.71154613433E+02  0.47000000000E+01 0.  1.
         -5    1    4    4    0  502  0.24047443548E+02  0.21641820511E+02 -0.18670229025E+03  0.18954282661E+03  0.47000000000E+01 0.  1.
          5    1    5    5  503    0 -0.40894206030E+02  0.49062736195E+02 -0.36292706612E+03  0.36853444003E+03  0.47000000000E+01 0. -1.
         -5    1    5    5    0  503  0.46905345057E+02 -0.20298788724E+02 -0.99073287717E+02  0.11157848609E+03  0.47000000000E+01 0. -1.
<mgrwt>
<rscale>  0 0.27303248E+03</rscale>
<asrwt>0</asrwt>
<pdfrwt beam="1">  1        1 0.10995929E+00 0.27303248E+03</pdfrwt>
<pdfrwt beam="2">  1       -1 0.40115295E-02 0.27303248E+03</pdfrwt>
<totfact> 0.66741738E+03</totfact>
</mgrwt>
</event>
<event>
 9    1  0.7944303E-001  0.2795945E+03  0.7818608E-02  0.1095911E+00
         -2   -1    0    0    0  501 -0.00000000000E+00  0.00000000000E+00  0.50413672639E+03  0.50413672639E+03  0.00000000000E+00 0. -1.
          2   -1    0    0  501    0  0.00000000000E+00 -0.00000000000E+00 -0.38765810200E+02  0.38765810200E+02  0.00000000000E+00 0. -1.
         35    2    1    2    0    0 -0.35527136788E-14 -0.71054273576E-14  0.46537091619E+03  0.54290253659E+03  0.27959448242E+03 0.  0.
         25    2    3    3    0    0 -0.92338410994E+00  0.26679097731E+02  0.12189348301E+03  0.17636349125E+03  0.12463319362E+03 0.  0.
         25    2    3    3    0    0  0.92338410994E+00 -0.26679097731E+02  0.34347743319E+03  0.36653904534E+03  0.12514590588E+03 0.  0.
          5    1    4    4  502    0  0.24613498303E+02  0.68889220081E+02  0.48832814766E+02  0.88081114548E+02  0.47000000000E+01 0.  1.
         -5    1    4    4    0  502 -0.25536882413E+02 -0.42210122350E+02  0.73060668241E+02  0.88282376701E+02  0.47000000000E+01 0.  1.
          5    1    5    5  503    0  0.33631140265E+02 -0.63261196858E+02  0.25862174913E+03  0.26840330055E+03  0.47000000000E+01 0.  1.
         -5    1    5    5    0  503 -0.32707756155E+02  0.36582099127E+02  0.84855684056E+02  0.98135744792E+02  0.47000000000E+01 0.  1.
<mgrwt>
<rscale>  0 0.27959448E+03</rscale>
<asrwt>0</asrwt>
<pdfrwt beam="1">  1        2 0.59639711E-02 0.27959448E+03</pdfrwt>
<pdfrwt beam="2">  1       -2 0.77559492E-01 0.27959448E+03</pdfrwt>
<totfact> 0.18971794E+03</totfact>
</mgrwt>
</event>
<event>
 9    1  0.7944303E-001  0.2780464E+03  0.7818608E-02  0.1096761E+00
         -1   -1    0    0    0  501 -0.00000000000E+00  0.00000000000E+00  0.43371688909E+02  0.43371688909E+02  0.00000000000E+00 0.  1.
          1   -1    0    0  501    0  0.00000000000E+00 -0.00000000000E+00 -0.44562352507E+03  0.44562352507E+03  0.00000000000E+00 0.  1.
         35    2    1    2    0    0  0.00000000000E+00  0.10658141036E-13 -0.40225183616E+03  0.48899521398E+03  0.27804636232E+03 0.  0.
         25    2    3    3    0    0 -0.34172248492E+02 -0.28005176287E+02 -0.27619390456E+03  0.30636889894E+03  0.12500718722E+03 0.  0.
         25    2    3    3    0    0  0.34172248492E+02  0.28005176287E+02 -0.12605793160E+03  0.18262631504E+03  0.12453809200E+03 0.  0.
          5    1    4    4  502    0 -0.33861223918E+02  0.45913567813E+02 -0.99728197433E+02  0.11498887580E+03  0.47000000000E+01 0.  1.
         -5    1    4    4    0  502 -0.31102457412E+00 -0.73918744099E+02 -0.17646570713E+03  0.19138002314E+03  0.47000000000E+01 0.  1.
          5    1    5    5  503    0  0.78451268762E+02  0.36722900371E+02 -0.84328215463E+02  0.12098144860E+03  0.47000000000E+01 0.  1.
         -5    1    5    5    0  503 -0.44279020270E+02 -0.87177240840E+01 -0.41729716137E+02  0.61644866438E+02  0.47000000000E+01 0.  1.
<mgrwt>
<rscale>  0 0.27804636E+03</rscale>
<asrwt>0</asrwt>
<pdfrwt beam="1">  1        1 0.68557471E-01 0.27804636E+03</pdfrwt>
<pdfrwt beam="2">  1       -1 0.66725670E-02 0.27804636E+03</pdfrwt>
<totfact> 0.59529843E+03</totfact>
</mgrwt>
</event>
<event>
 9    1  0.7944303E-001  0.2765727E+03  0.7818608E-02  0.1097576E+00
         -2   -1    0    0    0  501 -0.00000000000E+00  0.00000000000E+00  0.73269178575E+02  0.73269178575E+02  0.00000000000E+00 0. -1.
          2   -1    0    0  501    0  0.00000000000E+00 -0.00000000000E+00 -0.26099809315E+03  0.26099809315E+03  0.00000000000E+00 0. -1.
         35    2    1    2    0    0  0.00000000000E+00  0.53290705182E-14 -0.18772891457E+03  0.33426727172E+03  0.27657270939E+03 0.  0.
         25    2    3    3    0    0 -0.23417724865E+02 -0.97976819932E+01 -0.30214877287E+02  0.13120593118E+03  0.12513062438E+03 0.  0.
         25    2    3    3    0    0  0.23417724865E+02  0.97976819932E+01 -0.15751403729E+03  0.20306134054E+03  0.12561389919E+03 0.  0.
          5    1    4    4  502    0 -0.58984657666E+02  0.35134080897E+02 -0.25964359742E+02  0.73551556458E+02  0.47000000000E+01 0.  1.
         -5    1    4    4    0  502  0.35566932801E+02 -0.44931762891E+02 -0.42505175453E+01  0.57654374723E+02  0.47000000000E+01 0.  1.
          5    1    5    5  503    0  0.49621547697E+02 -0.10633750214E+02 -0.16142159679E+03  0.16927609562E+03  0.47000000000E+01 0.  1.
         -5    1    5    5    0  503 -0.26203822832E+02  0.20431432207E+02  0.39075595019E+01  0.33785244920E+02  0.47000000000E+01 0.  1.
<mgrwt>
<rscale>  0 0.27657271E+03</rscale>
<asrwt>0</asrwt>
<pdfrwt beam="1">  1        2 0.40153553E-01 0.27657271E+03</pdfrwt>
<pdfrwt beam="2">  1       -2 0.11272181E-01 0.27657271E+03</pdfrwt>
<totfact> 0.69127985E+03</totfact>
</mgrwt>
</event>
<event>
 9    1  0.7944303E-001  0.2771846E+03  0.7818608E-02  0.1097237E+00
         -2   -1    0    0    0  501 -0.00000000000E+00  0.00000000000E+00  0.16645402604E+03  0.16645402604E+03  0.00000000000E+00 0. -1.
          2   -1    0    0  501    0  0.00000000000E+00 -0.00000000000E+00 -0.11539418493E+03  0.11539418493E+03  0.00000000000E+00 0. -1.
         35    2    1    2    0    0 -0.71054273576E-14 -0.71054273576E-14  0.51059841107E+02  0.28184821098E+03  0.27718460754E+03 0.  0.
         25    2    3    3    0    0 -0.39807956477E+02 -0.43239300619E+02  0.32777997799E+02  0.14232560840E+03  0.12541080955E+03 0.  0.
         25    2    3    3    0    0  0.39807956477E+02  0.43239300619E+02  0.18281843308E+02  0.13952260257E+03  0.12521190166E+03 0.  0.
          5    1    4    4  502    0  0.34132655618E+02  0.19818206093E+02  0.27486383132E+00  0.39748773848E+02  0.47000000000E+01 0. -1.
         -5    1    4    4    0  502 -0.73940612095E+02 -0.63057506712E+02  0.32503133967E+02  0.10257683456E+03  0.47000000000E+01 0. -1.
          5    1    5    5  503    0 -0.28036706806E+02  0.37704465623E+02  0.45956096932E+02  0.65891854593E+02  0.47000000000E+01 0.  1.
         -5    1    5    5    0  503  0.67844663283E+02  0.55348349965E+01 -0.27674253624E+02  0.73630747980E+02  0.47000000000E+01 0.  1.
<mgrwt>
<rscale>  0 0.27718461E+03</rscale>
<asrwt>0</asrwt>
<pdfrwt beam="1">  1        2 0.17752951E-01 0.27718461E+03</pdfrwt>
<pdfrwt beam="2">  1       -2 0.25608312E-01 0.27718461E+03</pdfrwt>
<totfact> 0.43207974E+03</totfact>
</mgrwt>
</event>
<event>
 9    1  0.7944303E-001  0.2774234E+03  0.7818608E-02  0.1097105E+00
          1   -1    0    0  501    0  0.00000000000E+00  0.00000000000E+00  0.72074609984E+03  0.72074609984E+03  0.00000000000E+00 0.  1.
         -1   -1    0    0    0  501 -0.00000000000E+00 -0.00000000000E+00 -0.26695856801E+02  0.26695856801E+02  0.00000000000E+00 0.  1.
         35    2    1    2    0    0  0.00000000000E+00 -0.71054273576E-14  0.69405024304E+03  0.74744195664E+03  0.27742339246E+03 0.  0.
         25    2    3    3    0    0 -0.44250531464E+01  0.46409083035E+02  0.45174751423E+03  0.47099202929E+03  0.12483705762E+03 0.  0.
         25    2    3    3    0    0  0.44250531464E+01 -0.46409083035E+02  0.24230272881E+03  0.27644992735E+03  0.12466180595E+03 0.  0.
          5    1    4    4  502    0  0.86180145325E+01  0.10709630144E+02  0.42263821749E+03  0.42288783292E+03  0.47000000000E+01 0.  1.
         -5    1    4    4    0  502 -0.13043067679E+02  0.35699452891E+02  0.29109296744E+02  0.48104196367E+02  0.47000000000E+01 0.  1.
          5    1    5    5  503    0  0.32125752543E+02  0.20384247686E+02  0.21268120265E+02  0.43840671411E+02  0.47000000000E+01 0. -1.
         -5    1    5    5    0  503 -0.27700699397E+02 -0.66793330721E+02  0.22103460854E+03  0.23260925594E+03  0.47000000000E+01 0. -1.
<mgrwt>
<rscale>  0 0.27742339E+03</rscale>
<asrwt>0</asrwt>
<pdfrwt beam="1">  1        1 0.11088400E+00 0.27742339E+03</pdfrwt>
<pdfrwt beam="2">  1       -1 0.41070554E-02 0.27742339E+03</pdfrwt>
<totfact> 0.63682544E+03</totfact>
</mgrwt>
</event>
<event>
 9    1  0.7944303E-001  0.2746275E+03  0.7818608E-02  0.1098660E+00
         -1   -1    0    0    0  501 -0.00000000000E+00  0.00000000000E+00  0.29644087320E+03  0.29644087320E+03  0.00000000000E+00 0. -1.
          1   -1    0    0  501    0  0.00000000000E+00 -0.00000000000E+00 -0.63604816521E+02  0.63604816521E+02  0.00000000000E+00 0. -1.
         35    2    1    2    0    0  0.00000000000E+00  0.00000000000E+00  0.23283605668E+03  0.36004568972E+03  0.27462751027E+03 0.  0.
         25    2    3    3    0    0 -0.90420313707E+01  0.55611606609E+02  0.11555955893E+03  0.17958405663E+03  0.12538744999E+03 0.  0.
         25    2    3    3    0    0  0.90420313707E+01 -0.55611606609E+02  0.11727649775E+03  0.18046163309E+03  0.12505284872E+03 0.  0.
          5    1    4    4  502    0  0.22192057773E+02  0.10646437953E+02 -0.20801663219E+02  0.32567364984E+02  0.47000000000E+01 0.  1.
         -5    1    4    4    0  502 -0.31234089144E+02  0.44965168656E+02  0.13636122214E+03  0.14701669164E+03  0.47000000000E+01 0.  1.
          5    1    5    5  503    0 -0.15945485247E+02 -0.49534619272E+01 -0.23207761316E+02  0.28973875649E+02  0.47000000000E+01 0. -1.
         -5    1    5    5    0  503  0.24987516618E+02 -0.50658144682E+02  0.14048425907E+03  0.15148775744E+03  0.47000000000E+01 0. -1.
<mgrwt>
<rscale>  0 0.27462751E+03</rscale>
<asrwt>0</asrwt>
<pdfrwt beam="1">  1        1 0.97853566E-02 0.27462751E+03</pdfrwt>
<pdfrwt beam="2">  1       -1 0.45606287E-01 0.27462751E+03</pdfrwt>
<totfact> 0.32037790E+03</totfact>
</mgrwt>
</event>
<event>
 9    1  0.7944303E-001  0.2732311E+03  0.7818608E-02  0.1099444E+00
         -3   -1    0    0    0  501 -0.00000000000E+00  0.00000000000E+00  0.28233916521E+02  0.28233916521E+02  0.00000000000E+00 0.  1.
          3   -1    0    0  501    0  0.00000000000E+00 -0.00000000000E+00 -0.66104217361E+03  0.66104217361E+03  0.00000000000E+00 0.  1.
         35    2    1    2    0    0  0.00000000000E+00  0.17763568394E-14 -0.63280825709E+03  0.68927609013E+03  0.27323110765E+03 0.  0.
         25    2    3    3    0    0 -0.38037817906E+02 -0.13472374122E+02 -0.40658017844E+03  0.42777146580E+03  0.12669887529E+03 0.  0.
         25    2    3    3    0    0  0.38037817906E+02  0.13472374122E+02 -0.22622807865E+03  0.26150462433E+03  0.12480843129E+03 0.  0.
          5    1    4    4  502    0 -0.55352478029E+01 -0.11961367038E+01 -0.38804232159E+03  0.38811210114E+03  0.47000000000E+01 0. -1.
         -5    1    4    4    0  502 -0.32502570103E+02 -0.12276237418E+02 -0.18537856850E+02  0.39659364658E+02  0.47000000000E+01 0. -1.
          5    1    5    5  503    0 -0.41454557721E+02  0.65022078463E+01 -0.12844086570E+03  0.13520319909E+03  0.47000000000E+01 0. -1.
         -5    1    5    5    0  503  0.79492375627E+02  0.69701662757E+01 -0.97787212953E+02  0.12630142524E+03  0.47000000000E+01 0. -1.
<mgrwt>
<rscale>  0 0.27323111E+03</rscale>
<asrwt>0</asrwt>
<pdfrwt beam="1">  1        3 0.10169879E+00 0.27323111E+03</pdfrwt>
<pdfrwt beam="2">  1       -3 0.43436799E-02 0.27323111E+03</pdfrwt>
<totfact> 0.63072335E+02</totfact>
</mgrwt>
</event>
<event>
 9    1  0.7944303E-001  0.2768084E+03  0.7818608E-02  0.1097445E+00
          2   -1    0    0  501    0  0.00000000000E+00  0.00000000000E+00  0.13390398658E+03  0.13390398658E+03  0.00000000000E+00 0. -1.
         -2   -1    0    0    0  501 -0.00000000000E+00 -0.00000000000E+00 -0.14305567781E+03  0.14305567781E+03  0.00000000000E+00 0. -1.
         35    2    1    2    0    0  0.00000000000E+00 -0.35527136788E-14 -0.91516912245E+01  0.27695966439E+03  0.27680842156E+03 0.  0.
         25    2    3    3    0    0  0.11300020419E+02 -0.96764544051E+01 -0.64107585276E+02  0.13982669331E+03  0.12337097487E+03 0.  0.
         25    2    3    3    0    0 -0.11300020419E+02  0.96764544051E+01  0.54955894052E+02  0.13713297108E+03  0.12475567016E+03 0.  0.
          5    1    4    4  502    0  0.13940923569E+02 -0.55364375902E+02 -0.73180495632E+02  0.92935668125E+02  0.47000000000E+01 0.  1.
         -5    1    4    4    0  502 -0.26409031504E+01  0.45687921497E+02  0.90729103554E+01  0.46891025180E+02  0.47000000000E+01 0.  1.
          5    1    5    5  503    0 -0.26571907964E+02  0.58195767019E+01 -0.35627397352E+02  0.45070336230E+02  0.47000000000E+01 0. -1.
         -5    1    5    5    0  503  0.15271887545E+02  0.38568777032E+01  0.90583291404E+02  0.92062634854E+02  0.47000000000E+01 0. -1.
<mgrwt>
<rscale>  0 0.27680842E+03</rscale>
<asrwt>0</asrwt>
<pdfrwt beam="1">  1        2 0.20600613E-01 0.27680842E+03</pdfrwt>
<pdfrwt beam="2">  1       -2 0.22008566E-01 0.27680842E+03</pdfrwt>
<totfact> 0.47465780E+03</totfact>
</mgrwt>
</event>
<event>
 9    1  0.7944303E-001  0.2776427E+03  0.7818608E-02  0.1096983E+00
          2   -1    0    0  501    0  0.00000000000E+00  0.00000000000E+00  0.48370633140E+03  0.48370633140E+03  0.00000000000E+00 0. -1.
         -2   -1    0    0    0  501 -0.00000000000E+00 -0.00000000000E+00 -0.39841037437E+02  0.39841037437E+02  0.00000000000E+00 0. -1.
         35    2    1    2    0    0  0.71054273576E-14  0.00000000000E+00  0.44386529396E+03  0.52354736884E+03  0.27764266284E+03 0.  0.
         25    2    3    3    0    0 -0.44826120332E+02  0.35543161210E+02  0.18528322825E+03  0.23092535233E+03  0.12539516062E+03 0.  0.
         25    2    3    3    0    0  0.44826120332E+02 -0.35543161210E+02  0.25858206571E+03  0.29262201650E+03  0.12445988294E+03 0.  0.
          5    1    4    4  502    0  0.21735594565E+02  0.61382086607E+02  0.74682029597E+02  0.99195222526E+02  0.47000000000E+01 0. -1.
         -5    1    4    4    0  502 -0.66561714897E+02 -0.25838925396E+02  0.11060119865E+03  0.13173012981E+03  0.47000000000E+01 0. -1.
          5    1    5    5  503    0 -0.38637695937E+02 -0.63818593836E+01  0.37303645702E+02  0.54288596032E+02  0.47000000000E+01 0. -1.
         -5    1    5    5    0  503  0.83463816269E+02 -0.29161301827E+02  0.22127842001E+03  0.23833342047E+03  0.47000000000E+01 0. -1.
<mgrwt>
<rscale>  0 0.27764266E+03</rscale>
<asrwt>0</asrwt>
<pdfrwt beam="1">  1        2 0.74416354E-01 0.27764266E+03</pdfrwt>
<pdfrwt beam="2">  1       -2 0.61293907E-02 0.27764266E+03</pdfrwt>
<totfact> 0.92050546E+03</totfact>
</mgrwt>
</event>
<event>
 9    1  0.7944303E-001  0.2750767E+03  0.7818608E-02  0.1098409E+00
         -2   -1    0    0    0  501 -0.00000000000E+00  0.00000000000E+00  0.44634592442E+03  0.44634592442E+03  0.00000000000E+00 0. -1.
          2   -1    0    0  501    0  0.00000000000E+00 -0.00000000000E+00 -0.42381474657E+02  0.42381474657E+02  0.00000000000E+00 0. -1.
         35    2    1    2    0    0 -0.14210854715E-13  0.71054273576E-14  0.40396444976E+03  0.48872739908E+03  0.27507670555E+03 0.  0.
         25    2    3    3    0    0  0.56025172959E+02  0.12443430576E+02  0.21288644095E+03  0.25348815984E+03  0.12506778750E+03 0.  0.
         25    2    3    3    0    0 -0.56025172959E+02 -0.12443430576E+02  0.19107800881E+03  0.23523923924E+03  0.12463159814E+03 0.  0.
          5    1    4    4  502    0  0.35807760328E+02  0.49583842598E+02  0.19975408009E+03  0.20896060792E+03  0.47000000000E+01 0. -1.
         -5    1    4    4    0  502  0.20217412631E+02 -0.37140412022E+02  0.13132360854E+02  0.44527551923E+02  0.47000000000E+01 0. -1.
          5    1    5    5  503    0 -0.16023996517E+02  0.49152364720E+02  0.34792523028E+02  0.62492664214E+02  0.47000000000E+01 0.  1.
         -5    1    5    5    0  503 -0.40001176442E+02 -0.61595795296E+02  0.15628548578E+03  0.17274657502E+03  0.47000000000E+01 0.  1.
<mgrwt>
<rscale>  0 0.27507671E+03</rscale>
<asrwt>0</asrwt>
<pdfrwt beam="1">  1        2 0.65202272E-02 0.27507671E+03</pdfrwt>
<pdfrwt beam="2">  1       -2 0.68668600E-01 0.27507671E+03</pdfrwt>
<totfact> 0.21971951E+03</totfact>
</mgrwt>
</event>
<event>
 9    1  0.7944303E-001  0.2780315E+03  0.7818608E-02  0.1096769E+00
         -2   -1    0    0    0  501 -0.00000000000E+00  0.00000000000E+00  0.20495094893E+02  0.20495094893E+02  0.00000000000E+00 0. -1.
          2   -1    0    0  501    0  0.00000000000E+00 -0.00000000000E+00 -0.94292696720E+03  0.94292696720E+03  0.00000000000E+00 0. -1.
         35    2    1    2    0    0  0.17763568394E-14  0.71054273576E-14 -0.92243187231E+03  0.96342206209E+03  0.27803149224E+03 0.  0.
         25    2    3    3    0    0 -0.54349531429E+01  0.24298098859E+02 -0.26900744540E+03  0.29765809953E+03  0.12496160295E+03 0.  0.
         25    2    3    3    0    0  0.54349531429E+01 -0.24298098859E+02 -0.65342442691E+03  0.66576396256E+03  0.12513287275E+03 0.  0.
          5    1    4    4  502    0 -0.23619288825E+02 -0.44490683668E+02 -0.15634074067E+03  0.16432227156E+03  0.47000000000E+01 0.  1.
         -5    1    4    4    0  502  0.18184335682E+02  0.68788782527E+02 -0.11266670473E+03  0.13333582797E+03  0.47000000000E+01 0.  1.
          5    1    5    5  503    0  0.11981112111E+02 -0.73438690730E+02 -0.46153753118E+03  0.46752087764E+03  0.47000000000E+01 0. -1.
         -5    1    5    5    0  503 -0.65461589682E+01  0.49140591871E+02 -0.19188689572E+03  0.19824308492E+03  0.47000000000E+01 0. -1.
<mgrwt>
<rscale>  0 0.27803149E+03</rscale>
<asrwt>0</asrwt>
<pdfrwt beam="1">  1        2 0.14506571E+00 0.27803149E+03</pdfrwt>
<pdfrwt beam="2">  1       -2 0.31530911E-02 0.27803149E+03</pdfrwt>
<totfact> 0.11183160E+04</totfact>
</mgrwt>
</event>
<event>
 9    1  0.7944303E-001  0.2752440E+03  0.7818608E-02  0.1098315E+00
         -1   -1    0    0    0  501 -0.00000000000E+00  0.00000000000E+00  0.84479132371E+02  0.84479132371E+02  0.00000000000E+00 0.  1.
          1   -1    0    0  501    0  0.00000000000E+00 -0.00000000000E+00 -0.22419517713E+03  0.22419517713E+03  0.00000000000E+00 0.  1.
         35    2    1    2    0    0  0.00000000000E+00  0.71054273576E-14 -0.13971604476E+03  0.30867430950E+03  0.27524399391E+03 0.  0.
         25    2    3    3    0    0 -0.20885114097E+02  0.13365238793E+02 -0.11104567787E+02  0.12735381247E+03  0.12442212233E+03 0.  0.
         25    2    3    3    0    0  0.20885114097E+02 -0.13365238793E+02 -0.12861147697E+03  0.18132049704E+03  0.12538497931E+03 0.  0.
          5    1    4    4  502    0 -0.10961173506E+02  0.55517139615E+02 -0.44763337627E+02  0.72305923071E+02  0.47000000000E+01 0. -1.
         -5    1    4    4    0  502 -0.99239405905E+01 -0.42151900822E+02  0.33658769840E+02  0.55047889395E+02  0.47000000000E+01 0. -1.
          5    1    5    5  503    0  0.79049742983E+01 -0.55520402996E+02 -0.13379337030E+02  0.57845487524E+02  0.47000000000E+01 0. -1.
         -5    1    5    5    0  503  0.12980139799E+02  0.42155164203E+02 -0.11523213994E+03  0.12347500951E+03  0.47000000000E+01 0. -1.
<mgrwt>
<rscale>  0 0.27524399E+03</rscale>
<asrwt>0</asrwt>
<pdfrwt beam="1">  1        1 0.34491566E-01 0.27524399E+03</pdfrwt>
<pdfrwt beam="2">  1       -1 0.12996790E-01 0.27524399E+03</pdfrwt>
<totfact> 0.50867824E+03</totfact>
</mgrwt>
</event>
<event>
 9    1  0.7944303E-001  0.2753945E+03  0.7818608E-02  0.1098231E+00
         -2   -1    0    0    0  501 -0.00000000000E+00  0.00000000000E+00  0.14674423496E+02  0.14674423496E+02  0.00000000000E+00 0. -1.
          2   -1    0    0  501    0  0.00000000000E+00 -0.00000000000E+00 -0.12920799763E+04  0.12920799763E+04  0.00000000000E+00 0. -1.
         35    2    1    2    0    0  0.00000000000E+00  0.14210854715E-13 -0.12774055528E+04  0.13067543998E+04  0.27539447172E+03 0.  0.
         25    2    3    3    0    0 -0.27517742044E+02 -0.50734851701E+02 -0.62490183617E+03  0.63988608630E+03  0.12498258797E+03 0.  0.
         25    2    3    3    0    0  0.27517742044E+02  0.50734851701E+02 -0.65250371664E+03  0.66686831350E+03  0.12498398302E+03 0.  0.
          5    1    4    4  502    0  0.34950330441E+02 -0.62083043729E+02 -0.26786328224E+03  0.27721590483E+03  0.47000000000E+01 0.  1.
         -5    1    4    4    0  502 -0.62468072485E+02  0.11348192029E+02 -0.35703855393E+03  0.36267018148E+03  0.47000000000E+01 0.  1.
          5    1    5    5  503    0 -0.76592911804E+01  0.17185864619E+02 -0.87692487337E+01  0.21283994161E+02  0.47000000000E+01 0. -1.
         -5    1    5    5    0  503  0.35177033224E+02  0.33548987082E+02 -0.64373446791E+03  0.64558431933E+03  0.47000000000E+01 0. -1.
<mgrwt>
<rscale>  0 0.27539447E+03</rscale>
<asrwt>0</asrwt>
<pdfrwt beam="1">  1        2 0.19878161E+00 0.27539447E+03</pdfrwt>
<pdfrwt beam="2">  1       -2 0.22576027E-02 0.27539447E+03</pdfrwt>
<totfact> 0.11449028E+04</totfact>
</mgrwt>
</event>
<event>
 9    1  0.7944303E-001  0.2718955E+03  0.7818608E-02  0.1100200E+00
          2   -1    0    0  501    0  0.00000000000E+00  0.00000000000E+00  0.12153104193E+03  0.12153104193E+03  0.00000000000E+00 0.  1.
         -2   -1    0    0    0  501 -0.00000000000E+00 -0.00000000000E+00 -0.15207470576E+03  0.15207470576E+03  0.00000000000E+00 0.  1.
         35    2    1    2    0    0  0.71054273576E-14  0.00000000000E+00 -0.30543663828E+02  0.27360574769E+03  0.27189554938E+03 0.  0.
         25    2    3    3    0    0 -0.18573101140E+02 -0.43787893438E+02 -0.42783068045E+02  0.13936696880E+03  0.12381607886E+03 0.  0.
         25    2    3    3    0    0  0.18573101140E+02  0.43787893438E+02  0.12239404217E+02  0.13423877889E+03  0.12493160947E+03 0.  0.
          5    1    4    4  502    0  0.43821196712E+02  0.12419966058E+02 -0.18520588417E+01  0.45826553002E+02  0.47000000000E+01 0. -1.
         -5    1    4    4    0  502 -0.62394297852E+02 -0.56207859496E+02 -0.40931009203E+02  0.93540415799E+02  0.47000000000E+01 0. -1.
          5    1    5    5  503    0  0.41780895936E+02 -0.28920268179E+02  0.24816100181E+02  0.56744638557E+02  0.47000000000E+01 0. -1.
         -5    1    5    5    0  503 -0.23207794796E+02  0.72708161617E+02 -0.12576695964E+02  0.77494140336E+02  0.47000000000E+01 0. -1.
<mgrwt>
<rscale>  0 0.27189555E+03</rscale>
<asrwt>0</asrwt>
<pdfrwt beam="1">  1        2 0.18697083E-01 0.27189555E+03</pdfrwt>
<pdfrwt beam="2">  1       -2 0.23396109E-01 0.27189555E+03</pdfrwt>
<totfact> 0.47668476E+03</totfact>
</mgrwt>
</event>
<event>
 9    1  0.7944303E-001  0.2762044E+03  0.7818608E-02  0.1097780E+00
         -2   -1    0    0    0  501 -0.00000000000E+00  0.00000000000E+00  0.11639418636E+02  0.11639418636E+02  0.00000000000E+00 0.  1.
          2   -1    0    0  501    0  0.00000000000E+00 -0.00000000000E+00 -0.16385887732E+04  0.16385887732E+04  0.00000000000E+00 0.  1.
         35    2    1    2    0    0  0.00000000000E+00 -0.71054273576E-14 -0.16269493545E+04  0.16502281918E+04  0.27620442214E+03 0.  0.
         25    2    3    3    0    0 -0.40430806288E+02 -0.32313403558E+02 -0.58935237799E+03  0.60381337584E+03  0.12072928913E+03 0.  0.
         25    2    3    3    0    0  0.40430806288E+02  0.32313403558E+02 -0.10375969766E+04  0.10464148160E+04  0.12529036352E+03 0.  0.
          5    1    4    4  502    0 -0.55909565010E+02 -0.56441939267E+02 -0.23177137607E+03  0.24505434649E+03  0.47000000000E+01 0. -1.
         -5    1    4    4    0  502  0.15478758722E+02  0.24128535710E+02 -0.35758100191E+03  0.35875902934E+03  0.47000000000E+01 0. -1.
          5    1    5    5  503    0  0.18704632067E+02 -0.53991851704E+01 -0.21528510499E+02  0.29403762099E+02  0.47000000000E+01 0.  1.
         -5    1    5    5    0  503  0.21726174221E+02  0.37712588728E+02 -0.10160684661E+04  0.10170110539E+04  0.47000000000E+01 0.  1.
<mgrwt>
<rscale>  0 0.27620442E+03</rscale>
<asrwt>0</asrwt>
<pdfrwt beam="1">  1        2 0.25209064E+00 0.27620442E+03</pdfrwt>
<pdfrwt beam="2">  1       -2 0.17906794E-02 0.27620442E+03</pdfrwt>
<totfact> 0.10473762E+04</totfact>
</mgrwt>
</event>
<event>
 9    1  0.7944303E-001  0.2756501E+03  0.7818608E-02  0.1098089E+00
         -2   -1    0    0    0  501 -0.00000000000E+00  0.00000000000E+00  0.11833450077E+03  0.11833450077E+03  0.00000000000E+00 0. -1.
          2   -1    0    0  501    0  0.00000000000E+00 -0.00000000000E+00 -0.16052579403E+03  0.16052579403E+03  0.00000000000E+00 0. -1.
         35    2    1    2    0    0  0.14210854715E-13  0.00000000000E+00 -0.42191293266E+02  0.27886029480E+03  0.27565006582E+03 0.  0.
         25    2    3    3    0    0 -0.53299073381E+02 -0.23410773493E+02  0.51609777073E+01  0.13815169938E+03  0.12518147152E+03 0.  0.
         25    2    3    3    0    0  0.53299073381E+02  0.23410773493E+02 -0.47352270973E+02  0.14070859542E+03  0.11902863404E+03 0.  0.
          5    1    4    4  502    0  0.29611126895E+02  0.18592505153E+02  0.24693591703E+02  0.43062321756E+02  0.47000000000E+01 0.  1.
         -5    1    4    4    0  502 -0.82910200276E+02 -0.42003278645E+02 -0.19532613995E+02  0.95089377620E+02  0.47000000000E+01 0.  1.
          5    1    5    5  503    0 -0.55744831682E+00 -0.38846704295E+02 -0.42997596759E+02  0.58140007828E+02  0.47000000000E+01 0.  1.
         -5    1    5    5    0  503  0.53856521698E+02  0.62257477787E+02 -0.43546742139E+01  0.82568587594E+02  0.47000000000E+01 0.  1.
<mgrwt>
<rscale>  0 0.27565007E+03</rscale>
<asrwt>0</asrwt>
<pdfrwt beam="1">  1        2 0.24696276E-01 0.27565007E+03</pdfrwt>
<pdfrwt beam="2">  1       -2 0.18205308E-01 0.27565007E+03</pdfrwt>
<totfact> 0.53495014E+03</totfact>
</mgrwt>
</event>
<event>
 9    1  0.7944303E-001  0.2735923E+03  0.7818608E-02  0.1099241E+00
         -2   -1    0    0    0  501 -0.00000000000E+00  0.00000000000E+00  0.63978111484E+01  0.63978111484E+01  0.00000000000E+00 0.  1.
          2   -1    0    0  501    0  0.00000000000E+00 -0.00000000000E+00 -0.29249368198E+04  0.29249368198E+04  0.00000000000E+00 0.  1.
         35    2    1    2    0    0  0.00000000000E+00 -0.35527136788E-14 -0.29185390087E+04  0.29313346310E+04  0.27359234927E+03 0.  0.
         25    2    3    3    0    0 -0.45838112372E+02 -0.14571782817E+02 -0.17543695625E+04  0.17594599975E+04  0.12479363580E+03 0.  0.
         25    2    3    3    0    0  0.45838112372E+02  0.14571782817E+02 -0.11641694462E+04  0.11718746335E+04  0.12524451203E+03 0.  0.
          5    1    4    4  502    0  0.34836931134E+02 -0.18996843224E+02 -0.99245253470E+03  0.99325657081E+03  0.47000000000E+01 0. -1.
         -5    1    4    4    0  502 -0.80675043506E+02  0.44250604071E+01 -0.76191702782E+03  0.76620342670E+03  0.47000000000E+01 0. -1.
          5    1    5    5  503    0  0.21468920474E+02 -0.41655634474E+02 -0.18934684692E+03  0.19511643925E+03  0.47000000000E+01 0. -1.
         -5    1    5    5    0  503  0.24369191898E+02  0.56227417291E+02 -0.97482259926E+03  0.97675819423E+03  0.47000000000E+01 0. -1.
<mgrwt>
<rscale>  0 0.27359235E+03</rscale>
<asrwt>0</asrwt>
<pdfrwt beam="1">  1        2 0.44998911E+00 0.27359235E+03</pdfrwt>
<pdfrwt beam="2">  1       -2 0.98428119E-03 0.27359235E+03</pdfrwt>
<totfact> 0.50334219E+03</totfact>
</mgrwt>
</event>
<event>
 9    1  0.7944303E-001  0.2751907E+03  0.7818608E-02  0.1098345E+00
         -3   -1    0    0    0  501 -0.00000000000E+00  0.00000000000E+00  0.50502761954E+02  0.50502761954E+02  0.00000000000E+00 0. -1.
          3   -1    0    0  501    0  0.00000000000E+00 -0.00000000000E+00 -0.37488004619E+03  0.37488004619E+03  0.00000000000E+00 0. -1.
         35    2    1    2    0    0  0.00000000000E+00  0.00000000000E+00 -0.32437728423E+03  0.42538280814E+03  0.27519068105E+03 0.  0.
         25    2    3    3    0    0 -0.10340240179E+02  0.50018518134E+02 -0.12046471487E+03  0.18081147034E+03  0.12478889196E+03 0.  0.
         25    2    3    3    0    0  0.10340240179E+02 -0.50018518134E+02 -0.20391256937E+03  0.24457133780E+03  0.12500412234E+03 0.  0.
          5    1    4    4  502    0 -0.79089875770E+01  0.59354884992E-01  0.25146781219E+02  0.26776971695E+02  0.47000000000E+01 0. -1.
         -5    1    4    4    0  502 -0.24312526019E+01  0.49959163249E+02 -0.14561149609E+03  0.15403449865E+03  0.47000000000E+01 0. -1.
          5    1    5    5  503    0 -0.26295128871E+02 -0.31436451996E+02 -0.19865367096E+03  0.20289173295E+03  0.47000000000E+01 0.  1.
         -5    1    5    5    0  503  0.36635369050E+02 -0.18582066138E+02 -0.52588984102E+01  0.41679604843E+02  0.47000000000E+01 0.  1.
<mgrwt>
<rscale>  0 0.27519068E+03</rscale>
<asrwt>0</asrwt>
<pdfrwt beam="1">  1        3 0.57673853E-01 0.27519068E+03</pdfrwt>
<pdfrwt beam="2">  1       -3 0.77696557E-02 0.27519068E+03</pdfrwt>
<totfact> 0.85027555E+02</totfact>
</mgrwt>
</event>
<event>
 9    1  0.7944303E-001  0.2703838E+03  0.7818608E-02  0.1101060E+00
         -2   -1    0    0    0  501 -0.00000000000E+00  0.00000000000E+00  0.24125546028E+03  0.24125546028E+03  0.00000000000E+00 0.  1.
          2   -1    0    0  501    0  0.00000000000E+00 -0.00000000000E+00 -0.75757229096E+02  0.75757229096E+02  0.00000000000E+00 0.  1.
         35    2    1    2    0    0 -0.35527136788E-14 -0.71054273576E-14  0.16549823118E+03  0.31701268937E+03  0.27038376560E+03 0.  0.
         25    2    3    3    0    0  0.17599892465E+02 -0.31738221766E+02  0.12774165393E+03  0.18124376405E+03  0.12334626432E+03 0.  0.
         25    2    3    3    0    0 -0.17599892465E+02  0.31738221766E+02  0.37756577251E+02  0.13576892533E+03  0.12526200950E+03 0.  0.
          5    1    4    4  502    0 -0.51438938002E+02  0.17797462466E+01  0.51794707759E+02  0.73170442060E+02  0.47000000000E+01 0.  1.
         -5    1    4    4    0  502  0.69038830468E+02 -0.33517968013E+02  0.75946946172E+02  0.10807332199E+03  0.47000000000E+01 0.  1.
          5    1    5    5  503    0 -0.44099614861E+02  0.17685636152E+02 -0.33491959719E+02  0.58321172166E+02  0.47000000000E+01 0. -1.
         -5    1    5    5    0  503  0.26499722395E+02  0.14052585614E+02  0.71248536971E+02  0.77447753163E+02  0.47000000000E+01 0. -1.
<mgrwt>
<rscale>  0 0.27038377E+03</rscale>
<asrwt>0</asrwt>
<pdfrwt beam="1">  1        2 0.11654958E-01 0.27038377E+03</pdfrwt>
<pdfrwt beam="2">  1       -2 0.37116224E-01 0.27038377E+03</pdfrwt>
<totfact> 0.36204540E+03</totfact>
</mgrwt>
</event>
<event>
 9    1  0.7944303E-001  0.2790027E+03  0.7818608E-02  0.1096235E+00
         -2   -1    0    0    0  501 -0.00000000000E+00  0.00000000000E+00  0.16524576262E+02  0.16524576262E+02  0.00000000000E+00 0. -1.
          2   -1    0    0  501    0  0.00000000000E+00 -0.00000000000E+00 -0.11776779913E+04  0.11776779913E+04  0.00000000000E+00 0. -1.
         35    2    1    2    0    0  0.00000000000E+00  0.35527136788E-14 -0.11611534150E+04  0.11942025675E+04  0.27900272241E+03 0.  0.
         25    2    3    3    0    0  0.16901936495E+02  0.14502212617E+02 -0.82357619100E+03  0.83343981347E+03  0.12588959713E+03 0.  0.
         25    2    3    3    0    0 -0.16901936495E+02 -0.14502212617E+02 -0.33757722401E+03  0.36076275407E+03  0.12528125527E+03 0.  0.
          5    1    4    4  502    0  0.24381238269E+02  0.80424192484E+01 -0.82196397435E+03  0.82237825264E+03  0.47000000000E+01 0. -1.
         -5    1    4    4    0  502 -0.74793017741E+01  0.64597933686E+01 -0.16122166471E+01  0.11061560826E+02  0.47000000000E+01 0. -1.
          5    1    5    5  503    0  0.43639533556E+02  0.27474646240E+02 -0.16839283539E+03  0.17617463520E+03  0.47000000000E+01 0. -1.
         -5    1    5    5    0  503 -0.60541470050E+02 -0.41976858857E+02 -0.16918438862E+03  0.18458811887E+03  0.47000000000E+01 0. -1.
<mgrwt>
<rscale>  0 0.27900272E+03</rscale>
<asrwt>0</asrwt>
<pdfrwt beam="1">  1        2 0.18118127E+00 0.27900272E+03</pdfrwt>
<pdfrwt beam="2">  1       -2 0.25422419E-02 0.27900272E+03</pdfrwt>
<totfact> 0.11145518E+04</totfact>
</mgrwt>
</event>
<event>
 9    1  0.7944303E-001  0.2747684E+03  0.7818608E-02  0.1098581E+00
         -1   -1    0    0    0  501 -0.00000000000E+00  0.00000000000E+00  0.99121711521E+02  0.99121711521E+02  0.00000000000E+00 0.  1.
          1   -1    0    0  501    0  0.00000000000E+00 -0.00000000000E+00 -0.19041652783E+03  0.19041652783E+03  0.00000000000E+00 0.  1.
         35    2    1    2    0    0  0.00000000000E+00  0.00000000000E+00 -0.91294816311E+02  0.28953823935E+03  0.27476835437E+03 0.  0.
         25    2    3    3    0    0  0.31108359301E+02 -0.60299520237E+01 -0.81739910773E+02  0.16020636619E+03  0.13409167168E+03 0.  0.
         25    2    3    3    0    0 -0.31108359301E+02  0.60299520237E+01 -0.95549055381E+01  0.12933187317E+03  0.12502538485E+03 0.  0.
          5    1    4    4  502    0  0.31878497005E+02  0.60411037237E+02 -0.57204852005E+02  0.89220048668E+02  0.47000000000E+01 0. -1.
         -5    1    4    4    0  502 -0.77013770440E+00 -0.66440989261E+02 -0.24535058768E+02  0.70986317518E+02  0.47000000000E+01 0. -1.
          5    1    5    5  503    0  0.10488643119E+02 -0.42483429309E+02 -0.39007733469E+02  0.58809409712E+02  0.47000000000E+01 0. -1.
         -5    1    5    5    0  503 -0.41597002419E+02  0.48513381333E+02  0.29452827931E+02  0.70522463455E+02  0.47000000000E+01 0. -1.
<mgrwt>
<rscale>  0 0.27476835E+03</rscale>
<asrwt>0</asrwt>
<pdfrwt beam="1">  1        1 0.29294850E-01 0.27476835E+03</pdfrwt>
<pdfrwt beam="2">  1       -1 0.15249494E-01 0.27476835E+03</pdfrwt>
<totfact> 0.48540893E+03</totfact>
</mgrwt>
</event>
<event>
 9    1  0.7944303E-001  0.2716002E+03  0.7818608E-02  0.1100367E+00
          1   -1    0    0  501    0  0.00000000000E+00  0.00000000000E+00  0.82274328343E+03  0.82274328343E+03  0.00000000000E+00 0. -1.
         -1   -1    0    0    0  501 -0.00000000000E+00 -0.00000000000E+00 -0.22414852809E+02  0.22414852809E+02  0.00000000000E+00 0. -1.
         35    2    1    2    0    0 -0.71054273576E-14  0.00000000000E+00  0.80032843063E+03  0.84515813624E+03  0.27160021795E+03 0.  0.
         25    2    3    3    0    0  0.39386240521E+02  0.26642728956E+02  0.47385941371E+03  0.49241814377E+03  0.12518695380E+03 0.  0.
         25    2    3    3    0    0 -0.39386240521E+02 -0.26642728956E+02  0.32646901691E+03  0.35273999247E+03  0.12482937289E+03 0.  0.
          5    1    4    4  502    0 -0.25965099619E+02 -0.31008209220E+02  0.90294181178E+02  0.99049606722E+02  0.47000000000E+01 0. -1.
         -5    1    4    4    0  502  0.65351340140E+02  0.57650938176E+02  0.38356523254E+03  0.39336853705E+03  0.47000000000E+01 0. -1.
          5    1    5    5  503    0 -0.14420382424E+02 -0.43898506661E+02  0.31731223708E+03  0.32069326797E+03  0.47000000000E+01 0.  1.
         -5    1    5    5    0  503 -0.24965858097E+02  0.17255777705E+02  0.91567798297E+01  0.32046724506E+02  0.47000000000E+01 0.  1.
<mgrwt>
<rscale>  0 0.27160022E+03</rscale>
<asrwt>0</asrwt>
<pdfrwt beam="1">  1        1 0.12657587E+00 0.27160022E+03</pdfrwt>
<pdfrwt beam="2">  1       -1 0.34484395E-02 0.27160022E+03</pdfrwt>
<totfact> 0.67508201E+03</totfact>
</mgrwt>
</event>
<event>
 9    1  0.7944303E-001  0.2573034E+03  0.7818608E-02  0.1108774E+00
          2   -1    0    0  501    0  0.00000000000E+00  0.00000000000E+00  0.11311080545E+04  0.11311080545E+04  0.00000000000E+00 0.  1.
         -2   -1    0    0    0  501 -0.00000000000E+00 -0.00000000000E+00 -0.14632783450E+02  0.14632783450E+02  0.00000000000E+00 0.  1.
         35    2    1    2    0    0  0.00000000000E+00  0.00000000000E+00  0.11164752710E+04  0.11457408379E+04  0.25730339461E+03 0.  0.
         25    2    3    3    0    0  0.10275926605E+02  0.27269509038E+02  0.49712072876E+03  0.51326016811E+03  0.12432924200E+03 0.  0.
         25    2    3    3    0    0 -0.10275926605E+02 -0.27269509038E+02  0.61935454228E+03  0.63248066983E+03  0.12482999589E+03 0.  0.
          5    1    4    4  502    0  0.89288850087E+01  0.72909726809E+02  0.38731118741E+03  0.39424307114E+03  0.47000000000E+01 0. -1.
         -5    1    4    4    0  502  0.13470415965E+01 -0.45640217771E+02  0.10980954135E+03  0.11901709696E+03  0.47000000000E+01 0. -1.
          5    1    5    5  503    0  0.42821565582E+02 -0.25156571106E+01  0.47002501981E+03  0.47200172060E+03  0.47000000000E+01 0.  1.
         -5    1    5    5    0  503 -0.53097492187E+02 -0.24753851927E+02  0.14932952247E+03  0.16047894922E+03  0.47000000000E+01 0.  1.
<mgrwt>
<rscale>  0 0.25730339E+03</rscale>
<asrwt>0</asrwt>
<pdfrwt beam="1">  1        2 0.17401656E+00 0.25730339E+03</pdfrwt>
<pdfrwt beam="2">  1       -2 0.22511983E-02 0.25730339E+03</pdfrwt>
<totfact> 0.14152502E+04</totfact>
</mgrwt>
</event>
<event>
 9    1  0.7944303E-001  0.2737890E+03  0.7818608E-02  0.1099130E+00
          1   -1    0    0  501    0  0.00000000000E+00  0.00000000000E+00  0.37347634085E+03  0.37347634085E+03  0.00000000000E+00 0.  1.
         -1   -1    0    0    0  501 -0.00000000000E+00 -0.00000000000E+00 -0.50177499445E+02  0.50177499445E+02  0.00000000000E+00 0.  1.
         35    2    1    2    0    0  0.00000000000E+00  0.00000000000E+00  0.32329884140E+03  0.42365384029E+03  0.27378903474E+03 0.  0.
         25    2    3    3    0    0 -0.16904919724E+02 -0.50987937220E+02  0.19314652201E+03  0.23648207288E+03  0.12542984405E+03 0.  0.
         25    2    3    3    0    0  0.16904919724E+02  0.50987937220E+02  0.13015231939E+03  0.18717176741E+03  0.12332111830E+03 0.  0.
          5    1    4    4  502    0  0.81410296608E+01 -0.22899972597E+02 -0.12245828268E+02  0.27617664978E+02  0.47000000000E+01 0.  1.
         -5    1    4    4    0  502 -0.25045949384E+02 -0.28087964623E+02  0.20539235028E+03  0.20886440791E+03  0.47000000000E+01 0.  1.
          5    1    5    5  503    0  0.51430316053E+02  0.54340255551E+02  0.29424116650E+02  0.80534523176E+02  0.47000000000E+01 0. -1.
         -5    1    5    5    0  503 -0.34525396329E+02 -0.33523183313E+01  0.10072820274E+03  0.10663724423E+03  0.47000000000E+01 0. -1.
<mgrwt>
<rscale>  0 0.27378903E+03</rscale>
<asrwt>0</asrwt>
<pdfrwt beam="1">  1        1 0.57457897E-01 0.27378903E+03</pdfrwt>
<pdfrwt beam="2">  1       -1 0.77196155E-02 0.27378903E+03</pdfrwt>
<totfact> 0.59840106E+03</totfact>
</mgrwt>
</event>
<event>
 9    1  0.7944303E-001  0.2745984E+03  0.7818608E-02  0.1098676E+00
          1   -1    0    0  501    0  0.00000000000E+00  0.00000000000E+00  0.45585817731E+03  0.45585817731E+03  0.00000000000E+00 0.  1.
         -1   -1    0    0    0  501 -0.00000000000E+00 -0.00000000000E+00 -0.41352934230E+02  0.41352934230E+02  0.00000000000E+00 0.  1.
         35    2    1    2    0    0 -0.44408920985E-14 -0.53290705182E-14  0.41450524308E+03  0.49721111154E+03  0.27459842115E+03 0.  0.
         25    2    3    3    0    0  0.32086628786E+01 -0.78799911985E+01  0.31164754326E+03  0.33543939065E+03  0.12378612120E+03 0.  0.
         25    2    3    3    0    0 -0.32086628786E+01  0.78799911985E+01  0.10285769982E+03  0.16177172089E+03  0.12457123861E+03 0.  0.
          5    1    4    4  502    0  0.58336575712E+02 -0.66856975983E+01  0.22534947002E+03  0.23292129198E+03  0.47000000000E+01 0. -1.
         -5    1    4    4    0  502 -0.55127912834E+02 -0.11942936002E+01  0.86298073241E+02  0.10251809867E+03  0.47000000000E+01 0. -1.
          5    1    5    5  503    0  0.45971009936E+01  0.63632366537E+02  0.75642073030E+02  0.99065759074E+02  0.47000000000E+01 0. -1.
         -5    1    5    5    0  503 -0.78057638721E+01 -0.55752375338E+02  0.27215626787E+02  0.62705961813E+02  0.47000000000E+01 0. -1.
<mgrwt>
<rscale>  0 0.27459842E+03</rscale>
<asrwt>0</asrwt>
<pdfrwt beam="1">  1        1 0.70132024E-01 0.27459842E+03</pdfrwt>
<pdfrwt beam="2">  1       -1 0.63619902E-02 0.27459842E+03</pdfrwt>
<totfact> 0.62092587E+03</totfact>
</mgrwt>
</event>
<event>
 9    1  0.7944303E-001  0.2778912E+03  0.7818608E-02  0.1096846E+00
          2   -1    0    0  501    0  0.00000000000E+00  0.00000000000E+00  0.20222795047E+03  0.20222795047E+03  0.00000000000E+00 0. -1.
         -2   -1    0    0    0  501 -0.00000000000E+00 -0.00000000000E+00 -0.95465903253E+02  0.95465903253E+02  0.00000000000E+00 0. -1.
         35    2    1    2    0    0  0.00000000000E+00  0.00000000000E+00  0.10676204722E+03  0.29769385373E+03  0.27789115823E+03 0.  0.
         25    2    3    3    0    0  0.44628165110E+02 -0.20394797404E+02  0.20424792951E+02  0.13634684627E+03  0.12556141700E+03 0.  0.
         25    2    3    3    0    0 -0.44628165110E+02  0.20394797404E+02  0.86337254269E+02  0.16134700745E+03  0.12716569686E+03 0.  0.
          5    1    4    4  502    0 -0.21368626261E+02 -0.38215195099E+02 -0.28230753871E+02  0.52307597812E+02  0.47000000000E+01 0.  1.
         -5    1    4    4    0  502  0.65996791370E+02  0.17820397696E+02  0.48655546822E+02  0.84039248461E+02  0.47000000000E+01 0.  1.
          5    1    5    5  503    0  0.40098539508E+02 -0.10137613632E+02  0.90991836541E+01  0.42609262186E+02  0.47000000000E+01 0.  1.
         -5    1    5    5    0  503 -0.84726704618E+02  0.30532411035E+02  0.77238070615E+02  0.11873774527E+03  0.47000000000E+01 0.  1.
<mgrwt>
<rscale>  0 0.27789116E+03</rscale>
<asrwt>0</asrwt>
<pdfrwt beam="1">  1        2 0.31111992E-01 0.27789116E+03</pdfrwt>
<pdfrwt beam="2">  1       -2 0.14687062E-01 0.27789116E+03</pdfrwt>
<totfact> 0.59308001E+03</totfact>
</mgrwt>
</event>
<event>
 9    1  0.7944303E-001  0.2754586E+03  0.7818608E-02  0.1098196E+00
         -2   -1    0    0    0  501 -0.00000000000E+00  0.00000000000E+00  0.33927426394E+03  0.33927426394E+03  0.00000000000E+00 0.  1.
          2   -1    0    0  501    0  0.00000000000E+00 -0.00000000000E+00 -0.55911579394E+02  0.55911579394E+02  0.00000000000E+00 0.  1.
         35    2    1    2    0    0  0.00000000000E+00 -0.71054273576E-14  0.28336268455E+03  0.39518584334E+03  0.27545859903E+03 0.  0.
         25    2    3    3    0    0  0.12974382422E+02 -0.38078883438E+02  0.20009824281E+03  0.23965276099E+03  0.12560176397E+03 0.  0.
         25    2    3    3    0    0 -0.12974382422E+02  0.38078883438E+02  0.83264441733E+02  0.15553308234E+03  0.12505693296E+03 0.  0.
          5    1    4    4  502    0 -0.50885402006E+01 -0.82966521071E+02  0.12439942807E+03  0.14968849176E+03  0.47000000000E+01 0.  1.
         -5    1    4    4    0  502  0.18062922623E+02  0.44887637633E+02  0.75698814740E+02  0.89964269235E+02  0.47000000000E+01 0.  1.
          5    1    5    5  503    0  0.32462942718E+02  0.68693008363E+02  0.43529754287E+02  0.87689803034E+02  0.47000000000E+01 0. -1.
         -5    1    5    5    0  503 -0.45437325140E+02 -0.30614124924E+02  0.39734687445E+02  0.67843279307E+02  0.47000000000E+01 0. -1.
<mgrwt>
<rscale>  0 0.27545860E+03</rscale>
<asrwt>0</asrwt>
<pdfrwt beam="1">  1        2 0.86017817E-02 0.27545860E+03</pdfrwt>
<pdfrwt beam="2">  1       -2 0.52196039E-01 0.27545860E+03</pdfrwt>
<totfact> 0.27207800E+03</totfact>
</mgrwt>
</event>
<event>
 9    1  0.7944303E-001  0.2745051E+03  0.7818608E-02  0.1098729E+00
         -2   -1    0    0    0  501 -0.00000000000E+00  0.00000000000E+00  0.14433118159E+02  0.14433118159E+02  0.00000000000E+00 0. -1.
          2   -1    0    0  501    0  0.00000000000E+00 -0.00000000000E+00 -0.13052108262E+04  0.13052108262E+04  0.00000000000E+00 0. -1.
         35    2    1    2    0    0  0.00000000000E+00  0.17763568394E-14 -0.12907777080E+04  0.13196439443E+04  0.27450509705E+03 0.  0.
         25    2    3    3    0    0 -0.49116847315E+02  0.25437823853E+01 -0.53304226604E+03  0.55012657554E+03  0.12683160575E+03 0.  0.
         25    2    3    3    0    0  0.49116847315E+02 -0.25437823853E+01 -0.75773544198E+03  0.76951736880E+03  0.12480002132E+03 0.  0.
          5    1    4    4  502    0 -0.41198504889E+02 -0.11580059099E+02 -0.53145021217E+03  0.53319117828E+03  0.47000000000E+01 0.  1.
         -5    1    4    4    0  502 -0.79183424261E+01  0.14123841484E+02 -0.15920538650E+01  0.16935397266E+02  0.47000000000E+01 0.  1.
          5    1    5    5  503    0 -0.15820751352E+02 -0.50533225738E+02 -0.31509747995E+03  0.31955033242E+03  0.47000000000E+01 0.  1.
         -5    1    5    5    0  503  0.64937598667E+02  0.47989443353E+02 -0.44263796203E+03  0.44996703638E+03  0.47000000000E+01 0.  1.
<mgrwt>
<rscale>  0 0.27450510E+03</rscale>
<asrwt>0</asrwt>
<pdfrwt beam="1">  1        2 0.20080166E+00 0.27450510E+03</pdfrwt>
<pdfrwt beam="2">  1       -2 0.22204798E-02 0.27450510E+03</pdfrwt>
<totfact> 0.11536750E+04</totfact>
</mgrwt>
</event>
<event>
 9    1  0.7944303E-001  0.2686643E+03  0.7818608E-02  0.1102046E+00
          1   -1    0    0  501    0  0.00000000000E+00  0.00000000000E+00  0.12405890511E+04  0.12405890511E+04  0.00000000000E+00 0.  1.
         -1   -1    0    0    0  501 -0.00000000000E+00 -0.00000000000E+00 -0.14545611964E+02  0.14545611964E+02  0.00000000000E+00 0.  1.
         35    2    1    2    0    0  0.00000000000E+00  0.35527136788E-14  0.12260434391E+04  0.12551346631E+04  0.26866430313E+03 0.  0.
         25    2    3    3    0    0  0.11836437877E+02 -0.12229458366E+02  0.82956359524E+03  0.83904654028E+03  0.12463417387E+03 0.  0.
         25    2    3    3    0    0 -0.11836437877E+02  0.12229458366E+02  0.39647984388E+03  0.41608812277E+03  0.12507357192E+03 0.  0.
          5    1    4    4  502    0 -0.38948793887E+02 -0.18971374466E+02  0.66953855608E+03  0.67095520691E+03  0.47000000000E+01 0.  1.
         -5    1    4    4    0  502  0.50785231764E+02  0.67419160998E+01  0.16002503916E+03  0.16809133338E+03  0.47000000000E+01 0.  1.
          5    1    5    5  503    0 -0.57475695980E+02  0.29356335830E+02  0.13078934868E+03  0.14592187571E+03  0.47000000000E+01 0. -1.
         -5    1    5    5    0  503  0.45639258103E+02 -0.17126877464E+02  0.26569049520E+03  0.27016624706E+03  0.47000000000E+01 0. -1.
<mgrwt>
<rscale>  0 0.26866430E+03</rscale>
<asrwt>0</asrwt>
<pdfrwt beam="1">  1        1 0.19085977E+00 0.26866430E+03</pdfrwt>
<pdfrwt beam="2">  1       -1 0.22377874E-02 0.26866430E+03</pdfrwt>
<totfact> 0.62315221E+03</totfact>
</mgrwt>
</event>
<event>
 9    1  0.7944303E-001  0.2739577E+03  0.7818608E-02  0.1099036E+00
          1   -1    0    0  501    0  0.00000000000E+00  0.00000000000E+00  0.10812460699E+04  0.10812460699E+04  0.00000000000E+00 0.  1.
         -1   -1    0    0    0  501 -0.00000000000E+00 -0.00000000000E+00 -0.17353322909E+02  0.17353322909E+02  0.00000000000E+00 0.  1.
         35    2    1    2    0    0  0.00000000000E+00  0.00000000000E+00  0.10638927470E+04  0.10985993928E+04  0.27395774999E+03 0.  0.
         25    2    3    3    0    0 -0.39247094992E+01  0.34128972192E+02  0.71044973851E+03  0.72210943600E+03  0.12459139827E+03 0.  0.
         25    2    3    3    0    0  0.39247094992E+01 -0.34128972192E+02  0.35344300846E+03  0.37648995678E+03  0.12507012931E+03 0.  0.
          5    1    4    4  502    0 -0.16270237621E+02 -0.41828680206E+02  0.15842542644E+03  0.16472724384E+03  0.47000000000E+01 0.  1.
         -5    1    4    4    0  502  0.12345528122E+02  0.75957652397E+02  0.55202431207E+03  0.55738219216E+03  0.47000000000E+01 0.  1.
          5    1    5    5  503    0 -0.22635087830E+02  0.24749364361E+02  0.25979251213E+02  0.42683600258E+02  0.47000000000E+01 0. -1.
         -5    1    5    5    0  503  0.26559797330E+02 -0.58878336552E+02  0.32746375724E+03  0.33380635653E+03  0.47000000000E+01 0. -1.
<mgrwt>
<rscale>  0 0.27395775E+03</rscale>
<asrwt>0</asrwt>
<pdfrwt beam="1">  1        1 0.16634550E+00 0.27395775E+03</pdfrwt>
<pdfrwt beam="2">  1       -1 0.26697428E-02 0.27395775E+03</pdfrwt>
<totfact> 0.62369600E+03</totfact>
</mgrwt>
</event>
<event>
 9    1  0.7944303E-001  0.2703980E+03  0.7818608E-02  0.1101052E+00
          3   -1    0    0  501    0  0.00000000000E+00  0.00000000000E+00  0.87552207490E+02  0.87552207490E+02  0.00000000000E+00 0.  1.
         -3   -1    0    0    0  501 -0.00000000000E+00 -0.00000000000E+00 -0.20877564291E+03  0.20877564291E+03  0.00000000000E+00 0.  1.
         35    2    1    2    0    0  0.00000000000E+00 -0.71054273576E-14 -0.12122343542E+03  0.29632785040E+03  0.27039799117E+03 0.  0.
         25    2    3    3    0    0  0.19856763711E+02  0.46026806686E+02 -0.77873491321E+02  0.15464363073E+03  0.12384512052E+03 0.  0.
         25    2    3    3    0    0 -0.19856763711E+02 -0.46026806686E+02 -0.43349944098E+02  0.14168421967E+03  0.12522955901E+03 0.  0.
          5    1    4    4  502    0  0.50761128984E+02 -0.21595626150E+02 -0.15529049493E+02  0.57500475326E+02  0.47000000000E+01 0. -1.
         -5    1    4    4    0  502 -0.30904365274E+02  0.67622432836E+02 -0.62344441828E+02  0.97143155407E+02  0.47000000000E+01 0. -1.
          5    1    5    5  503    0  0.12831999675E+02 -0.59309721112E+02 -0.73221908092E+02  0.95214710306E+02  0.47000000000E+01 0.  1.
         -5    1    5    5    0  503 -0.32688763386E+02  0.13282914426E+02  0.29871963994E+02  0.46469509361E+02  0.47000000000E+01 0.  1.
<mgrwt>
<rscale>  0 0.27039799E+03</rscale>
<asrwt>0</asrwt>
<pdfrwt beam="1">  1        3 0.13469570E-01 0.27039799E+03</pdfrwt>
<pdfrwt beam="2">  1       -3 0.32119329E-01 0.27039799E+03</pdfrwt>
<totfact> 0.10707918E+03</totfact>
</mgrwt>
</event>
<event>
 9    1  0.7944303E-001  0.2756706E+03  0.7818608E-02  0.1098077E+00
         -2   -1    0    0    0  501 -0.00000000000E+00  0.00000000000E+00  0.10494723999E+02  0.10494723999E+02  0.00000000000E+00 0.  1.
          2   -1    0    0  501    0  0.00000000000E+00 -0.00000000000E+00 -0.18102969742E+04  0.18102969742E+04  0.00000000000E+00 0.  1.
         35    2    1    2    0    0  0.35527136788E-14  0.00000000000E+00 -0.17998022502E+04  0.18207916982E+04  0.27567057950E+03 0.  0.
         25    2    3    3    0    0 -0.17675324871E+02  0.32438572550E+02 -0.12414985894E+04  0.12476762818E+04  0.11837516025E+03 0.  0.
         25    2    3    3    0    0  0.17675324871E+02 -0.32438572550E+02 -0.55830366079E+03  0.57311541640E+03  0.12407104724E+03 0.  0.
          5    1    4    4  502    0 -0.26882541380E+02 -0.18833219549E+02 -0.10808950619E+03  0.11306101246E+03  0.47000000000E+01 0. -1.
         -5    1    4    4    0  502  0.92072165084E+01  0.51271792099E+02 -0.11334090832E+04  0.11346152693E+04  0.47000000000E+01 0. -1.
          5    1    5    5  503    0 -0.15739080334E+02  0.43396417870E+02 -0.19265704416E+03  0.19816607782E+03  0.47000000000E+01 0. -1.
         -5    1    5    5    0  503  0.33414405206E+02 -0.75834990420E+02 -0.36564661663E+03  0.37494933858E+03  0.47000000000E+01 0. -1.
<mgrwt>
<rscale>  0 0.27567058E+03</rscale>
<asrwt>0</asrwt>
<pdfrwt beam="1">  1        2 0.27850673E+00 0.27567058E+03</pdfrwt>
<pdfrwt beam="2">  1       -2 0.16145758E-02 0.27567058E+03</pdfrwt>
<totfact> 0.98999699E+03</totfact>
</mgrwt>
</event>
<event>
 9    1  0.7944303E-001  0.2763203E+03  0.7818608E-02  0.1097716E+00
         -1   -1    0    0    0  501 -0.00000000000E+00  0.00000000000E+00  0.35592853085E+03  0.35592853085E+03  0.00000000000E+00 0.  1.
          1   -1    0    0  501    0  0.00000000000E+00 -0.00000000000E+00 -0.53629382024E+02  0.53629382024E+02  0.00000000000E+00 0.  1.
         35    2    1    2    0    0  0.00000000000E+00  0.00000000000E+00  0.30229914882E+03  0.40955791287E+03  0.27632030077E+03 0.  0.
         25    2    3    3    0    0  0.32190379494E+01  0.58088359779E+02  0.14499325719E+03  0.20063039687E+03  0.12587649410E+03 0.  0.
         25    2    3    3    0    0 -0.32190379494E+01 -0.58088359779E+02  0.15730589163E+03  0.20892751601E+03  0.12458307933E+03 0.  0.
          5    1    4    4  502    0 -0.71416565622E+01  0.54619594351E+02  0.13515549447E+00  0.55284822623E+02  0.47000000000E+01 0. -1.
         -5    1    4    4    0  502  0.10360694512E+02  0.34687654284E+01  0.14485810170E+03  0.14534557424E+03  0.47000000000E+01 0. -1.
          5    1    5    5  503    0 -0.17880400924E+02 -0.74996773303E+02  0.16707049947E+03  0.18406212684E+03  0.47000000000E+01 0.  1.
         -5    1    5    5    0  503  0.14661362975E+02  0.16908413524E+02 -0.97646078399E+01  0.24865389167E+02  0.47000000000E+01 0.  1.
<mgrwt>
<rscale>  0 0.27632030E+03</rscale>
<asrwt>0</asrwt>
<pdfrwt beam="1">  1        1 0.82506744E-02 0.27632030E+03</pdfrwt>
<pdfrwt beam="2">  1       -1 0.54758234E-01 0.27632030E+03</pdfrwt>
<totfact> 0.28773821E+03</totfact>
</mgrwt>
</event>
<event>
 9    1  0.7944303E-001  0.2751183E+03  0.7818608E-02  0.1098385E+00
         -1   -1    0    0    0  501 -0.00000000000E+00  0.00000000000E+00  0.25148220215E+03  0.25148220215E+03  0.00000000000E+00 0.  1.
          1   -1    0    0  501    0  0.00000000000E+00 -0.00000000000E+00 -0.75243981493E+02  0.75243981493E+02  0.00000000000E+00 0.  1.
         35    2    1    2    0    0  0.00000000000E+00  0.71054273576E-14  0.17623822066E+03  0.32672618364E+03  0.27511831756E+03 0.  0.
         25    2    3    3    0    0 -0.66733870460E+01  0.38839315754E+02  0.13614551012E+03  0.18936044760E+03  0.12557369409E+03 0.  0.
         25    2    3    3    0    0  0.66733870460E+01 -0.38839315754E+02  0.40092710540E+02  0.13736573604E+03  0.12533512460E+03 0.  0.
          5    1    4    4  502    0 -0.27092603555E+02  0.63699046788E+02  0.14036476563E+03  0.15657565315E+03  0.47000000000E+01 0.  1.
         -5    1    4    4    0  502  0.20419216509E+02 -0.24859731034E+02 -0.42192555136E+01  0.32784794449E+02  0.47000000000E+01 0.  1.
          5    1    5    5  503    0  0.53350519274E+02  0.18835125029E+02  0.21707532617E+02  0.60781138637E+02  0.47000000000E+01 0.  1.
         -5    1    5    5    0  503 -0.46677132228E+02 -0.57674440783E+02  0.18385177923E+02  0.76584597406E+02  0.47000000000E+01 0.  1.
<mgrwt>
<rscale>  0 0.27511832E+03</rscale>
<asrwt>0</asrwt>
<pdfrwt beam="1">  1        1 0.11575997E-01 0.27511832E+03</pdfrwt>
<pdfrwt beam="2">  1       -1 0.38689569E-01 0.27511832E+03</pdfrwt>
<totfact> 0.34342846E+03</totfact>
</mgrwt>
</event>
<event>
 9    1  0.7944303E-001  0.2762098E+03  0.7818608E-02  0.1097777E+00
          3   -1    0    0  501    0  0.00000000000E+00  0.00000000000E+00  0.73508986699E+02  0.73508986699E+02  0.00000000000E+00 0.  1.
         -3   -1    0    0    0  501 -0.00000000000E+00 -0.00000000000E+00 -0.25946434988E+03  0.25946434988E+03  0.00000000000E+00 0.  1.
         35    2    1    2    0    0  0.00000000000E+00 -0.71054273576E-14 -0.18595536318E+03  0.33297333658E+03  0.27620978581E+03 0.  0.
         25    2    3    3    0    0 -0.15515002627E+02  0.56038405119E+02 -0.81294167021E+02  0.16023118280E+03  0.12523686436E+03 0.  0.
         25    2    3    3    0    0  0.15515002627E+02 -0.56038405119E+02 -0.10466119616E+03  0.17274215378E+03  0.12451854302E+03 0.  0.
          5    1    4    4  502    0  0.37091242048E+02  0.17212656462E+02 -0.85140233209E+02  0.94567357423E+02  0.47000000000E+01 0. -1.
         -5    1    4    4    0  502 -0.52606244674E+02  0.38825748657E+02  0.38460661879E+01  0.65663825373E+02  0.47000000000E+01 0. -1.
          5    1    5    5  503    0 -0.27967815165E+02  0.24836683020E+02 -0.65152186410E+01  0.38256993903E+02  0.47000000000E+01 0.  1.
         -5    1    5    5    0  503  0.43482817792E+02 -0.80875088139E+02 -0.98145977515E+02  0.13448515988E+03  0.47000000000E+01 0.  1.
<mgrwt>
<rscale>  0 0.27620979E+03</rscale>
<asrwt>0</asrwt>
<pdfrwt beam="1">  1        3 0.11309075E-01 0.27620979E+03</pdfrwt>
<pdfrwt beam="2">  1       -3 0.39917592E-01 0.27620979E+03</pdfrwt>
<totfact> 0.95241488E+02</totfact>
</mgrwt>
</event>
<event>
 9    1  0.7944303E-001  0.2799567E+03  0.7818608E-02  0.1095713E+00
         -1   -1    0    0    0  501 -0.00000000000E+00  0.00000000000E+00  0.23595976042E+02  0.23595976042E+02  0.00000000000E+00 0.  1.
          1   -1    0    0  501    0  0.00000000000E+00 -0.00000000000E+00 -0.83039333070E+03  0.83039333070E+03  0.00000000000E+00 0.  1.
         35    2    1    2    0    0  0.35527136788E-14  0.00000000000E+00 -0.80679735466E+03  0.85398930674E+03  0.27995671906E+03 0.  0.
         25    2    3    3    0    0 -0.58350405364E+01 -0.49030691471E+02 -0.52507923137E+03  0.54198199313E+03  0.12489285510E+03 0.  0.
         25    2    3    3    0    0  0.58350405364E+01  0.49030691471E+02 -0.28171812328E+03  0.31200731361E+03  0.12468121893E+03 0.  0.
          5    1    4    4  502    0 -0.10383077385E+02 -0.56470086168E+01  0.21761346125E+01  0.12904362214E+02  0.47000000000E+01 0. -1.
         -5    1    4    4    0  502  0.45480368486E+01 -0.43383682854E+02 -0.52725536599E+03  0.52907763092E+03  0.47000000000E+01 0. -1.
          5    1    5    5  503    0  0.51611993903E+02  0.62589856503E+02 -0.21490084327E+03  0.22975149726E+03  0.47000000000E+01 0.  1.
         -5    1    5    5    0  503 -0.45776953367E+02 -0.13559165033E+02 -0.66817280010E+02  0.82255816353E+02  0.47000000000E+01 0.  1.
<mgrwt>
<rscale>  0 0.27995672E+03</rscale>
<asrwt>0</asrwt>
<pdfrwt beam="1">  1        1 0.12775280E+00 0.27995672E+03</pdfrwt>
<pdfrwt beam="2">  1       -1 0.36301507E-02 0.27995672E+03</pdfrwt>
<totfact> 0.61708481E+03</totfact>
</mgrwt>
</event>
<event>
 9    1  0.7944303E-001  0.2770854E+03  0.7818608E-02  0.1097292E+00
          1   -1    0    0  501    0  0.00000000000E+00  0.00000000000E+00  0.20351113734E+03  0.20351113734E+03  0.00000000000E+00 0.  1.
         -1   -1    0    0    0  501 -0.00000000000E+00 -0.00000000000E+00 -0.94314616011E+02  0.94314616011E+02  0.00000000000E+00 0.  1.
         35    2    1    2    0    0  0.35527136788E-14  0.00000000000E+00  0.10919652133E+03  0.29782575335E+03  0.27708536427E+03 0.  0.
         25    2    3    3    0    0  0.26311319482E+02 -0.26374512873E+02  0.11212967946E+03  0.17173752284E+03  0.12463069956E+03 0.  0.
         25    2    3    3    0    0 -0.26311319482E+02  0.26374512873E+02 -0.29331581277E+01  0.12608823051E+03  0.12042316220E+03 0.  0.
          5    1    4    4  502    0 -0.15369546326E+02  0.44690630787E+02  0.43615510911E+02  0.64481611537E+02  0.47000000000E+01 0.  1.
         -5    1    4    4    0  502  0.41680865807E+02 -0.71065143660E+02  0.68514168550E+02  0.10725591131E+03  0.47000000000E+01 0.  1.
          5    1    5    5  503    0  0.39157026360E+01 -0.74453719731E+01  0.53029801279E+02  0.53898201404E+02  0.47000000000E+01 0. -1.
         -5    1    5    5    0  503 -0.30227022118E+02  0.33819884846E+02 -0.55962959406E+02  0.72190029108E+02  0.47000000000E+01 0. -1.
<mgrwt>
<rscale>  0 0.27708536E+03</rscale>
<asrwt>0</asrwt>
<pdfrwt beam="1">  1        1 0.31309405E-01 0.27708536E+03</pdfrwt>
<pdfrwt beam="2">  1       -1 0.14509941E-01 0.27708536E+03</pdfrwt>
<totfact> 0.48308653E+03</totfact>
</mgrwt>
</event>
<event>
 9    1  0.7944303E-001  0.2792249E+03  0.7818608E-02  0.1096113E+00
         -1   -1    0    0    0  501 -0.00000000000E+00  0.00000000000E+00  0.61881750304E+01  0.61881750304E+01  0.00000000000E+00 0.  1.
          1   -1    0    0  501    0  0.00000000000E+00 -0.00000000000E+00 -0.31498204735E+04  0.31498204735E+04  0.00000000000E+00 0.  1.
         35    2    1    2    0    0  0.00000000000E+00  0.00000000000E+00 -0.31436322985E+04  0.31560086486E+04  0.27922493015E+03 0.  0.
         25    2    3    3    0    0  0.11614232855E+02  0.90531688916E+01 -0.21271823341E+04  0.21308749067E+04  0.12452443538E+03 0.  0.
         25    2    3    3    0    0 -0.11614232855E+02 -0.90531688916E+01 -0.10164499644E+04  0.10251337419E+04  0.13233218960E+03 0.  0.
          5    1    4    4  502    0  0.20669824457E+02  0.11005761318E+02 -0.75965072859E+02  0.79631342571E+02  0.47000000000E+01 0.  1.
         -5    1    4    4    0  502 -0.90555916017E+01 -0.19525924265E+01 -0.20512172613E+04  0.20512435641E+04  0.47000000000E+01 0.  1.
          5    1    5    5  503    0 -0.49102798105E+02  0.43699523892E+02 -0.60813494238E+03  0.61169512938E+03  0.47000000000E+01 0. -1.
         -5    1    5    5    0  503  0.37488565250E+02 -0.52752692783E+02 -0.40831502199E+03  0.41343861250E+03  0.47000000000E+01 0. -1.
<mgrwt>
<rscale>  0 0.27922493E+03</rscale>
<asrwt>0</asrwt>
<pdfrwt beam="1">  1        1 0.48458740E+00 0.27922493E+03</pdfrwt>
<pdfrwt beam="2">  1       -1 0.95202765E-03 0.27922493E+03</pdfrwt>
<totfact> 0.11447400E+03</totfact>
</mgrwt>
</event>
<event>
 9    1  0.7944303E-001  0.2751408E+03  0.7818608E-02  0.1098373E+00
          2   -1    0    0  501    0  0.00000000000E+00  0.00000000000E+00  0.17031203018E+02  0.17031203018E+02  0.00000000000E+00 0. -1.
         -2   -1    0    0    0  501 -0.00000000000E+00 -0.00000000000E+00 -0.11112316168E+04  0.11112316168E+04  0.00000000000E+00 0. -1.
         35    2    1    2    0    0 -0.35527136788E-14 -0.10658141036E-13 -0.10942004138E+04  0.11282628198E+04  0.27514077317E+03 0.  0.
         25    2    3    3    0    0  0.10728375826E+02 -0.31575470230E+02 -0.40827621362E+03  0.43023540424E+03  0.13153299238E+03 0.  0.
         25    2    3    3    0    0 -0.10728375826E+02  0.31575470230E+02 -0.68592420014E+03  0.69802741556E+03  0.12505261357E+03 0.  0.
          5    1    4    4  502    0  0.54584475837E+02 -0.10066135879E+02 -0.75308378191E+02  0.93670880852E+02  0.47000000000E+01 0.  1.
         -5    1    4    4    0  502 -0.43856100011E+02 -0.21509334352E+02 -0.33296783543E+03  0.33656452339E+03  0.47000000000E+01 0.  1.
          5    1    5    5  503    0  0.14816888545E+01 -0.37441073853E+02 -0.45725785436E+03  0.45881463010E+03  0.47000000000E+01 0. -1.
         -5    1    5    5    0  503 -0.12210064681E+02  0.69016544083E+02 -0.22866634578E+03  0.23921278546E+03  0.47000000000E+01 0. -1.
<mgrwt>
<rscale>  0 0.27514077E+03</rscale>
<asrwt>0</asrwt>
<pdfrwt beam="1">  1        2 0.26201849E-02 0.27514077E+03</pdfrwt>
<pdfrwt beam="2">  1       -2 0.17095872E+00 0.27514077E+03</pdfrwt>
<totfact> 0.84571768E+02</totfact>
</mgrwt>
</event>
<event>
 9    1  0.7944303E-001  0.2778142E+03  0.7818608E-02  0.1096889E+00
          2   -1    0    0  501    0  0.00000000000E+00  0.00000000000E+00  0.18365909247E+04  0.18365909247E+04  0.00000000000E+00 0.  1.
         -2   -1    0    0    0  501 -0.00000000000E+00 -0.00000000000E+00 -0.10505974124E+02  0.10505974124E+02  0.00000000000E+00 0.  1.
         35    2    1    2    0    0  0.00000000000E+00  0.35527136788E-14  0.18260849506E+04  0.18470968988E+04  0.27781415897E+03 0.  0.
         25    2    3    3    0    0  0.42483765683E+02  0.71497887499E+01  0.11879838195E+04  0.11953653426E+04  0.12544623197E+03 0.  0.
         25    2    3    3    0    0 -0.42483765683E+02 -0.71497887499E+01  0.63810113111E+03  0.65173155624E+03  0.12539927451E+03 0.  0.
          5    1    4    4  502    0  0.40623729158E+02  0.37635647973E+02  0.11113046268E+04  0.11126934856E+04  0.47000000000E+01 0. -1.
         -5    1    4    4    0  502  0.18600365242E+01 -0.30485859223E+02  0.76679192699E+02  0.82671857010E+02  0.47000000000E+01 0. -1.
          5    1    5    5  503    0 -0.34836310404E+02 -0.14709630516E+01  0.63997873129E+03  0.64094508248E+03  0.47000000000E+01 0.  1.
         -5    1    5    5    0  503 -0.76474552788E+01 -0.56788256983E+01 -0.18776001842E+01  0.10786473752E+02  0.47000000000E+01 0.  1.
<mgrwt>
<rscale>  0 0.27781416E+03</rscale>
<asrwt>0</asrwt>
<pdfrwt beam="1">  1        2 0.28255220E+00 0.27781416E+03</pdfrwt>
<pdfrwt beam="2">  1       -2 0.16163052E-02 0.27781416E+03</pdfrwt>
<totfact> 0.95761334E+03</totfact>
</mgrwt>
</event>
<event>
 9    1  0.7944303E-001  0.2736728E+03  0.7818608E-02  0.1099196E+00
         -2   -1    0    0    0  501 -0.00000000000E+00  0.00000000000E+00  0.80924986567E+01  0.80924986567E+01  0.00000000000E+00 0.  1.
          2   -1    0    0  501    0  0.00000000000E+00 -0.00000000000E+00 -0.23137721267E+04  0.23137721267E+04  0.00000000000E+00 0.  1.
         35    2    1    2    0    0  0.31086244690E-14  0.00000000000E+00 -0.23056796280E+04  0.23218646253E+04  0.27367278145E+03 0.  0.
         25    2    3    3    0    0  0.43136578543E+00  0.15060196921E+02 -0.16718525766E+04  0.16756331743E+04  0.11148318869E+03 0.  0.
         25    2    3    3    0    0 -0.43136578543E+00 -0.15060196921E+02 -0.63382705139E+03  0.64623145100E+03  0.12510540184E+03 0.  0.
          5    1    4    4  502    0  0.36959437555E+02  0.49552620329E+02 -0.89907217421E+03  0.90120714968E+03  0.47000000000E+01 0. -1.
         -5    1    4    4    0  502 -0.36528071769E+02 -0.34492423408E+02 -0.77278040241E+03  0.77442602464E+03  0.47000000000E+01 0. -1.
          5    1    5    5  503    0 -0.22343685378E+01 -0.51383391795E+02 -0.57215180795E+03  0.57447804718E+03  0.47000000000E+01 0. -1.
         -5    1    5    5    0  503  0.18030027524E+01  0.36323194875E+02 -0.61675243444E+02  0.71753403812E+02  0.47000000000E+01 0. -1.
<mgrwt>
<rscale>  0 0.27367278E+03</rscale>
<asrwt>0</asrwt>
<pdfrwt beam="1">  1        2 0.35596468E+00 0.27367278E+03</pdfrwt>
<pdfrwt beam="2">  1       -2 0.12450007E-02 0.27367278E+03</pdfrwt>
<totfact> 0.78418325E+03</totfact>
</mgrwt>
</event>
<event>
 9    1  0.7944303E-001  0.2691417E+03  0.7818608E-02  0.1101772E+00
          2   -1    0    0  501    0  0.00000000000E+00  0.00000000000E+00  0.58738781637E+03  0.58738781637E+03  0.00000000000E+00 0. -1.
         -2   -1    0    0    0  501 -0.00000000000E+00 -0.00000000000E+00 -0.30830258092E+02  0.30830258092E+02  0.00000000000E+00 0. -1.
         35    2    1    2    0    0  0.00000000000E+00  0.88817841970E-15  0.55655755828E+03  0.61821807446E+03  0.26914173202E+03 0.  0.
         25    2    3    3    0    0 -0.36078312757E+02 -0.65413782418E+01  0.19117470400E+03  0.23040738510E+03  0.12326946653E+03 0.  0.
         25    2    3    3    0    0  0.36078312757E+02  0.65413782418E+01  0.36538285427E+03  0.38781068936E+03  0.12469188547E+03 0.  0.
          5    1    4    4  502    0 -0.64835339034E+02  0.29816105383E+01  0.40503831274E+02  0.76649602327E+02  0.47000000000E+01 0.  1.
         -5    1    4    4    0  502  0.28757026277E+02 -0.95229887801E+01  0.15067087273E+03  0.15375778277E+03  0.47000000000E+01 0.  1.
          5    1    5    5  503    0 -0.42631268653E+02 -0.63683716657E-01  0.70724276191E+02  0.82713012068E+02  0.47000000000E+01 0.  1.
         -5    1    5    5    0  503  0.78709581409E+02  0.66050619585E+01  0.29465857808E+03  0.30509767729E+03  0.47000000000E+01 0.  1.
<mgrwt>
<rscale>  0 0.26914173E+03</rscale>
<asrwt>0</asrwt>
<pdfrwt beam="1">  1        2 0.90367348E-01 0.26914173E+03</pdfrwt>
<pdfrwt beam="2">  1       -2 0.47431171E-02 0.26914173E+03</pdfrwt>
<totfact> 0.10910740E+04</totfact>
</mgrwt>
</event>
<event>
 9    1  0.7944303E-001  0.2746395E+03  0.7818608E-02  0.1098653E+00
         -1   -1    0    0    0  501 -0.00000000000E+00  0.00000000000E+00  0.28073239779E+02  0.28073239779E+02  0.00000000000E+00 0. -1.
          1   -1    0    0  501    0  0.00000000000E+00 -0.00000000000E+00 -0.67169730663E+03  0.67169730663E+03  0.00000000000E+00 0. -1.
         35    2    1    2    0    0 -0.71054273576E-14  0.00000000000E+00 -0.64362406685E+03  0.69977054641E+03  0.27463954230E+03 0.  0.
         25    2    3    3    0    0 -0.51775890241E+02  0.24623764961E+02 -0.32297023651E+03  0.35071738270E+03  0.12412024914E+03 0.  0.
         25    2    3    3    0    0  0.51775890241E+02 -0.24623764961E+02 -0.32065383035E+03  0.34905316371E+03  0.12542790587E+03 0.  0.
          5    1    4    4  502    0 -0.17832836368E+02  0.66056647011E+02 -0.25494748085E+03  0.26401098208E+03  0.47000000000E+01 0. -1.
         -5    1    4    4    0  502 -0.33943053874E+02 -0.41432882050E+02 -0.68022755661E+02  0.86706400623E+02  0.47000000000E+01 0. -1.
          5    1    5    5  503    0  0.76042105422E+02 -0.57121167763E+02 -0.24895081941E+03  0.26654048490E+03  0.47000000000E+01 0.  1.
         -5    1    5    5    0  503 -0.24266215181E+02  0.32497402802E+02 -0.71703010932E+02  0.82512678812E+02  0.47000000000E+01 0.  1.
<mgrwt>
<rscale>  0 0.27463954E+03</rscale>
<asrwt>0</asrwt>
<pdfrwt beam="1">  1        1 0.10333803E+00 0.27463954E+03</pdfrwt>
<pdfrwt beam="2">  1       -1 0.43189605E-02 0.27463954E+03</pdfrwt>
<totfact> 0.65455388E+03</totfact>
</mgrwt>
</event>
<event>
 9    1  0.7944303E-001  0.2776951E+03  0.7818608E-02  0.1096955E+00
          1   -1    0    0  501    0  0.00000000000E+00  0.00000000000E+00  0.74722549097E+03  0.74722549097E+03  0.00000000000E+00 0.  1.
         -1   -1    0    0    0  501 -0.00000000000E+00 -0.00000000000E+00 -0.25800297967E+02  0.25800297967E+02  0.00000000000E+00 0.  1.
         35    2    1    2    0    0  0.00000000000E+00  0.00000000000E+00  0.72142519300E+03  0.77302578894E+03  0.27769508685E+03 0.  0.
         25    2    3    3    0    0 -0.10356628933E+02  0.12285069585E+02  0.52675499938E+03  0.54173159566E+03  0.12547553410E+03 0.  0.
         25    2    3    3    0    0  0.10356628933E+02 -0.12285069585E+02  0.19467019362E+03  0.23129419328E+03  0.12386418717E+03 0.  0.
          5    1    4    4  502    0 -0.48900768597E+01  0.44748920042E+02  0.49031134543E+03  0.49239586123E+03  0.47000000000E+01 0.  1.
         -5    1    4    4    0  502 -0.54665520732E+01 -0.32463850457E+02  0.36443653953E+02  0.49335734428E+02  0.47000000000E+01 0.  1.
          5    1    5    5  503    0  0.27886093388E+02  0.44973853421E+02  0.43619874142E+02  0.68739109073E+02  0.47000000000E+01 0. -1.
         -5    1    5    5    0  503 -0.17529464455E+02 -0.57258923006E+02  0.15105031948E+03  0.16255508421E+03  0.47000000000E+01 0. -1.
<mgrwt>
<rscale>  0 0.27769509E+03</rscale>
<asrwt>0</asrwt>
<pdfrwt beam="1">  1        1 0.11495775E+00 0.27769509E+03</pdfrwt>
<pdfrwt beam="2">  1       -1 0.39692772E-02 0.27769509E+03</pdfrwt>
<totfact> 0.63503934E+03</totfact>
</mgrwt>
</event>
<event>
 9    1  0.7944303E-001  0.2721391E+03  0.7818608E-02  0.1100062E+00
          1   -1    0    0  501    0  0.00000000000E+00  0.00000000000E+00  0.25002178408E+02  0.25002178408E+02  0.00000000000E+00 0.  1.
         -1   -1    0    0    0  501 -0.00000000000E+00 -0.00000000000E+00 -0.74053250776E+03  0.74053250776E+03  0.00000000000E+00 0.  1.
         35    2    1    2    0    0  0.00000000000E+00  0.71054273576E-14 -0.71553032935E+03  0.76553468617E+03  0.27213912527E+03 0.  0.
         25    2    3    3    0    0  0.30734955058E+02 -0.42372907929E+02 -0.38539114322E+03  0.40903086152E+03  0.12664837787E+03 0.  0.
         25    2    3    3    0    0 -0.30734955058E+02  0.42372907929E+02 -0.33013918613E+03  0.35650382464E+03  0.12394754527E+03 0.  0.
          5    1    4    4  502    0  0.43807537849E+02 -0.80855074415E+02 -0.21675178305E+03  0.23549961547E+03  0.47000000000E+01 0.  1.
         -5    1    4    4    0  502 -0.13072582791E+02  0.38482166486E+02 -0.16863936017E+03  0.17353124605E+03  0.47000000000E+01 0.  1.
          5    1    5    5  503    0 -0.42436803430E+02  0.81043135483E+02 -0.25668196982E+03  0.27253732905E+03  0.47000000000E+01 0.  1.
         -5    1    5    5    0  503  0.11701848372E+02 -0.38670227554E+02 -0.73457216311E+02  0.83966495596E+02  0.47000000000E+01 0.  1.
<mgrwt>
<rscale>  0 0.27213913E+03</rscale>
<asrwt>0</asrwt>
<pdfrwt beam="1">  1        1 0.38464889E-02 0.27213913E+03</pdfrwt>
<pdfrwt beam="2">  1       -1 0.11392808E+00 0.27213913E+03</pdfrwt>
<totfact> 0.17942457E+03</totfact>
</mgrwt>
</event>
<event>
 9    1  0.7944303E-001  0.2774790E+03  0.7818608E-02  0.1097074E+00
         -2   -1    0    0    0  501 -0.00000000000E+00  0.00000000000E+00  0.21920290886E+02  0.21920290886E+02  0.00000000000E+00 0. -1.
          2   -1    0    0  501    0  0.00000000000E+00 -0.00000000000E+00 -0.87811990789E+03  0.87811990789E+03  0.00000000000E+00 0. -1.
         35    2    1    2    0    0  0.71054273576E-14 -0.14210854715E-13 -0.85619961700E+03  0.90004019877E+03  0.27747896362E+03 0.  0.
         25    2    3    3    0    0 -0.29729904706E+02  0.40654717425E+02 -0.58348620686E+03  0.59896474760E+03  0.12556250233E+03 0.  0.
         25    2    3    3    0    0  0.29729904706E+02 -0.40654717425E+02 -0.27271341014E+03  0.30107545117E+03  0.11720558837E+03 0.  0.
          5    1    4    4  502    0 -0.71344657173E+02  0.38349231004E+02 -0.48763311647E+03  0.49433679805E+03  0.47000000000E+01 0. -1.
         -5    1    4    4    0  502  0.41614752467E+02  0.23054864215E+01 -0.95853090395E+02  0.10462794956E+03  0.47000000000E+01 0. -1.
          5    1    5    5  503    0  0.46467546297E+02 -0.69828505588E+02 -0.13312674016E+03  0.15741687329E+03  0.47000000000E+01 0.  1.
         -5    1    5    5    0  503 -0.16737641591E+02  0.29173788163E+02 -0.13958666998E+03  0.14365857788E+03  0.47000000000E+01 0.  1.
<mgrwt>
<rscale>  0 0.27747896E+03</rscale>
<asrwt>0</asrwt>
<pdfrwt beam="1">  1        2 0.13509535E+00 0.27747896E+03</pdfrwt>
<pdfrwt beam="2">  1       -2 0.33723530E-02 0.27747896E+03</pdfrwt>
<totfact> 0.11132279E+04</totfact>
</mgrwt>
</event>
<event>
 9    1  0.7944303E-001  0.2739618E+03  0.7818608E-02  0.1099033E+00
          2   -1    0    0  501    0  0.00000000000E+00  0.00000000000E+00  0.28532834177E+03  0.28532834177E+03  0.00000000000E+00 0.  1.
         -2   -1    0    0    0  501 -0.00000000000E+00 -0.00000000000E+00 -0.65762023394E+02  0.65762023394E+02  0.00000000000E+00 0.  1.
         35    2    1    2    0    0  0.00000000000E+00  0.00000000000E+00  0.21956631838E+03  0.35109036517E+03  0.27396181549E+03 0.  0.
         25    2    3    3    0    0  0.40175565397E+02 -0.41644149449E+02  0.12328614972E+03  0.18286760791E+03  0.12203596222E+03 0.  0.
         25    2    3    3    0    0 -0.40175565397E+02  0.41644149449E+02  0.96280168664E+02  0.16822275725E+03  0.12522265746E+03 0.  0.
          5    1    4    4  502    0  0.33750729659E+02  0.39615004640E+02  0.59997396176E+02  0.79562792139E+02  0.47000000000E+01 0.  1.
         -5    1    4    4    0  502  0.64248357383E+01 -0.81259154089E+02  0.63288753541E+02  0.10330481577E+03  0.47000000000E+01 0.  1.
          5    1    5    5  503    0 -0.79432957856E+01 -0.17606387954E+01 -0.29646851800E+02  0.31100186793E+02  0.47000000000E+01 0.  1.
         -5    1    5    5    0  503 -0.32232269611E+02  0.43404788245E+02  0.12592702046E+03  0.13712257046E+03  0.47000000000E+01 0.  1.
<mgrwt>
<rscale>  0 0.27396182E+03</rscale>
<asrwt>0</asrwt>
<pdfrwt beam="1">  1        2 0.43896667E-01 0.27396182E+03</pdfrwt>
<pdfrwt beam="2">  1       -2 0.10117235E-01 0.27396182E+03</pdfrwt>
<totfact> 0.74621680E+03</totfact>
</mgrwt>
</event>
<event>
 9    1  0.7944303E-001  0.2725953E+03  0.7818608E-02  0.1099803E+00
         -2   -1    0    0    0  501 -0.00000000000E+00  0.00000000000E+00  0.43931010354E+02  0.43931010354E+02  0.00000000000E+00 0. -1.
          2   -1    0    0  501    0  0.00000000000E+00 -0.00000000000E+00 -0.42286866271E+03  0.42286866271E+03  0.00000000000E+00 0. -1.
         35    2    1    2    0    0 -0.35527136788E-14  0.00000000000E+00 -0.37893765235E+03  0.46679967306E+03  0.27259528682E+03 0.  0.
         25    2    3    3    0    0  0.31145142829E+02 -0.24763208026E+02 -0.25672011846E+03  0.28862312238E+03  0.12575711174E+03 0.  0.
         25    2    3    3    0    0 -0.31145142829E+02  0.24763208026E+02 -0.12221753389E+03  0.17817655068E+03  0.12339579097E+03 0.  0.
          5    1    4    4  502    0  0.57512807595E+02  0.28234842665E+02 -0.18307977916E+03  0.19402377410E+03  0.47000000000E+01 0. -1.
         -5    1    4    4    0  502 -0.26367664766E+02 -0.52998050691E+02 -0.73640339302E+02  0.94599348279E+02  0.47000000000E+01 0. -1.
          5    1    5    5  503    0  0.23506059732E+01 -0.17731720580E+02 -0.12247474232E+03  0.12386319780E+03  0.47000000000E+01 0.  1.
         -5    1    5    5    0  503 -0.33495748802E+02  0.42494928605E+02  0.25720843055E+00  0.54313352881E+02  0.47000000000E+01 0.  1.
<mgrwt>
<rscale>  0 0.27259529E+03</rscale>
<asrwt>0</asrwt>
<pdfrwt beam="1">  1        2 0.65056717E-01 0.27259529E+03</pdfrwt>
<pdfrwt beam="2">  1       -2 0.67586170E-02 0.27259529E+03</pdfrwt>
<totfact> 0.91763736E+03</totfact>
</mgrwt>
</event>
<event>
 9    1  0.7944303E-001  0.2734468E+03  0.7818608E-02  0.1099323E+00
          2   -1    0    0  501    0  0.00000000000E+00  0.00000000000E+00  0.16623165312E+04  0.16623165312E+04  0.00000000000E+00 0. -1.
         -2   -1    0    0    0  501 -0.00000000000E+00 -0.00000000000E+00 -0.11245325806E+02  0.11245325806E+02  0.00000000000E+00 0. -1.
         35    2    1    2    0    0  0.00000000000E+00  0.00000000000E+00  0.16510712054E+04  0.16735618570E+04  0.27344682105E+03 0.  0.
         25    2    3    3    0    0 -0.47567318547E+02 -0.13109281403E+02  0.10005606532E+04  0.10093644517E+04  0.12353328537E+03 0.  0.
         25    2    3    3    0    0  0.47567318547E+02  0.13109281403E+02  0.65051055213E+03  0.66419740523E+03  0.12473857314E+03 0.  0.
          5    1    4    4  502    0 -0.64672295634E+02  0.28554961350E+01  0.24575360484E+03  0.25418021948E+03  0.47000000000E+01 0. -1.
         -5    1    4    4    0  502  0.17104977087E+02 -0.15964777538E+02  0.75480704839E+03  0.75518423227E+03  0.47000000000E+01 0. -1.
          5    1    5    5  503    0  0.45822973280E+02  0.66284699696E+02  0.39593134481E+03  0.40407564403E+03  0.47000000000E+01 0.  1.
         -5    1    5    5    0  503  0.17443452668E+01 -0.53175418293E+02  0.25457920731E+03  0.26012176120E+03  0.47000000000E+01 0.  1.
<mgrwt>
<rscale>  0 0.27344682E+03</rscale>
<asrwt>0</asrwt>
<pdfrwt beam="1">  1        2 0.25574081E+00 0.27344682E+03</pdfrwt>
<pdfrwt beam="2">  1       -2 0.17300514E-02 0.27344682E+03</pdfrwt>
<totfact> 0.10701491E+04</totfact>
</mgrwt>
</event>
<event>
 9    1  0.7944303E-001  0.2751053E+03  0.7818608E-02  0.1098393E+00
          1   -1    0    0  501    0  0.00000000000E+00  0.00000000000E+00  0.31688687449E+03  0.31688687449E+03  0.00000000000E+00 0. -1.
         -1   -1    0    0    0  501 -0.00000000000E+00 -0.00000000000E+00 -0.59708149851E+02  0.59708149851E+02  0.00000000000E+00 0. -1.
         35    2    1    2    0    0 -0.71054273576E-14  0.71054273576E-14  0.25717872464E+03  0.37659502435E+03  0.27510528158E+03 0.  0.
         25    2    3    3    0    0  0.69602947652E+01  0.59323733538E+02  0.13895346997E+03  0.19435093837E+03  0.12205109326E+03 0.  0.
         25    2    3    3    0    0 -0.69602947652E+01 -0.59323733538E+02  0.11822525467E+03  0.18224408597E+03  0.12517166199E+03 0.  0.
          5    1    4    4  502    0 -0.45964975671E+02  0.47670464053E+02  0.30580997137E+02  0.73092677591E+02  0.47000000000E+01 0. -1.
         -5    1    4    4    0  502  0.52925270436E+02  0.11653269484E+02  0.10837247283E+03  0.12125826078E+03  0.47000000000E+01 0. -1.
          5    1    5    5  503    0  0.50820019914E+02  0.48281283724E+01  0.33843085016E+02  0.61428247989E+02  0.47000000000E+01 0. -1.
         -5    1    5    5    0  503 -0.57780314679E+02 -0.64151861910E+02  0.84382169658E+02  0.12081583798E+03  0.47000000000E+01 0. -1.
<mgrwt>
<rscale>  0 0.27510528E+03</rscale>
<asrwt>0</asrwt>
<pdfrwt beam="1">  1        1 0.48751826E-01 0.27510528E+03</pdfrwt>
<pdfrwt beam="2">  1       -1 0.91858694E-02 0.27510528E+03</pdfrwt>
<totfact> 0.56469298E+03</totfact>
</mgrwt>
</event>
<event>
 9    1  0.7944303E-001  0.2709959E+03  0.7818608E-02  0.1100711E+00
          1   -1    0    0  501    0  0.00000000000E+00  0.00000000000E+00  0.32696717607E+03  0.32696717607E+03  0.00000000000E+00 0. -1.
         -1   -1    0    0    0  501 -0.00000000000E+00 -0.00000000000E+00 -0.56151502829E+02  0.56151502829E+02  0.00000000000E+00 0. -1.
         35    2    1    2    0    0  0.00000000000E+00 -0.35527136788E-14  0.27081567324E+03  0.38311867890E+03  0.27099592847E+03 0.  0.
         25    2    3    3    0    0 -0.42728274863E+02 -0.24146667720E+02  0.14642498863E+03  0.19875793625E+03  0.12512263141E+03 0.  0.
         25    2    3    3    0    0  0.42728274863E+02  0.24146667720E+02  0.12439068461E+03  0.18436074265E+03  0.12691364772E+03 0.  0.
          5    1    4    4  502    0 -0.25746874142E+02 -0.48453848619E+02  0.62731193701E+01  0.55426699349E+02  0.47000000000E+01 0.  1.
         -5    1    4    4    0  502 -0.16981400720E+02  0.24307180900E+02  0.14015186926E+03  0.14333123690E+03  0.47000000000E+01 0.  1.
          5    1    5    5  503    0  0.43175958823E+02  0.35348520117E+02  0.14776201250E+03  0.15801703590E+03  0.47000000000E+01 0. -1.
         -5    1    5    5    0  503 -0.44768396031E+00 -0.11201852398E+02 -0.23371327892E+02  0.26343706754E+02  0.47000000000E+01 0. -1.
<mgrwt>
<rscale>  0 0.27099593E+03</rscale>
<asrwt>0</asrwt>
<pdfrwt beam="1">  1        1 0.50302641E-01 0.27099593E+03</pdfrwt>
<pdfrwt beam="2">  1       -1 0.86386930E-02 0.27099593E+03</pdfrwt>
<totfact> 0.59620918E+03</totfact>
</mgrwt>
</event>
<event>
 9    1  0.7944303E-001  0.2765717E+03  0.7818608E-02  0.1097576E+00
         -2   -1    0    0    0  501 -0.00000000000E+00  0.00000000000E+00  0.11747228356E+03  0.11747228356E+03  0.00000000000E+00 0.  1.
          2   -1    0    0  501    0  0.00000000000E+00 -0.00000000000E+00 -0.16278711557E+03  0.16278711557E+03  0.00000000000E+00 0.  1.
         35    2    1    2    0    0  0.00000000000E+00 -0.17763568394E-14 -0.45314832009E+02  0.28025939912E+03  0.27657168473E+03 0.  0.
         25    2    3    3    0    0 -0.23872263865E+02  0.11336255904E+02  0.30571108593E+02  0.13146460886E+03  0.12509978026E+03 0.  0.
         25    2    3    3    0    0  0.23872263865E+02 -0.11336255904E+02 -0.75885940603E+02  0.14879479026E+03  0.12523105824E+03 0.  0.
          5    1    4    4  502    0 -0.14886389708E+02 -0.67862767433E+01  0.77922223774E+02  0.79759771242E+02  0.47000000000E+01 0.  1.
         -5    1    4    4    0  502 -0.89858741564E+01  0.18122532647E+02 -0.47351115181E+02  0.51704837615E+02  0.47000000000E+01 0.  1.
          5    1    5    5  503    0 -0.17161693714E+02 -0.12794163564E+02 -0.99031067361E+02  0.10142710020E+03  0.47000000000E+01 0. -1.
         -5    1    5    5    0  503  0.41033957578E+02  0.14579076594E+01  0.23145126759E+02  0.47367690064E+02  0.47000000000E+01 0. -1.
<mgrwt>
<rscale>  0 0.27657168E+03</rscale>
<asrwt>0</asrwt>
<pdfrwt beam="1">  1        2 0.25044171E-01 0.27657168E+03</pdfrwt>
<pdfrwt beam="2">  1       -2 0.18072659E-01 0.27657168E+03</pdfrwt>
<totfact> 0.53325450E+03</totfact>
</mgrwt>
</event>
<event>
 9    1  0.7944303E-001  0.2775264E+03  0.7818608E-02  0.1097048E+00
          2   -1    0    0  501    0  0.00000000000E+00  0.00000000000E+00  0.42193697397E+03  0.42193697397E+03  0.00000000000E+00 0.  1.
         -2   -1    0    0    0  501 -0.00000000000E+00 -0.00000000000E+00 -0.45635315011E+02  0.45635315011E+02  0.00000000000E+00 0.  1.
         35    2    1    2    0    0 -0.35527136788E-14  0.00000000000E+00  0.37630165896E+03  0.46757228898E+03  0.27752640755E+03 0.  0.
         25    2    3    3    0    0 -0.18594601540E+02 -0.96635566539E+01  0.92956674089E+02  0.15686586538E+03  0.12460663277E+03 0.  0.
         25    2    3    3    0    0  0.18594601540E+02  0.96635566539E+01  0.28334498487E+03  0.31070642360E+03  0.12575753529E+03 0.  0.
          5    1    4    4  502    0 -0.60939830085E+02  0.15815040771E+02  0.15736468457E+02  0.65065388994E+02  0.47000000000E+01 0. -1.
         -5    1    4    4    0  502  0.42345228546E+02 -0.25478597425E+02  0.77220205632E+02  0.91800476389E+02  0.47000000000E+01 0. -1.
          5    1    5    5  503    0  0.26044120114E+01 -0.53703964079E+02  0.75710606934E+02  0.92978947736E+02  0.47000000000E+01 0.  1.
         -5    1    5    5    0  503  0.15990189528E+02  0.63367520733E+02  0.20763437793E+03  0.21772747586E+03  0.47000000000E+01 0.  1.
<mgrwt>
<rscale>  0 0.27752641E+03</rscale>
<asrwt>0</asrwt>
<pdfrwt beam="1">  1        2 0.64913378E-01 0.27752641E+03</pdfrwt>
<pdfrwt beam="2">  1       -2 0.70208180E-02 0.27752641E+03</pdfrwt>
<totfact> 0.86785352E+03</totfact>
</mgrwt>
</event>
<event>
 9    1  0.7944303E-001  0.2788694E+03  0.7818608E-02  0.1096308E+00
          3   -1    0    0  501    0  0.00000000000E+00  0.00000000000E+00  0.24408016131E+03  0.24408016131E+03  0.00000000000E+00 0.  1.
         -3   -1    0    0    0  501 -0.00000000000E+00 -0.00000000000E+00 -0.79654312104E+02  0.79654312104E+02  0.00000000000E+00 0.  1.
         35    2    1    2    0    0  0.00000000000E+00 -0.71054273576E-14  0.16442584920E+03  0.32373447341E+03  0.27886941279E+03 0.  0.
         25    2    3    3    0    0 -0.56623063907E+02 -0.26445232145E+02  0.54194345615E+02  0.14592490161E+03  0.12021450888E+03 0.  0.
         25    2    3    3    0    0  0.56623063907E+02  0.26445232145E+02  0.11023150359E+03  0.17780957180E+03  0.12473867792E+03 0.  0.
          5    1    4    4  502    0  0.12086868622E+02 -0.19348414582E+02 -0.29318538938E+02  0.37444896387E+02  0.47000000000E+01 0.  1.
         -5    1    4    4    0  502 -0.68709932529E+02 -0.70968175627E+01  0.83512884553E+02  0.10848000523E+03  0.47000000000E+01 0.  1.
          5    1    5    5  503    0 -0.12842472329E+00 -0.44131068482E+02  0.58423423332E+02  0.73368617897E+02  0.47000000000E+01 0. -1.
         -5    1    5    5    0  503  0.56751488630E+02  0.70576300627E+02  0.51808080258E+02  0.10444095390E+03  0.47000000000E+01 0. -1.
<mgrwt>
<rscale>  0 0.27886941E+03</rscale>
<asrwt>0</asrwt>
<pdfrwt beam="1">  1        3 0.37550794E-01 0.27886941E+03</pdfrwt>
<pdfrwt beam="2">  1       -3 0.12254510E-01 0.27886941E+03</pdfrwt>
<totfact> 0.93723041E+02</totfact>
</mgrwt>
</event>
<event>
 9    1  0.7944303E-001  0.2728041E+03  0.7818608E-02  0.1099685E+00
          3   -1    0    0  501    0  0.00000000000E+00  0.00000000000E+00  0.13067503515E+02  0.13067503515E+02  0.00000000000E+00 0. -1.
         -3   -1    0    0    0  501 -0.00000000000E+00 -0.00000000000E+00 -0.14238004594E+04  0.14238004594E+04  0.00000000000E+00 0. -1.
         35    2    1    2    0    0 -0.35527136788E-14 -0.71054273576E-14 -0.14107329559E+04  0.14368679629E+04  0.27280408727E+03 0.  0.
         25    2    3    3    0    0  0.92525355570E+01 -0.48837472692E+02 -0.84175663115E+03  0.85229429291E+03  0.12401865784E+03 0.  0.
         25    2    3    3    0    0 -0.92525355570E+01  0.48837472692E+02 -0.56897632472E+03  0.58457366999E+03  0.12458575118E+03 0.  0.
          5    1    4    4  502    0 -0.14531926914E+02  0.11865178118E+02 -0.19572863122E+02  0.27516291945E+02  0.47000000000E+01 0.  1.
         -5    1    4    4    0  502  0.23784462471E+02 -0.60702650809E+02 -0.82218376803E+03  0.82477800097E+03  0.47000000000E+01 0.  1.
          5    1    5    5  503    0  0.47456015445E+02  0.41480389430E+02 -0.16768291355E+03  0.17919917858E+03  0.47000000000E+01 0.  1.
         -5    1    5    5    0  503 -0.56708551002E+02  0.73570832620E+01 -0.40129341117E+03  0.40537449140E+03  0.47000000000E+01 0.  1.
<mgrwt>
<rscale>  0 0.27280409E+03</rscale>
<asrwt>0</asrwt>
<pdfrwt beam="1">  1        3 0.20103852E-02 0.27280409E+03</pdfrwt>
<pdfrwt beam="2">  1       -3 0.21904622E+00 0.27280409E+03</pdfrwt>
<totfact> 0.29372250E+02</totfact>
</mgrwt>
</event>
<event>
 9    1  0.7944303E-001  0.2842413E+03  0.7818608E-02  0.1093395E+00
         -2   -1    0    0    0  501 -0.00000000000E+00  0.00000000000E+00  0.27741796577E+02  0.27741796577E+02  0.00000000000E+00 0.  1.
          2   -1    0    0  501    0  0.00000000000E+00 -0.00000000000E+00 -0.72808111502E+03  0.72808111502E+03  0.00000000000E+00 0.  1.
         35    2    1    2    0    0  0.00000000000E+00  0.14210854715E-13 -0.70033931844E+03  0.75582291159E+03  0.28424129316E+03 0.  0.
         25    2    3    3    0    0  0.48989531939E+02 -0.47816856910E+02 -0.36177605600E+03  0.38853371392E+03  0.12405686644E+03 0.  0.
         25    2    3    3    0    0 -0.48989531939E+02  0.47816856910E+02 -0.33856326244E+03  0.36728919767E+03  0.12485930486E+03 0.  0.
          5    1    4    4  502    0  0.80723171299E+01  0.21752188488E+02 -0.24705968652E+03  0.24819125430E+03  0.47000000000E+01 0. -1.
         -5    1    4    4    0  502  0.40917214809E+02 -0.69569045398E+02 -0.11471636949E+03  0.14034245963E+03  0.47000000000E+01 0. -1.
          5    1    5    5  503    0 -0.77244741234E+02  0.92794355123E+01 -0.28449088743E+03  0.29497459721E+03  0.47000000000E+01 0. -1.
         -5    1    5    5    0  503  0.28255209295E+02  0.38537421398E+02 -0.54072375010E+02  0.72314600459E+02  0.47000000000E+01 0. -1.
<mgrwt>
<rscale>  0 0.28424129E+03</rscale>
<asrwt>0</asrwt>
<pdfrwt beam="1">  1        2 0.11201249E+00 0.28424129E+03</pdfrwt>
<pdfrwt beam="2">  1       -2 0.42679683E-02 0.28424129E+03</pdfrwt>
<totfact> 0.99323288E+03</totfact>
</mgrwt>
</event>
<event>
 9    1  0.7944303E-001  0.2749685E+03  0.7818608E-02  0.1098469E+00
         -1   -1    0    0    0  501 -0.00000000000E+00  0.00000000000E+00  0.24431269201E+03  0.24431269201E+03  0.00000000000E+00 0. -1.
          1   -1    0    0  501    0  0.00000000000E+00 -0.00000000000E+00 -0.77367755566E+02  0.77367755566E+02  0.00000000000E+00 0. -1.
         35    2    1    2    0    0  0.00000000000E+00  0.71054273576E-14  0.16694493645E+03  0.32168044758E+03  0.27496854102E+03 0.  0.
         25    2    3    3    0    0 -0.26123829516E+02 -0.61489838180E+02  0.11206035895E+03  0.18077906147E+03  0.12514028268E+03 0.  0.
         25    2    3    3    0    0  0.26123829516E+02  0.61489838180E+02  0.54884577495E+02  0.14090138611E+03  0.11125389473E+03 0.  0.
          5    1    4    4  502    0  0.15093684338E+02  0.89924659224E+01 -0.18995347528E+02  0.26298231461E+02  0.47000000000E+01 0. -1.
         -5    1    4    4    0  502 -0.41217513854E+02 -0.70482304102E+02  0.13105570648E+03  0.15448083001E+03  0.47000000000E+01 0. -1.
          5    1    5    5  503    0  0.46326433204E+02  0.84125732243E+02  0.53798548741E+02  0.11018008479E+03  0.47000000000E+01 0. -1.
         -5    1    5    5    0  503 -0.20202603689E+02 -0.22635894063E+02  0.10860287544E+01  0.30721301312E+02  0.47000000000E+01 0. -1.
<mgrwt>
<rscale>  0 0.27496854E+03</rscale>
<asrwt>0</asrwt>
<pdfrwt beam="1">  1        1 0.11902732E-01 0.27496854E+03</pdfrwt>
<pdfrwt beam="2">  1       -1 0.37586568E-01 0.27496854E+03</pdfrwt>
<totfact> 0.34821419E+03</totfact>
</mgrwt>
</event>
<event>
 9    1  0.7944303E-001  0.2768606E+03  0.7818608E-02  0.1097416E+00
          2   -1    0    0  501    0  0.00000000000E+00  0.00000000000E+00  0.46298460758E+03  0.46298460758E+03  0.00000000000E+00 0. -1.
         -2   -1    0    0    0  501 -0.00000000000E+00 -0.00000000000E+00 -0.41390041729E+02  0.41390041729E+02  0.00000000000E+00 0. -1.
         35    2    1    2    0    0  0.35527136788E-14  0.88817841970E-15  0.42159456585E+03  0.50437464931E+03  0.27686063084E+03 0.  0.
         25    2    3    3    0    0 -0.38563722395E+00  0.55374752649E+01  0.31769238758E+03  0.34140240994E+03  0.12488530752E+03 0.  0.
         25    2    3    3    0    0  0.38563722395E+00 -0.55374752649E+01  0.10390217827E+03  0.16297223937E+03  0.12543315275E+03 0.  0.
          5    1    4    4  502    0  0.36485160490E+02  0.50313293391E+02  0.20921707166E+03  0.21830361312E+03  0.47000000000E+01 0.  1.
         -5    1    4    4    0  502 -0.36870797714E+02 -0.44775818126E+02  0.10847531593E+03  0.12309879682E+03  0.47000000000E+01 0.  1.
          5    1    5    5  503    0  0.59280728005E+01 -0.12663094805E+02 -0.27484112126E+02  0.31192345801E+02  0.47000000000E+01 0.  1.
         -5    1    5    5    0  503 -0.55424355766E+01  0.71256195403E+01  0.13138629040E+03  0.13177989357E+03  0.47000000000E+01 0.  1.
<mgrwt>
<rscale>  0 0.27686063E+03</rscale>
<asrwt>0</asrwt>
<pdfrwt beam="1">  1        2 0.71228397E-01 0.27686063E+03</pdfrwt>
<pdfrwt beam="2">  1       -2 0.63676991E-02 0.27686063E+03</pdfrwt>
<totfact> 0.91115211E+03</totfact>
</mgrwt>
</event>
<event>
 9    1  0.7944303E-001  0.2766920E+03  0.7818608E-02  0.1097510E+00
         -1   -1    0    0    0  501 -0.00000000000E+00  0.00000000000E+00  0.77697761050E+02  0.77697761050E+02  0.00000000000E+00 0.  1.
          1   -1    0    0  501    0  0.00000000000E+00 -0.00000000000E+00 -0.24633426170E+03  0.24633426170E+03  0.00000000000E+00 0.  1.
         35    2    1    2    0    0 -0.17763568394E-14  0.00000000000E+00 -0.16863650065E+03  0.32403202275E+03  0.27669203533E+03 0.  0.
         25    2    3    3    0    0 -0.14718129289E+02  0.19288212435E+02 -0.15548574001E+03  0.20043125187E+03  0.12412982281E+03 0.  0.
         25    2    3    3    0    0  0.14718129289E+02 -0.19288212435E+02 -0.13150760641E+02  0.12360077088E+03  0.12048049464E+03 0.  0.
          5    1    4    4  502    0 -0.27252454087E+02  0.26071546222E+02 -0.17313886055E+03  0.17726132350E+03  0.47000000000E+01 0.  1.
         -5    1    4    4    0  502  0.12534324798E+02 -0.67833337868E+01  0.17653120545E+02  0.23169928364E+02  0.47000000000E+01 0.  1.
          5    1    5    5  503    0 -0.11368957582E+01 -0.39010940218E-01  0.52755961810E+02  0.52977122990E+02  0.47000000000E+01 0. -1.
         -5    1    5    5    0  503  0.15855025047E+02 -0.19249201495E+02 -0.65906722451E+02  0.70623647893E+02  0.47000000000E+01 0. -1.
<mgrwt>
<rscale>  0 0.27669204E+03</rscale>
<asrwt>0</asrwt>
<pdfrwt beam="1">  1        1 0.37897579E-01 0.27669204E+03</pdfrwt>
<pdfrwt beam="2">  1       -1 0.11953502E-01 0.27669204E+03</pdfrwt>
<totfact> 0.51528651E+03</totfact>
</mgrwt>
</event>
<event>
 9    1  0.7944303E-001  0.2743625E+03  0.7818608E-02  0.1098808E+00
         -2   -1    0    0    0  501 -0.00000000000E+00  0.00000000000E+00  0.62755990724E+01  0.62755990724E+01  0.00000000000E+00 0. -1.
          2   -1    0    0  501    0  0.00000000000E+00 -0.00000000000E+00 -0.29987093167E+04  0.29987093167E+04  0.00000000000E+00 0. -1.
         35    2    1    2    0    0  0.35527136788E-14  0.71054273576E-14 -0.29924337176E+04  0.30049849158E+04  0.27436251498E+03 0.  0.
         25    2    3    3    0    0  0.20505307540E+02  0.23114886596E+02 -0.19660434804E+04  0.19706231715E+04  0.13066733169E+03 0.  0.
         25    2    3    3    0    0 -0.20505307540E+02 -0.23114886596E+02 -0.10263902372E+04  0.10343617442E+04  0.12438863830E+03 0.  0.
          5    1    4    4  502    0 -0.32241867166E+02  0.46464166619E+02 -0.46286499309E+03  0.46633094322E+03  0.47000000000E+01 0.  1.
         -5    1    4    4    0  502  0.52747174706E+02 -0.23349280023E+02 -0.15031784874E+04  0.15042922283E+04  0.47000000000E+01 0.  1.
          5    1    5    5  503    0  0.26560219724E+02  0.40252278505E+02 -0.44138514807E+03  0.44403674413E+03  0.47000000000E+01 0. -1.
         -5    1    5    5    0  503 -0.47065527263E+02 -0.63367165102E+02 -0.58500508912E+03  0.59032500012E+03  0.47000000000E+01 0. -1.
<mgrwt>
<rscale>  0 0.27436251E+03</rscale>
<asrwt>0</asrwt>
<pdfrwt beam="1">  1        2 0.46133903E+00 0.27436251E+03</pdfrwt>
<pdfrwt beam="2">  1       -2 0.96547859E-03 0.27436251E+03</pdfrwt>
<totfact> 0.46836190E+03</totfact>
</mgrwt>
</event>
<event>
 9    1  0.7944303E-001  0.2795305E+03  0.7818608E-02  0.1095946E+00
          1   -1    0    0  501    0  0.00000000000E+00  0.00000000000E+00  0.74960092376E+03  0.74960092376E+03  0.00000000000E+00 0.  1.
         -1   -1    0    0    0  501 -0.00000000000E+00 -0.00000000000E+00 -0.26059641269E+02  0.26059641269E+02  0.00000000000E+00 0.  1.
         35    2    1    2    0    0  0.00000000000E+00 -0.71054273576E-14  0.72354128249E+03  0.77566056503E+03  0.27953054336E+03 0.  0.
         25    2    3    3    0    0 -0.14470200942E+02 -0.58450250000E+02  0.41253835005E+03  0.43494229103E+03  0.12393985564E+03 0.  0.
         25    2    3    3    0    0  0.14470200942E+02  0.58450250000E+02  0.31100293243E+03  0.34071827400E+03  0.12546035157E+03 0.  0.
          5    1    4    4  502    0 -0.32067837285E+02 -0.23359014722E+02  0.28988409666E+02  0.49359980266E+02  0.47000000000E+01 0.  1.
         -5    1    4    4    0  502  0.17597636343E+02 -0.35091235278E+02  0.38354994039E+03  0.38558231076E+03  0.47000000000E+01 0.  1.
          5    1    5    5  503    0  0.50066940766E+02  0.67229748148E+02  0.28049738659E+03  0.29279243753E+03  0.47000000000E+01 0.  1.
         -5    1    5    5    0  503 -0.35596739823E+02 -0.87794981478E+01  0.30505545845E+02  0.47925836467E+02  0.47000000000E+01 0.  1.
<mgrwt>
<rscale>  0 0.27953054E+03</rscale>
<asrwt>0</asrwt>
<pdfrwt beam="1">  1        1 0.11532320E+00 0.27953054E+03</pdfrwt>
<pdfrwt beam="2">  1       -1 0.40091761E-02 0.27953054E+03</pdfrwt>
<totfact> 0.62279921E+03</totfact>
</mgrwt>
</event>
<event>
 9    1  0.7944303E-001  0.2762678E+03  0.7818608E-02  0.1097745E+00
          4   -1    0    0  501    0  0.00000000000E+00  0.00000000000E+00  0.35519438231E+03  0.35519438231E+03  0.00000000000E+00 0. -1.
         -4   -1    0    0    0  501 -0.00000000000E+00 -0.00000000000E+00 -0.53719810061E+02  0.53719810061E+02  0.00000000000E+00 0. -1.
         35    2    1    2    0    0  0.00000000000E+00  0.35527136788E-14  0.30147457225E+03  0.40891419238E+03  0.27626780306E+03 0.  0.
         25    2    3    3    0    0  0.53946444936E+02  0.27797216499E+02  0.13924218856E+03  0.19516784533E+03  0.12255283192E+03 0.  0.
         25    2    3    3    0    0 -0.53946444936E+02 -0.27797216499E+02  0.16223238370E+03  0.21374634704E+03  0.12524076967E+03 0.  0.
          5    1    4    4  502    0  0.19234601712E+02  0.31501637340E+02 -0.12608012277E+02  0.39285812092E+02  0.47000000000E+01 0.  1.
         -5    1    4    4    0  502  0.34711843224E+02 -0.37044208408E+01  0.15185020084E+03  0.15588203324E+03  0.47000000000E+01 0.  1.
          5    1    5    5  503    0  0.86984958251E+01  0.10681614259E+02  0.13410173323E+03  0.13488930858E+03  0.47000000000E+01 0. -1.
         -5    1    5    5    0  503 -0.62644940761E+02 -0.38478830758E+02  0.28130650461E+02  0.78857038461E+02  0.47000000000E+01 0. -1.
<mgrwt>
<rscale>  0 0.27626780E+03</rscale>
<asrwt>0</asrwt>
<pdfrwt beam="1">  1        4 0.54645288E-01 0.27626780E+03</pdfrwt>
<pdfrwt beam="2">  1       -4 0.82645864E-02 0.27626780E+03</pdfrwt>
<totfact> 0.63313085E+02</totfact>
</mgrwt>
</event>
<event>
 9    1  0.7944303E-001  0.2858717E+03  0.7818608E-02  0.1092524E+00
          1   -1    0    0  501    0  0.00000000000E+00  0.00000000000E+00  0.99386254794E+02  0.99386254794E+02  0.00000000000E+00 0. -1.
         -1   -1    0    0    0  501 -0.00000000000E+00 -0.00000000000E+00 -0.20556818729E+03  0.20556818729E+03  0.00000000000E+00 0. -1.
         35    2    1    2    0    0  0.14210854715E-13 -0.35527136788E-14 -0.10618193250E+03  0.30495444209E+03  0.28587166519E+03 0.  0.
         25    2    3    3    0    0  0.65969875005E+02  0.24070188569E+02 -0.48509522604E+02  0.15100358638E+03  0.12456930172E+03 0.  0.
         25    2    3    3    0    0 -0.65969875005E+02 -0.24070188569E+02 -0.57672409896E+02  0.15395085570E+03  0.12427131899E+03 0.  0.
          5    1    4    4  502    0  0.93823296044E+02 -0.70886967645E+01 -0.11363018321E+02  0.94890825098E+02  0.47000000000E+01 0.  1.
         -5    1    4    4    0  502 -0.27853421038E+02  0.31158885333E+02 -0.37146504284E+02  0.56112761287E+02  0.47000000000E+01 0.  1.
          5    1    5    5  503    0 -0.39172730919E+02  0.38115669619E+02  0.12561336687E+02  0.56277742470E+02  0.47000000000E+01 0. -1.
         -5    1    5    5    0  503 -0.26797144087E+02 -0.62185858188E+02 -0.70233746583E+02  0.97673113235E+02  0.47000000000E+01 0. -1.
<mgrwt>
<rscale>  0 0.28587167E+03</rscale>
<asrwt>0</asrwt>
<pdfrwt beam="1">  1        1 0.15290193E-01 0.28587167E+03</pdfrwt>
<pdfrwt beam="2">  1       -1 0.31625875E-01 0.28587167E+03</pdfrwt>
<totfact> 0.33781231E+03</totfact>
</mgrwt>
</event>
<event>
 9    1  0.7944303E-001  0.2624858E+03  0.7818608E-02  0.1105659E+00
          1   -1    0    0  501    0  0.00000000000E+00  0.00000000000E+00  0.23833452592E+03  0.23833452592E+03  0.00000000000E+00 0.  1.
         -1   -1    0    0    0  501 -0.00000000000E+00 -0.00000000000E+00 -0.72271085098E+02  0.72271085098E+02  0.00000000000E+00 0.  1.
         35    2    1    2    0    0 -0.71054273576E-14 -0.35527136788E-14  0.16606344082E+03  0.31060561101E+03  0.26248576955E+03 0.  0.
         25    2    3    3    0    0  0.34982065573E+02  0.16797230584E+02  0.64862625097E+02  0.14638758211E+03  0.12536455717E+03 0.  0.
         25    2    3    3    0    0 -0.34982065573E+02 -0.16797230584E+02  0.10120081572E+03  0.16421802890E+03  0.12336962368E+03 0.  0.
          5    1    4    4  502    0  0.56987974734E+02  0.35164477419E+02  0.86985183685E+02  0.10987575673E+03  0.47000000000E+01 0. -1.
         -5    1    4    4    0  502 -0.22005909161E+02 -0.18367246835E+02 -0.22122558588E+02  0.36511825383E+02  0.47000000000E+01 0. -1.
          5    1    5    5  503    0 -0.66537651715E+02 -0.47137710006E+02  0.83383109521E+02  0.11672213052E+03  0.47000000000E+01 0.  1.
         -5    1    5    5    0  503  0.31555586142E+02  0.30340479422E+02  0.17817706199E+02  0.47495898376E+02  0.47000000000E+01 0.  1.
<mgrwt>
<rscale>  0 0.26248577E+03</rscale>
<asrwt>0</asrwt>
<pdfrwt beam="1">  1        1 0.36666850E-01 0.26248577E+03</pdfrwt>
<pdfrwt beam="2">  1       -1 0.11118629E-01 0.26248577E+03</pdfrwt>
<totfact> 0.60012522E+03</totfact>
</mgrwt>
</event>
<event>
 9    1  0.7944303E-001  0.2664133E+03  0.7818608E-02  0.1103350E+00
          2   -1    0    0  501    0  0.00000000000E+00  0.00000000000E+00  0.14930835717E+04  0.14930835717E+04  0.00000000000E+00 0. -1.
         -2   -1    0    0    0  501 -0.00000000000E+00 -0.00000000000E+00 -0.11884136250E+02  0.11884136250E+02  0.00000000000E+00 0. -1.
         35    2    1    2    0    0  0.71054273576E-14  0.35527136788E-14  0.14811994355E+04  0.15049677080E+04  0.26641327744E+03 0.  0.
         25    2    3    3    0    0  0.33533425589E+02 -0.20356573812E+02  0.86487904560E+03  0.87461987933E+03  0.12411804489E+03 0.  0.
         25    2    3    3    0    0 -0.33533425589E+02  0.20356573812E+02  0.61632038989E+03  0.63034782866E+03  0.12628808882E+03 0.  0.
          5    1    4    4  502    0  0.10204682056E+02 -0.59416188793E+02  0.72358614114E+03  0.72610840284E+03  0.47000000000E+01 0.  1.
         -5    1    4    4    0  502  0.23328743532E+02  0.39059614981E+02  0.14129290447E+03  0.14851147649E+03  0.47000000000E+01 0.  1.
          5    1    5    5  503    0 -0.75876522738E+02  0.19006174296E+02  0.26185300752E+03  0.27332685362E+03  0.47000000000E+01 0. -1.
         -5    1    5    5    0  503  0.42343097149E+02  0.13503995161E+01  0.35446738237E+03  0.35702097504E+03  0.47000000000E+01 0. -1.
<mgrwt>
<rscale>  0 0.26641328E+03</rscale>
<asrwt>0</asrwt>
<pdfrwt beam="1">  1        2 0.22970502E+00 0.26641328E+03</pdfrwt>
<pdfrwt beam="2">  1       -2 0.18283298E-02 0.26641328E+03</pdfrwt>
<totfact> 0.12129564E+04</totfact>
</mgrwt>
</event>
<event>
 9    1  0.7944303E-001  0.2988841E+03  0.7818608E-02  0.1085800E+00
          3   -1    0    0  501    0  0.00000000000E+00  0.00000000000E+00  0.26045848580E+03  0.26045848580E+03  0.00000000000E+00 0. -1.
         -3   -1    0    0    0  501 -0.00000000000E+00 -0.00000000000E+00 -0.85744691918E+02  0.85744691918E+02  0.00000000000E+00 0. -1.
         35    2    1    2    0    0  0.17763568394E-14  0.00000000000E+00  0.17471379388E+03  0.34620317771E+03  0.29888414225E+03 0.  0.
         25    2    3    3    0    0 -0.15610908983E+02  0.59224305109E+02  0.14954380830E+03  0.20421204241E+03  0.12485186771E+03 0.  0.
         25    2    3    3    0    0  0.15610908983E+02 -0.59224305109E+02  0.25169985579E+02  0.14199113530E+03  0.12560547574E+03 0.  0.
          5    1    4    4  502    0  0.36343543359E+02 -0.21700102128E+02  0.40958858337E+02  0.59088625407E+02  0.47000000000E+01 0. -1.
         -5    1    4    4    0  502 -0.51954452342E+02  0.80924407236E+02  0.10858494996E+03  0.14512341700E+03  0.47000000000E+01 0. -1.
          5    1    5    5  503    0 -0.35644428903E+01  0.34296868972E+02  0.30480186339E+02  0.46261347080E+02  0.47000000000E+01 0. -1.
         -5    1    5    5    0  503  0.19175351874E+02 -0.93521174081E+02 -0.53102007608E+01  0.95729788222E+02  0.47000000000E+01 0. -1.
<mgrwt>
<rscale>  0 0.29888414E+03</rscale>
<asrwt>0</asrwt>
<pdfrwt beam="1">  1        3 0.40070536E-01 0.29888414E+03</pdfrwt>
<pdfrwt beam="2">  1       -3 0.13191491E-01 0.29888414E+03</pdfrwt>
<totfact> 0.73383903E+02</totfact>
</mgrwt>
</event>
<event>
 9    1  0.7944303E-001  0.2767404E+03  0.7818608E-02  0.1097483E+00
         -2   -1    0    0    0  501 -0.00000000000E+00  0.00000000000E+00  0.31536719790E+03  0.31536719790E+03  0.00000000000E+00 0.  1.
          2   -1    0    0  501    0  0.00000000000E+00 -0.00000000000E+00 -0.60711174568E+02  0.60711174568E+02  0.00000000000E+00 0.  1.
         35    2    1    2    0    0 -0.35527136788E-14  0.14210854715E-13  0.25465602333E+03  0.37607837247E+03  0.27674040547E+03 0.  0.
         25    2    3    3    0    0  0.14526699885E+02  0.55612374039E+02  0.10958006331E+03  0.17586121338E+03  0.12496245413E+03 0.  0.
         25    2    3    3    0    0 -0.14526699885E+02 -0.55612374039E+02  0.14507596002E+03  0.20021715908E+03  0.12544367444E+03 0.  0.
          5    1    4    4  502    0 -0.38975805448E+02 -0.20559536071E+02  0.33633055878E+02  0.55633446608E+02  0.47000000000E+01 0.  1.
         -5    1    4    4    0  502  0.53502505333E+02  0.76171910110E+02  0.75947007428E+02  0.12022776678E+03  0.47000000000E+01 0.  1.
          5    1    5    5  503    0 -0.44824648424E+02 -0.83979407968E+02  0.11105159835E+03  0.14634321838E+03  0.47000000000E+01 0. -1.
         -5    1    5    5    0  503  0.30297948539E+02  0.28367033930E+02  0.34024361669E+02  0.53873940701E+02  0.47000000000E+01 0. -1.
<mgrwt>
<rscale>  0 0.27674041E+03</rscale>
<asrwt>0</asrwt>
<pdfrwt beam="1">  1        2 0.93401809E-02 0.27674041E+03</pdfrwt>
<pdfrwt beam="2">  1       -2 0.48518029E-01 0.27674041E+03</pdfrwt>
<totfact> 0.28392063E+03</totfact>
</mgrwt>
</event>
<event>
 9    1  0.7944303E-001  0.2720326E+03  0.7818608E-02  0.1100122E+00
          4   -1    0    0  501    0  0.00000000000E+00  0.00000000000E+00  0.24630473241E+02  0.24630473241E+02  0.00000000000E+00 0. -1.
         -4   -1    0    0    0  501 -0.00000000000E+00 -0.00000000000E+00 -0.75111945121E+03  0.75111945121E+03  0.00000000000E+00 0. -1.
         35    2    1    2    0    0  0.00000000000E+00 -0.35527136788E-14 -0.72648897796E+03  0.77574992445E+03  0.27203255352E+03 0.  0.
         25    2    3    3    0    0 -0.46915866378E+02 -0.30172661223E+01 -0.28823077356E+03  0.31791896184E+03  0.12563950436E+03 0.  0.
         25    2    3    3    0    0  0.46915866378E+02  0.30172661223E+01 -0.43825820440E+03  0.45783096260E+03  0.12380926533E+03 0.  0.
          5    1    4    4  502    0 -0.75566773414E+02  0.29243628548E+02 -0.12517568107E+03  0.14918635388E+03  0.47000000000E+01 0. -1.
         -5    1    4    4    0  502  0.28650907036E+02 -0.32260894670E+02 -0.16305509250E+03  0.16873260796E+03  0.47000000000E+01 0. -1.
          5    1    5    5  503    0  0.76645643370E+02  0.23336434687E+02 -0.38560548041E+03  0.39386903960E+03  0.47000000000E+01 0. -1.
         -5    1    5    5    0  503 -0.29729776992E+02 -0.20319168565E+02 -0.52652723993E+02  0.63961923009E+02  0.47000000000E+01 0. -1.
<mgrwt>
<rscale>  0 0.27203255E+03</rscale>
<asrwt>0</asrwt>
<pdfrwt beam="1">  1        4 0.37893039E-02 0.27203255E+03</pdfrwt>
<pdfrwt beam="2">  1       -4 0.11555683E+00 0.27203255E+03</pdfrwt>
<totfact> 0.42226732E+02</totfact>
</mgrwt>
</event>
<event>
 9    1  0.7944303E-001  0.2729359E+03  0.7818608E-02  0.1099611E+00
          1   -1    0    0  501    0  0.00000000000E+00  0.00000000000E+00  0.10104618473E+04  0.10104618473E+04  0.00000000000E+00 0. -1.
         -1   -1    0    0    0  501 -0.00000000000E+00 -0.00000000000E+00 -0.18430685090E+02  0.18430685090E+02  0.00000000000E+00 0. -1.
         35    2    1    2    0    0  0.35527136788E-14  0.00000000000E+00  0.99203116217E+03  0.10288925323E+04  0.27293591997E+03 0.  0.
         25    2    3    3    0    0 -0.66995697104E+00 -0.19824713561E+02  0.68518656468E+03  0.69715200149E+03  0.12707012494E+03 0.  0.
         25    2    3    3    0    0  0.66995697104E+00  0.19824713561E+02  0.30684459749E+03  0.33174053086E+03  0.12451788906E+03 0.  0.
          5    1    4    4  502    0 -0.28477383986E+02 -0.65631721570E+02  0.31357701377E+03  0.32166926779E+03  0.47000000000E+01 0.  1.
         -5    1    4    4    0  502  0.27807427015E+02  0.45807008009E+02  0.37160955090E+03  0.37548273370E+03  0.47000000000E+01 0.  1.
          5    1    5    5  503    0 -0.24564813220E+02  0.54818417738E+02  0.26387963866E+03  0.27067146630E+03  0.47000000000E+01 0. -1.
         -5    1    5    5    0  503  0.25234770191E+02 -0.34993704178E+02  0.42964958833E+02  0.61069064560E+02  0.47000000000E+01 0. -1.
<mgrwt>
<rscale>  0 0.27293592E+03</rscale>
<asrwt>0</asrwt>
<pdfrwt beam="1">  1        1 0.15545563E+00 0.27293592E+03</pdfrwt>
<pdfrwt beam="2">  1       -1 0.28354908E-02 0.27293592E+03</pdfrwt>
<totfact> 0.64336087E+03</totfact>
</mgrwt>
</event>
<event>
 9    1  0.7944303E-001  0.3232413E+03  0.7818608E-02  0.1074167E+00
         -2   -1    0    0    0  501 -0.00000000000E+00  0.00000000000E+00  0.25305204530E+02  0.25305204530E+02  0.00000000000E+00 0. -1.
          2   -1    0    0  501    0  0.00000000000E+00 -0.00000000000E+00 -0.10322476766E+04  0.10322476766E+04  0.00000000000E+00 0. -1.
         35    2    1    2    0    0  0.14210854715E-13  0.00000000000E+00 -0.10069424721E+04  0.10575528812E+04  0.32324132522E+03 0.  0.
         25    2    3    3    0    0  0.69301964139E+02  0.23710501130E+02 -0.72785857056E+03  0.74224329889E+03  0.12562669268E+03 0.  0.
         25    2    3    3    0    0 -0.69301964139E+02 -0.23710501130E+02 -0.27908390153E+03  0.31530958226E+03  0.12715092793E+03 0.  0.
          5    1    4    4  502    0 -0.32889423053E+02 -0.72871912798E+01 -0.10780569715E+03  0.11304413140E+03  0.47000000000E+01 0. -1.
         -5    1    4    4    0  502  0.10219138719E+03  0.30997692410E+02 -0.62005287341E+03  0.62919916749E+03  0.47000000000E+01 0. -1.
          5    1    5    5  503    0 -0.31537850074E+02 -0.30859892175E+02 -0.27243073458E+03  0.27602094861E+03  0.47000000000E+01 0. -1.
         -5    1    5    5    0  503 -0.37764114065E+02  0.71493910446E+01 -0.66531669591E+01  0.39288633649E+02  0.47000000000E+01 0. -1.
<mgrwt>
<rscale>  0 0.32324133E+03</rscale>
<asrwt>0</asrwt>
<pdfrwt beam="1">  1        2 0.15880731E+00 0.32324133E+03</pdfrwt>
<pdfrwt beam="2">  1       -2 0.38931091E-02 0.32324133E+03</pdfrwt>
<totfact> 0.72038309E+03</totfact>
</mgrwt>
</event>
<event>
 9    1  0.7944303E-001  0.2699037E+03  0.7818608E-02  0.1101335E+00
          4   -1    0    0  501    0  0.00000000000E+00  0.00000000000E+00  0.27789499696E+02  0.27789499696E+02  0.00000000000E+00 0.  1.
         -4   -1    0    0    0  501 -0.00000000000E+00 -0.00000000000E+00 -0.65535565367E+03  0.65535565367E+03  0.00000000000E+00 0.  1.
         35    2    1    2    0    0  0.00000000000E+00  0.00000000000E+00 -0.62756615397E+03  0.68314515336E+03  0.26990372905E+03 0.  0.
         25    2    3    3    0    0  0.35629232860E+02  0.33719324377E+02 -0.35366032151E+03  0.37828163042E+03  0.12495972884E+03 0.  0.
         25    2    3    3    0    0 -0.35629232860E+02 -0.33719324377E+02 -0.27390583246E+03  0.30486352294E+03  0.12454287413E+03 0.  0.
          5    1    4    4  502    0 -0.44693199149E+02  0.18543479188E+02 -0.17724742122E+03  0.18379358258E+03  0.47000000000E+01 0.  1.
         -5    1    4    4    0  502  0.80322432010E+02  0.15175845188E+02 -0.17641290029E+03  0.19448804784E+03  0.47000000000E+01 0.  1.
          5    1    5    5  503    0 -0.88386833679E+00  0.46162719651E+02 -0.87156111545E+02  0.98742370279E+02  0.47000000000E+01 0. -1.
         -5    1    5    5    0  503 -0.34745364523E+02 -0.79882044027E+02 -0.18674972092E+03  0.20612115267E+03  0.47000000000E+01 0. -1.
<mgrwt>
<rscale>  0 0.26990373E+03</rscale>
<asrwt>0</asrwt>
<pdfrwt beam="1">  1        4 0.42753081E-02 0.26990373E+03</pdfrwt>
<pdfrwt beam="2">  1       -4 0.10082394E+00 0.26990373E+03</pdfrwt>
<totfact> 0.48101421E+02</totfact>
</mgrwt>
</event>
<event>
 9    1  0.7944303E-001  0.2717314E+03  0.7818608E-02  0.1100293E+00
          2   -1    0    0  501    0  0.00000000000E+00  0.00000000000E+00  0.57895111544E+03  0.57895111544E+03  0.00000000000E+00 0. -1.
         -2   -1    0    0    0  501 -0.00000000000E+00 -0.00000000000E+00 -0.31884355952E+02  0.31884355952E+02  0.00000000000E+00 0. -1.
         35    2    1    2    0    0  0.35527136788E-14  0.71054273576E-14  0.54706675949E+03  0.61083547140E+03  0.27173136325E+03 0.  0.
         25    2    3    3    0    0  0.20512438940E+02  0.49232799097E+02  0.25935601120E+03  0.29298582498E+03  0.12542138749E+03 0.  0.
         25    2    3    3    0    0 -0.20512438940E+02 -0.49232799097E+02  0.28771074830E+03  0.31784964641E+03  0.12412209466E+03 0.  0.
          5    1    4    4  502    0 -0.31665189651E+02 -0.26292118943E+02  0.54522999487E+02  0.68474865660E+02  0.47000000000E+01 0. -1.
         -5    1    4    4    0  502  0.52177628590E+02  0.75524918040E+02  0.20483301171E+03  0.22451095932E+03  0.47000000000E+01 0. -1.
          5    1    5    5  503    0  0.38212141966E+01  0.37621489295E+02  0.13648308538E+03  0.14170286070E+03  0.47000000000E+01 0.  1.
         -5    1    5    5    0  503 -0.24333653136E+02 -0.86854288393E+02  0.15122766291E+03  0.17614678571E+03  0.47000000000E+01 0.  1.
<mgrwt>
<rscale>  0 0.27173136E+03</rscale>
<asrwt>0</asrwt>
<pdfrwt beam="1">  1        2 0.89069394E-01 0.27173136E+03</pdfrwt>
<pdfrwt beam="2">  1       -2 0.49052860E-02 0.27173136E+03</pdfrwt>
<totfact> 0.10546780E+04</totfact>
</mgrwt>
</event>
<event>
 9    1  0.7944303E-001  0.2737510E+03  0.7818608E-02  0.1099152E+00
         -2   -1    0    0    0  501 -0.00000000000E+00  0.00000000000E+00  0.13991983523E+02  0.13991983523E+02  0.00000000000E+00 0.  1.
          2   -1    0    0  501    0  0.00000000000E+00 -0.00000000000E+00 -0.13389744848E+04  0.13389744848E+04  0.00000000000E+00 0.  1.
         35    2    1    2    0    0  0.71054273576E-14 -0.71054273576E-14 -0.13249825013E+04  0.13529664683E+04  0.27375104697E+03 0.  0.
         25    2    3    3    0    0 -0.19971756565E+02 -0.49019964517E+02 -0.60322716952E+03  0.61861214546E+03  0.12647584938E+03 0.  0.
         25    2    3    3    0    0  0.19971756565E+02  0.49019964517E+02 -0.72175533175E+03  0.73435432286E+03  0.12467431416E+03 0.  0.
          5    1    4    4  502    0 -0.48461270994E+02 -0.53898359490E+02 -0.56878424395E+03  0.57340311658E+03  0.47000000000E+01 0.  1.
         -5    1    4    4    0  502  0.28489514428E+02  0.48783949725E+01 -0.34442925574E+02  0.45209028876E+02  0.47000000000E+01 0.  1.
          5    1    5    5  503    0  0.44892575078E+02 -0.16678536589E+02 -0.48406255524E+03  0.48644852170E+03  0.47000000000E+01 0.  1.
         -5    1    5    5    0  503 -0.24920818513E+02  0.65698501106E+02 -0.23769277650E+03  0.24790580115E+03  0.47000000000E+01 0.  1.
<mgrwt>
<rscale>  0 0.27375105E+03</rscale>
<asrwt>0</asrwt>
<pdfrwt beam="1">  1        2 0.20599612E+00 0.27375105E+03</pdfrwt>
<pdfrwt beam="2">  1       -2 0.21526124E-02 0.27375105E+03</pdfrwt>
<totfact> 0.11569732E+04</totfact>
</mgrwt>
</event>
<event>
 9    1  0.7944303E-001  0.2754310E+03  0.7818608E-02  0.1098211E+00
         -4   -1    0    0    0  501 -0.00000000000E+00  0.00000000000E+00  0.30163698322E+02  0.30163698322E+02  0.00000000000E+00 0.  1.
          4   -1    0    0  501    0  0.00000000000E+00 -0.00000000000E+00 -0.62875424049E+03  0.62875424049E+03  0.00000000000E+00 0.  1.
         35    2    1    2    0    0  0.71054273576E-14 -0.71054273576E-14 -0.59859054217E+03  0.65891793881E+03  0.27543095853E+03 0.  0.
         25    2    3    3    0    0  0.43493295971E+02  0.37628719507E+02 -0.29235962526E+03  0.32323589791E+03  0.12529847522E+03 0.  0.
         25    2    3    3    0    0 -0.43493295971E+02 -0.37628719507E+02 -0.30623091691E+03  0.33568204090E+03  0.12488983460E+03 0.  0.
          5    1    4    4  502    0  0.27035432292E+02  0.74307661531E+02 -0.25881811017E+03  0.27066851925E+03  0.47000000000E+01 0.  1.
         -5    1    4    4    0  502  0.16457863680E+02 -0.36678942023E+02 -0.33541515088E+02  0.52567378661E+02  0.47000000000E+01 0.  1.
          5    1    5    5  503    0  0.22425368488E+02 -0.53964740944E+02 -0.78389672042E+02  0.97888309311E+02  0.47000000000E+01 0.  1.
         -5    1    5    5    0  503 -0.65918664460E+02  0.16336021436E+02 -0.22784124487E+03  0.23779373159E+03  0.47000000000E+01 0.  1.
<mgrwt>
<rscale>  0 0.27543096E+03</rscale>
<asrwt>0</asrwt>
<pdfrwt beam="1">  1        4 0.96731420E-01 0.27543096E+03</pdfrwt>
<pdfrwt beam="2">  1       -4 0.46405691E-02 0.27543096E+03</pdfrwt>
<totfact> 0.46551859E+02</totfact>
</mgrwt>
</event>
<event>
 9    1  0.7944303E-001  0.2752510E+03  0.7818608E-02  0.1098311E+00
         -3   -1    0    0    0  501 -0.00000000000E+00  0.00000000000E+00  0.63542640128E+02  0.63542640128E+02  0.00000000000E+00 0.  1.
          3   -1    0    0  501    0  0.00000000000E+00 -0.00000000000E+00 -0.29807972000E+03  0.29807972000E+03  0.00000000000E+00 0.  1.
         35    2    1    2    0    0  0.00000000000E+00  0.00000000000E+00 -0.23453707988E+03  0.36162236013E+03  0.27525095733E+03 0.  0.
         25    2    3    3    0    0 -0.45373173554E+01 -0.40527398465E+01 -0.44768802219E+02  0.13487954156E+03  0.12708750186E+03 0.  0.
         25    2    3    3    0    0  0.45373173554E+01  0.40527398465E+01 -0.18976827766E+03  0.22674281857E+03  0.12394875804E+03 0.  0.
          5    1    4    4  502    0 -0.64944171566E+02 -0.93798674049E+01 -0.29917745141E+02  0.72269556573E+02  0.47000000000E+01 0. -1.
         -5    1    4    4    0  502  0.60406854211E+02  0.53271275583E+01 -0.14851057078E+02  0.62609984987E+02  0.47000000000E+01 0. -1.
          5    1    5    5  503    0  0.59687128339E+02 -0.50670619040E+01 -0.57917843713E+02  0.83455347498E+02  0.47000000000E+01 0. -1.
         -5    1    5    5    0  503 -0.55149810984E+02  0.91198017506E+01 -0.13185043395E+03  0.14328747108E+03  0.47000000000E+01 0. -1.
<mgrwt>
<rscale>  0 0.27525096E+03</rscale>
<asrwt>0</asrwt>
<pdfrwt beam="1">  1        3 0.45858418E-01 0.27525096E+03</pdfrwt>
<pdfrwt beam="2">  1       -3 0.97757909E-02 0.27525096E+03</pdfrwt>
<totfact> 0.92549289E+02</totfact>
</mgrwt>
</event>
<event>
 9    1  0.7944303E-001  0.2807458E+03  0.7818608E-02  0.1095282E+00
          2   -1    0    0  501    0  0.00000000000E+00  0.00000000000E+00  0.32111022192E+03  0.32111022192E+03  0.00000000000E+00 0. -1.
         -2   -1    0    0    0  501 -0.00000000000E+00 -0.00000000000E+00 -0.61363821216E+02  0.61363821216E+02  0.00000000000E+00 0. -1.
         35    2    1    2    0    0 -0.71054273576E-14  0.00000000000E+00  0.25974640071E+03  0.38247404314E+03  0.28074579426E+03 0.  0.
         25    2    3    3    0    0  0.48563102719E+02 -0.33149904836E+02  0.10533547270E+03  0.17482915958E+03  0.12654004147E+03 0.  0.
         25    2    3    3    0    0 -0.48563102719E+02  0.33149904836E+02  0.15441092800E+03  0.20764488355E+03  0.12576315773E+03 0.  0.
          5    1    4    4  502    0  0.44607476127E+02 -0.14358913286E+02 -0.17627245608E+02  0.50287325489E+02  0.47000000000E+01 0.  1.
         -5    1    4    4    0  502  0.39556265925E+01 -0.18790991551E+02  0.12296271831E+03  0.12454183409E+03  0.47000000000E+01 0.  1.
          5    1    5    5  503    0 -0.49656860127E+02 -0.28063454499E+02  0.12912328485E+03  0.14123835856E+03  0.47000000000E+01 0. -1.
         -5    1    5    5    0  503  0.10937574075E+01  0.61213359335E+02  0.25287643148E+02  0.66406524998E+02  0.47000000000E+01 0. -1.
<mgrwt>
<rscale>  0 0.28074579E+03</rscale>
<asrwt>0</asrwt>
<pdfrwt beam="1">  1        2 0.49401571E-01 0.28074579E+03</pdfrwt>
<pdfrwt beam="2">  1       -2 0.94405881E-02 0.28074579E+03</pdfrwt>
<totfact> 0.73412020E+03</totfact>
</mgrwt>
</event>
<event>
 9    1  0.7944303E-001  0.2800391E+03  0.7818608E-02  0.1095668E+00
         -1   -1    0    0    0  501 -0.00000000000E+00  0.00000000000E+00  0.59208016392E+02  0.59208016392E+02  0.00000000000E+00 0.  1.
          1   -1    0    0  501    0  0.00000000000E+00 -0.00000000000E+00 -0.33112862047E+03  0.33112862047E+03  0.00000000000E+00 0.  1.
         35    2    1    2    0    0  0.71054273576E-14 -0.71054273576E-14 -0.27192060408E+03  0.39033663686E+03  0.28003906005E+03 0.  0.
         25    2    3    3    0    0 -0.58342704907E+01 -0.50407343402E+02 -0.79134339706E+02  0.15509292162E+03  0.12335571180E+03 0.  0.
         25    2    3    3    0    0  0.58342704907E+01  0.50407343402E+02 -0.19278626437E+03  0.23524371524E+03  0.12489244513E+03 0.  0.
          5    1    4    4  502    0  0.29976754382E+02 -0.11008194241E+02 -0.94187171225E+02  0.99564548747E+02  0.47000000000E+01 0. -1.
         -5    1    4    4    0  502 -0.35811024873E+02 -0.39399149161E+02  0.15052831519E+02  0.55528372872E+02  0.47000000000E+01 0. -1.
          5    1    5    5  503    0  0.53484081073E+02 -0.12203833075E+02 -0.65966671789E+02  0.85925387732E+02  0.47000000000E+01 0.  1.
         -5    1    5    5    0  503 -0.47649810582E+02  0.62611176477E+02 -0.12681959258E+03  0.14931832751E+03  0.47000000000E+01 0.  1.
<mgrwt>
<rscale>  0 0.28003906E+03</rscale>
<asrwt>0</asrwt>
<pdfrwt beam="1">  1        1 0.50942864E-01 0.28003906E+03</pdfrwt>
<pdfrwt beam="2">  1       -1 0.91089256E-02 0.28003906E+03</pdfrwt>
<totfact> 0.54147444E+03</totfact>
</mgrwt>
</event>
<event>
 9    1  0.7944303E-001  0.2726967E+03  0.7818608E-02  0.1099746E+00
         -4   -1    0    0    0  501 -0.00000000000E+00  0.00000000000E+00  0.67694209662E+02  0.67694209662E+02  0.00000000000E+00 0.  1.
          4   -1    0    0  501    0  0.00000000000E+00 -0.00000000000E+00 -0.27463013264E+03  0.27463013264E+03  0.00000000000E+00 0.  1.
         35    2    1    2    0    0 -0.14210854715E-13  0.35527136788E-14 -0.20693592298E+03  0.34232434231E+03  0.27269667969E+03 0.  0.
         25    2    3    3    0    0 -0.36591952264E+02  0.17001405385E+02 -0.14931596476E+03  0.19883475060E+03  0.12494791698E+03 0.  0.
         25    2    3    3    0    0  0.36591952264E+02 -0.17001405385E+02 -0.57619958223E+02  0.14348959171E+03  0.12506472160E+03 0.  0.
          5    1    4    4  502    0 -0.65278392228E+02  0.17043214141E+02 -0.26518230354E+02  0.72643280358E+02  0.47000000000E+01 0. -1.
         -5    1    4    4    0  502  0.28686439964E+02 -0.41808756208E-01 -0.12279773440E+03  0.12619147024E+03  0.47000000000E+01 0. -1.
          5    1    5    5  503    0  0.23501495036E+02  0.53062698561E+01 -0.94815709036E+02  0.97941745179E+02  0.47000000000E+01 0.  1.
         -5    1    5    5    0  503  0.13090457228E+02 -0.22307675241E+02  0.37195750813E+02  0.45547846531E+02  0.47000000000E+01 0.  1.
<mgrwt>
<rscale>  0 0.27269668E+03</rscale>
<asrwt>0</asrwt>
<pdfrwt beam="1">  1        4 0.42250789E-01 0.27269668E+03</pdfrwt>
<pdfrwt beam="2">  1       -4 0.10414494E-01 0.27269668E+03</pdfrwt>
<totfact> 0.72345480E+02</totfact>
</mgrwt>
</event>
<event>
 9    1  0.7944303E-001  0.2780530E+03  0.7818608E-02  0.1096757E+00
          1   -1    0    0  501    0  0.00000000000E+00  0.00000000000E+00  0.90012918434E+03  0.90012918434E+03  0.00000000000E+00 0. -1.
         -1   -1    0    0    0  501 -0.00000000000E+00 -0.00000000000E+00 -0.21472887189E+02  0.21472887189E+02  0.00000000000E+00 0. -1.
         35    2    1    2    0    0  0.00000000000E+00  0.00000000000E+00  0.87865629715E+03  0.92160207153E+03  0.27805303401E+03 0.  0.
         25    2    3    3    0    0  0.58675280990E+02  0.21171482197E+02  0.46500391781E+03  0.48500526125E+03  0.12292452806E+03 0.  0.
         25    2    3    3    0    0 -0.58675280990E+02 -0.21171482197E+02  0.41365237934E+03  0.43659681028E+03  0.12496985059E+03 0.  0.
          5    1    4    4  502    0  0.10883385076E+02 -0.42854077027E+02  0.77736739839E+02  0.89554512501E+02  0.47000000000E+01 0. -1.
         -5    1    4    4    0  502  0.47791895915E+02  0.64025559224E+02  0.38726717797E+03  0.39545074875E+03  0.47000000000E+01 0. -1.
          5    1    5    5  503    0 -0.30811473515E+02  0.52339911931E+02  0.18001904075E+03  0.19004672665E+03  0.47000000000E+01 0. -1.
         -5    1    5    5    0  503 -0.27863807476E+02 -0.73511394128E+02  0.23363333859E+03  0.24655008362E+03  0.47000000000E+01 0. -1.
<mgrwt>
<rscale>  0 0.27805303E+03</rscale>
<asrwt>0</asrwt>
<pdfrwt beam="1">  1        1 0.13848138E+00 0.27805303E+03</pdfrwt>
<pdfrwt beam="2">  1       -1 0.33035218E-02 0.27805303E+03</pdfrwt>
<totfact> 0.62375897E+03</totfact>
</mgrwt>
</event>
<event>
 9    1  0.7944303E-001  0.2769840E+03  0.7818608E-02  0.1097348E+00
         -1   -1    0    0    0  501 -0.00000000000E+00  0.00000000000E+00  0.28459654617E+03  0.28459654617E+03  0.00000000000E+00 0.  1.
          1   -1    0    0  501    0  0.00000000000E+00 -0.00000000000E+00 -0.67393749375E+02  0.67393749375E+02  0.00000000000E+00 0.  1.
         35    2    1    2    0    0  0.71054273576E-14  0.00000000000E+00  0.21720279679E+03  0.35199029554E+03  0.27698395842E+03 0.  0.
         25    2    3    3    0    0 -0.41449848570E+02  0.32920170934E+02  0.69541651591E+02  0.15211309831E+03  0.12450110751E+03 0.  0.
         25    2    3    3    0    0  0.41449848570E+02 -0.32920170934E+02  0.14766114520E+03  0.19987719723E+03  0.12387595638E+03 0.  0.
          5    1    4    4  502    0  0.93631361632E+01 -0.37752273135E+02 -0.21658363881E+01  0.39238798312E+02  0.47000000000E+01 0.  1.
         -5    1    4    4    0  502 -0.50812984733E+02  0.70672444069E+02  0.71707487979E+02  0.11287430000E+03  0.47000000000E+01 0.  1.
          5    1    5    5  503    0 -0.46147730941E+01  0.12955283450E+02 -0.17247350597E+02  0.22554303417E+02  0.47000000000E+01 0. -1.
         -5    1    5    5    0  503  0.46064621664E+02 -0.45875454384E+02  0.16490849580E+03  0.17732289381E+03  0.47000000000E+01 0. -1.
<mgrwt>
<rscale>  0 0.27698396E+03</rscale>
<asrwt>0</asrwt>
<pdfrwt beam="1">  1        1 0.10368269E-01 0.27698396E+03</pdfrwt>
<pdfrwt beam="2">  1       -1 0.43784083E-01 0.27698396E+03</pdfrwt>
<totfact> 0.31919293E+03</totfact>
</mgrwt>
</event>
<event>
 9    1  0.7944303E-001  0.2721742E+03  0.7818608E-02  0.1100042E+00
          2   -1    0    0  501    0  0.00000000000E+00  0.00000000000E+00  0.56000827747E+02  0.56000827747E+02  0.00000000000E+00 0. -1.
         -2   -1    0    0    0  501 -0.00000000000E+00 -0.00000000000E+00 -0.33070390851E+03  0.33070390851E+03  0.00000000000E+00 0. -1.
         35    2    1    2    0    0 -0.71054273576E-14  0.00000000000E+00 -0.27470308077E+03  0.38670473626E+03  0.27217415466E+03 0.  0.
         25    2    3    3    0    0 -0.30431339977E+02  0.17048570599E+02 -0.19825860232E+03  0.23794148930E+03  0.12685802586E+03 0.  0.
         25    2    3    3    0    0  0.30431339977E+02 -0.17048570599E+02 -0.76444478444E+02  0.14876324696E+03  0.12276003075E+03 0.  0.
          5    1    4    4  502    0 -0.22222763481E+02 -0.39238083823E+02 -0.16662998000E+03  0.17268792278E+03  0.47000000000E+01 0. -1.
         -5    1    4    4    0  502 -0.82085764957E+01  0.56286654422E+02 -0.31628622327E+02  0.65253566527E+02  0.47000000000E+01 0. -1.
          5    1    5    5  503    0  0.30651343017E+02  0.42308680299E+01 -0.10685837291E+03  0.11134723586E+03  0.47000000000E+01 0.  1.
         -5    1    5    5    0  503 -0.22000304052E+00 -0.21279438629E+02  0.30413894467E+02  0.37416011096E+02  0.47000000000E+01 0.  1.
<mgrwt>
<rscale>  0 0.27217415E+03</rscale>
<asrwt>0</asrwt>
<pdfrwt beam="1">  1        2 0.86155120E-02 0.27217415E+03</pdfrwt>
<pdfrwt beam="2">  1       -2 0.50877524E-01 0.27217415E+03</pdfrwt>
<totfact> 0.28573703E+03</totfact>
</mgrwt>
</event>
<event>
 9    1  0.7944303E-001  0.3221082E+03  0.7818608E-02  0.1074683E+00
          1   -1    0    0  501    0  0.00000000000E+00  0.00000000000E+00  0.13970746926E+03  0.13970746926E+03  0.00000000000E+00 0.  1.
         -1   -1    0    0    0  501 -0.00000000000E+00 -0.00000000000E+00 -0.18566233695E+03  0.18566233695E+03  0.00000000000E+00 0.  1.
         35    2    1    2    0    0 -0.14210854715E-13  0.71054273576E-14 -0.45954867697E+02  0.32536980621E+03  0.32210815098E+03 0.  0.
         25    2    3    3    0    0  0.59254812841E+02 -0.37339668071E+02 -0.97008101337E+02  0.17327190141E+03  0.12532835448E+03 0.  0.
         25    2    3    3    0    0 -0.59254812841E+02  0.37339668071E+02  0.51053233640E+02  0.15209790480E+03  0.12498782470E+03 0.  0.
          5    1    4    4  502    0  0.18230229541E+02 -0.75958462078E+02 -0.25910291442E+02  0.82434594880E+02  0.47000000000E+01 0. -1.
         -5    1    4    4    0  502  0.41024583300E+02  0.38618794008E+02 -0.71097809895E+02  0.90837306529E+02  0.47000000000E+01 0. -1.
          5    1    5    5  503    0  0.32798130932E+02 -0.15328589475E+02  0.70572108321E+01  0.37183023984E+02  0.47000000000E+01 0. -1.
         -5    1    5    5    0  503 -0.92052943772E+02  0.52668257545E+02  0.43996022808E+02  0.11491488082E+03  0.47000000000E+01 0. -1.
<mgrwt>
<rscale>  0 0.32210815E+03</rscale>
<asrwt>0</asrwt>
<pdfrwt beam="1">  1        1 0.21493457E-01 0.32210815E+03</pdfrwt>
<pdfrwt beam="2">  1       -1 0.28563436E-01 0.32210815E+03</pdfrwt>
<totfact> 0.25874862E+03</totfact>
</mgrwt>
</event>
<event>
 9    1  0.7944303E-001  0.2753169E+03  0.7818608E-02  0.1098275E+00
          2   -1    0    0  501    0  0.00000000000E+00  0.00000000000E+00  0.15927690182E+04  0.15927690182E+04  0.00000000000E+00 0. -1.
         -2   -1    0    0    0  501 -0.00000000000E+00 -0.00000000000E+00 -0.11897421577E+02  0.11897421577E+02  0.00000000000E+00 0. -1.
         35    2    1    2    0    0  0.14210854715E-13  0.35527136788E-14  0.15808715966E+04  0.16046664398E+04  0.27531686824E+03 0.  0.
         25    2    3    3    0    0  0.48451440774E+02 -0.35951490485E+01  0.10201625297E+04  0.10289659932E+04  0.12521565810E+03 0.  0.
         25    2    3    3    0    0 -0.48451440774E+02  0.35951490485E+01  0.56070906692E+03  0.57570044653E+03  0.12114404319E+03 0.  0.
          5    1    4    4  502    0 -0.19920840805E+02 -0.47192368326E+02  0.47664090729E+03  0.47940859820E+03  0.47000000000E+01 0. -1.
         -5    1    4    4    0  502  0.68372281578E+02  0.43597219278E+02  0.54352162242E+03  0.54955739505E+03  0.47000000000E+01 0. -1.
          5    1    5    5  503    0  0.39449481340E+02 -0.29654813824E+01  0.12708276660E+03  0.13318098672E+03  0.47000000000E+01 0. -1.
         -5    1    5    5    0  503 -0.87900922114E+02  0.65606304310E+01  0.43362630032E+03  0.44251945981E+03  0.47000000000E+01 0. -1.
<mgrwt>
<rscale>  0 0.27531687E+03</rscale>
<asrwt>0</asrwt>
<pdfrwt beam="1">  1        2 0.24504122E+00 0.27531687E+03</pdfrwt>
<pdfrwt beam="2">  1       -2 0.18303738E-02 0.27531687E+03</pdfrwt>
<totfact> 0.10723950E+04</totfact>
</mgrwt>
</event>
<event>
 9    1  0.7944303E-001  0.2748474E+03  0.7818608E-02  0.1098537E+00
          1   -1    0    0  501    0  0.00000000000E+00  0.00000000000E+00  0.13202739352E+02  0.13202739352E+02  0.00000000000E+00 0. -1.
         -1   -1    0    0    0  501 -0.00000000000E+00 -0.00000000000E+00 -0.14304055689E+04  0.14304055689E+04  0.00000000000E+00 0. -1.
         35    2    1    2    0    0  0.35527136788E-14  0.71054273576E-14 -0.14172028295E+04  0.14436083082E+04  0.27484738961E+03 0.  0.
         25    2    3    3    0    0 -0.35217695432E+01 -0.10112055677E+02 -0.10017776405E+04  0.10097464978E+04  0.12615424047E+03 0.  0.
         25    2    3    3    0    0  0.35217695432E+01  0.10112055677E+02 -0.41542518905E+03  0.43386181040E+03  0.12467287715E+03 0.  0.
          5    1    4    4  502    0  0.21312280297E+02 -0.60836636788E+02 -0.38676942986E+03  0.39213261984E+03  0.47000000000E+01 0.  1.
         -5    1    4    4    0  502 -0.24834049841E+02  0.50724581111E+02 -0.61500821062E+03  0.61761387800E+03  0.47000000000E+01 0.  1.
          5    1    5    5  503    0 -0.54228270709E+02  0.30108449097E+02 -0.17426511324E+03  0.18503416913E+03  0.47000000000E+01 0.  1.
         -5    1    5    5    0  503  0.57750040252E+02 -0.19996393420E+02 -0.24116007580E+03  0.24882764127E+03  0.47000000000E+01 0.  1.
<mgrwt>
<rscale>  0 0.27484739E+03</rscale>
<asrwt>0</asrwt>
<pdfrwt beam="1">  1        1 0.20311922E-02 0.27484739E+03</pdfrwt>
<pdfrwt beam="2">  1       -1 0.22006223E+00 0.27484739E+03</pdfrwt>
<totfact> 0.72908501E+02</totfact>
</mgrwt>
</event>
<event>
 9    1  0.7944303E-001  0.2792620E+03  0.7818608E-02  0.1096093E+00
          2   -1    0    0  501    0  0.00000000000E+00  0.00000000000E+00  0.29927807629E+02  0.29927807629E+02  0.00000000000E+00 0. -1.
         -2   -1    0    0    0  501 -0.00000000000E+00 -0.00000000000E+00 -0.65146164756E+03  0.65146164756E+03  0.00000000000E+00 0. -1.
         35    2    1    2    0    0 -0.71054273576E-14 -0.71054273576E-14 -0.62153383993E+03  0.68138945518E+03  0.27926201937E+03 0.  0.
         25    2    3    3    0    0  0.31474470432E+02 -0.54054436173E+02 -0.33130308807E+03  0.35935986010E+03  0.12435935240E+03 0.  0.
         25    2    3    3    0    0 -0.31474470432E+02  0.54054436173E+02 -0.29023075186E+03  0.32202959508E+03  0.12472628603E+03 0.  0.
          5    1    4    4  502    0  0.64819503422E+02 -0.74368159173E+02 -0.25632099238E+03  0.27469024784E+03  0.47000000000E+01 0. -1.
         -5    1    4    4    0  502 -0.33345032989E+02  0.20313723000E+02 -0.74982095689E+02  0.84669612265E+02  0.47000000000E+01 0. -1.
          5    1    5    5  503    0 -0.33801265890E+02  0.39477217428E+02 -0.29947620742E+03  0.30398859367E+03  0.47000000000E+01 0. -1.
         -5    1    5    5    0  503  0.23267954577E+01  0.14577218745E+02  0.92454555611E+01  0.18041001412E+02  0.47000000000E+01 0. -1.
<mgrwt>
<rscale>  0 0.27926202E+03</rscale>
<asrwt>0</asrwt>
<pdfrwt beam="1">  1        2 0.46042778E-02 0.27926202E+03</pdfrwt>
<pdfrwt beam="2">  1       -2 0.10022488E+00 0.27926202E+03</pdfrwt>
<totfact> 0.14967513E+03</totfact>
</mgrwt>
</event>
<event>
 9    1  0.7944303E-001  0.2763116E+03  0.7818608E-02  0.1097721E+00
         -2   -1    0    0    0  501 -0.00000000000E+00  0.00000000000E+00  0.43618486355E+02  0.43618486355E+02  0.00000000000E+00 0. -1.
          2   -1    0    0  501    0  0.00000000000E+00 -0.00000000000E+00 -0.43759032691E+03  0.43759032691E+03  0.00000000000E+00 0. -1.
         35    2    1    2    0    0  0.00000000000E+00  0.35527136788E-14 -0.39397184056E+03  0.48120881327E+03  0.27631161904E+03 0.  0.
         25    2    3    3    0    0 -0.30416750771E+02  0.13038588332E+01 -0.10629533769E+03  0.16647029798E+03  0.12444590198E+03 0.  0.
         25    2    3    3    0    0  0.30416750771E+02 -0.13038588332E+01 -0.28767650287E+03  0.31473851529E+03  0.12399872551E+03 0.  0.
          5    1    4    4  502    0 -0.53542531963E+02  0.32019750930E+02 -0.11103418999E+03  0.12744704204E+03  0.47000000000E+01 0. -1.
         -5    1    4    4    0  502  0.23125781192E+02 -0.30715892096E+02  0.47388523001E+01  0.39023255940E+02  0.47000000000E+01 0. -1.
          5    1    5    5  503    0 -0.10363769024E+02  0.53313200130E+02 -0.86190491468E+02  0.10198331156E+03  0.47000000000E+01 0. -1.
         -5    1    5    5    0  503  0.40780519795E+02 -0.54617058963E+02 -0.20148601140E+03  0.21275520373E+03  0.47000000000E+01 0. -1.
<mgrwt>
<rscale>  0 0.27631162E+03</rscale>
<asrwt>0</asrwt>
<pdfrwt beam="1">  1        2 0.67321588E-01 0.27631162E+03</pdfrwt>
<pdfrwt beam="2">  1       -2 0.67105364E-02 0.27631162E+03</pdfrwt>
<totfact> 0.89416035E+03</totfact>
</mgrwt>
</event>
<event>
 9    1  0.7944303E-001  0.2811318E+03  0.7818608E-02  0.1095072E+00
          4   -1    0    0  501    0  0.00000000000E+00  0.00000000000E+00  0.27699577772E+02  0.27699577772E+02  0.00000000000E+00 0. -1.
         -4   -1    0    0    0  501 -0.00000000000E+00 -0.00000000000E+00 -0.71332376989E+03  0.71332376989E+03  0.00000000000E+00 0. -1.
         35    2    1    2    0    0 -0.71054273576E-14  0.00000000000E+00 -0.68562419212E+03  0.74102334766E+03  0.28113176441E+03 0.  0.
         25    2    3    3    0    0 -0.49106649963E+02 -0.35832927672E+02 -0.40582858948E+03  0.42867270368E+03  0.12396766138E+03 0.  0.
         25    2    3    3    0    0  0.49106649963E+02  0.35832927672E+02 -0.27979560264E+03  0.31235064398E+03  0.12482741591E+03 0.  0.
          5    1    4    4  502    0 -0.17792683150E+02 -0.71415247241E+02 -0.13634606747E+03  0.15501308728E+03  0.47000000000E+01 0. -1.
         -5    1    4    4    0  502 -0.31313966813E+02  0.35582319569E+02 -0.26948252200E+03  0.27365961640E+03  0.47000000000E+01 0. -1.
          5    1    5    5  503    0 -0.15353412321E+02 -0.27125701640E+02 -0.19995809407E+02  0.37328988109E+02  0.47000000000E+01 0. -1.
         -5    1    5    5    0  503  0.64460062285E+02  0.62958629313E+02 -0.25979979323E+03  0.27502165587E+03  0.47000000000E+01 0. -1.
<mgrwt>
<rscale>  0 0.28113176E+03</rscale>
<asrwt>0</asrwt>
<pdfrwt beam="1">  1        4 0.42614736E-02 0.28113176E+03</pdfrwt>
<pdfrwt beam="2">  1       -4 0.10974211E+00 0.28113176E+03</pdfrwt>
<totfact> 0.39757234E+02</totfact>
</mgrwt>
</event>
<event>
 9    1  0.7944303E-001  0.2751945E+03  0.7818608E-02  0.1098343E+00
          1   -1    0    0  501    0  0.00000000000E+00  0.00000000000E+00  0.47541668903E+03  0.47541668903E+03  0.00000000000E+00 0.  1.
         -1   -1    0    0    0  501 -0.00000000000E+00 -0.00000000000E+00 -0.39824022143E+02  0.39824022143E+02  0.00000000000E+00 0.  1.
         35    2    1    2    0    0 -0.71054273576E-14  0.71054273576E-14  0.43559266688E+03  0.51524071117E+03  0.27519451122E+03 0.  0.
         25    2    3    3    0    0  0.36285324636E+02 -0.45859610681E+02  0.21292341392E+03  0.25330873094E+03  0.12413381611E+03 0.  0.
         25    2    3    3    0    0 -0.36285324636E+02  0.45859610681E+02  0.22266925297E+03  0.26193198023E+03  0.12492812883E+03 0.  0.
          5    1    4    4  502    0  0.79624663671E+02 -0.47093319878E+02  0.15833061899E+03  0.18343539122E+03  0.47000000000E+01 0. -1.
         -5    1    4    4    0  502 -0.43339339035E+02  0.12337091970E+01  0.54592794924E+02  0.69873339723E+02  0.47000000000E+01 0. -1.
          5    1    5    5  503    0 -0.58858092524E+02  0.41012149525E+02  0.22688004790E+03  0.23799772604E+03  0.47000000000E+01 0.  1.
         -5    1    5    5    0  503  0.22572767888E+02  0.48474611560E+01 -0.42107949293E+01  0.23934254191E+02  0.47000000000E+01 0.  1.
<mgrwt>
<rscale>  0 0.27519451E+03</rscale>
<asrwt>0</asrwt>
<pdfrwt beam="1">  1        1 0.73141025E-01 0.27519451E+03</pdfrwt>
<pdfrwt beam="2">  1       -1 0.61267730E-02 0.27519451E+03</pdfrwt>
<totfact> 0.62211326E+03</totfact>
</mgrwt>
</event>
<event>
 9    1  0.7944303E-001  0.2788730E+03  0.7818608E-02  0.1096306E+00
         -2   -1    0    0    0  501 -0.00000000000E+00  0.00000000000E+00  0.72519570860E+01  0.72519570860E+01  0.00000000000E+00 0. -1.
          2   -1    0    0  501    0  0.00000000000E+00 -0.00000000000E+00 -0.26810056232E+04  0.26810056232E+04  0.00000000000E+00 0. -1.
         35    2    1    2    0    0  0.00000000000E+00  0.71054273576E-14 -0.26737536661E+04  0.26882575803E+04  0.27887300140E+03 0.  0.
         25    2    3    3    0    0 -0.38321711232E+02 -0.47864823928E+02 -0.12803494063E+04  0.12879062535E+04  0.12509324763E+03 0.  0.
         25    2    3    3    0    0  0.38321711232E+02  0.47864823928E+02 -0.13934042598E+04  0.14003513268E+04  0.12509521300E+03 0.  0.
          5    1    4    4  502    0 -0.50407520798E+02 -0.46521101587E+02 -0.31272043034E+03  0.32018945735E+03  0.47000000000E+01 0. -1.
         -5    1    4    4    0  502  0.12085809566E+02 -0.13437223412E+01 -0.96762897599E+03  0.96771679616E+03  0.47000000000E+01 0. -1.
          5    1    5    5  503    0  0.73176599407E+02  0.14574072745E+02 -0.11342441801E+04  0.11367054008E+04  0.47000000000E+01 0.  1.
         -5    1    5    5    0  503 -0.34854888175E+02  0.33290751184E+02 -0.25916007973E+03  0.26364592595E+03  0.47000000000E+01 0.  1.
<mgrwt>
<rscale>  0 0.27887300E+03</rscale>
<asrwt>0</asrwt>
<pdfrwt beam="1">  1        2 0.41246316E+00 0.27887300E+03</pdfrwt>
<pdfrwt beam="2">  1       -2 0.11156837E-02 0.27887300E+03</pdfrwt>
<totfact> 0.57853501E+03</totfact>
</mgrwt>
</event>
<event>
 9    1  0.7944303E-001  0.2733625E+03  0.7818608E-02  0.1099370E+00
          2   -1    0    0  501    0  0.00000000000E+00  0.00000000000E+00  0.90729588849E+03  0.90729588849E+03  0.00000000000E+00 0.  1.
         -2   -1    0    0    0  501 -0.00000000000E+00 -0.00000000000E+00 -0.20590591307E+02  0.20590591307E+02  0.00000000000E+00 0.  1.
         35    2    1    2    0    0  0.00000000000E+00  0.00000000000E+00  0.88670529719E+03  0.92788647980E+03  0.27336246147E+03 0.  0.
         25    2    3    3    0    0  0.51237580890E+02  0.58441414990E+01  0.52299326029E+03  0.53999754865E+03  0.12416101866E+03 0.  0.
         25    2    3    3    0    0 -0.51237580890E+02 -0.58441414990E+01  0.36371203690E+03  0.38788893115E+03  0.12454691261E+03 0.  0.
          5    1    4    4  502    0  0.75681669757E+02 -0.29829305593E+02  0.42562067288E+03  0.43335037763E+03  0.47000000000E+01 0. -1.
         -5    1    4    4    0  502 -0.24444088867E+02  0.35673447092E+02  0.97372587409E+02  0.10664717102E+03  0.47000000000E+01 0. -1.
          5    1    5    5  503    0 -0.31909254696E+02 -0.50314133114E+02  0.79108765295E+02  0.99146352796E+02  0.47000000000E+01 0. -1.
         -5    1    5    5    0  503 -0.19328326194E+02  0.44469991615E+02  0.28460327161E+03  0.28874257836E+03  0.47000000000E+01 0. -1.
<mgrwt>
<rscale>  0 0.27336246E+03</rscale>
<asrwt>0</asrwt>
<pdfrwt beam="1">  1        2 0.13958395E+00 0.27336246E+03</pdfrwt>
<pdfrwt beam="2">  1       -2 0.31677840E-02 0.27336246E+03</pdfrwt>
<totfact> 0.11695090E+04</totfact>
</mgrwt>
</event>
<event>
 9    1  0.7944303E-001  0.2785404E+03  0.7818608E-02  0.1096489E+00
          1   -1    0    0  501    0  0.00000000000E+00  0.00000000000E+00  0.26344309015E+04  0.26344309015E+04  0.00000000000E+00 0.  1.
         -1   -1    0    0    0  501 -0.00000000000E+00 -0.00000000000E+00 -0.73625736622E+01  0.73625736622E+01  0.00000000000E+00 0.  1.
         35    2    1    2    0    0  0.00000000000E+00  0.00000000000E+00  0.26270683278E+04  0.26417934751E+04  0.27854042127E+03 0.  0.
         25    2    3    3    0    0 -0.11453306336E+02 -0.49185122758E+02  0.16620876936E+04  0.16675041788E+04  0.12443605083E+03 0.  0.
         25    2    3    3    0    0  0.11453306336E+02  0.49185122758E+02  0.96498063424E+03  0.97428929631E+03  0.12450563812E+03 0.  0.
          5    1    4    4  502    0 -0.65842378442E+02 -0.10949046383E+02  0.91953948033E+03  0.92197074048E+03  0.47000000000E+01 0. -1.
         -5    1    4    4    0  502  0.54389072106E+02 -0.38236076375E+02  0.74254821323E+03  0.74553343833E+03  0.47000000000E+01 0. -1.
          5    1    5    5  503    0  0.67938746420E+02  0.25374180783E+02  0.49588309981E+03  0.50118026796E+03  0.47000000000E+01 0. -1.
         -5    1    5    5    0  503 -0.56485440084E+02  0.23810941975E+02  0.46909753443E+03  0.47310902835E+03  0.47000000000E+01 0. -1.
<mgrwt>
<rscale>  0 0.27854042E+03</rscale>
<asrwt>0</asrwt>
<pdfrwt beam="1">  1        1 0.40529631E+00 0.27854042E+03</pdfrwt>
<pdfrwt beam="2">  1       -1 0.11327057E-02 0.27854042E+03</pdfrwt>
<totfact> 0.20236069E+03</totfact>
</mgrwt>
</event>
<event>
 9    1  0.7944303E-001  0.2817078E+03  0.7818608E-02  0.1094760E+00
          2   -1    0    0  501    0  0.00000000000E+00  0.00000000000E+00  0.72625712050E+03  0.72625712050E+03  0.00000000000E+00 0. -1.
         -2   -1    0    0    0  501 -0.00000000000E+00 -0.00000000000E+00 -0.27317897415E+02  0.27317897415E+02  0.00000000000E+00 0. -1.
         35    2    1    2    0    0  0.00000000000E+00  0.00000000000E+00  0.69893922308E+03  0.75357501791E+03  0.28170777422E+03 0.  0.
         25    2    3    3    0    0  0.55293451336E+02  0.26139210604E+02  0.22246205602E+03  0.25716841933E+03  0.11360284080E+03 0.  0.
         25    2    3    3    0    0 -0.55293451336E+02 -0.26139210604E+02  0.47647716706E+03  0.49640659859E+03  0.12509355019E+03 0.  0.
          5    1    4    4  502    0 -0.18944762038E+02  0.12575843031E+02  0.10967209256E+01  0.23245400263E+02  0.47000000000E+01 0.  1.
         -5    1    4    4    0  502  0.74238213373E+02  0.13563367573E+02  0.22136533510E+03  0.23392301906E+03  0.47000000000E+01 0.  1.
          5    1    5    5  503    0  0.76794500362E+01 -0.12610557813E+02 -0.78418616868E-01  0.15495040196E+02  0.47000000000E+01 0.  1.
         -5    1    5    5    0  503 -0.62972901372E+02 -0.13528652792E+02  0.47655558568E+03  0.48091155839E+03  0.47000000000E+01 0.  1.
<mgrwt>
<rscale>  0 0.28170777E+03</rscale>
<asrwt>0</asrwt>
<pdfrwt beam="1">  1        2 0.11173185E+00 0.28170777E+03</pdfrwt>
<pdfrwt beam="2">  1       -2 0.42027540E-02 0.28170777E+03</pdfrwt>
<totfact> 0.10194316E+04</totfact>
</mgrwt>
</event>
<event>
 9    1  0.7944303E-001  0.2769315E+03  0.7818608E-02  0.1097377E+00
         -1   -1    0    0    0  501 -0.00000000000E+00  0.00000000000E+00  0.33179698107E+02  0.33179698107E+02  0.00000000000E+00 0. -1.
          1   -1    0    0  501    0  0.00000000000E+00 -0.00000000000E+00 -0.57784605738E+03  0.57784605738E+03  0.00000000000E+00 0. -1.
         35    2    1    2    0    0  0.71054273576E-14  0.00000000000E+00 -0.54466635927E+03  0.61102575549E+03  0.27693145532E+03 0.  0.
         25    2    3    3    0    0  0.16507214726E+02  0.42002608266E+02 -0.18663570740E+03  0.22921782659E+03  0.12518473353E+03 0.  0.
         25    2    3    3    0    0 -0.16507214726E+02 -0.42002608266E+02 -0.35803065187E+03  0.38180792890E+03  0.12471824106E+03 0.  0.
          5    1    4    4  502    0 -0.20279674485E+02  0.78072407944E+02 -0.10357990118E+03  0.13136762161E+03  0.47000000000E+01 0.  1.
         -5    1    4    4    0  502  0.36786889211E+02 -0.36069799679E+02 -0.83055806228E+02  0.97850204981E+02  0.47000000000E+01 0.  1.
          5    1    5    5  503    0  0.34406767256E+02 -0.30862278474E+02 -0.45856065860E+02  0.65277673379E+02  0.47000000000E+01 0. -1.
         -5    1    5    5    0  503 -0.50913981982E+02 -0.11140329791E+02 -0.31217458601E+03  0.31653025552E+03  0.47000000000E+01 0. -1.
<mgrwt>
<rscale>  0 0.27693146E+03</rscale>
<asrwt>0</asrwt>
<pdfrwt beam="1">  1        1 0.88899388E-01 0.27693146E+03</pdfrwt>
<pdfrwt beam="2">  1       -1 0.51045693E-02 0.27693146E+03</pdfrwt>
<totfact> 0.63005409E+03</totfact>
</mgrwt>
</event>
<event>
 9    1  0.7944303E-001  0.2952603E+03  0.7818608E-02  0.1087634E+00
         -3   -1    0    0    0  501 -0.00000000000E+00  0.00000000000E+00  0.10827953879E+04  0.10827953879E+04  0.00000000000E+00 0.  1.
          3   -1    0    0  501    0  0.00000000000E+00 -0.00000000000E+00 -0.20128140080E+02  0.20128140080E+02  0.00000000000E+00 0.  1.
         35    2    1    2    0    0 -0.71054273576E-14 -0.14210854715E-13  0.10626672478E+04  0.11029235280E+04  0.29526027328E+03 0.  0.
         25    2    3    3    0    0 -0.36660989789E+02 -0.65327290312E+02  0.60912572070E+03  0.62635825358E+03  0.12521515553E+03 0.  0.
         25    2    3    3    0    0  0.36660989789E+02  0.65327290312E+02  0.45354152709E+03  0.47656527437E+03  0.12570943047E+03 0.  0.
          5    1    4    4  502    0 -0.49647396286E+02 -0.17387049671E+02  0.86442212976E+02  0.10129915912E+03  0.47000000000E+01 0. -1.
         -5    1    4    4    0  502  0.12986406496E+02 -0.47940240641E+02  0.52268350773E+03  0.52505909446E+03  0.47000000000E+01 0. -1.
          5    1    5    5  503    0  0.76650404527E+02  0.51107578830E+02  0.38429180753E+03  0.39520823937E+03  0.47000000000E+01 0.  1.
         -5    1    5    5    0  503 -0.39989414737E+02  0.14219711482E+02  0.69249719556E+02  0.81357035002E+02  0.47000000000E+01 0.  1.
<mgrwt>
<rscale>  0 0.29526027E+03</rscale>
<asrwt>0</asrwt>
<pdfrwt beam="1">  1        3 0.30966378E-02 0.29526027E+03</pdfrwt>
<pdfrwt beam="2">  1       -3 0.16658386E+00 0.29526027E+03</pdfrwt>
<totfact> 0.32266032E+02</totfact>
</mgrwt>
</event>
<event>
 9    1  0.7944303E-001  0.2748062E+03  0.7818608E-02  0.1098560E+00
         -1   -1    0    0    0  501 -0.00000000000E+00  0.00000000000E+00  0.36949149421E+02  0.36949149421E+02  0.00000000000E+00 0. -1.
          1   -1    0    0  501    0  0.00000000000E+00 -0.00000000000E+00 -0.51096196751E+03  0.51096196751E+03  0.00000000000E+00 0. -1.
         35    2    1    2    0    0 -0.71054273576E-14  0.00000000000E+00 -0.47401281809E+03  0.54791111693E+03  0.27480618687E+03 0.  0.
         25    2    3    3    0    0  0.34545499828E+02  0.41085184092E+02 -0.20382105712E+03  0.24479538893E+03  0.12450050284E+03 0.  0.
         25    2    3    3    0    0 -0.34545499828E+02 -0.41085184092E+02 -0.27019176097E+03  0.30311572800E+03  0.12646807088E+03 0.  0.
          5    1    4    4  502    0  0.47512503186E+01  0.83202060929E+02 -0.11767251459E+03  0.14427081483E+03  0.47000000000E+01 0.  1.
         -5    1    4    4    0  502  0.29794249510E+02 -0.42116876837E+02 -0.86148542525E+02  0.10052457410E+03  0.47000000000E+01 0.  1.
          5    1    5    5  503    0 -0.26024801623E+02 -0.85318898732E+02 -0.20621943039E+03  0.22473350496E+03  0.47000000000E+01 0.  1.
         -5    1    5    5    0  503 -0.85206982052E+01  0.44233714640E+02 -0.63972330585E+02  0.78382223044E+02  0.47000000000E+01 0.  1.
<mgrwt>
<rscale>  0 0.27480619E+03</rscale>
<asrwt>0</asrwt>
<pdfrwt beam="1">  1        1 0.78609532E-01 0.27480619E+03</pdfrwt>
<pdfrwt beam="2">  1       -1 0.56844846E-02 0.27480619E+03</pdfrwt>
<totfact> 0.63300608E+03</totfact>
</mgrwt>
</event>
<event>
 9    1  0.7944303E-001  0.2754331E+03  0.7818608E-02  0.1098210E+00
         -2   -1    0    0    0  501 -0.00000000000E+00  0.00000000000E+00  0.18633011410E+02  0.18633011410E+02  0.00000000000E+00 0.  1.
          2   -1    0    0  501    0  0.00000000000E+00 -0.00000000000E+00 -0.10178629682E+04  0.10178629682E+04  0.00000000000E+00 0.  1.
         35    2    1    2    0    0  0.00000000000E+00  0.00000000000E+00 -0.99922995677E+03  0.10364959796E+04  0.27543313018E+03 0.  0.
         25    2    3    3    0    0 -0.49839219147E+02  0.52527887701E+01 -0.38906644232E+03  0.41172915452E+03  0.12504663366E+03 0.  0.
         25    2    3    3    0    0  0.49839219147E+02 -0.52527887701E+01 -0.61016351446E+03  0.62476682507E+03  0.12458945293E+03 0.  0.
          5    1    4    4  502    0 -0.70031861019E+02  0.25344328286E+02 -0.12134281854E+03  0.14245338236E+03  0.47000000000E+01 0.  1.
         -5    1    4    4    0  502  0.20192641871E+02 -0.20091539516E+02 -0.26772362377E+03  0.26927577216E+03  0.47000000000E+01 0.  1.
          5    1    5    5  503    0  0.21316031537E+02  0.45179000176E+02 -0.10613989176E+03  0.11740222264E+03  0.47000000000E+01 0.  1.
         -5    1    5    5    0  503  0.28523187610E+02 -0.50431788946E+02 -0.50402362270E+03  0.50736460244E+03  0.47000000000E+01 0.  1.
<mgrwt>
<rscale>  0 0.27543313E+03</rscale>
<asrwt>0</asrwt>
<pdfrwt beam="1">  1        2 0.15659430E+00 0.27543313E+03</pdfrwt>
<pdfrwt beam="2">  1       -2 0.28666172E-02 0.27543313E+03</pdfrwt>
<totfact> 0.11578474E+04</totfact>
</mgrwt>
</event>
<event>
 9    1  0.7944303E-001  0.2731420E+03  0.7818608E-02  0.1099495E+00
          2   -1    0    0  501    0  0.00000000000E+00  0.00000000000E+00  0.23448519998E+03  0.23448519998E+03  0.00000000000E+00 0. -1.
         -2   -1    0    0    0  501 -0.00000000000E+00 -0.00000000000E+00 -0.79542925362E+02  0.79542925362E+02  0.00000000000E+00 0. -1.
         35    2    1    2    0    0  0.88817841970E-15 -0.71054273576E-14  0.15494227462E+03  0.31402812534E+03  0.27314200527E+03 0.  0.
         25    2    3    3    0    0  0.28479320188E+01 -0.23069286402E+02  0.20573995045E+02  0.12910999986E+03  0.12532278364E+03 0.  0.
         25    2    3    3    0    0 -0.28479320188E+01  0.23069286402E+02  0.13436827957E+03  0.18491812548E+03  0.12489826214E+03 0.  0.
          5    1    4    4  502    0  0.71669476204E+01 -0.69370119318E+02 -0.13602525877E+02  0.71208828825E+02  0.47000000000E+01 0. -1.
         -5    1    4    4    0  502 -0.43190156016E+01  0.46300832916E+02  0.34176520922E+02  0.57901171032E+02  0.47000000000E+01 0. -1.
          5    1    5    5  503    0  0.12495421894E+02 -0.39598049730E+02  0.10664251111E+03  0.11453757587E+03  0.47000000000E+01 0.  1.
         -5    1    5    5    0  503 -0.15343353913E+02  0.62667336132E+02  0.27725768464E+02  0.70380549614E+02  0.47000000000E+01 0.  1.
<mgrwt>
<rscale>  0 0.27314201E+03</rscale>
<asrwt>0</asrwt>
<pdfrwt beam="1">  1        2 0.36074646E-01 0.27314201E+03</pdfrwt>
<pdfrwt beam="2">  1       -2 0.12237373E-01 0.27314201E+03</pdfrwt>
<totfact> 0.67958902E+03</totfact>
</mgrwt>
</event>
<event>
 9    1  0.7944303E-001  0.2750225E+03  0.7818608E-02  0.1098439E+00
         -1   -1    0    0    0  501 -0.00000000000E+00  0.00000000000E+00  0.17250233665E+02  0.17250233665E+02  0.00000000000E+00 0. -1.
          1   -1    0    0  501    0  0.00000000000E+00 -0.00000000000E+00 -0.10961790866E+04  0.10961790866E+04  0.00000000000E+00 0. -1.
         35    2    1    2    0    0  0.00000000000E+00  0.35527136788E-14 -0.10789288529E+04  0.11134293202E+04  0.27502251094E+03 0.  0.
         25    2    3    3    0    0  0.43022293905E+02 -0.25334932709E+02 -0.41655559639E+03  0.43725629789E+03  0.12321415736E+03 0.  0.
         25    2    3    3    0    0 -0.43022293905E+02  0.25334932709E+02 -0.66237325651E+03  0.67617302233E+03  0.12640747054E+03 0.  0.
          5    1    4    4  502    0 -0.18462292013E+02  0.93935089323E+01 -0.30101902395E+03  0.30176752147E+03  0.47000000000E+01 0.  1.
         -5    1    4    4    0  502  0.61484585918E+02 -0.34728441642E+02 -0.11553657244E+03  0.13548877642E+03  0.47000000000E+01 0.  1.
          5    1    5    5  503    0  0.14335544012E+02  0.16296315191E+02 -0.54189209986E+03  0.54234695132E+03  0.47000000000E+01 0.  1.
         -5    1    5    5    0  503 -0.57357837916E+02  0.90386175177E+01 -0.12048115664E+03  0.13382607102E+03  0.47000000000E+01 0.  1.
<mgrwt>
<rscale>  0 0.27502251E+03</rscale>
<asrwt>0</asrwt>
<pdfrwt beam="1">  1        1 0.16864295E+00 0.27502251E+03</pdfrwt>
<pdfrwt beam="2">  1       -1 0.26538818E-02 0.27502251E+03</pdfrwt>
<totfact> 0.61377203E+03</totfact>
</mgrwt>
</event>
<event>
 9    1  0.7944303E-001  0.2765853E+03  0.7818608E-02  0.1097569E+00
         -2   -1    0    0    0  501 -0.00000000000E+00  0.00000000000E+00  0.59840874882E+02  0.59840874882E+02  0.00000000000E+00 0.  1.
          2   -1    0    0  501    0  0.00000000000E+00 -0.00000000000E+00 -0.31959512593E+03  0.31959512593E+03  0.00000000000E+00 0.  1.
         35    2    1    2    0    0 -0.14210854715E-13 -0.35527136788E-14 -0.25975425105E+03  0.37943600081E+03  0.27658526312E+03 0.  0.
         25    2    3    3    0    0 -0.57178592610E+02 -0.17386427921E+01 -0.11603417433E+03  0.18062232323E+03  0.12604792623E+03 0.  0.
         25    2    3    3    0    0  0.57178592610E+02  0.17386427921E+01 -0.14372007672E+03  0.19881367758E+03  0.12489597114E+03 0.  0.
          5    1    4    4  502    0 -0.46443744154E+02 -0.16425248462E+02 -0.14096805854E+03  0.14940178609E+03  0.47000000000E+01 0. -1.
         -5    1    4    4    0  502 -0.10734848457E+02  0.14686605670E+02  0.24933884214E+02  0.31220537143E+02  0.47000000000E+01 0. -1.
          5    1    5    5  503    0  0.68993492087E+02 -0.47412019562E+02 -0.10805414732E+03  0.13676911311E+03  0.47000000000E+01 0.  1.
         -5    1    5    5    0  503 -0.11814899476E+02  0.49150662354E+02 -0.35665929402E+02  0.62044564465E+02  0.47000000000E+01 0.  1.
<mgrwt>
<rscale>  0 0.27658526E+03</rscale>
<asrwt>0</asrwt>
<pdfrwt beam="1">  1        2 0.49168481E-01 0.27658526E+03</pdfrwt>
<pdfrwt beam="2">  1       -2 0.92062884E-02 0.27658526E+03</pdfrwt>
<totfact> 0.76734564E+03</totfact>
</mgrwt>
</event>
<event>
 9    1  0.7944303E-001  0.2767400E+03  0.7818608E-02  0.1097483E+00
          2   -1    0    0  501    0  0.00000000000E+00  0.00000000000E+00  0.18589520361E+04  0.18589520361E+04  0.00000000000E+00 0.  1.
         -2   -1    0    0    0  501 -0.00000000000E+00 -0.00000000000E+00 -0.10299492906E+02  0.10299492906E+02  0.00000000000E+00 0.  1.
         35    2    1    2    0    0 -0.14210854715E-13  0.00000000000E+00  0.18486525432E+04  0.18692515290E+04  0.27674004631E+03 0.  0.
         25    2    3    3    0    0  0.32738975088E+02 -0.31648258040E+02  0.69103991131E+03  0.70383673263E+03  0.12560467527E+03 0.  0.
         25    2    3    3    0    0 -0.32738975088E+02  0.31648258040E+02  0.11576126319E+04  0.11654147964E+04  0.12669328865E+03 0.  0.
          5    1    4    4  502    0 -0.31742526216E+02 -0.97716797862E+01  0.49722136821E+03  0.49835153527E+03  0.47000000000E+01 0. -1.
         -5    1    4    4    0  502  0.64481501304E+02 -0.21876578254E+02  0.19381854310E+03  0.20548519736E+03  0.47000000000E+01 0. -1.
          5    1    5    5  503    0 -0.56273809532E+02 -0.19016298612E+02  0.29360511284E+03  0.29959040962E+03  0.47000000000E+01 0. -1.
         -5    1    5    5    0  503  0.23534834443E+02  0.50664556652E+02  0.86400751905E+03  0.86582438676E+03  0.47000000000E+01 0. -1.
<mgrwt>
<rscale>  0 0.27674005E+03</rscale>
<asrwt>0</asrwt>
<pdfrwt beam="1">  1        2 0.28599235E+00 0.27674005E+03</pdfrwt>
<pdfrwt beam="2">  1       -2 0.15845388E-02 0.27674005E+03</pdfrwt>
<totfact> 0.95952932E+03</totfact>
</mgrwt>
</event>
<event>
 9    1  0.7944303E-001  0.2826690E+03  0.7818608E-02  0.1094240E+00
          2   -1    0    0  501    0  0.00000000000E+00  0.00000000000E+00  0.13080742916E+03  0.13080742916E+03  0.00000000000E+00 0.  1.
         -2   -1    0    0    0  501 -0.00000000000E+00 -0.00000000000E+00 -0.15270878362E+03  0.15270878362E+03  0.00000000000E+00 0.  1.
         35    2    1    2    0    0  0.71054273576E-14 -0.71054273576E-14 -0.21901354462E+02  0.28351621278E+03  0.28266901773E+03 0.  0.
         25    2    3    3    0    0 -0.62865316152E+02 -0.10960234351E+02 -0.31400773344E+01  0.14319805216E+03  0.12815477886E+03 0.  0.
         25    2    3    3    0    0  0.62865316152E+02  0.10960234351E+02 -0.18761277128E+02  0.14031816062E+03  0.12355171375E+03 0.  0.
          5    1    4    4  502    0 -0.57176244684E+02  0.49810810483E+02  0.18626953985E+02  0.78225911385E+02  0.47000000000E+01 0.  1.
         -5    1    4    4    0  502 -0.56890714681E+01 -0.60771044834E+02 -0.21767031320E+02  0.64972140775E+02  0.47000000000E+01 0.  1.
          5    1    5    5  503    0  0.63219435280E+02  0.51531260399E+02 -0.43511128535E+02  0.92560661740E+02  0.47000000000E+01 0. -1.
         -5    1    5    5    0  503 -0.35411912765E+00 -0.40571026048E+02  0.24749851407E+02  0.47757498884E+02  0.47000000000E+01 0. -1.
<mgrwt>
<rscale>  0 0.28266902E+03</rscale>
<asrwt>0</asrwt>
<pdfrwt beam="1">  1        2 0.20124220E-01 0.28266902E+03</pdfrwt>
<pdfrwt beam="2">  1       -2 0.23493659E-01 0.28266902E+03</pdfrwt>
<totfact> 0.43542570E+03</totfact>
</mgrwt>
</event>
<event>
 9    1  0.7944303E-001  0.2753059E+03  0.7818608E-02  0.1098281E+00
          2   -1    0    0  501    0  0.00000000000E+00  0.00000000000E+00  0.58377843989E+03  0.58377843989E+03  0.00000000000E+00 0.  1.
         -2   -1    0    0    0  501 -0.00000000000E+00 -0.00000000000E+00 -0.32458100903E+02  0.32458100903E+02  0.00000000000E+00 0.  1.
         35    2    1    2    0    0  0.00000000000E+00  0.00000000000E+00  0.55132033899E+03  0.61623654080E+03  0.27530593533E+03 0.  0.
         25    2    3    3    0    0 -0.48880945631E+02  0.54149506468E+01  0.32523739913E+03  0.35217799960E+03  0.12582253006E+03 0.  0.
         25    2    3    3    0    0  0.48880945631E+02 -0.54149506468E+01  0.22608293986E+03  0.26405854120E+03  0.12725859086E+03 0.  0.
          5    1    4    4  502    0 -0.52212154355E+01 -0.57660782095E+02  0.13184771234E+03  0.14407614699E+03  0.47000000000E+01 0.  1.
         -5    1    4    4    0  502 -0.43659730196E+02  0.63075732742E+02  0.19338968679E+03  0.20810185260E+03  0.47000000000E+01 0.  1.
          5    1    5    5  503    0  0.69923831117E+02 -0.47581624169E+02  0.17485619109E+03  0.19429392857E+03  0.47000000000E+01 0.  1.
         -5    1    5    5    0  503 -0.21042885485E+02  0.42166673522E+02  0.51226748769E+02  0.69764612626E+02  0.47000000000E+01 0.  1.
<mgrwt>
<rscale>  0 0.27530594E+03</rscale>
<asrwt>0</asrwt>
<pdfrwt beam="1">  1        2 0.89812060E-01 0.27530594E+03</pdfrwt>
<pdfrwt beam="2">  1       -2 0.49935544E-02 0.27530594E+03</pdfrwt>
<totfact> 0.10172288E+04</totfact>
</mgrwt>
</event>
<event>
 9    1  0.7944303E-001  0.2706147E+03  0.7818608E-02  0.1100928E+00
         -2   -1    0    0    0  501 -0.00000000000E+00  0.00000000000E+00  0.13339199638E+03  0.13339199638E+03  0.00000000000E+00 0. -1.
          2   -1    0    0  501    0  0.00000000000E+00 -0.00000000000E+00 -0.13725015963E+03  0.13725015963E+03  0.00000000000E+00 0. -1.
         35    2    1    2    0    0 -0.71054273576E-14 -0.17763568394E-14 -0.38581632556E+01  0.27064215601E+03  0.27061465442E+03 0.  0.
         25    2    3    3    0    0  0.40059551312E+02  0.32640866290E+01  0.31865322712E+02  0.13536269464E+03  0.12526866486E+03 0.  0.
         25    2    3    3    0    0 -0.40059551312E+02 -0.32640866290E+01 -0.35723485968E+02  0.13527946138E+03  0.12413276484E+03 0.  0.
          5    1    4    4  502    0 -0.22484263381E+02  0.93782023441E+01 -0.35374774688E+02  0.43208303174E+02  0.47000000000E+01 0. -1.
         -5    1    4    4    0  502  0.62543814693E+02 -0.61141157150E+01  0.67240097400E+02  0.92154391462E+02  0.47000000000E+01 0. -1.
          5    1    5    5  503    0 -0.42402597887E+02  0.15144695695E+02  0.38003638877E+02  0.59107602584E+02  0.47000000000E+01 0. -1.
         -5    1    5    5    0  503  0.23430465753E+01 -0.18408782324E+02 -0.73727124845E+02  0.76171858792E+02  0.47000000000E+01 0. -1.
<mgrwt>
<rscale>  0 0.27061465E+03</rscale>
<asrwt>0</asrwt>
<pdfrwt beam="1">  1        2 0.21115409E-01 0.27061465E+03</pdfrwt>
<pdfrwt beam="2">  1       -2 0.20521846E-01 0.27061465E+03</pdfrwt>
<totfact> 0.52023574E+03</totfact>
</mgrwt>
</event>
<event>
 9    1  0.7944303E-001  0.2752175E+03  0.7818608E-02  0.1098330E+00
          2   -1    0    0  501    0  0.00000000000E+00  0.00000000000E+00  0.83914429538E+01  0.83914429538E+01  0.00000000000E+00 0. -1.
         -2   -1    0    0    0  501 -0.00000000000E+00 -0.00000000000E+00 -0.22566051384E+04  0.22566051384E+04  0.00000000000E+00 0. -1.
         35    2    1    2    0    0 -0.88817841970E-15  0.00000000000E+00 -0.22482136955E+04  0.22649965814E+04  0.27521753788E+03 0.  0.
         25    2    3    3    0    0 -0.10386987054E+00 -0.34203933778E+02 -0.14983320276E+04  0.15039247265E+04  0.12498319073E+03 0.  0.
         25    2    3    3    0    0  0.10386987054E+00  0.34203933778E+02 -0.74988166786E+03  0.76107185494E+03  0.12545091753E+03 0.  0.
          5    1    4    4  502    0 -0.67932873584E+01  0.19601281569E+02 -0.12272163956E+04  0.12274007213E+04  0.47000000000E+01 0.  1.
         -5    1    4    4    0  502  0.66894174878E+01 -0.53805215347E+02 -0.27111563201E+03  0.27652400515E+03  0.47000000000E+01 0.  1.
          5    1    5    5  503    0 -0.56453792823E+02  0.13868520709E+02 -0.21383363404E+03  0.22164448930E+03  0.47000000000E+01 0.  1.
         -5    1    5    5    0  503  0.56557662694E+02  0.20335413070E+02 -0.53604803382E+03  0.53942736564E+03  0.47000000000E+01 0.  1.
<mgrwt>
<rscale>  0 0.27521754E+03</rscale>
<asrwt>0</asrwt>
<pdfrwt beam="1">  1        2 0.12909920E-02 0.27521754E+03</pdfrwt>
<pdfrwt beam="2">  1       -2 0.34716981E+00 0.27521754E+03</pdfrwt>
<totfact> 0.19361481E+02</totfact>
</mgrwt>
</event>
<event>
 9    1  0.7944303E-001  0.2728472E+03  0.7818608E-02  0.1099661E+00
         -1   -1    0    0    0  501 -0.00000000000E+00  0.00000000000E+00  0.22535148979E+02  0.22535148979E+02  0.00000000000E+00 0.  1.
          1   -1    0    0  501    0  0.00000000000E+00 -0.00000000000E+00 -0.82588320328E+03  0.82588320328E+03  0.00000000000E+00 0.  1.
         35    2    1    2    0    0 -0.71054273576E-14 -0.35527136788E-14 -0.80334805431E+03  0.84841835226E+03  0.27284721751E+03 0.  0.
         25    2    3    3    0    0 -0.14278622676E+01 -0.18897181589E+02 -0.24079630177E+03  0.27181487004E+03  0.12466484013E+03 0.  0.
         25    2    3    3    0    0  0.14278622676E+01  0.18897181589E+02 -0.56255175253E+03  0.57660348223E+03  0.12509180298E+03 0.  0.
          5    1    4    4  502    0 -0.42243014186E+02 -0.14416703547E+02 -0.23575069253E+02  0.50697016470E+02  0.47000000000E+01 0. -1.
         -5    1    4    4    0  502  0.40815151919E+02 -0.44804780423E+01 -0.21722123252E+03  0.22111785357E+03  0.47000000000E+01 0. -1.
          5    1    5    5  503    0  0.49676457312E+02  0.37397164615E+02 -0.42574877832E+03  0.43029107656E+03  0.47000000000E+01 0. -1.
         -5    1    5    5    0  503 -0.48248595044E+02 -0.18499983026E+02 -0.13680297422E+03  0.14631240566E+03  0.47000000000E+01 0. -1.
<mgrwt>
<rscale>  0 0.27284722E+03</rscale>
<asrwt>0</asrwt>
<pdfrwt beam="1">  1        1 0.12705893E+00 0.27284722E+03</pdfrwt>
<pdfrwt beam="2">  1       -1 0.34669466E-02 0.27284722E+03</pdfrwt>
<totfact> 0.66586264E+03</totfact>
</mgrwt>
</event>
<event>
 9    1  0.7944303E-001  0.2741875E+03  0.7818608E-02  0.1098907E+00
          2   -1    0    0  501    0  0.00000000000E+00  0.00000000000E+00  0.10581025812E+04  0.10581025812E+04  0.00000000000E+00 0. -1.
         -2   -1    0    0    0  501 -0.00000000000E+00 -0.00000000000E+00 -0.17762647200E+02  0.17762647200E+02  0.00000000000E+00 0. -1.
         35    2    1    2    0    0  0.00000000000E+00  0.00000000000E+00  0.10403399340E+04  0.10758652284E+04  0.27418754787E+03 0.  0.
         25    2    3    3    0    0  0.28575669070E+02  0.22503301980E+02  0.68932630918E+03  0.70150844176E+03  0.12498146209E+03 0.  0.
         25    2    3    3    0    0 -0.28575669070E+02 -0.22503301980E+02  0.35101362484E+03  0.37435678666E+03  0.12493787030E+03 0.  0.
          5    1    4    4  502    0  0.23994338316E+01 -0.30825735728E+00 -0.44123270736E+01  0.68855599275E+01  0.47000000000E+01 0.  1.
         -5    1    4    4    0  502  0.26176235238E+02  0.22811559338E+02  0.69373863626E+03  0.69462288183E+03  0.47000000000E+01 0.  1.
          5    1    5    5  503    0 -0.29030971239E+02 -0.65440744161E+02  0.12391305837E+03  0.14318458130E+03  0.47000000000E+01 0. -1.
         -5    1    5    5    0  503  0.45530216866E+00  0.42937442181E+02  0.22710056647E+03  0.23117220536E+03  0.47000000000E+01 0. -1.
<mgrwt>
<rscale>  0 0.27418755E+03</rscale>
<asrwt>0</asrwt>
<pdfrwt beam="1">  1        2 0.16278496E+00 0.27418755E+03</pdfrwt>
<pdfrwt beam="2">  1       -2 0.27327158E-02 0.27418755E+03</pdfrwt>
<totfact> 0.11754538E+04</totfact>
</mgrwt>
</event>
<event>
 9    1  0.7944303E-001  0.2730512E+03  0.7818608E-02  0.1099546E+00
         -2   -1    0    0    0  501 -0.00000000000E+00  0.00000000000E+00  0.54088783533E+02  0.54088783533E+02  0.00000000000E+00 0. -1.
          2   -1    0    0  501    0  0.00000000000E+00 -0.00000000000E+00 -0.34460440036E+03  0.34460440036E+03  0.00000000000E+00 0. -1.
         35    2    1    2    0    0 -0.71054273576E-14  0.00000000000E+00 -0.29051561683E+03  0.39869318389E+03  0.27305115136E+03 0.  0.
         25    2    3    3    0    0  0.40414402464E+02 -0.24778833481E+02 -0.18776449790E+03  0.23005003011E+03  0.12417807844E+03 0.  0.
         25    2    3    3    0    0 -0.40414402464E+02  0.24778833481E+02 -0.10275111892E+03  0.16864315378E+03  0.12504161852E+03 0.  0.
          5    1    4    4  502    0 -0.33615061697E+02 -0.32037559851E+02 -0.12210233821E+03  0.13071896806E+03  0.47000000000E+01 0. -1.
         -5    1    4    4    0  502  0.74029464161E+02  0.72587263696E+01 -0.65662159689E+02  0.99331062047E+02  0.47000000000E+01 0. -1.
          5    1    5    5  503    0 -0.40917713838E+02 -0.18304261761E+02  0.11442746361E+02  0.46500879009E+02  0.47000000000E+01 0.  1.
         -5    1    5    5    0  503  0.50331137418E+00  0.43083095242E+02 -0.11419386528E+03  0.12214227477E+03  0.47000000000E+01 0.  1.
<mgrwt>
<rscale>  0 0.27305115E+03</rscale>
<asrwt>0</asrwt>
<pdfrwt beam="1">  1        2 0.53016062E-01 0.27305115E+03</pdfrwt>
<pdfrwt beam="2">  1       -2 0.83213512E-02 0.27305115E+03</pdfrwt>
<totfact> 0.82898941E+03</totfact>
</mgrwt>
</event>
<event>
 9    1  0.7944303E-001  0.2666040E+03  0.7818608E-02  0.1103239E+00
          2   -1    0    0  501    0  0.00000000000E+00  0.00000000000E+00  0.10453041879E+04  0.10453041879E+04  0.00000000000E+00 0.  1.
         -2   -1    0    0    0  501 -0.00000000000E+00 -0.00000000000E+00 -0.16999281665E+02  0.16999281665E+02  0.00000000000E+00 0.  1.
         35    2    1    2    0    0  0.00000000000E+00  0.00000000000E+00  0.10283049062E+04  0.10623034695E+04  0.26660397833E+03 0.  0.
         25    2    3    3    0    0 -0.65449279654E+01 -0.21947917573E+02  0.37126591069E+03  0.39313824514E+03  0.12725861927E+03 0.  0.
         25    2    3    3    0    0  0.65449279654E+01  0.21947917573E+02  0.65703899549E+03  0.66916522438E+03  0.12472894111E+03 0.  0.
          5    1    4    4  502    0  0.48742765430E+02 -0.41901567602E+02  0.13455628224E+03  0.14919477752E+03  0.47000000000E+01 0.  1.
         -5    1    4    4    0  502 -0.55287693395E+02  0.19953650029E+02  0.23670962845E+03  0.24394346761E+03  0.47000000000E+01 0.  1.
          5    1    5    5  503    0  0.59944185193E+02 -0.29900095501E+01  0.21787788576E+03  0.22604227171E+03  0.47000000000E+01 0.  1.
         -5    1    5    5    0  503 -0.53399257227E+02  0.24937927123E+02  0.43916110973E+03  0.44312295267E+03  0.47000000000E+01 0.  1.
<mgrwt>
<rscale>  0 0.26660398E+03</rscale>
<asrwt>0</asrwt>
<pdfrwt beam="1">  1        2 0.16081598E+00 0.26660398E+03</pdfrwt>
<pdfrwt beam="2">  1       -2 0.26152749E-02 0.26660398E+03</pdfrwt>
<totfact> 0.12756981E+04</totfact>
</mgrwt>
</event>
<event>
 9    1  0.7944303E-001  0.2756758E+03  0.7818608E-02  0.1098074E+00
         -1   -1    0    0    0  501 -0.00000000000E+00  0.00000000000E+00  0.17009416054E+02  0.17009416054E+02  0.00000000000E+00 0. -1.
          1   -1    0    0  501    0  0.00000000000E+00 -0.00000000000E+00 -0.11169863533E+04  0.11169863533E+04  0.00000000000E+00 0. -1.
         35    2    1    2    0    0  0.00000000000E+00  0.35527136788E-14 -0.10999769373E+04  0.11339957694E+04  0.27567579227E+03 0.  0.
         25    2    3    3    0    0 -0.49789942255E+02 -0.27119271789E+02 -0.60092309399E+03  0.61642257209E+03  0.12511486421E+03 0.  0.
         25    2    3    3    0    0  0.49789942255E+02  0.27119271789E+02 -0.49905384329E+03  0.51757319729E+03  0.12495112165E+03 0.  0.
          5    1    4    4  502    0 -0.56797956136E+02 -0.14200331355E+02 -0.10540804066E+03  0.12066732063E+03  0.47000000000E+01 0.  1.
         -5    1    4    4    0  502  0.70080138809E+01 -0.12918940434E+02 -0.49551505333E+03  0.49575525147E+03  0.47000000000E+01 0.  1.
          5    1    5    5  503    0 -0.12771326682E+02  0.27209028142E+02 -0.39428087925E+03  0.39545282872E+03  0.47000000000E+01 0. -1.
         -5    1    5    5    0  503  0.62561268937E+02 -0.89756353113E-01 -0.10477296404E+03  0.12212036857E+03  0.47000000000E+01 0. -1.
<mgrwt>
<rscale>  0 0.27567579E+03</rscale>
<asrwt>0</asrwt>
<pdfrwt beam="1">  1        1 0.17184415E+00 0.27567579E+03</pdfrwt>
<pdfrwt beam="2">  1       -1 0.26168318E-02 0.27567579E+03</pdfrwt>
<totfact> 0.60539728E+03</totfact>
</mgrwt>
</event>
<event>
 9    1  0.7944303E-001  0.2761906E+03  0.7818608E-02  0.1097788E+00
          2   -1    0    0  501    0  0.00000000000E+00  0.00000000000E+00  0.14057624968E+03  0.14057624968E+03  0.00000000000E+00 0.  1.
         -2   -1    0    0    0  501 -0.00000000000E+00 -0.00000000000E+00 -0.13565811337E+03  0.13565811337E+03  0.00000000000E+00 0.  1.
         35    2    1    2    0    0  0.71054273576E-14 -0.35527136788E-14  0.49181363029E+01  0.27623436305E+03  0.27619057780E+03 0.  0.
         25    2    3    3    0    0 -0.47428448623E+02 -0.29272789528E+02 -0.17033309573E+02  0.13770944972E+03  0.12476940715E+03 0.  0.
         25    2    3    3    0    0  0.47428448623E+02  0.29272789528E+02  0.21951445876E+02  0.13852491333E+03  0.12490368966E+03 0.  0.
          5    1    4    4  502    0  0.25821782548E+02  0.12254670420E+02 -0.40849534405E+02  0.50077099178E+02  0.47000000000E+01 0.  1.
         -5    1    4    4    0  502 -0.73250231171E+02 -0.41527459947E+02  0.23816224832E+02  0.87632350542E+02  0.47000000000E+01 0.  1.
          5    1    5    5  503    0  0.62695750206E+02 -0.20369428605E+02 -0.22692553390E+02  0.69876410146E+02  0.47000000000E+01 0. -1.
         -5    1    5    5    0  503 -0.15267301582E+02  0.49642218133E+02  0.44643999266E+02  0.68648503183E+02  0.47000000000E+01 0. -1.
<mgrwt>
<rscale>  0 0.27619058E+03</rscale>
<asrwt>0</asrwt>
<pdfrwt beam="1">  1        2 0.21627115E-01 0.27619058E+03</pdfrwt>
<pdfrwt beam="2">  1       -2 0.20870479E-01 0.27619058E+03</pdfrwt>
<totfact> 0.49218169E+03</totfact>
</mgrwt>
</event>
<event>
 9    1  0.7944303E-001  0.2757579E+03  0.7818608E-02  0.1098029E+00
          2   -1    0    0  501    0  0.00000000000E+00  0.00000000000E+00  0.43744229677E+02  0.43744229677E+02  0.00000000000E+00 0.  1.
         -2   -1    0    0    0  501 -0.00000000000E+00 -0.00000000000E+00 -0.43458544310E+03  0.43458544310E+03  0.00000000000E+00 0.  1.
         35    2    1    2    0    0 -0.35527136788E-14  0.00000000000E+00 -0.39084121342E+03  0.47832967277E+03  0.27575790423E+03 0.  0.
         25    2    3    3    0    0 -0.17204907272E+01 -0.55893370164E+02 -0.22259600194E+03  0.26124820151E+03  0.12479829245E+03 0.  0.
         25    2    3    3    0    0  0.17204907272E+01  0.55893370164E+02 -0.16824521148E+03  0.21708147126E+03  0.12526326302E+03 0.  0.
          5    1    4    4  502    0  0.29150496689E+02 -0.79228601975E+02 -0.91972131333E+02  0.12493152432E+03  0.47000000000E+01 0. -1.
         -5    1    4    4    0  502 -0.30870987417E+02  0.23335231810E+02 -0.13062387060E+03  0.13631667719E+03  0.47000000000E+01 0. -1.
          5    1    5    5  503    0  0.43404395206E+02  0.71447546723E+02 -0.14300375801E+03  0.16571318071E+03  0.47000000000E+01 0. -1.
         -5    1    5    5    0  503 -0.41683904479E+02 -0.15554176558E+02 -0.25241453478E+02  0.51368290557E+02  0.47000000000E+01 0. -1.
<mgrwt>
<rscale>  0 0.27575790E+03</rscale>
<asrwt>0</asrwt>
<pdfrwt beam="1">  1        2 0.67298817E-02 0.27575790E+03</pdfrwt>
<pdfrwt beam="2">  1       -2 0.66859297E-01 0.27575790E+03</pdfrwt>
<totfact> 0.22324342E+03</totfact>
</mgrwt>
</event>
<event>
 9    1  0.7944303E-001  0.2727548E+03  0.7818608E-02  0.1099713E+00
          2   -1    0    0  501    0  0.00000000000E+00  0.00000000000E+00  0.81184479091E+03  0.81184479091E+03  0.00000000000E+00 0.  1.
         -2   -1    0    0    0  501 -0.00000000000E+00 -0.00000000000E+00 -0.22909297754E+02  0.22909297754E+02  0.00000000000E+00 0.  1.
         35    2    1    2    0    0 -0.35527136788E-14  0.00000000000E+00  0.78893549316E+03  0.83475408867E+03  0.27275479131E+03 0.  0.
         25    2    3    3    0    0  0.16211183059E+02 -0.43315873409E+02  0.31533654824E+03  0.34254369006E+03  0.12553873344E+03 0.  0.
         25    2    3    3    0    0 -0.16211183059E+02  0.43315873409E+02  0.47359894492E+03  0.49221039861E+03  0.12584136256E+03 0.  0.
          5    1    4    4  502    0  0.23911574085E+02 -0.84930069713E+02  0.24350417452E+03  0.25903909575E+03  0.47000000000E+01 0. -1.
         -5    1    4    4    0  502 -0.77003910261E+01  0.41614196304E+02  0.71832373717E+02  0.83504594304E+02  0.47000000000E+01 0. -1.
          5    1    5    5  503    0 -0.58458890989E+02  0.18047266888E+02  0.11620045068E+03  0.13140692720E+03  0.47000000000E+01 0.  1.
         -5    1    5    5    0  503  0.42247707930E+02  0.25268606521E+02  0.35739849423E+03  0.36080347141E+03  0.47000000000E+01 0.  1.
<mgrwt>
<rscale>  0 0.27275479E+03</rscale>
<asrwt>0</asrwt>
<pdfrwt beam="1">  1        2 0.12489918E+00 0.27275479E+03</pdfrwt>
<pdfrwt beam="2">  1       -2 0.35245080E-02 0.27275479E+03</pdfrwt>
<totfact> 0.11535205E+04</totfact>
</mgrwt>
</event>
<event>
 9    1  0.7944303E-001  0.2741802E+03  0.7818608E-02  0.1098911E+00
          1   -1    0    0  501    0  0.00000000000E+00  0.00000000000E+00  0.34475633416E+04  0.34475633416E+04  0.00000000000E+00 0. -1.
         -1   -1    0    0    0  501 -0.00000000000E+00 -0.00000000000E+00 -0.54512980257E+01  0.54512980257E+01  0.00000000000E+00 0. -1.
         35    2    1    2    0    0  0.71054273576E-14  0.00000000000E+00  0.34421120436E+04  0.34530146396E+04  0.27418019795E+03 0.  0.
         25    2    3    3    0    0  0.49545684196E+02  0.71428822006E+01  0.20609863809E+04  0.20653702322E+04  0.12483404184E+03 0.  0.
         25    2    3    3    0    0 -0.49545684196E+02 -0.71428822006E+01  0.13811256626E+04  0.13876444074E+04  0.12467200936E+03 0.  0.
          5    1    4    4  502    0  0.17573138768E+02  0.52979781134E+02  0.45943912018E+03  0.46284129846E+03  0.47000000000E+01 0. -1.
         -5    1    4    4    0  502  0.31972545427E+02 -0.45836898934E+02  0.16015472607E+04  0.16025289337E+04  0.47000000000E+01 0. -1.
          5    1    5    5  503    0 -0.26043906908E+02 -0.62872803023E+02  0.53221706029E+03  0.53657093073E+03  0.47000000000E+01 0.  1.
         -5    1    5    5    0  503 -0.23501777288E+02  0.55729920823E+02  0.84890860235E+03  0.85107347671E+03  0.47000000000E+01 0.  1.
<mgrwt>
<rscale>  0 0.27418020E+03</rscale>
<asrwt>0</asrwt>
<pdfrwt beam="1">  1        1 0.53039262E+00 0.27418020E+03</pdfrwt>
<pdfrwt beam="2">  1       -1 0.83866399E-03 0.27418020E+03</pdfrwt>
<totfact> 0.83361343E+02</totfact>
</mgrwt>
</event>
<event>
 9    1  0.7944303E-001  0.2759547E+03  0.7818608E-02  0.1097919E+00
          2   -1    0    0  501    0  0.00000000000E+00  0.00000000000E+00  0.17153179539E+04  0.17153179539E+04  0.00000000000E+00 0.  1.
         -2   -1    0    0    0  501 -0.00000000000E+00 -0.00000000000E+00 -0.11098672097E+02  0.11098672097E+02  0.00000000000E+00 0.  1.
         35    2    1    2    0    0  0.00000000000E+00  0.00000000000E+00  0.17042192818E+04  0.17264166260E+04  0.27595471739E+03 0.  0.
         25    2    3    3    0    0  0.28002775423E+02 -0.46489725508E+02  0.97240428671E+03  0.98181951734E+03  0.12431418990E+03 0.  0.
         25    2    3    3    0    0 -0.28002775423E+02  0.46489725508E+02  0.73181499513E+03  0.74459710869E+03  0.12619911714E+03 0.  0.
          5    1    4    4  502    0  0.69602719490E+02 -0.37293051184E+02  0.81002423950E+03  0.81387755148E+03  0.47000000000E+01 0.  1.
         -5    1    4    4    0  502 -0.41599944067E+02 -0.91966743239E+01  0.16238004721E+03  0.16794196586E+03  0.47000000000E+01 0.  1.
          5    1    5    5  503    0  0.43718421715E+02 -0.95279601797E+01  0.29147834228E+03  0.29493015519E+03  0.47000000000E+01 0. -1.
         -5    1    5    5    0  503 -0.71721197138E+02  0.56017685688E+02  0.44033665285E+03  0.44966695350E+03  0.47000000000E+01 0. -1.
<mgrwt>
<rscale>  0 0.27595472E+03</rscale>
<asrwt>0</asrwt>
<pdfrwt beam="1">  1        2 0.26389486E+00 0.27595472E+03</pdfrwt>
<pdfrwt beam="2">  1       -2 0.17074894E-02 0.27595472E+03</pdfrwt>
<totfact> 0.10231586E+04</totfact>
</mgrwt>
</event>
<event>
 9    1  0.7944303E-001  0.2762967E+03  0.7818608E-02  0.1097729E+00
         -2   -1    0    0    0  501 -0.00000000000E+00  0.00000000000E+00  0.18697664470E+03  0.18697664470E+03  0.00000000000E+00 0. -1.
          2   -1    0    0  501    0  0.00000000000E+00 -0.00000000000E+00 -0.10207140263E+03  0.10207140263E+03  0.00000000000E+00 0. -1.
         35    2    1    2    0    0  0.71054273576E-14  0.71054273576E-14  0.84905242072E+02  0.28904804733E+03  0.27629671285E+03 0.  0.
         25    2    3    3    0    0  0.55616672342E+02  0.20169279213E+02  0.31705731322E+02  0.14093530572E+03  0.12392535226E+03 0.  0.
         25    2    3    3    0    0 -0.55616672342E+02 -0.20169279213E+02  0.53199510750E+02  0.14811274161E+03  0.12492870854E+03 0.  0.
          5    1    4    4  502    0  0.17572107173E+02  0.58002494846E+02  0.55259460044E+02  0.82150875121E+02  0.47000000000E+01 0.  1.
         -5    1    4    4    0  502  0.38044565168E+02 -0.37833215632E+02 -0.23553728722E+02  0.58784430597E+02  0.47000000000E+01 0.  1.
          5    1    5    5  503    0  0.19554742050E+02  0.28533796526E+02 -0.12339982198E+02  0.37026080558E+02  0.47000000000E+01 0. -1.
         -5    1    5    5    0  503 -0.75171414392E+02 -0.48703075739E+02  0.65539492948E+02  0.11108666105E+03  0.47000000000E+01 0. -1.
<mgrwt>
<rscale>  0 0.27629671E+03</rscale>
<asrwt>0</asrwt>
<pdfrwt beam="1">  1        2 0.15703293E-01 0.27629671E+03</pdfrwt>
<pdfrwt beam="2">  1       -2 0.28765638E-01 0.27629671E+03</pdfrwt>
<totfact> 0.40517550E+03</totfact>
</mgrwt>
</event>
<event>
 9    1  0.7944303E-001  0.2714333E+03  0.7818608E-02  0.1100462E+00
          1   -1    0    0  501    0  0.00000000000E+00  0.00000000000E+00  0.15087045463E+04  0.15087045463E+04  0.00000000000E+00 0. -1.
         -1   -1    0    0    0  501 -0.00000000000E+00 -0.00000000000E+00 -0.12208495455E+02  0.12208495455E+02  0.00000000000E+00 0. -1.
         35    2    1    2    0    0  0.00000000000E+00  0.00000000000E+00  0.14964960509E+04  0.15209130418E+04  0.27143332586E+03 0.  0.
         25    2    3    3    0    0  0.14446755106E+02  0.43381176562E+02  0.61155259628E+03  0.62585714262E+03  0.12493978443E+03 0.  0.
         25    2    3    3    0    0 -0.14446755106E+02 -0.43381176562E+02  0.88494345458E+03  0.89505589915E+03  0.12613290448E+03 0.  0.
          5    1    4    4  502    0 -0.24186579644E+02  0.35815684162E+02  0.55551063217E+03  0.55720903288E+03  0.47000000000E+01 0.  1.
         -5    1    4    4    0  502  0.38633334750E+02  0.75654923996E+01  0.56041964108E+02  0.68648109735E+02  0.47000000000E+01 0.  1.
          5    1    5    5  503    0  0.37685140479E+02  0.20674165074E+01  0.98890209307E+02  0.10595191136E+03  0.47000000000E+01 0. -1.
         -5    1    5    5    0  503 -0.52131895584E+02 -0.45448593069E+02  0.78605324527E+03  0.78910398779E+03  0.47000000000E+01 0. -1.
<mgrwt>
<rscale>  0 0.27143333E+03</rscale>
<asrwt>0</asrwt>
<pdfrwt beam="1">  1        1 0.23210824E+00 0.27143333E+03</pdfrwt>
<pdfrwt beam="2">  1       -1 0.18782313E-02 0.27143333E+03</pdfrwt>
<totfact> 0.53076409E+03</totfact>
</mgrwt>
</event>
<event>
 9    1  0.7944303E-001  0.2764458E+03  0.7818608E-02  0.1097646E+00
         -2   -1    0    0    0  501 -0.00000000000E+00  0.00000000000E+00  0.67780046648E+03  0.67780046648E+03  0.00000000000E+00 0.  1.
          2   -1    0    0  501    0  0.00000000000E+00 -0.00000000000E+00 -0.28187596685E+02  0.28187596685E+02  0.00000000000E+00 0.  1.
         35    2    1    2    0    0  0.00000000000E+00 -0.35527136788E-14  0.64961286979E+03  0.70598806317E+03  0.27644577177E+03 0.  0.
         25    2    3    3    0    0 -0.11542576759E+02 -0.14830855926E+02  0.47731806959E+03  0.49373617672E+03  0.12485866921E+03 0.  0.
         25    2    3    3    0    0  0.11542576759E+02  0.14830855926E+02  0.17229480021E+03  0.21225188645E+03  0.12252420070E+03 0.  0.
          5    1    4    4  502    0 -0.30373211738E+02 -0.16554072522E+02  0.47233650364E+03  0.47362477974E+03  0.47000000000E+01 0. -1.
         -5    1    4    4    0  502  0.18830634979E+02  0.17232165960E+01  0.49815659460E+01  0.20111396978E+02  0.47000000000E+01 0. -1.
          5    1    5    5  503    0  0.30788894025E+02  0.23860857078E+02  0.65893207096E+00  0.39240549018E+02  0.47000000000E+01 0.  1.
         -5    1    5    5    0  503 -0.19246317266E+02 -0.90300011517E+01  0.17163586813E+03  0.17301133743E+03  0.47000000000E+01 0.  1.
<mgrwt>
<rscale>  0 0.27644577E+03</rscale>
<asrwt>0</asrwt>
<pdfrwt beam="1">  1        2 0.43365539E-02 0.27644577E+03</pdfrwt>
<pdfrwt beam="2">  1       -2 0.10427698E+00 0.27644577E+03</pdfrwt>
<totfact> 0.14771271E+03</totfact>
</mgrwt>
</event>
<event>
 9    1  0.7944303E-001  0.3000413E+03  0.7818608E-02  0.1085220E+00
         -2   -1    0    0    0  501 -0.00000000000E+00  0.00000000000E+00  0.12109312982E+02  0.12109312982E+02  0.00000000000E+00 0. -1.
          2   -1    0    0  501    0  0.00000000000E+00 -0.00000000000E+00 -0.18585862051E+04  0.18585862051E+04  0.00000000000E+00 0. -1.
         35    2    1    2    0    0  0.00000000000E+00  0.00000000000E+00 -0.18464768921E+04  0.18706955181E+04  0.30004134422E+03 0.  0.
         25    2    3    3    0    0 -0.43427115209E+02 -0.50269180449E+02 -0.12362075799E+04  0.12442778068E+04  0.12492067461E+03 0.  0.
         25    2    3    3    0    0  0.43427115209E+02  0.50269180449E+02 -0.61026931219E+03  0.62641771130E+03  0.12473015188E+03 0.  0.
          5    1    4    4  502    0 -0.52481109870E+02  0.24637227507E+02 -0.34494352097E+03  0.34981335385E+03  0.47000000000E+01 0. -1.
         -5    1    4    4    0  502  0.90539946611E+01 -0.74906407957E+02 -0.89126405897E+03  0.89446445294E+03  0.47000000000E+01 0. -1.
          5    1    5    5  503    0  0.49588867378E+02  0.86418691574E+02 -0.50728040274E+03  0.51699394873E+03  0.47000000000E+01 0.  1.
         -5    1    5    5    0  503 -0.61617521695E+01 -0.36149511125E+02 -0.10298890945E+03  0.10942376257E+03  0.47000000000E+01 0.  1.
<mgrwt>
<rscale>  0 0.30004134E+03</rscale>
<asrwt>0</asrwt>
<pdfrwt beam="1">  1        2 0.28593615E+00 0.30004134E+03</pdfrwt>
<pdfrwt beam="2">  1       -2 0.18629725E-02 0.30004134E+03</pdfrwt>
<totfact> 0.75741654E+03</totfact>
</mgrwt>
</event>
<event>
 9    1  0.7944303E-001  0.2902698E+03  0.7818608E-02  0.1090208E+00
         -1   -1    0    0    0  501 -0.00000000000E+00  0.00000000000E+00  0.38597556329E+02  0.38597556329E+02  0.00000000000E+00 0. -1.
          1   -1    0    0  501    0  0.00000000000E+00 -0.00000000000E+00 -0.54573776372E+03  0.54573776372E+03  0.00000000000E+00 0. -1.
         35    2    1    2    0    0  0.00000000000E+00  0.00000000000E+00 -0.50714020740E+03  0.58433532005E+03  0.29026983361E+03 0.  0.
         25    2    3    3    0    0 -0.38194173967E+02 -0.36981451160E+02 -0.21050947686E+03  0.25824538255E+03  0.13982136855E+03 0.  0.
         25    2    3    3    0    0  0.38194173967E+02  0.36981451160E+02 -0.29663073053E+03  0.32608993751E+03  0.12457300828E+03 0.  0.
          5    1    4    4  502    0 -0.30945941948E+02  0.51326162665E+02 -0.97820769269E+02  0.11481732969E+03  0.47000000000E+01 0. -1.
         -5    1    4    4    0  502 -0.72482320184E+01 -0.88307613825E+02 -0.11268870759E+03  0.14342805285E+03  0.47000000000E+01 0. -1.
          5    1    5    5  503    0 -0.37025728685E+01  0.68662760769E+02 -0.23538459815E+03  0.24526777776E+03  0.47000000000E+01 0.  1.
         -5    1    5    5    0  503  0.41896746835E+02 -0.31681309609E+02 -0.61246132383E+02  0.80822159745E+02  0.47000000000E+01 0.  1.
<mgrwt>
<rscale>  0 0.29026983E+03</rscale>
<asrwt>0</asrwt>
<pdfrwt beam="1">  1        1 0.83959652E-01 0.29026983E+03</pdfrwt>
<pdfrwt beam="2">  1       -1 0.59380859E-02 0.29026983E+03</pdfrwt>
<totfact> 0.54325077E+03</totfact>
</mgrwt>
</event>
<event>
 9    1  0.7944303E-001  0.2723148E+03  0.7818608E-02  0.1099962E+00
          1   -1    0    0  501    0  0.00000000000E+00  0.00000000000E+00  0.89701302376E+03  0.89701302376E+03  0.00000000000E+00 0.  1.
         -1   -1    0    0    0  501 -0.00000000000E+00 -0.00000000000E+00 -0.20667299482E+02  0.20667299482E+02  0.00000000000E+00 0.  1.
         35    2    1    2    0    0  0.35527136788E-14  0.00000000000E+00  0.87634572428E+03  0.91768032324E+03  0.27231479432E+03 0.  0.
         25    2    3    3    0    0  0.13648486197E+02  0.43020559760E+02  0.53999263101E+03  0.55596836863E+03  0.12438543176E+03 0.  0.
         25    2    3    3    0    0 -0.13648486197E+02 -0.43020559760E+02  0.33635309326E+03  0.36171195461E+03  0.12516023738E+03 0.  0.
          5    1    4    4  502    0 -0.98687530109E+01  0.46943805685E+02  0.67996263456E+02  0.83346835706E+02  0.47000000000E+01 0.  1.
         -5    1    4    4    0  502  0.23517239208E+02 -0.39232459256E+01  0.47199636756E+03  0.47262153293E+03  0.47000000000E+01 0.  1.
          5    1    5    5  503    0  0.44502986803E+02 -0.28400934941E+02  0.65484693031E+02  0.84246447767E+02  0.47000000000E+01 0.  1.
         -5    1    5    5    0  503 -0.58151473001E+02 -0.14619624819E+02  0.27086840023E+03  0.27746550684E+03  0.47000000000E+01 0.  1.
<mgrwt>
<rscale>  0 0.27231479E+03</rscale>
<asrwt>0</asrwt>
<pdfrwt beam="1">  1        1 0.13800197E+00 0.27231479E+03</pdfrwt>
<pdfrwt beam="2">  1       -1 0.31795852E-02 0.27231479E+03</pdfrwt>
<totfact> 0.66345508E+03</totfact>
</mgrwt>
</event>
<event>
 9    1  0.7944303E-001  0.2749347E+03  0.7818608E-02  0.1098488E+00
          4   -1    0    0  501    0  0.00000000000E+00  0.00000000000E+00  0.27620060694E+03  0.27620060694E+03  0.00000000000E+00 0.  1.
         -4   -1    0    0    0  501 -0.00000000000E+00 -0.00000000000E+00 -0.68418629588E+02  0.68418629588E+02  0.00000000000E+00 0.  1.
         35    2    1    2    0    0  0.88817841970E-15  0.00000000000E+00  0.20778197735E+03  0.34461923652E+03  0.27493466146E+03 0.  0.
         25    2    3    3    0    0 -0.22627544982E+01 -0.42392844354E+02  0.15008330832E+03  0.20034670206E+03  0.12574389958E+03 0.  0.
         25    2    3    3    0    0  0.22627544982E+01  0.42392844354E+02  0.57698669030E+02  0.14427253446E+03  0.12523240189E+03 0.  0.
          5    1    4    4  502    0 -0.85469020259E+01 -0.89443393465E+01  0.16307839104E+03  0.16361449314E+03  0.47000000000E+01 0.  1.
         -5    1    4    4    0  502  0.62841475277E+01 -0.33448505008E+02 -0.12995082723E+02  0.36732208923E+02  0.47000000000E+01 0.  1.
          5    1    5    5  503    0 -0.20675955720E+01  0.86953211336E+02  0.40831540693E+02  0.96200003266E+02  0.47000000000E+01 0. -1.
         -5    1    5    5    0  503  0.43303500702E+01 -0.44560366982E+02  0.16867128337E+02  0.48072531196E+02  0.47000000000E+01 0. -1.
<mgrwt>
<rscale>  0 0.27493466E+03</rscale>
<asrwt>0</asrwt>
<pdfrwt beam="1">  1        4 0.42492400E-01 0.27493466E+03</pdfrwt>
<pdfrwt beam="2">  1       -4 0.10525943E-01 0.27493466E+03</pdfrwt>
<totfact> 0.70316354E+02</totfact>
</mgrwt>
</event>
<event>
 9    1  0.7944303E-001  0.2768918E+03  0.7818608E-02  0.1097399E+00
          1   -1    0    0  501    0  0.00000000000E+00  0.00000000000E+00  0.46032227561E+02  0.46032227561E+02  0.00000000000E+00 0.  1.
         -1   -1    0    0    0  501 -0.00000000000E+00 -0.00000000000E+00 -0.41638799388E+03  0.41638799388E+03  0.00000000000E+00 0.  1.
         35    2    1    2    0    0  0.71054273576E-14 -0.71054273576E-14 -0.37035576632E+03  0.46242022144E+03  0.27689179755E+03 0.  0.
         25    2    3    3    0    0  0.42144152344E+02  0.26644797113E+02 -0.13548565753E+03  0.19161933816E+03  0.12599814511E+03 0.  0.
         25    2    3    3    0    0 -0.42144152344E+02 -0.26644797113E+02 -0.23487010879E+03  0.27080088328E+03  0.12523208691E+03 0.  0.
          5    1    4    4  502    0  0.42561262377E+01 -0.30586107130E+02  0.82156613620E+01  0.32298787152E+02  0.47000000000E+01 0.  1.
         -5    1    4    4    0  502  0.37888026106E+02  0.57230904243E+02 -0.14370131889E+03  0.15932055101E+03  0.47000000000E+01 0.  1.
          5    1    5    5  503    0 -0.12428752788E+02  0.49817809181E+02 -0.74433414475E+02  0.90546734882E+02  0.47000000000E+01 0.  1.
         -5    1    5    5    0  503 -0.29715399556E+02 -0.76462606294E+02 -0.16043669431E+03  0.18025414840E+03  0.47000000000E+01 0.  1.
<mgrwt>
<rscale>  0 0.27689180E+03</rscale>
<asrwt>0</asrwt>
<pdfrwt beam="1">  1        1 0.70818808E-02 0.27689180E+03</pdfrwt>
<pdfrwt beam="2">  1       -1 0.64059695E-01 0.27689180E+03</pdfrwt>
<totfact> 0.26222839E+03</totfact>
</mgrwt>
</event>
<event>
 9    1  0.7944303E-001  0.2759366E+03  0.7818608E-02  0.1097929E+00
          1   -1    0    0  501    0  0.00000000000E+00  0.00000000000E+00  0.26387419530E+03  0.26387419530E+03  0.00000000000E+00 0.  1.
         -1   -1    0    0    0  501 -0.00000000000E+00 -0.00000000000E+00 -0.72137592104E+02  0.72137592104E+02  0.00000000000E+00 0.  1.
         35    2    1    2    0    0  0.00000000000E+00 -0.71054273576E-14  0.19173660320E+03  0.33601178741E+03  0.27593658016E+03 0.  0.
         25    2    3    3    0    0  0.27750505164E+02 -0.34078341111E+02  0.14673727875E+03  0.19708137111E+03  0.12400731427E+03 0.  0.
         25    2    3    3    0    0 -0.27750505164E+02  0.34078341111E+02  0.44999324453E+02  0.13893041630E+03  0.12387613775E+03 0.  0.
          5    1    4    4  502    0  0.28524375859E+02 -0.41854655858E+01  0.16099368594E+03  0.16362217164E+03  0.47000000000E+01 0. -1.
         -5    1    4    4    0  502 -0.77387069494E+00 -0.29892875526E+02 -0.14256407189E+02  0.33459199467E+02  0.47000000000E+01 0. -1.
          5    1    5    5  503    0  0.11211255035E+02 -0.30395968859E+02 -0.20809833562E+02  0.38791059991E+02  0.47000000000E+01 0.  1.
         -5    1    5    5    0  503 -0.38961760199E+02  0.64474309970E+02  0.65809158015E+02  0.10013935631E+03  0.47000000000E+01 0.  1.
<mgrwt>
<rscale>  0 0.27593658E+03</rscale>
<asrwt>0</asrwt>
<pdfrwt beam="1">  1        1 0.40596030E-01 0.27593658E+03</pdfrwt>
<pdfrwt beam="2">  1       -1 0.11098091E-01 0.27593658E+03</pdfrwt>
<totfact> 0.53060043E+03</totfact>
</mgrwt>
</event>
<event>
 9    1  0.7944303E-001  0.2747686E+03  0.7818608E-02  0.1098581E+00
         -2   -1    0    0    0  501 -0.00000000000E+00  0.00000000000E+00  0.10843597183E+03  0.10843597183E+03  0.00000000000E+00 0. -1.
          2   -1    0    0  501    0  0.00000000000E+00 -0.00000000000E+00 -0.17406073478E+03  0.17406073478E+03  0.00000000000E+00 0. -1.
         35    2    1    2    0    0  0.17763568394E-14 -0.71054273576E-14 -0.65624762949E+02  0.28249670662E+03  0.27476859307E+03 0.  0.
         25    2    3    3    0    0 -0.14615098802E+02 -0.54244410337E+02 -0.28361044721E+02  0.13988266488E+03  0.12492699432E+03 0.  0.
         25    2    3    3    0    0  0.14615098802E+02  0.54244410337E+02 -0.37263718228E+02  0.14261404174E+03  0.12567467143E+03 0.  0.
          5    1    4    4  502    0 -0.63453462555E+01 -0.94487356884E+02 -0.26670296996E+02  0.98496288112E+02  0.47000000000E+01 0.  1.
         -5    1    4    4    0  502 -0.82697525468E+01  0.40242946547E+02 -0.16907477244E+01  0.41386376767E+02  0.47000000000E+01 0.  1.
          5    1    5    5  503    0 -0.45648726125E+02  0.38558024767E+02  0.14308720350E+02  0.61622698325E+02  0.47000000000E+01 0. -1.
         -5    1    5    5    0  503  0.60263824928E+02  0.15686385570E+02 -0.51572438579E+02  0.80991343415E+02  0.47000000000E+01 0. -1.
<mgrwt>
<rscale>  0 0.27476859E+03</rscale>
<asrwt>0</asrwt>
<pdfrwt beam="1">  1        2 0.26778575E-01 0.27476859E+03</pdfrwt>
<pdfrwt beam="2">  1       -2 0.16682457E-01 0.27476859E+03</pdfrwt>
<totfact> 0.56603602E+03</totfact>
</mgrwt>
</event>
<event>
 9    1  0.7944303E-001  0.2640468E+03  0.7818608E-02  0.1104736E+00
         -2   -1    0    0    0  501 -0.00000000000E+00  0.00000000000E+00  0.26154332057E+02  0.26154332057E+02  0.00000000000E+00 0. -1.
          2   -1    0    0  501    0  0.00000000000E+00 -0.00000000000E+00 -0.66643546064E+03  0.66643546064E+03  0.00000000000E+00 0. -1.
         35    2    1    2    0    0  0.71054273576E-14  0.00000000000E+00 -0.64028112858E+03  0.69258979269E+03  0.26404677110E+03 0.  0.
         25    2    3    3    0    0 -0.43092943919E+02 -0.10633406143E+02 -0.31481392311E+03  0.34167379979E+03  0.12515233970E+03 0.  0.
         25    2    3    3    0    0  0.43092943919E+02  0.10633406143E+02 -0.32546720547E+03  0.35091599291E+03  0.12346279238E+03 0.  0.
          5    1    4    4  502    0 -0.12083504410E+02 -0.66171223057E+02 -0.13542499986E+03  0.15128338450E+03  0.47000000000E+01 0.  1.
         -5    1    4    4    0  502 -0.31009439509E+02  0.55537816914E+02 -0.17938892325E+03  0.19039041529E+03  0.47000000000E+01 0.  1.
          5    1    5    5  503    0 -0.41253014613E+02 -0.46785070218E+01 -0.14780710104E+03  0.15359924727E+03  0.47000000000E+01 0.  1.
         -5    1    5    5    0  503  0.84345958531E+02  0.15311913165E+02 -0.17766010442E+03  0.19731674564E+03  0.47000000000E+01 0.  1.
<mgrwt>
<rscale>  0 0.26404677E+03</rscale>
<asrwt>0</asrwt>
<pdfrwt beam="1">  1        2 0.10252854E+00 0.26404677E+03</pdfrwt>
<pdfrwt beam="2">  1       -2 0.40237433E-02 0.26404677E+03</pdfrwt>
<totfact> 0.12049938E+04</totfact>
</mgrwt>
</event>
<event>
 9    1  0.7944303E-001  0.2748071E+03  0.7818608E-02  0.1098559E+00
          2   -1    0    0  501    0  0.00000000000E+00  0.00000000000E+00  0.36643510549E+03  0.36643510549E+03  0.00000000000E+00 0. -1.
         -2   -1    0    0    0  501 -0.00000000000E+00 -0.00000000000E+00 -0.51522735151E+02  0.51522735151E+02  0.00000000000E+00 0. -1.
         35    2    1    2    0    0  0.00000000000E+00  0.71054273576E-14  0.31491237034E+03  0.41795784064E+03  0.27480712429E+03 0.  0.
         25    2    3    3    0    0 -0.50005297792E+02  0.21571972722E+02  0.12761354334E+03  0.18626603051E+03  0.12427364107E+03 0.  0.
         25    2    3    3    0    0  0.50005297792E+02 -0.21571972722E+02  0.18729882700E+03  0.23169181013E+03  0.12503745227E+03 0.  0.
          5    1    4    4  502    0 -0.47948146967E+02  0.70772462313E+02  0.72291009469E+02  0.11205287265E+03  0.47000000000E+01 0. -1.
         -5    1    4    4    0  502 -0.20571508250E+01 -0.49200489592E+02  0.55322533868E+02  0.74213157858E+02  0.47000000000E+01 0. -1.
          5    1    5    5  503    0  0.36239368063E+02 -0.69201262186E+02  0.15097278951E+03  0.17004993284E+03  0.47000000000E+01 0.  1.
         -5    1    5    5    0  503  0.13765929728E+02  0.47629289465E+02  0.36326037487E+02  0.61641877289E+02  0.47000000000E+01 0.  1.
<mgrwt>
<rscale>  0 0.27480712E+03</rscale>
<asrwt>0</asrwt>
<pdfrwt beam="1">  1        2 0.56374630E-01 0.27480712E+03</pdfrwt>
<pdfrwt beam="2">  1       -2 0.79265749E-02 0.27480712E+03</pdfrwt>
<totfact> 0.83724611E+03</totfact>
</mgrwt>
</event>
<event>
 9    1  0.7944303E-001  0.2761877E+03  0.7818608E-02  0.1097790E+00
          4   -1    0    0  501    0  0.00000000000E+00  0.00000000000E+00  0.59776585785E+03  0.59776585785E+03  0.00000000000E+00 0.  1.
         -4   -1    0    0    0  501 -0.00000000000E+00 -0.00000000000E+00 -0.31901968159E+02  0.31901968159E+02  0.00000000000E+00 0.  1.
         35    2    1    2    0    0  0.00000000000E+00  0.00000000000E+00  0.56586388969E+03  0.62966782601E+03  0.27618767071E+03 0.  0.
         25    2    3    3    0    0 -0.47506009287E+02  0.31943107255E+02  0.25388761142E+03  0.28871822428E+03  0.12498844257E+03 0.  0.
         25    2    3    3    0    0  0.47506009287E+02 -0.31943107255E+02  0.31197627827E+03  0.34094960173E+03  0.12506098392E+03 0.  0.
          5    1    4    4  502    0 -0.12004167939E+02  0.22804516995E+02  0.25020876517E+03  0.25157635463E+03  0.47000000000E+01 0. -1.
         -5    1    4    4    0  502 -0.35501841347E+02  0.91385902595E+01  0.36788462541E+01  0.37141869645E+02  0.47000000000E+01 0. -1.
          5    1    5    5  503    0  0.28347187686E+02 -0.60643384283E+01  0.30655802242E+03  0.30796144298E+03  0.47000000000E+01 0. -1.
         -5    1    5    5    0  503  0.19158821601E+02 -0.25878768827E+02  0.54182558415E+01  0.32988158746E+02  0.47000000000E+01 0. -1.
<mgrwt>
<rscale>  0 0.27618767E+03</rscale>
<asrwt>0</asrwt>
<pdfrwt beam="1">  1        4 0.91963970E-01 0.27618767E+03</pdfrwt>
<pdfrwt beam="2">  1       -4 0.49079956E-02 0.27618767E+03</pdfrwt>
<totfact> 0.47799923E+02</totfact>
</mgrwt>
</event>
<event>
 9    1  0.7944303E-001  0.2805712E+03  0.7818608E-02  0.1095377E+00
         -2   -1    0    0    0  501 -0.00000000000E+00  0.00000000000E+00  0.22190277116E+02  0.22190277116E+02  0.00000000000E+00 0. -1.
          2   -1    0    0  501    0  0.00000000000E+00 -0.00000000000E+00 -0.88687687584E+03  0.88687687584E+03  0.00000000000E+00 0. -1.
         35    2    1    2    0    0  0.00000000000E+00 -0.17763568394E-14 -0.86468659873E+03  0.90906715296E+03  0.28057115777E+03 0.  0.
         25    2    3    3    0    0  0.25677715986E+02 -0.21991399766E+01 -0.22802211331E+03  0.26077983209E+03  0.12388646154E+03 0.  0.
         25    2    3    3    0    0 -0.25677715986E+02  0.21991399766E+01 -0.63666448541E+03  0.64828732087E+03  0.11945962536E+03 0.  0.
          5    1    4    4  502    0 -0.14823868028E+02  0.54284853719E+02 -0.11255917266E+03  0.12592954282E+03  0.47000000000E+01 0.  1.
         -5    1    4    4    0  502  0.40501584014E+02 -0.56483993696E+02 -0.11546294066E+03  0.13485028927E+03  0.47000000000E+01 0.  1.
          5    1    5    5  503    0  0.40312978526E+02 -0.15905087656E+02 -0.38441934897E+03  0.38688297186E+03  0.47000000000E+01 0. -1.
         -5    1    5    5    0  503 -0.65990694512E+02  0.18104227632E+02 -0.25224513644E+03  0.26140434901E+03  0.47000000000E+01 0. -1.
<mgrwt>
<rscale>  0 0.28057116E+03</rscale>
<asrwt>0</asrwt>
<pdfrwt beam="1">  1        2 0.13644262E+00 0.28057116E+03</pdfrwt>
<pdfrwt beam="2">  1       -2 0.34138882E-02 0.28057116E+03</pdfrwt>
<totfact> 0.10791226E+04</totfact>
</mgrwt>
</event>
<event>
 9    1  0.7944303E-001  0.2849098E+03  0.7818608E-02  0.1093037E+00
         -2   -1    0    0    0  501 -0.00000000000E+00  0.00000000000E+00  0.50043422503E+02  0.50043422503E+02  0.00000000000E+00 0.  1.
          2   -1    0    0  501    0  0.00000000000E+00 -0.00000000000E+00 -0.40551577718E+03  0.40551577718E+03  0.00000000000E+00 0.  1.
         35    2    1    2    0    0  0.00000000000E+00 -0.71054273576E-14 -0.35547235468E+03  0.45555919968E+03  0.28490979182E+03 0.  0.
         25    2    3    3    0    0  0.17538277134E+02 -0.43715676991E+02 -0.98734791092E+02  0.16592950474E+03  0.12476133212E+03 0.  0.
         25    2    3    3    0    0 -0.17538277134E+02  0.43715676991E+02 -0.25673756359E+03  0.28962969494E+03  0.12550909153E+03 0.  0.
          5    1    4    4  502    0  0.42373576331E+02 -0.69147595828E+02 -0.26778037671E+02  0.85533989041E+02  0.47000000000E+01 0. -1.
         -5    1    4    4    0  502 -0.24835299197E+02  0.25431918837E+02 -0.71956753421E+02  0.80395515701E+02  0.47000000000E+01 0. -1.
          5    1    5    5  503    0 -0.40014417045E+02 -0.17463150911E+02 -0.19447342275E+03  0.19936929896E+03  0.47000000000E+01 0. -1.
         -5    1    5    5    0  503  0.22476139911E+02  0.61178827902E+02 -0.62264140835E+02  0.90260395981E+02  0.47000000000E+01 0. -1.
<mgrwt>
<rscale>  0 0.28490979E+03</rscale>
<asrwt>0</asrwt>
<pdfrwt beam="1">  1        2 0.62387043E-01 0.28490979E+03</pdfrwt>
<pdfrwt beam="2">  1       -2 0.76989880E-02 0.28490979E+03</pdfrwt>
<totfact> 0.78600417E+03</totfact>
</mgrwt>
</event>
<event>
 9    1  0.7944303E-001  0.2730325E+03  0.7818608E-02  0.1099556E+00
          3   -1    0    0  501    0  0.00000000000E+00  0.00000000000E+00  0.46485820471E+02  0.46485820471E+02  0.00000000000E+00 0.  1.
         -3   -1    0    0    0  501 -0.00000000000E+00 -0.00000000000E+00 -0.40091122454E+03  0.40091122454E+03  0.00000000000E+00 0.  1.
         35    2    1    2    0    0  0.00000000000E+00  0.00000000000E+00 -0.35442540406E+03  0.44739704501E+03  0.27303250509E+03 0.  0.
         25    2    3    3    0    0 -0.10461703484E+02  0.16805809678E+02 -0.25576692371E+03  0.28514509444E+03  0.12449547437E+03 0.  0.
         25    2    3    3    0    0  0.10461703484E+02 -0.16805809678E+02 -0.98658480351E+02  0.16225195056E+03  0.12728046684E+03 0.  0.
          5    1    4    4  502    0  0.56671484654E+02  0.14564255677E+02 -0.11639731781E+03  0.13036180541E+03  0.47000000000E+01 0.  1.
         -5    1    4    4    0  502 -0.67133188138E+02  0.22415540011E+01 -0.13936960591E+03  0.15478328904E+03  0.47000000000E+01 0.  1.
          5    1    5    5  503    0 -0.37807139737E+02  0.34537494233E+02 -0.68009399899E+02  0.85261871886E+02  0.47000000000E+01 0. -1.
         -5    1    5    5    0  503  0.48268843221E+02 -0.51343303911E+02 -0.30649080452E+02  0.76990078679E+02  0.47000000000E+01 0. -1.
<mgrwt>
<rscale>  0 0.27303251E+03</rscale>
<asrwt>0</asrwt>
<pdfrwt beam="1">  1        3 0.71516648E-02 0.27303251E+03</pdfrwt>
<pdfrwt beam="2">  1       -3 0.61678649E-01 0.27303251E+03</pdfrwt>
<totfact> 0.84551884E+02</totfact>
</mgrwt>
</event>
<event>
 9    1  0.7944303E-001  0.2745066E+03  0.7818608E-02  0.1098728E+00
          2   -1    0    0  501    0  0.00000000000E+00  0.00000000000E+00  0.23779630821E+04  0.23779630821E+04  0.00000000000E+00 0. -1.
         -2   -1    0    0    0  501 -0.00000000000E+00 -0.00000000000E+00 -0.79221006475E+01  0.79221006475E+01  0.00000000000E+00 0. -1.
         35    2    1    2    0    0 -0.71054273576E-14 -0.35527136788E-14  0.23700409814E+04  0.23858851827E+04  0.27450656001E+03 0.  0.
         25    2    3    3    0    0  0.48335563306E+02  0.31885314642E+02  0.12606027284E+04  0.12681116471E+04  0.12503963653E+03 0.  0.
         25    2    3    3    0    0 -0.48335563306E+02 -0.31885314642E+02  0.11094382530E+04  0.11177735356E+04  0.12333466535E+03 0.  0.
          5    1    4    4  502    0  0.70897030675E+02  0.10391325177E+02  0.11696871407E+04  0.11718892720E+04  0.47000000000E+01 0.  1.
         -5    1    4    4    0  502 -0.22561467369E+02  0.21493989464E+02  0.90915587668E+02  0.96222375121E+02  0.47000000000E+01 0.  1.
          5    1    5    5  503    0 -0.50452865246E+01 -0.65630625475E+02  0.33870152462E+03  0.34507049525E+03  0.47000000000E+01 0. -1.
         -5    1    5    5    0  503 -0.43290276782E+02  0.33745310834E+02  0.77073672843E+03  0.77270304038E+03  0.47000000000E+01 0. -1.
<mgrwt>
<rscale>  0 0.27450656E+03</rscale>
<asrwt>0</asrwt>
<pdfrwt beam="1">  1        2 0.36583991E+00 0.27450656E+03</pdfrwt>
<pdfrwt beam="2">  1       -2 0.12187866E-02 0.27450656E+03</pdfrwt>
<totfact> 0.74698111E+03</totfact>
</mgrwt>
</event>
<event>
 9    1  0.7944303E-001  0.2735157E+03  0.7818608E-02  0.1099284E+00
          1   -1    0    0  501    0  0.00000000000E+00  0.00000000000E+00  0.77309987211E+02  0.77309987211E+02  0.00000000000E+00 0.  1.
         -1   -1    0    0    0  501 -0.00000000000E+00 -0.00000000000E+00 -0.24191844298E+03  0.24191844298E+03  0.00000000000E+00 0.  1.
         35    2    1    2    0    0  0.00000000000E+00 -0.35527136788E-14 -0.16460845577E+03  0.31922843020E+03  0.27351571606E+03 0.  0.
         25    2    3    3    0    0  0.22163630086E+02  0.23498972394E+02 -0.13350566650E+03  0.18586295593E+03  0.12521121035E+03 0.  0.
         25    2    3    3    0    0 -0.22163630086E+02 -0.23498972394E+02 -0.31102789275E+02  0.13336547427E+03  0.12560070869E+03 0.  0.
          5    1    4    4  502    0 -0.19502947609E+02  0.45879651205E+02 -0.67970511382E+01  0.50533130363E+02  0.47000000000E+01 0.  1.
         -5    1    4    4    0  502  0.41666577695E+02 -0.22380678811E+02 -0.12670861536E+03  0.13532982556E+03  0.47000000000E+01 0.  1.
          5    1    5    5  503    0 -0.55667596029E+02 -0.22131754030E+02 -0.62847798255E+02  0.86951892041E+02  0.47000000000E+01 0. -1.
         -5    1    5    5    0  503  0.33503965943E+02 -0.13672183647E+01  0.31745008980E+02  0.46413582226E+02  0.47000000000E+01 0. -1.
<mgrwt>
<rscale>  0 0.27351572E+03</rscale>
<asrwt>0</asrwt>
<pdfrwt beam="1">  1        1 0.11893844E-01 0.27351572E+03</pdfrwt>
<pdfrwt beam="2">  1       -1 0.37218221E-01 0.27351572E+03</pdfrwt>
<totfact> 0.35458509E+03</totfact>
</mgrwt>
</event>
<event>
 9    1  0.7944303E-001  0.2765583E+03  0.7818608E-02  0.1097584E+00
         -1   -1    0    0    0  501 -0.00000000000E+00  0.00000000000E+00  0.53201851103E+02  0.53201851103E+02  0.00000000000E+00 0. -1.
          1   -1    0    0  501    0  0.00000000000E+00 -0.00000000000E+00 -0.35940710903E+03  0.35940710903E+03  0.00000000000E+00 0. -1.
         35    2    1    2    0    0 -0.71054273576E-14  0.71054273576E-14 -0.30620525793E+03  0.41260896013E+03  0.27655830127E+03 0.  0.
         25    2    3    3    0    0 -0.57591619901E+02 -0.18729442760E+02 -0.15347472493E+03  0.20713248235E+03  0.12522694337E+03 0.  0.
         25    2    3    3    0    0  0.57591619901E+02  0.18729442760E+02 -0.15273053300E+03  0.20547647778E+03  0.12339522074E+03 0.  0.
          5    1    4    4  502    0  0.85394857018E+01  0.37393154205E+02 -0.10847429912E+02  0.40136361733E+02  0.47000000000E+01 0.  1.
         -5    1    4    4    0  502 -0.66131105603E+02 -0.56122596965E+02 -0.14262729502E+03  0.16699612062E+03  0.47000000000E+01 0.  1.
          5    1    5    5  503    0  0.55794513459E+02  0.66075815207E+02 -0.11876251692E+03  0.14698866117E+03  0.47000000000E+01 0.  1.
         -5    1    5    5    0  503  0.17971064416E+01 -0.47346372446E+02 -0.33968016074E+02  0.58487816606E+02  0.47000000000E+01 0.  1.
<mgrwt>
<rscale>  0 0.27655830E+03</rscale>
<asrwt>0</asrwt>
<pdfrwt beam="1">  1        1 0.55293401E-01 0.27655830E+03</pdfrwt>
<pdfrwt beam="2">  1       -1 0.81849002E-02 0.27655830E+03</pdfrwt>
<totfact> 0.57483729E+03</totfact>
</mgrwt>
</event>
<event>
 9    1  0.7944303E-001  0.2728725E+03  0.7818608E-02  0.1099647E+00
         -2   -1    0    0    0  501 -0.00000000000E+00  0.00000000000E+00  0.23063396134E+02  0.23063396134E+02  0.00000000000E+00 0. -1.
          2   -1    0    0  501    0  0.00000000000E+00 -0.00000000000E+00 -0.80711689795E+03  0.80711689795E+03  0.00000000000E+00 0. -1.
         35    2    1    2    0    0  0.00000000000E+00 -0.35527136788E-14 -0.78405350182E+03  0.83018029409E+03  0.27287254713E+03 0.  0.
         25    2    3    3    0    0  0.39761202984E+02 -0.17337024771E+02 -0.31200205739E+03  0.33884287246E+03  0.12485064160E+03 0.  0.
         25    2    3    3    0    0 -0.39761202984E+02  0.17337024771E+02 -0.47205144443E+03  0.49133742163E+03  0.12922217309E+03 0.  0.
          5    1    4    4  502    0  0.52014788876E+02  0.25562027400E+02 -0.27384020926E+03  0.27994554063E+03  0.47000000000E+01 0.  1.
         -5    1    4    4    0  502 -0.12253585891E+02 -0.42899052171E+02 -0.38161848127E+02  0.58897331831E+02  0.47000000000E+01 0.  1.
          5    1    5    5  503    0 -0.81429968510E+02  0.19820821726E+02 -0.21371651674E+03  0.22960954743E+03  0.47000000000E+01 0.  1.
         -5    1    5    5    0  503  0.41668765526E+02 -0.24837969555E+01 -0.25833492769E+03  0.26172787420E+03  0.47000000000E+01 0.  1.
<mgrwt>
<rscale>  0 0.27287255E+03</rscale>
<asrwt>0</asrwt>
<pdfrwt beam="1">  1        2 0.12417182E+00 0.27287255E+03</pdfrwt>
<pdfrwt beam="2">  1       -2 0.35482152E-02 0.27287255E+03</pdfrwt>
<totfact> 0.11505819E+04</totfact>
</mgrwt>
</event>
<event>
 9    1  0.7944303E-001  0.2713421E+03  0.7818608E-02  0.1100514E+00
          1   -1    0    0  501    0  0.00000000000E+00  0.00000000000E+00  0.93609011108E+03  0.93609011108E+03  0.00000000000E+00 0. -1.
         -1   -1    0    0    0  501 -0.00000000000E+00 -0.00000000000E+00 -0.19663307875E+02  0.19663307875E+02  0.00000000000E+00 0. -1.
         35    2    1    2    0    0  0.00000000000E+00  0.35527136788E-14  0.91642680321E+03  0.95575341896E+03  0.27134205758E+03 0.  0.
         25    2    3    3    0    0 -0.14243239111E+02 -0.27370312307E+02  0.30948355349E+03  0.33537831256E+03  0.12548521348E+03 0.  0.
         25    2    3    3    0    0  0.14243239111E+02  0.27370312307E+02  0.60694324972E+03  0.62037510639E+03  0.12463210019E+03 0.  0.
          5    1    4    4  502    0 -0.69660962077E+01  0.49711333687E+01  0.30057271259E+03  0.30073124915E+03  0.47000000000E+01 0.  1.
         -5    1    4    4    0  502 -0.72771429034E+01 -0.32341445676E+02  0.89108408956E+01  0.34647063407E+02  0.47000000000E+01 0.  1.
          5    1    5    5  503    0  0.17103526734E+02 -0.42030284295E+02  0.38692823137E+03  0.38960829259E+03  0.47000000000E+01 0. -1.
         -5    1    5    5    0  503 -0.28602876225E+01  0.69400596602E+02  0.22001501835E+03  0.23076681381E+03  0.47000000000E+01 0. -1.
<mgrwt>
<rscale>  0 0.27134206E+03</rscale>
<asrwt>0</asrwt>
<pdfrwt beam="1">  1        1 0.14401383E+00 0.27134206E+03</pdfrwt>
<pdfrwt beam="2">  1       -1 0.30251250E-02 0.27134206E+03</pdfrwt>
<totfact> 0.66570137E+03</totfact>
</mgrwt>
</event>
<event>
 9    1  0.7944303E-001  0.2732945E+03  0.7818608E-02  0.1099409E+00
         -2   -1    0    0    0  501 -0.00000000000E+00  0.00000000000E+00  0.24587558819E+02  0.24587558819E+02  0.00000000000E+00 0. -1.
          2   -1    0    0  501    0  0.00000000000E+00 -0.00000000000E+00 -0.75942744383E+03  0.75942744383E+03  0.00000000000E+00 0. -1.
         35    2    1    2    0    0  0.53290705182E-14  0.14210854715E-13 -0.73483988501E+03  0.78401500265E+03  0.27329447081E+03 0.  0.
         25    2    3    3    0    0 -0.14128093621E+02 -0.50835959657E+02 -0.40084502933E+03  0.42351396552E+03  0.12610885626E+03 0.  0.
         25    2    3    3    0    0  0.14128093621E+02  0.50835959657E+02 -0.33399485569E+03  0.36050103714E+03  0.12499814530E+03 0.  0.
          5    1    4    4  502    0  0.12238889362E+02  0.38650783581E+02 -0.16176565665E+03  0.16683492187E+03  0.47000000000E+01 0. -1.
         -5    1    4    4    0  502 -0.26366982983E+02 -0.89486743237E+02 -0.23907937267E+03  0.25667904364E+03  0.47000000000E+01 0. -1.
          5    1    5    5  503    0  0.32009377489E+02 -0.13729724104E+02 -0.25233496677E+03  0.25477074209E+03  0.47000000000E+01 0.  1.
         -5    1    5    5    0  503 -0.17881283868E+02  0.64565683760E+02 -0.81659888915E+02  0.10573029504E+03  0.47000000000E+01 0.  1.
<mgrwt>
<rscale>  0 0.27329447E+03</rscale>
<asrwt>0</asrwt>
<pdfrwt beam="1">  1        2 0.11683500E+00 0.27329447E+03</pdfrwt>
<pdfrwt beam="2">  1       -2 0.37827011E-02 0.27329447E+03</pdfrwt>
<totfact> 0.11289423E+04</totfact>
</mgrwt>
</event>
<event>
 9    1  0.7944303E-001  0.2705545E+03  0.7818608E-02  0.1100963E+00
          2   -1    0    0  501    0  0.00000000000E+00  0.00000000000E+00  0.63901109947E+03  0.63901109947E+03  0.00000000000E+00 0.  1.
         -2   -1    0    0    0  501 -0.00000000000E+00 -0.00000000000E+00 -0.28637893057E+02  0.28637893057E+02  0.00000000000E+00 0.  1.
         35    2    1    2    0    0  0.35527136788E-14  0.00000000000E+00  0.61037320641E+03  0.66764899252E+03  0.27055447901E+03 0.  0.
         25    2    3    3    0    0 -0.14283090387E+02  0.30592652621E+02  0.21242166554E+03  0.24874514147E+03  0.12494504531E+03 0.  0.
         25    2    3    3    0    0  0.14283090387E+02 -0.30592652621E+02  0.39795154087E+03  0.41890385105E+03  0.12639260454E+03 0.  0.
          5    1    4    4  502    0 -0.36514882865E+02  0.81948119505E+01  0.21351447194E+03  0.21682022817E+03  0.47000000000E+01 0. -1.
         -5    1    4    4    0  502  0.22231792478E+02  0.22397840670E+02 -0.10928064021E+01  0.31924913302E+02  0.47000000000E+01 0. -1.
          5    1    5    5  503    0 -0.29931988828E+02 -0.22912379545E+02  0.30564871490E+02  0.48756563259E+02  0.47000000000E+01 0.  1.
         -5    1    5    5    0  503  0.44215079215E+02 -0.76802730757E+01  0.36738666938E+03  0.37014728779E+03  0.47000000000E+01 0.  1.
<mgrwt>
<rscale>  0 0.27055448E+03</rscale>
<asrwt>0</asrwt>
<pdfrwt beam="1">  1        2 0.98309389E-01 0.27055448E+03</pdfrwt>
<pdfrwt beam="2">  1       -2 0.44058302E-02 0.27055448E+03</pdfrwt>
<totfact> 0.11058706E+04</totfact>
</mgrwt>
</event>
<event>
 9    1  0.7944303E-001  0.2717725E+03  0.7818608E-02  0.1100269E+00
         -1   -1    0    0    0  501 -0.00000000000E+00  0.00000000000E+00  0.13147879233E+03  0.13147879233E+03  0.00000000000E+00 0. -1.
          1   -1    0    0  501    0  0.00000000000E+00 -0.00000000000E+00 -0.14044144145E+03  0.14044144145E+03  0.00000000000E+00 0. -1.
         35    2    1    2    0    0 -0.35527136788E-14  0.35527136788E-14 -0.89626491221E+01  0.27192023377E+03  0.27177248657E+03 0.  0.
         25    2    3    3    0    0  0.17042828880E+02 -0.14293724729E+02  0.44790030640E+02  0.13415066031E+03  0.12448085890E+03 0.  0.
         25    2    3    3    0    0 -0.17042828880E+02  0.14293724729E+02 -0.53752679762E+02  0.13776957347E+03  0.12488529220E+03 0.  0.
          5    1    4    4  502    0 -0.27515174238E+02 -0.11984772708E+02  0.74422374150E+02  0.80383452056E+02  0.47000000000E+01 0. -1.
         -5    1    4    4    0  502  0.44558003118E+02 -0.23089520204E+01 -0.29632343511E+02  0.53767208252E+02  0.47000000000E+01 0. -1.
          5    1    5    5  503    0 -0.99616141280E+01 -0.39269824618E+02 -0.70121034938E+02  0.81119679624E+02  0.47000000000E+01 0. -1.
         -5    1    5    5    0  503 -0.70812147518E+01  0.53563549347E+02  0.16368355176E+02  0.56649893841E+02  0.47000000000E+01 0. -1.
<mgrwt>
<rscale>  0 0.27177249E+03</rscale>
<asrwt>0</asrwt>
<pdfrwt beam="1">  1        1 0.21606376E-01 0.27177249E+03</pdfrwt>
<pdfrwt beam="2">  1       -1 0.20227507E-01 0.27177249E+03</pdfrwt>
<totfact> 0.45395136E+03</totfact>
</mgrwt>
</event>
<event>
 9    1  0.7944303E-001  0.2752149E+03  0.7818608E-02  0.1098332E+00
         -2   -1    0    0    0  501 -0.00000000000E+00  0.00000000000E+00  0.16737383454E+02  0.16737383454E+02  0.00000000000E+00 0. -1.
          2   -1    0    0  501    0  0.00000000000E+00 -0.00000000000E+00 -0.11313484260E+04  0.11313484260E+04  0.00000000000E+00 0. -1.
         35    2    1    2    0    0  0.00000000000E+00  0.00000000000E+00 -0.11146110425E+04  0.11480858094E+04  0.27521491548E+03 0.  0.
         25    2    3    3    0    0  0.46143250025E+02  0.38307208071E+02 -0.59928836397E+03  0.61440569604E+03  0.12145441298E+03 0.  0.
         25    2    3    3    0    0 -0.46143250025E+02 -0.38307208071E+02 -0.51532267856E+03  0.53368011339E+03  0.12514135479E+03 0.  0.
          5    1    4    4  502    0  0.46644484162E+02 -0.36991670240E+02 -0.24498370836E+03  0.25215709177E+03  0.47000000000E+01 0. -1.
         -5    1    4    4    0  502 -0.50123413711E+00  0.75298878312E+02 -0.35430465561E+03  0.36224860427E+03  0.47000000000E+01 0. -1.
          5    1    5    5  503    0  0.63030433830E+01 -0.23105063052E+02 -0.43921256228E+03  0.43989014215E+03  0.47000000000E+01 0. -1.
         -5    1    5    5    0  503 -0.52446293408E+02 -0.15202145019E+02 -0.76110116276E+02  0.93789971239E+02  0.47000000000E+01 0. -1.
<mgrwt>
<rscale>  0 0.27521492E+03</rscale>
<asrwt>0</asrwt>
<pdfrwt beam="1">  1        2 0.17405369E+00 0.27521492E+03</pdfrwt>
<pdfrwt beam="2">  1       -2 0.25749808E-02 0.27521492E+03</pdfrwt>
<totfact> 0.11625531E+04</totfact>
</mgrwt>
</event>
<event>
 9    1  0.7944303E-001  0.2812119E+03  0.7818608E-02  0.1095029E+00
          1   -1    0    0  501    0  0.00000000000E+00  0.00000000000E+00  0.25001848924E+04  0.25001848924E+04  0.00000000000E+00 0. -1.
         -1   -1    0    0    0  501 -0.00000000000E+00 -0.00000000000E+00 -0.79074268065E+01  0.79074268065E+01  0.00000000000E+00 0. -1.
         35    2    1    2    0    0  0.00000000000E+00 -0.71054273576E-14  0.24922774656E+04  0.25080923192E+04  0.28121187058E+03 0.  0.
         25    2    3    3    0    0  0.18217437190E+02  0.62723828735E+02  0.12612782108E+04  0.12690661298E+04  0.12425764736E+03 0.  0.
         25    2    3    3    0    0 -0.18217437190E+02 -0.62723828735E+02  0.12309992547E+04  0.12390261894E+04  0.12474205045E+03 0.  0.
          5    1    4    4  502    0  0.55906740455E+02 -0.27288995460E+00  0.79944348574E+03  0.80140976722E+03  0.47000000000E+01 0.  1.
         -5    1    4    4    0  502 -0.37689303266E+02  0.62996718689E+02  0.46183472510E+03  0.46765636257E+03  0.47000000000E+01 0.  1.
          5    1    5    5  503    0  0.11370612803E+02  0.23769055428E+02  0.67597433340E+03  0.67650398982E+03  0.47000000000E+01 0. -1.
         -5    1    5    5    0  503 -0.29588049992E+02 -0.86492884163E+02  0.55502492134E+03  0.56252219958E+03  0.47000000000E+01 0. -1.
<mgrwt>
<rscale>  0 0.28121187E+03</rscale>
<asrwt>0</asrwt>
<pdfrwt beam="1">  1        1 0.38464320E+00 0.28121187E+03</pdfrwt>
<pdfrwt beam="2">  1       -1 0.12165292E-02 0.28121187E+03</pdfrwt>
<totfact> 0.22432672E+03</totfact>
</mgrwt>
</event>
<event>
 9    1  0.7944303E-001  0.2738219E+03  0.7818608E-02  0.1099112E+00
         -1   -1    0    0    0  501 -0.00000000000E+00  0.00000000000E+00  0.40120869782E+02  0.40120869782E+02  0.00000000000E+00 0. -1.
          1   -1    0    0  501    0  0.00000000000E+00 -0.00000000000E+00 -0.46720343942E+03  0.46720343942E+03  0.00000000000E+00 0. -1.
         35    2    1    2    0    0  0.00000000000E+00  0.00000000000E+00 -0.42708256963E+03  0.50732430920E+03  0.27382190091E+03 0.  0.
         25    2    3    3    0    0  0.12001571851E+02  0.59715883478E+01 -0.11423240218E+03  0.17074737083E+03  0.12619796093E+03 0.  0.
         25    2    3    3    0    0 -0.12001571851E+02 -0.59715883478E+01 -0.31285016745E+03  0.33657693837E+03  0.12340628254E+03 0.  0.
          5    1    4    4  502    0 -0.55936422144E+01  0.23440739947E+02 -0.13552353631E+03  0.13772972089E+03  0.47000000000E+01 0. -1.
         -5    1    4    4    0  502  0.17595214066E+02 -0.17469151599E+02  0.21291134125E+02  0.33017649946E+02  0.47000000000E+01 0. -1.
          5    1    5    5  503    0 -0.39958342604E+02  0.43558684347E+02 -0.10047590496E+03  0.11666844305E+03  0.47000000000E+01 0. -1.
         -5    1    5    5    0  503  0.27956770753E+02 -0.49530272694E+02 -0.21237426249E+03  0.21990849532E+03  0.47000000000E+01 0. -1.
<mgrwt>
<rscale>  0 0.27382190E+03</rscale>
<asrwt>0</asrwt>
<pdfrwt beam="1">  1        1 0.71877447E-01 0.27382190E+03</pdfrwt>
<pdfrwt beam="2">  1       -1 0.61724419E-02 0.27382190E+03</pdfrwt>
<totfact> 0.62932544E+03</totfact>
</mgrwt>
</event>
<event>
 9    1  0.7944303E-001  0.2770582E+03  0.7818608E-02  0.1097307E+00
          2   -1    0    0  501    0  0.00000000000E+00  0.00000000000E+00  0.11229065012E+03  0.11229065012E+03  0.00000000000E+00 0. -1.
         -2   -1    0    0    0  501 -0.00000000000E+00 -0.00000000000E+00 -0.17089854200E+03  0.17089854200E+03  0.00000000000E+00 0. -1.
         35    2    1    2    0    0  0.00000000000E+00  0.00000000000E+00 -0.58607891875E+02  0.28318919212E+03  0.27705817718E+03 0.  0.
         25    2    3    3    0    0  0.86674548110E+01  0.37660495202E+02 -0.76852776876E+02  0.15189848962E+03  0.12519330718E+03 0.  0.
         25    2    3    3    0    0 -0.86674548110E+01 -0.37660495202E+02  0.18244885001E+02  0.13129070250E+03  0.12414078726E+03 0.  0.
          5    1    4    4  502    0 -0.43624436416E+02 -0.21376400291E+02 -0.46044081994E+02  0.67098356378E+02  0.47000000000E+01 0. -1.
         -5    1    4    4    0  502  0.52291891227E+02  0.59036895493E+02 -0.30808694882E+02  0.84800133242E+02  0.47000000000E+01 0. -1.
          5    1    5    5  503    0  0.49288378415E+01 -0.77295528738E+02 -0.13176299581E+02  0.78705762661E+02  0.47000000000E+01 0.  1.
         -5    1    5    5    0  503 -0.13596292653E+02  0.39635033536E+02  0.31421184582E+02  0.52584939838E+02  0.47000000000E+01 0.  1.
<mgrwt>
<rscale>  0 0.27705818E+03</rscale>
<asrwt>0</asrwt>
<pdfrwt beam="1">  1        2 0.17275485E-01 0.27705818E+03</pdfrwt>
<pdfrwt beam="2">  1       -2 0.26292084E-01 0.27705818E+03</pdfrwt>
<totfact> 0.42562987E+03</totfact>
</mgrwt>
</event>
<event>
 9    1  0.7944303E-001  0.2787164E+03  0.7818608E-02  0.1096392E+00
         -1   -1    0    0    0  501 -0.00000000000E+00  0.00000000000E+00  0.27355536319E+03  0.27355536319E+03  0.00000000000E+00 0. -1.
          1   -1    0    0  501    0  0.00000000000E+00 -0.00000000000E+00 -0.70993713366E+02  0.70993713366E+02  0.00000000000E+00 0. -1.
         35    2    1    2    0    0  0.71054273576E-14  0.00000000000E+00  0.20256164982E+03  0.34454907655E+03  0.27871642251E+03 0.  0.
         25    2    3    3    0    0 -0.50216236148E+02  0.36993687729E+02  0.98285535429E+02  0.17015429239E+03  0.12410573492E+03 0.  0.
         25    2    3    3    0    0  0.50216236148E+02 -0.36993687729E+02  0.10427611439E+03  0.17439478417E+03  0.12509927820E+03 0.  0.
          5    1    4    4  502    0 -0.87094080744E+02  0.13387426681E+02  0.88635297993E+02  0.12507161206E+03  0.47000000000E+01 0. -1.
         -5    1    4    4    0  502  0.36877844596E+02  0.23606261048E+02  0.96502374354E+01  0.45082680325E+02  0.47000000000E+01 0. -1.
          5    1    5    5  503    0  0.49889609635E+02  0.38415392657E+02  0.58360704161E+02  0.85981261520E+02  0.47000000000E+01 0. -1.
         -5    1    5    5    0  503  0.32662651379E+00 -0.75409080387E+02  0.45915410233E+02  0.88413522645E+02  0.47000000000E+01 0. -1.
<mgrwt>
<rscale>  0 0.27871642E+03</rscale>
<asrwt>0</asrwt>
<pdfrwt beam="1">  1        1 0.10922110E-01 0.27871642E+03</pdfrwt>
<pdfrwt beam="2">  1       -1 0.42085440E-01 0.27871642E+03</pdfrwt>
<totfact> 0.31969546E+03</totfact>
</mgrwt>
</event>
<event>
 9    1  0.7944303E-001  0.2765499E+03  0.7818608E-02  0.1097588E+00
          2   -1    0    0  501    0  0.00000000000E+00  0.00000000000E+00  0.68548855051E+03  0.68548855051E+03  0.00000000000E+00 0.  1.
         -2   -1    0    0    0  501 -0.00000000000E+00 -0.00000000000E+00 -0.27892461229E+02  0.27892461229E+02  0.00000000000E+00 0.  1.
         35    2    1    2    0    0 -0.14210854715E-13  0.00000000000E+00  0.65759608928E+03  0.71338101174E+03  0.27654990738E+03 0.  0.
         25    2    3    3    0    0  0.50234052142E+02 -0.28351675359E+02  0.36906203083E+03  0.39345246544E+03  0.12357500748E+03 0.  0.
         25    2    3    3    0    0 -0.50234052142E+02  0.28351675359E+02  0.28853405845E+03  0.31992854630E+03  0.12559894250E+03 0.  0.
          5    1    4    4  502    0  0.79265550684E+02 -0.14076694429E+01  0.32253731447E+03  0.33217076676E+03  0.47000000000E+01 0.  1.
         -5    1    4    4    0  502 -0.29031498542E+02 -0.26944005916E+02  0.46524716355E+02  0.61281698689E+02  0.47000000000E+01 0.  1.
          5    1    5    5  503    0 -0.11649095457E+01  0.72087780553E+02  0.15567153496E+03  0.17162086678E+03  0.47000000000E+01 0. -1.
         -5    1    5    5    0  503 -0.49069142596E+02 -0.43736105194E+02  0.13286252350E+03  0.14830767951E+03  0.47000000000E+01 0. -1.
<mgrwt>
<rscale>  0 0.27654991E+03</rscale>
<asrwt>0</asrwt>
<pdfrwt beam="1">  1        2 0.10545976E+00 0.27654991E+03</pdfrwt>
<pdfrwt beam="2">  1       -2 0.42911484E-02 0.27654991E+03</pdfrwt>
<totfact> 0.10592122E+04</totfact>
</mgrwt>
</event>
<event>
 9    1  0.7944303E-001  0.2753879E+03  0.7818608E-02  0.1098235E+00
         -2   -1    0    0    0  501 -0.00000000000E+00  0.00000000000E+00  0.71581771095E+03  0.71581771095E+03  0.00000000000E+00 0.  1.
          2   -1    0    0  501    0  0.00000000000E+00 -0.00000000000E+00 -0.26486673927E+02  0.26486673927E+02  0.00000000000E+00 0.  1.
         35    2    1    2    0    0 -0.35527136788E-14 -0.35527136788E-14  0.68933103702E+03  0.74230438488E+03  0.27538794673E+03 0.  0.
         25    2    3    3    0    0  0.22343758699E+01 -0.18863888049E+02  0.48065916191E+03  0.49708044950E+03  0.12527930648E+03 0.  0.
         25    2    3    3    0    0 -0.22343758699E+01  0.18863888049E+02  0.20867187511E+03  0.24522393538E+03  0.12739697137E+03 0.  0.
          5    1    4    4  502    0  0.20423925755E+02 -0.15224054573E+02  0.47686948047E+03  0.47757250757E+03  0.47000000000E+01 0.  1.
         -5    1    4    4    0  502 -0.18189549886E+02 -0.36398334759E+01  0.37896814400E+01  0.19507941926E+02  0.47000000000E+01 0.  1.
          5    1    5    5  503    0 -0.57740341853E+02  0.11756142703E+02  0.16118108205E+03  0.17167872664E+03  0.47000000000E+01 0. -1.
         -5    1    5    5    0  503  0.55505965983E+02  0.71077453460E+01  0.47490793055E+02  0.73545208740E+02  0.47000000000E+01 0. -1.
<mgrwt>
<rscale>  0 0.27538795E+03</rscale>
<asrwt>0</asrwt>
<pdfrwt beam="1">  1        2 0.40748735E-02 0.27538795E+03</pdfrwt>
<pdfrwt beam="2">  1       -2 0.11012579E+00 0.27538795E+03</pdfrwt>
<totfact> 0.14110231E+03</totfact>
</mgrwt>
</event>
<event>
 9    1  0.7944303E-001  0.2741171E+03  0.7818608E-02  0.1098946E+00
         -1   -1    0    0    0  501 -0.00000000000E+00  0.00000000000E+00  0.16084343287E+03  0.16084343287E+03  0.00000000000E+00 0.  1.
          1   -1    0    0  501    0  0.00000000000E+00 -0.00000000000E+00 -0.11679085702E+03  0.11679085702E+03  0.00000000000E+00 0.  1.
         35    2    1    2    0    0  0.00000000000E+00  0.00000000000E+00  0.44052575854E+02  0.27763428989E+03  0.27411707258E+03 0.  0.
         25    2    3    3    0    0 -0.44490639717E+02  0.24394003182E+02  0.45163062400E+02  0.14235565240E+03  0.12510373756E+03 0.  0.
         25    2    3    3    0    0  0.44490639717E+02 -0.24394003182E+02 -0.11104865461E+01  0.13527863749E+03  0.12539773589E+03 0.  0.
          5    1    4    4  502    0 -0.17899800473E+02 -0.17997064859E+02  0.78105551145E+02  0.82260952585E+02  0.47000000000E+01 0. -1.
         -5    1    4    4    0  502 -0.26590839244E+02  0.42391068041E+02 -0.32942488745E+02  0.60094699817E+02  0.47000000000E+01 0. -1.
          5    1    5    5  503    0 -0.28042044470E+02  0.19084976647E+02 -0.30267969925E+02  0.45703748151E+02  0.47000000000E+01 0.  1.
         -5    1    5    5    0  503  0.72532684187E+02 -0.43478979829E+02  0.29157483379E+02  0.89574889335E+02  0.47000000000E+01 0.  1.
<mgrwt>
<rscale>  0 0.27411707E+03</rscale>
<asrwt>0</asrwt>
<pdfrwt beam="1">  1        1 0.17967824E-01 0.27411707E+03</pdfrwt>
<pdfrwt beam="2">  1       -1 0.24745144E-01 0.27411707E+03</pdfrwt>
<totfact> 0.41353126E+03</totfact>
</mgrwt>
</event>
<event>
 9    1  0.7944303E-001  0.2720537E+03  0.7818608E-02  0.1100110E+00
         -2   -1    0    0    0  501 -0.00000000000E+00  0.00000000000E+00  0.19529562592E+03  0.19529562592E+03  0.00000000000E+00 0. -1.
          2   -1    0    0  501    0  0.00000000000E+00 -0.00000000000E+00 -0.94745079501E+02  0.94745079501E+02  0.00000000000E+00 0. -1.
         35    2    1    2    0    0  0.00000000000E+00  0.71054273576E-14  0.10055054642E+03  0.29004070542E+03  0.27205366826E+03 0.  0.
         25    2    3    3    0    0 -0.41279073410E+02 -0.31522881357E+02  0.58319199049E+02  0.14758093384E+03  0.12522519357E+03 0.  0.
         25    2    3    3    0    0  0.41279073410E+02  0.31522881357E+02  0.42231347369E+02  0.14245977158E+03  0.12575231953E+03 0.  0.
          5    1    4    4  502    0 -0.25337885258E+02 -0.31961425648E+02 -0.34289305079E+02  0.53491939594E+02  0.47000000000E+01 0.  1.
         -5    1    4    4    0  502 -0.15941188152E+02  0.43854429096E+00  0.92608504128E+02  0.94088994242E+02  0.47000000000E+01 0.  1.
          5    1    5    5  503    0  0.14592541532E+02  0.40071043966E+02  0.82609601860E+02  0.93086342459E+02  0.47000000000E+01 0.  1.
         -5    1    5    5    0  503  0.26686531878E+02 -0.85481626091E+01 -0.40378254492E+02  0.49373429124E+02  0.47000000000E+01 0.  1.
<mgrwt>
<rscale>  0 0.27205367E+03</rscale>
<asrwt>0</asrwt>
<pdfrwt beam="1">  1        2 0.14576166E-01 0.27205367E+03</pdfrwt>
<pdfrwt beam="2">  1       -2 0.30045481E-01 0.27205367E+03</pdfrwt>
<totfact> 0.40879614E+03</totfact>
</mgrwt>
</event>
<event>
 9    1  0.7944303E-001  0.2758522E+03  0.7818608E-02  0.1097976E+00
          2   -1    0    0  501    0  0.00000000000E+00  0.00000000000E+00  0.15841844970E+04  0.15841844970E+04  0.00000000000E+00 0. -1.
         -2   -1    0    0    0  501 -0.00000000000E+00 -0.00000000000E+00 -0.12008454459E+02  0.12008454459E+02  0.00000000000E+00 0. -1.
         35    2    1    2    0    0 -0.71054273576E-14  0.00000000000E+00  0.15721760425E+04  0.15961929515E+04  0.27585218787E+03 0.  0.
         25    2    3    3    0    0  0.49375447229E+02 -0.23449193112E+02  0.66170415088E+03  0.67564760796E+03  0.12513795348E+03 0.  0.
         25    2    3    3    0    0 -0.49375447229E+02  0.23449193112E+02  0.91047189167E+03  0.92054534351E+03  0.12432563891E+03 0.  0.
          5    1    4    4  502    0  0.36797378225E+02 -0.73783686146E+02  0.45810634124E+03  0.46549069730E+03  0.47000000000E+01 0. -1.
         -5    1    4    4    0  502  0.12578069003E+02  0.50334493034E+02  0.20359780963E+03  0.21015691066E+03  0.47000000000E+01 0. -1.
          5    1    5    5  503    0  0.14622394476E+02  0.27881774153E+02  0.62520358416E+02  0.70157629426E+02  0.47000000000E+01 0. -1.
         -5    1    5    5    0  503 -0.63997841705E+02 -0.44325810412E+01  0.84795153325E+03  0.85038771408E+03  0.47000000000E+01 0. -1.
<mgrwt>
<rscale>  0 0.27585219E+03</rscale>
<asrwt>0</asrwt>
<pdfrwt beam="1">  1        2 0.24372053E+00 0.27585219E+03</pdfrwt>
<pdfrwt beam="2">  1       -2 0.18474558E-02 0.27585219E+03</pdfrwt>
<totfact> 0.10690558E+04</totfact>
</mgrwt>
</event>
<event>
 9    1  0.7944303E-001  0.2762792E+03  0.7818608E-02  0.1097739E+00
         -2   -1    0    0    0  501 -0.00000000000E+00  0.00000000000E+00  0.87436918303E+01  0.87436918303E+01  0.00000000000E+00 0.  1.
          2   -1    0    0  501    0  0.00000000000E+00 -0.00000000000E+00 -0.21824357711E+04  0.21824357711E+04  0.00000000000E+00 0.  1.
         35    2    1    2    0    0 -0.14210854715E-13 -0.35527136788E-14 -0.21736920793E+04  0.21911794629E+04  0.27627917636E+03 0.  0.
         25    2    3    3    0    0  0.38131542071E+02 -0.24466203699E+01 -0.14324794059E+04  0.14384831914E+04  0.12560510781E+03 0.  0.
         25    2    3    3    0    0 -0.38131542071E+02  0.24466203699E+01 -0.74121267340E+03  0.75269627158E+03  0.12528148143E+03 0.  0.
          5    1    4    4  502    0 -0.34529840842E+02  0.33465007788E+02 -0.65381598742E+03  0.65559869743E+03  0.47000000000E+01 0. -1.
         -5    1    4    4    0  502  0.72661382912E+02 -0.35911628158E+02 -0.77866341846E+03  0.78288449394E+03  0.47000000000E+01 0. -1.
          5    1    5    5  503    0 -0.70831111470E+02 -0.20216484577E+02 -0.27393787994E+03  0.28370725170E+03  0.47000000000E+01 0. -1.
         -5    1    5    5    0  503  0.32699569399E+02  0.22663104947E+02 -0.46727479346E+03  0.46898901988E+03  0.47000000000E+01 0. -1.
<mgrwt>
<rscale>  0 0.27627918E+03</rscale>
<asrwt>0</asrwt>
<pdfrwt beam="1">  1        2 0.33575926E+00 0.27627918E+03</pdfrwt>
<pdfrwt beam="2">  1       -2 0.13451837E-02 0.27627918E+03</pdfrwt>
<totfact> 0.82324826E+03</totfact>
</mgrwt>
</event>
<event>
 9    1  0.7944303E-001  0.2810793E+03  0.7818608E-02  0.1095101E+00
          2   -1    0    0  501    0  0.00000000000E+00  0.00000000000E+00  0.35012032307E+02  0.35012032307E+02  0.00000000000E+00 0. -1.
         -2   -1    0    0    0  501 -0.00000000000E+00 -0.00000000000E+00 -0.56413149872E+03  0.56413149872E+03  0.00000000000E+00 0. -1.
         35    2    1    2    0    0 -0.35527136788E-14 -0.14210854715E-13 -0.52911946642E+03  0.59914353103E+03  0.28107927892E+03 0.  0.
         25    2    3    3    0    0  0.24208853066E+02 -0.59297506499E+02 -0.28482314772E+03  0.31736649582E+03  0.12447893134E+03 0.  0.
         25    2    3    3    0    0 -0.24208853066E+02  0.59297506499E+02 -0.24429631869E+03  0.28177703521E+03  0.12496136763E+03 0.  0.
          5    1    4    4  502    0 -0.26716343598E+02  0.27705963643E+02 -0.88541206443E+02  0.96659291716E+02  0.47000000000E+01 0.  1.
         -5    1    4    4    0  502  0.50925196665E+02 -0.87003470142E+02 -0.19628194128E+03  0.22070720411E+03  0.47000000000E+01 0.  1.
          5    1    5    5  503    0 -0.21403826231E+02  0.82897595091E+01 -0.22615183020E+03  0.22736223124E+03  0.47000000000E+01 0.  1.
         -5    1    5    5    0  503 -0.28050268348E+01  0.51007746990E+02 -0.18144488493E+02  0.54414803971E+02  0.47000000000E+01 0.  1.
<mgrwt>
<rscale>  0 0.28107928E+03</rscale>
<asrwt>0</asrwt>
<pdfrwt beam="1">  1        2 0.53864665E-02 0.28107928E+03</pdfrwt>
<pdfrwt beam="2">  1       -2 0.86789461E-01 0.28107928E+03</pdfrwt>
<totfact> 0.16896775E+03</totfact>
</mgrwt>
</event>
<event>
 9    1  0.7944303E-001  0.2820785E+03  0.7818608E-02  0.1094559E+00
         -2   -1    0    0    0  501 -0.00000000000E+00  0.00000000000E+00  0.11092638512E+03  0.11092638512E+03  0.00000000000E+00 0.  1.
          2   -1    0    0  501    0  0.00000000000E+00 -0.00000000000E+00 -0.17932674424E+03  0.17932674424E+03  0.00000000000E+00 0.  1.
         35    2    1    2    0    0  0.00000000000E+00  0.00000000000E+00 -0.68400359127E+02  0.29025312936E+03  0.28207848194E+03 0.  0.
         25    2    3    3    0    0  0.42201056296E+02  0.47130769968E+02 -0.32828159395E+02  0.14433521851E+03  0.12550987461E+03 0.  0.
         25    2    3    3    0    0 -0.42201056296E+02 -0.47130769968E+02 -0.35572199732E+02  0.14591791084E+03  0.12658758502E+03 0.  0.
          5    1    4    4  502    0 -0.29400977579E+02 -0.24818423263E+02 -0.12309330942E+02  0.40669168225E+02  0.47000000000E+01 0. -1.
         -5    1    4    4    0  502  0.71602033875E+02  0.71949193232E+02 -0.20518828454E+02  0.10366605029E+03  0.47000000000E+01 0. -1.
          5    1    5    5  503    0 -0.85199770846E+02 -0.32421421702E+02 -0.59647408407E+01  0.91475776414E+02  0.47000000000E+01 0.  1.
         -5    1    5    5    0  503  0.42998714550E+02 -0.14709348267E+02 -0.29607458891E+02  0.54442134431E+02  0.47000000000E+01 0.  1.
<mgrwt>
<rscale>  0 0.28207848E+03</rscale>
<asrwt>0</asrwt>
<pdfrwt beam="1">  1        2 0.27588730E-01 0.28207848E+03</pdfrwt>
<pdfrwt beam="2">  1       -2 0.17065598E-01 0.28207848E+03</pdfrwt>
<totfact> 0.52769489E+03</totfact>
</mgrwt>
</event>
<event>
 9    1  0.7944303E-001  0.2733808E+03  0.7818608E-02  0.1099360E+00
         -2   -1    0    0    0  501 -0.00000000000E+00  0.00000000000E+00  0.26793057715E+02  0.26793057715E+02  0.00000000000E+00 0. -1.
          2   -1    0    0  501    0  0.00000000000E+00 -0.00000000000E+00 -0.69735456187E+03  0.69735456187E+03  0.00000000000E+00 0. -1.
         35    2    1    2    0    0  0.71054273576E-14  0.00000000000E+00 -0.67056150416E+03  0.72414761959E+03  0.27338076761E+03 0.  0.
         25    2    3    3    0    0  0.44735285657E+01  0.47041683482E+02 -0.41309127189E+03  0.43527097997E+03  0.12877691815E+03 0.  0.
         25    2    3    3    0    0 -0.44735285657E+01 -0.47041683482E+02 -0.25747023227E+03  0.28887663962E+03  0.12217143680E+03 0.  0.
          5    1    4    4  502    0  0.40003604693E+02  0.20612069024E+02 -0.42703712292E+02  0.62216097767E+02  0.47000000000E+01 0.  1.
         -5    1    4    4    0  502 -0.35530076127E+02  0.26429614458E+02 -0.37038755959E+03  0.37305488220E+03  0.47000000000E+01 0.  1.
          5    1    5    5  503    0  0.47194326278E+02 -0.20432867161E+02 -0.44825369936E+02  0.68382821550E+02  0.47000000000E+01 0.  1.
         -5    1    5    5    0  503 -0.51667854844E+02 -0.26608816321E+02 -0.21264486233E+03  0.22049381807E+03  0.47000000000E+01 0.  1.
<mgrwt>
<rscale>  0 0.27338077E+03</rscale>
<asrwt>0</asrwt>
<pdfrwt beam="1">  1        2 0.10728530E+00 0.27338077E+03</pdfrwt>
<pdfrwt beam="2">  1       -2 0.41220095E-02 0.27338077E+03</pdfrwt>
<totfact> 0.11018357E+04</totfact>
</mgrwt>
</event>
<event>
 9    1  0.7944303E-001  0.2828519E+03  0.7818608E-02  0.1094141E+00
         -1   -1    0    0    0  501 -0.00000000000E+00  0.00000000000E+00  0.12610450876E+02  0.12610450876E+02  0.00000000000E+00 0. -1.
          1   -1    0    0  501    0  0.00000000000E+00 -0.00000000000E+00 -0.15860892062E+04  0.15860892062E+04  0.00000000000E+00 0. -1.
         35    2    1    2    0    0  0.00000000000E+00 -0.35527136788E-14 -0.15734787553E+04  0.15986996571E+04  0.28285190485E+03 0.  0.
         25    2    3    3    0    0  0.64463640265E+02  0.30553743512E+02 -0.91821332625E+03  0.92800134426E+03  0.11393722084E+03 0.  0.
         25    2    3    3    0    0 -0.64463640265E+02 -0.30553743512E+02 -0.65526542906E+03  0.67069831280E+03  0.12399335511E+03 0.  0.
          5    1    4    4  502    0  0.35917847359E+02 -0.12284049536E+02 -0.85276554976E+02  0.93462133832E+02  0.47000000000E+01 0. -1.
         -5    1    4    4    0  502  0.28545792906E+02  0.42837793048E+02 -0.83293677127E+03  0.83453921043E+03  0.47000000000E+01 0. -1.
          5    1    5    5  503    0 -0.93147316156E+02 -0.15511449490E+02 -0.59166102844E+03  0.59916766447E+03  0.47000000000E+01 0. -1.
         -5    1    5    5    0  503  0.28683675890E+02 -0.15042294022E+02 -0.63604400626E+02  0.71530648334E+02  0.47000000000E+01 0. -1.
<mgrwt>
<rscale>  0 0.28285190E+03</rscale>
<asrwt>0</asrwt>
<pdfrwt beam="1">  1        1 0.24401359E+00 0.28285190E+03</pdfrwt>
<pdfrwt beam="2">  1       -1 0.19400705E-02 0.28285190E+03</pdfrwt>
<totfact> 0.45018786E+03</totfact>
</mgrwt>
</event>
<event>
 9    1  0.7944303E-001  0.2718203E+03  0.7818608E-02  0.1100242E+00
         -2   -1    0    0    0  501 -0.00000000000E+00  0.00000000000E+00  0.76566014349E+01  0.76566014349E+01  0.00000000000E+00 0. -1.
          2   -1    0    0  501    0  0.00000000000E+00 -0.00000000000E+00 -0.24125018694E+04  0.24125018694E+04  0.00000000000E+00 0. -1.
         35    2    1    2    0    0  0.71054273576E-14 -0.71054273576E-14 -0.24048452679E+04  0.24201584708E+04  0.27182027352E+03 0.  0.
         25    2    3    3    0    0 -0.52800088251E+02  0.18748567563E+02 -0.11492414555E+04  0.11573350663E+04  0.12461610930E+03 0.  0.
         25    2    3    3    0    0  0.52800088251E+02 -0.18748567563E+02 -0.12556038125E+04  0.12628234045E+04  0.12264851769E+03 0.  0.
          5    1    4    4  502    0 -0.77864939860E+01 -0.49522293800E+02 -0.58743577135E+03  0.58958965606E+03  0.47000000000E+01 0. -1.
         -5    1    4    4    0  502 -0.45013594265E+02  0.68270861364E+02 -0.56180568411E+03  0.56774541026E+03  0.47000000000E+01 0. -1.
          5    1    5    5  503    0  0.37445249173E+02 -0.34301916201E+01 -0.98970153485E+02  0.10597685682E+03  0.47000000000E+01 0. -1.
         -5    1    5    5    0  503  0.15354839079E+02 -0.15318375943E+02 -0.11566336590E+04  0.11568465477E+04  0.47000000000E+01 0. -1.
<mgrwt>
<rscale>  0 0.27182027E+03</rscale>
<asrwt>0</asrwt>
<pdfrwt beam="1">  1        2 0.37115459E+00 0.27182027E+03</pdfrwt>
<pdfrwt beam="2">  1       -2 0.11779372E-02 0.27182027E+03</pdfrwt>
<totfact> 0.75193504E+03</totfact>
</mgrwt>
</event>
<event>
 9    1  0.7944303E-001  0.2777700E+03  0.7818608E-02  0.1096913E+00
         -1   -1    0    0    0  501 -0.00000000000E+00  0.00000000000E+00  0.22359641075E+02  0.22359641075E+02  0.00000000000E+00 0.  1.
          1   -1    0    0  501    0  0.00000000000E+00 -0.00000000000E+00 -0.86267227419E+03  0.86267227419E+03  0.00000000000E+00 0.  1.
         35    2    1    2    0    0  0.35527136788E-14  0.71054273576E-14 -0.84031263312E+03  0.88503191527E+03  0.27776999418E+03 0.  0.
         25    2    3    3    0    0 -0.25380674426E+02 -0.94344112248E+01 -0.23962738952E+03  0.27140193458E+03  0.12451721784E+03 0.  0.
         25    2    3    3    0    0  0.25380674426E+02  0.94344112248E+01 -0.60068524360E+03  0.61362998068E+03  0.12241652080E+03 0.  0.
          5    1    4    4  502    0 -0.44566089654E+02  0.48137743688E+02 -0.10929338440E+03  0.12755591945E+03  0.47000000000E+01 0. -1.
         -5    1    4    4    0  502  0.19185415227E+02 -0.57572154913E+02 -0.13033400512E+03  0.14384601513E+03  0.47000000000E+01 0. -1.
          5    1    5    5  503    0  0.21526747229E+02 -0.55690600705E+02 -0.27643827131E+03  0.28285164256E+03  0.47000000000E+01 0.  1.
         -5    1    5    5    0  503  0.38539271973E+01  0.65125011930E+02 -0.32424697229E+03  0.33077833812E+03  0.47000000000E+01 0.  1.
<mgrwt>
<rscale>  0 0.27776999E+03</rscale>
<asrwt>0</asrwt>
<pdfrwt beam="1">  1        1 0.13271881E+00 0.27776999E+03</pdfrwt>
<pdfrwt beam="2">  1       -1 0.34399447E-02 0.27776999E+03</pdfrwt>
<totfact> 0.62912493E+03</totfact>
</mgrwt>
</event>
<event>
 9    1  0.7944303E-001  0.2760120E+03  0.7818608E-02  0.1097887E+00
          1   -1    0    0  501    0  0.00000000000E+00  0.00000000000E+00  0.49576753453E+02  0.49576753453E+02  0.00000000000E+00 0. -1.
         -1   -1    0    0    0  501 -0.00000000000E+00 -0.00000000000E+00 -0.38416491415E+03  0.38416491415E+03  0.00000000000E+00 0. -1.
         35    2    1    2    0    0  0.00000000000E+00  0.71054273576E-14 -0.33458816070E+03  0.43374166760E+03  0.27601195071E+03 0.  0.
         25    2    3    3    0    0 -0.57175534179E+02 -0.24604188331E+02 -0.12626178418E+03  0.18296106488E+03  0.11686875256E+03 0.  0.
         25    2    3    3    0    0  0.57175534179E+02  0.24604188331E+02 -0.20832637651E+03  0.25078060272E+03  0.12496649054E+03 0.  0.
          5    1    4    4  502    0 -0.85456261489E+02  0.10318780442E+02 -0.71747542082E+02  0.11215636251E+03  0.47000000000E+01 0. -1.
         -5    1    4    4    0  502  0.28280727310E+02 -0.34922968772E+02 -0.54514242100E+02  0.70804702364E+02  0.47000000000E+01 0. -1.
          5    1    5    5  503    0 -0.94658777690E+01 -0.42994367541E+02 -0.58772587465E+02  0.73582780047E+02  0.47000000000E+01 0.  1.
         -5    1    5    5    0  503  0.66641411948E+02  0.67598555872E+02 -0.14955378905E+03  0.17719782268E+03  0.47000000000E+01 0.  1.
<mgrwt>
<rscale>  0 0.27601195E+03</rscale>
<asrwt>0</asrwt>
<pdfrwt beam="1">  1        1 0.76271926E-02 0.27601195E+03</pdfrwt>
<pdfrwt beam="2">  1       -1 0.59102296E-01 0.27601195E+03</pdfrwt>
<totfact> 0.27694355E+03</totfact>
</mgrwt>
</event>
<event>
 9    1  0.7944303E-001  0.2769276E+03  0.7818608E-02  0.1097379E+00
         -1   -1    0    0    0  501 -0.00000000000E+00  0.00000000000E+00  0.25436072335E+03  0.25436072335E+03  0.00000000000E+00 0.  1.
          1   -1    0    0  501    0  0.00000000000E+00 -0.00000000000E+00 -0.75374143099E+02  0.75374143099E+02  0.00000000000E+00 0.  1.
         35    2    1    2    0    0  0.00000000000E+00  0.00000000000E+00  0.17898658025E+03  0.32973486645E+03  0.27692758303E+03 0.  0.
         25    2    3    3    0    0 -0.14798743194E+02  0.14290163445E+02  0.44864268434E+02  0.14517649230E+03  0.13652911691E+03 0.  0.
         25    2    3    3    0    0  0.14798743194E+02 -0.14290163445E+02  0.13412231182E+03  0.18455837414E+03  0.12509911018E+03 0.  0.
          5    1    4    4  502    0  0.58097887011E+02  0.25026083534E+02  0.28554696407E+02  0.69563855694E+02  0.47000000000E+01 0. -1.
         -5    1    4    4    0  502 -0.72896630204E+02 -0.10735920089E+02  0.16309572026E+02  0.75612636609E+02  0.47000000000E+01 0. -1.
          5    1    5    5  503    0 -0.33108781238E+02 -0.34232978318E+02  0.85615932514E+01  0.48615625868E+02  0.47000000000E+01 0.  1.
         -5    1    5    5    0  503  0.47907524431E+02  0.19942814873E+02  0.12556071856E+03  0.13594274828E+03  0.47000000000E+01 0.  1.
<mgrwt>
<rscale>  0 0.27692758E+03</rscale>
<asrwt>0</asrwt>
<pdfrwt beam="1">  1        1 0.11596022E-01 0.27692758E+03</pdfrwt>
<pdfrwt beam="2">  1       -1 0.39132419E-01 0.27692758E+03</pdfrwt>
<totfact> 0.33587870E+03</totfact>
</mgrwt>
</event>
<event>
 9    1  0.7944303E-001  0.2752696E+03  0.7818608E-02  0.1098301E+00
         -2   -1    0    0    0  501 -0.00000000000E+00  0.00000000000E+00  0.43325821227E+02  0.43325821227E+02  0.00000000000E+00 0.  1.
          2   -1    0    0  501    0  0.00000000000E+00 -0.00000000000E+00 -0.43722972006E+03  0.43722972006E+03  0.00000000000E+00 0.  1.
         35    2    1    2    0    0  0.00000000000E+00  0.14210854715E-13 -0.39390389884E+03  0.48055554129E+03  0.27526958921E+03 0.  0.
         25    2    3    3    0    0 -0.40541967021E+02  0.38901696008E+02 -0.14414952128E+03  0.19634778942E+03  0.12089820876E+03 0.  0.
         25    2    3    3    0    0  0.40541967021E+02 -0.38901696008E+02 -0.24975437756E+03  0.28420775187E+03  0.12344960135E+03 0.  0.
          5    1    4    4  502    0 -0.15492574212E+02 -0.26315236929E+01  0.19567399580E+02  0.25532682957E+02  0.47000000000E+01 0. -1.
         -5    1    4    4    0  502 -0.25049392809E+02  0.41533219701E+02 -0.16371692086E+03  0.17081510646E+03  0.47000000000E+01 0. -1.
          5    1    5    5  503    0  0.16913928867E+02  0.41585865412E+02 -0.49217131487E+02  0.66782342155E+02  0.47000000000E+01 0.  1.
         -5    1    5    5    0  503  0.23628038154E+02 -0.80487561420E+02 -0.20053724607E+03  0.21742540972E+03  0.47000000000E+01 0.  1.
<mgrwt>
<rscale>  0 0.27526959E+03</rscale>
<asrwt>0</asrwt>
<pdfrwt beam="1">  1        2 0.67266111E-01 0.27526959E+03</pdfrwt>
<pdfrwt beam="2">  1       -2 0.66655109E-02 0.27526959E+03</pdfrwt>
<totfact> 0.90419168E+03</totfact>
</mgrwt>
</event>
<event>
 9    1  0.7944303E-001  0.2741246E+03  0.7818608E-02  0.1098942E+00
         -1   -1    0    0    0  501 -0.00000000000E+00  0.00000000000E+00  0.23436504510E+03  0.23436504510E+03  0.00000000000E+00 0.  1.
          1   -1    0    0  501    0  0.00000000000E+00 -0.00000000000E+00 -0.80157306198E+02  0.80157306198E+02  0.00000000000E+00 0.  1.
         35    2    1    2    0    0  0.00000000000E+00  0.00000000000E+00  0.15420773890E+03  0.31452235130E+03  0.27412457520E+03 0.  0.
         25    2    3    3    0    0 -0.53188753638E+02 -0.81169799563E+00  0.53441494055E+02  0.14615651002E+03  0.12520395268E+03 0.  0.
         25    2    3    3    0    0  0.53188753638E+02  0.81169799563E+00  0.10076624484E+03  0.16836584128E+03  0.12394965931E+03 0.  0.
          5    1    4    4  502    0 -0.90834810152E+02 -0.20300165307E+02  0.33045102613E+02  0.98879362122E+02  0.47000000000E+01 0.  1.
         -5    1    4    4    0  502  0.37646056514E+02  0.19488467312E+02  0.20396391442E+02  0.47277147895E+02  0.47000000000E+01 0.  1.
          5    1    5    5  503    0  0.75500196571E+02  0.41604755319E+02  0.51812495832E+02  0.10068694092E+03  0.47000000000E+01 0.  1.
         -5    1    5    5    0  503 -0.22311442933E+02 -0.40793057324E+02  0.48953749012E+02  0.67678900360E+02  0.47000000000E+01 0.  1.
<mgrwt>
<rscale>  0 0.27412458E+03</rscale>
<asrwt>0</asrwt>
<pdfrwt beam="1">  1        1 0.12331893E-01 0.27412458E+03</pdfrwt>
<pdfrwt beam="2">  1       -1 0.36056161E-01 0.27412458E+03</pdfrwt>
<totfact> 0.35724850E+03</totfact>
</mgrwt>
</event>
<event>
 9    1  0.7944303E-001  0.2735981E+03  0.7818608E-02  0.1099238E+00
         -2   -1    0    0    0  501 -0.00000000000E+00  0.00000000000E+00  0.90641776620E+01  0.90641776620E+01  0.00000000000E+00 0. -1.
          2   -1    0    0  501    0  0.00000000000E+00 -0.00000000000E+00 -0.20646090643E+04  0.20646090643E+04  0.00000000000E+00 0. -1.
         35    2    1    2    0    0 -0.17763568394E-14  0.71054273576E-14 -0.20555448867E+04  0.20736732420E+04  0.27359812398E+03 0.  0.
         25    2    3    3    0    0 -0.14725212088E+02  0.27903458370E+02 -0.80354558733E+03  0.81505512110E+03  0.13279271308E+03 0.  0.
         25    2    3    3    0    0  0.14725212088E+02 -0.27903458370E+02 -0.12519992993E+04  0.12586181209E+04  0.12498757477E+03 0.  0.
          5    1    4    4  502    0 -0.79144136974E+01 -0.50269843761E+02 -0.20064125733E+03  0.20704757734E+03  0.47000000000E+01 0.  1.
         -5    1    4    4    0  502 -0.68107983907E+01  0.78173302131E+02 -0.60290433000E+03  0.60800754376E+03  0.47000000000E+01 0.  1.
          5    1    5    5  503    0  0.50996589110E+02 -0.59836075667E+02 -0.86682862410E+03  0.87039931158E+03  0.47000000000E+01 0.  1.
         -5    1    5    5    0  503 -0.36271377022E+02  0.31932617297E+02 -0.38517067524E+03  0.38821880931E+03  0.47000000000E+01 0.  1.
<mgrwt>
<rscale>  0 0.27359812E+03</rscale>
<asrwt>0</asrwt>
<pdfrwt beam="1">  1        2 0.31763213E+00 0.27359812E+03</pdfrwt>
<pdfrwt beam="2">  1       -2 0.13944890E-02 0.27359812E+03</pdfrwt>
<totfact> 0.90165230E+03</totfact>
</mgrwt>
</event>
<event>
 9    1  0.7944303E-001  0.2713698E+03  0.7818608E-02  0.1100498E+00
          1   -1    0    0  501    0  0.00000000000E+00  0.00000000000E+00  0.23722015020E+03  0.23722015020E+03  0.00000000000E+00 0. -1.
         -1   -1    0    0    0  501 -0.00000000000E+00 -0.00000000000E+00 -0.77608903415E+02  0.77608903415E+02  0.00000000000E+00 0. -1.
         35    2    1    2    0    0  0.14210854715E-13  0.00000000000E+00  0.15961124679E+03  0.31482905362E+03  0.27136982681E+03 0.  0.
         25    2    3    3    0    0  0.38970710370E+02  0.40868273519E+02  0.95102671869E+02  0.16670529294E+03  0.12472852300E+03 0.  0.
         25    2    3    3    0    0 -0.38970710370E+02 -0.40868273519E+02  0.64508574919E+02  0.14812376068E+03  0.12079056334E+03 0.  0.
          5    1    4    4  502    0  0.51732108235E+02  0.39367098710E+02  0.12098775374E+03  0.13742672971E+03  0.47000000000E+01 0.  1.
         -5    1    4    4    0  502 -0.12761397865E+02  0.15011748094E+01 -0.25885081871E+02  0.29278563229E+02  0.47000000000E+01 0.  1.
          5    1    5    5  503    0  0.38083009930E+02 -0.21197426140E+02  0.51120790095E+02  0.67342940983E+02  0.47000000000E+01 0. -1.
         -5    1    5    5    0  503 -0.77053720300E+02 -0.19670847379E+02  0.13387784824E+02  0.80780819698E+02  0.47000000000E+01 0. -1.
<mgrwt>
<rscale>  0 0.27136983E+03</rscale>
<asrwt>0</asrwt>
<pdfrwt beam="1">  1        1 0.36495407E-01 0.27136983E+03</pdfrwt>
<pdfrwt beam="2">  1       -1 0.11939831E-01 0.27136983E+03</pdfrwt>
<totfact> 0.54088912E+03</totfact>
</mgrwt>
</event>
<event>
 9    1  0.7944303E-001  0.2760825E+03  0.7818608E-02  0.1097848E+00
         -2   -1    0    0    0  501 -0.00000000000E+00  0.00000000000E+00  0.47531375240E+02  0.47531375240E+02  0.00000000000E+00 0. -1.
          2   -1    0    0  501    0  0.00000000000E+00 -0.00000000000E+00 -0.40090134145E+03  0.40090134145E+03  0.00000000000E+00 0. -1.
         35    2    1    2    0    0  0.35527136788E-14 -0.71054273576E-14 -0.35336996621E+03  0.44843271669E+03  0.27608253907E+03 0.  0.
         25    2    3    3    0    0 -0.69093394688E+01  0.27184704670E+02 -0.25968596659E+03  0.28956860301E+03  0.12500570973E+03 0.  0.
         25    2    3    3    0    0  0.69093394688E+01 -0.27184704670E+02 -0.93683999618E+02  0.15886411368E+03  0.12519731503E+03 0.  0.
          5    1    4    4  502    0 -0.39197826196E+02  0.62251016366E+02 -0.11007681391E+03  0.13247887974E+03  0.47000000000E+01 0. -1.
         -5    1    4    4    0  502  0.32288486727E+02 -0.35066311696E+02 -0.14960915268E+03  0.15708972327E+03  0.47000000000E+01 0. -1.
          5    1    5    5  503    0  0.32761848819E+02 -0.62235631584E+02 -0.90818599732E+02  0.11496399712E+03  0.47000000000E+01 0.  1.
         -5    1    5    5    0  503 -0.25852509350E+02  0.35050926914E+02 -0.28653998866E+01  0.43900116557E+02  0.47000000000E+01 0.  1.
<mgrwt>
<rscale>  0 0.27608254E+03</rscale>
<asrwt>0</asrwt>
<pdfrwt beam="1">  1        2 0.61677128E-01 0.27608254E+03</pdfrwt>
<pdfrwt beam="2">  1       -2 0.73125195E-02 0.27608254E+03</pdfrwt>
<totfact> 0.86128734E+03</totfact>
</mgrwt>
</event>
<event>
 9    1  0.7944303E-001  0.2767869E+03  0.7818608E-02  0.1097457E+00
          2   -1    0    0  501    0  0.00000000000E+00  0.00000000000E+00  0.77022630028E+03  0.77022630028E+03  0.00000000000E+00 0.  1.
         -2   -1    0    0    0  501 -0.00000000000E+00 -0.00000000000E+00 -0.24866393034E+02  0.24866393034E+02  0.00000000000E+00 0.  1.
         35    2    1    2    0    0 -0.71054273576E-14  0.00000000000E+00  0.74535990725E+03  0.79509269331E+03  0.27678692099E+03 0.  0.
         25    2    3    3    0    0 -0.36970285893E+02 -0.89251639178E+01  0.49486317818E+03  0.51184284676E+03  0.12508826514E+03 0.  0.
         25    2    3    3    0    0  0.36970285893E+02  0.89251639178E+01  0.25049672907E+03  0.28324984655E+03  0.12663097452E+03 0.  0.
          5    1    4    4  502    0  0.12566874048E+02 -0.58633447926E+02  0.21214657397E+03  0.22050865377E+03  0.47000000000E+01 0.  1.
         -5    1    4    4    0  502 -0.49537159941E+02  0.49708284008E+02  0.28271660421E+03  0.29133419300E+03  0.47000000000E+01 0.  1.
          5    1    5    5  503    0 -0.38714958028E+02 -0.20239805503E+02  0.13551475080E+03  0.14245994310E+03  0.47000000000E+01 0. -1.
         -5    1    5    5    0  503  0.75685243921E+02  0.29164969421E+02  0.11498197826E+03  0.14078990345E+03  0.47000000000E+01 0. -1.
<mgrwt>
<rscale>  0 0.27678692E+03</rscale>
<asrwt>0</asrwt>
<pdfrwt beam="1">  1        2 0.11849634E+00 0.27678692E+03</pdfrwt>
<pdfrwt beam="2">  1       -2 0.38255995E-02 0.27678692E+03</pdfrwt>
<totfact> 0.10910503E+04</totfact>
</mgrwt>
</event>
<event>
 9    1  0.7944303E-001  0.2765841E+03  0.7818608E-02  0.1097569E+00
          1   -1    0    0  501    0  0.00000000000E+00  0.00000000000E+00  0.38541419513E+04  0.38541419513E+04  0.00000000000E+00 0.  1.
         -1   -1    0    0    0  501 -0.00000000000E+00 -0.00000000000E+00 -0.49621123193E+01  0.49621123193E+01  0.00000000000E+00 0.  1.
         35    2    1    2    0    0  0.71054273576E-14  0.71054273576E-14  0.38491798390E+04  0.38591040636E+04  0.27658405780E+03 0.  0.
         25    2    3    3    0    0  0.51015530587E+02  0.31593453529E+02  0.18974588291E+04  0.19024834217E+04  0.12446859383E+03 0.  0.
         25    2    3    3    0    0 -0.51015530587E+02 -0.31593453529E+02  0.19517210098E+04  0.19566206419E+04  0.12469444860E+03 0.  0.
          5    1    4    4  502    0  0.42366947917E+02 -0.17906496829E+02  0.16075248467E+04  0.16081896106E+04  0.47000000000E+01 0.  1.
         -5    1    4    4    0  502  0.86485826700E+01  0.49499950358E+02  0.28993398245E+03  0.29429381109E+03  0.47000000000E+01 0.  1.
          5    1    5    5  503    0  0.25157088424E+02  0.29447972505E+02  0.43073305251E+03  0.43249637537E+03  0.47000000000E+01 0.  1.
         -5    1    5    5    0  503 -0.76172619010E+02 -0.61041426034E+02  0.15209879573E+04  0.15241242666E+04  0.47000000000E+01 0.  1.
<mgrwt>
<rscale>  0 0.27658406E+03</rscale>
<asrwt>0</asrwt>
<pdfrwt beam="1">  1        1 0.59294252E+00 0.27658406E+03</pdfrwt>
<pdfrwt beam="2">  1       -1 0.76340497E-03 0.27658406E+03</pdfrwt>
<totfact> 0.46010998E+02</totfact>
</mgrwt>
</event>
<event>
 9    1  0.7944303E-001  0.3196637E+03  0.7818608E-02  0.1075804E+00
         -2   -1    0    0    0  501 -0.00000000000E+00  0.00000000000E+00  0.23523966555E+02  0.23523966555E+02  0.00000000000E+00 0. -1.
          2   -1    0    0  501    0  0.00000000000E+00 -0.00000000000E+00 -0.10859654848E+04  0.10859654848E+04  0.00000000000E+00 0. -1.
         35    2    1    2    0    0 -0.14210854715E-13  0.00000000000E+00 -0.10624415182E+04  0.11094894513E+04  0.31966367165E+03 0.  0.
         25    2    3    3    0    0  0.86849086833E+02 -0.44679747354E+02 -0.47267858995E+03  0.49868114025E+03  0.12537458493E+03 0.  0.
         25    2    3    3    0    0 -0.86849086833E+02  0.44679747354E+02 -0.58976292827E+03  0.61080831107E+03  0.12540908103E+03 0.  0.
          5    1    4    4  502    0  0.75500089347E+02 -0.97836325282E+01 -0.44744496411E+03  0.45389984453E+03  0.47000000000E+01 0.  1.
         -5    1    4    4    0  502  0.11348997486E+02 -0.34896114826E+02 -0.25233625833E+02  0.44781295723E+02  0.47000000000E+01 0.  1.
          5    1    5    5  503    0 -0.11484589415E+03  0.19198705267E+02 -0.49758022631E+03  0.51104436334E+03  0.47000000000E+01 0.  1.
         -5    1    5    5    0  503  0.27996807322E+02  0.25481042088E+02 -0.92182701964E+02  0.99763947734E+02  0.47000000000E+01 0.  1.
<mgrwt>
<rscale>  0 0.31966367E+03</rscale>
<asrwt>0</asrwt>
<pdfrwt beam="1">  1        2 0.16707159E+00 0.31966367E+03</pdfrwt>
<pdfrwt beam="2">  1       -2 0.36190723E-02 0.31966367E+03</pdfrwt>
<totfact> 0.74638174E+03</totfact>
</mgrwt>
</event>
<event>
 9    1  0.7944303E-001  0.2768403E+03  0.7818608E-02  0.1097427E+00
          2   -1    0    0  501    0  0.00000000000E+00  0.00000000000E+00  0.83684595034E+03  0.83684595034E+03  0.00000000000E+00 0. -1.
         -2   -1    0    0    0  501 -0.00000000000E+00 -0.00000000000E+00 -0.22895650889E+02  0.22895650889E+02  0.00000000000E+00 0. -1.
         35    2    1    2    0    0  0.00000000000E+00  0.00000000000E+00  0.81395029945E+03  0.85974160123E+03  0.27684026244E+03 0.  0.
         25    2    3    3    0    0  0.10363408026E+02 -0.39596489543E+02  0.54107276978E+03  0.55663504765E+03  0.12412716005E+03 0.  0.
         25    2    3    3    0    0 -0.10363408026E+02  0.39596489543E+02  0.27287752967E+03  0.30310655358E+03  0.12544382972E+03 0.  0.
          5    1    4    4  502    0  0.13697574809E+02 -0.60499584421E+02  0.52728010436E+03  0.53093711654E+03  0.47000000000E+01 0.  1.
         -5    1    4    4    0  502 -0.33341667837E+01  0.20903094878E+02  0.13792665422E+02  0.25697931105E+02  0.47000000000E+01 0.  1.
          5    1    5    5  503    0 -0.58291367629E+02  0.45042041349E+02  0.21662279083E+03  0.22885408569E+03  0.47000000000E+01 0.  1.
         -5    1    5    5    0  503  0.47927959604E+02 -0.54455518058E+01  0.56254738841E+02  0.74252467893E+02  0.47000000000E+01 0.  1.
<mgrwt>
<rscale>  0 0.27684026E+03</rscale>
<asrwt>0</asrwt>
<pdfrwt beam="1">  1        2 0.12874551E+00 0.27684026E+03</pdfrwt>
<pdfrwt beam="2">  1       -2 0.35224085E-02 0.27684026E+03</pdfrwt>
<totfact> 0.11108779E+04</totfact>
</mgrwt>
</event>
<event>
 9    1  0.7944303E-001  0.2688482E+03  0.7818608E-02  0.1101941E+00
          3   -1    0    0  501    0  0.00000000000E+00  0.00000000000E+00  0.55880362376E+02  0.55880362376E+02  0.00000000000E+00 0.  1.
         -3   -1    0    0    0  501 -0.00000000000E+00 -0.00000000000E+00 -0.32336661825E+03  0.32336661825E+03  0.00000000000E+00 0.  1.
         35    2    1    2    0    0  0.00000000000E+00  0.00000000000E+00 -0.26748625587E+03  0.37924698062E+03  0.26884823829E+03 0.  0.
         25    2    3    3    0    0 -0.43711363585E+02  0.10741020809E+02 -0.10133460379E+03  0.16635833164E+03  0.12401749773E+03 0.  0.
         25    2    3    3    0    0  0.43711363585E+02 -0.10741020809E+02 -0.16615165208E+03  0.21288864899E+03  0.12525634733E+03 0.  0.
          5    1    4    4  502    0 -0.12410598249E+02 -0.25224013836E+02  0.20720079122E+02  0.35237558113E+02  0.47000000000E+01 0. -1.
         -5    1    4    4    0  502 -0.31300765336E+02  0.35965034645E+02 -0.12205468291E+03  0.13112077352E+03  0.47000000000E+01 0. -1.
          5    1    5    5  503    0  0.31986247110E+02  0.31218853640E+02 -0.16285748544E+03  0.16894492414E+03  0.47000000000E+01 0.  1.
         -5    1    5    5    0  503  0.11725116475E+02 -0.41959874449E+02 -0.32941666372E+01  0.43943724853E+02  0.47000000000E+01 0.  1.
<mgrwt>
<rscale>  0 0.26884824E+03</rscale>
<asrwt>0</asrwt>
<pdfrwt beam="1">  1        3 0.85969788E-02 0.26884824E+03</pdfrwt>
<pdfrwt beam="2">  1       -3 0.49748711E-01 0.26884824E+03</pdfrwt>
<totfact> 0.97018471E+02</totfact>
</mgrwt>
</event>
<event>
 9    1  0.7944303E-001  0.2811553E+03  0.7818608E-02  0.1095060E+00
         -2   -1    0    0    0  501 -0.00000000000E+00  0.00000000000E+00  0.37729932448E+01  0.37729932448E+01  0.00000000000E+00 0.  1.
          2   -1    0    0  501    0  0.00000000000E+00 -0.00000000000E+00 -0.52377714954E+04  0.52377714954E+04  0.00000000000E+00 0.  1.
         35    2    1    2    0    0 -0.35527136788E-14  0.00000000000E+00 -0.52339985021E+04  0.52415444886E+04  0.28115530562E+03 0.  0.
         25    2    3    3    0    0  0.26422800404E+02 -0.21402535368E+02 -0.15899015557E+04  0.15951593648E+04  0.12486075989E+03 0.  0.
         25    2    3    3    0    0 -0.26422800404E+02  0.21402535368E+02 -0.36440969465E+04  0.36463851239E+04  0.12460210029E+03 0.  0.
          5    1    4    4  502    0 -0.12313127827E+02 -0.65930183308E+02 -0.67362936478E+03  0.67697637572E+03  0.47000000000E+01 0. -1.
         -5    1    4    4    0  502  0.38735928231E+02  0.44527647940E+02 -0.91627219089E+03  0.91818298904E+03  0.47000000000E+01 0. -1.
          5    1    5    5  503    0 -0.23723576758E+02  0.65378350983E+02 -0.29781895336E+04  0.29790052240E+04  0.47000000000E+01 0.  1.
         -5    1    5    5    0  503 -0.26992236461E+01 -0.43975815614E+02 -0.66590741292E+03  0.66737989986E+03  0.47000000000E+01 0.  1.
<mgrwt>
<rscale>  0 0.28115531E+03</rscale>
<asrwt>0</asrwt>
<pdfrwt beam="1">  1        2 0.80581400E+00 0.28115531E+03</pdfrwt>
<pdfrwt beam="2">  1       -2 0.58045834E-03 0.28115531E+03</pdfrwt>
<totfact> 0.11620347E+02</totfact>
</mgrwt>
</event>
<event>
 9    1  0.7944303E-001  0.2845212E+03  0.7818608E-02  0.1093245E+00
         -1   -1    0    0    0  501 -0.00000000000E+00  0.00000000000E+00  0.95152139218E+01  0.95152139218E+01  0.00000000000E+00 0.  1.
          1   -1    0    0  501    0  0.00000000000E+00 -0.00000000000E+00 -0.21269171705E+04  0.21269171705E+04  0.00000000000E+00 0.  1.
         35    2    1    2    0    0  0.00000000000E+00  0.00000000000E+00 -0.21174019566E+04  0.21364323844E+04  0.28452115472E+03 0.  0.
         25    2    3    3    0    0 -0.20204892361E+02  0.54283450284E+02 -0.13344570309E+04  0.13415026592E+04  0.12449452525E+03 0.  0.
         25    2    3    3    0    0  0.20204892361E+02 -0.54283450284E+02 -0.78294492570E+03  0.79492972519E+03  0.12472201354E+03 0.  0.
          5    1    4    4  502    0  0.48035394916E+02  0.38438889455E+01 -0.64763530071E+03  0.64944264364E+03  0.47000000000E+01 0.  1.
         -5    1    4    4    0  502 -0.68240287277E+02  0.50439561338E+02 -0.68682173016E+03  0.69206001559E+03  0.47000000000E+01 0.  1.
          5    1    5    5  503    0 -0.37991094429E+02 -0.21095214006E+01 -0.49642909562E+03  0.49790733105E+03  0.47000000000E+01 0. -1.
         -5    1    5    5    0  503  0.58195986790E+02 -0.52173928883E+02 -0.28651583009E+03  0.29702239414E+03  0.47000000000E+01 0. -1.
<mgrwt>
<rscale>  0 0.28452115E+03</rscale>
<asrwt>0</asrwt>
<pdfrwt beam="1">  1        1 0.32721812E+00 0.28452115E+03</pdfrwt>
<pdfrwt beam="2">  1       -1 0.14638786E-02 0.28452115E+03</pdfrwt>
<totfact> 0.30162565E+03</totfact>
</mgrwt>
</event>
<event>
 9    1  0.7944303E-001  0.2705705E+03  0.7818608E-02  0.1100954E+00
         -1   -1    0    0    0  501 -0.00000000000E+00  0.00000000000E+00  0.18379806637E+03  0.18379806637E+03  0.00000000000E+00 0. -1.
          1   -1    0    0  501    0  0.00000000000E+00 -0.00000000000E+00 -0.99577175274E+02  0.99577175274E+02  0.00000000000E+00 0. -1.
         35    2    1    2    0    0  0.00000000000E+00  0.00000000000E+00  0.84220891100E+02  0.28337524165E+03  0.27057045123E+03 0.  0.
         25    2    3    3    0    0 -0.18605108825E+02 -0.32174010045E+02  0.74146283332E+02  0.14883985027E+03  0.12358929039E+03 0.  0.
         25    2    3    3    0    0  0.18605108825E+02  0.32174010045E+02  0.10074607767E+02  0.13453539138E+03  0.12890677567E+03 0.  0.
          5    1    4    4  502    0 -0.45530314171E+02 -0.47451996593E+02 -0.25690487312E+01  0.65980235681E+02  0.47000000000E+01 0. -1.
         -5    1    4    4    0  502  0.26925205346E+02  0.15277986548E+02  0.76715332064E+02  0.82859614587E+02  0.47000000000E+01 0. -1.
          5    1    5    5  503    0  0.94814348635E+01  0.72263906722E+02  0.40182727137E+02  0.83358931027E+02  0.47000000000E+01 0.  1.
         -5    1    5    5    0  503  0.91236739610E+01 -0.40089896677E+02 -0.30108119370E+02  0.51176460351E+02  0.47000000000E+01 0.  1.
<mgrwt>
<rscale>  0 0.27057045E+03</rscale>
<asrwt>0</asrwt>
<pdfrwt beam="1">  1        1 0.15319565E-01 0.27057045E+03</pdfrwt>
<pdfrwt beam="2">  1       -1 0.28276626E-01 0.27057045E+03</pdfrwt>
<totfact> 0.40702103E+03</totfact>
</mgrwt>
</event>
<event>
 9    1  0.7944303E-001  0.2731931E+03  0.7818608E-02  0.1099466E+00
          2   -1    0    0  501    0  0.00000000000E+00  0.00000000000E+00  0.49142743084E+03  0.49142743084E+03  0.00000000000E+00 0. -1.
         -2   -1    0    0    0  501 -0.00000000000E+00 -0.00000000000E+00 -0.37968193943E+02  0.37968193943E+02  0.00000000000E+00 0. -1.
         35    2    1    2    0    0  0.00000000000E+00  0.71054273576E-14  0.45345923690E+03  0.52939562479E+03  0.27319305997E+03 0.  0.
         25    2    3    3    0    0 -0.18348802481E+02 -0.37068948284E+02  0.29750284056E+03  0.32508179969E+03  0.12433604011E+03 0.  0.
         25    2    3    3    0    0  0.18348802481E+02  0.37068948284E+02  0.15595639634E+03  0.20431382510E+03  0.12534335278E+03 0.  0.
          5    1    4    4  502    0 -0.49053288006E+02 -0.27913036310E+02  0.50238027262E+02  0.75705429418E+02  0.47000000000E+01 0.  1.
         -5    1    4    4    0  502  0.30704485526E+02 -0.91559119742E+01  0.24726481330E+03  0.24937637027E+03  0.47000000000E+01 0.  1.
          5    1    5    5  503    0  0.54488176325E+02  0.37831226599E+02  0.15407517862E+03  0.16781362797E+03  0.47000000000E+01 0.  1.
         -5    1    5    5    0  503 -0.36139373844E+02 -0.76227831456E+00  0.18812177191E+01  0.36500197125E+02  0.47000000000E+01 0.  1.
<mgrwt>
<rscale>  0 0.27319306E+03</rscale>
<asrwt>0</asrwt>
<pdfrwt beam="1">  1        2 0.75604216E-01 0.27319306E+03</pdfrwt>
<pdfrwt beam="2">  1       -2 0.58412609E-02 0.27319306E+03</pdfrwt>
<totfact> 0.97312591E+03</totfact>
</mgrwt>
</event>
<event>
 9    1  0.7944303E-001  0.2785287E+03  0.7818608E-02  0.1096495E+00
          2   -1    0    0  501    0  0.00000000000E+00  0.00000000000E+00  0.24641169601E+04  0.24641169601E+04  0.00000000000E+00 0. -1.
         -2   -1    0    0    0  501 -0.00000000000E+00 -0.00000000000E+00 -0.78707936668E+01  0.78707936668E+01  0.00000000000E+00 0. -1.
         35    2    1    2    0    0  0.13322676296E-14 -0.14210854715E-13  0.24562461664E+04  0.24719877537E+04  0.27852867833E+03 0.  0.
         25    2    3    3    0    0  0.18659780901E+00  0.60422402909E+02  0.13276358923E+04  0.13348449197E+04  0.12467155016E+03 0.  0.
         25    2    3    3    0    0 -0.18659780901E+00 -0.60422402909E+02  0.11286102740E+04  0.11371428340E+04  0.12522688487E+03 0.  0.
          5    1    4    4  502    0  0.31619546008E+02 -0.28602716294E+02  0.33987616245E+03  0.34257233815E+03  0.47000000000E+01 0. -1.
         -5    1    4    4    0  502 -0.31432948199E+02  0.89025119203E+02  0.98775972989E+03  0.99227258154E+03  0.47000000000E+01 0. -1.
          5    1    5    5  503    0  0.15787061874E+01  0.54422724666E+01  0.87624204133E+03  0.87627296868E+03  0.47000000000E+01 0.  1.
         -5    1    5    5    0  503 -0.17653039964E+01 -0.65864675375E+02  0.25236823272E+03  0.26086986535E+03  0.47000000000E+01 0.  1.
<mgrwt>
<rscale>  0 0.27852868E+03</rscale>
<asrwt>0</asrwt>
<pdfrwt beam="1">  1        2 0.37909430E+00 0.27852868E+03</pdfrwt>
<pdfrwt beam="2">  1       -2 0.12108933E-02 0.27852868E+03</pdfrwt>
<totfact> 0.67702711E+03</totfact>
</mgrwt>
</event>
<event>
 9    1  0.7944303E-001  0.2750611E+03  0.7818608E-02  0.1098417E+00
          2   -1    0    0  501    0  0.00000000000E+00  0.00000000000E+00  0.60610800278E+02  0.60610800278E+02  0.00000000000E+00 0. -1.
         -2   -1    0    0    0  501 -0.00000000000E+00 -0.00000000000E+00 -0.31206724613E+03  0.31206724613E+03  0.00000000000E+00 0. -1.
         35    2    1    2    0    0 -0.35527136788E-14  0.00000000000E+00 -0.25145644585E+03  0.37267804641E+03  0.27506105161E+03 0.  0.
         25    2    3    3    0    0  0.35491398231E+01  0.39288148257E+02 -0.73799097890E+02  0.15069124769E+03  0.12532114863E+03 0.  0.
         25    2    3    3    0    0 -0.35491398231E+01 -0.39288148257E+02 -0.17765734796E+03  0.22198679872E+03  0.12712140077E+03 0.  0.
          5    1    4    4  502    0 -0.23945078865E+02 -0.82305791753E+01  0.26060870977E+02  0.36638343733E+02  0.47000000000E+01 0. -1.
         -5    1    4    4    0  502  0.27494218688E+02  0.47518727433E+02 -0.99859968867E+02  0.11405290395E+03  0.47000000000E+01 0. -1.
          5    1    5    5  503    0  0.61203995009E+02 -0.20508932421E+02 -0.74803030753E+02  0.98914754834E+02  0.47000000000E+01 0. -1.
         -5    1    5    5    0  503 -0.64753134832E+02 -0.18779215837E+02 -0.10285431721E+03  0.12307204389E+03  0.47000000000E+01 0. -1.
<mgrwt>
<rscale>  0 0.27506105E+03</rscale>
<asrwt>0</asrwt>
<pdfrwt beam="1">  1        2 0.93247381E-02 0.27506105E+03</pdfrwt>
<pdfrwt beam="2">  1       -2 0.48010347E-01 0.27506105E+03</pdfrwt>
<totfact> 0.29044745E+03</totfact>
</mgrwt>
</event>
<event>
 9    1  0.7944303E-001  0.2737543E+03  0.7818608E-02  0.1099150E+00
         -2   -1    0    0    0  501 -0.00000000000E+00  0.00000000000E+00  0.44540473206E+02  0.44540473206E+02  0.00000000000E+00 0.  1.
          2   -1    0    0  501    0  0.00000000000E+00 -0.00000000000E+00 -0.42063657412E+03  0.42063657412E+03  0.00000000000E+00 0.  1.
         35    2    1    2    0    0  0.71054273576E-14  0.35527136788E-14 -0.37609610091E+03  0.46517704732E+03  0.27375428442E+03 0.  0.
         25    2    3    3    0    0  0.15327705823E+02  0.11251800068E+02 -0.10148017944E+03  0.16272983202E+03  0.12578247032E+03 0.  0.
         25    2    3    3    0    0 -0.15327705823E+02 -0.11251800068E+02 -0.27461592147E+03  0.30244721531E+03  0.12529514017E+03 0.  0.
          5    1    4    4  502    0  0.19120803518E+02 -0.37627437832E+02  0.75114363302E+01  0.43127031902E+02  0.47000000000E+01 0.  1.
         -5    1    4    4    0  502 -0.37930976948E+01  0.48879237900E+02 -0.10899161577E+03  0.11960280011E+03  0.47000000000E+01 0.  1.
          5    1    5    5  503    0  0.53200893379E+02 -0.13398816613E+02 -0.90637541861E+02  0.10605242731E+03  0.47000000000E+01 0. -1.
         -5    1    5    5    0  503 -0.68528599202E+02  0.21470165448E+01 -0.18397837961E+03  0.19639478800E+03  0.47000000000E+01 0. -1.
<mgrwt>
<rscale>  0 0.27375428E+03</rscale>
<asrwt>0</asrwt>
<pdfrwt beam="1">  1        2 0.64713320E-01 0.27375428E+03</pdfrwt>
<pdfrwt beam="2">  1       -2 0.68523804E-02 0.27375428E+03</pdfrwt>
<totfact> 0.90366090E+03</totfact>
</mgrwt>
</event>
<event>
 9    1  0.7944303E-001  0.2553760E+03  0.7818608E-02  0.1109954E+00
          4   -1    0    0  501    0  0.00000000000E+00  0.00000000000E+00  0.83924364711E+02  0.83924364711E+02  0.00000000000E+00 0. -1.
         -4   -1    0    0    0  501 -0.00000000000E+00 -0.00000000000E+00 -0.19427286623E+03  0.19427286623E+03  0.00000000000E+00 0. -1.
         35    2    1    2    0    0  0.35527136788E-14  0.00000000000E+00 -0.11034850152E+03  0.27819723095E+03  0.25537601202E+03 0.  0.
         25    2    3    3    0    0 -0.27244659075E+01 -0.31430623774E+02 -0.64201137179E+02  0.14283271024E+03  0.12362884079E+03 0.  0.
         25    2    3    3    0    0  0.27244659075E+01  0.31430623774E+02 -0.46147364345E+02  0.13536452070E+03  0.12328287555E+03 0.  0.
          5    1    4    4  502    0  0.23855306696E+02 -0.26336858511E+01 -0.91584985365E+02  0.94794047825E+02  0.47000000000E+01 0. -1.
         -5    1    4    4    0  502 -0.26579772604E+02 -0.28796937923E+02  0.27383848186E+02  0.48038662417E+02  0.47000000000E+01 0. -1.
          5    1    5    5  503    0  0.53951462295E+02  0.42643517783E+01 -0.54078128313E+02  0.76651672791E+02  0.47000000000E+01 0.  1.
         -5    1    5    5    0  503 -0.51226996387E+02  0.27166271995E+02  0.79307639677E+01  0.58712847913E+02  0.47000000000E+01 0.  1.
<mgrwt>
<rscale>  0 0.25537601E+03</rscale>
<asrwt>0</asrwt>
<pdfrwt beam="1">  1        4 0.12911441E-01 0.25537601E+03</pdfrwt>
<pdfrwt beam="2">  1       -4 0.29888133E-01 0.25537601E+03</pdfrwt>
<totfact> 0.97337451E+02</totfact>
</mgrwt>
</event>
<event>
 8    1  0.7944303E-001  0.4299656E+03  0.7818608E-02  0.1033871E+00
         -4   -1    0    0    0  501 -0.00000000000E+00  0.00000000000E+00  0.22960691933E+03  0.22960691933E+03  0.00000000000E+00 0. -1.
          4   -1    0    0  501    0  0.00000000000E+00 -0.00000000000E+00 -0.20129008981E+03  0.20129008981E+03  0.00000000000E+00 0. -1.
         25    2    1    2    0    0  0.10550733136E+03 -0.92799325342E+02 -0.91672940468E+02  0.20761820948E+03  0.12230241674E+03 0.  0.
         25    2    1    2    0    0 -0.10550733136E+03  0.92799325342E+02  0.11998976999E+03  0.22327879965E+03  0.12534897573E+03 0.  0.
          5    1    3    3  502    0  0.14754902418E+02 -0.56523770179E+02  0.17354881535E+02  0.61122218986E+02  0.47000000000E+01 0. -1.
         -5    1    3    3    0  502  0.90752428944E+02 -0.36275555163E+02 -0.10902782200E+03  0.14649599050E+03  0.47000000000E+01 0. -1.
          5    1    4    4  503    0 -0.32225973319E+02  0.10124407753E+03  0.10165827851E+03  0.14712366289E+03  0.47000000000E+01 0. -1.
         -5    1    4    4    0  503 -0.73281358042E+02 -0.84447521852E+01  0.18331491472E+02  0.76155136764E+02  0.47000000000E+01 0. -1.
<mgrwt>
<rscale>  0 0.42996557E+03</rscale>
<asrwt>0</asrwt>
<pdfrwt beam="1">  1        4 0.30967706E-01 0.42996557E+03</pdfrwt>
<pdfrwt beam="2">  1       -4 0.35324142E-01 0.42996557E+03</pdfrwt>
<totfact> 0.15155272E+02</totfact>
</mgrwt>
</event>
<event>
 9    1  0.7944303E-001  0.2764164E+03  0.7818608E-02  0.1097662E+00
         -2   -1    0    0    0  501 -0.00000000000E+00  0.00000000000E+00  0.13493494989E+03  0.13493494989E+03  0.00000000000E+00 0.  1.
          2   -1    0    0  501    0  0.00000000000E+00 -0.00000000000E+00 -0.14156085425E+03  0.14156085425E+03  0.00000000000E+00 0.  1.
         35    2    1    2    0    0 -0.71054273576E-14 -0.71054273576E-14 -0.66259043592E+01  0.27649580414E+03  0.27641640164E+03 0.  0.
         25    2    3    3    0    0  0.56632800299E+02 -0.16326113022E+02 -0.40422679914E+01  0.13840649887E+03  0.12516470334E+03 0.  0.
         25    2    3    3    0    0 -0.56632800299E+02  0.16326113022E+02 -0.25836363678E+01  0.13808930526E+03  0.12485257312E+03 0.  0.
          5    1    4    4  502    0  0.38505468364E+02 -0.70805286504E+02 -0.18089457962E+01  0.80755321656E+02  0.47000000000E+01 0.  1.
         -5    1    4    4    0  502  0.18127331936E+02  0.54479173482E+02 -0.22333221952E+01  0.57651177216E+02  0.47000000000E+01 0.  1.
          5    1    5    5  503    0 -0.42736071540E+02 -0.46611959359E+02  0.24550308418E+02  0.67998928001E+02  0.47000000000E+01 0. -1.
         -5    1    5    5    0  503 -0.13896728760E+02  0.62938072381E+02 -0.27133944786E+02  0.70090377263E+02  0.47000000000E+01 0. -1.
<mgrwt>
<rscale>  0 0.27641640E+03</rscale>
<asrwt>0</asrwt>
<pdfrwt beam="1">  1        2 0.21778593E-01 0.27641640E+03</pdfrwt>
<pdfrwt beam="2">  1       -2 0.20759223E-01 0.27641640E+03</pdfrwt>
<totfact> 0.49282262E+03</totfact>
</mgrwt>
</event>
<event>
 9    1  0.7944303E-001  0.2759577E+03  0.7818608E-02  0.1097917E+00
         -2   -1    0    0    0  501 -0.00000000000E+00  0.00000000000E+00  0.37024554082E+02  0.37024554082E+02  0.00000000000E+00 0.  1.
          2   -1    0    0  501    0  0.00000000000E+00 -0.00000000000E+00 -0.51420369963E+03  0.51420369963E+03  0.00000000000E+00 0.  1.
         35    2    1    2    0    0 -0.71054273576E-14  0.35527136788E-14 -0.47717914554E+03  0.55122825371E+03  0.27595769738E+03 0.  0.
         25    2    3    3    0    0  0.51944610491E+02  0.21795201245E+02 -0.20765070367E+03  0.24867064210E+03  0.12467958996E+03 0.  0.
         25    2    3    3    0    0 -0.51944610491E+02 -0.21795201245E+02 -0.26952844188E+03  0.30255761161E+03  0.12538841256E+03 0.  0.
          5    1    4    4  502    0  0.76222500765E+02 -0.20198133839E+02 -0.16871987360E+03  0.18629632305E+03  0.47000000000E+01 0.  1.
         -5    1    4    4    0  502 -0.24277890274E+02  0.41993335083E+02 -0.38930830065E+02  0.62374319051E+02  0.47000000000E+01 0.  1.
          5    1    5    5  503    0 -0.33596518260E+02  0.44175657585E+01 -0.32963555326E+01  0.34368545012E+02  0.47000000000E+01 0.  1.
         -5    1    5    5    0  503 -0.18348092230E+02 -0.26212767003E+02 -0.26623208634E+03  0.26818906660E+03  0.47000000000E+01 0.  1.
<mgrwt>
<rscale>  0 0.27595770E+03</rscale>
<asrwt>0</asrwt>
<pdfrwt beam="1">  1        2 0.79108258E-01 0.27595770E+03</pdfrwt>
<pdfrwt beam="2">  1       -2 0.56960855E-02 0.27595770E+03</pdfrwt>
<totfact> 0.96169175E+03</totfact>
</mgrwt>
</event>
<event>
 9    1  0.7944303E-001  0.2764639E+03  0.7818608E-02  0.1097636E+00
         -2   -1    0    0    0  501 -0.00000000000E+00  0.00000000000E+00  0.71067225176E+01  0.71067225176E+01  0.00000000000E+00 0.  1.
          2   -1    0    0  501    0  0.00000000000E+00 -0.00000000000E+00 -0.26887318196E+04  0.26887318196E+04  0.00000000000E+00 0.  1.
         35    2    1    2    0    0  0.00000000000E+00  0.00000000000E+00 -0.26816250971E+04  0.26958385421E+04  0.27646389252E+03 0.  0.
         25    2    3    3    0    0 -0.56350267148E+02  0.26350458928E+01 -0.12457791061E+04  0.12532671155E+04  0.12462176997E+03 0.  0.
         25    2    3    3    0    0  0.56350267148E+02 -0.26350458928E+01 -0.14358459910E+04  0.14425714266E+04  0.12718614299E+03 0.  0.
          5    1    4    4  502    0  0.11482305924E+02 -0.38460955702E+02 -0.17771151009E+03  0.18224861942E+03  0.47000000000E+01 0.  1.
         -5    1    4    4    0  502 -0.67832573072E+02  0.41096001595E+02 -0.10680675960E+04  0.10710184961E+04  0.47000000000E+01 0.  1.
          5    1    5    5  503    0  0.87528538320E+01 -0.56542276152E+02 -0.91014339164E+03  0.91195215050E+03  0.47000000000E+01 0. -1.
         -5    1    5    5    0  503  0.47597413316E+02  0.53907230259E+02 -0.52570259934E+03  0.53061927611E+03  0.47000000000E+01 0. -1.
<mgrwt>
<rscale>  0 0.27646389E+03</rscale>
<asrwt>0</asrwt>
<pdfrwt beam="1">  1        2 0.41365136E+00 0.27646389E+03</pdfrwt>
<pdfrwt beam="2">  1       -2 0.10933411E-02 0.27646389E+03</pdfrwt>
<totfact> 0.58995485E+03</totfact>
</mgrwt>
</event>
<event>
 9    1  0.7944303E-001  0.2803666E+03  0.7818608E-02  0.1095489E+00
         -2   -1    0    0    0  501 -0.00000000000E+00  0.00000000000E+00  0.14282932744E+02  0.14282932744E+02  0.00000000000E+00 0.  1.
          2   -1    0    0  501    0  0.00000000000E+00 -0.00000000000E+00 -0.13758631669E+04  0.13758631669E+04  0.00000000000E+00 0.  1.
         35    2    1    2    0    0  0.00000000000E+00 -0.35527136788E-14 -0.13615802342E+04  0.13901460997E+04  0.28036662482E+03 0.  0.
         25    2    3    3    0    0 -0.37046627283E+02  0.12158773152E+02 -0.43409280566E+03  0.45346321481E+03  0.12518799826E+03 0.  0.
         25    2    3    3    0    0  0.37046627283E+02 -0.12158773152E+02 -0.92748742852E+03  0.93668288486E+03  0.12498643268E+03 0.  0.
          5    1    4    4  502    0 -0.76380663771E+02 -0.20443907733E+02 -0.28429321325E+03  0.29512146696E+03  0.47000000000E+01 0.  1.
         -5    1    4    4    0  502  0.39334036489E+02  0.32602680885E+02 -0.14979959241E+03  0.15834174785E+03  0.47000000000E+01 0.  1.
          5    1    5    5  503    0  0.58248656298E+02 -0.55517919925E+02 -0.65150221345E+03  0.65646962574E+03  0.47000000000E+01 0. -1.
         -5    1    5    5    0  503 -0.21202029015E+02  0.43359146773E+02 -0.27598521507E+03  0.28021325911E+03  0.47000000000E+01 0. -1.
<mgrwt>
<rscale>  0 0.28036662E+03</rscale>
<asrwt>0</asrwt>
<pdfrwt beam="1">  1        2 0.21167127E+00 0.28036662E+03</pdfrwt>
<pdfrwt beam="2">  1       -2 0.21973741E-02 0.28036662E+03</pdfrwt>
<totfact> 0.10719930E+04</totfact>
</mgrwt>
</event>
<event>
 9    1  0.7944303E-001  0.2741763E+03  0.7818608E-02  0.1098913E+00
          1   -1    0    0  501    0  0.00000000000E+00  0.00000000000E+00  0.25733819772E+03  0.25733819772E+03  0.00000000000E+00 0.  1.
         -1   -1    0    0    0  501 -0.00000000000E+00 -0.00000000000E+00 -0.73029062200E+02  0.73029062200E+02  0.00000000000E+00 0.  1.
         35    2    1    2    0    0  0.71054273576E-14  0.35527136788E-14  0.18430913552E+03  0.33036725992E+03  0.27417634652E+03 0.  0.
         25    2    3    3    0    0 -0.32648101795E+02  0.19237675381E+01  0.14639156887E+03  0.19489283140E+03  0.12443120534E+03 0.  0.
         25    2    3    3    0    0  0.32648101795E+02 -0.19237675381E+01  0.37917566646E+02  0.13547442852E+03  0.12588081462E+03 0.  0.
          5    1    4    4  502    0 -0.16150493206E+02  0.59164720825E+02  0.10668776568E+03  0.12314898281E+03  0.47000000000E+01 0.  1.
         -5    1    4    4    0  502 -0.16497608588E+02 -0.57240953287E+02  0.39703803185E+02  0.71743848584E+02  0.47000000000E+01 0.  1.
          5    1    5    5  503    0  0.79722914079E+02 -0.13844158348E+02  0.27468780133E+02  0.85580533017E+02  0.47000000000E+01 0. -1.
         -5    1    5    5    0  503 -0.47074812284E+02  0.11920390810E+02  0.10448786513E+02  0.49893895501E+02  0.47000000000E+01 0. -1.
<mgrwt>
<rscale>  0 0.27417635E+03</rscale>
<asrwt>0</asrwt>
<pdfrwt beam="1">  1        1 0.39590491E-01 0.27417635E+03</pdfrwt>
<pdfrwt beam="2">  1       -1 0.11235240E-01 0.27417635E+03</pdfrwt>
<totfact> 0.53708538E+03</totfact>
</mgrwt>
</event>
<event>
 9    1  0.7944303E-001  0.2729626E+03  0.7818608E-02  0.1099596E+00
          1   -1    0    0  501    0  0.00000000000E+00  0.00000000000E+00  0.16624202746E+04  0.16624202746E+04  0.00000000000E+00 0. -1.
         -1   -1    0    0    0  501 -0.00000000000E+00 -0.00000000000E+00 -0.11204838435E+02  0.11204838435E+02  0.00000000000E+00 0. -1.
         35    2    1    2    0    0  0.00000000000E+00  0.35527136788E-14  0.16512154361E+04  0.16736251130E+04  0.27296263912E+03 0.  0.
         25    2    3    3    0    0 -0.50902310639E+02 -0.10131717775E+02  0.79243651940E+03  0.80408951981E+03  0.12613731270E+03 0.  0.
         25    2    3    3    0    0  0.50902310639E+02  0.10131717775E+02  0.85877891674E+03  0.86953559320E+03  0.12608419041E+03 0.  0.
          5    1    4    4  502    0 -0.59691337310E+02 -0.56025759829E+02  0.61896950113E+03  0.62437750988E+03  0.47000000000E+01 0. -1.
         -5    1    4    4    0  502  0.87890266705E+01  0.45894042053E+02  0.17346701827E+03  0.17971200993E+03  0.47000000000E+01 0. -1.
          5    1    5    5  503    0 -0.23958216203E+02  0.41229450657E+02  0.46563739689E+03  0.46809629256E+03  0.47000000000E+01 0. -1.
         -5    1    5    5    0  503  0.74860526843E+02 -0.31097732881E+02  0.39314151985E+03  0.40143930064E+03  0.47000000000E+01 0. -1.
<mgrwt>
<rscale>  0 0.27296264E+03</rscale>
<asrwt>0</asrwt>
<pdfrwt beam="1">  1        1 0.25575677E+00 0.27296264E+03</pdfrwt>
<pdfrwt beam="2">  1       -1 0.17238226E-02 0.27296264E+03</pdfrwt>
<totfact> 0.47667266E+03</totfact>
</mgrwt>
</event>
<event>
 9    1  0.7944303E-001  0.2724482E+03  0.7818608E-02  0.1099887E+00
         -1   -1    0    0    0  501 -0.00000000000E+00  0.00000000000E+00  0.22048541890E+03  0.22048541890E+03  0.00000000000E+00 0.  1.
          1   -1    0    0  501    0  0.00000000000E+00 -0.00000000000E+00 -0.84164334218E+02  0.84164334218E+02  0.00000000000E+00 0.  1.
         35    2    1    2    0    0 -0.71054273576E-14 -0.71054273576E-14  0.13632108468E+03  0.30464975312E+03  0.27244822250E+03 0.  0.
         25    2    3    3    0    0 -0.39813795389E+02  0.32740543948E+02  0.53174683886E+02  0.14553949158E+03  0.12528812825E+03 0.  0.
         25    2    3    3    0    0  0.39813795389E+02 -0.32740543948E+02  0.83146400793E+02  0.15911026154E+03  0.12548175103E+03 0.  0.
          5    1    4    4  502    0 -0.51567331891E+02  0.72658823740E+02  0.52771894327E+02  0.10366029720E+03  0.47000000000E+01 0. -1.
         -5    1    4    4    0  502  0.11753536502E+02 -0.39918279792E+02  0.40278955845E+00  0.41879194372E+02  0.47000000000E+01 0. -1.
          5    1    5    5  503    0  0.21639508778E+02 -0.20353743525E+02  0.11569863877E+03  0.11954416853E+03  0.47000000000E+01 0.  1.
         -5    1    5    5    0  503  0.18174286611E+02 -0.12386800423E+02 -0.32552237980E+02  0.39566093009E+02  0.47000000000E+01 0.  1.
<mgrwt>
<rscale>  0 0.27244822E+03</rscale>
<asrwt>0</asrwt>
<pdfrwt beam="1">  1        1 0.12948359E-01 0.27244822E+03</pdfrwt>
<pdfrwt beam="2">  1       -1 0.33920834E-01 0.27244822E+03</pdfrwt>
<totfact> 0.37227894E+03</totfact>
</mgrwt>
</event>
<event>
 9    1  0.7944303E-001  0.2757667E+03  0.7818608E-02  0.1098024E+00
         -2   -1    0    0    0  501 -0.00000000000E+00  0.00000000000E+00  0.18374311947E+02  0.18374311947E+02  0.00000000000E+00 0. -1.
          2   -1    0    0  501    0  0.00000000000E+00 -0.00000000000E+00 -0.10346953442E+04  0.10346953442E+04  0.00000000000E+00 0. -1.
         35    2    1    2    0    0  0.00000000000E+00  0.00000000000E+00 -0.10163210323E+04  0.10530696561E+04  0.27576667692E+03 0.  0.
         25    2    3    3    0    0 -0.15340122792E+01  0.78931920346E+01 -0.72976549504E+03  0.74031086955E+03  0.12424914552E+03 0.  0.
         25    2    3    3    0    0  0.15340122792E+01 -0.78931920346E+01 -0.28655553722E+03  0.31275878659E+03  0.12505729490E+03 0.  0.
          5    1    4    4  502    0  0.23726295277E+02  0.52381192017E+02 -0.55940712970E+03  0.56237456656E+03  0.47000000000E+01 0.  1.
         -5    1    4    4    0  502 -0.25260307557E+02 -0.44487999983E+02 -0.17035836534E+03  0.17793630299E+03  0.47000000000E+01 0.  1.
          5    1    5    5  503    0 -0.24140668933E+02  0.52650217408E+02 -0.15662938988E+03  0.16706188393E+03  0.47000000000E+01 0.  1.
         -5    1    5    5    0  503  0.25674681212E+02 -0.60543409443E+02 -0.12992614734E+03  0.14569690266E+03  0.47000000000E+01 0.  1.
<mgrwt>
<rscale>  0 0.27576668E+03</rscale>
<asrwt>0</asrwt>
<pdfrwt beam="1">  1        2 0.15918399E+00 0.27576668E+03</pdfrwt>
<pdfrwt beam="2">  1       -2 0.28268157E-02 0.27576668E+03</pdfrwt>
<totfact> 0.11547815E+04</totfact>
</mgrwt>
</event>
<event>
 9    1  0.7944303E-001  0.2735484E+03  0.7818608E-02  0.1099266E+00
          3   -1    0    0  501    0  0.00000000000E+00  0.00000000000E+00  0.11976176182E+04  0.11976176182E+04  0.00000000000E+00 0.  1.
         -3   -1    0    0    0  501 -0.00000000000E+00 -0.00000000000E+00 -0.15620335004E+02  0.15620335004E+02  0.00000000000E+00 0.  1.
         35    2    1    2    0    0 -0.35527136788E-14  0.00000000000E+00  0.11819972832E+04  0.12132379532E+04  0.27354844838E+03 0.  0.
         25    2    3    3    0    0  0.12121508754E+02 -0.20319545779E+01  0.83465342775E+03  0.84396504396E+03  0.12441700511E+03 0.  0.
         25    2    3    3    0    0 -0.12121508754E+02  0.20319545779E+01  0.34734385544E+03  0.36927290924E+03  0.12475442986E+03 0.  0.
          5    1    4    4  502    0 -0.26337042079E+02  0.34316993119E+02  0.65945160384E+03  0.66088562067E+03  0.47000000000E+01 0.  1.
         -5    1    4    4    0  502  0.38458550833E+02 -0.36348947697E+02  0.17520182390E+03  0.18307942328E+03  0.47000000000E+01 0.  1.
          5    1    5    5  503    0 -0.26746390228E+02  0.59579252476E+02  0.19500930591E+03  0.20570798747E+03  0.47000000000E+01 0.  1.
         -5    1    5    5    0  503  0.14624881474E+02 -0.57547297898E+02  0.15233454953E+03  0.16356492177E+03  0.47000000000E+01 0.  1.
<mgrwt>
<rscale>  0 0.27354845E+03</rscale>
<asrwt>0</asrwt>
<pdfrwt beam="1">  1        3 0.18424879E+00 0.27354845E+03</pdfrwt>
<pdfrwt beam="2">  1       -3 0.24031294E-02 0.27354845E+03</pdfrwt>
<totfact> 0.36565898E+02</totfact>
</mgrwt>
</event>
<event>
 9    1  0.7944303E-001  0.2747797E+03  0.7818608E-02  0.1098575E+00
          1   -1    0    0  501    0  0.00000000000E+00  0.00000000000E+00  0.30494385846E+03  0.30494385846E+03  0.00000000000E+00 0. -1.
         -1   -1    0    0    0  501 -0.00000000000E+00 -0.00000000000E+00 -0.61899842103E+02  0.61899842103E+02  0.00000000000E+00 0. -1.
         35    2    1    2    0    0  0.00000000000E+00  0.35527136788E-14  0.24304401636E+03  0.36684370057E+03  0.27477974226E+03 0.  0.
         25    2    3    3    0    0  0.41498657576E+02  0.95060049511E+01  0.73641847808E+02  0.15200821518E+03  0.12597965321E+03 0.  0.
         25    2    3    3    0    0 -0.41498657576E+02 -0.95060049511E+01  0.16940216855E+03  0.21483548539E+03  0.12507872865E+03 0.  0.
          5    1    4    4  502    0  0.59726439930E+02 -0.35109548339E+02  0.76728779173E+02  0.10348586167E+03  0.47000000000E+01 0.  1.
         -5    1    4    4    0  502 -0.18227782355E+02  0.44615553291E+02 -0.30869313655E+01  0.48522353511E+02  0.47000000000E+01 0.  1.
          5    1    5    5  503    0 -0.34841744127E+02  0.19901250007E+02  0.17848263952E+03  0.18299767620E+03  0.47000000000E+01 0.  1.
         -5    1    5    5    0  503 -0.66569134481E+01 -0.29407254958E+02 -0.90804709671E+01  0.31837809187E+02  0.47000000000E+01 0.  1.
<mgrwt>
<rscale>  0 0.27477974E+03</rscale>
<asrwt>0</asrwt>
<pdfrwt beam="1">  1        1 0.46914439E-01 0.27477974E+03</pdfrwt>
<pdfrwt beam="2">  1       -1 0.95230528E-02 0.27477974E+03</pdfrwt>
<totfact> 0.56066169E+03</totfact>
</mgrwt>
</event>
<event>
 9    1  0.7944303E-001  0.2831363E+03  0.7818608E-02  0.1093988E+00
         -1   -1    0    0    0  501 -0.00000000000E+00  0.00000000000E+00  0.14732882634E+02  0.14732882634E+02  0.00000000000E+00 0.  1.
          1   -1    0    0  501    0  0.00000000000E+00 -0.00000000000E+00 -0.13603271418E+04  0.13603271418E+04  0.00000000000E+00 0.  1.
         35    2    1    2    0    0  0.00000000000E+00  0.00000000000E+00 -0.13455942591E+04  0.13750600244E+04  0.28313629314E+03 0.  0.
         25    2    3    3    0    0 -0.32370377126E+02 -0.26765804628E+02 -0.92881678526E+03  0.93824196630E+03  0.12582971486E+03 0.  0.
         25    2    3    3    0    0  0.32370377126E+02  0.26765804628E+02 -0.41677747386E+03  0.43681805808E+03  0.12386405264E+03 0.  0.
          5    1    4    4  502    0  0.45857203517E+02 -0.20992948013E+02 -0.47264370791E+03  0.47535013580E+03  0.47000000000E+01 0.  1.
         -5    1    4    4    0  502 -0.78227580643E+02 -0.57728566153E+01 -0.45617307735E+03  0.46289183050E+03  0.47000000000E+01 0.  1.
          5    1    5    5  503    0  0.77722811936E+02  0.25128681019E+02 -0.21739599406E+03  0.23228300484E+03  0.47000000000E+01 0. -1.
         -5    1    5    5    0  503 -0.45352434810E+02  0.16371236091E+01 -0.19938147980E+03  0.20453505324E+03  0.47000000000E+01 0. -1.
<mgrwt>
<rscale>  0 0.28313629E+03</rscale>
<asrwt>0</asrwt>
<pdfrwt beam="1">  1        1 0.20928110E+00 0.28313629E+03</pdfrwt>
<pdfrwt beam="2">  1       -1 0.22665973E-02 0.28313629E+03</pdfrwt>
<totfact> 0.50681546E+03</totfact>
</mgrwt>
</event>
<event>
 9    1  0.7944303E-001  0.2750823E+03  0.7818608E-02  0.1098406E+00
          1   -1    0    0  501    0  0.00000000000E+00  0.00000000000E+00  0.17007593396E+04  0.17007593396E+04  0.00000000000E+00 0.  1.
         -1   -1    0    0    0  501 -0.00000000000E+00 -0.00000000000E+00 -0.11123014755E+02  0.11123014755E+02  0.00000000000E+00 0.  1.
         35    2    1    2    0    0  0.00000000000E+00  0.00000000000E+00  0.16896363248E+04  0.17118823543E+04  0.27508232389E+03 0.  0.
         25    2    3    3    0    0 -0.25479781496E+02  0.67484437004E+01  0.50603970344E+03  0.52163408957E+03  0.12381914712E+03 0.  0.
         25    2    3    3    0    0  0.25479781496E+02 -0.67484437004E+01  0.11835966214E+04  0.11902482648E+04  0.12286256081E+03 0.  0.
          5    1    4    4  502    0 -0.46373950799E+02  0.55973866515E+02  0.28265916199E+03  0.29189366026E+03  0.47000000000E+01 0.  1.
         -5    1    4    4    0  502  0.20894169303E+02 -0.49225422814E+02  0.22338054144E+03  0.22974042931E+03  0.47000000000E+01 0.  1.
          5    1    5    5  503    0  0.33874800394E+02  0.49426215019E+02  0.82129554156E+03  0.82349190003E+03  0.47000000000E+01 0. -1.
         -5    1    5    5    0  503 -0.83950188980E+01 -0.56174658720E+02  0.36230107984E+03  0.36675636474E+03  0.47000000000E+01 0. -1.
<mgrwt>
<rscale>  0 0.27508232E+03</rscale>
<asrwt>0</asrwt>
<pdfrwt beam="1">  1        1 0.26165508E+00 0.27508232E+03</pdfrwt>
<pdfrwt beam="2">  1       -1 0.17112344E-02 0.27508232E+03</pdfrwt>
<totfact> 0.45481717E+03</totfact>
</mgrwt>
</event>
<event>
 9    1  0.7944303E-001  0.2587831E+03  0.7818608E-02  0.1107877E+00
          1   -1    0    0  501    0  0.00000000000E+00  0.00000000000E+00  0.95505458490E+03  0.95505458490E+03  0.00000000000E+00 0.  1.
         -1   -1    0    0    0  501 -0.00000000000E+00 -0.00000000000E+00 -0.17530069041E+02  0.17530069041E+02  0.00000000000E+00 0.  1.
         35    2    1    2    0    0 -0.71054273576E-14 -0.35527136788E-14  0.93752451586E+03  0.97258465394E+03  0.25878309691E+03 0.  0.
         25    2    3    3    0    0 -0.13632380784E+02  0.67012189689E+01  0.57972774108E+03  0.59311853721E+03  0.12439693429E+03 0.  0.
         25    2    3    3    0    0  0.13632380784E+02 -0.67012189689E+01  0.35779677478E+03  0.37946611674E+03  0.12548009230E+03 0.  0.
          5    1    4    4  502    0  0.19077244394E+02 -0.52577959939E+02  0.30580699805E+03  0.31091541161E+03  0.47000000000E+01 0.  1.
         -5    1    4    4    0  502 -0.32709625178E+02  0.59279178908E+02  0.27392074303E+03  0.28220312559E+03  0.47000000000E+01 0.  1.
          5    1    5    5  503    0  0.32742304345E+02 -0.32684881649E+02  0.44124223562E+02  0.64104579300E+02  0.47000000000E+01 0.  1.
         -5    1    5    5    0  503 -0.19109923561E+02  0.25983662680E+02  0.31367255122E+03  0.31536153744E+03  0.47000000000E+01 0.  1.
<mgrwt>
<rscale>  0 0.25878310E+03</rscale>
<asrwt>0</asrwt>
<pdfrwt beam="1">  1        1 0.14693143E+00 0.25878310E+03</pdfrwt>
<pdfrwt beam="2">  1       -1 0.26969344E-02 0.25878310E+03</pdfrwt>
<totfact> 0.76147479E+03</totfact>
</mgrwt>
</event>
<event>
 9    1  0.7944303E-001  0.2806451E+03  0.7818608E-02  0.1095337E+00
         -1   -1    0    0    0  501 -0.00000000000E+00  0.00000000000E+00  0.38570730128E+02  0.38570730128E+02  0.00000000000E+00 0. -1.
          1   -1    0    0  501    0  0.00000000000E+00 -0.00000000000E+00 -0.51050152405E+03  0.51050152405E+03  0.00000000000E+00 0. -1.
         35    2    1    2    0    0  0.71054273576E-14  0.71054273576E-14 -0.47193079392E+03  0.54907225418E+03  0.28064508914E+03 0.  0.
         25    2    3    3    0    0 -0.19321173950E+02 -0.54265348408E+02 -0.28999175049E+03  0.32106857419E+03  0.12518697286E+03 0.  0.
         25    2    3    3    0    0  0.19321173950E+02  0.54265348408E+02 -0.18193904343E+03  0.22800367999E+03  0.12476308255E+03 0.  0.
          5    1    4    4  502    0 -0.71491925026E+02 -0.22098294893E+02 -0.18142819692E+03  0.19631024074E+03  0.47000000000E+01 0. -1.
         -5    1    4    4    0  502  0.52170751076E+02 -0.32167053515E+02 -0.10856355358E+03  0.12475833345E+03  0.47000000000E+01 0. -1.
          5    1    5    5  503    0 -0.43697335514E+02  0.24971392555E+02 -0.25192651885E+02  0.56478201867E+02  0.47000000000E+01 0.  1.
         -5    1    5    5    0  503  0.63018509464E+02  0.29293955853E+02 -0.15674639154E+03  0.17152547812E+03  0.47000000000E+01 0.  1.
<mgrwt>
<rscale>  0 0.28064509E+03</rscale>
<asrwt>0</asrwt>
<pdfrwt beam="1">  1        1 0.78538691E-01 0.28064509E+03</pdfrwt>
<pdfrwt beam="2">  1       -1 0.59339588E-02 0.28064509E+03</pdfrwt>
<totfact> 0.59442526E+03</totfact>
</mgrwt>
</event>
<event>
 9    1  0.7944303E-001  0.2759647E+03  0.7818608E-02  0.1097914E+00
         -1   -1    0    0    0  501 -0.00000000000E+00  0.00000000000E+00  0.70837732337E+02  0.70837732337E+02  0.00000000000E+00 0. -1.
          1   -1    0    0  501    0  0.00000000000E+00 -0.00000000000E+00 -0.26877098753E+03  0.26877098753E+03  0.00000000000E+00 0. -1.
         35    2    1    2    0    0  0.00000000000E+00  0.35527136788E-14 -0.19793325519E+03  0.33960871987E+03  0.27596468814E+03 0.  0.
         25    2    3    3    0    0  0.35923807604E+02  0.19154531829E+02 -0.45996480134E+02  0.13966687589E+03  0.12543422178E+03 0.  0.
         25    2    3    3    0    0 -0.35923807604E+02 -0.19154531829E+02 -0.15193677506E+03  0.19994184398E+03  0.12342828409E+03 0.  0.
          5    1    4    4  502    0  0.31722678017E+01  0.48000666719E+02 -0.73425153390E+02  0.87906031868E+02  0.47000000000E+01 0. -1.
         -5    1    4    4    0  502  0.32751539803E+02 -0.28846134889E+02  0.27428673256E+02  0.51760844024E+02  0.47000000000E+01 0. -1.
          5    1    5    5  503    0 -0.26882984434E+02 -0.25906707535E+02 -0.17220751888E+03  0.17627073468E+03  0.47000000000E+01 0.  1.
         -5    1    5    5    0  503 -0.90408231700E+01  0.67521757055E+01  0.20270743817E+02  0.23671109295E+02  0.47000000000E+01 0.  1.
<mgrwt>
<rscale>  0 0.27596469E+03</rscale>
<asrwt>0</asrwt>
<pdfrwt beam="1">  1        1 0.41349383E-01 0.27596469E+03</pdfrwt>
<pdfrwt beam="2">  1       -1 0.10898113E-01 0.27596469E+03</pdfrwt>
<totfact> 0.53336273E+03</totfact>
</mgrwt>
</event>
<event>
 9    1  0.7944303E-001  0.2712539E+03  0.7818608E-02  0.1100564E+00
         -2   -1    0    0    0  501 -0.00000000000E+00  0.00000000000E+00  0.11661965010E+02  0.11661965010E+02  0.00000000000E+00 0.  1.
          2   -1    0    0  501    0  0.00000000000E+00 -0.00000000000E+00 -0.15773211810E+04  0.15773211810E+04  0.00000000000E+00 0.  1.
         35    2    1    2    0    0  0.71054273576E-14  0.71054273576E-14 -0.15656592159E+04  0.15889831460E+04  0.27125386207E+03 0.  0.
         25    2    3    3    0    0 -0.41925002288E+02 -0.25844229017E+02 -0.87052420677E+03  0.88086455711E+03  0.12523714867E+03 0.  0.
         25    2    3    3    0    0  0.41925002288E+02  0.25844229017E+02 -0.69513500917E+03  0.70811858886E+03  0.12567268961E+03 0.  0.
          5    1    4    4  502    0 -0.38357056974E+02 -0.38404850501E+02 -0.14027889017E+03  0.15048738614E+03  0.47000000000E+01 0.  1.
         -5    1    4    4    0  502 -0.35679453137E+01  0.12560621485E+02 -0.73024531661E+03  0.73037717097E+03  0.47000000000E+01 0.  1.
          5    1    5    5  503    0 -0.69764683846E+01  0.29540514922E+02 -0.60176539821E+03  0.60254875124E+03  0.47000000000E+01 0.  1.
         -5    1    5    5    0  503  0.48901470673E+02 -0.36962859053E+01 -0.93369610960E+02  0.10556983762E+03  0.47000000000E+01 0.  1.
<mgrwt>
<rscale>  0 0.27125386E+03</rscale>
<asrwt>0</asrwt>
<pdfrwt beam="1">  1        2 0.24266474E+00 0.27125386E+03</pdfrwt>
<pdfrwt beam="2">  1       -2 0.17941489E-02 0.27125386E+03</pdfrwt>
<totfact> 0.11250329E+04</totfact>
</mgrwt>
</event>
<event>
 9    1  0.7944303E-001  0.2830888E+03  0.7818608E-02  0.1094014E+00
          1   -1    0    0  501    0  0.00000000000E+00  0.00000000000E+00  0.53946895533E+03  0.53946895533E+03  0.00000000000E+00 0.  1.
         -1   -1    0    0    0  501 -0.00000000000E+00 -0.00000000000E+00 -0.37138031440E+02  0.37138031440E+02  0.00000000000E+00 0.  1.
         35    2    1    2    0    0 -0.71054273576E-14 -0.71054273576E-14  0.50233092389E+03  0.57660698677E+03  0.28308878483E+03 0.  0.
         25    2    3    3    0    0 -0.32794078131E+02  0.47370842916E+02  0.18437393931E+03  0.22998392054E+03  0.12481749033E+03 0.  0.
         25    2    3    3    0    0  0.32794078131E+02 -0.47370842916E+02  0.31795698458E+03  0.34662306623E+03  0.12542510785E+03 0.  0.
          5    1    4    4  502    0 -0.62639300029E+02  0.51214952260E+02  0.18224356761E+03  0.19945290467E+03  0.47000000000E+01 0. -1.
         -5    1    4    4    0  502  0.29845221898E+02 -0.38441093444E+01  0.21303716952E+01  0.30531015875E+02  0.47000000000E+01 0. -1.
          5    1    5    5  503    0  0.69665342959E+02 -0.52291655499E+02  0.27998352027E+03  0.29325848473E+03  0.47000000000E+01 0.  1.
         -5    1    5    5    0  503 -0.36871264828E+02  0.49208125839E+01  0.37973464308E+02  0.53364581495E+02  0.47000000000E+01 0.  1.
<mgrwt>
<rscale>  0 0.28308878E+03</rscale>
<asrwt>0</asrwt>
<pdfrwt beam="1">  1        1 0.82995218E-01 0.28308878E+03</pdfrwt>
<pdfrwt beam="2">  1       -1 0.57135437E-02 0.28308878E+03</pdfrwt>
<totfact> 0.58448649E+03</totfact>
</mgrwt>
</event>
<event>
 9    1  0.7944303E-001  0.2849562E+03  0.7818608E-02  0.1093012E+00
          2   -1    0    0  501    0  0.00000000000E+00  0.00000000000E+00  0.11782545455E+04  0.11782545455E+04  0.00000000000E+00 0. -1.
         -2   -1    0    0    0  501 -0.00000000000E+00 -0.00000000000E+00 -0.17228885547E+02  0.17228885547E+02  0.00000000000E+00 0. -1.
         35    2    1    2    0    0 -0.14210854715E-13  0.00000000000E+00  0.11610256600E+04  0.11954834311E+04  0.28495622618E+03 0.  0.
         25    2    3    3    0    0 -0.67929161919E+02 -0.91640688104E+01  0.60539223614E+03  0.62178743034E+03  0.12418332320E+03 0.  0.
         25    2    3    3    0    0  0.67929161919E+02  0.91640688104E+01  0.55563342382E+03  0.57369600071E+03  0.12530063195E+03 0.  0.
          5    1    4    4  502    0  0.11559945388E+02 -0.68345147644E+00  0.14751178297E+01  0.12584332160E+02  0.47000000000E+01 0.  1.
         -5    1    4    4    0  502 -0.79489107308E+02 -0.84806173340E+01  0.60391711831E+03  0.60920309818E+03  0.47000000000E+01 0.  1.
          5    1    5    5  503    0  0.77968616745E+02  0.49996593076E+02  0.45789905377E+03  0.46719631629E+03  0.47000000000E+01 0. -1.
         -5    1    5    5    0  503 -0.10039454826E+02 -0.40832524266E+02  0.97734370055E+02  0.10649968442E+03  0.47000000000E+01 0. -1.
<mgrwt>
<rscale>  0 0.28495623E+03</rscale>
<asrwt>0</asrwt>
<pdfrwt beam="1">  1        2 0.18126987E+00 0.28495623E+03</pdfrwt>
<pdfrwt beam="2">  1       -2 0.26505987E-02 0.28495623E+03</pdfrwt>
<totfact> 0.10474454E+04</totfact>
</mgrwt>
</event>
<event>
 9    1  0.7944303E-001  0.2758412E+03  0.7818608E-02  0.1097982E+00
         -2   -1    0    0    0  501 -0.00000000000E+00  0.00000000000E+00  0.75188716893E+01  0.75188716893E+01  0.00000000000E+00 0. -1.
          2   -1    0    0  501    0  0.00000000000E+00 -0.00000000000E+00 -0.25299122227E+04  0.25299122227E+04  0.00000000000E+00 0. -1.
         35    2    1    2    0    0  0.71054273576E-14  0.00000000000E+00 -0.25223933510E+04  0.25374310944E+04  0.27584115275E+03 0.  0.
         25    2    3    3    0    0 -0.30858697882E+02  0.49604607537E+02 -0.12000201357E+04  0.12078847772E+04  0.12459708167E+03 0.  0.
         25    2    3    3    0    0  0.30858697882E+02 -0.49604607537E+02 -0.13223732154E+04  0.13295463172E+04  0.12493843468E+03 0.  0.
          5    1    4    4  502    0 -0.17345429958E+02  0.54549867436E+02 -0.20896754333E+03  0.21671658023E+03  0.47000000000E+01 0. -1.
         -5    1    4    4    0  502 -0.13513267924E+02 -0.49452598984E+01 -0.99105259232E+03  0.99116819701E+03  0.47000000000E+01 0. -1.
          5    1    5    5  503    0 -0.27400674506E+02  0.24776830755E+02 -0.57592409491E+03  0.57712679838E+03  0.47000000000E+01 0. -1.
         -5    1    5    5    0  503  0.58259372388E+02 -0.74381438292E+02 -0.74644912046E+03  0.75241951880E+03  0.47000000000E+01 0. -1.
<mgrwt>
<rscale>  0 0.27584115E+03</rscale>
<asrwt>0</asrwt>
<pdfrwt beam="1">  1        2 0.38921720E+00 0.27584115E+03</pdfrwt>
<pdfrwt beam="2">  1       -2 0.11567497E-02 0.27584115E+03</pdfrwt>
<totfact> 0.66606245E+03</totfact>
</mgrwt>
</event>
<event>
 9    1  0.7944303E-001  0.2772159E+03  0.7818608E-02  0.1097219E+00
         -1   -1    0    0    0  501 -0.00000000000E+00  0.00000000000E+00  0.19379901588E+03  0.19379901588E+03  0.00000000000E+00 0.  1.
          1   -1    0    0  501    0  0.00000000000E+00 -0.00000000000E+00 -0.99134470468E+02  0.99134470468E+02  0.00000000000E+00 0.  1.
         35    2    1    2    0    0  0.00000000000E+00 -0.71054273576E-14  0.94664545407E+02  0.29293348634E+03  0.27721589288E+03 0.  0.
         25    2    3    3    0    0 -0.45838197851E+02  0.32932486116E+02  0.35098950350E+02  0.14225560058E+03  0.12577372761E+03 0.  0.
         25    2    3    3    0    0  0.45838197851E+02 -0.32932486116E+02  0.59565595057E+02  0.15067788576E+03  0.12637276653E+03 0.  0.
          5    1    4    4  502    0 -0.54917057708E+02  0.73313655815E+02  0.40474621686E+02  0.10025497672E+03  0.47000000000E+01 0.  1.
         -5    1    4    4    0  502  0.90788598575E+01 -0.40381169699E+02 -0.53756713359E+01  0.42000623863E+02  0.47000000000E+01 0.  1.
          5    1    5    5  503    0  0.26801622017E+02  0.19683857842E+02 -0.29956598028E+02  0.45002988431E+02  0.47000000000E+01 0.  1.
         -5    1    5    5    0  503  0.19036575833E+02 -0.52616343958E+02  0.89522193086E+02  0.10567489733E+03  0.47000000000E+01 0.  1.
<mgrwt>
<rscale>  0 0.27721589E+03</rscale>
<asrwt>0</asrwt>
<pdfrwt beam="1">  1        1 0.15251457E-01 0.27721589E+03</pdfrwt>
<pdfrwt beam="2">  1       -1 0.29815233E-01 0.27721589E+03</pdfrwt>
<totfact> 0.37453105E+03</totfact>
</mgrwt>
</event>
<event>
 9    1  0.7944303E-001  0.2815112E+03  0.7818608E-02  0.1094866E+00
          1   -1    0    0  501    0  0.00000000000E+00  0.00000000000E+00  0.15448447079E+03  0.15448447079E+03  0.00000000000E+00 0. -1.
         -1   -1    0    0    0  501 -0.00000000000E+00 -0.00000000000E+00 -0.12824679050E+03  0.12824679050E+03  0.00000000000E+00 0. -1.
         35    2    1    2    0    0 -0.35527136788E-14  0.71054273576E-14  0.26237680290E+02  0.28273126129E+03  0.28151119026E+03 0.  0.
         25    2    3    3    0    0  0.86435880836E+01 -0.38293683622E+02 -0.41784182128E+02  0.13667358623E+03  0.12406705234E+03 0.  0.
         25    2    3    3    0    0 -0.86435880836E+01  0.38293683622E+02  0.68021862418E+02  0.14605767506E+03  0.12314525105E+03 0.  0.
          5    1    4    4  502    0 -0.37277139812E+01  0.80221774703E+01 -0.76591800346E+02  0.77244061669E+02  0.47000000000E+01 0.  1.
         -5    1    4    4    0  502  0.12371302065E+02 -0.46315861093E+02  0.34807618217E+02  0.59429524560E+02  0.47000000000E+01 0.  1.
          5    1    5    5  503    0 -0.45248060942E+01  0.47249913303E+02  0.10079586883E+03  0.11151199644E+03  0.47000000000E+01 0.  1.
         -5    1    5    5    0  503 -0.41187819894E+01 -0.89562296803E+01 -0.32774006409E+02  0.34545678619E+02  0.47000000000E+01 0.  1.
<mgrwt>
<rscale>  0 0.28151119E+03</rscale>
<asrwt>0</asrwt>
<pdfrwt beam="1">  1        1 0.23766842E-01 0.28151119E+03</pdfrwt>
<pdfrwt beam="2">  1       -1 0.19730275E-01 0.28151119E+03</pdfrwt>
<totfact> 0.41887813E+03</totfact>
</mgrwt>
</event>
<event>
 9    1  0.7944303E-001  0.2849848E+03  0.7818608E-02  0.1092997E+00
          1   -1    0    0  501    0  0.00000000000E+00  0.00000000000E+00  0.11701402255E+03  0.11701402255E+03  0.00000000000E+00 0. -1.
         -1   -1    0    0    0  501 -0.00000000000E+00 -0.00000000000E+00 -0.17351839571E+03  0.17351839571E+03  0.00000000000E+00 0. -1.
         35    2    1    2    0    0  0.00000000000E+00  0.71054273576E-14 -0.56504373158E+02  0.29053241826E+03  0.28498480990E+03 0.  0.
         25    2    3    3    0    0  0.35751741665E+02 -0.26926956408E+02  0.16838962927E+02  0.13897029826E+03  0.13048350513E+03 0.  0.
         25    2    3    3    0    0 -0.35751741665E+02  0.26926956408E+02 -0.73343336086E+02  0.15156212000E+03  0.12485424806E+03 0.  0.
          5    1    4    4  502    0 -0.29318472688E+01  0.22557699608E+02 -0.45038205028E+02  0.50675195630E+02  0.47000000000E+01 0.  1.
         -5    1    4    4    0  502  0.38683588934E+02 -0.49484656016E+02  0.61877167955E+02  0.88295102627E+02  0.47000000000E+01 0.  1.
          5    1    5    5  503    0 -0.40919095360E+02  0.49950093299E+02  0.93740917730E+01  0.65416724025E+02  0.47000000000E+01 0. -1.
         -5    1    5    5    0  503  0.51673536946E+01 -0.23023136891E+02 -0.82717427859E+02  0.86145395977E+02  0.47000000000E+01 0. -1.
<mgrwt>
<rscale>  0 0.28498481E+03</rscale>
<asrwt>0</asrwt>
<pdfrwt beam="1">  1        1 0.18002158E-01 0.28498481E+03</pdfrwt>
<pdfrwt beam="2">  1       -1 0.26695138E-01 0.28498481E+03</pdfrwt>
<totfact> 0.36384345E+03</totfact>
</mgrwt>
</event>
<event>
 9    1  0.7944303E-001  0.2756288E+03  0.7818608E-02  0.1098101E+00
         -2   -1    0    0    0  501 -0.00000000000E+00  0.00000000000E+00  0.87612715275E+01  0.87612715275E+01  0.00000000000E+00 0.  1.
          2   -1    0    0  501    0  0.00000000000E+00 -0.00000000000E+00 -0.21678137242E+04  0.21678137242E+04  0.00000000000E+00 0.  1.
         35    2    1    2    0    0  0.00000000000E+00  0.00000000000E+00 -0.21590524527E+04  0.21765749957E+04  0.27562876961E+03 0.  0.
         25    2    3    3    0    0  0.27279086931E+02  0.33352062385E+02 -0.13707327350E+04  0.13771014420E+04  0.12507454608E+03 0.  0.
         25    2    3    3    0    0 -0.27279086931E+02 -0.33352062385E+02 -0.78831971764E+03  0.79947355370E+03  0.12591059212E+03 0.  0.
          5    1    4    4  502    0 -0.31673139246E+02  0.57818953428E+02 -0.82090259764E+03  0.82355897417E+03  0.47000000000E+01 0. -1.
         -5    1    4    4    0  502  0.58952226177E+02 -0.24466891043E+02 -0.54983013738E+03  0.55354246783E+03  0.47000000000E+01 0. -1.
          5    1    5    5  503    0 -0.45293308954E+02 -0.74832818218E+02 -0.51360762620E+03  0.52102429714E+03  0.47000000000E+01 0. -1.
         -5    1    5    5    0  503  0.18014222024E+02  0.41480755833E+02 -0.27471209143E+03  0.27844925656E+03  0.47000000000E+01 0. -1.
<mgrwt>
<rscale>  0 0.27562877E+03</rscale>
<asrwt>0</asrwt>
<pdfrwt beam="1">  1        2 0.33350982E+00 0.27562877E+03</pdfrwt>
<pdfrwt beam="2">  1       -2 0.13478879E-02 0.27562877E+03</pdfrwt>
<totfact> 0.83563844E+03</totfact>
</mgrwt>
</event>
<event>
 9    1  0.7944303E-001  0.2747932E+03  0.7818608E-02  0.1098567E+00
         -1   -1    0    0    0  501 -0.00000000000E+00  0.00000000000E+00  0.82755148679E+02  0.82755148679E+02  0.00000000000E+00 0. -1.
          1   -1    0    0  501    0  0.00000000000E+00 -0.00000000000E+00 -0.22811660735E+03  0.22811660735E+03  0.00000000000E+00 0. -1.
         35    2    1    2    0    0  0.00000000000E+00  0.71054273576E-14 -0.14536145867E+03  0.31087175603E+03  0.27479318592E+03 0.  0.
         25    2    3    3    0    0  0.91735748006E+01 -0.40539410180E+02 -0.29532645806E+02  0.13525501180E+03  0.12527626590E+03 0.  0.
         25    2    3    3    0    0 -0.91735748006E+01  0.40539410180E+02 -0.11582881287E+03  0.17561674423E+03  0.12528898081E+03 0.  0.
          5    1    4    4  502    0 -0.40398841745E+01 -0.71195940927E+01 -0.75854380762E+02  0.76439429387E+02  0.47000000000E+01 0. -1.
         -5    1    4    4    0  502  0.13213458975E+02 -0.33419816087E+02  0.46321734956E+02  0.58815582414E+02  0.47000000000E+01 0. -1.
          5    1    5    5  503    0  0.20037595716E+02  0.49542360272E+02  0.21116775718E+01  0.53688917717E+02  0.47000000000E+01 0. -1.
         -5    1    5    5    0  503 -0.29211170517E+02 -0.90029500927E+01 -0.11794049044E+03  0.12192782651E+03  0.47000000000E+01 0. -1.
<mgrwt>
<rscale>  0 0.27479319E+03</rscale>
<asrwt>0</asrwt>
<pdfrwt beam="1">  1        1 0.35094862E-01 0.27479319E+03</pdfrwt>
<pdfrwt beam="2">  1       -1 0.12731562E-01 0.27479319E+03</pdfrwt>
<totfact> 0.51405260E+03</totfact>
</mgrwt>
</event>
<event>
 9    1  0.7944303E-001  0.2738338E+03  0.7818608E-02  0.1099105E+00
         -1   -1    0    0    0  501 -0.00000000000E+00  0.00000000000E+00  0.13285780370E+02  0.13285780370E+02  0.00000000000E+00 0. -1.
          1   -1    0    0  501    0  0.00000000000E+00 -0.00000000000E+00 -0.14110002407E+04  0.14110002407E+04  0.00000000000E+00 0. -1.
         35    2    1    2    0    0 -0.35527136788E-14 -0.71054273576E-14 -0.13977144603E+04  0.14242860210E+04  0.27383381311E+03 0.  0.
         25    2    3    3    0    0  0.29575862351E+02  0.32376600294E+02 -0.52743646768E+03  0.54399141368E+03  0.12575553602E+03 0.  0.
         25    2    3    3    0    0 -0.29575862351E+02 -0.32376600294E+02 -0.87027799261E+03  0.88029460735E+03  0.12494733062E+03 0.  0.
          5    1    4    4  502    0  0.22299811290E+02 -0.61630841855E+01 -0.10997879968E+02  0.26044357431E+02  0.47000000000E+01 0. -1.
         -5    1    4    4    0  502  0.72760510611E+01  0.38539684479E+02 -0.51643858771E+03  0.51794705625E+03  0.47000000000E+01 0. -1.
          5    1    5    5  503    0 -0.35823433134E+02 -0.67145720154E+02 -0.77197080104E+03  0.77572731920E+03  0.47000000000E+01 0. -1.
         -5    1    5    5    0  503  0.62475707833E+01  0.34769119860E+02 -0.98307191573E+02  0.10456728815E+03  0.47000000000E+01 0. -1.
<mgrwt>
<rscale>  0 0.27383381E+03</rscale>
<asrwt>0</asrwt>
<pdfrwt beam="1">  1        1 0.21707679E+00 0.27383381E+03</pdfrwt>
<pdfrwt beam="2">  1       -1 0.20439679E-02 0.27383381E+03</pdfrwt>
<totfact> 0.54494002E+03</totfact>
</mgrwt>
</event>
<event>
 9    1  0.7944303E-001  0.2738935E+03  0.7818608E-02  0.1099072E+00
         -2   -1    0    0    0  501 -0.00000000000E+00  0.00000000000E+00  0.65238671912E+01  0.65238671912E+01  0.00000000000E+00 0.  1.
          2   -1    0    0  501    0  0.00000000000E+00 -0.00000000000E+00 -0.28747387751E+04  0.28747387751E+04  0.00000000000E+00 0.  1.
         35    2    1    2    0    0  0.00000000000E+00  0.00000000000E+00 -0.28682149079E+04  0.28812626423E+04  0.27389351199E+03 0.  0.
         25    2    3    3    0    0 -0.26953406049E+02 -0.51403601060E+02 -0.13719059287E+04  0.13788163064E+04  0.12505883997E+03 0.  0.
         25    2    3    3    0    0  0.26953406049E+02  0.51403601060E+02 -0.14963089792E+04  0.15024463358E+04  0.12261979650E+03 0.  0.
          5    1    4    4  502    0  0.42447005233E+02 -0.42804664074E+02 -0.41954884330E+03  0.42388360364E+03  0.47000000000E+01 0. -1.
         -5    1    4    4    0  502 -0.69400411281E+02 -0.85989369859E+01 -0.95235708539E+03  0.95493270281E+03  0.47000000000E+01 0. -1.
          5    1    5    5  503    0 -0.17678982221E+02 -0.29522556758E+02 -0.21373170983E+03  0.21653512776E+03  0.47000000000E+01 0. -1.
         -5    1    5    5    0  503  0.44632388270E+02  0.80926157819E+02 -0.12825772694E+04  0.12859112080E+04  0.47000000000E+01 0. -1.
<mgrwt>
<rscale>  0 0.27389351E+03</rscale>
<asrwt>0</asrwt>
<pdfrwt beam="1">  1        2 0.44226743E+00 0.27389351E+03</pdfrwt>
<pdfrwt beam="2">  1       -2 0.10036721E-02 0.27389351E+03</pdfrwt>
<totfact> 0.52331021E+03</totfact>
</mgrwt>
</event>
<event>
 9    1  0.7944303E-001  0.2682396E+03  0.7818608E-02  0.1102291E+00
          1   -1    0    0  501    0  0.00000000000E+00  0.00000000000E+00  0.31909449309E+02  0.31909449309E+02  0.00000000000E+00 0. -1.
         -1   -1    0    0    0  501 -0.00000000000E+00 -0.00000000000E+00 -0.56372391285E+03  0.56372391285E+03  0.00000000000E+00 0. -1.
         35    2    1    2    0    0 -0.71054273576E-14 -0.35527136788E-14 -0.53181446354E+03  0.59563336215E+03  0.26823959157E+03 0.  0.
         25    2    3    3    0    0  0.42795170217E+02  0.20335316093E+02 -0.28636528247E+03  0.31588287676E+03  0.12462730501E+03 0.  0.
         25    2    3    3    0    0 -0.42795170217E+02 -0.20335316093E+02 -0.24544918107E+03  0.27975048539E+03  0.12557898676E+03 0.  0.
          5    1    4    4  502    0  0.43101594986E+02 -0.27170007138E+02 -0.40031179869E+02  0.64965699718E+02  0.47000000000E+01 0.  1.
         -5    1    4    4    0  502 -0.30642476834E+00  0.47505323232E+02 -0.24633410260E+03  0.25091717704E+03  0.47000000000E+01 0.  1.
          5    1    5    5  503    0 -0.34111592392E+02  0.36076403006E+02 -0.20144780652E+03  0.20752931441E+03  0.47000000000E+01 0. -1.
         -5    1    5    5    0  503 -0.86835778249E+01 -0.56411719100E+02 -0.44001374550E+02  0.72221170982E+02  0.47000000000E+01 0. -1.
<mgrwt>
<rscale>  0 0.26823959E+03</rscale>
<asrwt>0</asrwt>
<pdfrwt beam="1">  1        1 0.49091464E-02 0.26823959E+03</pdfrwt>
<pdfrwt beam="2">  1       -1 0.86726750E-01 0.26823959E+03</pdfrwt>
<totfact> 0.23434686E+03</totfact>
</mgrwt>
</event>
<event>
 9    1  0.7944303E-001  0.2750932E+03  0.7818608E-02  0.1098400E+00
         -2   -1    0    0    0  501 -0.00000000000E+00  0.00000000000E+00  0.11063451085E+02  0.11063451085E+02  0.00000000000E+00 0.  1.
          2   -1    0    0  501    0  0.00000000000E+00 -0.00000000000E+00 -0.17100512258E+04  0.17100512258E+04  0.00000000000E+00 0.  1.
         35    2    1    2    0    0  0.00000000000E+00 -0.71054273576E-14 -0.16989877747E+04  0.17211146768E+04  0.27509320667E+03 0.  0.
         25    2    3    3    0    0 -0.32753337057E+02  0.19588555607E+01 -0.56154834801E+03  0.57634858082E+03  0.12555684474E+03 0.  0.
         25    2    3    3    0    0  0.32753337057E+02 -0.19588555607E+01 -0.11374394267E+04  0.11447660960E+04  0.12507736432E+03 0.  0.
          5    1    4    4  502    0  0.96462988393E+01  0.32855831321E+02 -0.46569800414E+03  0.46697888367E+03  0.47000000000E+01 0.  1.
         -5    1    4    4    0  502 -0.42399635896E+02 -0.30896975761E+02 -0.95850343867E+02  0.10936969715E+03  0.47000000000E+01 0.  1.
          5    1    5    5  503    0 -0.14952533813E+02  0.24304062678E+02 -0.67537447307E+02  0.73468786017E+02  0.47000000000E+01 0.  1.
         -5    1    5    5    0  503  0.47705870870E+02 -0.26262918239E+02 -0.10699019793E+04  0.10712973100E+04  0.47000000000E+01 0.  1.
<mgrwt>
<rscale>  0 0.27509321E+03</rscale>
<asrwt>0</asrwt>
<pdfrwt beam="1">  1        2 0.26308480E+00 0.27509321E+03</pdfrwt>
<pdfrwt beam="2">  1       -2 0.17020694E-02 0.27509321E+03</pdfrwt>
<totfact> 0.10344693E+04</totfact>
</mgrwt>
</event>
<event>
 9    1  0.7944303E-001  0.2842075E+03  0.7818608E-02  0.1093413E+00
          2   -1    0    0  501    0  0.00000000000E+00  0.00000000000E+00  0.14001469356E+04  0.14001469356E+04  0.00000000000E+00 0.  1.
         -2   -1    0    0    0  501 -0.00000000000E+00 -0.00000000000E+00 -0.14422397018E+02  0.14422397018E+02  0.00000000000E+00 0.  1.
         35    2    1    2    0    0 -0.35527136788E-14 -0.88817841970E-15  0.13857245386E+04  0.14145693326E+04  0.28420749454E+03 0.  0.
         25    2    3    3    0    0  0.21123815499E+02 -0.59119005421E+01  0.33042328515E+03  0.35173978499E+03  0.11857555745E+03 0.  0.
         25    2    3    3    0    0 -0.21123815499E+02  0.59119005421E+01  0.10553012534E+04  0.10628295476E+04  0.12435733058E+03 0.  0.
          5    1    4    4  502    0  0.36040597332E+01 -0.39957524999E+02  0.33947206212E+02  0.52764532218E+02  0.47000000000E+01 0. -1.
         -5    1    4    4    0  502  0.17519755766E+02  0.34045624457E+02  0.29647607894E+03  0.29897525277E+03  0.47000000000E+01 0. -1.
          5    1    5    5  503    0 -0.54652024919E+02  0.69661300256E+01  0.22001967028E+03  0.22686144694E+03  0.47000000000E+01 0. -1.
         -5    1    5    5    0  503  0.33528209419E+02 -0.10542294835E+01  0.83528158312E+03  0.83596810066E+03  0.47000000000E+01 0. -1.
<mgrwt>
<rscale>  0 0.28420749E+03</rscale>
<asrwt>0</asrwt>
<pdfrwt beam="1">  1        2 0.21540711E+00 0.28420749E+03</pdfrwt>
<pdfrwt beam="2">  1       -2 0.22188314E-02 0.28420749E+03</pdfrwt>
<totfact> 0.10253173E+04</totfact>
</mgrwt>
</event>
<event>
 9    1  0.7944303E-001  0.2773711E+03  0.7818608E-02  0.1097134E+00
         -1   -1    0    0    0  501 -0.00000000000E+00  0.00000000000E+00  0.17645498016E+02  0.17645498016E+02  0.00000000000E+00 0. -1.
          1   -1    0    0  501    0  0.00000000000E+00 -0.00000000000E+00 -0.10900048849E+04  0.10900048849E+04  0.00000000000E+00 0. -1.
         35    2    1    2    0    0  0.71054273576E-14  0.00000000000E+00 -0.10723593869E+04  0.11076503829E+04  0.27737108021E+03 0.  0.
         25    2    3    3    0    0 -0.43616570071E+02  0.42523969725E+01 -0.38122625688E+03  0.40353851324E+03  0.12485745742E+03 0.  0.
         25    2    3    3    0    0  0.43616570071E+02 -0.42523969725E+01 -0.69113313001E+03  0.70411186968E+03  0.12723220330E+03 0.  0.
          5    1    4    4  502    0 -0.15257522815E+02  0.28030529234E+02 -0.35830401446E+03  0.35975319227E+03  0.47000000000E+01 0.  1.
         -5    1    4    4    0  502 -0.28359047256E+02 -0.23778132261E+02 -0.22922242417E+02  0.43785320971E+02  0.47000000000E+01 0.  1.
          5    1    5    5  503    0  0.79346702822E+01 -0.61460220132E+02 -0.42552379082E+03  0.43003825900E+03  0.47000000000E+01 0.  1.
         -5    1    5    5    0  503  0.35681899789E+02  0.57207823160E+02 -0.26560933919E+03  0.27407361067E+03  0.47000000000E+01 0.  1.
<mgrwt>
<rscale>  0 0.27737108E+03</rscale>
<asrwt>0</asrwt>
<pdfrwt beam="1">  1        1 0.16769310E+00 0.27737108E+03</pdfrwt>
<pdfrwt beam="2">  1       -1 0.27146913E-02 0.27737108E+03</pdfrwt>
<totfact> 0.59987022E+03</totfact>
</mgrwt>
</event>
<event>
 9    1  0.7944303E-001  0.2717489E+03  0.7818608E-02  0.1100283E+00
          1   -1    0    0  501    0  0.00000000000E+00  0.00000000000E+00  0.72821554332E+02  0.72821554332E+02  0.00000000000E+00 0.  1.
         -1   -1    0    0    0  501 -0.00000000000E+00 -0.00000000000E+00 -0.25352194786E+03  0.25352194786E+03  0.00000000000E+00 0.  1.
         35    2    1    2    0    0  0.00000000000E+00 -0.71054273576E-14 -0.18070039353E+03  0.32634350219E+03  0.27174887158E+03 0.  0.
         25    2    3    3    0    0 -0.25288110818E+02  0.46051247107E+02 -0.91138136536E+02  0.16347589868E+03  0.12513194480E+03 0.  0.
         25    2    3    3    0    0  0.25288110818E+02 -0.46051247107E+02 -0.89562256994E+02  0.16286760351E+03  0.12547610325E+03 0.  0.
          5    1    4    4  502    0 -0.58292213457E+02 -0.19933884649E+02 -0.41479023617E+02  0.74417345472E+02  0.47000000000E+01 0. -1.
         -5    1    4    4    0  502  0.33004102640E+02  0.65985131757E+02 -0.49659112919E+02  0.89058553210E+02  0.47000000000E+01 0. -1.
          5    1    5    5  503    0 -0.39572462223E+01  0.11447326315E+02  0.26774274358E+02  0.29759920108E+02  0.47000000000E+01 0. -1.
         -5    1    5    5    0  503  0.29245357040E+02 -0.57498573423E+02 -0.11633653135E+03  0.13310768340E+03  0.47000000000E+01 0. -1.
<mgrwt>
<rscale>  0 0.27174887E+03</rscale>
<asrwt>0</asrwt>
<pdfrwt beam="1">  1        1 0.11203316E-01 0.27174887E+03</pdfrwt>
<pdfrwt beam="2">  1       -1 0.39003377E-01 0.27174887E+03</pdfrwt>
<totfact> 0.35354899E+03</totfact>
</mgrwt>
</event>
<event>
 9    1  0.7944303E-001  0.2723414E+03  0.7818608E-02  0.1099947E+00
         -2   -1    0    0    0  501 -0.00000000000E+00  0.00000000000E+00  0.52463193857E+02  0.52463193857E+02  0.00000000000E+00 0.  1.
          2   -1    0    0  501    0  0.00000000000E+00 -0.00000000000E+00 -0.35343759496E+03  0.35343759496E+03  0.00000000000E+00 0.  1.
         35    2    1    2    0    0  0.00000000000E+00  0.17763568394E-14 -0.30097440110E+03  0.40590078881E+03  0.27234144055E+03 0.  0.
         25    2    3    3    0    0  0.16766629541E+02 -0.74034233485E+01 -0.72757958547E+02  0.14531585747E+03  0.12444696604E+03 0.  0.
         25    2    3    3    0    0 -0.16766629541E+02  0.74034233485E+01 -0.22821644255E+03  0.26058493134E+03  0.12444207989E+03 0.  0.
          5    1    4    4  502    0 -0.43052235748E+01 -0.57829203899E+01 -0.10561611369E+03  0.10596617662E+03  0.47000000000E+01 0.  1.
         -5    1    4    4    0  502  0.21071853116E+02 -0.16205029586E+01  0.32858155139E+02  0.39349680846E+02  0.47000000000E+01 0.  1.
          5    1    5    5  503    0  0.39642629039E+02 -0.35643612537E+02 -0.80858083465E+02  0.96964554417E+02  0.47000000000E+01 0. -1.
         -5    1    5    5    0  503 -0.56409258580E+02  0.43047035885E+02 -0.14735835909E+03  0.16362037693E+03  0.47000000000E+01 0. -1.
<mgrwt>
<rscale>  0 0.27234144E+03</rscale>
<asrwt>0</asrwt>
<pdfrwt beam="1">  1        2 0.54375015E-01 0.27234144E+03</pdfrwt>
<pdfrwt beam="2">  1       -2 0.80712605E-02 0.27234144E+03</pdfrwt>
<totfact> 0.84601810E+03</totfact>
</mgrwt>
</event>
<event>
 9    1  0.7944303E-001  0.2767238E+03  0.7818608E-02  0.1097492E+00
         -2   -1    0    0    0  501 -0.00000000000E+00  0.00000000000E+00  0.58314616545E+02  0.58314616545E+02  0.00000000000E+00 0.  1.
          2   -1    0    0  501    0  0.00000000000E+00 -0.00000000000E+00 -0.32828843582E+03  0.32828843582E+03  0.00000000000E+00 0.  1.
         35    2    1    2    0    0  0.71054273576E-14  0.14210854715E-13 -0.26997381928E+03  0.38660305237E+03  0.27672379190E+03 0.  0.
         25    2    3    3    0    0  0.30005852815E+02  0.51021079547E+02 -0.14127932711E+03  0.19758700811E+03  0.12480895698E+03 0.  0.
         25    2    3    3    0    0 -0.30005852815E+02 -0.51021079547E+02 -0.12869449217E+03  0.18901604426E+03  0.12514507946E+03 0.  0.
          5    1    4    4  502    0  0.18650243270E+02 -0.29773431586E+02 -0.12658638884E+01  0.35468030870E+02  0.47000000000E+01 0.  1.
         -5    1    4    4    0  502  0.11355609545E+02  0.80794511133E+02 -0.14001346322E+03  0.16211897724E+03  0.47000000000E+01 0.  1.
          5    1    5    5  503    0 -0.22072784766E+02  0.33342829538E+02 -0.83883601004E+02  0.93045691068E+02  0.47000000000E+01 0. -1.
         -5    1    5    5    0  503 -0.79330680489E+01 -0.84363909085E+02 -0.44810891164E+02  0.95970353192E+02  0.47000000000E+01 0. -1.
<mgrwt>
<rscale>  0 0.27672379E+03</rscale>
<asrwt>0</asrwt>
<pdfrwt beam="1">  1        2 0.50505914E-01 0.27672379E+03</pdfrwt>
<pdfrwt beam="2">  1       -2 0.89714794E-02 0.27672379E+03</pdfrwt>
<totfact> 0.77651789E+03</totfact>
</mgrwt>
</event>
<event>
 9    1  0.7944303E-001  0.2807039E+03  0.7818608E-02  0.1095305E+00
          3   -1    0    0  501    0  0.00000000000E+00  0.00000000000E+00  0.12050032170E+03  0.12050032170E+03  0.00000000000E+00 0. -1.
         -3   -1    0    0    0  501 -0.00000000000E+00 -0.00000000000E+00 -0.16347402991E+03  0.16347402991E+03  0.00000000000E+00 0. -1.
         35    2    1    2    0    0 -0.71054273576E-14  0.00000000000E+00 -0.42973708212E+02  0.28397435162E+03  0.28070392370E+03 0.  0.
         25    2    3    3    0    0 -0.36370575425E+02  0.26691856347E+00 -0.73349439730E+02  0.14958918700E+03  0.12519542546E+03 0.  0.
         25    2    3    3    0    0  0.36370575425E+02 -0.26691856347E+00  0.30375731519E+02  0.13438516462E+03  0.12575292204E+03 0.  0.
          5    1    4    4  502    0 -0.32437280353E+02 -0.10643347394E+02 -0.10767428648E+03  0.11305441154E+03  0.47000000000E+01 0. -1.
         -5    1    4    4    0  502 -0.39332950715E+01  0.10910265957E+02  0.34324846746E+02  0.36534775455E+02  0.47000000000E+01 0. -1.
          5    1    5    5  503    0  0.77737063697E+02 -0.25831130779E+02  0.19305320232E+02  0.84291659011E+02  0.47000000000E+01 0.  1.
         -5    1    5    5    0  503 -0.41366488272E+02  0.25564212216E+02  0.11070411287E+02  0.50093505609E+02  0.47000000000E+01 0.  1.
<mgrwt>
<rscale>  0 0.28070392E+03</rscale>
<asrwt>0</asrwt>
<pdfrwt beam="1">  1        3 0.18538511E-01 0.28070392E+03</pdfrwt>
<pdfrwt beam="2">  1       -3 0.25149851E-01 0.28070392E+03</pdfrwt>
<totfact> 0.97201230E+02</totfact>
</mgrwt>
</event>
<event>
 9    1  0.7944303E-001  0.2646067E+03  0.7818608E-02  0.1104407E+00
          2   -1    0    0  501    0  0.00000000000E+00  0.00000000000E+00  0.12517574799E+03  0.12517574799E+03  0.00000000000E+00 0. -1.
         -2   -1    0    0    0  501 -0.00000000000E+00 -0.00000000000E+00 -0.13983683466E+03  0.13983683466E+03  0.00000000000E+00 0. -1.
         35    2    1    2    0    0  0.00000000000E+00  0.00000000000E+00 -0.14661086672E+02  0.26501258265E+03  0.26460672988E+03 0.  0.
         25    2    3    3    0    0 -0.34145270965E+02 -0.21954013780E+02  0.90616774978E+01  0.13157678711E+03  0.12482971864E+03 0.  0.
         25    2    3    3    0    0  0.34145270965E+02  0.21954013780E+02 -0.23722764169E+02  0.13343579554E+03  0.12487779523E+03 0.  0.
          5    1    4    4  502    0 -0.49369454584E+01 -0.84218932081E+01  0.65523556431E+02  0.66413313147E+02  0.47000000000E+01 0. -1.
         -5    1    4    4    0  502 -0.29208325506E+02 -0.13532120572E+02 -0.56461878934E+02  0.65163473962E+02  0.47000000000E+01 0. -1.
          5    1    5    5  503    0  0.15279596394E+02  0.41886624688E+02  0.42388854597E+02  0.61699760030E+02  0.47000000000E+01 0. -1.
         -5    1    5    5    0  503  0.18865674571E+02 -0.19932610908E+02 -0.66111618767E+02  0.71736035509E+02  0.47000000000E+01 0. -1.
<mgrwt>
<rscale>  0 0.26460673E+03</rscale>
<asrwt>0</asrwt>
<pdfrwt beam="1">  1        2 0.19257807E-01 0.26460673E+03</pdfrwt>
<pdfrwt beam="2">  1       -2 0.21513359E-01 0.26460673E+03</pdfrwt>
<totfact> 0.53247704E+03</totfact>
</mgrwt>
</event>
<event>
 9    1  0.7944303E-001  0.2889487E+03  0.7818608E-02  0.1090899E+00
          2   -1    0    0  501    0  0.00000000000E+00  0.00000000000E+00  0.16392154782E+03  0.16392154782E+03  0.00000000000E+00 0. -1.
         -2   -1    0    0    0  501 -0.00000000000E+00 -0.00000000000E+00 -0.12733432341E+03  0.12733432341E+03  0.00000000000E+00 0. -1.
         35    2    1    2    0    0  0.00000000000E+00  0.00000000000E+00  0.36587224406E+02  0.29125587123E+03  0.28894871091E+03 0.  0.
         25    2    3    3    0    0  0.55862356825E+02  0.31326776537E+02 -0.20027438041E+02  0.13948895977E+03  0.12228696490E+03 0.  0.
         25    2    3    3    0    0 -0.55862356825E+02 -0.31326776537E+02  0.56614662447E+02  0.15176691146E+03  0.12540337145E+03 0.  0.
          5    1    4    4  502    0  0.90548320969E+02  0.22312145950E+02  0.80476036142E+01  0.93721311403E+02  0.47000000000E+01 0.  1.
         -5    1    4    4    0  502 -0.34685964144E+02  0.90146305872E+01 -0.28075041656E+02  0.45767648369E+02  0.47000000000E+01 0.  1.
          5    1    5    5  503    0 -0.74562403685E+02 -0.66930292914E+02  0.39283248361E+02  0.10772409087E+03  0.47000000000E+01 0. -1.
         -5    1    5    5    0  503  0.18700046860E+02  0.35603516377E+02  0.17331414086E+02  0.44042820586E+02  0.47000000000E+01 0. -1.
<mgrwt>
<rscale>  0 0.28894871E+03</rscale>
<asrwt>0</asrwt>
<pdfrwt beam="1">  1        2 0.25218700E-01 0.28894871E+03</pdfrwt>
<pdfrwt beam="2">  1       -2 0.19589896E-01 0.28894871E+03</pdfrwt>
<totfact> 0.46208800E+03</totfact>
</mgrwt>
</event>
<event>
 9    1  0.7944303E-001  0.2761323E+03  0.7818608E-02  0.1097820E+00
          1   -1    0    0  501    0  0.00000000000E+00  0.00000000000E+00  0.66649314290E+03  0.66649314290E+03  0.00000000000E+00 0.  1.
         -1   -1    0    0    0  501 -0.00000000000E+00 -0.00000000000E+00 -0.28600847248E+02  0.28600847248E+02  0.00000000000E+00 0.  1.
         35    2    1    2    0    0  0.35527136788E-14  0.00000000000E+00  0.63789229566E+03  0.69509399015E+03  0.27613234923E+03 0.  0.
         25    2    3    3    0    0 -0.11216181933E+02 -0.83426267988E+01  0.43603938054E+03  0.45377427675E+03  0.12484130204E+03 0.  0.
         25    2    3    3    0    0  0.11216181933E+02  0.83426267988E+01  0.20185291511E+03  0.24131971340E+03  0.13151122605E+03 0.  0.
          5    1    4    4  502    0 -0.32851363597E+02  0.48905357309E+02  0.15000388678E+03  0.16122717548E+03  0.47000000000E+01 0. -1.
         -5    1    4    4    0  502  0.21635181664E+02 -0.57247984107E+02  0.28603549376E+03  0.29254710126E+03  0.47000000000E+01 0. -1.
          5    1    5    5  503    0  0.46027327709E+02  0.56214907339E+02  0.11503834366E+03  0.13614162190E+03  0.47000000000E+01 0.  1.
         -5    1    5    5    0  503 -0.34811145776E+02 -0.47872280540E+02  0.86814571458E+02  0.10517809150E+03  0.47000000000E+01 0.  1.
<mgrwt>
<rscale>  0 0.27613235E+03</rscale>
<asrwt>0</asrwt>
<pdfrwt beam="1">  1        1 0.10253739E+00 0.27613235E+03</pdfrwt>
<pdfrwt beam="2">  1       -1 0.44001308E-02 0.27613235E+03</pdfrwt>
<totfact> 0.64388014E+03</totfact>
</mgrwt>
</event>
<event>
 9    1  0.7944303E-001  0.2777744E+03  0.7818608E-02  0.1096911E+00
          2   -1    0    0  501    0  0.00000000000E+00  0.00000000000E+00  0.26104010235E+03  0.26104010235E+03  0.00000000000E+00 0.  1.
         -2   -1    0    0    0  501 -0.00000000000E+00 -0.00000000000E+00 -0.73895378058E+02  0.73895378058E+02  0.00000000000E+00 0.  1.
         35    2    1    2    0    0 -0.14210854715E-13  0.17763568394E-14  0.18714472430E+03  0.33493548041E+03  0.27777441964E+03 0.  0.
         25    2    3    3    0    0  0.61623291457E+02  0.11311957769E+02  0.84985348681E+02  0.16348463238E+03  0.12481716666E+03 0.  0.
         25    2    3    3    0    0 -0.61623291457E+02 -0.11311957769E+02  0.10215937562E+03  0.17145084804E+03  0.12261103061E+03 0.  0.
          5    1    4    4  502    0 -0.30041566026E+02  0.94765396930E+01 -0.79765097715E+01  0.32833141823E+02  0.47000000000E+01 0. -1.
         -5    1    4    4    0  502  0.91664857483E+02  0.18354180761E+01  0.92961858452E+02  0.13065149055E+03  0.47000000000E+01 0. -1.
          5    1    5    5  503    0 -0.85736051913E+02 -0.68016978187E+01  0.11474960070E+03  0.14347994477E+03  0.47000000000E+01 0. -1.
         -5    1    5    5    0  503  0.24112760456E+02 -0.45102599504E+01 -0.12590225086E+02  0.27970903263E+02  0.47000000000E+01 0. -1.
<mgrwt>
<rscale>  0 0.27777442E+03</rscale>
<asrwt>0</asrwt>
<pdfrwt beam="1">  1        2 0.40160015E-01 0.27777442E+03</pdfrwt>
<pdfrwt beam="2">  1       -2 0.11368520E-01 0.27777442E+03</pdfrwt>
<totfact> 0.68188484E+03</totfact>
</mgrwt>
</event>
<event>
 9    1  0.7944303E-001  0.2730748E+03  0.7818608E-02  0.1099533E+00
         -3   -1    0    0    0  501 -0.00000000000E+00  0.00000000000E+00  0.73275692455E+02  0.73275692455E+02  0.00000000000E+00 0.  1.
          3   -1    0    0  501    0  0.00000000000E+00 -0.00000000000E+00 -0.25441543770E+03  0.25441543770E+03  0.00000000000E+00 0.  1.
         35    2    1    2    0    0  0.00000000000E+00  0.00000000000E+00 -0.18113974525E+03  0.32769113016E+03  0.27307484226E+03 0.  0.
         25    2    3    3    0    0 -0.16511501843E+02 -0.44341527272E+02 -0.50661178775E+02  0.14277670852E+03  0.12481920015E+03 0.  0.
         25    2    3    3    0    0  0.16511501843E+02  0.44341527272E+02 -0.13047856647E+03  0.18491442164E+03  0.12218791384E+03 0.  0.
          5    1    4    4  502    0 -0.31745401715E+02 -0.83301354298E+02 -0.22280173067E+02  0.92007512029E+02  0.47000000000E+01 0. -1.
         -5    1    4    4    0  502  0.15233899871E+02  0.38959827027E+02 -0.28381005708E+02  0.50769196490E+02  0.47000000000E+01 0. -1.
          5    1    5    5  503    0  0.88834813843E+01  0.44327214489E+02 -0.15356501696E+03  0.16015031259E+03  0.47000000000E+01 0. -1.
         -5    1    5    5    0  503  0.76280204592E+01  0.14312782381E-01  0.23086450491E+02  0.24764109054E+02  0.47000000000E+01 0. -1.
<mgrwt>
<rscale>  0 0.27307484E+03</rscale>
<asrwt>0</asrwt>
<pdfrwt beam="1">  1        3 0.39140835E-01 0.27307484E+03</pdfrwt>
<pdfrwt beam="2">  1       -3 0.11273184E-01 0.27307484E+03</pdfrwt>
<totfact> 0.99389394E+02</totfact>
</mgrwt>
</event>
<event>
 9    1  0.7944303E-001  0.2813012E+03  0.7818608E-02  0.1094980E+00
         -2   -1    0    0    0  501 -0.00000000000E+00  0.00000000000E+00  0.21004713400E+02  0.21004713400E+02  0.00000000000E+00 0. -1.
          2   -1    0    0  501    0  0.00000000000E+00 -0.00000000000E+00 -0.94181703090E+03  0.94181703090E+03  0.00000000000E+00 0. -1.
         35    2    1    2    0    0  0.14210854715E-13  0.00000000000E+00 -0.92081231750E+03  0.96282174430E+03  0.28130123931E+03 0.  0.
         25    2    3    3    0    0 -0.39039152287E+02 -0.35944475531E+02 -0.58885417264E+03  0.60430029360E+03  0.12495418150E+03 0.  0.
         25    2    3    3    0    0  0.39039152287E+02  0.35944475531E+02 -0.33195814486E+03  0.35852145071E+03  0.12460080233E+03 0.  0.
          5    1    4    4  502    0 -0.23251079612E+02 -0.19121402122E+02 -0.57724542313E+03  0.57804896786E+03  0.47000000000E+01 0.  1.
         -5    1    4    4    0  502 -0.15788072675E+02 -0.16823073409E+02 -0.11608749511E+02  0.26251325736E+02  0.47000000000E+01 0.  1.
          5    1    5    5  503    0  0.74434716301E+02  0.50582264506E+02 -0.17441219622E+03  0.19631810070E+03  0.47000000000E+01 0. -1.
         -5    1    5    5    0  503 -0.35395564014E+02 -0.14637788975E+02 -0.15754594864E+03  0.16220335000E+03  0.47000000000E+01 0. -1.
<mgrwt>
<rscale>  0 0.28130124E+03</rscale>
<asrwt>0</asrwt>
<pdfrwt beam="1">  1        2 0.14489492E+00 0.28130124E+03</pdfrwt>
<pdfrwt beam="2">  1       -2 0.32314946E-02 0.28130124E+03</pdfrwt>
<totfact> 0.10802091E+04</totfact>
</mgrwt>
</event>
<event>
 9    1  0.7944303E-001  0.2760193E+03  0.7818608E-02  0.1097883E+00
          2   -1    0    0  501    0  0.00000000000E+00  0.00000000000E+00  0.94055778072E+03  0.94055778072E+03  0.00000000000E+00 0.  1.
         -2   -1    0    0    0  501 -0.00000000000E+00 -0.00000000000E+00 -0.20250392915E+02  0.20250392915E+02  0.00000000000E+00 0.  1.
         35    2    1    2    0    0  0.00000000000E+00 -0.35527136788E-14  0.92030738780E+03  0.96080817363E+03  0.27601930816E+03 0.  0.
         25    2    3    3    0    0  0.51535756919E+02 -0.21351533195E+02  0.41132466385E+03  0.43326934584E+03  0.12418745807E+03 0.  0.
         25    2    3    3    0    0 -0.51535756919E+02  0.21351533195E+02  0.50898272395E+03  0.52753882779E+03  0.12697235658E+03 0.  0.
          5    1    4    4  502    0  0.73291098673E+02  0.25742202234E+02  0.17914270412E+03  0.19531626803E+03  0.47000000000E+01 0. -1.
         -5    1    4    4    0  502 -0.21755341753E+02 -0.47093735428E+02  0.23218195973E+03  0.23795307780E+03  0.47000000000E+01 0. -1.
          5    1    5    5  503    0 -0.73836374763E+02 -0.15178810126E+02  0.43841305836E+03  0.44487111196E+03  0.47000000000E+01 0. -1.
         -5    1    5    5    0  503  0.22300617844E+02  0.36530343321E+02  0.70569665592E+02  0.82667715833E+02  0.47000000000E+01 0. -1.
<mgrwt>
<rscale>  0 0.27601931E+03</rscale>
<asrwt>0</asrwt>
<pdfrwt beam="1">  1        2 0.14470116E+00 0.27601931E+03</pdfrwt>
<pdfrwt beam="2">  1       -2 0.31154458E-02 0.27601931E+03</pdfrwt>
<totfact> 0.11421819E+04</totfact>
</mgrwt>
</event>
<event>
 9    1  0.7944303E-001  0.2777614E+03  0.7818608E-02  0.1096918E+00
          2   -1    0    0  501    0  0.00000000000E+00  0.00000000000E+00  0.10431000286E+04  0.10431000286E+04  0.00000000000E+00 0. -1.
         -2   -1    0    0    0  501 -0.00000000000E+00 -0.00000000000E+00 -0.18490897223E+02  0.18490897223E+02  0.00000000000E+00 0. -1.
         35    2    1    2    0    0  0.71054273576E-14 -0.71054273576E-14  0.10246091314E+04  0.10615909259E+04  0.27776144745E+03 0.  0.
         25    2    3    3    0    0 -0.37438876658E+02 -0.48651617638E+02  0.51605720022E+03  0.53437866277E+03  0.12440607680E+03 0.  0.
         25    2    3    3    0    0  0.37438876658E+02  0.48651617638E+02  0.50855193121E+03  0.52721226310E+03  0.12473593806E+03 0.  0.
          5    1    4    4  502    0 -0.16494016986E+02 -0.89783685262E+02  0.37032189883E+03  0.38143618272E+03  0.47000000000E+01 0.  1.
         -5    1    4    4    0  502 -0.20944859672E+02  0.41132067625E+02  0.14573530139E+03  0.15294248005E+03  0.47000000000E+01 0.  1.
          5    1    5    5  503    0  0.44186168545E+02  0.74343543990E+02  0.20609178867E+03  0.22355154971E+03  0.47000000000E+01 0.  1.
         -5    1    5    5    0  503 -0.67472918871E+01 -0.25691926353E+02  0.30246014254E+03  0.30366071338E+03  0.47000000000E+01 0.  1.
<mgrwt>
<rscale>  0 0.27776145E+03</rscale>
<asrwt>0</asrwt>
<pdfrwt beam="1">  1        2 0.16047688E+00 0.27776145E+03</pdfrwt>
<pdfrwt beam="2">  1       -2 0.28447542E-02 0.27776145E+03</pdfrwt>
<totfact> 0.11309765E+04</totfact>
</mgrwt>
</event>
<event>
 9    1  0.7944303E-001  0.2755513E+03  0.7818608E-02  0.1098144E+00
          2   -1    0    0  501    0  0.00000000000E+00  0.00000000000E+00  0.73506258954E+03  0.73506258954E+03  0.00000000000E+00 0. -1.
         -2   -1    0    0    0  501 -0.00000000000E+00 -0.00000000000E+00 -0.25823835995E+02  0.25823835995E+02  0.00000000000E+00 0. -1.
         35    2    1    2    0    0  0.00000000000E+00  0.00000000000E+00  0.70923875354E+03  0.76088642553E+03  0.27555134373E+03 0.  0.
         25    2    3    3    0    0 -0.20707289613E+02 -0.19624052491E+02  0.21502257234E+03  0.25048668642E+03  0.12527960000E+03 0.  0.
         25    2    3    3    0    0  0.20707289613E+02  0.19624052491E+02  0.49421618120E+03  0.51039973911E+03  0.12427535818E+03 0.  0.
          5    1    4    4  502    0 -0.46278841708E+02  0.36920464764E+02  0.14563123929E+03  0.15727491779E+03  0.47000000000E+01 0. -1.
         -5    1    4    4    0  502  0.25571552094E+02 -0.56544517255E+02  0.69391333052E+02  0.93211768629E+02  0.47000000000E+01 0. -1.
          5    1    5    5  503    0  0.51174931045E+02  0.90332493997E+01  0.46070393784E+03  0.46364930875E+03  0.47000000000E+01 0.  1.
         -5    1    5    5    0  503 -0.30467641431E+02  0.10590803091E+02  0.33512243362E+02  0.46750430369E+02  0.47000000000E+01 0.  1.
<mgrwt>
<rscale>  0 0.27555134E+03</rscale>
<asrwt>0</asrwt>
<pdfrwt beam="1">  1        2 0.11308654E+00 0.27555134E+03</pdfrwt>
<pdfrwt beam="2">  1       -2 0.39728984E-02 0.27555134E+03</pdfrwt>
<totfact> 0.10923524E+04</totfact>
</mgrwt>
</event>
<event>
 9    1  0.7944303E-001  0.2752616E+03  0.7818608E-02  0.1098305E+00
          2   -1    0    0  501    0  0.00000000000E+00  0.00000000000E+00  0.78979895056E+03  0.78979895056E+03  0.00000000000E+00 0. -1.
         -2   -1    0    0    0  501 -0.00000000000E+00 -0.00000000000E+00 -0.23983622721E+02  0.23983622721E+02  0.00000000000E+00 0. -1.
         35    2    1    2    0    0 -0.71054273576E-14  0.00000000000E+00  0.76581532784E+03  0.81378257328E+03  0.27526162142E+03 0.  0.
         25    2    3    3    0    0 -0.40767383444E+02 -0.32877182331E+02  0.44572630888E+03  0.46595221070E+03  0.12528619861E+03 0.  0.
         25    2    3    3    0    0  0.40767383444E+02  0.32877182331E+02  0.32008901896E+03  0.34783036258E+03  0.12564271727E+03 0.  0.
          5    1    4    4  502    0 -0.48042976927E+02 -0.76567462507E+02  0.32072223114E+03  0.33324997148E+03  0.47000000000E+01 0.  1.
         -5    1    4    4    0  502  0.72755934835E+01  0.43690280176E+02  0.12500407774E+03  0.13270223922E+03  0.47000000000E+01 0.  1.
          5    1    5    5  503    0  0.82722262427E+02  0.55271094169E+00  0.20118105453E+03  0.21757569923E+03  0.47000000000E+01 0.  1.
         -5    1    5    5    0  503 -0.41954878984E+02  0.32324471389E+02  0.11890796443E+03  0.13025466336E+03  0.47000000000E+01 0.  1.
<mgrwt>
<rscale>  0 0.27526162E+03</rscale>
<asrwt>0</asrwt>
<pdfrwt beam="1">  1        2 0.12150751E+00 0.27526162E+03</pdfrwt>
<pdfrwt beam="2">  1       -2 0.36897887E-02 0.27526162E+03</pdfrwt>
<totfact> 0.11157744E+04</totfact>
</mgrwt>
</event>
<event>
 9    1  0.7944303E-001  0.3085719E+03  0.7818608E-02  0.1081032E+00
         -2   -1    0    0    0  501 -0.00000000000E+00  0.00000000000E+00  0.12821224083E+03  0.12821224083E+03  0.00000000000E+00 0. -1.
          2   -1    0    0  501    0  0.00000000000E+00 -0.00000000000E+00 -0.18566206326E+03  0.18566206326E+03  0.00000000000E+00 0. -1.
         35    2    1    2    0    0  0.00000000000E+00  0.14210854715E-13 -0.57449822434E+02  0.31387430409E+03  0.30857186629E+03 0.  0.
         25    2    3    3    0    0  0.94632346361E+01  0.73958030740E+02 -0.77219576439E+02  0.16723555678E+03  0.12824010818E+03 0.  0.
         25    2    3    3    0    0 -0.94632346361E+01 -0.73958030740E+02  0.19769754005E+02  0.14663874731E+03  0.12471060868E+03 0.  0.
          5    1    4    4  502    0  0.29358383918E+01  0.81646047833E+01 -0.97438672863E+02  0.97937045533E+02  0.47000000000E+01 0. -1.
         -5    1    4    4    0  502  0.65273962443E+01  0.65793425957E+02  0.20219096424E+02  0.69298511247E+02  0.47000000000E+01 0. -1.
          5    1    5    5  503    0 -0.37443039481E+02 -0.27291101015E+02 -0.43033946368E+02  0.63409746413E+02  0.47000000000E+01 0. -1.
         -5    1    5    5    0  503  0.27979804844E+02 -0.46666929725E+02  0.62803700373E+02  0.83229000893E+02  0.47000000000E+01 0. -1.
<mgrwt>
<rscale>  0 0.30857187E+03</rscale>
<asrwt>0</asrwt>
<pdfrwt beam="1">  1        2 0.28563394E-01 0.30857187E+03</pdfrwt>
<pdfrwt beam="2">  1       -2 0.19724960E-01 0.30857187E+03</pdfrwt>
<totfact> 0.39835496E+03</totfact>
</mgrwt>
</event>
<event>
 9    1  0.7944303E-001  0.2710712E+03  0.7818608E-02  0.1100668E+00
          2   -1    0    0  501    0  0.00000000000E+00  0.00000000000E+00  0.65150032312E+03  0.65150032312E+03  0.00000000000E+00 0. -1.
         -2   -1    0    0    0  501 -0.00000000000E+00 -0.00000000000E+00 -0.28196293753E+02  0.28196293753E+02  0.00000000000E+00 0. -1.
         35    2    1    2    0    0 -0.71054273576E-14 -0.71054273576E-14  0.62330402936E+03  0.67969661687E+03  0.27107116771E+03 0.  0.
         25    2    3    3    0    0  0.44723992526E+02  0.26220479425E+02  0.34169675190E+03  0.36694363615E+03  0.12330130902E+03 0.  0.
         25    2    3    3    0    0 -0.44723992526E+02 -0.26220479425E+02  0.28160727746E+03  0.31275298072E+03  0.12579355777E+03 0.  0.
          5    1    4    4  502    0  0.80841549499E+01 -0.35300416594E+02  0.23832178161E+03  0.24110336904E+03  0.47000000000E+01 0. -1.
         -5    1    4    4    0  502  0.36639837576E+02  0.61520896020E+02  0.10337497028E+03  0.12584026711E+03  0.47000000000E+01 0. -1.
          5    1    5    5  503    0 -0.49965666341E+02  0.27320013983E+02  0.23363430661E+03  0.24052033220E+03  0.47000000000E+01 0.  1.
         -5    1    5    5    0  503  0.52416738155E+01 -0.53540493408E+02  0.47972970852E+02  0.72232648512E+02  0.47000000000E+01 0.  1.
<mgrwt>
<rscale>  0 0.27107117E+03</rscale>
<asrwt>0</asrwt>
<pdfrwt beam="1">  1        2 0.10023081E+00 0.27107117E+03</pdfrwt>
<pdfrwt beam="2">  1       -2 0.43378918E-02 0.27107117E+03</pdfrwt>
<totfact> 0.11065628E+04</totfact>
</mgrwt>
</event>
<event>
 9    1  0.7944303E-001  0.2738307E+03  0.7818608E-02  0.1099107E+00
         -2   -1    0    0    0  501 -0.00000000000E+00  0.00000000000E+00  0.14010092919E+02  0.14010092919E+02  0.00000000000E+00 0. -1.
          2   -1    0    0  501    0  0.00000000000E+00 -0.00000000000E+00 -0.13380218535E+04  0.13380218535E+04  0.00000000000E+00 0. -1.
         35    2    1    2    0    0  0.00000000000E+00 -0.14210854715E-13 -0.13240117605E+04  0.13520319464E+04  0.27383068122E+03 0.  0.
         25    2    3    3    0    0  0.20056493463E+02  0.53992130673E+02 -0.71333626220E+03  0.72621411791E+03  0.12337304801E+03 0.  0.
         25    2    3    3    0    0 -0.20056493463E+02 -0.53992130673E+02 -0.61067549834E+03  0.62581782847E+03  0.12412081635E+03 0.  0.
          5    1    4    4  502    0  0.47313506788E+02  0.72203291362E+02 -0.31955645451E+03  0.33104425810E+03  0.47000000000E+01 0. -1.
         -5    1    4    4    0  502 -0.27257013325E+02 -0.18211160689E+02 -0.39377980769E+03  0.39516985980E+03  0.47000000000E+01 0. -1.
          5    1    5    5  503    0 -0.12937252668E+02 -0.81096029430E+02 -0.57168366707E+03  0.57757098585E+03  0.47000000000E+01 0.  1.
         -5    1    5    5    0  503 -0.71192407942E+01  0.27103898757E+02 -0.38991831266E+02  0.48246842620E+02  0.47000000000E+01 0.  1.
<mgrwt>
<rscale>  0 0.27383068E+03</rscale>
<asrwt>0</asrwt>
<pdfrwt beam="1">  1        2 0.20584948E+00 0.27383068E+03</pdfrwt>
<pdfrwt beam="2">  1       -2 0.21553993E-02 0.27383068E+03</pdfrwt>
<totfact> 0.11561702E+04</totfact>
</mgrwt>
</event>
<event>
 9    1  0.7944303E-001  0.2758361E+03  0.7818608E-02  0.1097985E+00
          1   -1    0    0  501    0  0.00000000000E+00  0.00000000000E+00  0.20225792375E+03  0.20225792375E+03  0.00000000000E+00 0.  1.
         -1   -1    0    0    0  501 -0.00000000000E+00 -0.00000000000E+00 -0.94045218819E+02  0.94045218819E+02  0.00000000000E+00 0.  1.
         35    2    1    2    0    0 -0.44408920985E-15  0.00000000000E+00  0.10821270493E+03  0.29630314256E+03  0.27583611581E+03 0.  0.
         25    2    3    3    0    0 -0.87855950084E+00 -0.59934471440E+02  0.56167942835E+02  0.14809839752E+03  0.12322899339E+03 0.  0.
         25    2    3    3    0    0  0.87855950084E+00  0.59934471440E+02  0.52044762091E+02  0.14820474505E+03  0.12515221317E+03 0.  0.
          5    1    4    4  502    0  0.60403184931E+02 -0.39109126747E+02  0.28074663678E+02  0.77384399496E+02  0.47000000000E+01 0.  1.
         -5    1    4    4    0  502 -0.61281744432E+02 -0.20825344692E+02  0.28093279158E+02  0.70713998020E+02  0.47000000000E+01 0.  1.
          5    1    5    5  503    0 -0.19578012789E+01  0.67256643420E+02  0.88129112747E+02  0.11097801396E+03  0.47000000000E+01 0.  1.
         -5    1    5    5    0  503  0.28363607797E+01 -0.73221719800E+01 -0.36084350656E+02  0.37226731084E+02  0.47000000000E+01 0.  1.
<mgrwt>
<rscale>  0 0.27583612E+03</rscale>
<asrwt>0</asrwt>
<pdfrwt beam="1">  1        1 0.31116604E-01 0.27583612E+03</pdfrwt>
<pdfrwt beam="2">  1       -1 0.14468495E-01 0.27583612E+03</pdfrwt>
<totfact> 0.48900117E+03</totfact>
</mgrwt>
</event>
<event>
 9    1  0.7944303E-001  0.2760773E+03  0.7818608E-02  0.1097851E+00
          1   -1    0    0  501    0  0.00000000000E+00  0.00000000000E+00  0.88966708730E+02  0.88966708730E+02  0.00000000000E+00 0. -1.
         -1   -1    0    0    0  501 -0.00000000000E+00 -0.00000000000E+00 -0.21417747210E+03  0.21417747210E+03  0.00000000000E+00 0. -1.
         35    2    1    2    0    0  0.53290705182E-14  0.00000000000E+00 -0.12521076337E+03  0.30314418083E+03  0.27607727017E+03 0.  0.
         25    2    3    3    0    0  0.14981124907E+02 -0.14690752806E+01 -0.12527820109E+03  0.17747322402E+03  0.12480194425E+03 0.  0.
         25    2    3    3    0    0 -0.14981124907E+02  0.14690752806E+01  0.67437718932E-01  0.12567095681E+03  0.12476615147E+03 0.  0.
          5    1    4    4  502    0  0.23035202187E+02 -0.14797675938E+02  0.18112753363E+02  0.33162532885E+02  0.47000000000E+01 0.  1.
         -5    1    4    4    0  502 -0.80540772794E+01  0.13328600658E+02 -0.14339095445E+03  0.14431069113E+03  0.47000000000E+01 0.  1.
          5    1    5    5  503    0 -0.68219188130E+02 -0.53459257011E+01 -0.13962616793E+02  0.69996294320E+02  0.47000000000E+01 0. -1.
         -5    1    5    5    0  503  0.53238063223E+02  0.68150009817E+01  0.14030054512E+02  0.55674662493E+02  0.47000000000E+01 0. -1.
<mgrwt>
<rscale>  0 0.27607727E+03</rscale>
<asrwt>0</asrwt>
<pdfrwt beam="1">  1        1 0.13687186E-01 0.27607727E+03</pdfrwt>
<pdfrwt beam="2">  1       -1 0.32950380E-01 0.27607727E+03</pdfrwt>
<totfact> 0.36386810E+03</totfact>
</mgrwt>
</event>
<event>
 9    1  0.7944303E-001  0.2730972E+03  0.7818608E-02  0.1099520E+00
         -2   -1    0    0    0  501 -0.00000000000E+00  0.00000000000E+00  0.86159751348E+01  0.86159751348E+01  0.00000000000E+00 0. -1.
          2   -1    0    0  501    0  0.00000000000E+00 -0.00000000000E+00 -0.21640644806E+04  0.21640644806E+04  0.00000000000E+00 0. -1.
         35    2    1    2    0    0  0.35527136788E-14  0.00000000000E+00 -0.21554485055E+04  0.21726804558E+04  0.27309724096E+03 0.  0.
         25    2    3    3    0    0 -0.19374420622E+02  0.27269708550E+02 -0.14328958638E+04  0.14387087167E+04  0.12479266753E+03 0.  0.
         25    2    3    3    0    0  0.19374420622E+02 -0.27269708550E+02 -0.72255264173E+03  0.73397173908E+03  0.12455195112E+03 0.  0.
          5    1    4    4  502    0 -0.47004726343E+02  0.17362839302E+02 -0.13446296116E+04  0.13455711779E+04  0.47000000000E+01 0. -1.
         -5    1    4    4    0  502  0.27630305721E+02  0.99068692483E+01 -0.88266252170E+02  0.93137538752E+02  0.47000000000E+01 0. -1.
          5    1    5    5  503    0  0.28086252538E+02 -0.71053845414E+02 -0.32501176980E+03  0.33390451785E+03  0.47000000000E+01 0. -1.
         -5    1    5    5    0  503 -0.87118319157E+01  0.43784136865E+02 -0.39754087193E+03  0.40006722124E+03  0.47000000000E+01 0. -1.
<mgrwt>
<rscale>  0 0.27309724E+03</rscale>
<asrwt>0</asrwt>
<pdfrwt beam="1">  1        2 0.33293305E+00 0.27309724E+03</pdfrwt>
<pdfrwt beam="2">  1       -2 0.13255344E-02 0.27309724E+03</pdfrwt>
<totfact> 0.86017787E+03</totfact>
</mgrwt>
</event>
<event>
 9    1  0.7944303E-001  0.2962959E+03  0.7818608E-02  0.1087107E+00
          2   -1    0    0  501    0  0.00000000000E+00  0.00000000000E+00  0.26312940744E+04  0.26312940744E+04  0.00000000000E+00 0. -1.
         -2   -1    0    0    0  501 -0.00000000000E+00 -0.00000000000E+00 -0.83410720816E+01  0.83410720816E+01  0.00000000000E+00 0. -1.
         35    2    1    2    0    0  0.71054273576E-14  0.71054273576E-14  0.26229530023E+04  0.26396351465E+04  0.29629588956E+03 0.  0.
         25    2    3    3    0    0 -0.41291535714E+02  0.31768773839E+02  0.18411577967E+04  0.18461557540E+04  0.12535864473E+03 0.  0.
         25    2    3    3    0    0  0.41291535714E+02 -0.31768773839E+02  0.78179520556E+03  0.79347939241E+03  0.12526594442E+03 0.  0.
          5    1    4    4  502    0  0.11252376368E+02  0.67495450689E+02  0.74608064385E+03  0.74922671400E+03  0.47000000000E+01 0.  1.
         -5    1    4    4    0  502 -0.52543912082E+02 -0.35726676850E+02  0.10950771529E+04  0.10969290401E+04  0.47000000000E+01 0.  1.
          5    1    5    5  503    0  0.67173197449E+02 -0.37926569283E+02  0.26658553807E+03  0.27756188899E+03  0.47000000000E+01 0. -1.
         -5    1    5    5    0  503 -0.25881661734E+02  0.61577954444E+01  0.51520966748E+03  0.51591750341E+03  0.47000000000E+01 0. -1.
<mgrwt>
<rscale>  0 0.29629589E+03</rscale>
<asrwt>0</asrwt>
<pdfrwt beam="1">  1        2 0.40481381E+00 0.29629589E+03</pdfrwt>
<pdfrwt beam="2">  1       -2 0.12832440E-02 0.29629589E+03</pdfrwt>
<totfact> 0.50264459E+03</totfact>
</mgrwt>
</event>
<event>
 9    1  0.7944303E-001  0.2791215E+03  0.7818608E-02  0.1096170E+00
          1   -1    0    0  501    0  0.00000000000E+00  0.00000000000E+00  0.25162960310E+03  0.25162960310E+03  0.00000000000E+00 0. -1.
         -1   -1    0    0    0  501 -0.00000000000E+00 -0.00000000000E+00 -0.77404282849E+02  0.77404282849E+02  0.00000000000E+00 0. -1.
         35    2    1    2    0    0  0.00000000000E+00  0.71054273576E-14  0.17422532025E+03  0.32903388595E+03  0.27912154321E+03 0.  0.
         25    2    3    3    0    0 -0.19937566250E+02 -0.61036119518E+02  0.10748418854E+03  0.17701378276E+03  0.12513238617E+03 0.  0.
         25    2    3    3    0    0  0.19937566250E+02  0.61036119518E+02  0.66741131714E+02  0.15202010319E+03  0.12055214091E+03 0.  0.
          5    1    4    4  502    0 -0.49789308074E+01  0.18751918223E+02 -0.18401339587E+02  0.27150018188E+02  0.47000000000E+01 0. -1.
         -5    1    4    4    0  502 -0.14958635442E+02 -0.79788037741E+02  0.12588552812E+03  0.14986376457E+03  0.47000000000E+01 0. -1.
          5    1    5    5  503    0  0.43811351473E+02 -0.99181715362E+01  0.62205451091E+02  0.76872705104E+02  0.47000000000E+01 0. -1.
         -5    1    5    5    0  503 -0.23873785224E+02  0.70954291055E+02  0.45356806224E+01  0.75147398083E+02  0.47000000000E+01 0. -1.
<mgrwt>
<rscale>  0 0.27912154E+03</rscale>
<asrwt>0</asrwt>
<pdfrwt beam="1">  1        1 0.38712246E-01 0.27912154E+03</pdfrwt>
<pdfrwt beam="2">  1       -1 0.11908351E-01 0.27912154E+03</pdfrwt>
<totfact> 0.50481849E+03</totfact>
</mgrwt>
</event>
<event>
 9    1  0.7944303E-001  0.2758496E+03  0.7818608E-02  0.1097978E+00
         -2   -1    0    0    0  501 -0.00000000000E+00  0.00000000000E+00  0.65860375915E+01  0.65860375915E+01  0.00000000000E+00 0.  1.
          2   -1    0    0  501    0  0.00000000000E+00 -0.00000000000E+00 -0.28884204662E+04  0.28884204662E+04  0.00000000000E+00 0.  1.
         35    2    1    2    0    0  0.00000000000E+00 -0.14210854715E-13 -0.28818344286E+04  0.28950065038E+04  0.27584956604E+03 0.  0.
         25    2    3    3    0    0 -0.27526787978E+01 -0.57965376016E+02 -0.14778840924E+04  0.14842882695E+04  0.12491082552E+03 0.  0.
         25    2    3    3    0    0  0.27526787978E+01  0.57965376016E+02 -0.14039503362E+04  0.14107182343E+04  0.12522710562E+03 0.  0.
          5    1    4    4  502    0  0.57788637963E+02 -0.49833459517E+02 -0.80969919632E+03  0.81330054647E+03  0.47000000000E+01 0. -1.
         -5    1    4    4    0  502 -0.60541316761E+02 -0.81319164985E+01 -0.66818489609E+03  0.67098772303E+03  0.47000000000E+01 0. -1.
          5    1    5    5  503    0 -0.42639538456E+02  0.48197688347E+02 -0.36076971280E+03  0.36649423335E+03  0.47000000000E+01 0. -1.
         -5    1    5    5    0  503  0.45392217254E+02  0.97676876687E+01 -0.10431806234E+04  0.10442240009E+04  0.47000000000E+01 0. -1.
<mgrwt>
<rscale>  0 0.27584957E+03</rscale>
<asrwt>0</asrwt>
<pdfrwt beam="1">  1        2 0.44437271E+00 0.27584957E+03</pdfrwt>
<pdfrwt beam="2">  1       -2 0.10132358E-02 0.27584957E+03</pdfrwt>
<totfact> 0.50673577E+03</totfact>
</mgrwt>
</event>
<event>
 9    1  0.7944303E-001  0.2747443E+03  0.7818608E-02  0.1098595E+00
         -2   -1    0    0    0  501 -0.00000000000E+00  0.00000000000E+00  0.69843631590E+01  0.69843631590E+01  0.00000000000E+00 0. -1.
          2   -1    0    0  501    0  0.00000000000E+00 -0.00000000000E+00 -0.27019083693E+04  0.27019083693E+04  0.00000000000E+00 0. -1.
         35    2    1    2    0    0  0.00000000000E+00 -0.71054273576E-14 -0.26949240062E+04  0.27088927325E+04  0.27474431222E+03 0.  0.
         25    2    3    3    0    0 -0.45019685589E+02  0.33792491433E+02 -0.13446544263E+04  0.13516482157E+04  0.12525441368E+03 0.  0.
         25    2    3    3    0    0  0.45019685589E+02 -0.33792491433E+02 -0.13502695798E+04  0.13572445168E+04  0.12536361348E+03 0.  0.
          5    1    4    4  502    0 -0.20424859249E+02  0.77483949849E+02 -0.60817736273E+03  0.61345149107E+03  0.47000000000E+01 0.  1.
         -5    1    4    4    0  502 -0.24594826341E+02 -0.43691458417E+02 -0.73647706361E+03  0.73819672463E+03  0.47000000000E+01 0.  1.
          5    1    5    5  503    0  0.81593504956E+02  0.69253079931E+01 -0.75297553555E+03  0.75742967138E+03  0.47000000000E+01 0. -1.
         -5    1    5    5    0  503 -0.36573819366E+02 -0.40717799426E+02 -0.59729404428E+03  0.59981484542E+03  0.47000000000E+01 0. -1.
<mgrwt>
<rscale>  0 0.27474431E+03</rscale>
<asrwt>0</asrwt>
<pdfrwt beam="1">  1        2 0.41567868E+00 0.27474431E+03</pdfrwt>
<pdfrwt beam="2">  1       -2 0.10745162E-02 0.27474431E+03</pdfrwt>
<totfact> 0.59484566E+03</totfact>
</mgrwt>
</event>
<event>
 9    1  0.7944303E-001  0.2769200E+03  0.7818608E-02  0.1097383E+00
         -1   -1    0    0    0  501 -0.00000000000E+00  0.00000000000E+00  0.25998142387E+02  0.25998142387E+02  0.00000000000E+00 0. -1.
          1   -1    0    0  501    0  0.00000000000E+00 -0.00000000000E+00 -0.73740543310E+03  0.73740543310E+03  0.00000000000E+00 0. -1.
         35    2    1    2    0    0 -0.71054273576E-14 -0.17763568394E-14 -0.71140729071E+03  0.76340357549E+03  0.27691999889E+03 0.  0.
         25    2    3    3    0    0 -0.58192031481E+02 -0.12712499138E+02 -0.35397156437E+03  0.38015572247E+03  0.12519818201E+03 0.  0.
         25    2    3    3    0    0  0.58192031481E+02  0.12712499138E+02 -0.35743572634E+03  0.38324785302E+03  0.12478260382E+03 0.  0.
          5    1    4    4  502    0 -0.90754548468E+02  0.86242651903E+01 -0.18005043402E+03  0.20186880593E+03  0.47000000000E+01 0. -1.
         -5    1    4    4    0  502  0.32562516988E+02 -0.21336764329E+02 -0.17392113035E+03  0.17828691654E+03  0.47000000000E+01 0. -1.
          5    1    5    5  503    0  0.23113114639E+02  0.54257070474E+02 -0.74686524812E+02  0.95279655505E+02  0.47000000000E+01 0.  1.
         -5    1    5    5    0  503  0.35078916842E+02 -0.41544571336E+02 -0.28274920153E+03  0.28796819751E+03  0.47000000000E+01 0.  1.
<mgrwt>
<rscale>  0 0.27692000E+03</rscale>
<asrwt>0</asrwt>
<pdfrwt beam="1">  1        1 0.11344699E+00 0.27692000E+03</pdfrwt>
<pdfrwt beam="2">  1       -1 0.39997143E-02 0.27692000E+03</pdfrwt>
<totfact> 0.64033631E+03</totfact>
</mgrwt>
</event>
<event>
 9    1  0.7944303E-001  0.2717982E+03  0.7818608E-02  0.1100255E+00
          1   -1    0    0  501    0  0.00000000000E+00  0.00000000000E+00  0.54171447444E+02  0.54171447444E+02  0.00000000000E+00 0. -1.
         -1   -1    0    0    0  501 -0.00000000000E+00 -0.00000000000E+00 -0.34092800907E+03  0.34092800907E+03  0.00000000000E+00 0. -1.
         35    2    1    2    0    0  0.00000000000E+00 -0.71054273576E-14 -0.28675656163E+03  0.39509945652E+03  0.27179818782E+03 0.  0.
         25    2    3    3    0    0 -0.65744819055E+01  0.38208294475E+02 -0.19952604591E+03  0.23807000613E+03  0.12394993846E+03 0.  0.
         25    2    3    3    0    0  0.65744819055E+01 -0.38208294475E+02 -0.87230515716E+02  0.15702945038E+03  0.12468355078E+03 0.  0.
          5    1    4    4  502    0 -0.51579540699E+02  0.13862600838E+02 -0.17119304240E+03  0.17939277713E+03  0.47000000000E+01 0. -1.
         -5    1    4    4    0  502  0.45005058794E+02  0.24345693637E+02 -0.28333003516E+02  0.58677229007E+02  0.47000000000E+01 0. -1.
          5    1    5    5  503    0  0.50648629727E+02 -0.34344569524E+00  0.14685028147E+01  0.50888585642E+02  0.47000000000E+01 0. -1.
         -5    1    5    5    0  503 -0.44074147821E+02 -0.37864848780E+02 -0.88699018530E+02  0.10614086474E+03  0.47000000000E+01 0. -1.
<mgrwt>
<rscale>  0 0.27179819E+03</rscale>
<asrwt>0</asrwt>
<pdfrwt beam="1">  1        1 0.83340689E-02 0.27179819E+03</pdfrwt>
<pdfrwt beam="2">  1       -1 0.52450463E-01 0.27179819E+03</pdfrwt>
<totfact> 0.30757287E+03</totfact>
</mgrwt>
</event>
<event>
 9    1  0.7944303E-001  0.2754429E+03  0.7818608E-02  0.1098204E+00
         -2   -1    0    0    0  501 -0.00000000000E+00  0.00000000000E+00  0.22880758631E+03  0.22880758631E+03  0.00000000000E+00 0.  1.
          2   -1    0    0  501    0  0.00000000000E+00 -0.00000000000E+00 -0.82895862111E+02  0.82895862111E+02  0.00000000000E+00 0.  1.
         35    2    1    2    0    0  0.71054273576E-14  0.10658141036E-13  0.14591172419E+03  0.31170344842E+03  0.27544293147E+03 0.  0.
         25    2    3    3    0    0  0.51011150341E+02 -0.15073130306E+02  0.10117198500E+03  0.16929352103E+03  0.12488069907E+03 0.  0.
         25    2    3    3    0    0 -0.51011150341E+02  0.15073130306E+02  0.44739739199E+02  0.14240992739E+03  0.12429644580E+03 0.  0.
          5    1    4    4  502    0  0.49274192123E+02 -0.65128490153E+02  0.43100880745E+02  0.92463193542E+02  0.47000000000E+01 0. -1.
         -5    1    4    4    0  502  0.17369582171E+01  0.50055359847E+02  0.58071104251E+02  0.76830327490E+02  0.47000000000E+01 0. -1.
          5    1    5    5  503    0 -0.37039402987E+02  0.39103252275E+02 -0.30490910908E+02  0.62070664248E+02  0.47000000000E+01 0.  1.
         -5    1    5    5    0  503 -0.13971747353E+02 -0.24030121969E+02  0.75230650108E+02  0.80339263138E+02  0.47000000000E+01 0.  1.
<mgrwt>
<rscale>  0 0.27544293E+03</rscale>
<asrwt>0</asrwt>
<pdfrwt beam="1">  1        2 0.12753210E-01 0.27544293E+03</pdfrwt>
<pdfrwt beam="2">  1       -2 0.35201167E-01 0.27544293E+03</pdfrwt>
<totfact> 0.35862130E+03</totfact>
</mgrwt>
</event>
<event>
 9    1  0.7944303E-001  0.2771792E+03  0.7818608E-02  0.1097240E+00
          2   -1    0    0  501    0  0.00000000000E+00  0.00000000000E+00  0.79087787757E+03  0.79087787757E+03  0.00000000000E+00 0. -1.
         -2   -1    0    0    0  501 -0.00000000000E+00 -0.00000000000E+00 -0.24285768030E+02  0.24285768030E+02  0.00000000000E+00 0. -1.
         35    2    1    2    0    0 -0.71054273576E-14  0.35527136788E-14  0.76659210954E+03  0.81516364560E+03  0.27717919601E+03 0.  0.
         25    2    3    3    0    0  0.28724950241E+02 -0.11462294700E+02  0.23075480226E+03  0.26419161903E+03  0.12487163744E+03 0.  0.
         25    2    3    3    0    0 -0.28724950241E+02  0.11462294700E+02  0.53583730728E+03  0.55097202657E+03  0.12446705274E+03 0.  0.
          5    1    4    4  502    0 -0.46196232885E+01  0.45267892404E+02  0.16430751153E+03  0.17055665143E+03  0.47000000000E+01 0. -1.
         -5    1    4    4    0  502  0.33344573529E+02 -0.56730187103E+02  0.66447290724E+02  0.93634967599E+02  0.47000000000E+01 0. -1.
          5    1    5    5  503    0  0.28270829243E+02 -0.11205510872E+02  0.40741742038E+03  0.40857783553E+03  0.47000000000E+01 0. -1.
         -5    1    5    5    0  503 -0.56995779484E+02  0.22667805571E+02  0.12841988690E+03  0.14239419103E+03  0.47000000000E+01 0. -1.
<mgrwt>
<rscale>  0 0.27717920E+03</rscale>
<asrwt>0</asrwt>
<pdfrwt beam="1">  1        2 0.12167350E+00 0.27717920E+03</pdfrwt>
<pdfrwt beam="2">  1       -2 0.37362726E-02 0.27717920E+03</pdfrwt>
<totfact> 0.10933907E+04</totfact>
</mgrwt>
</event>
<event>
 9    1  0.7944303E-001  0.2765918E+03  0.7818608E-02  0.1097565E+00
         -2   -1    0    0    0  501 -0.00000000000E+00  0.00000000000E+00  0.76574593010E+01  0.76574593010E+01  0.00000000000E+00 0. -1.
          2   -1    0    0  501    0  0.00000000000E+00 -0.00000000000E+00 -0.24976629640E+04  0.24976629640E+04  0.00000000000E+00 0. -1.
         35    2    1    2    0    0 -0.71054273576E-14  0.71054273576E-14 -0.24900055047E+04  0.25053204233E+04  0.27659177496E+03 0.  0.
         25    2    3    3    0    0  0.44685411072E+02 -0.38726772295E+02 -0.12486391812E+04  0.12562885461E+04  0.12515812986E+03 0.  0.
         25    2    3    3    0    0 -0.44685411072E+02  0.38726772295E+02 -0.12413663235E+04  0.12490318771E+04  0.12487486617E+03 0.  0.
          5    1    4    4  502    0  0.28245691683E+01 -0.62918870503E+02 -0.30867493144E+03  0.31506993788E+03  0.47000000000E+01 0. -1.
         -5    1    4    4    0  502  0.41860841904E+02  0.24192098208E+02 -0.93996424976E+03  0.94121860825E+03  0.47000000000E+01 0. -1.
          5    1    5    5  503    0  0.47873993412E+01 -0.32951647691E+02 -0.68914326927E+03  0.68996323515E+03  0.47000000000E+01 0.  1.
         -5    1    5    5    0  503 -0.49472810413E+02  0.71678419986E+02 -0.55222305419E+03  0.55906864198E+03  0.47000000000E+01 0.  1.
<mgrwt>
<rscale>  0 0.27659177E+03</rscale>
<asrwt>0</asrwt>
<pdfrwt beam="1">  1        2 0.38425550E+00 0.27659177E+03</pdfrwt>
<pdfrwt beam="2">  1       -2 0.11780717E-02 0.27659177E+03</pdfrwt>
<totfact> 0.67555939E+03</totfact>
</mgrwt>
</event>
<event>
 9    1  0.7944303E-001  0.2723861E+03  0.7818608E-02  0.1099922E+00
          2   -1    0    0  501    0  0.00000000000E+00  0.00000000000E+00  0.11458303627E+04  0.11458303627E+04  0.00000000000E+00 0.  1.
         -2   -1    0    0    0  501 -0.00000000000E+00 -0.00000000000E+00 -0.16187864856E+02  0.16187864856E+02  0.00000000000E+00 0.  1.
         35    2    1    2    0    0  0.00000000000E+00  0.00000000000E+00  0.11296424978E+04  0.11620182275E+04  0.27238610140E+03 0.  0.
         25    2    3    3    0    0 -0.47065950026E+02 -0.25726211777E+02  0.53762696556E+03  0.55493302279E+03  0.12661304855E+03 0.  0.
         25    2    3    3    0    0  0.47065950026E+02  0.25726211777E+02  0.59201553226E+03  0.60708520474E+03  0.12325994383E+03 0.  0.
          5    1    4    4  502    0  0.33282677947E+02 -0.14538782147E+02  0.58890357444E+02  0.69348951236E+02  0.47000000000E+01 0.  1.
         -5    1    4    4    0  502 -0.80348627974E+02 -0.11187429631E+02  0.47873660812E+03  0.48558407156E+03  0.47000000000E+01 0.  1.
          5    1    5    5  503    0 -0.35424818437E+02  0.77636331343E+00  0.31276457296E+03  0.31480039485E+03  0.47000000000E+01 0.  1.
         -5    1    5    5    0  503  0.82490768463E+02  0.24949848464E+02  0.27925095930E+03  0.29228480989E+03  0.47000000000E+01 0.  1.
<mgrwt>
<rscale>  0 0.27238610E+03</rscale>
<asrwt>0</asrwt>
<pdfrwt beam="1">  1        2 0.17628153E+00 0.27238610E+03</pdfrwt>
<pdfrwt beam="2">  1       -2 0.24904416E-02 0.27238610E+03</pdfrwt>
<totfact> 0.11977163E+04</totfact>
</mgrwt>
</event>
<event>
 9    1  0.7944303E-001  0.2769885E+03  0.7818608E-02  0.1097345E+00
          2   -1    0    0  501    0  0.00000000000E+00  0.00000000000E+00  0.14001477470E+04  0.14001477470E+04  0.00000000000E+00 0. -1.
         -2   -1    0    0    0  501 -0.00000000000E+00 -0.00000000000E+00 -0.13699025906E+02  0.13699025906E+02  0.00000000000E+00 0. -1.
         35    2    1    2    0    0 -0.71054273576E-14  0.00000000000E+00  0.13864487211E+04  0.14138467729E+04  0.27698852148E+03 0.  0.
         25    2    3    3    0    0 -0.38631117161E+02  0.16176607142E+02  0.88874303004E+03  0.89857208184E+03  0.12575200589E+03 0.  0.
         25    2    3    3    0    0  0.38631117161E+02 -0.16176607142E+02  0.49770569109E+03  0.51527469110E+03  0.12666099050E+03 0.  0.
          5    1    4    4  502    0  0.15187195711E+02  0.59000985542E+02  0.50530067322E+03  0.50898195211E+03  0.47000000000E+01 0. -1.
         -5    1    4    4    0  502 -0.53818312872E+02 -0.42824378400E+02  0.38344235682E+03  0.38959012973E+03  0.47000000000E+01 0. -1.
          5    1    5    5  503    0  0.82922946557E+01  0.27029136673E+02  0.20751030853E+02  0.35384059425E+02  0.47000000000E+01 0. -1.
         -5    1    5    5    0  503  0.30338822505E+02 -0.43205743815E+02  0.47695466023E+03  0.47989063167E+03  0.47000000000E+01 0. -1.
<mgrwt>
<rscale>  0 0.27698852E+03</rscale>
<asrwt>0</asrwt>
<pdfrwt beam="1">  1        2 0.21540723E+00 0.27698852E+03</pdfrwt>
<pdfrwt beam="2">  1       -2 0.21075436E-02 0.27698852E+03</pdfrwt>
<totfact> 0.11055598E+04</totfact>
</mgrwt>
</event>
<event>
 9    1  0.7944303E-001  0.2751868E+03  0.7818608E-02  0.1098347E+00
         -2   -1    0    0    0  501 -0.00000000000E+00  0.00000000000E+00  0.13613240662E+02  0.13613240662E+02  0.00000000000E+00 0.  1.
          2   -1    0    0  501    0  0.00000000000E+00 -0.00000000000E+00 -0.13907007542E+04  0.13907007542E+04  0.00000000000E+00 0.  1.
         35    2    1    2    0    0  0.00000000000E+00  0.35527136788E-14 -0.13770875136E+04  0.14043139949E+04  0.27518680242E+03 0.  0.
         25    2    3    3    0    0 -0.14625772270E+02 -0.99052670518E+01 -0.38950025389E+03  0.40867608070E+03  0.12244861624E+03 0.  0.
         25    2    3    3    0    0  0.14625772270E+02  0.99052670518E+01 -0.98758725968E+03  0.99563791420E+03  0.12511687810E+03 0.  0.
          5    1    4    4  502    0  0.38233352496E+02  0.86363807634E+01 -0.46047490803E+02  0.60653423028E+02  0.47000000000E+01 0. -1.
         -5    1    4    4    0  502 -0.52859124766E+02 -0.18541647815E+02 -0.34345276309E+03  0.34802265767E+03  0.47000000000E+01 0. -1.
          5    1    5    5  503    0 -0.18555648292E+02  0.93154674078E+01 -0.26615231532E+02  0.34081528224E+02  0.47000000000E+01 0.  1.
         -5    1    5    5    0  503  0.33181420562E+02  0.58979964404E+00 -0.96097202815E+03  0.96155638598E+03  0.47000000000E+01 0.  1.
<mgrwt>
<rscale>  0 0.27518680E+03</rscale>
<asrwt>0</asrwt>
<pdfrwt beam="1">  1        2 0.21395390E+00 0.27518680E+03</pdfrwt>
<pdfrwt beam="2">  1       -2 0.20943453E-02 0.27518680E+03</pdfrwt>
<totfact> 0.11289419E+04</totfact>
</mgrwt>
</event>
<event>
 9    1  0.7944303E-001  0.2756569E+03  0.7818608E-02  0.1098085E+00
          2   -1    0    0  501    0  0.00000000000E+00  0.00000000000E+00  0.89794483947E+03  0.89794483947E+03  0.00000000000E+00 0. -1.
         -2   -1    0    0    0  501 -0.00000000000E+00 -0.00000000000E+00 -0.21155736144E+02  0.21155736144E+02  0.00000000000E+00 0. -1.
         35    2    1    2    0    0  0.88817841970E-15  0.14210854715E-13  0.87678910332E+03  0.91910057561E+03  0.27565691789E+03 0.  0.
         25    2    3    3    0    0 -0.96520806339E+00 -0.55200402049E+02  0.48886339189E+03  0.50749618787E+03  0.12456704522E+03 0.  0.
         25    2    3    3    0    0  0.96520806339E+00  0.55200402049E+02  0.38792571143E+03  0.41160438774E+03  0.12603094226E+03 0.  0.
          5    1    4    4  502    0 -0.15823155834E+02  0.18580431618E+02  0.18136086944E+02  0.30767065985E+02  0.47000000000E+01 0. -1.
         -5    1    4    4    0  502  0.14857947771E+02 -0.73780833667E+02  0.47072730495E+03  0.47672912188E+03  0.47000000000E+01 0. -1.
          5    1    5    5  503    0  0.32548994954E+01  0.19587544509E+02  0.37146422818E+03  0.37202423186E+03  0.47000000000E+01 0. -1.
         -5    1    5    5    0  503 -0.22896914320E+01  0.35612857540E+02  0.16461483248E+02  0.39580155883E+02  0.47000000000E+01 0. -1.
<mgrwt>
<rscale>  0 0.27565692E+03</rscale>
<asrwt>0</asrwt>
<pdfrwt beam="1">  1        2 0.13814533E+00 0.27565692E+03</pdfrwt>
<pdfrwt beam="2">  1       -2 0.32547293E-02 0.27565692E+03</pdfrwt>
<totfact> 0.11392386E+04</totfact>
</mgrwt>
</event>
<event>
 9    1  0.7944303E-001  0.2753665E+03  0.7818608E-02  0.1098247E+00
         -2   -1    0    0    0  501 -0.00000000000E+00  0.00000000000E+00  0.43069988224E+02  0.43069988224E+02  0.00000000000E+00 0. -1.
          2   -1    0    0  501    0  0.00000000000E+00 -0.00000000000E+00 -0.44013643681E+03  0.44013643681E+03  0.00000000000E+00 0. -1.
         35    2    1    2    0    0  0.00000000000E+00  0.00000000000E+00 -0.39706644858E+03  0.48320642503E+03  0.27536645511E+03 0.  0.
         25    2    3    3    0    0 -0.18126685926E+02 -0.32919377397E+02 -0.12205689701E+03  0.17887814749E+03  0.12524872610E+03 0.  0.
         25    2    3    3    0    0  0.18126685926E+02  0.32919377397E+02 -0.27500955157E+03  0.30432827754E+03  0.12479256751E+03 0.  0.
          5    1    4    4  502    0 -0.61194159321E+02  0.16183061467E+02 -0.74933314811E+02  0.98202384299E+02  0.47000000000E+01 0.  1.
         -5    1    4    4    0  502  0.43067473394E+02 -0.49102438864E+02 -0.47123582204E+02  0.80675763192E+02  0.47000000000E+01 0.  1.
          5    1    5    5  503    0 -0.32580233584E+01  0.66538523148E+02 -0.75386689438E+02  0.10071361737E+03  0.47000000000E+01 0. -1.
         -5    1    5    5    0  503  0.21384709285E+02 -0.33619145751E+02 -0.19962286213E+03  0.20361466017E+03  0.47000000000E+01 0. -1.
<mgrwt>
<rscale>  0 0.27536646E+03</rscale>
<asrwt>0</asrwt>
<pdfrwt beam="1">  1        2 0.67713295E-01 0.27536646E+03</pdfrwt>
<pdfrwt beam="2">  1       -2 0.66261523E-02 0.27536646E+03</pdfrwt>
<totfact> 0.90589588E+03</totfact>
</mgrwt>
</event>
<event>
 9    1  0.7944303E-001  0.2760859E+03  0.7818608E-02  0.1097846E+00
         -2   -1    0    0    0  501 -0.00000000000E+00  0.00000000000E+00  0.29086877628E+02  0.29086877628E+02  0.00000000000E+00 0. -1.
          2   -1    0    0  501    0  0.00000000000E+00 -0.00000000000E+00 -0.65513562670E+03  0.65513562670E+03  0.00000000000E+00 0. -1.
         35    2    1    2    0    0  0.00000000000E+00  0.35527136788E-14 -0.62604874907E+03  0.68422250433E+03  0.27608585479E+03 0.  0.
         25    2    3    3    0    0  0.31078484605E+02 -0.26309603179E+02 -0.41700550996E+03  0.43729962603E+03  0.12521701229E+03 0.  0.
         25    2    3    3    0    0 -0.31078484605E+02  0.26309603179E+02 -0.20904323912E+03  0.24692287830E+03  0.12495505025E+03 0.  0.
          5    1    4    4  502    0 -0.20714878386E+02  0.23202823743E+02 -0.29261548546E+02  0.42962837889E+02  0.47000000000E+01 0.  1.
         -5    1    4    4    0  502  0.51793362991E+02 -0.49512426921E+02 -0.38774396141E+03  0.39433678814E+03  0.47000000000E+01 0.  1.
          5    1    5    5  503    0  0.19474012700E+02 -0.36209265225E+02 -0.31630770343E+02  0.52085926039E+02  0.47000000000E+01 0. -1.
         -5    1    5    5    0  503 -0.50552497306E+02  0.62518868404E+02 -0.17741246877E+03  0.19483695226E+03  0.47000000000E+01 0. -1.
<mgrwt>
<rscale>  0 0.27608585E+03</rscale>
<asrwt>0</asrwt>
<pdfrwt beam="1">  1        2 0.10079011E+00 0.27608585E+03</pdfrwt>
<pdfrwt beam="2">  1       -2 0.44749038E-02 0.27608585E+03</pdfrwt>
<totfact> 0.10495512E+04</totfact>
</mgrwt>
</event>
<event>
 9    1  0.7944303E-001  0.2705729E+03  0.7818608E-02  0.1100952E+00
         -1   -1    0    0    0  501 -0.00000000000E+00  0.00000000000E+00  0.82357285675E+02  0.82357285675E+02  0.00000000000E+00 0. -1.
          1   -1    0    0  501    0  0.00000000000E+00 -0.00000000000E+00 -0.22223192708E+03  0.22223192708E+03  0.00000000000E+00 0. -1.
         35    2    1    2    0    0  0.00000000000E+00  0.00000000000E+00 -0.13987464141E+03  0.30458921276E+03  0.27057286120E+03 0.  0.
         25    2    3    3    0    0 -0.46756305563E+02 -0.44707499468E+01 -0.44407853111E+02  0.14067537858E+03  0.12494544812E+03 0.  0.
         25    2    3    3    0    0  0.46756305563E+02  0.44707499468E+01 -0.95466788294E+02  0.16391383417E+03  0.12469040721E+03 0.  0.
          5    1    4    4  502    0  0.15122555838E+02  0.34247126979E+02  0.20450202990E+02  0.42916875512E+02  0.47000000000E+01 0. -1.
         -5    1    4    4    0  502 -0.61878861400E+02 -0.38717876926E+02 -0.64858056101E+02  0.97758503073E+02  0.47000000000E+01 0. -1.
          5    1    5    5  503    0  0.54772918711E+02 -0.38490573801E+02 -0.99236020640E+02  0.11979764058E+03  0.47000000000E+01 0.  1.
         -5    1    5    5    0  503 -0.80166131483E+01  0.42961323748E+02  0.37692323461E+01  0.44116193592E+02  0.47000000000E+01 0.  1.
<mgrwt>
<rscale>  0 0.27057286E+03</rscale>
<asrwt>0</asrwt>
<pdfrwt beam="1">  1        1 0.34189526E-01 0.27057286E+03</pdfrwt>
<pdfrwt beam="2">  1       -1 0.12670352E-01 0.27057286E+03</pdfrwt>
<totfact> 0.53497111E+03</totfact>
</mgrwt>
</event>
<event>
 9    1  0.7944303E-001  0.2736251E+03  0.7818608E-02  0.1099223E+00
          2   -1    0    0  501    0  0.00000000000E+00  0.00000000000E+00  0.57821097800E+03  0.57821097800E+03  0.00000000000E+00 0.  1.
         -2   -1    0    0    0  501 -0.00000000000E+00 -0.00000000000E+00 -0.32371698712E+02  0.32371698712E+02  0.00000000000E+00 0.  1.
         35    2    1    2    0    0  0.00000000000E+00  0.00000000000E+00  0.54583927928E+03  0.61058267671E+03  0.27362508344E+03 0.  0.
         25    2    3    3    0    0  0.34596840996E+02  0.53240301454E+02  0.22858924755E+03  0.26800903699E+03  0.12467689725E+03 0.  0.
         25    2    3    3    0    0 -0.34596840996E+02 -0.53240301454E+02  0.31725003173E+03  0.34257363971E+03  0.11259504823E+03 0.  0.
          5    1    4    4  502    0  0.71784328318E+02  0.45164563693E+02  0.88089177646E+02  0.12237083322E+03  0.47000000000E+01 0.  1.
         -5    1    4    4    0  502 -0.37187487322E+02  0.80757377603E+01  0.14050006991E+03  0.14563820377E+03  0.47000000000E+01 0.  1.
          5    1    5    5  503    0 -0.47314182732E+02 -0.81975916186E+02  0.20375812142E+03  0.22471792266E+03  0.47000000000E+01 0. -1.
         -5    1    5    5    0  503  0.12717341736E+02  0.28735614732E+02  0.11349191031E+03  0.11785571705E+03  0.47000000000E+01 0. -1.
<mgrwt>
<rscale>  0 0.27362508E+03</rscale>
<asrwt>0</asrwt>
<pdfrwt beam="1">  1        2 0.88955527E-01 0.27362508E+03</pdfrwt>
<pdfrwt beam="2">  1       -2 0.49802618E-02 0.27362508E+03</pdfrwt>
<totfact> 0.10324577E+04</totfact>
</mgrwt>
</event>
<event>
 9    1  0.7944303E-001  0.2773470E+03  0.7818608E-02  0.1097147E+00
         -2   -1    0    0    0  501 -0.00000000000E+00  0.00000000000E+00  0.22152550030E+02  0.22152550030E+02  0.00000000000E+00 0. -1.
          2   -1    0    0  501    0  0.00000000000E+00 -0.00000000000E+00 -0.86808693180E+03  0.86808693180E+03  0.00000000000E+00 0. -1.
         35    2    1    2    0    0  0.00000000000E+00  0.71054273576E-14 -0.84593438177E+03  0.89023948183E+03  0.27734699701E+03 0.  0.
         25    2    3    3    0    0 -0.36657890109E+02 -0.51373171881E+01 -0.28104457963E+03  0.31051534443E+03  0.12674198378E+03 0.  0.
         25    2    3    3    0    0  0.36657890109E+02  0.51373171881E+01 -0.56488980214E+03  0.57972413740E+03  0.12493756036E+03 0.  0.
          5    1    4    4  502    0 -0.51079059077E+02  0.51630736607E+02 -0.16877799251E+03  0.18380126222E+03  0.47000000000E+01 0. -1.
         -5    1    4    4    0  502  0.14421168967E+02 -0.56768053795E+02 -0.11226658712E+03  0.12671408221E+03  0.47000000000E+01 0. -1.
          5    1    5    5  503    0  0.35460847473E+02 -0.48984991586E+02 -0.43069315558E+03  0.43494331282E+03  0.47000000000E+01 0. -1.
         -5    1    5    5    0  503  0.11970426367E+01  0.54122308774E+02 -0.13419664656E+03  0.14478082458E+03  0.47000000000E+01 0. -1.
<mgrwt>
<rscale>  0 0.27734700E+03</rscale>
<asrwt>0</asrwt>
<pdfrwt beam="1">  1        2 0.13355182E+00 0.27734700E+03</pdfrwt>
<pdfrwt beam="2">  1       -2 0.34080851E-02 0.27734700E+03</pdfrwt>
<totfact> 0.11125669E+04</totfact>
</mgrwt>
</event>
<event>
 9    1  0.7944303E-001  0.2761856E+03  0.7818608E-02  0.1097791E+00
          1   -1    0    0  501    0  0.00000000000E+00  0.00000000000E+00  0.35407620608E+02  0.35407620608E+02  0.00000000000E+00 0.  1.
         -1   -1    0    0    0  501 -0.00000000000E+00 -0.00000000000E+00 -0.53857388332E+03  0.53857388332E+03  0.00000000000E+00 0.  1.
         35    2    1    2    0    0  0.00000000000E+00  0.00000000000E+00 -0.50316626271E+03  0.57398150393E+03  0.27618558782E+03 0.  0.
         25    2    3    3    0    0  0.40521523309E+02 -0.59812857092E+00 -0.16287451270E+03  0.20913698575E+03  0.12477107161E+03 0.  0.
         25    2    3    3    0    0 -0.40521523309E+02  0.59812857092E+00 -0.34029175001E+03  0.36484451818E+03  0.12518264941E+03 0.  0.
          5    1    4    4  502    0  0.26472751672E+02 -0.39729671060E+02 -0.16017904428E+03  0.16720846142E+03  0.47000000000E+01 0. -1.
         -5    1    4    4    0  502  0.14048771637E+02  0.39131542489E+02 -0.26954684182E+01  0.41928524325E+02  0.47000000000E+01 0. -1.
          5    1    5    5  503    0 -0.32389355882E+02 -0.47600622631E+02 -0.73058908678E+02  0.93137445673E+02  0.47000000000E+01 0. -1.
         -5    1    5    5    0  503 -0.81321674275E+01  0.48198751202E+02 -0.26723284133E+03  0.27170707251E+03  0.47000000000E+01 0. -1.
<mgrwt>
<rscale>  0 0.27618559E+03</rscale>
<asrwt>0</asrwt>
<pdfrwt beam="1">  1        1 0.54473261E-02 0.27618559E+03</pdfrwt>
<pdfrwt beam="2">  1       -1 0.82857522E-01 0.27618559E+03</pdfrwt>
<totfact> 0.22357966E+03</totfact>
</mgrwt>
</event>
<event>
 9    1  0.7944303E-001  0.2686353E+03  0.7818608E-02  0.1102063E+00
         -2   -1    0    0    0  501 -0.00000000000E+00  0.00000000000E+00  0.11936446285E+02  0.11936446285E+02  0.00000000000E+00 0.  1.
          2   -1    0    0  501    0  0.00000000000E+00 -0.00000000000E+00 -0.15114408728E+04  0.15114408728E+04  0.00000000000E+00 0.  1.
         35    2    1    2    0    0  0.71054273576E-14 -0.35527136788E-14 -0.14995044266E+04  0.15233773191E+04  0.26863531258E+03 0.  0.
         25    2    3    3    0    0  0.15184361749E+02  0.29933443602E+02 -0.53578133435E+03  0.55093999319E+03  0.12388164503E+03 0.  0.
         25    2    3    3    0    0 -0.15184361749E+02 -0.29933443602E+02 -0.96372309221E+03  0.97243732594E+03  0.12548138717E+03 0.  0.
          5    1    4    4  502    0  0.38189226663E+02  0.65701510268E+02 -0.43243513766E+03  0.43908694329E+03  0.47000000000E+01 0.  1.
         -5    1    4    4    0  502 -0.23004864914E+02 -0.35768066666E+02 -0.10334619668E+03  0.11185304990E+03  0.47000000000E+01 0.  1.
          5    1    5    5  503    0  0.24548505043E+02  0.31441084872E+02 -0.14554195184E+03  0.15098251774E+03  0.47000000000E+01 0. -1.
         -5    1    5    5    0  503 -0.39732866792E+02 -0.61374528474E+02 -0.81818114037E+03  0.82145480820E+03  0.47000000000E+01 0. -1.
<mgrwt>
<rscale>  0 0.26863531E+03</rscale>
<asrwt>0</asrwt>
<pdfrwt beam="1">  1        2 0.23252942E+00 0.26863531E+03</pdfrwt>
<pdfrwt beam="2">  1       -2 0.18363759E-02 0.26863531E+03</pdfrwt>
<totfact> 0.11784673E+04</totfact>
</mgrwt>
</event>
<event>
 9    1  0.7944303E-001  0.2791699E+03  0.7818608E-02  0.1096143E+00
          4   -1    0    0  501    0  0.00000000000E+00  0.00000000000E+00  0.45319949751E+02  0.45319949751E+02  0.00000000000E+00 0. -1.
         -4   -1    0    0    0  501 -0.00000000000E+00 -0.00000000000E+00 -0.42992003214E+03  0.42992003214E+03  0.00000000000E+00 0. -1.
         35    2    1    2    0    0  0.00000000000E+00  0.00000000000E+00 -0.38460008239E+03  0.47523998189E+03  0.27916987125E+03 0.  0.
         25    2    3    3    0    0  0.59605705468E+02  0.80620153151E+01 -0.21928791330E+03  0.25949809951E+03  0.12503694859E+03 0.  0.
         25    2    3    3    0    0 -0.59605705468E+02 -0.80620153151E+01 -0.16531216909E+03  0.21574188238E+03  0.12489439680E+03 0.  0.
          5    1    4    4  502    0  0.61295362784E+02  0.51035808971E+02 -0.19297456437E+03  0.20886131234E+03  0.47000000000E+01 0. -1.
         -5    1    4    4    0  502 -0.16896573165E+01 -0.42973793656E+02 -0.26313348929E+02  0.50636787170E+02  0.47000000000E+01 0. -1.
          5    1    5    5  503    0 -0.54434446432E+02 -0.41424974278E+02 -0.27664084321E+02  0.73935979155E+02  0.47000000000E+01 0.  1.
         -5    1    5    5    0  503 -0.51712590353E+01  0.33362958963E+02 -0.13764808477E+03  0.14180590323E+03  0.47000000000E+01 0.  1.
<mgrwt>
<rscale>  0 0.27916987E+03</rscale>
<asrwt>0</asrwt>
<pdfrwt beam="1">  1        4 0.69722997E-02 0.27916987E+03</pdfrwt>
<pdfrwt beam="2">  1       -4 0.66141546E-01 0.27916987E+03</pdfrwt>
<totfact> 0.56112652E+02</totfact>
</mgrwt>
</event>
<event>
 9    1  0.7944303E-001  0.2702260E+03  0.7818608E-02  0.1101150E+00
         -1   -1    0    0    0  501 -0.00000000000E+00  0.00000000000E+00  0.46612735122E+02  0.46612735122E+02  0.00000000000E+00 0. -1.
          1   -1    0    0  501    0  0.00000000000E+00 -0.00000000000E+00 -0.39164241789E+03  0.39164241789E+03  0.00000000000E+00 0. -1.
         35    2    1    2    0    0  0.00000000000E+00  0.35527136788E-14 -0.34502968277E+03  0.43825515301E+03  0.27022601124E+03 0.  0.
         25    2    3    3    0    0 -0.35511225313E+02 -0.15021943466E+02 -0.22362718381E+03  0.25977830750E+03  0.12644740329E+03 0.  0.
         25    2    3    3    0    0  0.35511225313E+02  0.15021943466E+02 -0.12140249896E+03  0.17847684552E+03  0.12501484601E+03 0.  0.
          5    1    4    4  502    0 -0.25621544230E+02  0.49433378210E+02 -0.15604607845E+03  0.16574857770E+03  0.47000000000E+01 0.  1.
         -5    1    4    4    0  502 -0.98896810833E+01 -0.64455321676E+02 -0.67581105361E+02  0.94029729800E+02  0.47000000000E+01 0.  1.
          5    1    5    5  503    0  0.82024491315E+02  0.15425952810E+02 -0.70409623218E+02  0.10929584730E+03  0.47000000000E+01 0.  1.
         -5    1    5    5    0  503 -0.46513266002E+02 -0.40400934317E+00 -0.50992875743E+02  0.69180998216E+02  0.47000000000E+01 0.  1.
<mgrwt>
<rscale>  0 0.27022601E+03</rscale>
<asrwt>0</asrwt>
<pdfrwt beam="1">  1        1 0.60252679E-01 0.27022601E+03</pdfrwt>
<pdfrwt beam="2">  1       -1 0.71711901E-02 0.27022601E+03</pdfrwt>
<totfact> 0.62977929E+03</totfact>
</mgrwt>
</event>
<event>
 9    1  0.7944303E-001  0.2733896E+03  0.7818608E-02  0.1099355E+00
          1   -1    0    0  501    0  0.00000000000E+00  0.00000000000E+00  0.23150713070E+03  0.23150713070E+03  0.00000000000E+00 0.  1.
         -1   -1    0    0    0  501 -0.00000000000E+00 -0.00000000000E+00 -0.80712253649E+02  0.80712253649E+02  0.00000000000E+00 0.  1.
         35    2    1    2    0    0  0.00000000000E+00  0.71054273576E-14  0.15079487706E+03  0.31221938435E+03  0.27338955543E+03 0.  0.
         25    2    3    3    0    0  0.22715263864E+02 -0.38458490238E+02  0.10973783577E+03  0.17272111043E+03  0.12567875996E+03 0.  0.
         25    2    3    3    0    0 -0.22715263864E+02  0.38458490238E+02  0.41057041282E+02  0.13949827392E+03  0.12561468507E+03 0.  0.
          5    1    4    4  502    0 -0.32727553324E+02 -0.59659591536E+02  0.83050290353E+02  0.10746999738E+03  0.47000000000E+01 0. -1.
         -5    1    4    4    0  502  0.55442817188E+02  0.21201101298E+02  0.26687545421E+02  0.65251113053E+02  0.47000000000E+01 0. -1.
          5    1    5    5  503    0 -0.44065641500E+01  0.28860532201E+02 -0.43346878533E+02  0.52472754884E+02  0.47000000000E+01 0.  1.
         -5    1    5    5    0  503 -0.18308699714E+02  0.95979580379E+01  0.84403919815E+02  0.87025519038E+02  0.47000000000E+01 0.  1.
<mgrwt>
<rscale>  0 0.27338956E+03</rscale>
<asrwt>0</asrwt>
<pdfrwt beam="1">  1        1 0.35616481E-01 0.27338956E+03</pdfrwt>
<pdfrwt beam="2">  1       -1 0.12417270E-01 0.27338956E+03</pdfrwt>
<totfact> 0.52467717E+03</totfact>
</mgrwt>
</event>
<event>
 9    1  0.7944303E-001  0.2762042E+03  0.7818608E-02  0.1097780E+00
         -2   -1    0    0    0  501 -0.00000000000E+00  0.00000000000E+00  0.23594048075E+02  0.23594048075E+02  0.00000000000E+00 0. -1.
          2   -1    0    0  501    0  0.00000000000E+00 -0.00000000000E+00 -0.80834730871E+03  0.80834730871E+03  0.00000000000E+00 0. -1.
         35    2    1    2    0    0 -0.71054273576E-14 -0.71054273576E-14 -0.78475326063E+03  0.83194135678E+03  0.27620416552E+03 0.  0.
         25    2    3    3    0    0  0.84010647915E+01  0.58169811489E+02 -0.35422910114E+03  0.38029062811E+03  0.12525334678E+03 0.  0.
         25    2    3    3    0    0 -0.84010647915E+01 -0.58169811489E+02 -0.43052415949E+03  0.45165072867E+03  0.12321941381E+03 0.  0.
          5    1    4    4  502    0  0.25268953242E+02 -0.34965692228E+02 -0.10210061058E+03  0.11094027362E+03  0.47000000000E+01 0. -1.
         -5    1    4    4    0  502 -0.16867888450E+02  0.93135503718E+02 -0.25212849056E+03  0.26935035449E+03  0.47000000000E+01 0. -1.
          5    1    5    5  503    0 -0.46059597829E+02 -0.25391698731E+02 -0.70142130087E+02  0.87796545090E+02  0.47000000000E+01 0.  1.
         -5    1    5    5    0  503  0.37658533037E+02 -0.32778112758E+02 -0.36038202941E+03  0.36385418358E+03  0.47000000000E+01 0.  1.
<mgrwt>
<rscale>  0 0.27620417E+03</rscale>
<asrwt>0</asrwt>
<pdfrwt beam="1">  1        2 0.12436114E+00 0.27620417E+03</pdfrwt>
<pdfrwt beam="2">  1       -2 0.36298531E-02 0.27620417E+03</pdfrwt>
<totfact> 0.11103525E+04</totfact>
</mgrwt>
</event>
<event>
 9    1  0.7944303E-001  0.2780103E+03  0.7818608E-02  0.1096781E+00
         -2   -1    0    0    0  501 -0.00000000000E+00  0.00000000000E+00  0.19333769616E+02  0.19333769616E+02  0.00000000000E+00 0.  1.
          2   -1    0    0  501    0  0.00000000000E+00 -0.00000000000E+00 -0.99941380597E+03  0.99941380597E+03  0.00000000000E+00 0.  1.
         35    2    1    2    0    0  0.14210854715E-13  0.00000000000E+00 -0.98008003635E+03  0.10187475756E+04  0.27801033272E+03 0.  0.
         25    2    3    3    0    0 -0.43548683608E+02  0.26989411672E+02 -0.60735586199E+03  0.62228403559E+03  0.12542472515E+03 0.  0.
         25    2    3    3    0    0  0.43548683608E+02 -0.26989411672E+02 -0.37272417436E+03  0.39646353999E+03  0.12504044225E+03 0.  0.
          5    1    4    4  502    0 -0.27081663165E+02  0.76032050426E+02 -0.42745566323E+03  0.43503416325E+03  0.47000000000E+01 0.  1.
         -5    1    4    4    0  502 -0.16467020443E+02 -0.49042638754E+02 -0.17990019876E+03  0.18724987234E+03  0.47000000000E+01 0.  1.
          5    1    5    5  503    0  0.61266210690E+02  0.14176586953E+02 -0.88380729529E+02  0.10857148586E+03  0.47000000000E+01 0.  1.
         -5    1    5    5    0  503 -0.17717527083E+02 -0.41165998625E+02 -0.28434344483E+03  0.28789205413E+03  0.47000000000E+01 0.  1.
<mgrwt>
<rscale>  0 0.27801033E+03</rscale>
<asrwt>0</asrwt>
<pdfrwt beam="1">  1        2 0.15375604E+00 0.27801033E+03</pdfrwt>
<pdfrwt beam="2">  1       -2 0.29744248E-02 0.27801033E+03</pdfrwt>
<totfact> 0.11250989E+04</totfact>
</mgrwt>
</event>
<event>
 9    1  0.7944303E-001  0.2747815E+03  0.7818608E-02  0.1098574E+00
          2   -1    0    0  501    0  0.00000000000E+00  0.00000000000E+00  0.19244690693E+04  0.19244690693E+04  0.00000000000E+00 0. -1.
         -2   -1    0    0    0  501 -0.00000000000E+00 -0.00000000000E+00 -0.98085353113E+01  0.98085353113E+01  0.00000000000E+00 0. -1.
         35    2    1    2    0    0  0.00000000000E+00 -0.71054273576E-14  0.19146605340E+04  0.19342776046E+04  0.27478153374E+03 0.  0.
         25    2    3    3    0    0 -0.33551271437E+02  0.44407480258E+02  0.84969684372E+03  0.86064036546E+03  0.12497759923E+03 0.  0.
         25    2    3    3    0    0  0.33551271437E+02 -0.44407480258E+02  0.10649636903E+04  0.10736372391E+04  0.12430425411E+03 0.  0.
          5    1    4    4  502    0 -0.27626498808E+02 -0.60998525994E+01  0.39384389849E+02  0.48720137540E+02  0.47000000000E+01 0. -1.
         -5    1    4    4    0  502 -0.59247726292E+01  0.50507332858E+02  0.81031245387E+03  0.81192022792E+03  0.47000000000E+01 0. -1.
          5    1    5    5  503    0 -0.14458674358E+02  0.36732920677E+02  0.40691803173E+03  0.40885539653E+03  0.47000000000E+01 0. -1.
         -5    1    5    5    0  503  0.48009945795E+02 -0.81140400935E+02  0.65804565852E+03  0.66478184260E+03  0.47000000000E+01 0. -1.
<mgrwt>
<rscale>  0 0.27478153E+03</rscale>
<asrwt>0</asrwt>
<pdfrwt beam="1">  1        2 0.29607186E+00 0.27478153E+03</pdfrwt>
<pdfrwt beam="2">  1       -2 0.15090070E-02 0.27478153E+03</pdfrwt>
<totfact> 0.95208603E+03</totfact>
</mgrwt>
</event>
<event>
 9    1  0.7944303E-001  0.2759333E+03  0.7818608E-02  0.1097931E+00
          1   -1    0    0  501    0  0.00000000000E+00  0.00000000000E+00  0.75082823979E+02  0.75082823979E+02  0.00000000000E+00 0.  1.
         -1   -1    0    0    0  501 -0.00000000000E+00 -0.00000000000E+00 -0.25351740267E+03  0.25351740267E+03  0.00000000000E+00 0.  1.
         35    2    1    2    0    0 -0.71054273576E-14  0.00000000000E+00 -0.17843457869E+03  0.32860022665E+03  0.27593334355E+03 0.  0.
         25    2    3    3    0    0 -0.38266577511E+02  0.47197259420E+02 -0.91529770747E+02  0.16613267113E+03  0.12462123910E+03 0.  0.
         25    2    3    3    0    0  0.38266577511E+02 -0.47197259420E+02 -0.86904807940E+02  0.16246755551E+03  0.12309081485E+03 0.  0.
          5    1    4    4  502    0 -0.48177643118E+02  0.25624733319E+02  0.15081593769E+02  0.56808949337E+02  0.47000000000E+01 0.  1.
         -5    1    4    4    0  502  0.99110656075E+01  0.21572526100E+02 -0.10661136452E+03  0.10932372180E+03  0.47000000000E+01 0.  1.
          5    1    5    5  503    0  0.27349055631E+02  0.39433262660E+02 -0.19294508985E+02  0.51935740342E+02  0.47000000000E+01 0.  1.
         -5    1    5    5    0  503  0.10917521880E+02 -0.86630522080E+02 -0.67610298954E+02  0.11053181517E+03  0.47000000000E+01 0.  1.
<mgrwt>
<rscale>  0 0.27593334E+03</rscale>
<asrwt>0</asrwt>
<pdfrwt beam="1">  1        1 0.11551204E-01 0.27593334E+03</pdfrwt>
<pdfrwt beam="2">  1       -1 0.39002677E-01 0.27593334E+03</pdfrwt>
<totfact> 0.33957154E+03</totfact>
</mgrwt>
</event>
<event>
 9    1  0.7944303E-001  0.2756229E+03  0.7818608E-02  0.1098104E+00
          1   -1    0    0  501    0  0.00000000000E+00  0.00000000000E+00  0.64866151039E+03  0.64866151039E+03  0.00000000000E+00 0.  1.
         -1   -1    0    0    0  501 -0.00000000000E+00 -0.00000000000E+00 -0.29278737792E+02  0.29278737792E+02  0.00000000000E+00 0.  1.
         35    2    1    2    0    0 -0.71054273576E-14  0.71054273576E-14  0.61938277260E+03  0.67794024818E+03  0.27562286029E+03 0.  0.
         25    2    3    3    0    0 -0.30438592801E+02  0.37149341951E+02  0.37023116075E+03  0.39411669252E+03  0.12629439175E+03 0.  0.
         25    2    3    3    0    0  0.30438592801E+02 -0.37149341951E+02  0.24915161184E+03  0.28382355566E+03  0.12717194473E+03 0.  0.
          5    1    4    4  502    0  0.30202936280E+02 -0.30117299633E+02  0.14795764856E+03  0.15405461650E+03  0.47000000000E+01 0. -1.
         -5    1    4    4    0  502 -0.60641529080E+02  0.67266641584E+02  0.22227351219E+03  0.24006207602E+03  0.47000000000E+01 0. -1.
          5    1    5    5  503    0  0.12885767329E+00  0.10044402229E+02  0.22029185809E+03  0.22057084884E+03  0.47000000000E+01 0. -1.
         -5    1    5    5    0  503  0.30309735127E+02 -0.47193744180E+02  0.28859753757E+02  0.63252706820E+02  0.47000000000E+01 0. -1.
<mgrwt>
<rscale>  0 0.27562286E+03</rscale>
<asrwt>0</asrwt>
<pdfrwt beam="1">  1        1 0.99794068E-01 0.27562286E+03</pdfrwt>
<pdfrwt beam="2">  1       -1 0.45044217E-02 0.27562286E+03</pdfrwt>
<totfact> 0.64629217E+03</totfact>
</mgrwt>
</event>
<event>
 9    1  0.7944303E-001  0.2728853E+03  0.7818608E-02  0.1099640E+00
         -2   -1    0    0    0  501 -0.00000000000E+00  0.00000000000E+00  0.58019534523E+02  0.58019534523E+02  0.00000000000E+00 0.  1.
          2   -1    0    0  501    0  0.00000000000E+00 -0.00000000000E+00 -0.32086782814E+03  0.32086782814E+03  0.00000000000E+00 0.  1.
         35    2    1    2    0    0  0.00000000000E+00  0.00000000000E+00 -0.26284829362E+03  0.37888736266E+03  0.27288533879E+03 0.  0.
         25    2    3    3    0    0  0.29027346162E+02 -0.45079123657E+02 -0.11170213419E+03  0.17676335212E+03  0.12606824206E+03 0.  0.
         25    2    3    3    0    0 -0.29027346162E+02  0.45079123657E+02 -0.15114615942E+03  0.20212401054E+03  0.12302129862E+03 0.  0.
          5    1    4    4  502    0 -0.40851994255E+02  0.13493970035E+02 -0.52092687916E+02  0.67725259662E+02  0.47000000000E+01 0.  1.
         -5    1    4    4    0  502  0.69879340417E+02 -0.58573093692E+02 -0.59609446277E+02  0.10903809246E+03  0.47000000000E+01 0.  1.
          5    1    5    5  503    0  0.18418146262E+02 -0.20481415475E+02 -0.10540411294E+03  0.10904509854E+03  0.47000000000E+01 0. -1.
         -5    1    5    5    0  503 -0.47445492424E+02  0.65560539131E+02 -0.45742046488E+02  0.93078912002E+02  0.47000000000E+01 0. -1.
<mgrwt>
<rscale>  0 0.27288534E+03</rscale>
<asrwt>0</asrwt>
<pdfrwt beam="1">  1        2 0.49364281E-01 0.27288534E+03</pdfrwt>
<pdfrwt beam="2">  1       -2 0.89260824E-02 0.27288534E+03</pdfrwt>
<totfact> 0.80182273E+03</totfact>
</mgrwt>
</event>
<event>
 9    1  0.7944303E-001  0.2756419E+03  0.7818608E-02  0.1098093E+00
         -2   -1    0    0    0  501 -0.00000000000E+00  0.00000000000E+00  0.38014451919E+02  0.38014451919E+02  0.00000000000E+00 0.  1.
          2   -1    0    0  501    0  0.00000000000E+00 -0.00000000000E+00 -0.49966827512E+03  0.49966827512E+03  0.00000000000E+00 0.  1.
         35    2    1    2    0    0  0.00000000000E+00  0.00000000000E+00 -0.46165382320E+03  0.53768272704E+03  0.27564190987E+03 0.  0.
         25    2    3    3    0    0 -0.27952436235E+02 -0.32750303990E+02 -0.23004822985E+03  0.26696933672E+03  0.12843876979E+03 0.  0.
         25    2    3    3    0    0  0.27952436235E+02  0.32750303990E+02 -0.23160559335E+03  0.27071339032E+03  0.13338166188E+03 0.  0.
          5    1    4    4  502    0 -0.27330494615E+02  0.12804541745E+02  0.18407648788E+01  0.30600500658E+02  0.47000000000E+01 0. -1.
         -5    1    4    4    0  502 -0.62194162027E+00 -0.45554845736E+02 -0.23188899473E+03  0.23636883606E+03  0.47000000000E+01 0. -1.
          5    1    5    5  503    0  0.71846358778E+00  0.14762752343E+02 -0.23682140525E+03  0.23732872357E+03  0.47000000000E+01 0.  1.
         -5    1    5    5    0  503  0.27233972647E+02  0.17987551648E+02  0.52158119015E+01  0.33384666753E+02  0.47000000000E+01 0.  1.
<mgrwt>
<rscale>  0 0.27564191E+03</rscale>
<asrwt>0</asrwt>
<pdfrwt beam="1">  1        2 0.76872038E-01 0.27564191E+03</pdfrwt>
<pdfrwt beam="2">  1       -2 0.58483776E-02 0.27564191E+03</pdfrwt>
<totfact> 0.95376508E+03</totfact>
</mgrwt>
</event>
<event>
 9    1  0.7944303E-001  0.2726328E+03  0.7818608E-02  0.1099782E+00
         -1   -1    0    0    0  501 -0.00000000000E+00  0.00000000000E+00  0.27516507059E+02  0.27516507059E+02  0.00000000000E+00 0. -1.
          1   -1    0    0  501    0  0.00000000000E+00 -0.00000000000E+00 -0.67530976416E+03  0.67530976416E+03  0.00000000000E+00 0. -1.
         35    2    1    2    0    0  0.71054273576E-14  0.00000000000E+00 -0.64779325710E+03  0.70282627122E+03  0.27263283656E+03 0.  0.
         25    2    3    3    0    0  0.37666007119E+02  0.38952498674E+02 -0.31590647393E+03  0.34411450661E+03  0.12522726598E+03 0.  0.
         25    2    3    3    0    0 -0.37666007119E+02 -0.38952498674E+02 -0.33188678317E+03  0.35871176461E+03  0.12485699011E+03 0.  0.
          5    1    4    4  502    0 -0.73915347180E+01 -0.42403678043E+01  0.89869316165E+01  0.13246525751E+02  0.47000000000E+01 0. -1.
         -5    1    4    4    0  502  0.45057541837E+02  0.43192866478E+02 -0.32489340555E+03  0.33086798086E+03  0.47000000000E+01 0. -1.
          5    1    5    5  503    0  0.10474039003E+02 -0.37255320388E+02 -0.29575593794E+03  0.29831414518E+03  0.47000000000E+01 0.  1.
         -5    1    5    5    0  503 -0.48140046122E+02 -0.16971782860E+01 -0.36130845229E+02  0.60397619421E+02  0.47000000000E+01 0.  1.
<mgrwt>
<rscale>  0 0.27263284E+03</rscale>
<asrwt>0</asrwt>
<pdfrwt beam="1">  1        1 0.10389381E+00 0.27263284E+03</pdfrwt>
<pdfrwt beam="2">  1       -1 0.42333088E-02 0.27263284E+03</pdfrwt>
<totfact> 0.66906115E+03</totfact>
</mgrwt>
</event>
<event>
 9    1  0.7944303E-001  0.2763893E+03  0.7818608E-02  0.1097678E+00
         -3   -1    0    0    0  501 -0.00000000000E+00  0.00000000000E+00  0.17881522185E+02  0.17881522185E+02  0.00000000000E+00 0. -1.
          3   -1    0    0  501    0  0.00000000000E+00 -0.00000000000E+00 -0.10680165898E+04  0.10680165898E+04  0.00000000000E+00 0. -1.
         35    2    1    2    0    0  0.00000000000E+00  0.00000000000E+00 -0.10501350676E+04  0.10858981120E+04  0.27638930764E+03 0.  0.
         25    2    3    3    0    0  0.22487174420E+02  0.57372153276E+02 -0.49234481523E+03  0.51098865007E+03  0.12210137769E+03 0.  0.
         25    2    3    3    0    0 -0.22487174420E+02 -0.57372153276E+02 -0.55779025240E+03  0.57490946192E+03  0.12487468420E+03 0.  0.
          5    1    4    4  502    0  0.68373491141E+01 -0.38512789992E+02 -0.15120937646E+03  0.15625731940E+03  0.47000000000E+01 0. -1.
         -5    1    4    4    0  502  0.15649825306E+02  0.95884943269E+02 -0.34113543877E+03  0.35473133067E+03  0.47000000000E+01 0. -1.
          5    1    5    5  503    0 -0.30855565372E+02  0.24903569322E+02 -0.33222126439E+03  0.33461218178E+03  0.47000000000E+01 0. -1.
         -5    1    5    5    0  503  0.83683909526E+01 -0.82275722598E+02 -0.22556898801E+03  0.24029728015E+03  0.47000000000E+01 0. -1.
<mgrwt>
<rscale>  0 0.27638931E+03</rscale>
<asrwt>0</asrwt>
<pdfrwt beam="1">  1        3 0.16431025E+00 0.27638931E+03</pdfrwt>
<pdfrwt beam="2">  1       -3 0.27510034E-02 0.27638931E+03</pdfrwt>
<totfact> 0.40204922E+02</totfact>
</mgrwt>
</event>
<event>
 9    1  0.7944303E-001  0.2675771E+03  0.7818608E-02  0.1102674E+00
          2   -1    0    0  501    0  0.00000000000E+00  0.00000000000E+00  0.24644182999E+02  0.24644182999E+02  0.00000000000E+00 0.  1.
         -2   -1    0    0    0  501 -0.00000000000E+00 -0.00000000000E+00 -0.72631246472E+03  0.72631246472E+03  0.00000000000E+00 0.  1.
         35    2    1    2    0    0  0.00000000000E+00 -0.17763568394E-14 -0.70166828172E+03  0.75095664772E+03  0.26757710885E+03 0.  0.
         25    2    3    3    0    0  0.87585741663E+01 -0.15095368522E+02 -0.22830362867E+03  0.26078946030E+03  0.12483594420E+03 0.  0.
         25    2    3    3    0    0 -0.87585741663E+01  0.15095368522E+02 -0.47336465305E+03  0.49016718743E+03  0.12603647924E+03 0.  0.
          5    1    4    4  502    0  0.10773407402E+02 -0.22627791474E+02 -0.24254775404E+03  0.24388437065E+03  0.47000000000E+01 0. -1.
         -5    1    4    4    0  502 -0.20148332353E+01  0.75324229520E+01  0.14244125371E+02  0.16905089650E+02  0.47000000000E+01 0. -1.
          5    1    5    5  503    0  0.17266664343E+02 -0.14800986787E+02 -0.10332221008E+02  0.25417547056E+02  0.47000000000E+01 0. -1.
         -5    1    5    5    0  503 -0.26025238510E+02  0.29896355309E+02 -0.46303243204E+03  0.46474964037E+03  0.47000000000E+01 0. -1.
<mgrwt>
<rscale>  0 0.26757711E+03</rscale>
<asrwt>0</asrwt>
<pdfrwt beam="1">  1        2 0.37914129E-02 0.26757711E+03</pdfrwt>
<pdfrwt beam="2">  1       -2 0.11174038E+00 0.26757711E+03</pdfrwt>
<totfact> 0.15003637E+03</totfact>
</mgrwt>
</event>
<event>
 9    1  0.7944303E-001  0.2755580E+03  0.7818608E-02  0.1098140E+00
          2   -1    0    0  501    0  0.00000000000E+00  0.00000000000E+00  0.24467403664E+04  0.24467403664E+04  0.00000000000E+00 0. -1.
         -2   -1    0    0    0  501 -0.00000000000E+00 -0.00000000000E+00 -0.77585071171E+01  0.77585071171E+01  0.00000000000E+00 0. -1.
         35    2    1    2    0    0  0.00000000000E+00  0.14210854715E-13  0.24389818592E+04  0.24544988735E+04  0.27555799786E+03 0.  0.
         25    2    3    3    0    0 -0.43852402928E+02  0.39529063784E+02  0.12696374375E+04  0.12771364495E+04  0.12495082228E+03 0.  0.
         25    2    3    3    0    0  0.43852402928E+02 -0.39529063784E+02  0.11693444218E+04  0.11773624239E+04  0.12381567124E+03 0.  0.
          5    1    4    4  502    0 -0.35306966200E+02 -0.35966738403E+02  0.27719736075E+03  0.28178121821E+03  0.47000000000E+01 0.  1.
         -5    1    4    4    0  502 -0.85454367276E+01  0.75495802186E+02  0.99244007673E+03  0.99535523133E+03  0.47000000000E+01 0.  1.
          5    1    5    5  503    0  0.27672726302E+02  0.38256729388E+02  0.67366222609E+03  0.67533120910E+03  0.47000000000E+01 0. -1.
         -5    1    5    5    0  503  0.16179676625E+02 -0.77785793172E+02  0.49568219567E+03  0.50203121482E+03  0.47000000000E+01 0. -1.
<mgrwt>
<rscale>  0 0.27555800E+03</rscale>
<asrwt>0</asrwt>
<pdfrwt beam="1">  1        2 0.37642098E+00 0.27555800E+03</pdfrwt>
<pdfrwt beam="2">  1       -2 0.11936184E-02 0.27555800E+03</pdfrwt>
<totfact> 0.70663668E+03</totfact>
</mgrwt>
</event>
<event>
 9    1  0.7944303E-001  0.2831343E+03  0.7818608E-02  0.1093989E+00
          1   -1    0    0  501    0  0.00000000000E+00  0.00000000000E+00  0.35815747076E+02  0.35815747076E+02  0.00000000000E+00 0.  1.
         -1   -1    0    0    0  501 -0.00000000000E+00 -0.00000000000E+00 -0.55956555320E+03  0.55956555320E+03  0.00000000000E+00 0.  1.
         35    2    1    2    0    0  0.00000000000E+00  0.71054273576E-14 -0.52374980612E+03  0.59538130027E+03  0.28313430259E+03 0.  0.
         25    2    3    3    0    0  0.43191005906E+02 -0.30316225002E+02 -0.35114022460E+03  0.37602632201E+03  0.12374086239E+03 0.  0.
         25    2    3    3    0    0 -0.43191005906E+02  0.30316225002E+02 -0.17260958152E+03  0.21935497826E+03  0.12465152372E+03 0.  0.
          5    1    4    4  502    0  0.14668215954E+02 -0.63479851378E+02 -0.90002876288E+02  0.11120906362E+03  0.47000000000E+01 0. -1.
         -5    1    4    4    0  502  0.28522789952E+02  0.33163626375E+02 -0.26113734831E+03  0.26481725839E+03  0.47000000000E+01 0. -1.
          5    1    5    5  503    0 -0.66569471024E+02  0.64390253537E+02 -0.10612012095E+03  0.14092966080E+03  0.47000000000E+01 0. -1.
         -5    1    5    5    0  503  0.23378465118E+02 -0.34074028535E+02 -0.66489460573E+02  0.78425317463E+02  0.47000000000E+01 0. -1.
<mgrwt>
<rscale>  0 0.28313430E+03</rscale>
<asrwt>0</asrwt>
<pdfrwt beam="1">  1        1 0.55101147E-02 0.28313430E+03</pdfrwt>
<pdfrwt beam="2">  1       -1 0.86087012E-01 0.28313430E+03</pdfrwt>
<totfact> 0.20312475E+03</totfact>
</mgrwt>
</event>
<event>
 9    1  0.7944303E-001  0.2753017E+03  0.7818608E-02  0.1098283E+00
          2   -1    0    0  501    0  0.00000000000E+00  0.00000000000E+00  0.28118630246E+04  0.28118630246E+04  0.00000000000E+00 0.  1.
         -2   -1    0    0    0  501 -0.00000000000E+00 -0.00000000000E+00 -0.67385046433E+01  0.67385046433E+01  0.00000000000E+00 0.  1.
         35    2    1    2    0    0  0.00000000000E+00  0.00000000000E+00  0.28051245200E+04  0.28186015292E+04  0.27530166761E+03 0.  0.
         25    2    3    3    0    0  0.50545412366E+02 -0.32111717472E+02  0.16504959202E+04  0.16556771332E+04  0.11637863132E+03 0.  0.
         25    2    3    3    0    0 -0.50545412366E+02  0.32111717472E+02  0.11546285998E+04  0.11629243960E+04  0.12505977104E+03 0.  0.
          5    1    4    4  502    0  0.32584068331E+01 -0.66187649528E+02  0.62638205275E+03  0.62989521999E+03  0.47000000000E+01 0. -1.
         -5    1    4    4    0  502  0.47287005533E+02  0.34075932056E+02  0.10241138674E+04  0.10257819132E+04  0.47000000000E+01 0. -1.
          5    1    5    5  503    0 -0.67644461089E+02  0.33987723114E+02  0.35116679755E+03  0.35926473267E+03  0.47000000000E+01 0.  1.
         -5    1    5    5    0  503  0.17099048723E+02 -0.18760056419E+01  0.80346180222E+03  0.80365966334E+03  0.47000000000E+01 0.  1.
<mgrwt>
<rscale>  0 0.27530167E+03</rscale>
<asrwt>0</asrwt>
<pdfrwt beam="1">  1        2 0.43259337E+00 0.27530167E+03</pdfrwt>
<pdfrwt beam="2">  1       -2 0.10366953E-02 0.27530167E+03</pdfrwt>
<totfact> 0.54266945E+03</totfact>
</mgrwt>
</event>
<event>
 9    1  0.7944303E-001  0.2810799E+03  0.7818608E-02  0.1095101E+00
         -2   -1    0    0    0  501 -0.00000000000E+00  0.00000000000E+00  0.17861437731E+02  0.17861437731E+02  0.00000000000E+00 0. -1.
          2   -1    0    0  501    0  0.00000000000E+00 -0.00000000000E+00 -0.11058170108E+04  0.11058170108E+04  0.00000000000E+00 0. -1.
         35    2    1    2    0    0  0.00000000000E+00  0.00000000000E+00 -0.10879555731E+04  0.11236784485E+04  0.28107992941E+03 0.  0.
         25    2    3    3    0    0  0.64328339353E+02  0.81502209283E+01 -0.53426595823E+03  0.55234051413E+03  0.12423915682E+03 0.  0.
         25    2    3    3    0    0 -0.64328339353E+02 -0.81502209283E+01 -0.55368961483E+03  0.57133793439E+03  0.12510109653E+03 0.  0.
          5    1    4    4  502    0 -0.18221299274E+02 -0.13395055043E+01 -0.96992231039E+01  0.21212613018E+02  0.47000000000E+01 0.  1.
         -5    1    4    4    0  502  0.82549638627E+02  0.94897264326E+01 -0.52456673512E+03  0.53112790112E+03  0.47000000000E+01 0.  1.
          5    1    5    5  503    0  0.32825897656E+02 -0.22015677334E+02 -0.11229759709E+03  0.11914306491E+03  0.47000000000E+01 0. -1.
         -5    1    5    5    0  503 -0.97154237009E+02  0.13865456406E+02 -0.44139201774E+03  0.45219486947E+03  0.47000000000E+01 0. -1.
<mgrwt>
<rscale>  0 0.28107993E+03</rscale>
<asrwt>0</asrwt>
<pdfrwt beam="1">  1        2 0.17012567E+00 0.28107993E+03</pdfrwt>
<pdfrwt beam="2">  1       -2 0.27479139E-02 0.28107993E+03</pdfrwt>
<totfact> 0.10932336E+04</totfact>
</mgrwt>
</event>
<event>
 9    1  0.7944303E-001  0.2748228E+03  0.7818608E-02  0.1098551E+00
          1   -1    0    0  501    0  0.00000000000E+00  0.00000000000E+00  0.63077265013E+03  0.63077265013E+03  0.00000000000E+00 0.  1.
         -1   -1    0    0    0  501 -0.00000000000E+00 -0.00000000000E+00 -0.29934535168E+02  0.29934535168E+02  0.00000000000E+00 0.  1.
         35    2    1    2    0    0  0.00000000000E+00 -0.17763568394E-14  0.60083811497E+03  0.66070718530E+03  0.27482275072E+03 0.  0.
         25    2    3    3    0    0 -0.56356642749E+02 -0.89282042898E+01  0.32460573567E+03  0.35252673317E+03  0.12510167849E+03 0.  0.
         25    2    3    3    0    0  0.56356642749E+02  0.89282042898E+01  0.27623237930E+03  0.30818045213E+03  0.12415747939E+03 0.  0.
          5    1    4    4  502    0 -0.26976837796E+02 -0.53877420407E+02  0.70926433123E+02  0.93183556075E+02  0.47000000000E+01 0. -1.
         -5    1    4    4    0  502 -0.29379804952E+02  0.44949216117E+02  0.25367930254E+03  0.25934317710E+03  0.47000000000E+01 0. -1.
          5    1    5    5  503    0 -0.19105120756E+02 -0.12400898310E+02  0.24912643160E+01  0.23389833602E+02  0.47000000000E+01 0. -1.
         -5    1    5    5    0  503  0.75461763505E+02  0.21329102600E+02  0.27374111498E+03  0.28479061853E+03  0.47000000000E+01 0. -1.
<mgrwt>
<rscale>  0 0.27482275E+03</rscale>
<asrwt>0</asrwt>
<pdfrwt beam="1">  1        1 0.97041936E-01 0.27482275E+03</pdfrwt>
<pdfrwt beam="2">  1       -1 0.46053136E-02 0.27482275E+03</pdfrwt>
<totfact> 0.65045646E+03</totfact>
</mgrwt>
</event>
<event>
 9    1  0.7944303E-001  0.2739433E+03  0.7818608E-02  0.1099044E+00
         -2   -1    0    0    0  501 -0.00000000000E+00  0.00000000000E+00  0.12471232601E+02  0.12471232601E+02  0.00000000000E+00 0.  1.
          2   -1    0    0  501    0  0.00000000000E+00 -0.00000000000E+00 -0.15043612285E+04  0.15043612285E+04  0.00000000000E+00 0.  1.
         35    2    1    2    0    0  0.00000000000E+00 -0.35527136788E-14 -0.14918899959E+04  0.15168324611E+04  0.27394334303E+03 0.  0.
         25    2    3    3    0    0  0.14801844794E+02 -0.17932857689E+02 -0.10589679072E+04  0.10655748679E+04  0.11617266704E+03 0.  0.
         25    2    3    3    0    0 -0.14801844794E+02  0.17932857689E+02 -0.43292208867E+03  0.45125759320E+03  0.12518465788E+03 0.  0.
          5    1    4    4  502    0  0.14924586234E+02 -0.36816779351E+02 -0.10294034257E+04  0.10301804315E+04  0.47000000000E+01 0.  1.
         -5    1    4    4    0  502 -0.12274143997E+00  0.18883921662E+02 -0.29564481511E+02  0.35394436424E+02  0.47000000000E+01 0.  1.
          5    1    5    5  503    0 -0.40700965584E+01  0.33138676417E+02 -0.43060439706E+03  0.43192241703E+03  0.47000000000E+01 0.  1.
         -5    1    5    5    0  503 -0.10731748236E+02 -0.15205818728E+02 -0.23176916095E+01  0.19335176176E+02  0.47000000000E+01 0.  1.
<mgrwt>
<rscale>  0 0.27394334E+03</rscale>
<asrwt>0</asrwt>
<pdfrwt beam="1">  1        2 0.23144014E+00 0.27394334E+03</pdfrwt>
<pdfrwt beam="2">  1       -2 0.19186515E-02 0.27394334E+03</pdfrwt>
<totfact> 0.11151544E+04</totfact>
</mgrwt>
</event>
<event>
 9    1  0.7944303E-001  0.2907629E+03  0.7818608E-02  0.1089952E+00
          2   -1    0    0  501    0  0.00000000000E+00  0.00000000000E+00  0.77096955920E+02  0.77096955920E+02  0.00000000000E+00 0.  1.
         -2   -1    0    0    0  501 -0.00000000000E+00 -0.00000000000E+00 -0.27414524562E+03  0.27414524562E+03  0.00000000000E+00 0.  1.
         35    2    1    2    0    0  0.00000000000E+00 -0.35527136788E-14 -0.19704828970E+03  0.35124220154E+03  0.29076288565E+03 0.  0.
         25    2    3    3    0    0 -0.23335472464E+02 -0.11591672757E+02 -0.13326284758E+02  0.12807463813E+03  0.12468605341E+03 0.  0.
         25    2    3    3    0    0  0.23335472464E+02  0.11591672757E+02 -0.18372200494E+03  0.22316756341E+03  0.12398013997E+03 0.  0.
          5    1    4    4  502    0 -0.27440326255E+02 -0.20441758870E+02  0.51687435916E+02  0.62165247866E+02  0.47000000000E+01 0. -1.
         -5    1    4    4    0  502  0.41048537908E+01  0.88500861131E+01 -0.65013720675E+02  0.65909390263E+02  0.47000000000E+01 0. -1.
          5    1    5    5  503    0 -0.43887106061E+01  0.26187703653E+02  0.85609330630E+01  0.28291980813E+02  0.47000000000E+01 0. -1.
         -5    1    5    5    0  503  0.27724183070E+02 -0.14596030896E+02 -0.19228293801E+03  0.19487558260E+03  0.47000000000E+01 0. -1.
<mgrwt>
<rscale>  0 0.29076289E+03</rscale>
<asrwt>0</asrwt>
<pdfrwt beam="1">  1        2 0.11861070E-01 0.29076289E+03</pdfrwt>
<pdfrwt beam="2">  1       -2 0.42176191E-01 0.29076289E+03</pdfrwt>
<totfact> 0.27830419E+03</totfact>
</mgrwt>
</event>
<event>
 9    1  0.7944303E-001  0.2708297E+03  0.7818608E-02  0.1100806E+00
          2   -1    0    0  501    0  0.00000000000E+00  0.00000000000E+00  0.17865755924E+03  0.17865755924E+03  0.00000000000E+00 0.  1.
         -2   -1    0    0    0  501 -0.00000000000E+00 -0.00000000000E+00 -0.10263870121E+03  0.10263870121E+03  0.00000000000E+00 0.  1.
         35    2    1    2    0    0  0.00000000000E+00 -0.71054273576E-14  0.76018858032E+02  0.28129626045E+03  0.27082968701E+03 0.  0.
         25    2    3    3    0    0  0.13711308417E+02 -0.48932388019E+02  0.30362972577E+02  0.13878383318E+03  0.12552554988E+03 0.  0.
         25    2    3    3    0    0 -0.13711308417E+02  0.48932388019E+02  0.45655885455E+02  0.14251242727E+03  0.12507179328E+03 0.  0.
          5    1    4    4  502    0 -0.37253474591E+02  0.13012642947E+02  0.41736211986E+02  0.57629433769E+02  0.47000000000E+01 0. -1.
         -5    1    4    4    0  502  0.50964783008E+02 -0.61945030967E+02 -0.11373239409E+02  0.81154399407E+02  0.47000000000E+01 0. -1.
          5    1    5    5  503    0  0.32622505148E+02  0.23605717886E+02  0.72519274270E+02  0.83081844586E+02  0.47000000000E+01 0.  1.
         -5    1    5    5    0  503 -0.46333813565E+02  0.25326670133E+02 -0.26863388816E+02  0.59430582684E+02  0.47000000000E+01 0.  1.
<mgrwt>
<rscale>  0 0.27082969E+03</rscale>
<asrwt>0</asrwt>
<pdfrwt beam="1">  1        2 0.27485778E-01 0.27082969E+03</pdfrwt>
<pdfrwt beam="2">  1       -2 0.15790569E-01 0.27082969E+03</pdfrwt>
<totfact> 0.60233391E+03</totfact>
</mgrwt>
</event>
<event>
 9    1  0.7944303E-001  0.2820428E+03  0.7818608E-02  0.1094578E+00
          2   -1    0    0  501    0  0.00000000000E+00  0.00000000000E+00  0.13648509391E+04  0.13648509391E+04  0.00000000000E+00 0. -1.
         -2   -1    0    0    0  501 -0.00000000000E+00 -0.00000000000E+00 -0.14570846478E+02  0.14570846478E+02  0.00000000000E+00 0. -1.
         35    2    1    2    0    0 -0.35527136788E-14  0.17763568394E-14  0.13502800926E+04  0.13794217856E+04  0.28204278752E+03 0.  0.
         25    2    3    3    0    0  0.23297447737E+02  0.79258641648E+01  0.38130729773E+03  0.40208955044E+03  0.12520048274E+03 0.  0.
         25    2    3    3    0    0 -0.23297447737E+02 -0.79258641648E+01  0.96897279487E+03  0.97733223512E+03  0.12515762144E+03 0.  0.
          5    1    4    4  502    0 -0.45033845430E+02 -0.13857840484E+02  0.22670229202E+03  0.23159470241E+03  0.47000000000E+01 0. -1.
         -5    1    4    4    0  502  0.68331293168E+02  0.21783704649E+02  0.15460500570E+03  0.17049484802E+03  0.47000000000E+01 0. -1.
          5    1    5    5  503    0 -0.18763674101E+02  0.56791800945E+02  0.36925149335E+03  0.37409375758E+03  0.47000000000E+01 0.  1.
         -5    1    5    5    0  503 -0.45337736360E+01 -0.64717665110E+02  0.59972130152E+03  0.60323847754E+03  0.47000000000E+01 0.  1.
<mgrwt>
<rscale>  0 0.28204279E+03</rscale>
<asrwt>0</asrwt>
<pdfrwt beam="1">  1        2 0.20997697E+00 0.28204279E+03</pdfrwt>
<pdfrwt beam="2">  1       -2 0.22416698E-02 0.28204279E+03</pdfrwt>
<totfact> 0.10555332E+04</totfact>
</mgrwt>
</event>
<event>
 9    1  0.7944303E-001  0.2752296E+03  0.7818608E-02  0.1098323E+00
          2   -1    0    0  501    0  0.00000000000E+00  0.00000000000E+00  0.17394477627E+04  0.17394477627E+04  0.00000000000E+00 0.  1.
         -2   -1    0    0    0  501 -0.00000000000E+00 -0.00000000000E+00 -0.10887264924E+02  0.10887264924E+02  0.00000000000E+00 0.  1.
         35    2    1    2    0    0 -0.71054273576E-14  0.13322676296E-14  0.17285604978E+04  0.17503350276E+04  0.27522956683E+03 0.  0.
         25    2    3    3    0    0 -0.28190315509E+02  0.22922566267E+01  0.11114644251E+04  0.11188373982E+04  0.12507600480E+03 0.  0.
         25    2    3    3    0    0  0.28190315509E+02 -0.22922566267E+01  0.61709607269E+03  0.63149762946E+03  0.13107915452E+03 0.  0.
          5    1    4    4  502    0  0.40923132335E+02 -0.12518920841E+02  0.69975564960E+03  0.70107880105E+03  0.47000000000E+01 0.  1.
         -5    1    4    4    0  502 -0.69113447844E+02  0.14811177468E+02  0.41170877550E+03  0.41775859713E+03  0.47000000000E+01 0.  1.
          5    1    5    5  503    0  0.78490872408E+02 -0.56272062208E+01  0.45164487949E+03  0.45847319406E+03  0.47000000000E+01 0.  1.
         -5    1    5    5    0  503 -0.50300556899E+02  0.33349495940E+01  0.16545119320E+03  0.17302443539E+03  0.47000000000E+01 0.  1.
<mgrwt>
<rscale>  0 0.27522957E+03</rscale>
<asrwt>0</asrwt>
<pdfrwt beam="1">  1        2 0.26760713E+00 0.27522957E+03</pdfrwt>
<pdfrwt beam="2">  1       -2 0.16749652E-02 0.27522957E+03</pdfrwt>
<totfact> 0.10220592E+04</totfact>
</mgrwt>
</event>
<event>
 9    1  0.7944303E-001  0.2796098E+03  0.7818608E-02  0.1095902E+00
          1   -1    0    0  501    0  0.00000000000E+00  0.00000000000E+00  0.52179966595E+02  0.52179966595E+02  0.00000000000E+00 0. -1.
         -1   -1    0    0    0  501 -0.00000000000E+00 -0.00000000000E+00 -0.37457678778E+03  0.37457678778E+03  0.00000000000E+00 0. -1.
         35    2    1    2    0    0  0.71054273576E-14  0.00000000000E+00 -0.32239682119E+03  0.42675675438E+03  0.27960975858E+03 0.  0.
         25    2    3    3    0    0 -0.36637590356E+02  0.51435656094E+02 -0.15784091787E+03  0.21055549646E+03  0.12422528724E+03 0.  0.
         25    2    3    3    0    0  0.36637590356E+02 -0.51435656094E+02 -0.16455590332E+03  0.21620125792E+03  0.12520542665E+03 0.  0.
          5    1    4    4  502    0  0.12855655982E+02  0.66721564141E+02 -0.13978840124E+03  0.15549894577E+03  0.47000000000E+01 0. -1.
         -5    1    4    4    0  502 -0.49493246338E+02 -0.15285908047E+02 -0.18052516627E+02  0.55056550695E+02  0.47000000000E+01 0. -1.
          5    1    5    5  503    0  0.51449848922E+02 -0.12137988011E+02 -0.75468433916E+01  0.53604687782E+02  0.47000000000E+01 0.  1.
         -5    1    5    5    0  503 -0.14812258566E+02 -0.39297668083E+02 -0.15700905992E+03  0.16259657013E+03  0.47000000000E+01 0.  1.
<mgrwt>
<rscale>  0 0.27960976E+03</rscale>
<asrwt>0</asrwt>
<pdfrwt beam="1">  1        1 0.80276875E-02 0.27960976E+03</pdfrwt>
<pdfrwt beam="2">  1       -1 0.57627195E-01 0.27960976E+03</pdfrwt>
<totfact> 0.27118560E+03</totfact>
</mgrwt>
</event>
<event>
 9    1  0.7944303E-001  0.3075921E+03  0.7818608E-02  0.1081506E+00
          2   -1    0    0  501    0  0.00000000000E+00  0.00000000000E+00  0.87543647821E+03  0.87543647821E+03  0.00000000000E+00 0. -1.
         -2   -1    0    0    0  501 -0.00000000000E+00 -0.00000000000E+00 -0.27018781775E+02  0.27018781775E+02  0.00000000000E+00 0. -1.
         35    2    1    2    0    0  0.53290705182E-14  0.00000000000E+00  0.84841769643E+03  0.90245525998E+03  0.30759211409E+03 0.  0.
         25    2    3    3    0    0  0.10239631567E+02 -0.17961391281E+02  0.68477380444E+03  0.69573977627E+03  0.12128978276E+03 0.  0.
         25    2    3    3    0    0 -0.10239631567E+02  0.17961391281E+02  0.16364389199E+03  0.20671548371E+03  0.12459737634E+03 0.  0.
          5    1    4    4  502    0 -0.23801214179E+02  0.45076365118E+02  0.27499918024E+03  0.27972310527E+03  0.47000000000E+01 0. -1.
         -5    1    4    4    0  502  0.34040845746E+02 -0.63037756400E+02  0.40977462420E+03  0.41601667100E+03  0.47000000000E+01 0. -1.
          5    1    5    5  503    0  0.14721334078E+02 -0.92188844225E+01 -0.15500096986E+02  0.23749705548E+02  0.47000000000E+01 0. -1.
         -5    1    5    5    0  503 -0.24960965645E+02  0.27180275704E+02  0.17914398898E+03  0.18296577817E+03  0.47000000000E+01 0. -1.
<mgrwt>
<rscale>  0 0.30759211E+03</rscale>
<asrwt>0</asrwt>
<pdfrwt beam="1">  1        2 0.13468251E+00 0.30759211E+03</pdfrwt>
<pdfrwt beam="2">  1       -2 0.41567363E-02 0.30759211E+03</pdfrwt>
<totfact> 0.81871504E+03</totfact>
</mgrwt>
</event>
<event>
 9    1  0.7944303E-001  0.2744655E+03  0.7818608E-02  0.1098751E+00
          1   -1    0    0  501    0  0.00000000000E+00  0.00000000000E+00  0.11627437932E+04  0.11627437932E+04  0.00000000000E+00 0.  1.
         -1   -1    0    0    0  501 -0.00000000000E+00 -0.00000000000E+00 -0.16196886048E+02  0.16196886048E+02  0.00000000000E+00 0.  1.
         35    2    1    2    0    0 -0.71054273576E-14 -0.35527136788E-14  0.11465469072E+04  0.11789406793E+04  0.27446550765E+03 0.  0.
         25    2    3    3    0    0  0.45375480852E+02  0.25897182697E+02  0.54096066832E+03  0.55811543982E+03  0.12698346808E+03 0.  0.
         25    2    3    3    0    0 -0.45375480852E+02 -0.25897182697E+02  0.60558623888E+03  0.62082523947E+03  0.12633165443E+03 0.  0.
          5    1    4    4  502    0  0.49127509292E+02  0.29612536237E+02  0.88309468884E+02  0.10540904499E+03  0.47000000000E+01 0. -1.
         -5    1    4    4    0  502 -0.37520284398E+01 -0.37153535405E+01  0.45265119943E+03  0.45270639483E+03  0.47000000000E+01 0. -1.
          5    1    5    5  503    0  0.40716989891E+01  0.25286875061E+02  0.25759890186E+02  0.36628769095E+02  0.47000000000E+01 0.  1.
         -5    1    5    5    0  503 -0.49447179841E+02 -0.51184057758E+02  0.57982634869E+03  0.58419647038E+03  0.47000000000E+01 0.  1.
<mgrwt>
<rscale>  0 0.27446551E+03</rscale>
<asrwt>0</asrwt>
<pdfrwt beam="1">  1        1 0.17888359E+00 0.27446551E+03</pdfrwt>
<pdfrwt beam="2">  1       -1 0.24918295E-02 0.27446551E+03</pdfrwt>
<totfact> 0.60350901E+03</totfact>
</mgrwt>
</event>
<event>
 9    1  0.7944303E-001  0.2782750E+03  0.7818608E-02  0.1096635E+00
         -1   -1    0    0    0  501 -0.00000000000E+00  0.00000000000E+00  0.30505068734E+03  0.30505068734E+03  0.00000000000E+00 0. -1.
          1   -1    0    0  501    0  0.00000000000E+00 -0.00000000000E+00 -0.63462402880E+02  0.63462402880E+02  0.00000000000E+00 0. -1.
         35    2    1    2    0    0  0.71054273576E-14  0.00000000000E+00  0.24158828446E+03  0.36851309022E+03  0.27827504106E+03 0.  0.
         25    2    3    3    0    0  0.29870177360E+02  0.29583607552E+02  0.18032852609E+03  0.22291620584E+03  0.12412026496E+03 0.  0.
         25    2    3    3    0    0 -0.29870177360E+02 -0.29583607552E+02  0.61259758376E+02  0.14559688439E+03  0.12521292831E+03 0.  0.
          5    1    4    4  502    0  0.22548559885E+02 -0.21485500251E+02  0.16628434867E+03  0.16924136282E+03  0.47000000000E+01 0.  1.
         -5    1    4    4    0  502  0.73216174744E+01  0.51069107803E+02  0.14044177414E+02  0.53674843023E+02  0.47000000000E+01 0.  1.
          5    1    5    5  503    0 -0.44772826320E+02  0.37233514968E+02  0.48215532592E+02  0.75748057379E+02  0.47000000000E+01 0. -1.
         -5    1    5    5    0  503  0.14902648960E+02 -0.66817122520E+02  0.13044225785E+02  0.69848827007E+02  0.47000000000E+01 0. -1.
<mgrwt>
<rscale>  0 0.27827504E+03</rscale>
<asrwt>0</asrwt>
<pdfrwt beam="1">  1        1 0.97634468E-02 0.27827504E+03</pdfrwt>
<pdfrwt beam="2">  1       -1 0.46930874E-01 0.27827504E+03</pdfrwt>
<totfact> 0.30512100E+03</totfact>
</mgrwt>
</event>
<event>
 9    1  0.7944303E-001  0.2741941E+03  0.7818608E-02  0.1098903E+00
         -2   -1    0    0    0  501 -0.00000000000E+00  0.00000000000E+00  0.41535396509E+02  0.41535396509E+02  0.00000000000E+00 0. -1.
          2   -1    0    0  501    0  0.00000000000E+00 -0.00000000000E+00 -0.45251992755E+03  0.45251992755E+03  0.00000000000E+00 0. -1.
         35    2    1    2    0    0  0.35527136788E-14  0.35527136788E-14 -0.41098453104E+03  0.49405532406E+03  0.27419405259E+03 0.  0.
         25    2    3    3    0    0  0.21414691654E+02 -0.16493047551E+02 -0.29380932856E+03  0.32033168799E+03  0.12473114746E+03 0.  0.
         25    2    3    3    0    0 -0.21414691654E+02  0.16493047551E+02 -0.11717520248E+03  0.17372363607E+03  0.12537648909E+03 0.  0.
          5    1    4    4  502    0 -0.25277433016E+02 -0.55646456913E+02 -0.19240470202E+03  0.20193349437E+03  0.47000000000E+01 0. -1.
         -5    1    4    4    0  502  0.46692124670E+02  0.39153409362E+02 -0.10140462654E+03  0.11839819363E+03  0.47000000000E+01 0. -1.
          5    1    5    5  503    0 -0.36322418310E+02  0.20413168384E+02  0.11947876753E+02  0.43598821937E+02  0.47000000000E+01 0.  1.
         -5    1    5    5    0  503  0.14907726656E+02 -0.39201208337E+01 -0.12912307924E+03  0.13012481413E+03  0.47000000000E+01 0.  1.
<mgrwt>
<rscale>  0 0.27419405E+03</rscale>
<asrwt>0</asrwt>
<pdfrwt beam="1">  1        2 0.69618446E-01 0.27419405E+03</pdfrwt>
<pdfrwt beam="2">  1       -2 0.63900614E-02 0.27419405E+03</pdfrwt>
<totfact> 0.92905893E+03</totfact>
</mgrwt>
</event>
<event>
 9    1  0.7944303E-001  0.2739097E+03  0.7818608E-02  0.1099063E+00
          2   -1    0    0  501    0  0.00000000000E+00  0.00000000000E+00  0.31023438243E+04  0.31023438243E+04  0.00000000000E+00 0. -1.
         -2   -1    0    0    0  501 -0.00000000000E+00 -0.00000000000E+00 -0.60459534822E+01  0.60459534822E+01  0.00000000000E+00 0. -1.
         35    2    1    2    0    0 -0.71054273576E-14 -0.44408920985E-15  0.30962978708E+04  0.31083897778E+04  0.27390966721E+03 0.  0.
         25    2    3    3    0    0  0.53847379665E+02 -0.18668348872E+01  0.17772293346E+04  0.17822591500E+04  0.12247671029E+03 0.  0.
         25    2    3    3    0    0 -0.53847379665E+02  0.18668348872E+01  0.13190685362E+04  0.13261306278E+04  0.12560897014E+03 0.  0.
          5    1    4    4  502    0 -0.35769519802E+02  0.72878661413E+00  0.27616630819E+03  0.27851375093E+03  0.47000000000E+01 0. -1.
         -5    1    4    4    0  502  0.89616899467E+02 -0.25956215013E+01  0.15010630264E+04  0.15037453991E+04  0.47000000000E+01 0. -1.
          5    1    5    5  503    0 -0.61914735380E+02  0.23179095952E+00  0.13138381276E+04  0.13153046049E+04  0.47000000000E+01 0. -1.
         -5    1    5    5    0  503  0.80673557156E+01  0.16350439277E+01  0.52304085969E+01  0.10826022861E+02  0.47000000000E+01 0. -1.
<mgrwt>
<rscale>  0 0.27390967E+03</rscale>
<asrwt>0</asrwt>
<pdfrwt beam="1">  1        2 0.47728239E+00 0.27390967E+03</pdfrwt>
<pdfrwt beam="2">  1       -2 0.93014917E-03 0.27390967E+03</pdfrwt>
<totfact> 0.42860496E+03</totfact>
</mgrwt>
</event>
<event>
 9    1  0.7944303E-001  0.2751375E+03  0.7818608E-02  0.1098375E+00
         -1   -1    0    0    0  501 -0.00000000000E+00  0.00000000000E+00  0.67160103936E+02  0.67160103936E+02  0.00000000000E+00 0.  1.
          1   -1    0    0  501    0  0.00000000000E+00 -0.00000000000E+00 -0.28179167812E+03  0.28179167812E+03  0.00000000000E+00 0.  1.
         35    2    1    2    0    0  0.35527136788E-14  0.00000000000E+00 -0.21463157419E+03  0.34895178206E+03  0.27513748121E+03 0.  0.
         25    2    3    3    0    0 -0.31017019316E+02  0.23540133613E+02 -0.52718429682E+02  0.14072414979E+03  0.12453055902E+03 0.  0.
         25    2    3    3    0    0  0.31017019316E+02 -0.23540133613E+02 -0.16191314450E+03  0.20822763226E+03  0.12500674821E+03 0.  0.
          5    1    4    4  502    0  0.24723924349E+02 -0.22230369380E+01  0.28958492378E+02  0.38430438577E+02  0.47000000000E+01 0. -1.
         -5    1    4    4    0  502 -0.55740943664E+02  0.25763170551E+02 -0.81676922060E+02  0.10229371122E+03  0.47000000000E+01 0. -1.
          5    1    5    5  503    0 -0.72186925211E+01 -0.42913676070E+02 -0.15910488225E+03  0.16501559524E+03  0.47000000000E+01 0.  1.
         -5    1    5    5    0  503  0.38235711837E+02  0.19373542457E+02 -0.28082622527E+01  0.43212037025E+02  0.47000000000E+01 0.  1.
<mgrwt>
<rscale>  0 0.27513748E+03</rscale>
<asrwt>0</asrwt>
<pdfrwt beam="1">  1        1 0.43352566E-01 0.27513748E+03</pdfrwt>
<pdfrwt beam="2">  1       -1 0.10332324E-01 0.27513748E+03</pdfrwt>
<totfact> 0.54588195E+03</totfact>
</mgrwt>
</event>
<event>
 9    1  0.7944303E-001  0.2715162E+03  0.7818608E-02  0.1100415E+00
          1   -1    0    0  501    0  0.00000000000E+00  0.00000000000E+00  0.10451670160E+03  0.10451670160E+03  0.00000000000E+00 0. -1.
         -1   -1    0    0    0  501 -0.00000000000E+00 -0.00000000000E+00 -0.17633793103E+03  0.17633793103E+03  0.00000000000E+00 0. -1.
         35    2    1    2    0    0  0.00000000000E+00  0.00000000000E+00 -0.71821229432E+02  0.28085463264E+03  0.27151617940E+03 0.  0.
         25    2    3    3    0    0 -0.10631037535E+01 -0.64033412796E+01  0.18456181596E+02  0.12697499578E+03  0.12545870215E+03 0.  0.
         25    2    3    3    0    0  0.10631037535E+01  0.64033412796E+01 -0.90277411028E+02  0.15387963685E+03  0.12444596710E+03 0.  0.
          5    1    4    4  502    0  0.54509859105E+02  0.22229954548E+02  0.24616412099E+02  0.63980882797E+02  0.47000000000E+01 0. -1.
         -5    1    4    4    0  502 -0.55572962858E+02 -0.28633295827E+02 -0.61602305024E+01  0.62994112984E+02  0.47000000000E+01 0. -1.
          5    1    5    5  503    0  0.41034920548E+02 -0.38942969764E+02 -0.18029203262E+02  0.59561411742E+02  0.47000000000E+01 0. -1.
         -5    1    5    5    0  503 -0.39971816794E+02  0.45346311044E+02 -0.72248207766E+02  0.94318225113E+02  0.47000000000E+01 0. -1.
<mgrwt>
<rscale>  0 0.27151618E+03</rscale>
<asrwt>0</asrwt>
<pdfrwt beam="1">  1        1 0.16079493E-01 0.27151618E+03</pdfrwt>
<pdfrwt beam="2">  1       -1 0.27128912E-01 0.27151618E+03</pdfrwt>
<totfact> 0.40969198E+03</totfact>
</mgrwt>
</event>
<event>
 9    1  0.7944303E-001  0.2842363E+03  0.7818608E-02  0.1093397E+00
         -2   -1    0    0    0  501 -0.00000000000E+00  0.00000000000E+00  0.29177842887E+02  0.29177842887E+02  0.00000000000E+00 0.  1.
          2   -1    0    0  501    0  0.00000000000E+00 -0.00000000000E+00 -0.69222268031E+03  0.69222268031E+03  0.00000000000E+00 0.  1.
         35    2    1    2    0    0  0.00000000000E+00  0.00000000000E+00 -0.66304483742E+03  0.72140052320E+03  0.28423627220E+03 0.  0.
         25    2    3    3    0    0  0.42636113807E+02 -0.30639979619E+02 -0.22599399857E+03  0.26351482507E+03  0.12494050220E+03 0.  0.
         25    2    3    3    0    0 -0.42636113807E+02  0.30639979619E+02 -0.43705083885E+03  0.45788569812E+03  0.12605249008E+03 0.  0.
          5    1    4    4  502    0  0.55878091101E+01  0.32096602567E+01  0.15170567013E+02  0.17139475870E+02  0.47000000000E+01 0. -1.
         -5    1    4    4    0  502  0.37048304697E+02 -0.33849639875E+02 -0.24116456559E+03  0.24637534920E+03  0.47000000000E+01 0. -1.
          5    1    5    5  503    0 -0.38823327755E+02  0.12174906799E+02 -0.43652986455E+03  0.43844713681E+03  0.47000000000E+01 0. -1.
         -5    1    5    5    0  503 -0.38127860524E+01  0.18465072820E+02 -0.52097430124E+00  0.19438561314E+02  0.47000000000E+01 0. -1.
<mgrwt>
<rscale>  0 0.28423627E+03</rscale>
<asrwt>0</asrwt>
<pdfrwt beam="1">  1        2 0.10649578E+00 0.28423627E+03</pdfrwt>
<pdfrwt beam="2">  1       -2 0.44888996E-02 0.28423627E+03</pdfrwt>
<totfact> 0.97880223E+03</totfact>
</mgrwt>
</event>
<event>
 9    1  0.7944303E-001  0.2734500E+03  0.7818608E-02  0.1099321E+00
         -1   -1    0    0    0  501 -0.00000000000E+00  0.00000000000E+00  0.19201698888E+02  0.19201698888E+02  0.00000000000E+00 0.  1.
          1   -1    0    0  501    0  0.00000000000E+00 -0.00000000000E+00 -0.97354521228E+03  0.97354521228E+03  0.00000000000E+00 0.  1.
         35    2    1    2    0    0  0.71054273576E-14 -0.71054273576E-14 -0.95434351339E+03  0.99274691117E+03  0.27344997364E+03 0.  0.
         25    2    3    3    0    0 -0.39423774454E+02  0.39782056697E+02 -0.48175999297E+03  0.50082207782E+03  0.12487280239E+03 0.  0.
         25    2    3    3    0    0  0.39423774454E+02 -0.39782056697E+02 -0.47258352042E+03  0.49192483335E+03  0.12457131237E+03 0.  0.
          5    1    4    4  502    0 -0.52772855410E+02 -0.29853921449E+02 -0.29028128962E+03  0.29658312156E+03  0.47000000000E+01 0. -1.
         -5    1    4    4    0  502  0.13349080956E+02  0.69635978146E+02 -0.19147870336E+03  0.20423895626E+03  0.47000000000E+01 0. -1.
          5    1    5    5  503    0  0.48941600866E+02  0.35393427045E+02 -0.21815863263E+03  0.22641389967E+03  0.47000000000E+01 0. -1.
         -5    1    5    5    0  503 -0.95178264123E+01 -0.75175483742E+02 -0.25442488779E+03  0.26551093368E+03  0.47000000000E+01 0. -1.
<mgrwt>
<rscale>  0 0.27344997E+03</rscale>
<asrwt>0</asrwt>
<pdfrwt beam="1">  1        1 0.14977618E+00 0.27344997E+03</pdfrwt>
<pdfrwt beam="2">  1       -1 0.29541077E-02 0.27344997E+03</pdfrwt>
<totfact> 0.64560225E+03</totfact>
</mgrwt>
</event>
<event>
 9    1  0.7944303E-001  0.2630840E+03  0.7818608E-02  0.1105304E+00
          2   -1    0    0  501    0  0.00000000000E+00  0.00000000000E+00  0.27433171449E+02  0.27433171449E+02  0.00000000000E+00 0. -1.
         -2   -1    0    0    0  501 -0.00000000000E+00 -0.00000000000E+00 -0.63074339678E+03  0.63074339678E+03  0.00000000000E+00 0. -1.
         35    2    1    2    0    0  0.00000000000E+00  0.00000000000E+00 -0.60331022533E+03  0.65817656823E+03  0.26308395424E+03 0.  0.
         25    2    3    3    0    0 -0.11939475571E+02 -0.86935112362E+01 -0.40155470223E+03  0.42057712082E+03  0.12418054382E+03 0.  0.
         25    2    3    3    0    0  0.11939475571E+02  0.86935112362E+01 -0.20175552311E+03  0.23759944741E+03  0.12461973395E+03 0.  0.
          5    1    4    4  502    0 -0.27308325380E+02 -0.12562515360E+02 -0.15457174386E+02  0.34125879728E+02  0.47000000000E+01 0.  1.
         -5    1    4    4    0  502  0.15368849809E+02  0.38690041240E+01 -0.38609752784E+03  0.38645124109E+03  0.47000000000E+01 0.  1.
          5    1    5    5  503    0 -0.56363680505E+02  0.78351088028E+00 -0.92198333266E+02  0.10816700526E+03  0.47000000000E+01 0. -1.
         -5    1    5    5    0  503  0.68303156076E+02  0.79100003560E+01 -0.10955718984E+03  0.12943244215E+03  0.47000000000E+01 0. -1.
<mgrwt>
<rscale>  0 0.26308395E+03</rscale>
<asrwt>0</asrwt>
<pdfrwt beam="1">  1        2 0.42204877E-02 0.26308395E+03</pdfrwt>
<pdfrwt beam="2">  1       -2 0.97037451E-01 0.26308395E+03</pdfrwt>
<totfact> 0.18082950E+03</totfact>
</mgrwt>
</event>
<event>
 9    1  0.7944303E-001  0.2729983E+03  0.7818608E-02  0.1099576E+00
         -1   -1    0    0    0  501 -0.00000000000E+00  0.00000000000E+00  0.17282346808E+02  0.17282346808E+02  0.00000000000E+00 0.  1.
          1   -1    0    0  501    0  0.00000000000E+00 -0.00000000000E+00 -0.10780956236E+04  0.10780956236E+04  0.00000000000E+00 0.  1.
         35    2    1    2    0    0  0.00000000000E+00 -0.71054273576E-14 -0.10608132768E+04  0.10953779705E+04  0.27299833304E+03 0.  0.
         25    2    3    3    0    0 -0.19963555843E+02  0.45137522360E+02 -0.41060680330E+03  0.43212447839E+03  0.12529037642E+03 0.  0.
         25    2    3    3    0    0  0.19963555843E+02 -0.45137522360E+02 -0.65020647354E+03  0.66325349206E+03  0.12124684333E+03 0.  0.
          5    1    4    4  502    0  0.57393863354E+01 -0.76951906954E+01 -0.33992143138E+03  0.34008943828E+03  0.47000000000E+01 0. -1.
         -5    1    4    4    0  502 -0.25702942179E+02  0.52832713055E+02 -0.70685371913E+02  0.92035040109E+02  0.47000000000E+01 0. -1.
          5    1    5    5  503    0 -0.60012121122E+01 -0.11163385766E+02 -0.58487601903E+03  0.58503220712E+03  0.47000000000E+01 0. -1.
         -5    1    5    5    0  503  0.25964767956E+02 -0.33974136593E+02 -0.65330454506E+02  0.78221284944E+02  0.47000000000E+01 0. -1.
<mgrwt>
<rscale>  0 0.27299833E+03</rscale>
<asrwt>0</asrwt>
<pdfrwt beam="1">  1        1 0.16586090E+00 0.27299833E+03</pdfrwt>
<pdfrwt beam="2">  1       -1 0.26588221E-02 0.27299833E+03</pdfrwt>
<totfact> 0.63073624E+03</totfact>
</mgrwt>
</event>
<event>
 9    1  0.7944303E-001  0.2750371E+03  0.7818608E-02  0.1098431E+00
          2   -1    0    0  501    0  0.00000000000E+00  0.00000000000E+00  0.12582014197E+04  0.12582014197E+04  0.00000000000E+00 0.  1.
         -2   -1    0    0    0  501 -0.00000000000E+00 -0.00000000000E+00 -0.15030469167E+02  0.15030469167E+02  0.00000000000E+00 0.  1.
         35    2    1    2    0    0  0.35527136788E-14  0.00000000000E+00  0.12431709506E+04  0.12732318889E+04  0.27503714400E+03 0.  0.
         25    2    3    3    0    0  0.16189410131E+02  0.37349798612E+02  0.37732161948E+03  0.39765925511E+03  0.11876099607E+03 0.  0.
         25    2    3    3    0    0 -0.16189410131E+02 -0.37349798612E+02  0.86584933107E+03  0.87557263378E+03  0.12359315699E+03 0.  0.
          5    1    4    4  502    0  0.38987275318E+02  0.70135317537E+02  0.29904607031E+03  0.30966047951E+03  0.47000000000E+01 0.  1.
         -5    1    4    4    0  502 -0.22797865187E+02 -0.32785518926E+02  0.78275549175E+02  0.87998775600E+02  0.47000000000E+01 0.  1.
          5    1    5    5  503    0 -0.42832354634E+02  0.47193743411E+01  0.72154321057E+03  0.72284408956E+03  0.47000000000E+01 0.  1.
         -5    1    5    5    0  503  0.26642944503E+02 -0.42069172953E+02  0.14430612050E+03  0.15272854422E+03  0.47000000000E+01 0.  1.
<mgrwt>
<rscale>  0 0.27503714E+03</rscale>
<asrwt>0</asrwt>
<pdfrwt beam="1">  1        2 0.19356937E+00 0.27503714E+03</pdfrwt>
<pdfrwt beam="2">  1       -2 0.23123809E-02 0.27503714E+03</pdfrwt>
<totfact> 0.11541323E+04</totfact>
</mgrwt>
</event>
<event>
 9    1  0.7944303E-001  0.2764487E+03  0.7818608E-02  0.1097645E+00
          1   -1    0    0  501    0  0.00000000000E+00  0.00000000000E+00  0.12998029788E+03  0.12998029788E+03  0.00000000000E+00 0.  1.
         -1   -1    0    0    0  501 -0.00000000000E+00 -0.00000000000E+00 -0.14699128818E+03  0.14699128818E+03  0.00000000000E+00 0.  1.
         35    2    1    2    0    0  0.00000000000E+00 -0.71054273576E-14 -0.17010990300E+02  0.27697158607E+03  0.27644870355E+03 0.  0.
         25    2    3    3    0    0 -0.61663179831E+01  0.16160920817E+02 -0.63933288310E+02  0.14191116455E+03  0.12550742779E+03 0.  0.
         25    2    3    3    0    0  0.61663179831E+01 -0.16160920817E+02  0.46922298009E+02  0.13506042152E+03  0.12546081688E+03 0.  0.
          5    1    4    4  502    0 -0.47146521276E+02 -0.36032438778E+02 -0.23077658950E+02  0.63841988184E+02  0.47000000000E+01 0.  1.
         -5    1    4    4    0  502  0.40980203293E+02  0.52193359594E+02 -0.40855629359E+02  0.78069176363E+02  0.47000000000E+01 0.  1.
          5    1    5    5  503    0 -0.50275062906E+02 -0.33516596676E+02  0.18631791980E+01  0.60634195300E+02  0.47000000000E+01 0. -1.
         -5    1    5    5    0  503  0.56441380889E+02  0.17355675859E+02  0.45059118811E+02  0.74426226219E+02  0.47000000000E+01 0. -1.
<mgrwt>
<rscale>  0 0.27644870E+03</rscale>
<asrwt>0</asrwt>
<pdfrwt beam="1">  1        1 0.19996969E-01 0.27644870E+03</pdfrwt>
<pdfrwt beam="2">  1       -1 0.22614044E-01 0.27644870E+03</pdfrwt>
<totfact> 0.41802509E+03</totfact>
</mgrwt>
</event>
<event>
 9    1  0.7944303E-001  0.2754418E+03  0.7818608E-02  0.1098205E+00
         -1   -1    0    0    0  501 -0.00000000000E+00  0.00000000000E+00  0.98621091653E+01  0.98621091653E+01  0.00000000000E+00 0. -1.
          1   -1    0    0  501    0  0.00000000000E+00 -0.00000000000E+00 -0.19232247754E+04  0.19232247754E+04  0.00000000000E+00 0. -1.
         35    2    1    2    0    0  0.00000000000E+00  0.71054273576E-14 -0.19133626663E+04  0.19330868846E+04  0.27544184638E+03 0.  0.
         25    2    3    3    0    0 -0.50783453709E+02 -0.12082490727E+02 -0.11420879678E+04  0.11500275316E+04  0.12439232875E+03 0.  0.
         25    2    3    3    0    0  0.50783453709E+02  0.12082490727E+02 -0.77127469846E+03  0.78305935301E+03  0.12486930806E+03 0.  0.
          5    1    4    4  502    0 -0.11595909351E+02  0.45093504129E+02 -0.77572103667E+03  0.77713133122E+03  0.47000000000E+01 0.  1.
         -5    1    4    4    0  502 -0.39187544358E+02 -0.57175994856E+02 -0.36636693113E+03  0.37289620036E+03  0.47000000000E+01 0.  1.
          5    1    5    5  503    0  0.70978007867E+02 -0.34420356474E+02 -0.35540578001E+03  0.36408515076E+03  0.47000000000E+01 0.  1.
         -5    1    5    5    0  503 -0.20194554158E+02  0.46502847201E+02 -0.41586891845E+03  0.41897420224E+03  0.47000000000E+01 0.  1.
<mgrwt>
<rscale>  0 0.27544185E+03</rscale>
<asrwt>0</asrwt>
<pdfrwt beam="1">  1        1 0.29588079E+00 0.27544185E+03</pdfrwt>
<pdfrwt beam="2">  1       -1 0.15172473E-02 0.27544185E+03</pdfrwt>
<totfact> 0.38844295E+03</totfact>
</mgrwt>
</event>
<event>
 9    1  0.7944303E-001  0.2735407E+03  0.7818608E-02  0.1099270E+00
          2   -1    0    0  501    0  0.00000000000E+00  0.00000000000E+00  0.25754358666E+04  0.25754358666E+04  0.00000000000E+00 0.  1.
         -2   -1    0    0    0  501 -0.00000000000E+00 -0.00000000000E+00 -0.72632887087E+01  0.72632887087E+01  0.00000000000E+00 0.  1.
         35    2    1    2    0    0 -0.26645352591E-14 -0.71054273576E-14  0.25681725779E+04  0.25826991553E+04  0.27354074102E+03 0.  0.
         25    2    3    3    0    0 -0.60796398636E+01 -0.16453395101E+02  0.76988574613E+03  0.78000167996E+03  0.12397936287E+03 0.  0.
         25    2    3    3    0    0  0.60796398636E+01  0.16453395101E+02  0.17982868318E+04  0.18026974754E+04  0.12479976805E+03 0.  0.
          5    1    4    4  502    0  0.40893095823E+02  0.45056800965E+01  0.62160367349E+03  0.62298135072E+03  0.47000000000E+01 0.  1.
         -5    1    4    4    0  502 -0.46972735686E+02 -0.20959075198E+02  0.14828207263E+03  0.15702032924E+03  0.47000000000E+01 0.  1.
          5    1    5    5  503    0  0.79972993839E+01  0.42885690108E+02  0.22820271375E+03  0.23238267529E+03  0.47000000000E+01 0.  1.
         -5    1    5    5    0  503 -0.19176595203E+01 -0.26432295007E+02  0.15700841181E+04  0.15703148001E+04  0.47000000000E+01 0.  1.
<mgrwt>
<rscale>  0 0.27354074E+03</rscale>
<asrwt>0</asrwt>
<pdfrwt beam="1">  1        2 0.39622017E+00 0.27354074E+03</pdfrwt>
<pdfrwt beam="2">  1       -2 0.11174311E-02 0.27354074E+03</pdfrwt>
<totfact> 0.66113041E+03</totfact>
</mgrwt>
</event>
<event>
 9    1  0.7944303E-001  0.2869235E+03  0.7818608E-02  0.1091966E+00
         -2   -1    0    0    0  501 -0.00000000000E+00  0.00000000000E+00  0.52617410822E+03  0.52617410822E+03  0.00000000000E+00 0. -1.
          2   -1    0    0  501    0  0.00000000000E+00 -0.00000000000E+00 -0.39114948396E+02  0.39114948396E+02  0.00000000000E+00 0. -1.
         35    2    1    2    0    0  0.71054273576E-14  0.14210854715E-13  0.48705915982E+03  0.56528905661E+03  0.28692349566E+03 0.  0.
         25    2    3    3    0    0 -0.43488943192E+02 -0.41716939139E+02  0.31508571062E+03  0.34452378113E+03  0.12564250690E+03 0.  0.
         25    2    3    3    0    0  0.43488943192E+02  0.41716939139E+02  0.17197344920E+03  0.22076527548E+03  0.12462282470E+03 0.  0.
          5    1    4    4  502    0 -0.66051507283E+02 -0.71595388493E+02  0.18573537078E+03  0.20978183722E+03  0.47000000000E+01 0. -1.
         -5    1    4    4    0  502  0.22562564090E+02  0.29878449354E+02  0.12935033984E+03  0.13474194392E+03  0.47000000000E+01 0. -1.
          5    1    5    5  503    0  0.59068783493E+02  0.76696413441E+02  0.14194040773E+03  0.17187387924E+03  0.47000000000E+01 0.  1.
         -5    1    5    5    0  503 -0.15579840301E+02 -0.34979474302E+02  0.30033041476E+02  0.48891396242E+02  0.47000000000E+01 0.  1.
<mgrwt>
<rscale>  0 0.28692350E+03</rscale>
<asrwt>0</asrwt>
<pdfrwt beam="1">  1        2 0.60176848E-02 0.28692350E+03</pdfrwt>
<pdfrwt beam="2">  1       -2 0.80949857E-01 0.28692350E+03</pdfrwt>
<totfact> 0.17075301E+03</totfact>
</mgrwt>
</event>
<event>
 9    1  0.7944303E-001  0.2652887E+03  0.7818608E-02  0.1104007E+00
          3   -1    0    0  501    0  0.00000000000E+00  0.00000000000E+00  0.39792383106E+03  0.39792383106E+03  0.00000000000E+00 0.  1.
         -3   -1    0    0    0  501 -0.00000000000E+00 -0.00000000000E+00 -0.44215795256E+02  0.44215795256E+02  0.00000000000E+00 0.  1.
         35    2    1    2    0    0  0.00000000000E+00  0.00000000000E+00  0.35370803580E+03  0.44213962632E+03  0.26528866272E+03 0.  0.
         25    2    3    3    0    0  0.16811500950E+02  0.45731188059E+02  0.20911451798E+03  0.24518832286E+03  0.11838270105E+03 0.  0.
         25    2    3    3    0    0 -0.16811500950E+02 -0.45731188059E+02  0.14459351782E+03  0.19695130346E+03  0.12453337871E+03 0.  0.
          5    1    4    4  502    0  0.20944494526E+02  0.73026576750E+02  0.20261463031E+03  0.21644013301E+03  0.47000000000E+01 0. -1.
         -5    1    4    4    0  502 -0.41329935755E+01 -0.27295388691E+02  0.64998876742E+01  0.28748189847E+02  0.47000000000E+01 0. -1.
          5    1    5    5  503    0 -0.19069978417E+02 -0.39568097190E+02  0.16720497784E+03  0.17294187753E+03  0.47000000000E+01 0.  1.
         -5    1    5    5    0  503  0.22584774667E+01 -0.61630908696E+01 -0.22611460011E+02  0.24009425928E+02  0.47000000000E+01 0.  1.
<mgrwt>
<rscale>  0 0.26528866E+03</rscale>
<asrwt>0</asrwt>
<pdfrwt beam="1">  1        3 0.61219049E-01 0.26528866E+03</pdfrwt>
<pdfrwt beam="2">  1       -3 0.68024303E-02 0.26528866E+03</pdfrwt>
<totfact> 0.92968746E+02</totfact>
</mgrwt>
</event>
<event>
 9    1  0.7944303E-001  0.2748365E+03  0.7818608E-02  0.1098543E+00
         -2   -1    0    0    0  501 -0.00000000000E+00  0.00000000000E+00  0.99655348939E+01  0.99655348939E+01  0.00000000000E+00 0. -1.
          2   -1    0    0  501    0  0.00000000000E+00 -0.00000000000E+00 -0.18949078710E+04  0.18949078710E+04  0.00000000000E+00 0. -1.
         35    2    1    2    0    0 -0.17763568394E-14  0.14210854715E-13 -0.18849423361E+04  0.19048734059E+04  0.27483646417E+03 0.  0.
         25    2    3    3    0    0  0.49175504999E+01 -0.62458805324E+02 -0.97140966873E+03  0.98143894315E+03  0.12514139987E+03 0.  0.
         25    2    3    3    0    0 -0.49175504999E+01  0.62458805324E+02 -0.91353266738E+03  0.92343446275E+03  0.11943193860E+03 0.  0.
          5    1    4    4  502    0 -0.75938423027E+01  0.36259005053E+02 -0.18386498378E+03  0.18761877344E+03  0.47000000000E+01 0.  1.
         -5    1    4    4    0  502  0.12511392803E+02 -0.98717810377E+02 -0.78754468496E+03  0.79382016971E+03  0.47000000000E+01 0.  1.
          5    1    5    5  503    0  0.22508921715E+02 -0.29322527852E+02 -0.19489307606E+03  0.19842344441E+03  0.47000000000E+01 0. -1.
         -5    1    5    5    0  503 -0.27426472215E+02  0.91781333176E+02 -0.71863959132E+03  0.72501101833E+03  0.47000000000E+01 0. -1.
<mgrwt>
<rscale>  0 0.27483646E+03</rscale>
<asrwt>0</asrwt>
<pdfrwt beam="1">  1        2 0.29152427E+00 0.27483646E+03</pdfrwt>
<pdfrwt beam="2">  1       -2 0.15331593E-02 0.27483646E+03</pdfrwt>
<totfact> 0.96406346E+03</totfact>
</mgrwt>
</event>
<event>
 9    1  0.7944303E-001  0.2773020E+03  0.7818608E-02  0.1097172E+00
         -2   -1    0    0    0  501 -0.00000000000E+00  0.00000000000E+00  0.30066540032E+02  0.30066540032E+02  0.00000000000E+00 0. -1.
          2   -1    0    0  501    0  0.00000000000E+00 -0.00000000000E+00 -0.63938520915E+03  0.63938520915E+03  0.00000000000E+00 0. -1.
         35    2    1    2    0    0  0.00000000000E+00  0.71054273576E-14 -0.60931866912E+03  0.66945174918E+03  0.27730200855E+03 0.  0.
         25    2    3    3    0    0 -0.19442754441E+02  0.38238130298E+02 -0.40657127012E+03  0.42749950402E+03  0.12496180595E+03 0.  0.
         25    2    3    3    0    0  0.19442754441E+02 -0.38238130298E+02 -0.20274739900E+03  0.24195224516E+03  0.12487676256E+03 0.  0.
          5    1    4    4  502    0 -0.52669808858E+02  0.64911476086E+02 -0.32170636405E+03  0.33242244684E+03  0.47000000000E+01 0. -1.
         -5    1    4    4    0  502  0.33227054417E+02 -0.26673345788E+02 -0.84864906063E+02  0.95077057179E+02  0.47000000000E+01 0. -1.
          5    1    5    5  503    0  0.49516760212E+02 -0.14097989280E+02 -0.19576992380E+03  0.20248114951E+03  0.47000000000E+01 0. -1.
         -5    1    5    5    0  503 -0.30074005771E+02 -0.24140141019E+02 -0.69774752050E+01  0.39471095649E+02  0.47000000000E+01 0. -1.
<mgrwt>
<rscale>  0 0.27730201E+03</rscale>
<asrwt>0</asrwt>
<pdfrwt beam="1">  1        2 0.98366955E-01 0.27730201E+03</pdfrwt>
<pdfrwt beam="2">  1       -2 0.46256215E-02 0.27730201E+03</pdfrwt>
<totfact> 0.10276240E+04</totfact>
</mgrwt>
</event>
<event>
 9    1  0.7944303E-001  0.2673016E+03  0.7818608E-02  0.1102834E+00
          2   -1    0    0  501    0  0.00000000000E+00  0.00000000000E+00  0.37082718999E+04  0.37082718999E+04  0.00000000000E+00 0.  1.
         -2   -1    0    0    0  501 -0.00000000000E+00 -0.00000000000E+00 -0.48169445378E+01  0.48169445378E+01  0.00000000000E+00 0.  1.
         35    2    1    2    0    0  0.35527136788E-14  0.71054273576E-14  0.37034549553E+04  0.37130888444E+04  0.26730162793E+03 0.  0.
         25    2    3    3    0    0  0.96333834277E+01 -0.39408354221E+02  0.15750154353E+04  0.15804867700E+04  0.12497595018E+03 0.  0.
         25    2    3    3    0    0 -0.96333834277E+01  0.39408354221E+02  0.21284395200E+04  0.21326020744E+04  0.12685029385E+03 0.  0.
          5    1    4    4  502    0 -0.46824349516E+01  0.36318350277E+02  0.20504383159E+03  0.20834109205E+03  0.47000000000E+01 0.  1.
         -5    1    4    4    0  502  0.14315818379E+02 -0.75726704499E+02  0.13699716037E+04  0.13721456779E+04  0.47000000000E+01 0.  1.
          5    1    5    5  503    0  0.30660576826E+02 -0.31441797782E+02  0.44566631757E+03  0.44784954420E+03  0.47000000000E+01 0.  1.
         -5    1    5    5    0  503 -0.40293960254E+02  0.70850152003E+02  0.16827732024E+04  0.16847525302E+04  0.47000000000E+01 0.  1.
<mgrwt>
<rscale>  0 0.26730163E+03</rscale>
<asrwt>0</asrwt>
<pdfrwt beam="1">  1        2 0.57050109E+00 0.26730163E+03</pdfrwt>
<pdfrwt beam="2">  1       -2 0.74107135E-03 0.26730163E+03</pdfrwt>
<totfact> 0.24117024E+03</totfact>
</mgrwt>
</event>
<event>
 9    1  0.7944303E-001  0.2935985E+03  0.7818608E-02  0.1088485E+00
          2   -1    0    0  501    0  0.00000000000E+00  0.00000000000E+00  0.15118834482E+03  0.15118834482E+03  0.00000000000E+00 0.  1.
         -2   -1    0    0    0  501 -0.00000000000E+00 -0.00000000000E+00 -0.14253756082E+03  0.14253756082E+03  0.00000000000E+00 0.  1.
         35    2    1    2    0    0  0.00000000000E+00  0.00000000000E+00  0.86507839928E+01  0.29372590564E+03  0.29359848702E+03 0.  0.
         25    2    3    3    0    0 -0.49833695388E+02  0.39392239210E+02  0.46749178367E+02  0.14793555523E+03  0.12515708976E+03 0.  0.
         25    2    3    3    0    0  0.49833695388E+02 -0.39392239210E+02 -0.38098394374E+02  0.14579035041E+03  0.12557146536E+03 0.  0.
          5    1    4    4  502    0  0.18675751316E+01 -0.22781451059E+02 -0.28872119117E+02  0.37123733804E+02  0.47000000000E+01 0.  1.
         -5    1    4    4    0  502 -0.51701270520E+02  0.62173690269E+02  0.75621297484E+02  0.11081182143E+03  0.47000000000E+01 0.  1.
          5    1    5    5  503    0  0.26324593140E+01 -0.65792956792E+02 -0.58096740142E+02  0.87937274352E+02  0.47000000000E+01 0.  1.
         -5    1    5    5    0  503  0.47201236074E+02  0.26400717582E+02  0.19998345768E+02  0.57853076057E+02  0.47000000000E+01 0.  1.
<mgrwt>
<rscale>  0 0.29359849E+03</rscale>
<asrwt>0</asrwt>
<pdfrwt beam="1">  1        2 0.23259746E-01 0.29359849E+03</pdfrwt>
<pdfrwt beam="2">  1       -2 0.21928855E-01 0.29359849E+03</pdfrwt>
<totfact> 0.41693166E+03</totfact>
</mgrwt>
</event>
<event>
 9    1  0.7944303E-001  0.2925961E+03  0.7818608E-02  0.1089001E+00
          1   -1    0    0  501    0  0.00000000000E+00  0.00000000000E+00  0.65216255164E+03  0.65216255164E+03  0.00000000000E+00 0.  1.
         -1   -1    0    0    0  501 -0.00000000000E+00 -0.00000000000E+00 -0.32818677385E+02  0.32818677385E+02  0.00000000000E+00 0.  1.
         35    2    1    2    0    0  0.00000000000E+00  0.88817841970E-15  0.61934387425E+03  0.68498122902E+03  0.29259605182E+03 0.  0.
         25    2    3    3    0    0  0.65216074763E+02  0.19448294470E+00  0.21804056478E+03  0.25972725104E+03  0.12515343707E+03 0.  0.
         25    2    3    3    0    0 -0.65216074763E+02 -0.19448294470E+00  0.40130330948E+03  0.42525397799E+03  0.12467327447E+03 0.  0.
          5    1    4    4  502    0  0.85660143976E+02 -0.51486032700E+01  0.22169778393E+03  0.23777334960E+03  0.47000000000E+01 0.  1.
         -5    1    4    4    0  502 -0.20444069213E+02  0.53430862147E+01 -0.36572191518E+01  0.21953901435E+02  0.47000000000E+01 0.  1.
          5    1    5    5  503    0 -0.29719651511E+02 -0.42846614026E+02  0.60840546400E+02  0.80266755918E+02  0.47000000000E+01 0.  1.
         -5    1    5    5    0  503 -0.35496423252E+02  0.42652131081E+02  0.34046276308E+03  0.34498722207E+03  0.47000000000E+01 0.  1.
<mgrwt>
<rscale>  0 0.29259605E+03</rscale>
<asrwt>0</asrwt>
<pdfrwt beam="1">  1        1 0.10033269E+00 0.29259605E+03</pdfrwt>
<pdfrwt beam="2">  1       -1 0.50490278E-02 0.29259605E+03</pdfrwt>
<totfact> 0.54141715E+03</totfact>
</mgrwt>
</event>
<event>
 9    1  0.7944303E-001  0.2796921E+03  0.7818608E-02  0.1095857E+00
          2   -1    0    0  501    0  0.00000000000E+00  0.00000000000E+00  0.80863659378E+03  0.80863659378E+03  0.00000000000E+00 0.  1.
         -2   -1    0    0    0  501 -0.00000000000E+00 -0.00000000000E+00 -0.24185051847E+02  0.24185051847E+02  0.00000000000E+00 0.  1.
         35    2    1    2    0    0  0.71054273576E-14  0.53290705182E-14  0.78445154194E+03  0.83282164563E+03  0.27969210176E+03 0.  0.
         25    2    3    3    0    0 -0.55158496950E+02 -0.29314169641E+01  0.30258536322E+03  0.33194995521E+03  0.12482715144E+03 0.  0.
         25    2    3    3    0    0  0.55158496950E+02  0.29314169641E+01  0.48186617872E+03  0.50087169042E+03  0.12500553221E+03 0.  0.
          5    1    4    4  502    0  0.27554191708E+02 -0.15259635952E+02  0.20939594012E+02  0.38113600820E+02  0.47000000000E+01 0. -1.
         -5    1    4    4    0  502 -0.82712688658E+02  0.12328218988E+02  0.28164576921E+03  0.29383635439E+03  0.47000000000E+01 0. -1.
          5    1    5    5  503    0  0.12255765369E+02  0.58311832686E+02  0.30055294039E+03  0.30643862941E+03  0.47000000000E+01 0.  1.
         -5    1    5    5    0  503  0.42902731581E+02 -0.55380415722E+02  0.18131323832E+03  0.19443306101E+03  0.47000000000E+01 0.  1.
<mgrwt>
<rscale>  0 0.27969210E+03</rscale>
<asrwt>0</asrwt>
<pdfrwt beam="1">  1        2 0.12440561E+00 0.27969210E+03</pdfrwt>
<pdfrwt beam="2">  1       -2 0.37207778E-02 0.27969210E+03</pdfrwt>
<totfact> 0.10698836E+04</totfact>
</mgrwt>
</event>
<event>
 9    1  0.7944303E-001  0.2754341E+03  0.7818608E-02  0.1098209E+00
         -4   -1    0    0    0  501 -0.00000000000E+00  0.00000000000E+00  0.24883487537E+03  0.24883487537E+03  0.00000000000E+00 0.  1.
          4   -1    0    0  501    0  0.00000000000E+00 -0.00000000000E+00 -0.76219144991E+02  0.76219144991E+02  0.00000000000E+00 0.  1.
         35    2    1    2    0    0 -0.35527136788E-14  0.71054273576E-14  0.17261573038E+03  0.32505402036E+03  0.27543406793E+03 0.  0.
         25    2    3    3    0    0 -0.19915781135E+02  0.33477509456E+02  0.35724716247E+02  0.13561766578E+03  0.12489401083E+03 0.  0.
         25    2    3    3    0    0  0.19915781135E+02 -0.33477509456E+02  0.13689101413E+03  0.18943635458E+03  0.12501840149E+03 0.  0.
          5    1    4    4  502    0 -0.46926197900E+02  0.55867218684E+02 -0.14140296631E+02  0.74466449906E+02  0.47000000000E+01 0. -1.
         -5    1    4    4    0  502  0.27010416765E+02 -0.22389709228E+02  0.49865012878E+02  0.61151215871E+02  0.47000000000E+01 0. -1.
          5    1    5    5  503    0  0.10669844276E+01  0.33335434904E+02 -0.23650240051E+01  0.33764967267E+02  0.47000000000E+01 0. -1.
         -5    1    5    5    0  503  0.18848796707E+02 -0.66812944360E+02  0.13925603813E+03  0.15567138731E+03  0.47000000000E+01 0. -1.
<mgrwt>
<rscale>  0 0.27543407E+03</rscale>
<asrwt>0</asrwt>
<pdfrwt beam="1">  1        4 0.11726022E-01 0.27543407E+03</pdfrwt>
<pdfrwt beam="2">  1       -4 0.38282288E-01 0.27543407E+03</pdfrwt>
<totfact> 0.71930455E+02</totfact>
</mgrwt>
</event>
<event>
 9    1  0.7944303E-001  0.2755380E+03  0.7818608E-02  0.1098151E+00
         -1   -1    0    0    0  501 -0.00000000000E+00  0.00000000000E+00  0.15967869979E+03  0.15967869979E+03  0.00000000000E+00 0. -1.
          1   -1    0    0  501    0  0.00000000000E+00 -0.00000000000E+00 -0.11886551830E+03  0.11886551830E+03  0.00000000000E+00 0. -1.
         35    2    1    2    0    0  0.00000000000E+00 -0.14210854715E-13  0.40813181498E+02  0.27854421809E+03  0.27553795682E+03 0.  0.
         25    2    3    3    0    0  0.42776461661E+02 -0.35380771701E+02  0.44666985001E+02  0.14300466890E+03  0.12399020566E+03 0.  0.
         25    2    3    3    0    0 -0.42776461661E+02  0.35380771701E+02 -0.38538035032E+01  0.13553954919E+03  0.12359001948E+03 0.  0.
          5    1    4    4  502    0  0.58759274527E+02 -0.67191910152E+02  0.55845504378E+02  0.10539551932E+03  0.47000000000E+01 0. -1.
         -5    1    4    4    0  502 -0.15982812867E+02  0.31811138452E+02 -0.11178519377E+02  0.37609149581E+02  0.47000000000E+01 0. -1.
          5    1    5    5  503    0 -0.50239951878E+02 -0.26990829354E+02 -0.33079687741E+02  0.66097756203E+02  0.47000000000E+01 0. -1.
         -5    1    5    5    0  503  0.74634902179E+01  0.62371601055E+02  0.29225884238E+02  0.69441792991E+02  0.47000000000E+01 0. -1.
<mgrwt>
<rscale>  0 0.27553796E+03</rscale>
<asrwt>0</asrwt>
<pdfrwt beam="1">  1        1 0.18287003E-01 0.27553796E+03</pdfrwt>
<pdfrwt beam="2">  1       -1 0.24565954E-01 0.27553796E+03</pdfrwt>
<totfact> 0.40916765E+03</totfact>
</mgrwt>
</event>
<event>
 9    1  0.7944303E-001  0.2763032E+03  0.7818608E-02  0.1097725E+00
          1   -1    0    0  501    0  0.00000000000E+00  0.00000000000E+00  0.11227945668E+03  0.11227945668E+03  0.00000000000E+00 0.  1.
         -1   -1    0    0    0  501 -0.00000000000E+00 -0.00000000000E+00 -0.16998532899E+03  0.16998532899E+03  0.00000000000E+00 0.  1.
         35    2    1    2    0    0  0.00000000000E+00 -0.35527136788E-14 -0.57705872307E+02  0.28226478567E+03  0.27630316960E+03 0.  0.
         25    2    3    3    0    0  0.29415262238E+02  0.30646054567E+02 -0.71803436512E+02  0.15053883149E+03  0.12530669566E+03 0.  0.
         25    2    3    3    0    0 -0.29415262238E+02 -0.30646054567E+02  0.14097564205E+02  0.13172595418E+03  0.12388925448E+03 0.  0.
          5    1    4    4  502    0  0.65894062754E+01  0.73129291598E+02 -0.13628920109E+02  0.74827475088E+02  0.47000000000E+01 0. -1.
         -5    1    4    4    0  502  0.22825855963E+02 -0.42483237031E+02 -0.58174516403E+02  0.75711356399E+02  0.47000000000E+01 0. -1.
          5    1    5    5  503    0 -0.46632462328E+02  0.11803108362E+02  0.52794532418E+02  0.71576899646E+02  0.47000000000E+01 0.  1.
         -5    1    5    5    0  503  0.17217200089E+02 -0.42449162929E+02 -0.38696968213E+02  0.60149054533E+02  0.47000000000E+01 0.  1.
<mgrwt>
<rscale>  0 0.27630317E+03</rscale>
<asrwt>0</asrwt>
<pdfrwt beam="1">  1        1 0.17273762E-01 0.27630317E+03</pdfrwt>
<pdfrwt beam="2">  1       -1 0.26151589E-01 0.27630317E+03</pdfrwt>
<totfact> 0.39703136E+03</totfact>
</mgrwt>
</event>
<event>
 9    1  0.7944303E-001  0.2708329E+03  0.7818608E-02  0.1100804E+00
          2   -1    0    0  501    0  0.00000000000E+00  0.00000000000E+00  0.84065427393E+02  0.84065427393E+02  0.00000000000E+00 0. -1.
         -2   -1    0    0    0  501 -0.00000000000E+00 -0.00000000000E+00 -0.21813500410E+03  0.21813500410E+03  0.00000000000E+00 0. -1.
         35    2    1    2    0    0 -0.35527136788E-14  0.00000000000E+00 -0.13406957671E+03  0.30220043149E+03  0.27083288094E+03 0.  0.
         25    2    3    3    0    0  0.22203076242E+02 -0.35885943802E+02 -0.31940899072E+02  0.13562585589E+03  0.12487343270E+03 0.  0.
         25    2    3    3    0    0 -0.22203076242E+02  0.35885943802E+02 -0.10212867763E+03  0.16657457561E+03  0.12464367166E+03 0.  0.
          5    1    4    4  502    0  0.45277037932E+02 -0.89714503018E+01 -0.69629360946E+02  0.83670992525E+02  0.47000000000E+01 0. -1.
         -5    1    4    4    0  502 -0.23073961690E+02 -0.26914493500E+02  0.37688461874E+02  0.51954863361E+02  0.47000000000E+01 0. -1.
          5    1    5    5  503    0  0.36106574673E+02  0.58423877587E+02 -0.56001200986E+02  0.88742654450E+02  0.47000000000E+01 0. -1.
         -5    1    5    5    0  503 -0.58309650914E+02 -0.22537933785E+02 -0.46127476647E+02  0.77831921156E+02  0.47000000000E+01 0. -1.
<mgrwt>
<rscale>  0 0.27083288E+03</rscale>
<asrwt>0</asrwt>
<pdfrwt beam="1">  1        2 0.12933143E-01 0.27083288E+03</pdfrwt>
<pdfrwt beam="2">  1       -2 0.33559231E-01 0.27083288E+03</pdfrwt>
<totfact> 0.38512377E+03</totfact>
</mgrwt>
</event>
<event>
 9    1  0.7944303E-001  0.2772151E+03  0.7818608E-02  0.1097220E+00
          1   -1    0    0  501    0  0.00000000000E+00  0.00000000000E+00  0.14449627175E+04  0.14449627175E+04  0.00000000000E+00 0.  1.
         -1   -1    0    0    0  501 -0.00000000000E+00 -0.00000000000E+00 -0.13295884780E+02  0.13295884780E+02  0.00000000000E+00 0.  1.
         35    2    1    2    0    0  0.00000000000E+00  0.71054273576E-14  0.14316668327E+04  0.14582586023E+04  0.27721513525E+03 0.  0.
         25    2    3    3    0    0 -0.44484978561E+00  0.39648897649E+02  0.47649327823E+03  0.49412766564E+03  0.12467587088E+03 0.  0.
         25    2    3    3    0    0  0.44484978561E+00 -0.39648897649E+02  0.95517355449E+03  0.96413093663E+03  0.12497884144E+03 0.  0.
          5    1    4    4  502    0  0.57249157455E+02  0.33030646552E+02  0.32774680370E+03  0.33437785061E+03  0.47000000000E+01 0. -1.
         -5    1    4    4    0  502 -0.57694007240E+02  0.66182510969E+01  0.14874647453E+03  0.15974981504E+03  0.47000000000E+01 0. -1.
          5    1    5    5  503    0 -0.45896115410E+02 -0.27669572346E+01  0.72301198793E+03  0.72448777364E+03  0.47000000000E+01 0.  1.
         -5    1    5    5    0  503  0.46340965196E+02 -0.36881940415E+02  0.23216156655E+03  0.23964316299E+03  0.47000000000E+01 0.  1.
<mgrwt>
<rscale>  0 0.27721514E+03</rscale>
<asrwt>0</asrwt>
<pdfrwt beam="1">  1        1 0.22230183E+00 0.27721514E+03</pdfrwt>
<pdfrwt beam="2">  1       -1 0.20455219E-02 0.27721514E+03</pdfrwt>
<totfact> 0.51664927E+03</totfact>
</mgrwt>
</event>
<event>
 9    1  0.7944303E-001  0.2736368E+03  0.7818608E-02  0.1099216E+00
          2   -1    0    0  501    0  0.00000000000E+00  0.00000000000E+00  0.22422336471E+03  0.22422336471E+03  0.00000000000E+00 0. -1.
         -2   -1    0    0    0  501 -0.00000000000E+00 -0.00000000000E+00 -0.83484916217E+02  0.83484916217E+02  0.00000000000E+00 0. -1.
         35    2    1    2    0    0  0.71054273576E-14  0.00000000000E+00  0.14073844850E+03  0.30770828093E+03  0.27363675789E+03 0.  0.
         25    2    3    3    0    0 -0.17399493427E+02  0.40961447326E+01  0.12675492960E+02  0.12681071644E+03  0.12490303803E+03 0.  0.
         25    2    3    3    0    0  0.17399493427E+02 -0.40961447326E+01  0.12806295554E+03  0.18089756449E+03  0.12650805305E+03 0.  0.
          5    1    4    4  502    0  0.34171046079E+02 -0.23375558204E+02  0.43789018412E+02  0.60445390602E+02  0.47000000000E+01 0.  1.
         -5    1    4    4    0  502 -0.51570539507E+02  0.27471702937E+02 -0.31113525452E+02  0.66365325836E+02  0.47000000000E+01 0.  1.
          5    1    5    5  503    0 -0.21778607185E+02 -0.39599360990E+02  0.11856678107E+03  0.12697475613E+03  0.47000000000E+01 0.  1.
         -5    1    5    5    0  503  0.39178100612E+02  0.35503216257E+02  0.94961744696E+01  0.53922808363E+02  0.47000000000E+01 0.  1.
<mgrwt>
<rscale>  0 0.27363676E+03</rscale>
<asrwt>0</asrwt>
<pdfrwt beam="1">  1        2 0.34495902E-01 0.27363676E+03</pdfrwt>
<pdfrwt beam="2">  1       -2 0.12843833E-01 0.27363676E+03</pdfrwt>
<totfact> 0.65964551E+03</totfact>
</mgrwt>
</event>
<event>
 9    1  0.7944303E-001  0.2778865E+03  0.7818608E-02  0.1096849E+00
          3   -1    0    0  501    0  0.00000000000E+00  0.00000000000E+00  0.29677982504E+03  0.29677982504E+03  0.00000000000E+00 0. -1.
         -3   -1    0    0    0  501 -0.00000000000E+00 -0.00000000000E+00 -0.65048985431E+02  0.65048985431E+02  0.00000000000E+00 0. -1.
         35    2    1    2    0    0  0.35527136788E-14  0.71054273576E-14  0.23173083961E+03  0.36182881048E+03  0.27788649852E+03 0.  0.
         25    2    3    3    0    0 -0.99043248325E+01  0.54620123557E+02  0.14945886972E+03  0.20229945676E+03  0.12452173673E+03 0.  0.
         25    2    3    3    0    0  0.99043248325E+01 -0.54620123557E+02  0.82271969895E+02  0.15952935372E+03  0.12489789478E+03 0.  0.
          5    1    4    4  502    0 -0.34236354774E+02  0.61419883549E+02  0.24325023684E+02  0.74554187412E+02  0.47000000000E+01 0.  1.
         -5    1    4    4    0  502  0.24332029941E+02 -0.67997599924E+01  0.12513384603E+03  0.12774526935E+03  0.47000000000E+01 0.  1.
          5    1    5    5  503    0 -0.11826173317E+02 -0.91421816910E+02  0.66366461157E+02  0.11368554943E+03  0.47000000000E+01 0. -1.
         -5    1    5    5    0  503  0.21730498149E+02  0.36801693353E+02  0.15905508737E+02  0.45843804289E+02  0.47000000000E+01 0. -1.
<mgrwt>
<rscale>  0 0.27788650E+03</rscale>
<asrwt>0</asrwt>
<pdfrwt beam="1">  1        3 0.45658434E-01 0.27788650E+03</pdfrwt>
<pdfrwt beam="2">  1       -3 0.10007536E-01 0.27788650E+03</pdfrwt>
<totfact> 0.89868666E+02</totfact>
</mgrwt>
</event>
<event>
 9    1  0.7944303E-001  0.2779113E+03  0.7818608E-02  0.1096835E+00
          1   -1    0    0  501    0  0.00000000000E+00  0.00000000000E+00  0.34816615095E+02  0.34816615095E+02  0.00000000000E+00 0. -1.
         -1   -1    0    0    0  501 -0.00000000000E+00 -0.00000000000E+00 -0.55458214406E+03  0.55458214406E+03  0.00000000000E+00 0. -1.
         35    2    1    2    0    0  0.00000000000E+00 -0.17763568394E-14 -0.51976552897E+03  0.58939875916E+03  0.27791130275E+03 0.  0.
         25    2    3    3    0    0  0.57317654967E+02 -0.28495863322E+01 -0.27540275487E+03  0.30889672651E+03  0.12758164658E+03 0.  0.
         25    2    3    3    0    0 -0.57317654967E+02  0.28495863322E+01 -0.24436277410E+03  0.28050203265E+03  0.12519900656E+03 0.  0.
          5    1    4    4  502    0 -0.32804382482E+01  0.50190151060E+02 -0.57485351810E+02  0.76527565042E+02  0.47000000000E+01 0. -1.
         -5    1    4    4    0  502  0.60598093215E+02 -0.53039737392E+02 -0.21791740306E+03  0.23236916147E+03  0.47000000000E+01 0. -1.
          5    1    5    5  503    0 -0.89354435606E+02 -0.92476960650E+01 -0.11174176687E+03  0.14345050543E+03  0.47000000000E+01 0.  1.
         -5    1    5    5    0  503  0.32036780639E+02  0.12097282397E+02 -0.13262100723E+03  0.13705152722E+03  0.47000000000E+01 0.  1.
<mgrwt>
<rscale>  0 0.27791130E+03</rscale>
<asrwt>0</asrwt>
<pdfrwt beam="1">  1        1 0.53564024E-02 0.27791130E+03</pdfrwt>
<pdfrwt beam="2">  1       -1 0.85320328E-01 0.27791130E+03</pdfrwt>
<totfact> 0.21518952E+03</totfact>
</mgrwt>
</event>
<event>
 9    1  0.7944303E-001  0.2756111E+03  0.7818608E-02  0.1098111E+00
         -2   -1    0    0    0  501 -0.00000000000E+00  0.00000000000E+00  0.51913743979E+02  0.51913743979E+02  0.00000000000E+00 0. -1.
          2   -1    0    0  501    0  0.00000000000E+00 -0.00000000000E+00 -0.36580617287E+03  0.36580617287E+03  0.00000000000E+00 0. -1.
         35    2    1    2    0    0  0.00000000000E+00 -0.71054273576E-14 -0.31389242889E+03  0.41771991684E+03  0.27561108834E+03 0.  0.
         25    2    3    3    0    0 -0.22381606529E+01  0.22922534154E+02 -0.24578769690E+03  0.27364223981E+03  0.11805944064E+03 0.  0.
         25    2    3    3    0    0  0.22381606529E+01 -0.22922534154E+02 -0.68104731983E+02  0.14407767704E+03  0.12485860229E+03 0.  0.
          5    1    4    4  502    0  0.46834024964E+02 -0.23395336568E+02 -0.10256084727E+03  0.11524575940E+03  0.47000000000E+01 0. -1.
         -5    1    4    4    0  502 -0.49072185617E+02  0.46317870722E+02 -0.14322684963E+03  0.15839648041E+03  0.47000000000E+01 0. -1.
          5    1    5    5  503    0 -0.25124631928E+02 -0.65083089220E+02 -0.16407463999E+02  0.71821657644E+02  0.47000000000E+01 0.  1.
         -5    1    5    5    0  503  0.27362792581E+02  0.42160555065E+02 -0.51697267984E+02  0.72256019391E+02  0.47000000000E+01 0.  1.
<mgrwt>
<rscale>  0 0.27561109E+03</rscale>
<asrwt>0</asrwt>
<pdfrwt beam="1">  1        2 0.56277871E-01 0.27561109E+03</pdfrwt>
<pdfrwt beam="2">  1       -2 0.79867302E-02 0.27561109E+03</pdfrwt>
<totfact> 0.82905144E+03</totfact>
</mgrwt>
</event>
<event>
 9    1  0.7944303E-001  0.2725440E+03  0.7818608E-02  0.1099832E+00
          2   -1    0    0  501    0  0.00000000000E+00  0.00000000000E+00  0.59731014925E+03  0.59731014925E+03  0.00000000000E+00 0. -1.
         -2   -1    0    0    0  501 -0.00000000000E+00 -0.00000000000E+00 -0.31089473151E+02  0.31089473151E+02  0.00000000000E+00 0. -1.
         35    2    1    2    0    0  0.71054273576E-14  0.71054273576E-14  0.56622067610E+03  0.62839962241E+03  0.27254399900E+03 0.  0.
         25    2    3    3    0    0 -0.38108516458E+02 -0.40649166967E+02  0.25736636879E+03  0.29048770211E+03  0.12264193204E+03 0.  0.
         25    2    3    3    0    0  0.38108516458E+02  0.40649166967E+02  0.30885430732E+03  0.33791192029E+03  0.12525521516E+03 0.  0.
          5    1    4    4  502    0  0.15960078505E+02 -0.10491294181E+02 -0.54713575168E+01  0.20416099347E+02  0.47000000000E+01 0. -1.
         -5    1    4    4    0  502 -0.54068594964E+02 -0.30157872786E+02  0.26283772630E+03  0.27007160277E+03  0.47000000000E+01 0. -1.
          5    1    5    5  503    0  0.25276635904E+02  0.16198201344E+02  0.27308510943E+01  0.30509631218E+02  0.47000000000E+01 0.  1.
         -5    1    5    5    0  503  0.12831880555E+02  0.24450965623E+02  0.30612345622E+03  0.30740228907E+03  0.47000000000E+01 0.  1.
<mgrwt>
<rscale>  0 0.27254400E+03</rscale>
<asrwt>0</asrwt>
<pdfrwt beam="1">  1        2 0.91893861E-01 0.27254400E+03</pdfrwt>
<pdfrwt beam="2">  1       -2 0.47829963E-02 0.27254400E+03</pdfrwt>
<totfact> 0.10571512E+04</totfact>
</mgrwt>
</event>
<event>
 9    1  0.7944303E-001  0.2754707E+03  0.7818608E-02  0.1098189E+00
          1   -1    0    0  501    0  0.00000000000E+00  0.00000000000E+00  0.27683731850E+03  0.27683731850E+03  0.00000000000E+00 0.  1.
         -1   -1    0    0    0  501 -0.00000000000E+00 -0.00000000000E+00 -0.68527692687E+02  0.68527692687E+02  0.00000000000E+00 0.  1.
         35    2    1    2    0    0 -0.71054273576E-14 -0.71054273576E-14  0.20830962582E+03  0.34536501119E+03  0.27547067130E+03 0.  0.
         25    2    3    3    0    0  0.54979071112E+02  0.11734585991E+02  0.10619494783E+03  0.17436949334E+03  0.12636041507E+03 0.  0.
         25    2    3    3    0    0 -0.54979071112E+02 -0.11734585991E+02  0.10211467799E+03  0.17099551785E+03  0.12510659813E+03 0.  0.
          5    1    4    4  502    0  0.59407233538E+02 -0.47697984637E+02  0.74687719522E+02  0.10679261483E+03  0.47000000000E+01 0.  1.
         -5    1    4    4    0  502 -0.44281624255E+01  0.59432570629E+02  0.31507228308E+02  0.67576878514E+02  0.47000000000E+01 0.  1.
          5    1    5    5  503    0 -0.30376622576E+02  0.40770281212E+02  0.10058464754E+03  0.11280211146E+03  0.47000000000E+01 0.  1.
         -5    1    5    5    0  503 -0.24602448536E+02 -0.52504867203E+02  0.15300304507E+01  0.58193406389E+02  0.47000000000E+01 0.  1.
<mgrwt>
<rscale>  0 0.27547067E+03</rscale>
<asrwt>0</asrwt>
<pdfrwt beam="1">  1        1 0.42590356E-01 0.27547067E+03</pdfrwt>
<pdfrwt beam="2">  1       -1 0.10542722E-01 0.27547067E+03</pdfrwt>
<totfact> 0.54103234E+03</totfact>
</mgrwt>
</event>
<event>
 9    1  0.7944303E-001  0.2768850E+03  0.7818608E-02  0.1097403E+00
          2   -1    0    0  501    0  0.00000000000E+00  0.00000000000E+00  0.78546298342E+03  0.78546298342E+03  0.00000000000E+00 0.  1.
         -2   -1    0    0    0  501 -0.00000000000E+00 -0.00000000000E+00 -0.24401312219E+02  0.24401312219E+02  0.00000000000E+00 0.  1.
         35    2    1    2    0    0  0.00000000000E+00  0.00000000000E+00  0.76106167121E+03  0.80986429564E+03  0.27688501220E+03 0.  0.
         25    2    3    3    0    0 -0.73827118260E+01  0.35911346478E+02  0.51804562499E+03  0.53412438859E+03  0.12479368442E+03 0.  0.
         25    2    3    3    0    0  0.73827118260E+01 -0.35911346478E+02  0.24301604621E+03  0.27573990706E+03  0.12502627079E+03 0.  0.
          5    1    4    4  502    0 -0.31927910129E+02  0.71582514298E+02  0.23559853966E+03  0.24833890087E+03  0.47000000000E+01 0.  1.
         -5    1    4    4    0  502  0.24545198303E+02 -0.35671167819E+02  0.28244708534E+03  0.28578548772E+03  0.47000000000E+01 0.  1.
          5    1    5    5  503    0 -0.42690749640E+02 -0.57152862645E+02  0.17120338707E+03  0.18553069707E+03  0.47000000000E+01 0. -1.
         -5    1    5    5    0  503  0.50073461466E+02  0.21241516166E+02  0.71812659145E+02  0.90209209983E+02  0.47000000000E+01 0. -1.
<mgrwt>
<rscale>  0 0.27688501E+03</rscale>
<asrwt>0</asrwt>
<pdfrwt beam="1">  1        2 0.12084044E+00 0.27688501E+03</pdfrwt>
<pdfrwt beam="2">  1       -2 0.37540486E-02 0.27688501E+03</pdfrwt>
<totfact> 0.10950743E+04</totfact>
</mgrwt>
</event>
<event>
 9    1  0.7944303E-001  0.2776713E+03  0.7818608E-02  0.1096968E+00
         -2   -1    0    0    0  501 -0.00000000000E+00  0.00000000000E+00  0.90824499196E+02  0.90824499196E+02  0.00000000000E+00 0.  1.
          2   -1    0    0  501    0  0.00000000000E+00 -0.00000000000E+00 -0.21222621458E+03  0.21222621458E+03  0.00000000000E+00 0.  1.
         35    2    1    2    0    0  0.00000000000E+00  0.00000000000E+00 -0.12140171539E+03  0.30305071378E+03  0.27767131401E+03 0.  0.
         25    2    3    3    0    0  0.45183310626E+02 -0.38466115154E+02 -0.68524232475E+02  0.15440635214E+03  0.12499831027E+03 0.  0.
         25    2    3    3    0    0 -0.45183310626E+02  0.38466115154E+02 -0.52877482910E+02  0.14864436163E+03  0.12561028808E+03 0.  0.
          5    1    4    4  502    0  0.52030933762E+02 -0.50494420944E+02  0.11057566640E+02  0.73493294895E+02  0.47000000000E+01 0. -1.
         -5    1    4    4    0  502 -0.68476231355E+01  0.12028305789E+02 -0.79581799115E+02  0.80913057248E+02  0.47000000000E+01 0. -1.
          5    1    5    5  503    0  0.31822417357E+02 -0.22943909354E+02 -0.22480686861E+02  0.45459438014E+02  0.47000000000E+01 0.  1.
         -5    1    5    5    0  503 -0.77005727983E+02  0.61410024508E+02 -0.30396796049E+02  0.10318492362E+03  0.47000000000E+01 0.  1.
<mgrwt>
<rscale>  0 0.27767131E+03</rscale>
<asrwt>0</asrwt>
<pdfrwt beam="1">  1        2 0.32650187E-01 0.27767131E+03</pdfrwt>
<pdfrwt beam="2">  1       -2 0.13973000E-01 0.27767131E+03</pdfrwt>
<totfact> 0.61065008E+03</totfact>
</mgrwt>
</event>
<event>
 9    1  0.7944303E-001  0.2757269E+03  0.7818608E-02  0.1098046E+00
          2   -1    0    0  501    0  0.00000000000E+00  0.00000000000E+00  0.25535594296E+03  0.25535594296E+03  0.00000000000E+00 0.  1.
         -2   -1    0    0    0  501 -0.00000000000E+00 -0.00000000000E+00 -0.74430737688E+02  0.74430737688E+02  0.00000000000E+00 0.  1.
         35    2    1    2    0    0  0.00000000000E+00 -0.35527136788E-14  0.18092520528E+03  0.32978668065E+03  0.27572690262E+03 0.  0.
         25    2    3    3    0    0 -0.49292428607E+02  0.15124822074E+02  0.11232312529E+03  0.17591310411E+03  0.12518159593E+03 0.  0.
         25    2    3    3    0    0  0.49292428607E+02 -0.15124822074E+02  0.68602079983E+02  0.15387357655E+03  0.12771972604E+03 0.  0.
          5    1    4    4  502    0 -0.45030446053E+02  0.33956196290E+00 -0.14908913693E+02  0.47667830678E+02  0.47000000000E+01 0. -1.
         -5    1    4    4    0  502 -0.42619825540E+01  0.14785260111E+02  0.12723203899E+03  0.12824527343E+03  0.47000000000E+01 0. -1.
          5    1    5    5  503    0  0.62659826986E+02  0.31424187482E+02  0.77287055878E+02  0.10444669685E+03  0.47000000000E+01 0.  1.
         -5    1    5    5    0  503 -0.13367398379E+02 -0.46549009556E+02 -0.86849758947E+01  0.49426879695E+02  0.47000000000E+01 0.  1.
<mgrwt>
<rscale>  0 0.27572690E+03</rscale>
<asrwt>0</asrwt>
<pdfrwt beam="1">  1        2 0.39285529E-01 0.27572690E+03</pdfrwt>
<pdfrwt beam="2">  1       -2 0.11450883E-01 0.27572690E+03</pdfrwt>
<totfact> 0.69002053E+03</totfact>
</mgrwt>
</event>
<event>
 9    1  0.7944303E-001  0.2757246E+03  0.7818608E-02  0.1098047E+00
         -1   -1    0    0    0  501 -0.00000000000E+00  0.00000000000E+00  0.68293711122E+02  0.68293711122E+02  0.00000000000E+00 0. -1.
          1   -1    0    0  501    0  0.00000000000E+00 -0.00000000000E+00 -0.27829806243E+03  0.27829806243E+03  0.00000000000E+00 0. -1.
         35    2    1    2    0    0  0.88817841970E-15  0.00000000000E+00 -0.21000435131E+03  0.34659177355E+03  0.27572455445E+03 0.  0.
         25    2    3    3    0    0 -0.45632152525E+01 -0.35048571370E+01 -0.31967827413E+02  0.12909829559E+03  0.12494527193E+03 0.  0.
         25    2    3    3    0    0  0.45632152525E+01  0.35048571370E+01 -0.17803652389E+03  0.21749347796E+03  0.12479303729E+03 0.  0.
          5    1    4    4  502    0 -0.88147925294E+00 -0.11680485256E+02 -0.79502213906E+02  0.80497843185E+02  0.47000000000E+01 0.  1.
         -5    1    4    4    0  502 -0.36817359996E+01  0.81756281190E+01  0.47534386493E+02  0.48600452409E+02  0.47000000000E+01 0.  1.
          5    1    5    5  503    0 -0.59287889075E+02 -0.56927755250E+01 -0.95215519005E+02  0.11240794698E+03  0.47000000000E+01 0.  1.
         -5    1    5    5    0  503  0.63851104327E+02  0.91976326620E+01 -0.82821004890E+02  0.10508553098E+03  0.47000000000E+01 0.  1.
<mgrwt>
<rscale>  0 0.27572455E+03</rscale>
<asrwt>0</asrwt>
<pdfrwt beam="1">  1        1 0.42815086E-01 0.27572455E+03</pdfrwt>
<pdfrwt beam="2">  1       -1 0.10506725E-01 0.27572455E+03</pdfrwt>
<totfact> 0.54034332E+03</totfact>
</mgrwt>
</event>
<event>
 9    1  0.7944303E-001  0.2733939E+03  0.7818608E-02  0.1099353E+00
         -1   -1    0    0    0  501 -0.00000000000E+00  0.00000000000E+00  0.22985692137E+02  0.22985692137E+02  0.00000000000E+00 0. -1.
          1   -1    0    0  501    0  0.00000000000E+00 -0.00000000000E+00 -0.81294298094E+03  0.81294298094E+03  0.00000000000E+00 0. -1.
         35    2    1    2    0    0 -0.71054273576E-14  0.35527136788E-14 -0.78995728880E+03  0.83592867308E+03  0.27339390692E+03 0.  0.
         25    2    3    3    0    0 -0.20061426279E+02  0.27364195080E+02 -0.51604179157E+03  0.53187250330E+03  0.12424962422E+03 0.  0.
         25    2    3    3    0    0  0.20061426279E+02 -0.27364195080E+02 -0.27391549723E+03  0.30405616978E+03  0.12755075367E+03 0.  0.
          5    1    4    4  502    0  0.43720355146E+02  0.48870680655E-01 -0.33602095896E+03  0.33888589039E+03  0.47000000000E+01 0. -1.
         -5    1    4    4    0  502 -0.63781781425E+02  0.27315324400E+02 -0.18002083261E+03  0.19298661291E+03  0.47000000000E+01 0. -1.
          5    1    5    5  503    0  0.31770383937E+02 -0.18958909462E+02 -0.28361621738E+03  0.28605776743E+03  0.47000000000E+01 0. -1.
         -5    1    5    5    0  503 -0.11708957658E+02 -0.84052856182E+01  0.97007201508E+01  0.17998402352E+02  0.47000000000E+01 0. -1.
<mgrwt>
<rscale>  0 0.27339391E+03</rscale>
<asrwt>0</asrwt>
<pdfrwt beam="1">  1        1 0.12506816E+00 0.27339391E+03</pdfrwt>
<pdfrwt beam="2">  1       -1 0.35362602E-02 0.27339391E+03</pdfrwt>
<totfact> 0.66274207E+03</totfact>
</mgrwt>
</event>
<event>
 9    1  0.7944303E-001  0.2769659E+03  0.7818608E-02  0.1097358E+00
          2   -1    0    0  501    0  0.00000000000E+00  0.00000000000E+00  0.48952090267E+03  0.48952090267E+03  0.00000000000E+00 0.  1.
         -2   -1    0    0    0  501 -0.00000000000E+00 -0.00000000000E+00 -0.39176110982E+02  0.39176110982E+02  0.00000000000E+00 0.  1.
         35    2    1    2    0    0  0.00000000000E+00  0.00000000000E+00  0.45034479169E+03  0.52869701365E+03  0.27696588390E+03 0.  0.
         25    2    3    3    0    0 -0.57092099890E+02 -0.13076400550E+02  0.24783401224E+03  0.28377921259E+03  0.12521359253E+03 0.  0.
         25    2    3    3    0    0  0.57092099890E+02  0.13076400550E+02  0.20251077945E+03  0.24491780106E+03  0.12467402842E+03 0.  0.
          5    1    4    4  502    0  0.24137790794E+02 -0.40760421454E+02  0.12589949934E+03  0.13459873266E+03  0.47000000000E+01 0.  1.
         -5    1    4    4    0  502 -0.81229890684E+02  0.27684020904E+02  0.12193451291E+03  0.14918047993E+03  0.47000000000E+01 0.  1.
          5    1    5    5  503    0  0.93912212727E+02  0.24889499337E+02  0.16011086106E+03  0.18734078228E+03  0.47000000000E+01 0. -1.
         -5    1    5    5    0  503 -0.36820112837E+02 -0.11813098787E+02  0.42399918384E+02  0.57577018777E+02  0.47000000000E+01 0. -1.
<mgrwt>
<rscale>  0 0.27696588E+03</rscale>
<asrwt>0</asrwt>
<pdfrwt beam="1">  1        2 0.75310904E-01 0.27696588E+03</pdfrwt>
<pdfrwt beam="2">  1       -2 0.60270943E-02 0.27696588E+03</pdfrwt>
<totfact> 0.93202622E+03</totfact>
</mgrwt>
</event>
<event>
 9    1  0.7944303E-001  0.2783559E+03  0.7818608E-02  0.1096590E+00
         -1   -1    0    0    0  501 -0.00000000000E+00  0.00000000000E+00  0.15071148838E+02  0.15071148838E+02  0.00000000000E+00 0. -1.
          1   -1    0    0  501    0  0.00000000000E+00 -0.00000000000E+00 -0.12852703965E+04  0.12852703965E+04  0.00000000000E+00 0. -1.
         35    2    1    2    0    0  0.00000000000E+00 -0.14210854715E-13 -0.12701992477E+04  0.13003415454E+04  0.27835589768E+03 0.  0.
         25    2    3    3    0    0 -0.48445736138E+02 -0.37515441807E+02 -0.66232213592E+03  0.67677809223E+03  0.12491427729E+03 0.  0.
         25    2    3    3    0    0  0.48445736138E+02  0.37515441807E+02 -0.60787711179E+03  0.62356345316E+03  0.12474934608E+03 0.  0.
          5    1    4    4  502    0 -0.26237455318E+02 -0.82793253897E+02 -0.46461155156E+03  0.47268288608E+03  0.47000000000E+01 0. -1.
         -5    1    4    4    0  502 -0.22208280820E+02  0.45277812090E+02 -0.19771058436E+03  0.20409520615E+03  0.47000000000E+01 0. -1.
          5    1    5    5  503    0  0.57524210891E+02 -0.31842393593E+02 -0.23098992478E+03  0.24021117422E+03  0.47000000000E+01 0. -1.
         -5    1    5    5    0  503 -0.90784747524E+01  0.69357835400E+02 -0.37688718701E+03  0.38335227894E+03  0.47000000000E+01 0. -1.
<mgrwt>
<rscale>  0 0.27835590E+03</rscale>
<asrwt>0</asrwt>
<pdfrwt beam="1">  1        1 0.19773391E+00 0.27835590E+03</pdfrwt>
<pdfrwt beam="2">  1       -1 0.23186383E-02 0.27835590E+03</pdfrwt>
<totfact> 0.55136275E+03</totfact>
</mgrwt>
</event>
<event>
 9    1  0.7944303E-001  0.2803460E+03  0.7818608E-02  0.1095500E+00
         -2   -1    0    0    0  501 -0.00000000000E+00  0.00000000000E+00  0.32500955198E+03  0.32500955198E+03  0.00000000000E+00 0.  1.
          2   -1    0    0  501    0  0.00000000000E+00 -0.00000000000E+00 -0.60455067293E+02  0.60455067293E+02  0.00000000000E+00 0.  1.
         35    2    1    2    0    0  0.00000000000E+00 -0.35527136788E-14  0.26455448469E+03  0.38546461928E+03  0.28034603144E+03 0.  0.
         25    2    3    3    0    0  0.73553524039E+02 -0.12015807937E+02  0.12999118774E+03  0.18804680179E+03  0.11361949760E+03 0.  0.
         25    2    3    3    0    0 -0.73553524039E+02  0.12015807937E+02  0.13456329695E+03  0.19741781749E+03  0.12374171987E+03 0.  0.
          5    1    4    4  502    0  0.57089680568E+02  0.36858067006E+02  0.27971180447E+02  0.73635763501E+02  0.47000000000E+01 0.  1.
         -5    1    4    4    0  502  0.16463843471E+02 -0.48873874943E+02  0.10202000730E+03  0.11441103829E+03  0.47000000000E+01 0.  1.
          5    1    5    5  503    0 -0.91245130483E+01 -0.83066226991E+01  0.12877425307E+03  0.12944943018E+03  0.47000000000E+01 0.  1.
         -5    1    5    5    0  503 -0.64429010991E+02  0.20322430636E+02  0.57890438735E+01  0.67968387307E+02  0.47000000000E+01 0.  1.
<mgrwt>
<rscale>  0 0.28034603E+03</rscale>
<asrwt>0</asrwt>
<pdfrwt beam="1">  1        2 0.93007797E-02 0.28034603E+03</pdfrwt>
<pdfrwt beam="2">  1       -2 0.50001469E-01 0.28034603E+03</pdfrwt>
<totfact> 0.26892908E+03</totfact>
</mgrwt>
</event>
<event>
 9    1  0.7944303E-001  0.2704482E+03  0.7818608E-02  0.1101023E+00
          1   -1    0    0  501    0  0.00000000000E+00  0.00000000000E+00  0.54639248223E+02  0.54639248223E+02  0.00000000000E+00 0. -1.
         -1   -1    0    0    0  501 -0.00000000000E+00 -0.00000000000E+00 -0.33465979446E+03  0.33465979446E+03  0.00000000000E+00 0. -1.
         35    2    1    2    0    0  0.35527136788E-14  0.35527136788E-14 -0.28002054623E+03  0.38929904268E+03  0.27044821744E+03 0.  0.
         25    2    3    3    0    0 -0.15308387472E+02 -0.29553731042E+02 -0.79783693127E+02  0.15168456534E+03  0.12463947982E+03 0.  0.
         25    2    3    3    0    0  0.15308387472E+02  0.29553731042E+02 -0.20023685311E+03  0.23761447734E+03  0.12352357164E+03 0.  0.
          5    1    4    4  502    0 -0.11208100188E+02  0.41488741149E+02 -0.66231466783E+02  0.79092568198E+02  0.47000000000E+01 0. -1.
         -5    1    4    4    0  502 -0.41002872849E+01 -0.71042472191E+02 -0.13552226344E+02  0.72591997146E+02  0.47000000000E+01 0. -1.
          5    1    5    5  503    0 -0.17173776594E+01 -0.29178378531E+02 -0.16342441081E+03  0.16608418109E+03  0.47000000000E+01 0.  1.
         -5    1    5    5    0  503  0.17025765132E+02  0.58732109573E+02 -0.36812442301E+02  0.71530296249E+02  0.47000000000E+01 0.  1.
<mgrwt>
<rscale>  0 0.27044822E+03</rscale>
<asrwt>0</asrwt>
<pdfrwt beam="1">  1        1 0.84060381E-02 0.27044822E+03</pdfrwt>
<pdfrwt beam="2">  1       -1 0.51486123E-01 0.27044822E+03</pdfrwt>
<totfact> 0.31465700E+03</totfact>
</mgrwt>
</event>
<event>
 9    1  0.7944303E-001  0.2732991E+03  0.7818608E-02  0.1099406E+00
         -1   -1    0    0    0  501 -0.00000000000E+00  0.00000000000E+00  0.40364869214E+02  0.40364869214E+02  0.00000000000E+00 0. -1.
          1   -1    0    0  501    0  0.00000000000E+00 -0.00000000000E+00 -0.46260761628E+03  0.46260761628E+03  0.00000000000E+00 0. -1.
         35    2    1    2    0    0  0.00000000000E+00 -0.35527136788E-14 -0.42224274707E+03  0.50297248550E+03  0.27329907375E+03 0.  0.
         25    2    3    3    0    0 -0.51181494642E+02 -0.10590406228E+02 -0.18984793249E+03  0.23431709425E+03  0.12700614587E+03 0.  0.
         25    2    3    3    0    0  0.51181494642E+02  0.10590406228E+02 -0.23239481458E+03  0.26865539125E+03  0.12424438541E+03 0.  0.
          5    1    4    4  502    0 -0.10427668644E+02  0.52580911572E+02 -0.12034237130E+03  0.13182512987E+03  0.47000000000E+01 0.  1.
         -5    1    4    4    0  502 -0.40753825998E+02 -0.63171317800E+02 -0.69505561195E+02  0.10249196438E+03  0.47000000000E+01 0.  1.
          5    1    5    5  503    0 -0.35542898440E+02  0.17866304105E+02 -0.11948127444E+03  0.12601732974E+03  0.47000000000E+01 0.  1.
         -5    1    5    5    0  503  0.86724393082E+02 -0.72758978770E+01 -0.11291354013E+03  0.14263806151E+03  0.47000000000E+01 0.  1.
<mgrwt>
<rscale>  0 0.27329907E+03</rscale>
<asrwt>0</asrwt>
<pdfrwt beam="1">  1        1 0.71170401E-01 0.27329907E+03</pdfrwt>
<pdfrwt beam="2">  1       -1 0.62099800E-02 0.27329907E+03</pdfrwt>
<totfact> 0.63168235E+03</totfact>
</mgrwt>
</event>
<event>
 9    1  0.7944303E-001  0.2733016E+03  0.7818608E-02  0.1099405E+00
          1   -1    0    0  501    0  0.00000000000E+00  0.00000000000E+00  0.16708425237E+04  0.16708425237E+04  0.00000000000E+00 0.  1.
         -1   -1    0    0    0  501 -0.00000000000E+00 -0.00000000000E+00 -0.11176065607E+02  0.11176065607E+02  0.00000000000E+00 0.  1.
         35    2    1    2    0    0  0.00000000000E+00  0.00000000000E+00  0.16596664581E+04  0.16820185893E+04  0.27330163310E+03 0.  0.
         25    2    3    3    0    0  0.44156865037E+02 -0.11822227056E+02  0.65455633168E+03  0.66811583127E+03  0.12587763451E+03 0.  0.
         25    2    3    3    0    0 -0.44156865037E+02  0.11822227056E+02  0.10051101264E+04  0.10139027581E+04  0.12515127947E+03 0.  0.
          5    1    4    4  502    0  0.65481418616E+01 -0.60117165048E+02  0.46315719129E+03  0.46711200535E+03  0.47000000000E+01 0. -1.
         -5    1    4    4    0  502  0.37608723175E+02  0.48294937992E+02  0.19139914039E+03  0.20100382593E+03  0.47000000000E+01 0. -1.
          5    1    5    5  503    0  0.20374439175E+02 -0.23095563091E+02  0.67436504491E+03  0.67508431074E+03  0.47000000000E+01 0.  1.
         -5    1    5    5    0  503 -0.64531304212E+02  0.34917790147E+02  0.33074508153E+03  0.33881844733E+03  0.47000000000E+01 0.  1.
<mgrwt>
<rscale>  0 0.27330163E+03</rscale>
<asrwt>0</asrwt>
<pdfrwt beam="1">  1        1 0.25705250E+00 0.27330163E+03</pdfrwt>
<pdfrwt beam="2">  1       -1 0.17193960E-02 0.27330163E+03</pdfrwt>
<totfact> 0.47243999E+03</totfact>
</mgrwt>
</event>
<event>
 9    1  0.7944303E-001  0.2668135E+03  0.7818608E-02  0.1103117E+00
          1   -1    0    0  501    0  0.00000000000E+00  0.00000000000E+00  0.72350096679E+03  0.72350096679E+03  0.00000000000E+00 0.  1.
         -1   -1    0    0    0  501 -0.00000000000E+00 -0.00000000000E+00 -0.24598940397E+02  0.24598940397E+02  0.00000000000E+00 0.  1.
         35    2    1    2    0    0 -0.71054273576E-14  0.00000000000E+00  0.69890202639E+03  0.74809990719E+03  0.26681347162E+03 0.  0.
         25    2    3    3    0    0  0.15146106347E+02  0.28896179321E+02  0.25658233802E+03  0.28769575762E+03  0.12597602569E+03 0.  0.
         25    2    3    3    0    0 -0.15146106347E+02 -0.28896179321E+02  0.44231968837E+03  0.46040414957E+03  0.12353493637E+03 0.  0.
          5    1    4    4  502    0 -0.48212666162E+02  0.26729945352E+02  0.62512555489E+02  0.83479702627E+02  0.47000000000E+01 0. -1.
         -5    1    4    4    0  502  0.63358772509E+02  0.21662339690E+01  0.19406978253E+03  0.20421605499E+03  0.47000000000E+01 0. -1.
          5    1    5    5  503    0 -0.48865155301E+02  0.30227968973E+02  0.16377361004E+03  0.17362436135E+03  0.47000000000E+01 0.  1.
         -5    1    5    5    0  503  0.33719048954E+02 -0.59124148294E+02  0.27854607833E+03  0.28677978822E+03  0.47000000000E+01 0.  1.
<mgrwt>
<rscale>  0 0.26681347E+03</rscale>
<asrwt>0</asrwt>
<pdfrwt beam="1">  1        1 0.11130782E+00 0.26681347E+03</pdfrwt>
<pdfrwt beam="2">  1       -1 0.37844529E-02 0.26681347E+03</pdfrwt>
<totfact> 0.71434037E+03</totfact>
</mgrwt>
</event>
<event>
 9    1  0.7944303E-001  0.2742453E+03  0.7818608E-02  0.1098874E+00
         -2   -1    0    0    0  501 -0.00000000000E+00  0.00000000000E+00  0.18157615405E+02  0.18157615405E+02  0.00000000000E+00 0.  1.
          2   -1    0    0  501    0  0.00000000000E+00 -0.00000000000E+00 -0.10355227282E+04  0.10355227282E+04  0.00000000000E+00 0.  1.
         35    2    1    2    0    0  0.00000000000E+00  0.00000000000E+00 -0.10173651128E+04  0.10536803436E+04  0.27424531676E+03 0.  0.
         25    2    3    3    0    0 -0.22878417010E+02 -0.53708861906E+01 -0.30105761496E+03  0.32623469107E+03  0.12345492192E+03 0.  0.
         25    2    3    3    0    0  0.22878417010E+02  0.53708861906E+01 -0.71630749781E+03  0.72744565252E+03  0.12461331212E+03 0.  0.
          5    1    4    4  502    0  0.45284385998E+02  0.20123114673E+02 -0.88810853719E+02  0.10180900303E+03  0.47000000000E+01 0. -1.
         -5    1    4    4    0  502 -0.68162803008E+02 -0.25494000864E+02 -0.21224676124E+03  0.22442568804E+03  0.47000000000E+01 0. -1.
          5    1    5    5  503    0  0.56489662124E+01  0.97604160465E+01 -0.13952243660E+01  0.12296877315E+02  0.47000000000E+01 0. -1.
         -5    1    5    5    0  503  0.17229450798E+02 -0.43895298558E+01 -0.71491227345E+03  0.71514877520E+03  0.47000000000E+01 0. -1.
<mgrwt>
<rscale>  0 0.27424532E+03</rscale>
<asrwt>0</asrwt>
<pdfrwt beam="1">  1        2 0.15931121E+00 0.27424532E+03</pdfrwt>
<pdfrwt beam="2">  1       -2 0.27934789E-02 0.27424532E+03</pdfrwt>
<totfact> 0.11737559E+04</totfact>
</mgrwt>
</event>
<event>
 9    1  0.7944303E-001  0.2768214E+03  0.7818608E-02  0.1097438E+00
          1   -1    0    0  501    0  0.00000000000E+00  0.00000000000E+00  0.11648137367E+04  0.11648137367E+04  0.00000000000E+00 0. -1.
         -1   -1    0    0    0  501 -0.00000000000E+00 -0.00000000000E+00 -0.16446859989E+02  0.16446859989E+02  0.00000000000E+00 0. -1.
         35    2    1    2    0    0  0.00000000000E+00  0.00000000000E+00  0.11483668767E+04  0.11812605967E+04  0.27682144745E+03 0.  0.
         25    2    3    3    0    0  0.23378255935E+02  0.15167663174E+01  0.33727470040E+03  0.36023812727E+03  0.12437218890E+03 0.  0.
         25    2    3    3    0    0 -0.23378255935E+02 -0.15167663174E+01  0.81109217634E+03  0.82102246946E+03  0.12513406172E+03 0.  0.
          5    1    4    4  502    0  0.52576624567E+02 -0.38713228712E+02  0.11408366892E+03  0.13153018301E+03  0.47000000000E+01 0.  1.
         -5    1    4    4    0  502 -0.29198368633E+02  0.40229995029E+02  0.22319103149E+03  0.22870794426E+03  0.47000000000E+01 0.  1.
          5    1    5    5  503    0 -0.41370659276E+02 -0.53769661453E+02  0.34473177495E+03  0.35137557485E+03  0.47000000000E+01 0. -1.
         -5    1    5    5    0  503  0.17992403341E+02  0.52252895136E+02  0.46636040140E+03  0.46964689461E+03  0.47000000000E+01 0. -1.
<mgrwt>
<rscale>  0 0.27682145E+03</rscale>
<asrwt>0</asrwt>
<pdfrwt beam="1">  1        1 0.17920205E+00 0.27682145E+03</pdfrwt>
<pdfrwt beam="2">  1       -1 0.25302871E-02 0.27682145E+03</pdfrwt>
<totfact> 0.58817935E+03</totfact>
</mgrwt>
</event>
<event>
 9    1  0.7944303E-001  0.2835797E+03  0.7818608E-02  0.1093750E+00
         -1   -1    0    0    0  501 -0.00000000000E+00  0.00000000000E+00  0.21149374432E+03  0.21149374432E+03  0.00000000000E+00 0. -1.
          1   -1    0    0  501    0  0.00000000000E+00 -0.00000000000E+00 -0.95058890581E+02  0.95058890581E+02  0.00000000000E+00 0. -1.
         35    2    1    2    0    0 -0.71054273576E-14 -0.71054273576E-14  0.11643485374E+03  0.30655263490E+03  0.28357969391E+03 0.  0.
         25    2    3    3    0    0  0.56742432975E+02 -0.37347207706E+01  0.97370932518E+02  0.16824198164E+03  0.12486238044E+03 0.  0.
         25    2    3    3    0    0 -0.56742432975E+02  0.37347207706E+01  0.19063921220E+02  0.13831065326E+03  0.12463046126E+03 0.  0.
          5    1    4    4  502    0  0.48286095175E+02 -0.60282561923E+02  0.39994825475E+02  0.87104594162E+02  0.47000000000E+01 0. -1.
         -5    1    4    4    0  502  0.84563377995E+01  0.56547841153E+02  0.57376107043E+02  0.81137387482E+02  0.47000000000E+01 0. -1.
          5    1    5    5  503    0 -0.41750088616E+02  0.58893578016E+02 -0.11611400244E+02  0.73269625675E+02  0.47000000000E+01 0.  1.
         -5    1    5    5    0  503 -0.14992344359E+02 -0.55158857245E+02  0.30675321464E+02  0.65041027582E+02  0.47000000000E+01 0.  1.
<mgrwt>
<rscale>  0 0.28357969E+03</rscale>
<asrwt>0</asrwt>
<pdfrwt beam="1">  1        1 0.14624445E-01 0.28357969E+03</pdfrwt>
<pdfrwt beam="2">  1       -1 0.32537499E-01 0.28357969E+03</pdfrwt>
<totfact> 0.34102655E+03</totfact>
</mgrwt>
</event>
<event>
 9    1  0.7944303E-001  0.2790594E+03  0.7818608E-02  0.1096204E+00
          2   -1    0    0  501    0  0.00000000000E+00  0.00000000000E+00  0.23117302562E+02  0.23117302562E+02  0.00000000000E+00 0. -1.
         -2   -1    0    0    0  501 -0.00000000000E+00 -0.00000000000E+00 -0.84216323026E+03  0.84216323026E+03  0.00000000000E+00 0. -1.
         35    2    1    2    0    0  0.00000000000E+00  0.00000000000E+00 -0.81904592770E+03  0.86528053283E+03  0.27905943597E+03 0.  0.
         25    2    3    3    0    0 -0.58338549302E+02  0.15268327523E+02 -0.39602534184E+03  0.41980890990E+03  0.12556648155E+03 0.  0.
         25    2    3    3    0    0  0.58338549302E+02 -0.15268327523E+02 -0.42302058586E+03  0.44547162293E+03  0.12594460137E+03 0.  0.
          5    1    4    4  502    0 -0.67280384997E+02  0.59228525068E+02 -0.30921851581E+03  0.32198268418E+03  0.47000000000E+01 0. -1.
         -5    1    4    4    0  502  0.89418356945E+01 -0.43960197545E+02 -0.86806826030E+02  0.97826225723E+02  0.47000000000E+01 0. -1.
          5    1    5    5  503    0  0.55057114811E+02  0.46937742154E+02 -0.28314677854E+03  0.29228175743E+03  0.47000000000E+01 0.  1.
         -5    1    5    5    0  503  0.32814344910E+01 -0.62206069677E+02 -0.13987380732E+03  0.15318986549E+03  0.47000000000E+01 0.  1.
<mgrwt>
<rscale>  0 0.27905944E+03</rscale>
<asrwt>0</asrwt>
<pdfrwt beam="1">  1        2 0.35565076E-02 0.27905944E+03</pdfrwt>
<pdfrwt beam="2">  1       -2 0.12956359E+00 0.27905944E+03</pdfrwt>
<totfact> 0.11430116E+03</totfact>
</mgrwt>
</event>
<event>
 9    1  0.7944303E-001  0.2827777E+03  0.7818608E-02  0.1094181E+00
         -1   -1    0    0    0  501 -0.00000000000E+00  0.00000000000E+00  0.99254831939E+03  0.99254831939E+03  0.00000000000E+00 0.  1.
          1   -1    0    0  501    0  0.00000000000E+00 -0.00000000000E+00 -0.20140894427E+02  0.20140894427E+02  0.00000000000E+00 0.  1.
         35    2    1    2    0    0  0.00000000000E+00 -0.71054273576E-14  0.97240742496E+03  0.10126892138E+04  0.28277772836E+03 0.  0.
         25    2    3    3    0    0 -0.17603418949E+02 -0.35759879472E+02  0.29655941422E+03  0.32429841960E+03  0.12503331338E+03 0.  0.
         25    2    3    3    0    0  0.17603418949E+02  0.35759879472E+02  0.67584801074E+03  0.68839079422E+03  0.12459013845E+03 0.  0.
          5    1    4    4  502    0 -0.53793431172E+02 -0.33393177465E+02  0.68786227882E+02  0.93608080231E+02  0.47000000000E+01 0.  1.
         -5    1    4    4    0  502  0.36190012223E+02 -0.23667020071E+01  0.22777318634E+03  0.23069033937E+03  0.47000000000E+01 0.  1.
          5    1    5    5  503    0  0.36952973369E+02 -0.21839386879E+02  0.50780888511E+03  0.50964147678E+03  0.47000000000E+01 0.  1.
         -5    1    5    5    0  503 -0.19349554420E+02  0.57599266350E+02  0.16803912564E+03  0.17874931744E+03  0.47000000000E+01 0.  1.
<mgrwt>
<rscale>  0 0.28277773E+03</rscale>
<asrwt>0</asrwt>
<pdfrwt beam="1">  1        1 0.30985999E-02 0.28277773E+03</pdfrwt>
<pdfrwt beam="2">  1       -1 0.15269970E+00 0.28277773E+03</pdfrwt>
<totfact> 0.11749091E+03</totfact>
</mgrwt>
</event>
<event>
 9    1  0.7944303E-001  0.2747464E+03  0.7818608E-02  0.1098593E+00
         -2   -1    0    0    0  501 -0.00000000000E+00  0.00000000000E+00  0.86228498135E+01  0.86228498135E+01  0.00000000000E+00 0. -1.
          2   -1    0    0  501    0  0.00000000000E+00 -0.00000000000E+00 -0.21885329092E+04  0.21885329092E+04  0.00000000000E+00 0. -1.
         35    2    1    2    0    0 -0.35527136788E-14  0.35527136788E-14 -0.21799100594E+04  0.21971557590E+04  0.27474636003E+03 0.  0.
         25    2    3    3    0    0 -0.31850823752E+02 -0.70631197543E+01 -0.14734822723E+04  0.14791579954E+04  0.12527572012E+03 0.  0.
         25    2    3    3    0    0  0.31850823752E+02  0.70631197543E+01 -0.70642778712E+03  0.71799776361E+03  0.12416202116E+03 0.  0.
          5    1    4    4  502    0 -0.37234593889E+01  0.62594159667E+01 -0.43676478480E+01  0.97062240747E+01  0.47000000000E+01 0.  1.
         -5    1    4    4    0  502 -0.28127364363E+02 -0.13322535721E+02 -0.14691146244E+04  0.14694517713E+04  0.47000000000E+01 0.  1.
          5    1    5    5  503    0  0.64303094104E+02 -0.35162646101E+02 -0.46113771237E+03  0.46694901152E+03  0.47000000000E+01 0.  1.
         -5    1    5    5    0  503 -0.32452270353E+02  0.42225765856E+02 -0.24529007475E+03  0.25104875209E+03  0.47000000000E+01 0.  1.
<mgrwt>
<rscale>  0 0.27474636E+03</rscale>
<asrwt>0</asrwt>
<pdfrwt beam="1">  1        2 0.33669740E+00 0.27474636E+03</pdfrwt>
<pdfrwt beam="2">  1       -2 0.13265922E-02 0.27474636E+03</pdfrwt>
<totfact> 0.83387918E+03</totfact>
</mgrwt>
</event>
<event>
 9    1  0.7944303E-001  0.2745761E+03  0.7818608E-02  0.1098689E+00
          1   -1    0    0  501    0  0.00000000000E+00  0.00000000000E+00  0.58834765451E+02  0.58834765451E+02  0.00000000000E+00 0.  1.
         -1   -1    0    0    0  501 -0.00000000000E+00 -0.00000000000E+00 -0.32035503610E+03  0.32035503610E+03  0.00000000000E+00 0.  1.
         35    2    1    2    0    0  0.71054273576E-14 -0.35527136788E-14 -0.26152027064E+03  0.37918980155E+03  0.27457613450E+03 0.  0.
         25    2    3    3    0    0 -0.57358486903E+02  0.16148903004E+02 -0.13286872404E+03  0.19138044612E+03  0.12418371165E+03 0.  0.
         25    2    3    3    0    0  0.57358486903E+02 -0.16148903004E+02 -0.12865154660E+03  0.18780935543E+03  0.12316797659E+03 0.  0.
          5    1    4    4  502    0 -0.17040485416E+02  0.13376764092E+02  0.22015036210E+02  0.31242083479E+02  0.47000000000E+01 0.  1.
         -5    1    4    4    0  502 -0.40318001487E+02  0.27721389119E+01 -0.15488376025E+03  0.16013836264E+03  0.47000000000E+01 0.  1.
          5    1    5    5  503    0  0.29191555754E+02 -0.25210441787E+02  0.14562314118E+02  0.41495352691E+02  0.47000000000E+01 0.  1.
         -5    1    5    5    0  503  0.28166931149E+02  0.90615387828E+01 -0.14321386072E+03  0.14631400274E+03  0.47000000000E+01 0.  1.
<mgrwt>
<rscale>  0 0.27457613E+03</rscale>
<asrwt>0</asrwt>
<pdfrwt beam="1">  1        1 0.90515022E-02 0.27457613E+03</pdfrwt>
<pdfrwt beam="2">  1       -1 0.49285391E-01 0.27457613E+03</pdfrwt>
<totfact> 0.30878230E+03</totfact>
</mgrwt>
</event>
<event>
 9    1  0.7944303E-001  0.2743365E+03  0.7818608E-02  0.1098823E+00
          2   -1    0    0  501    0  0.00000000000E+00  0.00000000000E+00  0.51662713074E+03  0.51662713074E+03  0.00000000000E+00 0. -1.
         -2   -1    0    0    0  501 -0.00000000000E+00 -0.00000000000E+00 -0.36419162963E+02  0.36419162963E+02  0.00000000000E+00 0. -1.
         35    2    1    2    0    0  0.14210854715E-13  0.00000000000E+00  0.48020796778E+03  0.55304629371E+03  0.27433649167E+03 0.  0.
         25    2    3    3    0    0 -0.45861964077E+02 -0.36905269412E+01  0.17233509810E+03  0.21727810368E+03  0.12407033717E+03 0.  0.
         25    2    3    3    0    0  0.45861964077E+02  0.36905269412E+01  0.30787286968E+03  0.33576819003E+03  0.12584766111E+03 0.  0.
          5    1    4    4  502    0 -0.48260707039E+02 -0.43855974920E+02  0.16311716203E+03  0.17573201452E+03  0.47000000000E+01 0.  1.
         -5    1    4    4    0  502  0.23987429617E+01  0.40165447979E+02  0.92179360687E+01  0.41546089160E+02  0.47000000000E+01 0.  1.
          5    1    5    5  503    0 -0.43587584879E-01  0.60417827278E+02  0.15014998799E+03  0.16191795653E+03  0.47000000000E+01 0. -1.
         -5    1    5    5    0  503  0.45905551662E+02 -0.56727300337E+02  0.15772288169E+03  0.17385023350E+03  0.47000000000E+01 0. -1.
<mgrwt>
<rscale>  0 0.27433649E+03</rscale>
<asrwt>0</asrwt>
<pdfrwt beam="1">  1        2 0.79481092E-01 0.27433649E+03</pdfrwt>
<pdfrwt beam="2">  1       -2 0.56029485E-02 0.27433649E+03</pdfrwt>
<totfact> 0.98081894E+03</totfact>
</mgrwt>
</event>
<event>
 9    1  0.7944303E-001  0.2750804E+03  0.7818608E-02  0.1098407E+00
          2   -1    0    0  501    0  0.00000000000E+00  0.00000000000E+00  0.29476909594E+03  0.29476909594E+03  0.00000000000E+00 0. -1.
         -2   -1    0    0    0  501 -0.00000000000E+00 -0.00000000000E+00 -0.64176708082E+02  0.64176708082E+02  0.00000000000E+00 0. -1.
         35    2    1    2    0    0  0.00000000000E+00  0.00000000000E+00  0.23059238786E+03  0.35894580402E+03  0.27508042621E+03 0.  0.
         25    2    3    3    0    0 -0.20581055222E+01 -0.10548218574E+02  0.19040305475E+03  0.22810207471E+03  0.12514684381E+03 0.  0.
         25    2    3    3    0    0  0.20581055222E+01  0.10548218574E+02  0.40189333106E+02  0.13084372931E+03  0.12405401361E+03 0.  0.
          5    1    4    4  502    0 -0.47728235728E+02 -0.16695884010E+02  0.17011480345E+03  0.17753273890E+03  0.47000000000E+01 0.  1.
         -5    1    4    4    0  502  0.45670130206E+02  0.61476654355E+01  0.20288251302E+02  0.50569335810E+02  0.47000000000E+01 0.  1.
          5    1    5    5  503    0  0.23396221460E+02  0.31310555584E+02  0.75056700927E+02  0.84754542201E+02  0.47000000000E+01 0.  1.
         -5    1    5    5    0  503 -0.21338115938E+02 -0.20762337010E+02 -0.34867367821E+02  0.46089187112E+02  0.47000000000E+01 0.  1.
<mgrwt>
<rscale>  0 0.27508043E+03</rscale>
<asrwt>0</asrwt>
<pdfrwt beam="1">  1        2 0.45349091E-01 0.27508043E+03</pdfrwt>
<pdfrwt beam="2">  1       -2 0.98733399E-02 0.27508043E+03</pdfrwt>
<totfact> 0.74915787E+03</totfact>
</mgrwt>
</event>
<event>
 9    1  0.7944303E-001  0.2771790E+03  0.7818608E-02  0.1097240E+00
         -2   -1    0    0    0  501 -0.00000000000E+00  0.00000000000E+00  0.20241570849E+03  0.20241570849E+03  0.00000000000E+00 0.  1.
          2   -1    0    0  501    0  0.00000000000E+00 -0.00000000000E+00 -0.94889154601E+02  0.94889154601E+02  0.00000000000E+00 0.  1.
         35    2    1    2    0    0 -0.71054273576E-14  0.00000000000E+00  0.10752655389E+03  0.29730486309E+03  0.27717904290E+03 0.  0.
         25    2    3    3    0    0  0.51932322267E+02 -0.17618646445E+02  0.70177294114E+02  0.15518368977E+03  0.12708163582E+03 0.  0.
         25    2    3    3    0    0 -0.51932322267E+02  0.17618646445E+02  0.37349259772E+02  0.14212117331E+03  0.12568244866E+03 0.  0.
          5    1    4    4  502    0  0.31234443644E+02  0.46991314591E+02  0.66128242203E+02  0.87056352632E+02  0.47000000000E+01 0.  1.
         -5    1    4    4    0  502  0.20697878622E+02 -0.64609961036E+02  0.40490519108E+01  0.68127337141E+02  0.47000000000E+01 0.  1.
          5    1    5    5  503    0 -0.33135146257E+02  0.22045492801E+02  0.83089683110E+02  0.92249266174E+02  0.47000000000E+01 0. -1.
         -5    1    5    5    0  503 -0.18797176010E+02 -0.44268463564E+01 -0.45740423338E+02  0.49871907140E+02  0.47000000000E+01 0. -1.
<mgrwt>
<rscale>  0 0.27717904E+03</rscale>
<asrwt>0</asrwt>
<pdfrwt beam="1">  1        2 0.14598331E-01 0.27717904E+03</pdfrwt>
<pdfrwt beam="2">  1       -2 0.31140878E-01 0.27717904E+03</pdfrwt>
<totfact> 0.38251650E+03</totfact>
</mgrwt>
</event>
<event>
 9    1  0.7944303E-001  0.2725800E+03  0.7818608E-02  0.1099812E+00
          3   -1    0    0  501    0  0.00000000000E+00  0.00000000000E+00  0.69304648181E+02  0.69304648181E+02  0.00000000000E+00 0. -1.
         -3   -1    0    0    0  501 -0.00000000000E+00 -0.00000000000E+00 -0.26801899707E+03  0.26801899707E+03  0.00000000000E+00 0. -1.
         35    2    1    2    0    0  0.71054273576E-14 -0.35527136788E-14 -0.19871434889E+03  0.33732364526E+03  0.27257998678E+03 0.  0.
         25    2    3    3    0    0  0.54600460913E+02  0.21077653407E+02 -0.11232818117E+03  0.17730608315E+03  0.12407396597E+03 0.  0.
         25    2    3    3    0    0 -0.54600460913E+02 -0.21077653407E+02 -0.86386167724E+02  0.16001756211E+03  0.12131600226E+03 0.  0.
          5    1    4    4  502    0  0.38862892894E+02 -0.13944063655E+02 -0.12874454100E+03  0.13528491487E+03  0.47000000000E+01 0. -1.
         -5    1    4    4    0  502  0.15737568019E+02  0.35021717062E+02  0.16416359830E+02  0.42021168275E+02  0.47000000000E+01 0. -1.
          5    1    5    5  503    0 -0.24686024470E+02  0.69501716612E+01  0.28094041299E+02  0.38328446965E+02  0.47000000000E+01 0.  1.
         -5    1    5    5    0  503 -0.29914436443E+02 -0.28027825068E+02 -0.11448020902E+03  0.12168911514E+03  0.47000000000E+01 0.  1.
<mgrwt>
<rscale>  0 0.27257999E+03</rscale>
<asrwt>0</asrwt>
<pdfrwt beam="1">  1        3 0.10662254E-01 0.27257999E+03</pdfrwt>
<pdfrwt beam="2">  1       -3 0.41233692E-01 0.27257999E+03</pdfrwt>
<totfact> 0.98567566E+02</totfact>
</mgrwt>
</event>
<event>
 9    1  0.7944303E-001  0.2936656E+03  0.7818608E-02  0.1088451E+00
         -1   -1    0    0    0  501 -0.00000000000E+00  0.00000000000E+00  0.40878800787E+02  0.40878800787E+02  0.00000000000E+00 0. -1.
          1   -1    0    0  501    0  0.00000000000E+00 -0.00000000000E+00 -0.52740959178E+03  0.52740959178E+03  0.00000000000E+00 0. -1.
         35    2    1    2    0    0  0.71054273576E-14 -0.28421709430E-13 -0.48653079099E+03  0.56828839256E+03  0.29366560327E+03 0.  0.
         25    2    3    3    0    0 -0.47487213697E+01  0.72593652337E+02 -0.29535288990E+03  0.32863403585E+03  0.12439699047E+03 0.  0.
         25    2    3    3    0    0  0.47487213697E+01 -0.72593652337E+02 -0.19117790109E+03  0.23965435671E+03  0.12487126214E+03 0.  0.
          5    1    4    4  502    0 -0.56466329873E+02  0.34532538254E+02 -0.21861478660E+03  0.22846325203E+03  0.47000000000E+01 0.  1.
         -5    1    4    4    0  502  0.51717608504E+02  0.38061114082E+02 -0.76738103297E+02  0.10017078382E+03  0.47000000000E+01 0.  1.
          5    1    5    5  503    0  0.58340939642E+02 -0.32138050169E+02 -0.13995966567E+03  0.15507197530E+03  0.47000000000E+01 0.  1.
         -5    1    5    5    0  503 -0.53592218272E+02 -0.40455602167E+02 -0.51218235422E+02  0.84582381414E+02  0.47000000000E+01 0.  1.
<mgrwt>
<rscale>  0 0.29366560E+03</rscale>
<asrwt>0</asrwt>
<pdfrwt beam="1">  1        1 0.81139933E-01 0.29366560E+03</pdfrwt>
<pdfrwt beam="2">  1       -1 0.62890466E-02 0.29366560E+03</pdfrwt>
<totfact> 0.52177007E+03</totfact>
</mgrwt>
</event>
<event>
 9    1  0.7944303E-001  0.2839146E+03  0.7818608E-02  0.1093570E+00
         -1   -1    0    0    0  501 -0.00000000000E+00  0.00000000000E+00  0.88975339448E+01  0.88975339448E+01  0.00000000000E+00 0.  1.
          1   -1    0    0  501    0  0.00000000000E+00 -0.00000000000E+00 -0.22648839778E+04  0.22648839778E+04  0.00000000000E+00 0.  1.
         35    2    1    2    0    0  0.71054273576E-14 -0.35527136788E-14 -0.22559864438E+04  0.22737815117E+04  0.28391464966E+03 0.  0.
         25    2    3    3    0    0  0.29232727204E+02  0.16534376409E+02 -0.15507886543E+04  0.15562341473E+04  0.12566357096E+03 0.  0.
         25    2    3    3    0    0 -0.29232727204E+02 -0.16534376409E+02 -0.70519778954E+03  0.71754736440E+03  0.12822776549E+03 0.  0.
          5    1    4    4  502    0 -0.31189916640E+02 -0.62188555812E+01 -0.11333403027E+04  0.11337961972E+04  0.47000000000E+01 0. -1.
         -5    1    4    4    0  502  0.60422643844E+02  0.22753231990E+02 -0.41744835161E+03  0.42243795013E+03  0.47000000000E+01 0. -1.
          5    1    5    5  503    0 -0.20192948193E+02  0.31296143839E+02 -0.60386881269E+03  0.60503457481E+03  0.47000000000E+01 0.  1.
         -5    1    5    5    0  503 -0.90397790108E+01 -0.47830520248E+02 -0.10132897685E+03  0.11251278959E+03  0.47000000000E+01 0.  1.
<mgrwt>
<rscale>  0 0.28391465E+03</rscale>
<asrwt>0</asrwt>
<pdfrwt beam="1">  1        1 0.34844375E+00 0.28391465E+03</pdfrwt>
<pdfrwt beam="2">  1       -1 0.13688511E-02 0.28391465E+03</pdfrwt>
<totfact> 0.27022473E+03</totfact>
</mgrwt>
</event>
<event>
 9    1  0.7944303E-001  0.2868693E+03  0.7818608E-02  0.1091995E+00
          2   -1    0    0  501    0  0.00000000000E+00  0.00000000000E+00  0.10112105937E+03  0.10112105937E+03  0.00000000000E+00 0. -1.
         -2   -1    0    0    0  501 -0.00000000000E+00 -0.00000000000E+00 -0.20345416942E+03  0.20345416942E+03  0.00000000000E+00 0. -1.
         35    2    1    2    0    0  0.71054273576E-14  0.00000000000E+00 -0.10233311005E+03  0.30457522880E+03  0.28686931621E+03 0.  0.
         25    2    3    3    0    0 -0.15692927754E+02  0.12866501260E+02 -0.12744651385E+03  0.17617661374E+03  0.11993235802E+03 0.  0.
         25    2    3    3    0    0  0.15692927754E+02 -0.12866501260E+02  0.25113403802E+02  0.12839861506E+03  0.12427271005E+03 0.  0.
          5    1    4    4  502    0  0.47899626031E+02 -0.39065989618E+01 -0.25078597191E+02  0.54411963082E+02  0.47000000000E+01 0.  1.
         -5    1    4    4    0  502 -0.63592553785E+02  0.16773100221E+02 -0.10236791666E+03  0.12176465065E+03  0.47000000000E+01 0.  1.
          5    1    5    5  503    0  0.59765459587E+02  0.51501005038E+01  0.46448340428E+02  0.76012972731E+02  0.47000000000E+01 0.  1.
         -5    1    5    5    0  503 -0.44072531834E+02 -0.18016601763E+02 -0.21334936626E+02  0.52385642329E+02  0.47000000000E+01 0.  1.
<mgrwt>
<rscale>  0 0.28686932E+03</rscale>
<asrwt>0</asrwt>
<pdfrwt beam="1">  1        2 0.15557086E-01 0.28686932E+03</pdfrwt>
<pdfrwt beam="2">  1       -2 0.31300641E-01 0.28686932E+03</pdfrwt>
<totfact> 0.35177609E+03</totfact>
</mgrwt>
</event>
<event>
 9    1  0.7944303E-001  0.2757065E+03  0.7818608E-02  0.1098057E+00
          2   -1    0    0  501    0  0.00000000000E+00  0.00000000000E+00  0.16875735369E+03  0.16875735369E+03  0.00000000000E+00 0.  1.
         -2   -1    0    0    0  501 -0.00000000000E+00 -0.00000000000E+00 -0.11260852587E+03  0.11260852587E+03  0.00000000000E+00 0.  1.
         35    2    1    2    0    0  0.00000000000E+00  0.00000000000E+00  0.56148827822E+02  0.28136587956E+03  0.27570648761E+03 0.  0.
         25    2    3    3    0    0  0.17417134989E+02 -0.54342010864E+02  0.33424844476E+02  0.14240890957E+03  0.12612163399E+03 0.  0.
         25    2    3    3    0    0 -0.17417134989E+02  0.54342010864E+02  0.22723983346E+02  0.13895696998E+03  0.12464449186E+03 0.  0.
          5    1    4    4  502    0  0.17331798619E+02 -0.94140202515E+02  0.10947658925E+02  0.96460925814E+02  0.47000000000E+01 0.  1.
         -5    1    4    4    0  502  0.85336369887E-01  0.39798191651E+02  0.22477185552E+02  0.45947983757E+02  0.47000000000E+01 0.  1.
          5    1    5    5  503    0 -0.58475608399E+02  0.12217135039E+02  0.45977091437E+02  0.75529054695E+02  0.47000000000E+01 0.  1.
         -5    1    5    5    0  503  0.41058473410E+02  0.42124875825E+02 -0.23253108091E+02  0.63427915289E+02  0.47000000000E+01 0.  1.
<mgrwt>
<rscale>  0 0.27570649E+03</rscale>
<asrwt>0</asrwt>
<pdfrwt beam="1">  1        2 0.25962670E-01 0.27570649E+03</pdfrwt>
<pdfrwt beam="2">  1       -2 0.17324389E-01 0.27570649E+03</pdfrwt>
<totfact> 0.54999483E+03</totfact>
</mgrwt>
</event>
<event>
 9    1  0.7944303E-001  0.2755118E+03  0.7818608E-02  0.1098166E+00
         -1   -1    0    0    0  501 -0.00000000000E+00  0.00000000000E+00  0.54578444959E+02  0.54578444959E+02  0.00000000000E+00 0.  1.
          1   -1    0    0  501    0  0.00000000000E+00 -0.00000000000E+00 -0.34769555979E+03  0.34769555979E+03  0.00000000000E+00 0.  1.
         35    2    1    2    0    0  0.00000000000E+00  0.00000000000E+00 -0.29311711483E+03  0.40227400475E+03  0.27551176361E+03 0.  0.
         25    2    3    3    0    0 -0.42235373696E+02 -0.17660737878E+02 -0.95987920549E+02  0.16437368680E+03  0.12533674468E+03 0.  0.
         25    2    3    3    0    0  0.42235373696E+02  0.17660737878E+02 -0.19712919428E+03  0.23790031795E+03  0.12506363816E+03 0.  0.
          5    1    4    4  502    0  0.47455341166E+01  0.35660369788E+02 -0.84857768998E+02  0.92288206325E+02  0.47000000000E+01 0.  1.
         -5    1    4    4    0  502 -0.46980907812E+02 -0.53321107665E+02 -0.11130151551E+02  0.72085480473E+02  0.47000000000E+01 0.  1.
          5    1    5    5  503    0  0.27684583100E+02 -0.40831692734E+02 -0.15871267018E+03  0.16626925437E+03  0.47000000000E+01 0. -1.
         -5    1    5    5    0  503  0.14550790595E+02  0.58492430612E+02 -0.38416524105E+02  0.71631063584E+02  0.47000000000E+01 0. -1.
<mgrwt>
<rscale>  0 0.27551176E+03</rscale>
<asrwt>0</asrwt>
<pdfrwt beam="1">  1        1 0.53491625E-01 0.27551176E+03</pdfrwt>
<pdfrwt beam="2">  1       -1 0.83966838E-02 0.27551176E+03</pdfrwt>
<totfact> 0.57647063E+03</totfact>
</mgrwt>
</event>
<event>
 9    1  0.7944303E-001  0.2691122E+03  0.7818608E-02  0.1101789E+00
         -1   -1    0    0    0  501 -0.00000000000E+00  0.00000000000E+00  0.12820304569E+02  0.12820304569E+02  0.00000000000E+00 0.  1.
          1   -1    0    0  501    0  0.00000000000E+00 -0.00000000000E+00 -0.14122397673E+04  0.14122397673E+04  0.00000000000E+00 0.  1.
         35    2    1    2    0    0  0.35527136788E-14 -0.35527136788E-14 -0.13994194628E+04  0.14250600719E+04  0.26911219922E+03 0.  0.
         25    2    3    3    0    0  0.19704191225E+02  0.75069578617E+01 -0.46039781687E+03  0.47749558271E+03  0.12486501574E+03 0.  0.
         25    2    3    3    0    0 -0.19704191225E+02 -0.75069578617E+01 -0.93902164588E+03  0.94756448918E+03  0.12518865828E+03 0.  0.
          5    1    4    4  502    0  0.10362507728E+02 -0.58522574790E+02 -0.20501684438E+03  0.21350941386E+03  0.47000000000E+01 0. -1.
         -5    1    4    4    0  502  0.93416834965E+01  0.66029532651E+02 -0.25538097250E+03  0.26398616885E+03  0.47000000000E+01 0. -1.
          5    1    5    5  503    0  0.19308854218E+02  0.19785852747E+02 -0.80090964391E+03  0.80140043645E+03  0.47000000000E+01 0. -1.
         -5    1    5    5    0  503 -0.39013045443E+02 -0.27292810608E+02 -0.13811200196E+03  0.14616405273E+03  0.47000000000E+01 0. -1.
<mgrwt>
<rscale>  0 0.26911220E+03</rscale>
<asrwt>0</asrwt>
<pdfrwt beam="1">  1        1 0.21726753E+00 0.26911220E+03</pdfrwt>
<pdfrwt beam="2">  1       -1 0.19723557E-02 0.26911220E+03</pdfrwt>
<totfact> 0.57289282E+03</totfact>
</mgrwt>
</event>
<event>
 9    1  0.7944303E-001  0.2663715E+03  0.7818608E-02  0.1103374E+00
          1   -1    0    0  501    0  0.00000000000E+00  0.00000000000E+00  0.38028954008E+03  0.38028954008E+03  0.00000000000E+00 0. -1.
         -1   -1    0    0    0  501 -0.00000000000E+00 -0.00000000000E+00 -0.46644581403E+02  0.46644581403E+02  0.00000000000E+00 0. -1.
         35    2    1    2    0    0  0.00000000000E+00  0.00000000000E+00  0.33364495868E+03  0.42693412148E+03  0.26637151806E+03 0.  0.
         25    2    3    3    0    0  0.39202112620E+02 -0.54660040943E+01  0.20063087636E+03  0.23991652548E+03  0.12546118051E+03 0.  0.
         25    2    3    3    0    0 -0.39202112620E+02  0.54660040943E+01  0.13301408232E+03  0.18701759600E+03  0.12536407892E+03 0.  0.
          5    1    4    4  502    0 -0.30928152169E+02 -0.24169393927E+02  0.13922295872E+03  0.14472675093E+03  0.47000000000E+01 0.  1.
         -5    1    4    4    0  502  0.70130264789E+02  0.18703389833E+02  0.61407917638E+02  0.95189774552E+02  0.47000000000E+01 0.  1.
          5    1    5    5  503    0 -0.55919307408E+02 -0.47928751667E+02  0.89374456030E+02  0.11590520941E+03  0.47000000000E+01 0. -1.
         -5    1    5    5    0  503  0.16717194788E+02  0.53394755761E+02  0.43639626289E+02  0.71112386593E+02  0.47000000000E+01 0. -1.
<mgrwt>
<rscale>  0 0.26637152E+03</rscale>
<asrwt>0</asrwt>
<pdfrwt beam="1">  1        1 0.58506081E-01 0.26637152E+03</pdfrwt>
<pdfrwt beam="2">  1       -1 0.71760897E-02 0.26637152E+03</pdfrwt>
<totfact> 0.65288931E+03</totfact>
</mgrwt>
</event>
<event>
 9    1  0.7944303E-001  0.2754077E+03  0.7818608E-02  0.1098224E+00
          1   -1    0    0  501    0  0.00000000000E+00  0.00000000000E+00  0.43404624736E+02  0.43404624736E+02  0.00000000000E+00 0. -1.
         -1   -1    0    0    0  501 -0.00000000000E+00 -0.00000000000E+00 -0.43687390285E+03  0.43687390285E+03  0.00000000000E+00 0. -1.
         35    2    1    2    0    0 -0.14210854715E-13  0.71054273576E-14 -0.39346927812E+03  0.48027852759E+03  0.27540768188E+03 0.  0.
         25    2    3    3    0    0  0.36207639011E+02 -0.44910447222E+02 -0.20128553481E+03  0.24374041257E+03  0.12476209684E+03 0.  0.
         25    2    3    3    0    0 -0.36207639011E+02  0.44910447222E+02 -0.19218374331E+03  0.23653811501E+03  0.12525073760E+03 0.  0.
          5    1    4    4  502    0 -0.23713832817E+02 -0.33117693408E+02 -0.90594837108E+01  0.41991567352E+02  0.47000000000E+01 0.  1.
         -5    1    4    4    0  502  0.59921471828E+02 -0.11792753814E+02 -0.19222605110E+03  0.20174884522E+03  0.47000000000E+01 0.  1.
          5    1    5    5  503    0 -0.55795739924E+02  0.76989371455E+02 -0.10644508692E+03  0.14280467233E+03  0.47000000000E+01 0. -1.
         -5    1    5    5    0  503  0.19588100913E+02 -0.32078924232E+02 -0.85738656391E+02  0.93733442682E+02  0.47000000000E+01 0. -1.
<mgrwt>
<rscale>  0 0.27540768E+03</rscale>
<asrwt>0</asrwt>
<pdfrwt beam="1">  1        1 0.66776349E-02 0.27540768E+03</pdfrwt>
<pdfrwt beam="2">  1       -1 0.67211366E-01 0.27540768E+03</pdfrwt>
<totfact> 0.25855991E+03</totfact>
</mgrwt>
</event>
<event>
 9    1  0.7944303E-001  0.2704246E+03  0.7818608E-02  0.1101037E+00
          2   -1    0    0  501    0  0.00000000000E+00  0.00000000000E+00  0.36161394762E+03  0.36161394762E+03  0.00000000000E+00 0.  1.
         -2   -1    0    0    0  501 -0.00000000000E+00 -0.00000000000E+00 -0.50557675171E+02  0.50557675171E+02  0.00000000000E+00 0.  1.
         35    2    1    2    0    0  0.35527136788E-14 -0.71054273576E-14  0.31105627245E+03  0.41217162279E+03  0.27042455880E+03 0.  0.
         25    2    3    3    0    0  0.19265373691E+02  0.44936213117E+02  0.14914024793E+03  0.20180737097E+03  0.12685812371E+03 0.  0.
         25    2    3    3    0    0 -0.19265373691E+02 -0.44936213117E+02  0.16191602452E+03  0.21036425182E+03  0.12508357836E+03 0.  0.
          5    1    4    4  502    0 -0.48494260691E+02  0.10034383504E+02  0.97994443842E+02  0.10989714826E+03  0.47000000000E+01 0.  1.
         -5    1    4    4    0  502  0.67759634382E+02  0.34901829613E+02  0.51145804088E+02  0.91910222705E+02  0.47000000000E+01 0.  1.
          5    1    5    5  503    0 -0.22499169216E+02 -0.82524292924E+02  0.69090546962E+02  0.11005482823E+03  0.47000000000E+01 0. -1.
         -5    1    5    5    0  503  0.32337955249E+01  0.37588079807E+02  0.92825477556E+02  0.10030942359E+03  0.47000000000E+01 0. -1.
<mgrwt>
<rscale>  0 0.27042456E+03</rscale>
<asrwt>0</asrwt>
<pdfrwt beam="1">  1        2 0.55632913E-01 0.27042456E+03</pdfrwt>
<pdfrwt beam="2">  1       -2 0.77781041E-02 0.27042456E+03</pdfrwt>
<totfact> 0.87419552E+03</totfact>
</mgrwt>
</event>
<event>
 9    1  0.7944303E-001  0.2897326E+03  0.7818608E-02  0.1090489E+00
          2   -1    0    0  501    0  0.00000000000E+00  0.00000000000E+00  0.62294886479E+03  0.62294886479E+03  0.00000000000E+00 0.  1.
         -2   -1    0    0    0  501 -0.00000000000E+00 -0.00000000000E+00 -0.33688560595E+02  0.33688560595E+02  0.00000000000E+00 0.  1.
         35    2    1    2    0    0 -0.17763568394E-14  0.00000000000E+00  0.58926030419E+03  0.65663742538E+03  0.28973263937E+03 0.  0.
         25    2    3    3    0    0 -0.76934312869E+01  0.40200785104E+02  0.15420409557E+03  0.20206028039E+03  0.12399258773E+03 0.  0.
         25    2    3    3    0    0  0.76934312869E+01 -0.40200785104E+02  0.43505620862E+03  0.45457714499E+03  0.12526445659E+03 0.  0.
          5    1    4    4  502    0 -0.33283239259E+02 -0.33024104797E+02  0.88640780012E+02  0.10038746632E+03  0.47000000000E+01 0.  1.
         -5    1    4    4    0  502  0.25589807973E+02  0.73224889901E+02  0.65563315563E+02  0.10167281407E+03  0.47000000000E+01 0.  1.
          5    1    5    5  503    0  0.21746176905E+02 -0.78915691730E+02  0.20451207335E+03  0.22033579091E+03  0.47000000000E+01 0.  1.
         -5    1    5    5    0  503 -0.14052745618E+02  0.38714906626E+02  0.23054413527E+03  0.23424135408E+03  0.47000000000E+01 0.  1.
<mgrwt>
<rscale>  0 0.28973264E+03</rscale>
<asrwt>0</asrwt>
<pdfrwt beam="1">  1        2 0.95838278E-01 0.28973264E+03</pdfrwt>
<pdfrwt beam="2">  1       -2 0.51828559E-02 0.28973264E+03</pdfrwt>
<totfact> 0.89279891E+03</totfact>
</mgrwt>
</event>
<event>
 9    1  0.7944303E-001  0.2761455E+03  0.7818608E-02  0.1097813E+00
         -2   -1    0    0    0  501 -0.00000000000E+00  0.00000000000E+00  0.58739382785E+02  0.58739382785E+02  0.00000000000E+00 0.  1.
          2   -1    0    0  501    0  0.00000000000E+00 -0.00000000000E+00 -0.32455359661E+03  0.32455359661E+03  0.00000000000E+00 0.  1.
         35    2    1    2    0    0  0.14210854715E-13  0.17763568394E-14 -0.26581421382E+03  0.38329297939E+03  0.27614545403E+03 0.  0.
         25    2    3    3    0    0 -0.57973497250E+02 -0.10380019641E+01 -0.11545649333E+03  0.17914291854E+03  0.12409665418E+03 0.  0.
         25    2    3    3    0    0  0.57973497250E+02  0.10380019641E+01 -0.15035772049E+03  0.20415006085E+03  0.12533076001E+03 0.  0.
          5    1    4    4  502    0  0.24920808624E+02  0.14777612547E+02  0.71658557311E+01  0.30213639691E+02  0.47000000000E+01 0. -1.
         -5    1    4    4    0  502 -0.82894305873E+02 -0.15815614511E+02 -0.12262234906E+03  0.14892927884E+03  0.47000000000E+01 0. -1.
          5    1    5    5  503    0  0.82212617327E+02 -0.36748535102E+02 -0.11847024839E+03  0.14888471726E+03  0.47000000000E+01 0. -1.
         -5    1    5    5    0  503 -0.24239120077E+02  0.37786537066E+02 -0.31887472099E+02  0.55265343593E+02  0.47000000000E+01 0. -1.
<mgrwt>
<rscale>  0 0.27614545E+03</rscale>
<asrwt>0</asrwt>
<pdfrwt beam="1">  1        2 0.49931323E-01 0.27614545E+03</pdfrwt>
<pdfrwt beam="2">  1       -2 0.90368281E-02 0.27614545E+03</pdfrwt>
<totfact> 0.77713971E+03</totfact>
</mgrwt>
</event>
<event>
 9    1  0.7944303E-001  0.2759406E+03  0.7818608E-02  0.1097927E+00
         -2   -1    0    0    0  501 -0.00000000000E+00  0.00000000000E+00  0.28126608043E+02  0.28126608043E+02  0.00000000000E+00 0.  1.
          2   -1    0    0  501    0  0.00000000000E+00 -0.00000000000E+00 -0.67679006905E+03  0.67679006905E+03  0.00000000000E+00 0.  1.
         35    2    1    2    0    0  0.71054273576E-14  0.35527136788E-14 -0.64866346101E+03  0.70491667709E+03  0.27594063854E+03 0.  0.
         25    2    3    3    0    0 -0.40255872362E+02 -0.17234851240E+02 -0.22885346913E+03  0.26441385326E+03  0.12499280022E+03 0.  0.
         25    2    3    3    0    0  0.40255872362E+02  0.17234851240E+02 -0.41980999187E+03  0.44050282383E+03  0.12603465066E+03 0.  0.
          5    1    4    4  502    0 -0.22462688876E+02 -0.25659017038E+02 -0.23921266539E+03  0.24167694725E+03  0.47000000000E+01 0.  1.
         -5    1    4    4    0  502 -0.17793183486E+02  0.84241657977E+01  0.10359196260E+02  0.22736906015E+02  0.47000000000E+01 0.  1.
          5    1    5    5  503    0 -0.24224179606E+02  0.41106814927E+02 -0.76042134176E+02  0.89894812315E+02  0.47000000000E+01 0. -1.
         -5    1    5    5    0  503  0.64480051968E+02 -0.23871963686E+02 -0.34376785770E+03  0.35060801151E+03  0.47000000000E+01 0. -1.
<mgrwt>
<rscale>  0 0.27594064E+03</rscale>
<asrwt>0</asrwt>
<pdfrwt beam="1">  1        2 0.10412155E+00 0.27594064E+03</pdfrwt>
<pdfrwt beam="2">  1       -2 0.43271706E-02 0.27594064E+03</pdfrwt>
<totfact> 0.10620437E+04</totfact>
</mgrwt>
</event>
<event>
 9    1  0.7944303E-001  0.2742725E+03  0.7818608E-02  0.1098859E+00
          1   -1    0    0  501    0  0.00000000000E+00  0.00000000000E+00  0.14162401545E+03  0.14162401545E+03  0.00000000000E+00 0. -1.
         -1   -1    0    0    0  501 -0.00000000000E+00 -0.00000000000E+00 -0.13279070411E+03  0.13279070411E+03  0.00000000000E+00 0. -1.
         35    2    1    2    0    0  0.71054273576E-14  0.00000000000E+00  0.88333113383E+01  0.27441471957E+03  0.27427251216E+03 0.  0.
         25    2    3    3    0    0  0.34938023767E+02 -0.35020617542E+01 -0.40067626258E+02  0.13582796132E+03  0.12494354910E+03 0.  0.
         25    2    3    3    0    0 -0.34938023767E+02  0.35020617542E+01  0.48900937596E+02  0.13858675824E+03  0.12482811350E+03 0.  0.
          5    1    4    4  502    0  0.30219213762E+02  0.21111893019E+02 -0.80136356121E+02  0.88333676928E+02  0.47000000000E+01 0. -1.
         -5    1    4    4    0  502  0.47188100046E+01 -0.24613954774E+02  0.40068729863E+02  0.47494284396E+02  0.47000000000E+01 0. -1.
          5    1    5    5  503    0  0.43752377982E+02  0.20486969470E+02  0.24272603178E+02  0.54270026369E+02  0.47000000000E+01 0.  1.
         -5    1    5    5    0  503 -0.78690401748E+02 -0.16984907716E+02  0.24628334418E+02  0.84316731872E+02  0.47000000000E+01 0.  1.
<mgrwt>
<rscale>  0 0.27427251E+03</rscale>
<asrwt>0</asrwt>
<pdfrwt beam="1">  1        1 0.21788310E-01 0.27427251E+03</pdfrwt>
<pdfrwt beam="2">  1       -1 0.20429339E-01 0.27427251E+03</pdfrwt>
<totfact> 0.44202279E+03</totfact>
</mgrwt>
</event>
<event>
 9    1  0.7944303E-001  0.2752858E+03  0.7818608E-02  0.1098292E+00
         -1   -1    0    0    0  501 -0.00000000000E+00  0.00000000000E+00  0.30376397595E+02  0.30376397595E+02  0.00000000000E+00 0.  1.
          1   -1    0    0  501    0  0.00000000000E+00 -0.00000000000E+00 -0.62369353904E+03  0.62369353904E+03  0.00000000000E+00 0.  1.
         35    2    1    2    0    0 -0.71054273576E-14  0.17763568394E-14 -0.59331714145E+03  0.65406993664E+03  0.27528576367E+03 0.  0.
         25    2    3    3    0    0 -0.40553766814E+02 -0.78137569517E+01 -0.40491047962E+03  0.42452477105E+03  0.12067776072E+03 0.  0.
         25    2    3    3    0    0  0.40553766814E+02  0.78137569517E+01 -0.18840666183E+03  0.22954516558E+03  0.12445179798E+03 0.  0.
          5    1    4    4  502    0 -0.16311018848E+02 -0.57287794389E+02 -0.30043672930E+03  0.30632051683E+03  0.47000000000E+01 0. -1.
         -5    1    4    4    0  502 -0.24242747966E+02  0.49474037438E+02 -0.10447375032E+03  0.11820425422E+03  0.47000000000E+01 0. -1.
          5    1    5    5  503    0  0.31836965521E+01 -0.13041936707E+02 -0.18587417586E+03  0.18641761529E+03  0.47000000000E+01 0.  1.
         -5    1    5    5    0  503  0.37370070262E+02  0.20855693658E+02 -0.25324859637E+01  0.43127550296E+02  0.47000000000E+01 0.  1.
<mgrwt>
<rscale>  0 0.27528576E+03</rscale>
<asrwt>0</asrwt>
<pdfrwt beam="1">  1        1 0.95952852E-01 0.27528576E+03</pdfrwt>
<pdfrwt beam="2">  1       -1 0.46732919E-02 0.27528576E+03</pdfrwt>
<totfact> 0.64658513E+03</totfact>
</mgrwt>
</event>
<event>
 9    1  0.7944303E-001  0.2656611E+03  0.7818608E-02  0.1103789E+00
         -1   -1    0    0    0  501 -0.00000000000E+00  0.00000000000E+00  0.22868276033E+03  0.22868276033E+03  0.00000000000E+00 0. -1.
          1   -1    0    0  501    0  0.00000000000E+00 -0.00000000000E+00 -0.77154719817E+02  0.77154719817E+02  0.00000000000E+00 0. -1.
         35    2    1    2    0    0  0.17763568394E-14  0.00000000000E+00  0.15152804051E+03  0.30583748015E+03  0.26566109463E+03 0.  0.
         25    2    3    3    0    0  0.56418585663E+01 -0.41147147828E+02  0.64327567733E+02  0.14627721137E+03  0.12463574227E+03 0.  0.
         25    2    3    3    0    0 -0.56418585663E+01  0.41147147828E+02  0.87200472779E+02  0.15956026878E+03  0.12700645093E+03 0.  0.
          5    1    4    4  502    0  0.47657418976E+02 -0.19410280665E+01  0.73648250916E+02  0.87870086130E+02  0.47000000000E+01 0. -1.
         -5    1    4    4    0  502 -0.42015560410E+02 -0.39206119761E+02 -0.93206831830E+01  0.58407125236E+02  0.47000000000E+01 0. -1.
          5    1    5    5  503    0 -0.14966010136E+02  0.61836180104E+02 -0.54767028941E+01  0.64029515880E+02  0.47000000000E+01 0.  1.
         -5    1    5    5    0  503  0.93241515702E+01 -0.20689032276E+02  0.92677175674E+02  0.95530752901E+02  0.47000000000E+01 0.  1.
<mgrwt>
<rscale>  0 0.26566109E+03</rscale>
<asrwt>0</asrwt>
<pdfrwt beam="1">  1        1 0.11869957E-01 0.26566109E+03</pdfrwt>
<pdfrwt beam="2">  1       -1 0.35181963E-01 0.26566109E+03</pdfrwt>
<totfact> 0.39189041E+03</totfact>
</mgrwt>
</event>
<event>
 9    1  0.7944303E-001  0.2703786E+03  0.7818608E-02  0.1101063E+00
          1   -1    0    0  501    0  0.00000000000E+00  0.00000000000E+00  0.26412950018E+03  0.26412950018E+03  0.00000000000E+00 0. -1.
         -1   -1    0    0    0  501 -0.00000000000E+00 -0.00000000000E+00 -0.69193902051E+02  0.69193902051E+02  0.00000000000E+00 0. -1.
         35    2    1    2    0    0  0.00000000000E+00 -0.71054273576E-14  0.19493559812E+03  0.33332340223E+03  0.27037862907E+03 0.  0.
         25    2    3    3    0    0 -0.42484225902E+02  0.25923553588E+02  0.96848445413E+02  0.16671588497E+03  0.12624430618E+03 0.  0.
         25    2    3    3    0    0  0.42484225902E+02 -0.25923553588E+02  0.98087152711E+02  0.16660751726E+03  0.12514006232E+03 0.  0.
          5    1    4    4  502    0 -0.20614107754E+02  0.33406744663E+02 -0.22207668305E+02  0.45345590293E+02  0.47000000000E+01 0.  1.
         -5    1    4    4    0  502 -0.21870118148E+02 -0.74831910752E+01  0.11905611372E+03  0.12137029468E+03  0.47000000000E+01 0.  1.
          5    1    5    5  503    0  0.25333716254E+02  0.26981207636E+02  0.10399280865E+03  0.11048247371E+03  0.47000000000E+01 0.  1.
         -5    1    5    5    0  503  0.17150509648E+02 -0.52904761224E+02 -0.59056559411E+01  0.56125043550E+02  0.47000000000E+01 0.  1.
<mgrwt>
<rscale>  0 0.27037863E+03</rscale>
<asrwt>0</asrwt>
<pdfrwt beam="1">  1        1 0.40635307E-01 0.27037863E+03</pdfrwt>
<pdfrwt beam="2">  1       -1 0.10645216E-01 0.27037863E+03</pdfrwt>
<totfact> 0.56498851E+03</totfact>
</mgrwt>
</event>
<event>
 9    1  0.7944303E-001  0.2662746E+03  0.7818608E-02  0.1103431E+00
         -1   -1    0    0    0  501 -0.00000000000E+00  0.00000000000E+00  0.67876662989E+01  0.67876662989E+01  0.00000000000E+00 0.  1.
          1   -1    0    0  501    0  0.00000000000E+00 -0.00000000000E+00 -0.26114344938E+04  0.26114344938E+04  0.00000000000E+00 0.  1.
         35    2    1    2    0    0  0.00000000000E+00  0.00000000000E+00 -0.26046468275E+04  0.26182221601E+04  0.26627463946E+03 0.  0.
         25    2    3    3    0    0  0.29271379096E+02 -0.24311024233E+02 -0.15478575616E+04  0.15533081502E+04  0.12431950410E+03 0.  0.
         25    2    3    3    0    0 -0.29271379096E+02  0.24311024233E+02 -0.10567892659E+04  0.10649140098E+04  0.12566008242E+03 0.  0.
          5    1    4    4  502    0  0.49634699693E+02  0.31253320013E+01 -0.14200635918E+04  0.14209419643E+04  0.47000000000E+01 0. -1.
         -5    1    4    4    0  502 -0.20363320598E+02 -0.27436356234E+02 -0.12779396975E+03  0.13236618592E+03  0.47000000000E+01 0. -1.
          5    1    5    5  503    0 -0.41141222560E+01  0.29829023958E+02 -0.55780767993E+02  0.63563202799E+02  0.47000000000E+01 0. -1.
         -5    1    5    5    0  503 -0.25157256840E+02 -0.55179997248E+01 -0.10010084979E+04  0.10013508070E+04  0.47000000000E+01 0. -1.
<mgrwt>
<rscale>  0 0.26627464E+03</rscale>
<asrwt>0</asrwt>
<pdfrwt beam="1">  1        1 0.40175975E+00 0.26627464E+03</pdfrwt>
<pdfrwt beam="2">  1       -1 0.10442548E-02 0.26627464E+03</pdfrwt>
<totfact> 0.23610897E+03</totfact>
</mgrwt>
</event>
<event>
 9    1  0.7944303E-001  0.2739922E+03  0.7818608E-02  0.1099016E+00
          1   -1    0    0  501    0  0.00000000000E+00  0.00000000000E+00  0.27326975794E+04  0.27326975794E+04  0.00000000000E+00 0.  1.
         -1   -1    0    0    0  501 -0.00000000000E+00 -0.00000000000E+00 -0.68679130277E+01  0.68679130277E+01  0.00000000000E+00 0.  1.
         35    2    1    2    0    0  0.00000000000E+00  0.00000000000E+00  0.27258296664E+04  0.27395654924E+04  0.27399218461E+03 0.  0.
         25    2    3    3    0    0 -0.39026310540E+02  0.24052443892E+02  0.12993217147E+04  0.13065518489E+04  0.12938022508E+03 0.  0.
         25    2    3    3    0    0  0.39026310540E+02 -0.24052443892E+02  0.14265079517E+04  0.14330136435E+04  0.12845852769E+03 0.  0.
          5    1    4    4  502    0 -0.13524014694E+02  0.76743190381E+02  0.68751132273E+03  0.69192942206E+03  0.47000000000E+01 0. -1.
         -5    1    4    4    0  502 -0.25502295846E+02 -0.52690746489E+02  0.61181039194E+03  0.61462242682E+03  0.47000000000E+01 0. -1.
          5    1    5    5  503    0  0.38194198211E+01 -0.71755472976E+02  0.96613480559E+03  0.96881473381E+03  0.47000000000E+01 0.  1.
         -5    1    5    5    0  503  0.35206890719E+02  0.47703029084E+02  0.46037314610E+03  0.46419890972E+03  0.47000000000E+01 0.  1.
<mgrwt>
<rscale>  0 0.27399218E+03</rscale>
<asrwt>0</asrwt>
<pdfrwt beam="1">  1        1 0.42041415E+00 0.27399218E+03</pdfrwt>
<pdfrwt beam="2">  1       -1 0.10566042E-02 0.27399218E+03</pdfrwt>
<totfact> 0.19215005E+03</totfact>
</mgrwt>
</event>
<event>
 9    1  0.7944303E-001  0.2723126E+03  0.7818608E-02  0.1099963E+00
          2   -1    0    0  501    0  0.00000000000E+00  0.00000000000E+00  0.17029968867E+04  0.17029968867E+04  0.00000000000E+00 0. -1.
         -2   -1    0    0    0  501 -0.00000000000E+00 -0.00000000000E+00 -0.10885833546E+02  0.10885833546E+02  0.00000000000E+00 0. -1.
         35    2    1    2    0    0 -0.71054273576E-14 -0.71054273576E-14  0.16921110532E+04  0.17138827203E+04  0.27231261915E+03 0.  0.
         25    2    3    3    0    0 -0.48682621091E+02 -0.22179111219E+02  0.75513077427E+03  0.76704707378E+03  0.12359941979E+03 0.  0.
         25    2    3    3    0    0  0.48682621091E+02  0.22179111219E+02  0.93698027893E+03  0.94683564651E+03  0.12531475504E+03 0.  0.
          5    1    4    4  502    0 -0.25063892095E+02  0.71898450695E+01  0.69764535950E+03  0.69814828668E+03  0.47000000000E+01 0.  1.
         -5    1    4    4    0  502 -0.23618728996E+02 -0.29368956288E+02  0.57485414774E+02  0.68898787106E+02  0.47000000000E+01 0.  1.
          5    1    5    5  503    0 -0.59438252176E+01 -0.18659299147E+02  0.69742997605E+03  0.69772068909E+03  0.47000000000E+01 0.  1.
         -5    1    5    5    0  503  0.54626446308E+02  0.40838410365E+02  0.23955030288E+03  0.24911495742E+03  0.47000000000E+01 0.  1.
<mgrwt>
<rscale>  0 0.27231262E+03</rscale>
<asrwt>0</asrwt>
<pdfrwt beam="1">  1        2 0.26199931E+00 0.27231262E+03</pdfrwt>
<pdfrwt beam="2">  1       -2 0.16747450E-02 0.27231262E+03</pdfrwt>
<totfact> 0.10682192E+04</totfact>
</mgrwt>
</event>
<event>
 9    1  0.7944303E-001  0.2790392E+03  0.7818608E-02  0.1096215E+00
         -1   -1    0    0    0  501 -0.00000000000E+00  0.00000000000E+00  0.11668616065E+02  0.11668616065E+02  0.00000000000E+00 0. -1.
          1   -1    0    0  501    0  0.00000000000E+00 -0.00000000000E+00 -0.16682112513E+04  0.16682112513E+04  0.00000000000E+00 0. -1.
         35    2    1    2    0    0  0.17763568394E-14  0.00000000000E+00 -0.16565426352E+04  0.16798798674E+04  0.27903918439E+03 0.  0.
         25    2    3    3    0    0 -0.54676112402E+01 -0.22410743744E+02 -0.11716862779E+04  0.11785352780E+04  0.12475789148E+03 0.  0.
         25    2    3    3    0    0  0.54676112402E+01  0.22410743744E+02 -0.48485635732E+03  0.50134458934E+03  0.12541361098E+03 0.  0.
          5    1    4    4  502    0 -0.16172787098E+02 -0.16068463096E+02 -0.11616235017E+04  0.11618567056E+04  0.47000000000E+01 0.  1.
         -5    1    4    4    0  502  0.10705175857E+02 -0.63422806486E+01 -0.10062776184E+02  0.16678572436E+02  0.47000000000E+01 0.  1.
          5    1    5    5  503    0  0.35202079250E+02  0.27636203280E+01 -0.34613572762E+02  0.49669038648E+02  0.47000000000E+01 0. -1.
         -5    1    5    5    0  503 -0.29734468010E+02  0.19647123416E+02 -0.45024278456E+03  0.45167555069E+03  0.47000000000E+01 0. -1.
<mgrwt>
<rscale>  0 0.27903918E+03</rscale>
<asrwt>0</asrwt>
<pdfrwt beam="1">  1        1 0.25664810E+00 0.27903918E+03</pdfrwt>
<pdfrwt beam="2">  1       -1 0.17951702E-02 0.27903918E+03</pdfrwt>
<totfact> 0.44542015E+03</totfact>
</mgrwt>
</event>
<event>
 9    1  0.7944303E-001  0.2755560E+03  0.7818608E-02  0.1098141E+00
         -1   -1    0    0    0  501 -0.00000000000E+00  0.00000000000E+00  0.46477703428E+03  0.46477703428E+03  0.00000000000E+00 0.  1.
          1   -1    0    0  501    0  0.00000000000E+00 -0.00000000000E+00 -0.40842771351E+02  0.40842771351E+02  0.00000000000E+00 0.  1.
         35    2    1    2    0    0  0.71054273576E-14  0.35527136788E-14  0.42393426293E+03  0.50561980563E+03  0.27555603525E+03 0.  0.
         25    2    3    3    0    0 -0.51372664524E+02 -0.92114141626E+01  0.16299711863E+03  0.21158124087E+03  0.12439678451E+03 0.  0.
         25    2    3    3    0    0  0.51372664524E+02  0.92114141626E+01  0.26093714430E+03  0.29403856475E+03  0.12508590439E+03 0.  0.
          5    1    4    4  502    0 -0.14325233672E+02 -0.58461902846E+02  0.12555559368E+03  0.13931727642E+03  0.47000000000E+01 0. -1.
         -5    1    4    4    0  502 -0.37047430852E+02  0.49250488683E+02  0.37441524945E+02  0.72263964453E+02  0.47000000000E+01 0. -1.
          5    1    5    5  503    0  0.86778578219E+02  0.29266659804E+02  0.15034713719E+03  0.17610624826E+03  0.47000000000E+01 0.  1.
         -5    1    5    5    0  503 -0.35405913695E+02 -0.20055245641E+02  0.11059000711E+03  0.11793231649E+03  0.47000000000E+01 0.  1.
<mgrwt>
<rscale>  0 0.27555604E+03</rscale>
<asrwt>0</asrwt>
<pdfrwt beam="1">  1        1 0.62835036E-02 0.27555604E+03</pdfrwt>
<pdfrwt beam="2">  1       -1 0.71504155E-01 0.27555604E+03</pdfrwt>
<totfact> 0.24844101E+03</totfact>
</mgrwt>
</event>
<event>
 9    1  0.7944303E-001  0.2742420E+03  0.7818608E-02  0.1098876E+00
         -2   -1    0    0    0  501 -0.00000000000E+00  0.00000000000E+00  0.71910362572E+01  0.71910362572E+01  0.00000000000E+00 0.  1.
          2   -1    0    0  501    0  0.00000000000E+00 -0.00000000000E+00 -0.26146668694E+04  0.26146668694E+04  0.00000000000E+00 0.  1.
         35    2    1    2    0    0  0.71054273576E-14  0.00000000000E+00 -0.26074758332E+04  0.26218579057E+04  0.27424196804E+03 0.  0.
         25    2    3    3    0    0  0.42563622448E+02  0.89738802074E+00 -0.16638730006E+04  0.16690988878E+04  0.12492104661E+03 0.  0.
         25    2    3    3    0    0 -0.42563622448E+02 -0.89738802074E+00 -0.94360283252E+03  0.95275901783E+03  0.12470354147E+03 0.  0.
          5    1    4    4  502    0 -0.15322383741E+02  0.37749180484E+02 -0.11390332132E+04  0.11397712608E+04  0.47000000000E+01 0.  1.
         -5    1    4    4    0  502  0.57886006189E+02 -0.36851792463E+02 -0.52483978743E+03  0.52932762708E+03  0.47000000000E+01 0.  1.
          5    1    5    5  503    0 -0.70046759192E+00  0.57220027106E+02 -0.32823799819E+03  0.33322199149E+03  0.47000000000E+01 0.  1.
         -5    1    5    5    0  503 -0.41863154857E+02 -0.58117415127E+02 -0.61536483433E+03  0.61953702634E+03  0.47000000000E+01 0.  1.
<mgrwt>
<rscale>  0 0.27424197E+03</rscale>
<asrwt>0</asrwt>
<pdfrwt beam="1">  1        2 0.40225611E+00 0.27424197E+03</pdfrwt>
<pdfrwt beam="2">  1       -2 0.11063142E-02 0.27424197E+03</pdfrwt>
<totfact> 0.63801490E+03</totfact>
</mgrwt>
</event>
<event>
 9    1  0.7944303E-001  0.2762792E+03  0.7818608E-02  0.1097739E+00
         -2   -1    0    0    0  501 -0.00000000000E+00  0.00000000000E+00  0.43511155128E+02  0.43511155128E+02  0.00000000000E+00 0. -1.
          2   -1    0    0  501    0  0.00000000000E+00 -0.00000000000E+00 -0.43856673866E+03  0.43856673866E+03  0.00000000000E+00 0. -1.
         35    2    1    2    0    0  0.00000000000E+00  0.71054273576E-14 -0.39505558354E+03  0.48207789379E+03  0.27627917330E+03 0.  0.
         25    2    3    3    0    0 -0.18309451662E+02 -0.10595826354E+02 -0.29278862926E+03  0.31915838689E+03  0.12525728299E+03 0.  0.
         25    2    3    3    0    0  0.18309451662E+02  0.10595826354E+02 -0.10226695428E+03  0.16291950690E+03  0.12504690414E+03 0.  0.
          5    1    4    4  502    0 -0.11352102440E+02  0.50360002228E+02 -0.20820856026E+03  0.21456443000E+03  0.47000000000E+01 0. -1.
         -5    1    4    4    0  502 -0.69573492220E+01 -0.60955828582E+02 -0.84580069001E+02  0.10459395689E+03  0.47000000000E+01 0. -1.
          5    1    5    5  503    0 -0.12783769516E+02 -0.53602981817E+02 -0.42840892208E+02  0.69958105091E+02  0.47000000000E+01 0.  1.
         -5    1    5    5    0  503  0.31093221178E+02  0.64198808171E+02 -0.59426062068E+02  0.92961401811E+02  0.47000000000E+01 0.  1.
<mgrwt>
<rscale>  0 0.27627917E+03</rscale>
<asrwt>0</asrwt>
<pdfrwt beam="1">  1        2 0.67471808E-01 0.27627917E+03</pdfrwt>
<pdfrwt beam="2">  1       -2 0.66940237E-02 0.27627917E+03</pdfrwt>
<totfact> 0.89537247E+03</totfact>
</mgrwt>
</event>
<event>
 9    1  0.7944303E-001  0.2734607E+03  0.7818608E-02  0.1099315E+00
         -4   -1    0    0    0  501 -0.00000000000E+00  0.00000000000E+00  0.25532445441E+03  0.25532445441E+03  0.00000000000E+00 0.  1.
          4   -1    0    0  501    0  0.00000000000E+00 -0.00000000000E+00 -0.73221308166E+02  0.73221308166E+02  0.00000000000E+00 0.  1.
         35    2    1    2    0    0  0.71054273576E-14  0.00000000000E+00  0.18210314624E+03  0.32854576257E+03  0.27346071424E+03 0.  0.
         25    2    3    3    0    0  0.18915266335E+02 -0.21755345296E+02  0.14640176948E+03  0.19492986426E+03  0.12543162091E+03 0.  0.
         25    2    3    3    0    0 -0.18915266335E+02  0.21755345296E+02  0.35701376763E+02  0.13361589831E+03  0.12548919328E+03 0.  0.
          5    1    4    4  502    0  0.45282508589E+02  0.39295806070E+02  0.86184151179E+02  0.10509264424E+03  0.47000000000E+01 0. -1.
         -5    1    4    4    0  502 -0.26367242254E+02 -0.61051151366E+02  0.60217618297E+02  0.89837220018E+02  0.47000000000E+01 0. -1.
          5    1    5    5  503    0  0.42335652378E+02 -0.25419469039E+02  0.34781062837E+01  0.49725688449E+02  0.47000000000E+01 0. -1.
         -5    1    5    5    0  503 -0.61250918712E+02  0.47174814335E+02  0.32223270479E+02  0.83890209864E+02  0.47000000000E+01 0. -1.
<mgrwt>
<rscale>  0 0.27346071E+03</rscale>
<asrwt>0</asrwt>
<pdfrwt beam="1">  1        4 0.11264817E-01 0.27346071E+03</pdfrwt>
<pdfrwt beam="2">  1       -4 0.39280685E-01 0.27346071E+03</pdfrwt>
<totfact> 0.73169554E+02</totfact>
</mgrwt>
</event>
<event>
 9    1  0.7944303E-001  0.2809147E+03  0.7818608E-02  0.1095190E+00
         -2   -1    0    0    0  501 -0.00000000000E+00  0.00000000000E+00  0.36047980212E+02  0.36047980212E+02  0.00000000000E+00 0. -1.
          2   -1    0    0  501    0  0.00000000000E+00 -0.00000000000E+00 -0.54727792710E+03  0.54727792710E+03  0.00000000000E+00 0. -1.
         35    2    1    2    0    0  0.00000000000E+00 -0.35527136788E-14 -0.51122994689E+03  0.58332590731E+03  0.28091467663E+03 0.  0.
         25    2    3    3    0    0  0.21397523494E+02  0.19579375371E+02 -0.13916237939E+03  0.18978736699E+03  0.12574526185E+03 0.  0.
         25    2    3    3    0    0 -0.21397523494E+02 -0.19579375371E+02 -0.37206756749E+03  0.39353854032E+03  0.12488835810E+03 0.  0.
          5    1    4    4  502    0  0.50853630166E+02 -0.38357759773E+02 -0.67647784201E+02  0.93036133536E+02  0.47000000000E+01 0. -1.
         -5    1    4    4    0  502 -0.29456106672E+02  0.57937135144E+02 -0.71514595193E+02  0.96751233453E+02  0.47000000000E+01 0. -1.
          5    1    5    5  503    0 -0.18174417188E+02 -0.45967219427E+02 -0.50434347822E+02  0.70774346639E+02  0.47000000000E+01 0.  1.
         -5    1    5    5    0  503 -0.32231063065E+01  0.26387844057E+02 -0.32163321967E+03  0.32276419368E+03  0.47000000000E+01 0.  1.
<mgrwt>
<rscale>  0 0.28091468E+03</rscale>
<asrwt>0</asrwt>
<pdfrwt beam="1">  1        2 0.84196593E-01 0.28091468E+03</pdfrwt>
<pdfrwt beam="2">  1       -2 0.55458439E-02 0.28091468E+03</pdfrwt>
<totfact> 0.93421900E+03</totfact>
</mgrwt>
</event>
<event>
 9    1  0.7944303E-001  0.2707798E+03  0.7818608E-02  0.1100834E+00
          1   -1    0    0  501    0  0.00000000000E+00  0.00000000000E+00  0.62813893371E+03  0.62813893371E+03  0.00000000000E+00 0. -1.
         -1   -1    0    0    0  501 -0.00000000000E+00 -0.00000000000E+00 -0.29182111814E+02  0.29182111814E+02  0.00000000000E+00 0. -1.
         35    2    1    2    0    0 -0.17763568394E-14  0.00000000000E+00  0.59895682189E+03  0.65732104552E+03  0.27077976733E+03 0.  0.
         25    2    3    3    0    0 -0.15542139288E+02  0.33149012440E+01  0.18389065124E+03  0.22335390916E+03  0.12577221656E+03 0.  0.
         25    2    3    3    0    0  0.15542139288E+02 -0.33149012440E+01  0.41506617065E+03  0.43396713637E+03  0.12567817139E+03 0.  0.
          5    1    4    4  502    0 -0.28710999576E+02  0.54844113436E+02  0.14366168831E+03  0.15650229699E+03  0.47000000000E+01 0.  1.
         -5    1    4    4    0  502  0.13168860288E+02 -0.51529212192E+02  0.40228962928E+02  0.66851612162E+02  0.47000000000E+01 0.  1.
          5    1    5    5  503    0  0.21460949950E+02 -0.42655244421E+02  0.37226202936E+03  0.37534137895E+03  0.47000000000E+01 0.  1.
         -5    1    5    5    0  503 -0.59188106620E+01  0.39340343177E+02  0.42804141295E+02  0.58625757419E+02  0.47000000000E+01 0.  1.
<mgrwt>
<rscale>  0 0.27077977E+03</rscale>
<asrwt>0</asrwt>
<pdfrwt beam="1">  1        1 0.96636749E-01 0.27077977E+03</pdfrwt>
<pdfrwt beam="2">  1       -1 0.44895561E-02 0.27077977E+03</pdfrwt>
<totfact> 0.67935532E+03</totfact>
</mgrwt>
</event>
<event>
 9    1  0.7944303E-001  0.2728055E+03  0.7818608E-02  0.1099685E+00
         -1   -1    0    0    0  501 -0.00000000000E+00  0.00000000000E+00  0.79556597093E+02  0.79556597093E+02  0.00000000000E+00 0. -1.
          1   -1    0    0  501    0  0.00000000000E+00 -0.00000000000E+00 -0.23386761416E+03  0.23386761416E+03  0.00000000000E+00 0. -1.
         35    2    1    2    0    0  0.00000000000E+00  0.71054273576E-14 -0.15431101707E+03  0.31342421125E+03  0.27280550986E+03 0.  0.
         25    2    3    3    0    0  0.52683507660E+01  0.41939446057E+02 -0.39845721112E+02  0.13859598699E+03  0.12583518373E+03 0.  0.
         25    2    3    3    0    0 -0.52683507660E+01 -0.41939446057E+02 -0.11446529595E+03  0.17482822426E+03  0.12520355971E+03 0.  0.
          5    1    4    4  502    0 -0.99909298094E+01  0.48939224157E+02  0.35371488983E+02  0.61384839923E+02  0.47000000000E+01 0. -1.
         -5    1    4    4    0  502  0.15259280575E+02 -0.69997780993E+01 -0.75217210094E+02  0.77211147068E+02  0.47000000000E+01 0. -1.
          5    1    5    5  503    0 -0.10538628081E+02 -0.65199500368E+02 -0.92671580978E+01  0.66858116555E+02  0.47000000000E+01 0. -1.
         -5    1    5    5    0  503  0.52702773151E+01  0.23260054311E+02 -0.10519813786E+03  0.10797010771E+03  0.47000000000E+01 0. -1.
<mgrwt>
<rscale>  0 0.27280551E+03</rscale>
<asrwt>0</asrwt>
<pdfrwt beam="1">  1        1 0.35979632E-01 0.27280551E+03</pdfrwt>
<pdfrwt beam="2">  1       -1 0.12239477E-01 0.27280551E+03</pdfrwt>
<totfact> 0.52981852E+03</totfact>
</mgrwt>
</event>
<event>
 9    1  0.7944303E-001  0.2755721E+03  0.7818608E-02  0.1098132E+00
          3   -1    0    0  501    0  0.00000000000E+00  0.00000000000E+00  0.18795128156E+02  0.18795128156E+02  0.00000000000E+00 0. -1.
         -3   -1    0    0    0  501 -0.00000000000E+00 -0.00000000000E+00 -0.10101020100E+04  0.10101020100E+04  0.00000000000E+00 0. -1.
         35    2    1    2    0    0  0.00000000000E+00  0.35527136788E-14 -0.99130688180E+03  0.10288971381E+04  0.27557210837E+03 0.  0.
         25    2    3    3    0    0 -0.19572680397E+01  0.19023728376E+02 -0.28723723296E+03  0.31355014389E+03  0.12426878771E+03 0.  0.
         25    2    3    3    0    0  0.19572680397E+01 -0.19023728376E+02 -0.70406964884E+03  0.71534699421E+03  0.12506605684E+03 0.  0.
          5    1    4    4  502    0 -0.22825691326E+02  0.26215409426E+01  0.15546076386E+01  0.23503009729E+02  0.47000000000E+01 0. -1.
         -5    1    4    4    0  502  0.20868423286E+02  0.16402187433E+02 -0.28879184060E+03  0.29004713417E+03  0.47000000000E+01 0. -1.
          5    1    5    5  503    0 -0.19010902548E+02  0.19584258615E+02 -0.34137246689E+02  0.43959062918E+02  0.47000000000E+01 0.  1.
         -5    1    5    5    0  503  0.20968170587E+02 -0.38607986991E+02 -0.66993240215E+03  0.67138793129E+03  0.47000000000E+01 0.  1.
<mgrwt>
<rscale>  0 0.27557211E+03</rscale>
<asrwt>0</asrwt>
<pdfrwt beam="1">  1        3 0.28915579E-02 0.27557211E+03</pdfrwt>
<pdfrwt beam="2">  1       -3 0.15540033E+00 0.27557211E+03</pdfrwt>
<totfact> 0.42764988E+02</totfact>
</mgrwt>
</event>
<event>
 9    1  0.7944303E-001  0.2764993E+03  0.7818608E-02  0.1097616E+00
         -2   -1    0    0    0  501 -0.00000000000E+00  0.00000000000E+00  0.12906008866E+04  0.12906008866E+04  0.00000000000E+00 0.  1.
          2   -1    0    0  501    0  0.00000000000E+00 -0.00000000000E+00 -0.14809357653E+02  0.14809357653E+02  0.00000000000E+00 0.  1.
         35    2    1    2    0    0 -0.35527136788E-14 -0.71054273576E-14  0.12757915289E+04  0.13054102442E+04  0.27649933177E+03 0.  0.
         25    2    3    3    0    0 -0.30449055314E+02  0.26816205611E+02  0.43298554351E+03  0.45246668567E+03  0.12491343761E+03 0.  0.
         25    2    3    3    0    0  0.30449055314E+02 -0.26816205611E+02  0.84280598540E+03  0.85294355856E+03  0.12467770930E+03 0.  0.
          5    1    4    4  502    0 -0.44973205186E+02  0.17600949427E+02  0.43188393628E+03  0.43460120458E+03  0.47000000000E+01 0. -1.
         -5    1    4    4    0  502  0.14524149871E+02  0.92152561838E+01  0.11016072330E+01  0.17865481088E+02  0.47000000000E+01 0. -1.
          5    1    5    5  503    0 -0.13817046996E+02 -0.57271469321E+02  0.21980169239E+03  0.22760888815E+03  0.47000000000E+01 0.  1.
         -5    1    5    5    0  503  0.44266102310E+02  0.30455263710E+02  0.62300429302E+03  0.62533467041E+03  0.47000000000E+01 0.  1.
<mgrwt>
<rscale>  0 0.27649933E+03</rscale>
<asrwt>0</asrwt>
<pdfrwt beam="1">  1        2 0.22783637E-02 0.27649933E+03</pdfrwt>
<pdfrwt beam="2">  1       -2 0.19855389E+00 0.27649933E+03</pdfrwt>
<totfact> 0.67370193E+02</totfact>
</mgrwt>
</event>
<event>
 9    1  0.7944303E-001  0.2775943E+03  0.7818608E-02  0.1097010E+00
          1   -1    0    0  501    0  0.00000000000E+00  0.00000000000E+00  0.16616548565E+03  0.16616548565E+03  0.00000000000E+00 0.  1.
         -1   -1    0    0    0  501 -0.00000000000E+00 -0.00000000000E+00 -0.11593653728E+03  0.11593653728E+03  0.00000000000E+00 0.  1.
         35    2    1    2    0    0  0.00000000000E+00  0.00000000000E+00  0.50228948378E+02  0.28210202293E+03  0.27759431566E+03 0.  0.
         25    2    3    3    0    0  0.16047342017E+02  0.68561256607E+01  0.84750264843E+02  0.15178213363E+03  0.12470238591E+03 0.  0.
         25    2    3    3    0    0 -0.16047342017E+02 -0.68561256607E+01 -0.34521316465E+02  0.13031988930E+03  0.12444689073E+03 0.  0.
          5    1    4    4  502    0 -0.35820746967E+02  0.44243993642E+02  0.19631137324E+02  0.60399738736E+02  0.47000000000E+01 0. -1.
         -5    1    4    4    0  502  0.51868088984E+02 -0.37387867982E+02  0.65119127519E+02  0.91382394890E+02  0.47000000000E+01 0. -1.
          5    1    5    5  503    0 -0.83012323460E+01 -0.43855878328E+02 -0.66740973560E+02  0.80428204469E+02  0.47000000000E+01 0.  1.
         -5    1    5    5    0  503 -0.77461096712E+01  0.36999752667E+02  0.32219657094E+02  0.49891684836E+02  0.47000000000E+01 0.  1.
<mgrwt>
<rscale>  0 0.27759432E+03</rscale>
<asrwt>0</asrwt>
<pdfrwt beam="1">  1        1 0.25563921E-01 0.27759432E+03</pdfrwt>
<pdfrwt beam="2">  1       -1 0.17836390E-01 0.27759432E+03</pdfrwt>
<totfact> 0.44918310E+03</totfact>
</mgrwt>
</event>
<event>
 9    1  0.7944303E-001  0.2734662E+03  0.7818608E-02  0.1099312E+00
         -1   -1    0    0    0  501 -0.00000000000E+00  0.00000000000E+00  0.91725506483E+03  0.91725506483E+03  0.00000000000E+00 0.  1.
          1   -1    0    0  501    0  0.00000000000E+00 -0.00000000000E+00 -0.20382492531E+02  0.20382492531E+02  0.00000000000E+00 0.  1.
         35    2    1    2    0    0  0.00000000000E+00  0.00000000000E+00  0.89687257230E+03  0.93763755736E+03  0.27346622832E+03 0.  0.
         25    2    3    3    0    0  0.37139357154E+02  0.38666839625E+02  0.39492457133E+03  0.41751276912E+03  0.12440674822E+03 0.  0.
         25    2    3    3    0    0 -0.37139357154E+02 -0.38666839625E+02  0.50194800098E+03  0.52012478825E+03  0.12531377948E+03 0.  0.
          5    1    4    4  502    0 -0.26766964222E+01  0.75238794657E+02  0.16747612489E+03  0.18368011143E+03  0.47000000000E+01 0. -1.
         -5    1    4    4    0  502  0.39816053576E+02 -0.36571955032E+02  0.22744844643E+03  0.23383265769E+03  0.47000000000E+01 0. -1.
          5    1    5    5  503    0  0.30757721056E+02 -0.24676225575E+02  0.55170841550E+02  0.67976946611E+02  0.47000000000E+01 0.  1.
         -5    1    5    5    0  503 -0.67897078210E+02 -0.13990614050E+02  0.44677715943E+03  0.45214784164E+03  0.47000000000E+01 0.  1.
<mgrwt>
<rscale>  0 0.27346623E+03</rscale>
<asrwt>0</asrwt>
<pdfrwt beam="1">  1        1 0.31357688E-02 0.27346623E+03</pdfrwt>
<pdfrwt beam="2">  1       -1 0.14111613E+00 0.27346623E+03</pdfrwt>
<totfact> 0.14177435E+03</totfact>
</mgrwt>
</event>
<event>
 9    1  0.7944303E-001  0.2747104E+03  0.7818608E-02  0.1098614E+00
         -1   -1    0    0    0  501 -0.00000000000E+00  0.00000000000E+00  0.14747723117E+02  0.14747723117E+02  0.00000000000E+00 0.  1.
          1   -1    0    0  501    0  0.00000000000E+00 -0.00000000000E+00 -0.12792790411E+04  0.12792790411E+04  0.00000000000E+00 0.  1.
         35    2    1    2    0    0 -0.71054273576E-14 -0.71054273576E-14 -0.12645313180E+04  0.12940267643E+04  0.27471041544E+03 0.  0.
         25    2    3    3    0    0  0.35059014874E+02  0.45871265527E+02 -0.68779906887E+03  0.70136988546E+03  0.12457467469E+03 0.  0.
         25    2    3    3    0    0 -0.35059014874E+02 -0.45871265527E+02 -0.57673224915E+03  0.59265687879E+03  0.12364781131E+03 0.  0.
          5    1    4    4  502    0 -0.41927974751E+02 -0.60125308167E+01 -0.16778357835E+03  0.17311130742E+03  0.47000000000E+01 0.  1.
         -5    1    4    4    0  502  0.76986989624E+02  0.51883796344E+02 -0.52001549052E+03  0.52825857804E+03  0.47000000000E+01 0.  1.
          5    1    5    5  503    0 -0.25653327661E+02  0.38390429870E+02 -0.13280217484E+03  0.14067844884E+03  0.47000000000E+01 0.  1.
         -5    1    5    5    0  503 -0.94056872126E+01 -0.84261695397E+02 -0.44393007431E+03  0.45197842995E+03  0.47000000000E+01 0.  1.
<mgrwt>
<rscale>  0 0.27471042E+03</rscale>
<asrwt>0</asrwt>
<pdfrwt beam="1">  1        1 0.19681216E+00 0.27471042E+03</pdfrwt>
<pdfrwt beam="2">  1       -1 0.22688804E-02 0.27471042E+03</pdfrwt>
<totfact> 0.57450044E+03</totfact>
</mgrwt>
</event>
<event>
 9    1  0.7944303E-001  0.2705250E+03  0.7818608E-02  0.1100980E+00
          2   -1    0    0  501    0  0.00000000000E+00  0.00000000000E+00  0.57491769986E+03  0.57491769986E+03  0.00000000000E+00 0. -1.
         -2   -1    0    0    0  501 -0.00000000000E+00 -0.00000000000E+00 -0.31823581488E+02  0.31823581488E+02  0.00000000000E+00 0. -1.
         35    2    1    2    0    0 -0.71054273576E-14  0.00000000000E+00  0.54309411837E+03  0.60674128134E+03  0.27052497312E+03 0.  0.
         25    2    3    3    0    0  0.85159582405E+01  0.32893243771E+02  0.20440257184E+03  0.24212168900E+03  0.12525180191E+03 0.  0.
         25    2    3    3    0    0 -0.85159582405E+01 -0.32893243771E+02  0.33869154653E+03  0.36461959234E+03  0.13069428602E+03 0.  0.
          5    1    4    4  502    0 -0.33738709313E+02  0.12214645959E+01  0.18098089384E+03  0.18416288013E+03  0.47000000000E+01 0. -1.
         -5    1    4    4    0  502  0.42254667553E+02  0.31671779175E+02  0.23421678004E+02  0.57958808879E+02  0.47000000000E+01 0. -1.
          5    1    5    5  503    0  0.51084427695E+02 -0.87900419198E-01  0.66346111005E+02  0.83866101167E+02  0.47000000000E+01 0.  1.
         -5    1    5    5    0  503 -0.59600385936E+02 -0.32805343352E+02  0.27234543552E+03  0.28075349117E+03  0.47000000000E+01 0.  1.
<mgrwt>
<rscale>  0 0.27052497E+03</rscale>
<asrwt>0</asrwt>
<pdfrwt beam="1">  1        2 0.88448869E-01 0.27052497E+03</pdfrwt>
<pdfrwt beam="2">  1       -2 0.48959360E-02 0.27052497E+03</pdfrwt>
<totfact> 0.10660898E+04</totfact>
</mgrwt>
</event>
<event>
 9    1  0.7944303E-001  0.2743503E+03  0.7818608E-02  0.1098815E+00
         -1   -1    0    0    0  501 -0.00000000000E+00  0.00000000000E+00  0.28824022427E+02  0.28824022427E+02  0.00000000000E+00 0.  1.
          1   -1    0    0  501    0  0.00000000000E+00 -0.00000000000E+00 -0.65282418813E+03  0.65282418813E+03  0.00000000000E+00 0.  1.
         35    2    1    2    0    0  0.10658141036E-13  0.00000000000E+00 -0.62400016570E+03  0.68164821056E+03  0.27435028004E+03 0.  0.
         25    2    3    3    0    0  0.28778440194E+02  0.35194426996E+02 -0.39661116970E+03  0.41813970609E+03  0.12439271508E+03 0.  0.
         25    2    3    3    0    0 -0.28778440194E+02 -0.35194426996E+02 -0.22738899600E+03  0.26350850447E+03  0.12515642258E+03 0.  0.
          5    1    4    4  502    0 -0.43900580897E+02  0.34929526307E+02 -0.12807393757E+03  0.13990123765E+03  0.47000000000E+01 0.  1.
         -5    1    4    4    0  502  0.72679021091E+02  0.26490068811E+00 -0.26853723213E+03  0.27823846844E+03  0.47000000000E+01 0.  1.
          5    1    5    5  503    0 -0.36655640700E+02  0.26837927832E+02 -0.17777399971E+03  0.18354725641E+03  0.47000000000E+01 0.  1.
         -5    1    5    5    0  503  0.78772005061E+01 -0.62032354827E+02 -0.49614996299E+02  0.79961248058E+02  0.47000000000E+01 0.  1.
<mgrwt>
<rscale>  0 0.27435028E+03</rscale>
<asrwt>0</asrwt>
<pdfrwt beam="1">  1        1 0.10043448E+00 0.27435028E+03</pdfrwt>
<pdfrwt beam="2">  1       -1 0.44344656E-02 0.27435028E+03</pdfrwt>
<totfact> 0.65548511E+03</totfact>
</mgrwt>
</event>
<event>
 9    1  0.7944303E-001  0.2783426E+03  0.7818608E-02  0.1096598E+00
          2   -1    0    0  501    0  0.00000000000E+00  0.00000000000E+00  0.80806528280E+03  0.80806528280E+03  0.00000000000E+00 0.  1.
         -2   -1    0    0    0  501 -0.00000000000E+00 -0.00000000000E+00 -0.23969173698E+02  0.23969173698E+02  0.00000000000E+00 0.  1.
         35    2    1    2    0    0  0.00000000000E+00  0.35527136788E-14  0.78409610910E+03  0.83203445650E+03  0.27834264583E+03 0.  0.
         25    2    3    3    0    0 -0.38888395249E+02 -0.31005449628E+02  0.49685077670E+03  0.51486261651E+03  0.12549571458E+03 0.  0.
         25    2    3    3    0    0  0.38888395249E+02  0.31005449628E+02  0.28724533240E+03  0.31717183999E+03  0.12495779249E+03 0.  0.
          5    1    4    4  502    0  0.26402797832E+02 -0.45640921195E+02  0.34250398096E+03  0.34657072640E+03  0.47000000000E+01 0.  1.
         -5    1    4    4    0  502 -0.65291193081E+02  0.14635471567E+02  0.15434679574E+03  0.16829189011E+03  0.47000000000E+01 0.  1.
          5    1    5    5  503    0  0.55445777876E+02  0.33054912816E+02  0.56906581616E+02  0.86181845982E+02  0.47000000000E+01 0.  1.
         -5    1    5    5    0  503 -0.16557382627E+02 -0.20494631888E+01  0.23033875079E+03  0.23098999401E+03  0.47000000000E+01 0.  1.
<mgrwt>
<rscale>  0 0.27834265E+03</rscale>
<asrwt>0</asrwt>
<pdfrwt beam="1">  1        2 0.12431772E+00 0.27834265E+03</pdfrwt>
<pdfrwt beam="2">  1       -2 0.36875658E-02 0.27834265E+03</pdfrwt>
<totfact> 0.10851739E+04</totfact>
</mgrwt>
</event>
<event>
 9    1  0.7944303E-001  0.2739293E+03  0.7818608E-02  0.1099052E+00
          2   -1    0    0  501    0  0.00000000000E+00  0.00000000000E+00  0.18652448278E+03  0.18652448278E+03  0.00000000000E+00 0. -1.
         -2   -1    0    0    0  501 -0.00000000000E+00 -0.00000000000E+00 -0.10057296468E+03  0.10057296468E+03  0.00000000000E+00 0. -1.
         35    2    1    2    0    0  0.00000000000E+00  0.00000000000E+00  0.85951518098E+02  0.28709744746E+03  0.27392933555E+03 0.  0.
         25    2    3    3    0    0  0.19240053318E+02 -0.31388199955E+02  0.90426589951E+02  0.15821545872E+03  0.12449805002E+03 0.  0.
         25    2    3    3    0    0 -0.19240053318E+02  0.31388199955E+02 -0.44750718529E+01  0.12888198874E+03  0.12343071743E+03 0.  0.
          5    1    4    4  502    0 -0.47601750635E+02 -0.11474869760E+02  0.69689330153E+02  0.85301184263E+02  0.47000000000E+01 0. -1.
         -5    1    4    4    0  502  0.66841803953E+02 -0.19913330195E+02  0.20737259798E+02  0.72914274454E+02  0.47000000000E+01 0. -1.
          5    1    5    5  503    0  0.17050802666E+02  0.46310027903E+02  0.44038985214E+02  0.66308904188E+02  0.47000000000E+01 0.  1.
         -5    1    5    5    0  503 -0.36290855985E+02 -0.14921827948E+02 -0.48514057067E+02  0.62573084553E+02  0.47000000000E+01 0.  1.
<mgrwt>
<rscale>  0 0.27392934E+03</rscale>
<asrwt>0</asrwt>
<pdfrwt beam="1">  1        2 0.28696074E-01 0.27392934E+03</pdfrwt>
<pdfrwt beam="2">  1       -2 0.15472764E-01 0.27392934E+03</pdfrwt>
<totfact> 0.59431806E+03</totfact>
</mgrwt>
</event>
<event>
 9    1  0.7944303E-001  0.2749698E+03  0.7818608E-02  0.1098468E+00
         -2   -1    0    0    0  501 -0.00000000000E+00  0.00000000000E+00  0.44826122621E+02  0.44826122621E+02  0.00000000000E+00 0. -1.
          2   -1    0    0  501    0  0.00000000000E+00 -0.00000000000E+00 -0.42167593682E+03  0.42167593682E+03  0.00000000000E+00 0. -1.
         35    2    1    2    0    0  0.00000000000E+00 -0.71054273576E-14 -0.37684981420E+03  0.46650205944E+03  0.27496979653E+03 0.  0.
         25    2    3    3    0    0  0.47594681586E+02  0.34535116520E+02 -0.21909641126E+03  0.25714334699E+03  0.12108482766E+03 0.  0.
         25    2    3    3    0    0 -0.47594681586E+02 -0.34535116520E+02 -0.15775340294E+03  0.20935871245E+03  0.12444680128E+03 0.  0.
          5    1    4    4  502    0  0.29789959443E+02  0.12905549252E+02 -0.22562413502E+03  0.22799634906E+03  0.47000000000E+01 0.  1.
         -5    1    4    4    0  502  0.17804722143E+02  0.21629567268E+02  0.65277237600E+01  0.29146997929E+02  0.47000000000E+01 0.  1.
          5    1    5    5  503    0 -0.43112446253E+02  0.40480349610E+02 -0.91584372065E+02  0.10911979166E+03  0.47000000000E+01 0. -1.
         -5    1    5    5    0  503 -0.44822353330E+01 -0.75015466130E+02 -0.66169030875E+02  0.10023892078E+03  0.47000000000E+01 0. -1.
<mgrwt>
<rscale>  0 0.27496980E+03</rscale>
<asrwt>0</asrwt>
<pdfrwt beam="1">  1        2 0.64873222E-01 0.27496980E+03</pdfrwt>
<pdfrwt beam="2">  1       -2 0.68963264E-02 0.27496980E+03</pdfrwt>
<totfact> 0.89251410E+03</totfact>
</mgrwt>
</event>
<event>
 9    1  0.7944303E-001  0.2760592E+03  0.7818608E-02  0.1097861E+00
         -2   -1    0    0    0  501 -0.00000000000E+00  0.00000000000E+00  0.16090302256E+02  0.16090302256E+02  0.00000000000E+00 0.  1.
          2   -1    0    0  501    0  0.00000000000E+00 -0.00000000000E+00 -0.11840774837E+04  0.11840774837E+04  0.00000000000E+00 0.  1.
         35    2    1    2    0    0  0.71054273576E-14  0.00000000000E+00 -0.11679871814E+04  0.12001677860E+04  0.27605915748E+03 0.  0.
         25    2    3    3    0    0  0.48287982788E+02  0.95000268791E+01 -0.41659144896E+03  0.43716453901E+03  0.12305453681E+03 0.  0.
         25    2    3    3    0    0 -0.48287982788E+02 -0.95000268791E+01 -0.75139573249E+03  0.76300324695E+03  0.12311144650E+03 0.  0.
          5    1    4    4  502    0  0.71449476056E+01 -0.85452353589E+01 -0.37671830837E+03  0.37691225130E+03  0.47000000000E+01 0.  1.
         -5    1    4    4    0  502  0.41143035182E+02  0.18045262238E+02 -0.39873140590E+02  0.60252287705E+02  0.47000000000E+01 0.  1.
          5    1    5    5  503    0  0.35819835624E+02  0.66838562084E+01 -0.11182611401E+03  0.11770685763E+03  0.47000000000E+01 0.  1.
         -5    1    5    5    0  503 -0.84107818412E+02 -0.16183883088E+02 -0.63956961848E+03  0.64529638932E+03  0.47000000000E+01 0.  1.
<mgrwt>
<rscale>  0 0.27605916E+03</rscale>
<asrwt>0</asrwt>
<pdfrwt beam="1">  1        2 0.18216583E+00 0.27605916E+03</pdfrwt>
<pdfrwt beam="2">  1       -2 0.24754302E-02 0.27605916E+03</pdfrwt>
<totfact> 0.11493127E+04</totfact>
</mgrwt>
</event>
<event>
 9    1  0.7944303E-001  0.2745161E+03  0.7818608E-02  0.1098722E+00
         -1   -1    0    0    0  501 -0.00000000000E+00  0.00000000000E+00  0.30385934533E+02  0.30385934533E+02  0.00000000000E+00 0. -1.
          1   -1    0    0  501    0  0.00000000000E+00 -0.00000000000E+00 -0.62001601194E+03  0.62001601194E+03  0.00000000000E+00 0. -1.
         35    2    1    2    0    0  0.71054273576E-14 -0.88817841970E-15 -0.58963007741E+03  0.65040194647E+03  0.27451605380E+03 0.  0.
         25    2    3    3    0    0 -0.35212264720E+02  0.50573555769E+01 -0.17618456826E+03  0.21895254946E+03  0.12503494066E+03 0.  0.
         25    2    3    3    0    0  0.35212264720E+02 -0.50573555769E+01 -0.41344550914E+03  0.43144939702E+03  0.11809281402E+03 0.  0.
          5    1    4    4  502    0 -0.14584232140E+02 -0.15185506331E+01 -0.19143675668E+03  0.19205501199E+03  0.47000000000E+01 0.  1.
         -5    1    4    4    0  502 -0.20628032580E+02  0.65759062100E+01  0.15252188410E+02  0.26897537469E+02  0.47000000000E+01 0.  1.
          5    1    5    5  503    0  0.65501260732E+01 -0.22845809442E+02 -0.94241962863E+01  0.25995011758E+02  0.47000000000E+01 0. -1.
         -5    1    5    5    0  503  0.28662138647E+02  0.17788453865E+02 -0.40402131286E+03  0.40545438526E+03  0.47000000000E+01 0. -1.
<mgrwt>
<rscale>  0 0.27451605E+03</rscale>
<asrwt>0</asrwt>
<pdfrwt beam="1">  1        1 0.95387070E-01 0.27451605E+03</pdfrwt>
<pdfrwt beam="2">  1       -1 0.46747596E-02 0.27451605E+03</pdfrwt>
<totfact> 0.65161526E+03</totfact>
</mgrwt>
</event>
<event>
 9    1  0.7944303E-001  0.2712623E+03  0.7818608E-02  0.1100559E+00
         -1   -1    0    0    0  501 -0.00000000000E+00  0.00000000000E+00  0.19997210843E+02  0.19997210843E+02  0.00000000000E+00 0. -1.
          1   -1    0    0  501    0  0.00000000000E+00 -0.00000000000E+00 -0.91991888976E+03  0.91991888976E+03  0.00000000000E+00 0. -1.
         35    2    1    2    0    0  0.71054273576E-14  0.71054273576E-14 -0.89992167892E+03  0.93991610060E+03  0.27126232320E+03 0.  0.
         25    2    3    3    0    0 -0.15910683590E+02 -0.48832731511E+02 -0.43547288341E+03  0.45605364602E+03  0.12534157467E+03 0.  0.
         25    2    3    3    0    0  0.15910683590E+02  0.48832731511E+02 -0.46444879551E+03  0.48386245459E+03  0.12558823907E+03 0.  0.
          5    1    4    4  502    0 -0.46124103601E+02  0.27019816903E+02 -0.17531121472E+03  0.18334016321E+03  0.47000000000E+01 0.  1.
         -5    1    4    4    0  502  0.30213420011E+02 -0.75852548414E+02 -0.26016166869E+03  0.27271348281E+03  0.47000000000E+01 0.  1.
          5    1    5    5  503    0  0.48098908253E+02  0.63005795278E+01 -0.38488582243E+03  0.38795926150E+03  0.47000000000E+01 0. -1.
         -5    1    5    5    0  503 -0.32188224664E+02  0.42532151983E+02 -0.79562973079E+02  0.95903193088E+02  0.47000000000E+01 0. -1.
<mgrwt>
<rscale>  0 0.27126232E+03</rscale>
<asrwt>0</asrwt>
<pdfrwt beam="1">  1        1 0.14152598E+00 0.27126232E+03</pdfrwt>
<pdfrwt beam="2">  1       -1 0.30764940E-02 0.27126232E+03</pdfrwt>
<totfact> 0.66834283E+03</totfact>
</mgrwt>
</event>
<event>
 9    1  0.7944303E-001  0.2695728E+03  0.7818608E-02  0.1101524E+00
         -2   -1    0    0    0  501 -0.00000000000E+00  0.00000000000E+00  0.20268896365E+02  0.20268896365E+02  0.00000000000E+00 0. -1.
          2   -1    0    0  501    0  0.00000000000E+00 -0.00000000000E+00 -0.89631759628E+03  0.89631759628E+03  0.00000000000E+00 0. -1.
         35    2    1    2    0    0  0.71054273576E-14  0.00000000000E+00 -0.87604869992E+03  0.91658649265E+03  0.26957276175E+03 0.  0.
         25    2    3    3    0    0 -0.43490514423E+02  0.14545998981E+02 -0.48994328995E+03  0.50777444569E+03  0.12524954852E+03 0.  0.
         25    2    3    3    0    0  0.43490514423E+02 -0.14545998981E+02 -0.38610540997E+03  0.40881204696E+03  0.12628100092E+03 0.  0.
          5    1    4    4  502    0 -0.38717329934E+01  0.54660907820E+02 -0.10344361527E+03  0.11715577962E+03  0.47000000000E+01 0. -1.
         -5    1    4    4    0  502 -0.39618781430E+02 -0.40114908839E+02 -0.38649967468E+03  0.39061866607E+03  0.47000000000E+01 0. -1.
          5    1    5    5  503    0  0.27175290129E+02  0.42561263464E+02 -0.66133502997E+02  0.83340792892E+02  0.47000000000E+01 0. -1.
         -5    1    5    5    0  503  0.16315224294E+02 -0.57107262445E+02 -0.31997190698E+03  0.32547125406E+03  0.47000000000E+01 0. -1.
<mgrwt>
<rscale>  0 0.26957276E+03</rscale>
<asrwt>0</asrwt>
<pdfrwt beam="1">  1        2 0.13789498E+00 0.26957276E+03</pdfrwt>
<pdfrwt beam="2">  1       -2 0.31182926E-02 0.26957276E+03</pdfrwt>
<totfact> 0.12163751E+04</totfact>
</mgrwt>
</event>
<event>
 9    1  0.7944303E-001  0.2743458E+03  0.7818608E-02  0.1098818E+00
          2   -1    0    0  501    0  0.00000000000E+00  0.00000000000E+00  0.89585005180E+03  0.89585005180E+03  0.00000000000E+00 0. -1.
         -2   -1    0    0    0  501 -0.00000000000E+00 -0.00000000000E+00 -0.21003968405E+02  0.21003968405E+02  0.00000000000E+00 0. -1.
         35    2    1    2    0    0  0.35527136788E-14  0.21316282073E-13  0.87484608339E+03  0.91685402020E+03  0.27434581231E+03 0.  0.
         25    2    3    3    0    0  0.28450480532E+02  0.38211345709E+02  0.53824596347E+03  0.55490568440E+03  0.12626188895E+03 0.  0.
         25    2    3    3    0    0 -0.28450480532E+02 -0.38211345709E+02  0.33660011992E+03  0.36194833580E+03  0.12424741558E+03 0.  0.
          5    1    4    4  502    0 -0.14379160976E+02  0.68134587714E+02  0.41696439200E+03  0.42276527354E+03  0.47000000000E+01 0.  1.
         -5    1    4    4    0  502  0.42829641508E+02 -0.29923242005E+02  0.12128157147E+03  0.13214041086E+03  0.47000000000E+01 0.  1.
          5    1    5    5  503    0 -0.22726255074E+02 -0.82880954341E+02  0.24682436823E+03  0.26140025634E+03  0.47000000000E+01 0.  1.
         -5    1    5    5    0  503 -0.57242254580E+01  0.44669608632E+02  0.89775751689E+02  0.10054807946E+03  0.47000000000E+01 0.  1.
<mgrwt>
<rscale>  0 0.27434581E+03</rscale>
<asrwt>0</asrwt>
<pdfrwt beam="1">  1        2 0.13782306E+00 0.27434581E+03</pdfrwt>
<pdfrwt beam="2">  1       -2 0.32313804E-02 0.27434581E+03</pdfrwt>
<totfact> 0.11549611E+04</totfact>
</mgrwt>
</event>
<event>
 9    1  0.7944303E-001  0.2756446E+03  0.7818608E-02  0.1098092E+00
         -4   -1    0    0    0  501 -0.00000000000E+00  0.00000000000E+00  0.94434455715E+03  0.94434455715E+03  0.00000000000E+00 0.  1.
          4   -1    0    0  501    0  0.00000000000E+00 -0.00000000000E+00 -0.20114465860E+02  0.20114465860E+02  0.00000000000E+00 0.  1.
         35    2    1    2    0    0 -0.14210854715E-13  0.35527136788E-14  0.92423009129E+03  0.96445902301E+03  0.27564459984E+03 0.  0.
         25    2    3    3    0    0  0.39595913650E+02 -0.20667369200E+02  0.61278443589E+03  0.62707774000E+03  0.12540634195E+03 0.  0.
         25    2    3    3    0    0 -0.39595913650E+02  0.20667369200E+02  0.31144565540E+03  0.33738128301E+03  0.12178980800E+03 0.  0.
          5    1    4    4  502    0  0.64963105583E+02  0.78766589576E+01  0.16384004002E+03  0.17648766404E+03  0.47000000000E+01 0.  1.
         -5    1    4    4    0  502 -0.25367191933E+02 -0.28544028157E+02  0.44894439587E+03  0.45059007596E+03  0.47000000000E+01 0.  1.
          5    1    5    5  503    0 -0.17996946139E+02 -0.50285246898E+02  0.10364274479E+03  0.11668935116E+03  0.47000000000E+01 0. -1.
         -5    1    5    5    0  503 -0.21598967511E+02  0.70952616097E+02  0.20780291061E+03  0.22069193186E+03  0.47000000000E+01 0. -1.
<mgrwt>
<rscale>  0 0.27564460E+03</rscale>
<asrwt>0</asrwt>
<pdfrwt beam="1">  1        4 0.30945339E-02 0.27564460E+03</pdfrwt>
<pdfrwt beam="2">  1       -4 0.14528374E+00 0.27564460E+03</pdfrwt>
<totfact> 0.33021836E+02</totfact>
</mgrwt>
</event>
<event>
 9    1  0.7944303E-001  0.2749083E+03  0.7818608E-02  0.1098503E+00
         -2   -1    0    0    0  501 -0.00000000000E+00  0.00000000000E+00  0.72281234683E+02  0.72281234683E+02  0.00000000000E+00 0.  1.
          2   -1    0    0  501    0  0.00000000000E+00 -0.00000000000E+00 -0.26139064260E+03  0.26139064260E+03  0.00000000000E+00 0.  1.
         35    2    1    2    0    0  0.71054273576E-14  0.00000000000E+00 -0.18910940792E+03  0.33367187728E+03  0.27490826384E+03 0.  0.
         25    2    3    3    0    0 -0.37800486454E+02 -0.26412087735E+02 -0.13482740325E+03  0.18984676785E+03  0.12544676736E+03 0.  0.
         25    2    3    3    0    0  0.37800486454E+02  0.26412087735E+02 -0.54282004669E+02  0.14382510943E+03  0.12495059391E+03 0.  0.
          5    1    4    4  502    0  0.22202367345E+02 -0.17861185909E+02 -0.12496765146E+03  0.12826133863E+03  0.47000000000E+01 0. -1.
         -5    1    4    4    0  502 -0.60002853799E+02 -0.85509018261E+01 -0.98597517924E+01  0.61585429214E+02  0.47000000000E+01 0. -1.
          5    1    5    5  503    0  0.19108747846E+02 -0.47308740940E+02 -0.17402332584E+01  0.51267724987E+02  0.47000000000E+01 0.  1.
         -5    1    5    5    0  503  0.18691738608E+02  0.73720828675E+02 -0.52541771410E+02  0.92557384447E+02  0.47000000000E+01 0.  1.
<mgrwt>
<rscale>  0 0.27490826E+03</rscale>
<asrwt>0</asrwt>
<pdfrwt beam="1">  1        2 0.40213944E-01 0.27490826E+03</pdfrwt>
<pdfrwt beam="2">  1       -2 0.11120190E-01 0.27490826E+03</pdfrwt>
<totfact> 0.70520173E+03</totfact>
</mgrwt>
</event>
<event>
 9    1  0.7944303E-001  0.2745130E+03  0.7818608E-02  0.1098724E+00
          1   -1    0    0  501    0  0.00000000000E+00  0.00000000000E+00  0.64698365134E+03  0.64698365134E+03  0.00000000000E+00 0. -1.
         -1   -1    0    0    0  501 -0.00000000000E+00 -0.00000000000E+00 -0.29118729153E+02  0.29118729153E+02  0.00000000000E+00 0. -1.
         35    2    1    2    0    0  0.00000000000E+00 -0.71054273576E-14  0.61786492219E+03  0.67610238049E+03  0.27451296297E+03 0.  0.
         25    2    3    3    0    0 -0.11299424856E+02 -0.37995810573E+02  0.39939699568E+03  0.42152119977E+03  0.12880529134E+03 0.  0.
         25    2    3    3    0    0  0.11299424856E+02  0.37995810573E+02  0.21846792651E+03  0.25458118072E+03  0.12454711575E+03 0.  0.
          5    1    4    4  502    0 -0.36943277445E+01  0.17345128108E+02  0.13903083695E+00  0.18346957680E+02  0.47000000000E+01 0. -1.
         -5    1    4    4    0  502 -0.76050971118E+01 -0.55340938681E+02  0.39925796484E+03  0.40317424209E+03  0.47000000000E+01 0. -1.
          5    1    5    5  503    0 -0.54553173939E+02  0.16270625198E+01  0.80583306585E+02  0.97439496199E+02  0.47000000000E+01 0.  1.
         -5    1    5    5    0  503  0.65852598795E+02  0.36368748054E+02  0.13788461992E+03  0.15714168452E+03  0.47000000000E+01 0.  1.
<mgrwt>
<rscale>  0 0.27451296E+03</rscale>
<asrwt>0</asrwt>
<pdfrwt beam="1">  1        1 0.99535935E-01 0.27451296E+03</pdfrwt>
<pdfrwt beam="2">  1       -1 0.44798050E-02 0.27451296E+03</pdfrwt>
<totfact> 0.65392957E+03</totfact>
</mgrwt>
</event>
<event>
 9    1  0.7944303E-001  0.2754969E+03  0.7818608E-02  0.1098174E+00
          2   -1    0    0  501    0  0.00000000000E+00  0.00000000000E+00  0.25633633536E+03  0.25633633536E+03  0.00000000000E+00 0.  1.
         -2   -1    0    0    0  501 -0.00000000000E+00 -0.00000000000E+00 -0.74022396398E+02  0.74022396398E+02  0.00000000000E+00 0.  1.
         35    2    1    2    0    0 -0.71054273576E-14  0.71054273576E-14  0.18231393897E+03  0.33035873176E+03  0.27549685898E+03 0.  0.
         25    2    3    3    0    0 -0.49758902179E+02  0.26831203318E+02  0.12580362030E+03  0.18619641952E+03  0.12508674569E+03 0.  0.
         25    2    3    3    0    0  0.49758902179E+02 -0.26831203318E+02  0.56510318669E+02  0.14416231224E+03  0.11997289000E+03 0.  0.
          5    1    4    4  502    0 -0.64337592214E+02  0.60050332577E+02  0.48315938116E+02  0.10050814937E+03  0.47000000000E+01 0. -1.
         -5    1    4    4    0  502  0.14578690034E+02 -0.33219129259E+02  0.77487682180E+02  0.85688270151E+02  0.47000000000E+01 0. -1.
          5    1    5    5  503    0  0.72351750380E+02 -0.58144589127E+02  0.32535631014E+02  0.98469418163E+02  0.47000000000E+01 0. -1.
         -5    1    5    5    0  503 -0.22592848201E+02  0.31313385809E+02  0.23974687656E+02  0.45692894074E+02  0.47000000000E+01 0. -1.
<mgrwt>
<rscale>  0 0.27549686E+03</rscale>
<asrwt>0</asrwt>
<pdfrwt beam="1">  1        2 0.39436359E-01 0.27549686E+03</pdfrwt>
<pdfrwt beam="2">  1       -2 0.11388061E-01 0.27549686E+03</pdfrwt>
<totfact> 0.69325307E+03</totfact>
</mgrwt>
</event>
<event>
 9    1  0.7944303E-001  0.2747494E+03  0.7818608E-02  0.1098592E+00
          2   -1    0    0  501    0  0.00000000000E+00  0.00000000000E+00  0.29627992092E+04  0.29627992092E+04  0.00000000000E+00 0.  1.
         -2   -1    0    0    0  501 -0.00000000000E+00 -0.00000000000E+00 -0.63695873727E+01  0.63695873727E+01  0.00000000000E+00 0.  1.
         35    2    1    2    0    0  0.00000000000E+00 -0.17763568394E-14  0.29564296219E+04  0.29691687966E+04  0.27474940168E+03 0.  0.
         25    2    3    3    0    0 -0.30860856783E+02  0.40395159469E+00  0.20026789376E+04  0.20066171750E+04  0.12180724290E+03 0.  0.
         25    2    3    3    0    0  0.30860856783E+02 -0.40395159469E+00  0.95375068431E+03  0.96255162161E+03  0.12614555396E+03 0.  0.
          5    1    4    4  502    0 -0.77134403911E+02  0.10176526736E+02  0.11906178556E+04  0.11931664788E+04  0.47000000000E+01 0.  1.
         -5    1    4    4    0  502  0.46273547128E+02 -0.97725751412E+01  0.81206108195E+03  0.81345069624E+03  0.47000000000E+01 0.  1.
          5    1    5    5  503    0  0.39305241528E+02 -0.21908432275E+02  0.92145981671E+03  0.92256987010E+03  0.47000000000E+01 0. -1.
         -5    1    5    5    0  503 -0.84443847445E+01  0.21504480680E+02  0.32290867608E+02  0.39981751511E+02  0.47000000000E+01 0. -1.
<mgrwt>
<rscale>  0 0.27474940E+03</rscale>
<asrwt>0</asrwt>
<pdfrwt beam="1">  1        2 0.45581416E+00 0.27474940E+03</pdfrwt>
<pdfrwt beam="2">  1       -2 0.97993889E-03 0.27474940E+03</pdfrwt>
<totfact> 0.48128882E+03</totfact>
</mgrwt>
</event>
<event>
 9    1  0.7944303E-001  0.3044892E+03  0.7818608E-02  0.1083018E+00
          1   -1    0    0  501    0  0.00000000000E+00  0.00000000000E+00  0.55539950884E+03  0.55539950884E+03  0.00000000000E+00 0.  1.
         -1   -1    0    0    0  501 -0.00000000000E+00 -0.00000000000E+00 -0.41732878526E+02  0.41732878526E+02  0.00000000000E+00 0.  1.
         35    2    1    2    0    0  0.00000000000E+00  0.00000000000E+00  0.51366663032E+03  0.59713238737E+03  0.30448921318E+03 0.  0.
         25    2    3    3    0    0  0.74197239423E+02 -0.14153087606E+02  0.34095948147E+03  0.37088334408E+03  0.12488213117E+03 0.  0.
         25    2    3    3    0    0 -0.74197239423E+02  0.14153087606E+02  0.17270714884E+03  0.22624904328E+03  0.12512126158E+03 0.  0.
          5    1    4    4  502    0 -0.31468053017E+02  0.12851700886E+02  0.55358085610E+02  0.65130731754E+02  0.47000000000E+01 0. -1.
         -5    1    4    4    0  502  0.10566529244E+03 -0.27004788493E+02  0.28560139586E+03  0.30575261233E+03  0.47000000000E+01 0. -1.
          5    1    5    5  503    0 -0.77314352964E+02  0.42818006532E+02  0.17585007692E+03  0.19686602147E+03  0.47000000000E+01 0.  1.
         -5    1    5    5    0  503  0.31171135415E+01 -0.28664918925E+02 -0.31429280788E+01  0.29383021811E+02  0.47000000000E+01 0.  1.
<mgrwt>
<rscale>  0 0.30448921E+03</rscale>
<asrwt>0</asrwt>
<pdfrwt beam="1">  1        1 0.85446073E-01 0.30448921E+03</pdfrwt>
<pdfrwt beam="2">  1       -1 0.64204432E-02 0.30448921E+03</pdfrwt>
<totfact> 0.47181054E+03</totfact>
</mgrwt>
</event>
<event>
 9    1  0.7944303E-001  0.2775581E+03  0.7818608E-02  0.1097030E+00
         -2   -1    0    0    0  501 -0.00000000000E+00  0.00000000000E+00  0.84834397873E+01  0.84834397873E+01  0.00000000000E+00 0. -1.
          2   -1    0    0  501    0  0.00000000000E+00 -0.00000000000E+00 -0.22702611033E+04  0.22702611033E+04  0.00000000000E+00 0. -1.
         35    2    1    2    0    0 -0.71054273576E-14  0.00000000000E+00 -0.22617776635E+04  0.22787445431E+04  0.27755809029E+03 0.  0.
         25    2    3    3    0    0  0.20175358393E+02 -0.45197158466E+02 -0.84252317373E+03  0.85311649799E+03  0.12454971958E+03 0.  0.
         25    2    3    3    0    0 -0.20175358393E+02  0.45197158466E+02 -0.14192544898E+04  0.14256280451E+04  0.12522854301E+03 0.  0.
          5    1    4    4  502    0  0.56209959988E+02 -0.67529862562E+02 -0.47054958539E+03  0.47870538356E+03  0.47000000000E+01 0.  1.
         -5    1    4    4    0  502 -0.36034601594E+02  0.22332704097E+02 -0.37197358834E+03  0.37441111443E+03  0.47000000000E+01 0.  1.
          5    1    5    5  503    0  0.22051801060E+02  0.11893774989E+02 -0.11833854870E+04  0.11836600208E+04  0.47000000000E+01 0. -1.
         -5    1    5    5    0  503 -0.42227159453E+02  0.33303383477E+02 -0.23586900273E+03  0.24196802433E+03  0.47000000000E+01 0. -1.
<mgrwt>
<rscale>  0 0.27755809E+03</rscale>
<asrwt>0</asrwt>
<pdfrwt beam="1">  1        2 0.34927126E+00 0.27755809E+03</pdfrwt>
<pdfrwt beam="2">  1       -2 0.13051434E-02 0.27755809E+03</pdfrwt>
<totfact> 0.77243585E+03</totfact>
</mgrwt>
</event>
<event>
 9    1  0.7944303E-001  0.2501114E+03  0.7818608E-02  0.1113234E+00
         -2   -1    0    0    0  501 -0.00000000000E+00  0.00000000000E+00  0.83508902771E+02  0.83508902771E+02  0.00000000000E+00 0.  1.
          2   -1    0    0  501    0  0.00000000000E+00 -0.00000000000E+00 -0.18727262972E+03  0.18727262972E+03  0.00000000000E+00 0.  1.
         35    2    1    2    0    0  0.00000000000E+00  0.00000000000E+00 -0.10376372695E+03  0.27078153249E+03  0.25011142978E+03 0.  0.
         25    2    3    3    0    0  0.10322458790E+02  0.40782115952E+00 -0.53389000263E+02  0.13566882249E+03  0.12429370287E+03 0.  0.
         25    2    3    3    0    0 -0.10322458790E+02 -0.40782115952E+00 -0.50374726687E+02  0.13511271000E+03  0.12494443501E+03 0.  0.
          5    1    4    4  502    0  0.59216108754E+02 -0.29757309616E+02 -0.21715193646E+02  0.69897672683E+02  0.47000000000E+01 0. -1.
         -5    1    4    4    0  502 -0.48893649964E+02  0.30165130775E+02 -0.31673806618E+02  0.65771149809E+02  0.47000000000E+01 0. -1.
          5    1    5    5  503    0  0.41242470453E+02  0.13120453001E+02 -0.66265832521E+02  0.79286431472E+02  0.47000000000E+01 0. -1.
         -5    1    5    5    0  503 -0.51564929242E+02 -0.13528274161E+02  0.15891105834E+02  0.55826278527E+02  0.47000000000E+01 0. -1.
<mgrwt>
<rscale>  0 0.25011143E+03</rscale>
<asrwt>0</asrwt>
<pdfrwt beam="1">  1        2 0.28811174E-01 0.25011143E+03</pdfrwt>
<pdfrwt beam="2">  1       -2 0.12847523E-01 0.25011143E+03</pdfrwt>
<totfact> 0.79973333E+03</totfact>
</mgrwt>
</event>
<event>
 9    1  0.7944303E-001  0.2805628E+03  0.7818608E-02  0.1095382E+00
         -1   -1    0    0    0  501 -0.00000000000E+00  0.00000000000E+00  0.34440459376E+02  0.34440459376E+02  0.00000000000E+00 0.  1.
          1   -1    0    0  501    0  0.00000000000E+00 -0.00000000000E+00 -0.57138813136E+03  0.57138813136E+03  0.00000000000E+00 0.  1.
         35    2    1    2    0    0  0.53290705182E-14  0.00000000000E+00 -0.53694767198E+03  0.60582859073E+03  0.28056278959E+03 0.  0.
         25    2    3    3    0    0 -0.15903198673E+02  0.33524289330E+02 -0.19450462416E+03  0.23784980565E+03  0.13177136079E+03 0.  0.
         25    2    3    3    0    0  0.15903198673E+02 -0.33524289330E+02 -0.34244304782E+03  0.36797878508E+03  0.12947723957E+03 0.  0.
          5    1    4    4  502    0  0.28943349334E+02 -0.40330912331E+02 -0.81076895413E+02  0.95183259715E+02  0.47000000000E+01 0. -1.
         -5    1    4    4    0  502 -0.44846548007E+02  0.73855201661E+02 -0.11342772875E+03  0.14266654593E+03  0.47000000000E+01 0. -1.
          5    1    5    5  503    0  0.48311296426E+01 -0.23855241447E+02  0.39623729251E+00  0.24792324661E+02  0.47000000000E+01 0. -1.
         -5    1    5    5    0  503  0.11072069030E+02 -0.96690478827E+01 -0.34283928511E+03  0.34318646042E+03  0.47000000000E+01 0. -1.
<mgrwt>
<rscale>  0 0.28056279E+03</rscale>
<asrwt>0</asrwt>
<pdfrwt beam="1">  1        1 0.87905863E-01 0.28056279E+03</pdfrwt>
<pdfrwt beam="2">  1       -1 0.52985324E-02 0.28056279E+03</pdfrwt>
<totfact> 0.60525046E+03</totfact>
</mgrwt>
</event>
<event>
 9    1  0.7944303E-001  0.2732408E+03  0.7818608E-02  0.1099439E+00
          3   -1    0    0  501    0  0.00000000000E+00  0.00000000000E+00  0.93820950276E+02  0.93820950276E+02  0.00000000000E+00 0.  1.
         -3   -1    0    0    0  501 -0.00000000000E+00 -0.00000000000E+00 -0.19894416581E+03  0.19894416581E+03  0.00000000000E+00 0.  1.
         35    2    1    2    0    0  0.71054273576E-14 -0.35527136788E-14 -0.10512321554E+03  0.29276511609E+03  0.27324077799E+03 0.  0.
         25    2    3    3    0    0  0.20348343640E+02 -0.63746047680E+01 -0.10618120926E+03  0.16648540549E+03  0.12644465337E+03 0.  0.
         25    2    3    3    0    0 -0.20348343640E+02  0.63746047680E+01  0.10579937206E+01  0.12627971060E+03  0.12446186277E+03 0.  0.
          5    1    4    4  502    0  0.69978691250E+02  0.82531972766E+01 -0.84666735783E+02  0.11025279426E+03  0.47000000000E+01 0.  1.
         -5    1    4    4    0  502 -0.49630347610E+02 -0.14627802045E+02 -0.21514473475E+02  0.56232611227E+02  0.47000000000E+01 0.  1.
          5    1    5    5  503    0 -0.36694297329E+02  0.59731954472E+02 -0.30153539574E+00  0.70260648766E+02  0.47000000000E+01 0.  1.
         -5    1    5    5    0  503  0.16345953689E+02 -0.53357349704E+02  0.13595291163E+01  0.56019061834E+02  0.47000000000E+01 0.  1.
<mgrwt>
<rscale>  0 0.27324078E+03</rscale>
<asrwt>0</asrwt>
<pdfrwt beam="1">  1        3 0.14433993E-01 0.27324078E+03</pdfrwt>
<pdfrwt beam="2">  1       -3 0.30606794E-01 0.27324078E+03</pdfrwt>
<totfact> 0.10424041E+03</totfact>
</mgrwt>
</event>
<event>
 9    1  0.7944303E-001  0.2739086E+03  0.7818608E-02  0.1099063E+00
         -2   -1    0    0    0  501 -0.00000000000E+00  0.00000000000E+00  0.65240428751E+02  0.65240428751E+02  0.00000000000E+00 0.  1.
          2   -1    0    0  501    0  0.00000000000E+00 -0.00000000000E+00 -0.28749779018E+03  0.28749779018E+03  0.00000000000E+00 0.  1.
         35    2    1    2    0    0  0.00000000000E+00 -0.71054273576E-14 -0.22225736143E+03  0.35273821893E+03  0.27390859130E+03 0.  0.
         25    2    3    3    0    0 -0.32385273545E+02 -0.31220665592E+02 -0.15384957096E+03  0.20354858306E+03  0.12545437129E+03 0.  0.
         25    2    3    3    0    0  0.32385273545E+02  0.31220665592E+02 -0.68407790468E+02  0.14918963588E+03  0.12471722316E+03 0.  0.
          5    1    4    4  502    0  0.32357277976E+02  0.22727587826E+02 -0.87680909696E+02  0.96299369736E+02  0.47000000000E+01 0. -1.
         -5    1    4    4    0  502 -0.64742551521E+02 -0.53948253418E+02 -0.66168661267E+02  0.10724921332E+03  0.47000000000E+01 0. -1.
          5    1    5    5  503    0  0.58972238314E+02  0.64092680006E+02 -0.59897155792E+02  0.10580810836E+03  0.47000000000E+01 0.  1.
         -5    1    5    5    0  503 -0.26586964769E+02 -0.32872014414E+02 -0.85106346757E+01  0.43381527519E+02  0.47000000000E+01 0.  1.
<mgrwt>
<rscale>  0 0.27390859E+03</rscale>
<asrwt>0</asrwt>
<pdfrwt beam="1">  1        2 0.44230429E-01 0.27390859E+03</pdfrwt>
<pdfrwt beam="2">  1       -2 0.10036989E-01 0.27390859E+03</pdfrwt>
<totfact> 0.74959039E+03</totfact>
</mgrwt>
</event>
<event>
 9    1  0.7944303E-001  0.2797825E+03  0.7818608E-02  0.1095808E+00
         -4   -1    0    0    0  501 -0.00000000000E+00  0.00000000000E+00  0.85053716100E+02  0.85053716100E+02  0.00000000000E+00 0. -1.
          4   -1    0    0  501    0  0.00000000000E+00 -0.00000000000E+00 -0.23008474040E+03  0.23008474040E+03  0.00000000000E+00 0. -1.
         35    2    1    2    0    0  0.00000000000E+00  0.71054273576E-14 -0.14503102430E+03  0.31513845650E+03  0.27978250259E+03 0.  0.
         25    2    3    3    0    0 -0.55891499928E+02  0.36183756270E+02 -0.85188046464E+02  0.16140484268E+03  0.11983904204E+03 0.  0.
         25    2    3    3    0    0  0.55891499928E+02 -0.36183756270E+02 -0.59842977831E+02  0.15373361382E+03  0.12497887038E+03 0.  0.
          5    1    4    4  502    0 -0.76744696401E+02  0.55891490648E+02 -0.91181818192E+02  0.13171871971E+03  0.47000000000E+01 0. -1.
         -5    1    4    4    0  502  0.20853196472E+02 -0.19707734377E+02  0.59937717280E+01  0.29686122969E+02  0.47000000000E+01 0. -1.
          5    1    5    5  503    0  0.42633318057E+02  0.36803102886E+02  0.27147991039E+01  0.56582049493E+02  0.47000000000E+01 0. -1.
         -5    1    5    5    0  503  0.13258181871E+02 -0.72986859157E+02 -0.62557776935E+02  0.97151564327E+02  0.47000000000E+01 0. -1.
<mgrwt>
<rscale>  0 0.27978250E+03</rscale>
<asrwt>0</asrwt>
<pdfrwt beam="1">  1        4 0.35397652E-01 0.27978250E+03</pdfrwt>
<pdfrwt beam="2">  1       -4 0.13085187E-01 0.27978250E+03</pdfrwt>
<totfact> 0.69534038E+02</totfact>
</mgrwt>
</event>
<event>
 9    1  0.7944303E-001  0.2710213E+03  0.7818608E-02  0.1100697E+00
         -1   -1    0    0    0  501 -0.00000000000E+00  0.00000000000E+00  0.65757888760E+01  0.65757888760E+01  0.00000000000E+00 0. -1.
          1   -1    0    0  501    0  0.00000000000E+00 -0.00000000000E+00 -0.27925363846E+04  0.27925363846E+04  0.00000000000E+00 0. -1.
         35    2    1    2    0    0 -0.71054273576E-14 -0.35527136788E-14 -0.27859605958E+04  0.27991121735E+04  0.27102125152E+03 0.  0.
         25    2    3    3    0    0  0.10795918156E+02 -0.24531132350E+02 -0.10187663254E+04  0.10272396313E+04  0.12891123358E+03 0.  0.
         25    2    3    3    0    0 -0.10795918156E+02  0.24531132350E+02 -0.17671942704E+04  0.17718725422E+04  0.12585065821E+03 0.  0.
          5    1    4    4  502    0 -0.35701781024E+02 -0.33819727112E+02 -0.16730495461E+03  0.17444606315E+03  0.47000000000E+01 0. -1.
         -5    1    4    4    0  502  0.46497699181E+02  0.92885947622E+01 -0.85146137074E+03  0.85279356816E+03  0.47000000000E+01 0. -1.
          5    1    5    5  503    0 -0.43193559030E+02  0.33549063157E+02 -0.35059882782E+03  0.35487018929E+03  0.47000000000E+01 0.  1.
         -5    1    5    5    0  503  0.32397640873E+02 -0.90179308072E+01 -0.14165954426E+04  0.14170023529E+04  0.47000000000E+01 0.  1.
<mgrwt>
<rscale>  0 0.27102125E+03</rscale>
<asrwt>0</asrwt>
<pdfrwt beam="1">  1        1 0.42962070E+00 0.27102125E+03</pdfrwt>
<pdfrwt beam="2">  1       -1 0.10116605E-02 0.27102125E+03</pdfrwt>
<totfact> 0.18634868E+03</totfact>
</mgrwt>
</event>
<event>
 9    1  0.7944303E-001  0.2779921E+03  0.7818608E-02  0.1096791E+00
         -4   -1    0    0    0  501 -0.00000000000E+00  0.00000000000E+00  0.15833415788E+03  0.15833415788E+03  0.00000000000E+00 0.  1.
          4   -1    0    0  501    0  0.00000000000E+00 -0.00000000000E+00 -0.12201979468E+03  0.12201979468E+03  0.00000000000E+00 0.  1.
         35    2    1    2    0    0  0.00000000000E+00  0.00000000000E+00  0.36314363198E+02  0.28035395255E+03  0.27799209654E+03 0.  0.
         25    2    3    3    0    0 -0.38044659563E+02 -0.27597844435E+02  0.57060014024E+02  0.14550506988E+03  0.12532694452E+03 0.  0.
         25    2    3    3    0    0  0.38044659563E+02  0.27597844435E+02 -0.20745650826E+02  0.13484888267E+03  0.12467879527E+03 0.  0.
          5    1    4    4  502    0  0.33030027057E+02 -0.69725195560E+01  0.62458343291E+02  0.71152887242E+02  0.47000000000E+01 0.  1.
         -5    1    4    4    0  502 -0.71074686620E+02 -0.20625324879E+02 -0.53983292670E+01  0.74352182640E+02  0.47000000000E+01 0.  1.
          5    1    5    5  503    0  0.44155420051E+02  0.56799488016E+02  0.28133466642E+02  0.77391633295E+02  0.47000000000E+01 0. -1.
         -5    1    5    5    0  503 -0.61107604881E+01 -0.29201643581E+02 -0.48879117468E+02  0.57457249377E+02  0.47000000000E+01 0. -1.
<mgrwt>
<rscale>  0 0.27799210E+03</rscale>
<asrwt>0</asrwt>
<pdfrwt beam="1">  1        4 0.18772276E-01 0.27799210E+03</pdfrwt>
<pdfrwt beam="2">  1       -4 0.24359101E-01 0.27799210E+03</pdfrwt>
<totfact> 0.74691758E+02</totfact>
</mgrwt>
</event>
<event>
 9    1  0.7944303E-001  0.2681024E+03  0.7818608E-02  0.1102371E+00
         -2   -1    0    0    0  501 -0.00000000000E+00  0.00000000000E+00  0.21086009662E+02  0.21086009662E+02  0.00000000000E+00 0. -1.
          2   -1    0    0  501    0  0.00000000000E+00 -0.00000000000E+00 -0.85221049286E+03  0.85221049286E+03  0.00000000000E+00 0. -1.
         35    2    1    2    0    0 -0.71054273576E-14 -0.53290705182E-14 -0.83112448320E+03  0.87329650252E+03  0.26810235871E+03 0.  0.
         25    2    3    3    0    0  0.46083969386E+02 -0.14190553301E+02 -0.39517699152E+03  0.41729419760E+03  0.12507793046E+03 0.  0.
         25    2    3    3    0    0 -0.46083969386E+02  0.14190553301E+02 -0.43594749167E+03  0.45600230492E+03  0.12475088198E+03 0.  0.
          5    1    4    4  502    0  0.53069517504E+02 -0.25314815839E+01 -0.39889090477E+03  0.40244108388E+03  0.47000000000E+01 0. -1.
         -5    1    4    4    0  502 -0.69855481181E+01 -0.11659071717E+02  0.37139132437E+01  0.14853113727E+02  0.47000000000E+01 0. -1.
          5    1    5    5  503    0  0.23132541370E+02 -0.39339257750E+02 -0.13706041508E+03  0.14453490600E+03  0.47000000000E+01 0. -1.
         -5    1    5    5    0  503 -0.69216510756E+02  0.53529811051E+02 -0.29888707659E+03  0.31146739891E+03  0.47000000000E+01 0. -1.
<mgrwt>
<rscale>  0 0.26810236E+03</rscale>
<asrwt>0</asrwt>
<pdfrwt beam="1">  1        2 0.13110930E+00 0.26810236E+03</pdfrwt>
<pdfrwt beam="2">  1       -2 0.32440017E-02 0.26810236E+03</pdfrwt>
<totfact> 0.12255399E+04</totfact>
</mgrwt>
</event>
<event>
 9    1  0.7944303E-001  0.2756113E+03  0.7818608E-02  0.1098110E+00
         -1   -1    0    0    0  501 -0.00000000000E+00  0.00000000000E+00  0.30470771224E+03  0.30470771224E+03  0.00000000000E+00 0. -1.
          1   -1    0    0  501    0  0.00000000000E+00 -0.00000000000E+00 -0.62323329011E+02  0.62323329011E+02  0.00000000000E+00 0. -1.
         35    2    1    2    0    0  0.00000000000E+00  0.00000000000E+00  0.24238438322E+03  0.36703104125E+03  0.27561131328E+03 0.  0.
         25    2    3    3    0    0  0.56656037568E+02 -0.59412566850E+01  0.14350319019E+03  0.19766511916E+03  0.12342256121E+03 0.  0.
         25    2    3    3    0    0 -0.56656037568E+02  0.59412566850E+01  0.98881193030E+02  0.16936592208E+03  0.12514839233E+03 0.  0.
          5    1    4    4  502    0  0.25825448059E+02 -0.30595981068E+02  0.15179289734E+03  0.15705489966E+03  0.47000000000E+01 0.  1.
         -5    1    4    4    0  502  0.30830589509E+02  0.24654724383E+02 -0.82897071420E+01  0.40610219506E+02  0.47000000000E+01 0.  1.
          5    1    5    5  503    0 -0.93818657895E+01 -0.49900296092E+02  0.77903347887E+02  0.93107897451E+02  0.47000000000E+01 0. -1.
         -5    1    5    5    0  503 -0.47274171778E+02  0.55841552777E+02  0.20977845144E+02  0.76258024632E+02  0.47000000000E+01 0. -1.
<mgrwt>
<rscale>  0 0.27561131E+03</rscale>
<asrwt>0</asrwt>
<pdfrwt beam="1">  1        1 0.95882046E-02 0.27561131E+03</pdfrwt>
<pdfrwt beam="2">  1       -1 0.46878109E-01 0.27561131E+03</pdfrwt>
<totfact> 0.31321877E+03</totfact>
</mgrwt>
</event>
<event>
 9    1  0.7944303E-001  0.2750561E+03  0.7818608E-02  0.1098420E+00
          2   -1    0    0  501    0  0.00000000000E+00  0.00000000000E+00  0.34001049869E+02  0.34001049869E+02  0.00000000000E+00 0. -1.
         -2   -1    0    0    0  501 -0.00000000000E+00 -0.00000000000E+00 -0.55627581724E+03  0.55627581724E+03  0.00000000000E+00 0. -1.
         35    2    1    2    0    0 -0.71054273576E-14  0.71054273576E-14 -0.52227476737E+03  0.59027686711E+03  0.27505608012E+03 0.  0.
         25    2    3    3    0    0  0.39992874858E+02  0.31104868998E+02 -0.20900444280E+03  0.24946352690E+03  0.12642092876E+03 0.  0.
         25    2    3    3    0    0 -0.39992874858E+02 -0.31104868998E+02 -0.31327032457E+03  0.34081334021E+03  0.12429196954E+03 0.  0.
          5    1    4    4  502    0  0.48623362330E+02 -0.39768831836E+02 -0.11734658473E+03  0.13318446718E+03  0.47000000000E+01 0. -1.
         -5    1    4    4    0  502 -0.86304874727E+01  0.70873700834E+02 -0.91657858065E+02  0.11627905972E+03  0.47000000000E+01 0. -1.
          5    1    5    5  503    0  0.10167719282E+02  0.39190077873E+02 -0.55063906987E+02  0.68508164271E+02  0.47000000000E+01 0. -1.
         -5    1    5    5    0  503 -0.50160594140E+02 -0.70294946871E+02 -0.25820641758E+03  0.27230517594E+03  0.47000000000E+01 0. -1.
<mgrwt>
<rscale>  0 0.27505608E+03</rscale>
<asrwt>0</asrwt>
<pdfrwt beam="1">  1        2 0.52309308E-02 0.27505608E+03</pdfrwt>
<pdfrwt beam="2">  1       -2 0.85580894E-01 0.27505608E+03</pdfrwt>
<totfact> 0.18111643E+03</totfact>
</mgrwt>
</event>
<event>
 9    1  0.7944303E-001  0.2760135E+03  0.7818608E-02  0.1097886E+00
          2   -1    0    0  501    0  0.00000000000E+00  0.00000000000E+00  0.22223818215E+03  0.22223818215E+03  0.00000000000E+00 0.  1.
         -2   -1    0    0    0  501 -0.00000000000E+00 -0.00000000000E+00 -0.85700238368E+02  0.85700238368E+02  0.00000000000E+00 0.  1.
         35    2    1    2    0    0  0.00000000000E+00 -0.35527136788E-14  0.13653794378E+03  0.30793842052E+03  0.27601351550E+03 0.  0.
         25    2    3    3    0    0  0.11036134477E+02  0.10049837503E+02  0.42081853138E+01  0.12667497357E+03  0.12572209276E+03 0.  0.
         25    2    3    3    0    0 -0.11036134477E+02 -0.10049837503E+02  0.13232975847E+03  0.18126344695E+03  0.12297347976E+03 0.  0.
          5    1    4    4  502    0  0.55823190400E+02 -0.25809694332E+02 -0.19098742976E+02  0.64569504344E+02  0.47000000000E+01 0.  1.
         -5    1    4    4    0  502 -0.44787055923E+02  0.35859531834E+02  0.23306928290E+02  0.62105469227E+02  0.47000000000E+01 0.  1.
          5    1    5    5  503    0  0.26230562249E+02  0.29732931870E+02  0.20715631605E+01  0.39980883024E+02  0.47000000000E+01 0. -1.
         -5    1    5    5    0  503 -0.37266696726E+02 -0.39782769373E+02  0.13025819531E+03  0.14128256393E+03  0.47000000000E+01 0. -1.
<mgrwt>
<rscale>  0 0.27601352E+03</rscale>
<asrwt>0</asrwt>
<pdfrwt beam="1">  1        2 0.34190489E-01 0.27601352E+03</pdfrwt>
<pdfrwt beam="2">  1       -2 0.13184652E-01 0.27601352E+03</pdfrwt>
<totfact> 0.63845936E+03</totfact>
</mgrwt>
</event>
<event>
 9    1  0.7944303E-001  0.2716052E+03  0.7818608E-02  0.1100364E+00
          2   -1    0    0  501    0  0.00000000000E+00  0.00000000000E+00  0.14594284924E+04  0.14594284924E+04  0.00000000000E+00 0.  1.
         -2   -1    0    0    0  501 -0.00000000000E+00 -0.00000000000E+00 -0.12636693895E+02  0.12636693895E+02  0.00000000000E+00 0.  1.
         35    2    1    2    0    0 -0.35527136788E-14 -0.71054273576E-14  0.14467917985E+04  0.14720651862E+04  0.27160523647E+03 0.  0.
         25    2    3    3    0    0 -0.60146354006E+01  0.21743016975E+02  0.98879553560E+03  0.99706587516E+03  0.12615392808E+03 0.  0.
         25    2    3    3    0    0  0.60146354006E+01 -0.21743016975E+02  0.45799626286E+03  0.47499931109E+03  0.12391462428E+03 0.  0.
          5    1    4    4  502    0 -0.59259809016E+02  0.21558096396E+02  0.32322267045E+03  0.32935005872E+03  0.47000000000E+01 0. -1.
         -5    1    4    4    0  502  0.53245173615E+02  0.18492057940E+00  0.66557286514E+03  0.66771581644E+03  0.47000000000E+01 0. -1.
          5    1    5    5  503    0  0.31164004500E+02 -0.66226874254E+02  0.30203376145E+03  0.31081132075E+03  0.47000000000E+01 0.  1.
         -5    1    5    5    0  503 -0.25149369099E+02  0.44483857279E+02  0.15596250141E+03  0.16418799034E+03  0.47000000000E+01 0.  1.
<mgrwt>
<rscale>  0 0.27160524E+03</rscale>
<asrwt>0</asrwt>
<pdfrwt beam="1">  1        2 0.22452733E+00 0.27160524E+03</pdfrwt>
<pdfrwt beam="2">  1       -2 0.19441079E-02 0.27160524E+03</pdfrwt>
<totfact> 0.11559533E+04</totfact>
</mgrwt>
</event>
<event>
 9    1  0.7944303E-001  0.2770284E+03  0.7818608E-02  0.1097323E+00
         -2   -1    0    0    0  501 -0.00000000000E+00  0.00000000000E+00  0.12557024163E+02  0.12557024163E+02  0.00000000000E+00 0. -1.
          2   -1    0    0  501    0  0.00000000000E+00 -0.00000000000E+00 -0.15279240880E+04  0.15279240880E+04  0.00000000000E+00 0. -1.
         35    2    1    2    0    0  0.00000000000E+00  0.00000000000E+00 -0.15153670638E+04  0.15404811122E+04  0.27702837177E+03 0.  0.
         25    2    3    3    0    0 -0.31943574189E+02 -0.42130267000E+02 -0.90208622902E+03  0.91245308344E+03  0.12655320451E+03 0.  0.
         25    2    3    3    0    0  0.31943574189E+02  0.42130267000E+02 -0.61328083482E+03  0.62802802872E+03  0.12454104212E+03 0.  0.
          5    1    4    4  502    0  0.43605634175E+02  0.60058426960E+01 -0.21290486560E+03  0.21745825640E+03  0.47000000000E+01 0. -1.
         -5    1    4    4    0  502 -0.75549208364E+02 -0.48136109696E+02 -0.68918136341E+03  0.69499482704E+03  0.47000000000E+01 0. -1.
          5    1    5    5  503    0  0.67557429620E+02 -0.11681546243E+02 -0.26351494306E+03  0.27232825788E+03  0.47000000000E+01 0.  1.
         -5    1    5    5    0  503 -0.35613855431E+02  0.53811813242E+02 -0.34976589176E+03  0.35569977085E+03  0.47000000000E+01 0.  1.
<mgrwt>
<rscale>  0 0.27702837E+03</rscale>
<asrwt>0</asrwt>
<pdfrwt beam="1">  1        2 0.23506510E+00 0.27702837E+03</pdfrwt>
<pdfrwt beam="2">  1       -2 0.19318511E-02 0.27702837E+03</pdfrwt>
<totfact> 0.10726746E+04</totfact>
</mgrwt>
</event>
<event>
 9    1  0.7944303E-001  0.2746693E+03  0.7818608E-02  0.1098637E+00
         -2   -1    0    0    0  501 -0.00000000000E+00  0.00000000000E+00  0.67523939567E+02  0.67523939567E+02  0.00000000000E+00 0.  1.
          2   -1    0    0  501    0  0.00000000000E+00 -0.00000000000E+00 -0.27932033957E+03  0.27932033957E+03  0.00000000000E+00 0.  1.
         35    2    1    2    0    0  0.00000000000E+00  0.71054273576E-14 -0.21179640000E+03  0.34684427913E+03  0.27466932649E+03 0.  0.
         25    2    3    3    0    0 -0.23008336287E+02 -0.21673805289E+02 -0.44856564445E+02  0.13614913756E+03  0.12460071794E+03 0.  0.
         25    2    3    3    0    0  0.23008336287E+02  0.21673805289E+02 -0.16693983555E+03  0.21069514157E+03  0.12459693660E+03 0.  0.
          5    1    4    4  502    0 -0.57556236236E+02 -0.22127169497E+02  0.17878938133E+02  0.64374516607E+02  0.47000000000E+01 0. -1.
         -5    1    4    4    0  502  0.34547899948E+02  0.45336420743E+00 -0.62735502578E+02  0.71774620958E+02  0.47000000000E+01 0. -1.
          5    1    5    5  503    0  0.43742387189E+01  0.43220248767E+02 -0.25280755329E+01  0.43767625406E+02  0.47000000000E+01 0.  1.
         -5    1    5    5    0  503  0.18634097568E+02 -0.21546443477E+02 -0.16441176002E+03  0.16692751616E+03  0.47000000000E+01 0.  1.
<mgrwt>
<rscale>  0 0.27466933E+03</rscale>
<asrwt>0</asrwt>
<pdfrwt beam="1">  1        2 0.42972359E-01 0.27466933E+03</pdfrwt>
<pdfrwt beam="2">  1       -2 0.10388299E-01 0.27466933E+03</pdfrwt>
<totfact> 0.73208537E+03</totfact>
</mgrwt>
</event>
<event>
 9    1  0.7944303E-001  0.2715286E+03  0.7818608E-02  0.1100408E+00
          1   -1    0    0  501    0  0.00000000000E+00  0.00000000000E+00  0.12653941301E+04  0.12653941301E+04  0.00000000000E+00 0. -1.
         -1   -1    0    0    0  501 -0.00000000000E+00 -0.00000000000E+00 -0.14566166896E+02  0.14566166896E+02  0.00000000000E+00 0. -1.
         35    2    1    2    0    0  0.00000000000E+00 -0.14210854715E-13  0.12508279632E+04  0.12799602970E+04  0.27152857741E+03 0.  0.
         25    2    3    3    0    0 -0.12345771356E+02 -0.53085651721E+02  0.58302563359E+03  0.59870422089E+03  0.12472910726E+03 0.  0.
         25    2    3    3    0    0  0.12345771356E+02  0.53085651721E+02  0.66780232960E+03  0.68125607609E+03  0.12320464807E+03 0.  0.
          5    1    4    4  502    0 -0.14865304111E+01 -0.72570431470E+02  0.56494468895E+03  0.56960799580E+03  0.47000000000E+01 0.  1.
         -5    1    4    4    0  502 -0.10859240944E+02  0.19484779749E+02  0.18080944637E+02  0.29096225094E+02  0.47000000000E+01 0.  1.
          5    1    5    5  503    0 -0.17883746718E+01  0.71049972567E+02  0.64398370172E+03  0.64791079245E+03  0.47000000000E+01 0.  1.
         -5    1    5    5    0  503  0.14134146027E+02 -0.17964320846E+02  0.23818627875E+02  0.33345283643E+02  0.47000000000E+01 0.  1.
<mgrwt>
<rscale>  0 0.27152858E+03</rscale>
<asrwt>0</asrwt>
<pdfrwt beam="1">  1        1 0.19467593E+00 0.27152858E+03</pdfrwt>
<pdfrwt beam="2">  1       -1 0.22409497E-02 0.27152858E+03</pdfrwt>
<totfact> 0.59792603E+03</totfact>
</mgrwt>
</event>
<event>
 9    1  0.7944303E-001  0.2766390E+03  0.7818608E-02  0.1097539E+00
          2   -1    0    0  501    0  0.00000000000E+00  0.00000000000E+00  0.10493256877E+04  0.10493256877E+04  0.00000000000E+00 0. -1.
         -2   -1    0    0    0  501 -0.00000000000E+00 -0.00000000000E+00 -0.18232931977E+02  0.18232931977E+02  0.00000000000E+00 0. -1.
         35    2    1    2    0    0  0.00000000000E+00 -0.71054273576E-14  0.10310927558E+04  0.10675586197E+04  0.27663899860E+03 0.  0.
         25    2    3    3    0    0  0.14204307201E+02  0.38865867741E+02  0.35274527864E+03  0.37669052069E+03  0.12551573113E+03 0.  0.
         25    2    3    3    0    0 -0.14204307201E+02 -0.38865867741E+02  0.67834747712E+03  0.69086809902E+03  0.12422202907E+03 0.  0.
          5    1    4    4  502    0  0.29718987467E+01  0.64880801713E+02  0.33835444915E+03  0.34456374428E+03  0.47000000000E+01 0.  1.
         -5    1    4    4    0  502  0.11232408454E+02 -0.26014933971E+02  0.14390829481E+02  0.32126776408E+02  0.47000000000E+01 0.  1.
          5    1    5    5  503    0  0.11078160255E+02 -0.50834236730E+02  0.64490294226E+03  0.64701525500E+03  0.47000000000E+01 0. -1.
         -5    1    5    5    0  503 -0.25282467456E+02  0.11968368989E+02  0.33444534860E+02  0.43852844023E+02  0.47000000000E+01 0. -1.
<mgrwt>
<rscale>  0 0.27663900E+03</rscale>
<asrwt>0</asrwt>
<pdfrwt beam="1">  1        2 0.16143467E+00 0.27663900E+03</pdfrwt>
<pdfrwt beam="2">  1       -2 0.28050673E-02 0.27663900E+03</pdfrwt>
<totfact> 0.11447950E+04</totfact>
</mgrwt>
</event>
<event>
 9    1  0.7944303E-001  0.2841619E+03  0.7818608E-02  0.1093437E+00
         -2   -1    0    0    0  501 -0.00000000000E+00  0.00000000000E+00  0.68252295260E+03  0.68252295260E+03  0.00000000000E+00 0. -1.
          2   -1    0    0  501    0  0.00000000000E+00 -0.00000000000E+00 -0.29577011901E+02  0.29577011901E+02  0.00000000000E+00 0. -1.
         35    2    1    2    0    0  0.35527136788E-14  0.00000000000E+00  0.65294594070E+03  0.71209996451E+03  0.28416185171E+03 0.  0.
         25    2    3    3    0    0  0.52331150918E+01  0.47079705165E+02  0.19252751401E+03  0.23305197769E+03  0.12248467872E+03 0.  0.
         25    2    3    3    0    0 -0.52331150918E+01 -0.47079705165E+02  0.46041842669E+03  0.47904798682E+03  0.12352312294E+03 0.  0.
          5    1    4    4  502    0  0.57861938805E+01 -0.78299403203E+01 -0.14910503470E+02  0.18417413466E+02  0.47000000000E+01 0.  1.
         -5    1    4    4    0  502 -0.55307878871E+00  0.54909645485E+02  0.20743801748E+03  0.21463456422E+03  0.47000000000E+01 0.  1.
          5    1    5    5  503    0 -0.60218900553E+02 -0.44762692704E+02  0.22465603687E+03  0.23690175083E+03  0.47000000000E+01 0.  1.
         -5    1    5    5    0  503  0.54985785461E+02 -0.23170124611E+01  0.23576238982E+03  0.24214623599E+03  0.47000000000E+01 0.  1.
<mgrwt>
<rscale>  0 0.28416185E+03</rscale>
<asrwt>0</asrwt>
<pdfrwt beam="1">  1        2 0.45503100E-02 0.28416185E+03</pdfrwt>
<pdfrwt beam="2">  1       -2 0.10500352E+00 0.28416185E+03</pdfrwt>
<totfact> 0.13638034E+03</totfact>
</mgrwt>
</event>
<event>
 9    1  0.7944303E-001  0.2750471E+03  0.7818608E-02  0.1098425E+00
         -1   -1    0    0    0  501 -0.00000000000E+00  0.00000000000E+00  0.86196908955E+02  0.86196908955E+02  0.00000000000E+00 0.  1.
          1   -1    0    0  501    0  0.00000000000E+00 -0.00000000000E+00 -0.21941309742E+03  0.21941309742E+03  0.00000000000E+00 0.  1.
         35    2    1    2    0    0 -0.17763568394E-14  0.00000000000E+00 -0.13321618847E+03  0.30561000638E+03  0.27504712892E+03 0.  0.
         25    2    3    3    0    0  0.31629731650E+01  0.55394861887E+02 -0.71233561580E+02  0.15341437847E+03  0.12402885189E+03 0.  0.
         25    2    3    3    0    0 -0.31629731650E+01 -0.55394861887E+02 -0.61982626889E+02  0.15219562791E+03  0.12744829539E+03 0.  0.
          5    1    4    4  502    0  0.12631469689E+02 -0.21864429502E+02  0.20610585783E+02  0.32931649674E+02  0.47000000000E+01 0. -1.
         -5    1    4    4    0  502 -0.94684965244E+01  0.77259291390E+02 -0.91844147362E+02  0.12048272879E+03  0.47000000000E+01 0. -1.
          5    1    5    5  503    0 -0.22396730607E+02 -0.77287840355E+02  0.31711169216E+01  0.80667030386E+02  0.47000000000E+01 0.  1.
         -5    1    5    5    0  503  0.19233757442E+02  0.21892978468E+02 -0.65153743810E+02  0.71528597526E+02  0.47000000000E+01 0.  1.
<mgrwt>
<rscale>  0 0.27504713E+03</rscale>
<asrwt>0</asrwt>
<pdfrwt beam="1">  1        1 0.33755861E-01 0.27504713E+03</pdfrwt>
<pdfrwt beam="2">  1       -1 0.13261063E-01 0.27504713E+03</pdfrwt>
<totfact> 0.50636741E+03</totfact>
</mgrwt>
</event>
<event>
 9    1  0.7944303E-001  0.2872426E+03  0.7818608E-02  0.1091798E+00
          1   -1    0    0  501    0  0.00000000000E+00  0.00000000000E+00  0.22897704529E+04  0.22897704529E+04  0.00000000000E+00 0. -1.
         -1   -1    0    0    0  501 -0.00000000000E+00 -0.00000000000E+00 -0.90083623460E+01  0.90083623460E+01  0.00000000000E+00 0. -1.
         35    2    1    2    0    0 -0.21316282073E-13  0.35527136788E-14  0.22807620906E+04  0.22987788153E+04  0.28724262866E+03 0.  0.
         25    2    3    3    0    0 -0.61553159433E+02  0.21902972665E+02  0.13742262314E+04  0.13813382640E+04  0.12381087612E+03 0.  0.
         25    2    3    3    0    0  0.61553159433E+02 -0.21902972665E+02  0.90653585925E+03  0.91744055128E+03  0.12498547667E+03 0.  0.
          5    1    4    4  502    0 -0.40751568669E+02  0.30738684280E+02  0.13338075447E+04  0.13347921985E+04  0.47000000000E+01 0.  1.
         -5    1    4    4    0  502 -0.20801590764E+02 -0.88357116145E+01  0.40418686675E+02  0.46546065468E+02  0.47000000000E+01 0.  1.
          5    1    5    5  503    0  0.23432107905E+02 -0.18179034437E+02  0.83990493938E+03  0.84044151383E+03  0.47000000000E+01 0.  1.
         -5    1    5    5    0  503  0.38121051528E+02 -0.37239382281E+01  0.66630919871E+02  0.76999037451E+02  0.47000000000E+01 0.  1.
<mgrwt>
<rscale>  0 0.28724263E+03</rscale>
<asrwt>0</asrwt>
<pdfrwt beam="1">  1        1 0.35227191E+00 0.28724263E+03</pdfrwt>
<pdfrwt beam="2">  1       -1 0.13859037E-02 0.28724263E+03</pdfrwt>
<totfact> 0.25557173E+03</totfact>
</mgrwt>
</event>
<event>
 9    1  0.7944303E-001  0.2768715E+03  0.7818608E-02  0.1097410E+00
         -1   -1    0    0    0  501 -0.00000000000E+00  0.00000000000E+00  0.33095944383E+03  0.33095944383E+03  0.00000000000E+00 0.  1.
          1   -1    0    0  501    0  0.00000000000E+00 -0.00000000000E+00 -0.57905748610E+02  0.57905748610E+02  0.00000000000E+00 0.  1.
         35    2    1    2    0    0  0.00000000000E+00 -0.71054273576E-14  0.27305369522E+03  0.38886519244E+03  0.27687148177E+03 0.  0.
         25    2    3    3    0    0 -0.15817103612E+02 -0.53601147744E+02  0.16249878154E+03  0.21223627127E+03  0.12455969265E+03 0.  0.
         25    2    3    3    0    0  0.15817103612E+02  0.53601147744E+02  0.11055491368E+03  0.17662892117E+03  0.12590521454E+03 0.  0.
          5    1    4    4  502    0 -0.67331958552E+02 -0.47203032386E+02  0.81175310604E+02  0.11564272550E+03  0.47000000000E+01 0. -1.
         -5    1    4    4    0  502  0.51514854940E+02 -0.63981153579E+01  0.81323470932E+02  0.96593545769E+02  0.47000000000E+01 0. -1.
          5    1    5    5  503    0 -0.18139817773E+02  0.64299958527E+02  0.73767545216E+01  0.67379849827E+02  0.47000000000E+01 0. -1.
         -5    1    5    5    0  503  0.33956921385E+02 -0.10698810783E+02  0.10317815916E+03  0.10924907134E+03  0.47000000000E+01 0. -1.
<mgrwt>
<rscale>  0 0.27687148E+03</rscale>
<asrwt>0</asrwt>
<pdfrwt beam="1">  1        1 0.89085769E-02 0.27687148E+03</pdfrwt>
<pdfrwt beam="2">  1       -1 0.50916836E-01 0.27687148E+03</pdfrwt>
<totfact> 0.29711893E+03</totfact>
</mgrwt>
</event>
<event>
 9    1  0.7944303E-001  0.2755884E+03  0.7818608E-02  0.1098123E+00
         -1   -1    0    0    0  501 -0.00000000000E+00  0.00000000000E+00  0.15742751958E+03  0.15742751958E+03  0.00000000000E+00 0.  1.
          1   -1    0    0  501    0  0.00000000000E+00 -0.00000000000E+00 -0.12060940909E+03  0.12060940909E+03  0.00000000000E+00 0.  1.
         35    2    1    2    0    0  0.00000000000E+00  0.00000000000E+00  0.36818110492E+02  0.27803692867E+03  0.27558838953E+03 0.  0.
         25    2    3    3    0    0  0.35498140856E+02 -0.43983193643E+02  0.76063086324E+01  0.13783563552E+03  0.12548373265E+03 0.  0.
         25    2    3    3    0    0 -0.35498140856E+02  0.43983193643E+02  0.29211801859E+02  0.14020129315E+03  0.12493371805E+03 0.  0.
          5    1    4    4  502    0 -0.41639383573E+02 -0.36162757425E+02 -0.14228077788E+02  0.57149903643E+02  0.47000000000E+01 0. -1.
         -5    1    4    4    0  502  0.77137524429E+02 -0.78204362176E+01  0.21834386421E+02  0.80685731874E+02  0.47000000000E+01 0. -1.
          5    1    5    5  503    0  0.21238974033E+02  0.40365767254E+02 -0.32468315629E+02  0.56185146647E+02  0.47000000000E+01 0. -1.
         -5    1    5    5    0  503 -0.56737114889E+02  0.36174263887E+01  0.61680117488E+02  0.84016146501E+02  0.47000000000E+01 0. -1.
<mgrwt>
<rscale>  0 0.27558839E+03</rscale>
<asrwt>0</asrwt>
<pdfrwt beam="1">  1        1 0.18555294E-01 0.27558839E+03</pdfrwt>
<pdfrwt beam="2">  1       -1 0.24219618E-01 0.27558839E+03</pdfrwt>
<totfact> 0.41109088E+03</totfact>
</mgrwt>
</event>
<event>
 9    1  0.7944303E-001  0.2792860E+03  0.7818608E-02  0.1096080E+00
         -4   -1    0    0    0  501 -0.00000000000E+00  0.00000000000E+00  0.21433586185E+02  0.21433586185E+02  0.00000000000E+00 0. -1.
          4   -1    0    0  501    0  0.00000000000E+00 -0.00000000000E+00 -0.90979478904E+03  0.90979478904E+03  0.00000000000E+00 0. -1.
         35    2    1    2    0    0  0.71054273576E-14  0.00000000000E+00 -0.88836120286E+03  0.93122837523E+03  0.27928598262E+03 0.  0.
         25    2    3    3    0    0 -0.36147686068E+02  0.21950495880E+02 -0.60988990038E+03  0.62310280666E+03  0.12042814288E+03 0.  0.
         25    2    3    3    0    0  0.36147686068E+02 -0.21950495880E+02 -0.27847130248E+03  0.30812556857E+03  0.12492645927E+03 0.  0.
          5    1    4    4  502    0 -0.31388959982E+02  0.52677626958E+02 -0.14971210128E+03  0.16185179165E+03  0.47000000000E+01 0.  1.
         -5    1    4    4    0  502 -0.47587260864E+01 -0.30727131079E+02 -0.46017779911E+03  0.46125101501E+03  0.47000000000E+01 0.  1.
          5    1    5    5  503    0  0.23732178413E+02 -0.17536129936E+01  0.40327529253E+01  0.24589521079E+02  0.47000000000E+01 0. -1.
         -5    1    5    5    0  503  0.12415507655E+02 -0.20196882886E+02 -0.28250405540E+03  0.28353604749E+03  0.47000000000E+01 0. -1.
<mgrwt>
<rscale>  0 0.27928598E+03</rscale>
<asrwt>0</asrwt>
<pdfrwt beam="1">  1        4 0.13996842E+00 0.27928598E+03</pdfrwt>
<pdfrwt beam="2">  1       -4 0.32974750E-02 0.27928598E+03</pdfrwt>
<totfact> 0.32896335E+02</totfact>
</mgrwt>
</event>
<event>
 9    1  0.7944303E-001  0.2774084E+03  0.7818608E-02  0.1097113E+00
          2   -1    0    0  501    0  0.00000000000E+00  0.00000000000E+00  0.18275469389E+03  0.18275469389E+03  0.00000000000E+00 0. -1.
         -2   -1    0    0    0  501 -0.00000000000E+00 -0.00000000000E+00 -0.10527144370E+03  0.10527144370E+03  0.00000000000E+00 0. -1.
         35    2    1    2    0    0  0.35527136788E-14  0.00000000000E+00  0.77483250191E+02  0.28802613759E+03  0.27740836662E+03 0.  0.
         25    2    3    3    0    0 -0.83760657925E+01 -0.35303610381E+02  0.89806265613E+02  0.15816498085E+03  0.12503796399E+03 0.  0.
         25    2    3    3    0    0  0.83760657925E+01  0.35303610381E+02 -0.12323015422E+02  0.12986115674E+03  0.12407884564E+03 0.  0.
          5    1    4    4  502    0 -0.35083920297E+02 -0.74418746378E+02  0.52759333963E+02  0.97850235544E+02  0.47000000000E+01 0. -1.
         -5    1    4    4    0  502  0.26707854504E+02  0.39115135997E+02  0.37046931650E+02  0.60314745303E+02  0.47000000000E+01 0. -1.
          5    1    5    5  503    0 -0.15392212003E+02 -0.18201064670E+02  0.42861717919E+02  0.49268811721E+02  0.47000000000E+01 0. -1.
         -5    1    5    5    0  503  0.23768277796E+02  0.53504675051E+02 -0.55184733341E+02  0.80592345019E+02  0.47000000000E+01 0. -1.
<mgrwt>
<rscale>  0 0.27740837E+03</rscale>
<asrwt>0</asrwt>
<pdfrwt beam="1">  1        2 0.28116107E-01 0.27740837E+03</pdfrwt>
<pdfrwt beam="2">  1       -2 0.16195607E-01 0.27740837E+03</pdfrwt>
<totfact> 0.56368625E+03</totfact>
</mgrwt>
</event>
<event>
 9    1  0.7944303E-001  0.2719945E+03  0.7818608E-02  0.1100143E+00
         -2   -1    0    0    0  501 -0.00000000000E+00  0.00000000000E+00  0.47597027773E+02  0.47597027773E+02  0.00000000000E+00 0. -1.
          2   -1    0    0  501    0  0.00000000000E+00 -0.00000000000E+00 -0.38858008593E+03  0.38858008593E+03  0.00000000000E+00 0. -1.
         35    2    1    2    0    0  0.00000000000E+00  0.71054273576E-14 -0.34098305815E+03  0.43617711370E+03  0.27199453775E+03 0.  0.
         25    2    3    3    0    0 -0.40019326145E+02 -0.31506330148E+02 -0.13558443680E+03  0.19062713303E+03  0.12394099016E+03 0.  0.
         25    2    3    3    0    0  0.40019326145E+02  0.31506330148E+02 -0.20539862135E+03  0.24554998067E+03  0.12454719607E+03 0.  0.
          5    1    4    4  502    0 -0.10158302394E+02 -0.77166140118E+02 -0.66555928960E+02  0.10251627172E+03  0.47000000000E+01 0. -1.
         -5    1    4    4    0  502 -0.29861023751E+02  0.45659809970E+02 -0.69028507840E+02  0.88110861309E+02  0.47000000000E+01 0. -1.
          5    1    5    5  503    0  0.68819798172E+02 -0.38113410649E+01 -0.54930221505E+02  0.88261600799E+02  0.47000000000E+01 0.  1.
         -5    1    5    5    0  503 -0.28800472027E+02  0.35317671213E+02 -0.15046839985E+03  0.15728837987E+03  0.47000000000E+01 0.  1.
<mgrwt>
<rscale>  0 0.27199454E+03</rscale>
<asrwt>0</asrwt>
<pdfrwt beam="1">  1        2 0.59781552E-01 0.27199454E+03</pdfrwt>
<pdfrwt beam="2">  1       -2 0.73226196E-02 0.27199454E+03</pdfrwt>
<totfact> 0.88855186E+03</totfact>
</mgrwt>
</event>
<event>
 9    1  0.7944303E-001  0.2840980E+03  0.7818608E-02  0.1093472E+00
          2   -1    0    0  501    0  0.00000000000E+00  0.00000000000E+00  0.10950198034E+03  0.10950198034E+03  0.00000000000E+00 0. -1.
         -2   -1    0    0    0  501 -0.00000000000E+00 -0.00000000000E+00 -0.18426984638E+03  0.18426984638E+03  0.00000000000E+00 0. -1.
         35    2    1    2    0    0  0.00000000000E+00 -0.71054273576E-14 -0.74767866041E+02  0.29377182671E+03  0.28409796264E+03 0.  0.
         25    2    3    3    0    0 -0.57730998225E+02  0.10557194812E+02 -0.70549053053E+02  0.15541333232E+03  0.12542652215E+03 0.  0.
         25    2    3    3    0    0  0.57730998225E+02 -0.10557194812E+02 -0.42188129878E+01  0.13835849439E+03  0.12522360827E+03 0.  0.
          5    1    4    4  502    0 -0.44674564830E+02 -0.48450608406E+02 -0.67896126324E+02  0.94737807487E+02  0.47000000000E+01 0. -1.
         -5    1    4    4    0  502 -0.13056433395E+02  0.59007803217E+02 -0.26529267287E+01  0.60675524833E+02  0.47000000000E+01 0. -1.
          5    1    5    5  503    0  0.14404109588E+02 -0.61131470636E+02  0.21885234553E+02  0.66675247030E+02  0.47000000000E+01 0. -1.
         -5    1    5    5    0  503  0.43326888637E+02  0.50574275824E+02 -0.26104047541E+02  0.71683247360E+02  0.47000000000E+01 0. -1.
<mgrwt>
<rscale>  0 0.28409796E+03</rscale>
<asrwt>0</asrwt>
<pdfrwt beam="1">  1        2 0.16846459E-01 0.28409796E+03</pdfrwt>
<pdfrwt beam="2">  1       -2 0.28349207E-01 0.28409796E+03</pdfrwt>
<totfact> 0.38333636E+03</totfact>
</mgrwt>
</event>
<event>
 9    1  0.7944303E-001  0.2740330E+03  0.7818608E-02  0.1098993E+00
         -1   -1    0    0    0  501 -0.00000000000E+00  0.00000000000E+00  0.20028202659E+03  0.20028202659E+03  0.00000000000E+00 0. -1.
          1   -1    0    0  501    0  0.00000000000E+00 -0.00000000000E+00 -0.93735455838E+02  0.93735455838E+02  0.00000000000E+00 0. -1.
         35    2    1    2    0    0  0.35527136788E-14  0.00000000000E+00  0.10654657075E+03  0.29401748242E+03  0.27403304223E+03 0.  0.
         25    2    3    3    0    0 -0.75363176792E+01  0.40469260649E+02  0.18665214427E+02  0.13280089408E+03  0.12487245532E+03 0.  0.
         25    2    3    3    0    0  0.75363176792E+01 -0.40469260649E+02  0.87881356322E+02  0.16121658834E+03  0.12873654658E+03 0.  0.
          5    1    4    4  502    0  0.40680033042E+02 -0.77666065733E+00  0.47693564994E+02  0.62866799123E+02  0.47000000000E+01 0. -1.
         -5    1    4    4    0  502 -0.48216350721E+02  0.41245921306E+02 -0.29028350567E+02  0.69934094961E+02  0.47000000000E+01 0. -1.
          5    1    5    5  503    0 -0.19582144378E+02 -0.71264322808E+02  0.93781737800E+02  0.11949547451E+03  0.47000000000E+01 0.  1.
         -5    1    5    5    0  503  0.27118462057E+02  0.30795062159E+02 -0.59003814781E+01  0.41721113831E+02  0.47000000000E+01 0.  1.
<mgrwt>
<rscale>  0 0.27403304E+03</rscale>
<asrwt>0</asrwt>
<pdfrwt beam="1">  1        1 0.14420839E-01 0.27403304E+03</pdfrwt>
<pdfrwt beam="2">  1       -1 0.30812619E-01 0.27403304E+03</pdfrwt>
<totfact> 0.38100809E+03</totfact>
</mgrwt>
</event>
<event>
 9    1  0.7944303E-001  0.2750460E+03  0.7818608E-02  0.1098426E+00
          1   -1    0    0  501    0  0.00000000000E+00  0.00000000000E+00  0.89817568392E+03  0.89817568392E+03  0.00000000000E+00 0. -1.
         -1   -1    0    0    0  501 -0.00000000000E+00 -0.00000000000E+00 -0.21056656902E+02  0.21056656902E+02  0.00000000000E+00 0. -1.
         35    2    1    2    0    0 -0.35527136788E-14  0.00000000000E+00  0.87711902702E+03  0.91923234082E+03  0.27504601225E+03 0.  0.
         25    2    3    3    0    0  0.23911350803E+02  0.49270329029E+02  0.37581750552E+03  0.39975593739E+03  0.12476655804E+03 0.  0.
         25    2    3    3    0    0 -0.23911350803E+02 -0.49270329029E+02  0.50130152150E+03  0.51947640343E+03  0.12471247029E+03 0.  0.
          5    1    4    4  502    0  0.58957211664E+01  0.76875897082E+02  0.34769344387E+03  0.35617058271E+03  0.47000000000E+01 0.  1.
         -5    1    4    4    0  502  0.18015629637E+02 -0.27605568054E+02  0.28124061654E+02  0.43585354681E+02  0.47000000000E+01 0.  1.
          5    1    5    5  503    0 -0.49292653229E+02 -0.81196158724E+02  0.35644241601E+03  0.36891173441E+03  0.47000000000E+01 0.  1.
         -5    1    5    5    0  503  0.25381302426E+02  0.31925829696E+02  0.14485910548E+03  0.15056466902E+03  0.47000000000E+01 0.  1.
<mgrwt>
<rscale>  0 0.27504601E+03</rscale>
<asrwt>0</asrwt>
<pdfrwt beam="1">  1        1 0.13818084E+00 0.27504601E+03</pdfrwt>
<pdfrwt beam="2">  1       -1 0.32394864E-02 0.27504601E+03</pdfrwt>
<totfact> 0.64419772E+03</totfact>
</mgrwt>
</event>
<event>
 9    1  0.7944303E-001  0.2766875E+03  0.7818608E-02  0.1097512E+00
         -2   -1    0    0    0  501 -0.00000000000E+00  0.00000000000E+00  0.53156187902E+03  0.53156187902E+03  0.00000000000E+00 0.  1.
          2   -1    0    0  501    0  0.00000000000E+00 -0.00000000000E+00 -0.36005214870E+02  0.36005214870E+02  0.00000000000E+00 0.  1.
         35    2    1    2    0    0  0.00000000000E+00  0.00000000000E+00  0.49555666415E+03  0.56756709389E+03  0.27668754703E+03 0.  0.
         25    2    3    3    0    0  0.35681526353E+02 -0.22858570072E+02  0.16271816414E+03  0.20970798682E+03  0.12531780898E+03 0.  0.
         25    2    3    3    0    0 -0.35681526353E+02  0.22858570072E+02  0.33283850001E+03  0.35785910707E+03  0.12444270920E+03 0.  0.
          5    1    4    4  502    0  0.70838002692E+02 -0.13663843380E+02  0.42131493752E+02  0.83677213189E+02  0.47000000000E+01 0.  1.
         -5    1    4    4    0  502 -0.35156476338E+02 -0.91947266922E+01  0.12058667039E+03  0.12603077363E+03  0.47000000000E+01 0.  1.
          5    1    5    5  503    0 -0.12435285354E+02 -0.40642973829E+02  0.44722137675E+02  0.61876063560E+02  0.47000000000E+01 0. -1.
         -5    1    5    5    0  503 -0.23246240999E+02  0.63501543901E+02  0.28811636234E+03  0.29598304351E+03  0.47000000000E+01 0. -1.
<mgrwt>
<rscale>  0 0.27668755E+03</rscale>
<asrwt>0</asrwt>
<pdfrwt beam="1">  1        2 0.55392642E-02 0.27668755E+03</pdfrwt>
<pdfrwt beam="2">  1       -2 0.81778745E-01 0.27668755E+03</pdfrwt>
<totfact> 0.18589365E+03</totfact>
</mgrwt>
</event>
<event>
 9    1  0.7944303E-001  0.2771392E+03  0.7818608E-02  0.1097262E+00
         -2   -1    0    0    0  501 -0.00000000000E+00  0.00000000000E+00  0.57964451042E+03  0.57964451042E+03  0.00000000000E+00 0. -1.
          2   -1    0    0  501    0  0.00000000000E+00 -0.00000000000E+00 -0.33126405822E+02  0.33126405822E+02  0.00000000000E+00 0. -1.
         35    2    1    2    0    0  0.71054273576E-14  0.71054273576E-14  0.54651810459E+03  0.61277091624E+03  0.27713923782E+03 0.  0.
         25    2    3    3    0    0  0.20033295657E+02  0.49691074732E+02  0.21110742430E+03  0.25092824115E+03  0.12461180431E+03 0.  0.
         25    2    3    3    0    0 -0.20033295657E+02 -0.49691074732E+02  0.33541068030E+03  0.36184267508E+03  0.12473676768E+03 0.  0.
          5    1    4    4  502    0  0.69715826125E+02  0.16773657069E+02  0.14479622197E+03  0.16164679978E+03  0.47000000000E+01 0. -1.
         -5    1    4    4    0  502 -0.49682530467E+02  0.32917417663E+02  0.66311202330E+02  0.89281441373E+02  0.47000000000E+01 0. -1.
          5    1    5    5  503    0 -0.23882425831E+02  0.39217112720E+02  0.10034387911E+03  0.11045060556E+03  0.47000000000E+01 0.  1.
         -5    1    5    5    0  503  0.38491301739E+01 -0.88908187452E+02  0.23506680119E+03  0.25139206952E+03  0.47000000000E+01 0.  1.
<mgrwt>
<rscale>  0 0.27713924E+03</rscale>
<asrwt>0</asrwt>
<pdfrwt beam="1">  1        2 0.50963706E-02 0.27713924E+03</pdfrwt>
<pdfrwt beam="2">  1       -2 0.89176071E-01 0.27713924E+03</pdfrwt>
<totfact> 0.17092354E+03</totfact>
</mgrwt>
</event>
<event>
 9    1  0.7944303E-001  0.2652439E+03  0.7818608E-02  0.1104033E+00
         -1   -1    0    0    0  501 -0.00000000000E+00  0.00000000000E+00  0.19659231583E+02  0.19659231583E+02  0.00000000000E+00 0. -1.
          1   -1    0    0  501    0  0.00000000000E+00 -0.00000000000E+00 -0.89467307221E+03  0.89467307221E+03  0.00000000000E+00 0. -1.
         35    2    1    2    0    0 -0.35527136788E-14  0.00000000000E+00 -0.87501384063E+03  0.91433230379E+03  0.26524392636E+03 0.  0.
         25    2    3    3    0    0  0.24367208007E+01  0.12232703026E+02 -0.58708349314E+03  0.60018945618E+03  0.12411598910E+03 0.  0.
         25    2    3    3    0    0 -0.24367208007E+01 -0.12232703026E+02 -0.28793034748E+03  0.31414284762E+03  0.12500506820E+03 0.  0.
          5    1    4    4  502    0  0.48971387703E+02  0.34137125224E+02 -0.44499490936E+03  0.44900567868E+03  0.47000000000E+01 0. -1.
         -5    1    4    4    0  502 -0.46534666902E+02 -0.21904422198E+02 -0.14208858379E+03  0.15118377750E+03  0.47000000000E+01 0. -1.
          5    1    5    5  503    0  0.24618701011E+02 -0.17905160410E+02 -0.67054160376E+01  0.31523448622E+02  0.47000000000E+01 0.  1.
         -5    1    5    5    0  503 -0.27055421812E+02  0.56724573845E+01 -0.28122493145E+03  0.28261939900E+03  0.47000000000E+01 0.  1.
<mgrwt>
<rscale>  0 0.26524393E+03</rscale>
<asrwt>0</asrwt>
<pdfrwt beam="1">  1        1 0.13764202E+00 0.26524393E+03</pdfrwt>
<pdfrwt beam="2">  1       -1 0.30244969E-02 0.26524393E+03</pdfrwt>
<totfact> 0.71683854E+03</totfact>
</mgrwt>
</event>
<event>
 9    1  0.7944303E-001  0.2759657E+03  0.7818608E-02  0.1097913E+00
          2   -1    0    0  501    0  0.00000000000E+00  0.00000000000E+00  0.65835810079E+03  0.65835810079E+03  0.00000000000E+00 0.  1.
         -2   -1    0    0    0  501 -0.00000000000E+00 -0.00000000000E+00 -0.28919323838E+02  0.28919323838E+02  0.00000000000E+00 0.  1.
         35    2    1    2    0    0  0.00000000000E+00  0.00000000000E+00  0.62943877696E+03  0.68727742463E+03  0.27596573061E+03 0.  0.
         25    2    3    3    0    0 -0.33364643376E+02  0.20140128186E+02  0.19504405716E+03  0.23560192090E+03  0.12628244813E+03 0.  0.
         25    2    3    3    0    0  0.33364643376E+02 -0.20140128186E+02  0.43439471980E+03  0.45167550374E+03  0.11744430126E+03 0.  0.
          5    1    4    4  502    0  0.21860814352E+02  0.56384609823E+01 -0.81712641339E+01  0.24465220292E+02  0.47000000000E+01 0.  1.
         -5    1    4    4    0  502 -0.55225457728E+02  0.14501667204E+02  0.20321532129E+03  0.21113670060E+03  0.47000000000E+01 0.  1.
          5    1    5    5  503    0  0.65984597193E+02  0.71400850870E+01  0.35787641821E+03  0.36400902268E+03  0.47000000000E+01 0.  1.
         -5    1    5    5    0  503 -0.32619953817E+02 -0.27280213273E+02  0.76518301589E+02  0.87666481060E+02  0.47000000000E+01 0.  1.
<mgrwt>
<rscale>  0 0.27596573E+03</rscale>
<asrwt>0</asrwt>
<pdfrwt beam="1">  1        2 0.10128585E+00 0.27596573E+03</pdfrwt>
<pdfrwt beam="2">  1       -2 0.44491272E-02 0.27596573E+03</pdfrwt>
<totfact> 0.10525745E+04</totfact>
</mgrwt>
</event>
<event>
 9    1  0.7944303E-001  0.2840251E+03  0.7818608E-02  0.1093511E+00
         -2   -1    0    0    0  501 -0.00000000000E+00  0.00000000000E+00  0.44997432855E+02  0.44997432855E+02  0.00000000000E+00 0.  1.
          2   -1    0    0  501    0  0.00000000000E+00 -0.00000000000E+00 -0.44819365103E+03  0.44819365103E+03  0.00000000000E+00 0.  1.
         35    2    1    2    0    0  0.00000000000E+00  0.71054273576E-14 -0.40319621818E+03  0.49319108389E+03  0.28402509550E+03 0.  0.
         25    2    3    3    0    0 -0.65623995682E+02 -0.17121071249E+02 -0.20796072688E+03  0.25246359448E+03  0.12605777535E+03 0.  0.
         25    2    3    3    0    0  0.65623995682E+02  0.17121071249E+02 -0.19523549130E+03  0.24072748941E+03  0.12342279855E+03 0.  0.
          5    1    4    4  502    0 -0.71710196068E+02 -0.58287858911E+02 -0.17913961268E+03  0.20162568672E+03  0.47000000000E+01 0. -1.
         -5    1    4    4    0  502  0.60862003861E+01  0.41166787662E+02 -0.28821114199E+02  0.50837907758E+02  0.47000000000E+01 0. -1.
          5    1    5    5  503    0  0.97694274261E+02 -0.23282060822E+01 -0.10840064966E+03  0.14602185663E+03  0.47000000000E+01 0.  1.
         -5    1    5    5    0  503 -0.32070278578E+02  0.19449277332E+02 -0.86834841642E+02  0.94705632778E+02  0.47000000000E+01 0.  1.
<mgrwt>
<rscale>  0 0.28402510E+03</rscale>
<asrwt>0</asrwt>
<pdfrwt beam="1">  1        2 0.68952869E-01 0.28402510E+03</pdfrwt>
<pdfrwt beam="2">  1       -2 0.69226820E-02 0.28402510E+03</pdfrwt>
<totfact> 0.83082634E+03</totfact>
</mgrwt>
</event>
<event>
 9    1  0.7944303E-001  0.2726303E+03  0.7818608E-02  0.1099784E+00
         -2   -1    0    0    0  501 -0.00000000000E+00  0.00000000000E+00  0.11126045880E+03  0.11126045880E+03  0.00000000000E+00 0. -1.
          2   -1    0    0  501    0  0.00000000000E+00 -0.00000000000E+00 -0.16701189766E+03  0.16701189766E+03  0.00000000000E+00 0. -1.
         35    2    1    2    0    0  0.00000000000E+00  0.00000000000E+00 -0.55751438852E+02  0.27827235646E+03  0.27263030176E+03 0.  0.
         25    2    3    3    0    0  0.27105618914E+02  0.47506050014E+02 -0.37508239458E+02  0.14077024429E+03  0.12416865259E+03 0.  0.
         25    2    3    3    0    0 -0.27105618914E+02 -0.47506050014E+02 -0.18243199394E+02  0.13750211217E+03  0.12482979277E+03 0.  0.
          5    1    4    4  502    0  0.17449102111E+02  0.24790306806E+02  0.45032966063E+02  0.54489343072E+02  0.47000000000E+01 0. -1.
         -5    1    4    4    0  502  0.96565168034E+01  0.22715743208E+02 -0.82541205522E+02  0.86280901219E+02  0.47000000000E+01 0. -1.
          5    1    5    5  503    0  0.40488440216E+02  0.41369626292E+01 -0.30975905262E+02  0.51361707114E+02  0.47000000000E+01 0.  1.
         -5    1    5    5    0  503 -0.67594059130E+02 -0.51643012643E+02  0.12732705868E+02  0.86140405056E+02  0.47000000000E+01 0.  1.
<mgrwt>
<rscale>  0 0.27263030E+03</rscale>
<asrwt>0</asrwt>
<pdfrwt beam="1">  1        2 0.25694138E-01 0.27263030E+03</pdfrwt>
<pdfrwt beam="2">  1       -2 0.17116994E-01 0.27263030E+03</pdfrwt>
<totfact> 0.56753055E+03</totfact>
</mgrwt>
</event>
<event>
 9    1  0.7944303E-001  0.2767131E+03  0.7818608E-02  0.1097498E+00
          2   -1    0    0  501    0  0.00000000000E+00  0.00000000000E+00  0.20543542702E+04  0.20543542702E+04  0.00000000000E+00 0.  1.
         -2   -1    0    0    0  501 -0.00000000000E+00 -0.00000000000E+00 -0.93180309634E+01  0.93180309634E+01  0.00000000000E+00 0.  1.
         35    2    1    2    0    0 -0.71054273576E-14  0.71054273576E-14  0.20450362393E+04  0.20636723012E+04  0.27671311281E+03 0.  0.
         25    2    3    3    0    0  0.29451696237E+02 -0.24583175909E+02  0.14124982592E+04  0.14183239122E+04  0.12255469250E+03 0.  0.
         25    2    3    3    0    0 -0.29451696237E+02  0.24583175909E+02  0.63253798005E+03  0.64534838900E+03  0.12205946105E+03 0.  0.
          5    1    4    4  502    0  0.19470360921E+02 -0.74572477467E+02  0.85844356828E+03  0.86190927554E+03  0.47000000000E+01 0. -1.
         -5    1    4    4    0  502  0.99813353157E+01  0.49989301558E+02  0.55405469093E+03  0.55641463664E+03  0.47000000000E+01 0. -1.
          5    1    5    5  503    0 -0.50229768146E+02  0.50650337897E+02  0.56871986979E+03  0.57319531282E+03  0.47000000000E+01 0.  1.
         -5    1    5    5    0  503  0.20778071909E+02 -0.26067161987E+02  0.63818110259E+02  0.72153076188E+02  0.47000000000E+01 0.  1.
<mgrwt>
<rscale>  0 0.27671311E+03</rscale>
<asrwt>0</asrwt>
<pdfrwt beam="1">  1        2 0.31605414E+00 0.27671311E+03</pdfrwt>
<pdfrwt beam="2">  1       -2 0.14335449E-02 0.27671311E+03</pdfrwt>
<totfact> 0.87691221E+03</totfact>
</mgrwt>
</event>
<event>
 9    1  0.7944303E-001  0.2760048E+03  0.7818608E-02  0.1097891E+00
          1   -1    0    0  501    0  0.00000000000E+00  0.00000000000E+00  0.35754630656E+03  0.35754630656E+03  0.00000000000E+00 0. -1.
         -1   -1    0    0    0  501 -0.00000000000E+00 -0.00000000000E+00 -0.53264879570E+02  0.53264879570E+02  0.00000000000E+00 0. -1.
         35    2    1    2    0    0  0.71054273576E-14 -0.35527136788E-14  0.30428142699E+03  0.41081118613E+03  0.27600478952E+03 0.  0.
         25    2    3    3    0    0 -0.34237565510E+02  0.18880855837E+02  0.87700187745E+02  0.15789969180E+03  0.12534868221E+03 0.  0.
         25    2    3    3    0    0  0.34237565510E+02 -0.18880855837E+02  0.21658123925E+03  0.25291149433E+03  0.12461176975E+03 0.  0.
          5    1    4    4  502    0  0.38478079124E+02  0.39719445534E+02  0.38296379988E+02  0.67430702553E+02  0.47000000000E+01 0. -1.
         -5    1    4    4    0  502 -0.72715644634E+02 -0.20838589698E+02  0.49403807757E+02  0.90468989251E+02  0.47000000000E+01 0. -1.
          5    1    5    5  503    0  0.13569593458E+02 -0.15645571368E+02  0.22774850626E+03  0.22873650753E+03  0.47000000000E+01 0. -1.
         -5    1    5    5    0  503  0.20667972052E+02 -0.32352844692E+01 -0.11167267015E+02  0.24174986803E+02  0.47000000000E+01 0. -1.
<mgrwt>
<rscale>  0 0.27600479E+03</rscale>
<asrwt>0</asrwt>
<pdfrwt beam="1">  1        1 0.55007123E-01 0.27600479E+03</pdfrwt>
<pdfrwt beam="2">  1       -1 0.81945971E-02 0.27600479E+03</pdfrwt>
<totfact> 0.57755764E+03</totfact>
</mgrwt>
</event>
<event>
 9    1  0.7944303E-001  0.2750546E+03  0.7818608E-02  0.1098421E+00
         -4   -1    0    0    0  501 -0.00000000000E+00  0.00000000000E+00  0.91475890686E+02  0.91475890686E+02  0.00000000000E+00 0. -1.
          4   -1    0    0  501    0  0.00000000000E+00 -0.00000000000E+00 -0.20676221040E+03  0.20676221040E+03  0.00000000000E+00 0. -1.
         35    2    1    2    0    0  0.00000000000E+00  0.00000000000E+00 -0.11528631972E+03  0.29823810109E+03  0.27505459354E+03 0.  0.
         25    2    3    3    0    0  0.12463145760E+02  0.13331215222E+02 -0.12136977764E+03  0.17235230298E+03  0.12100265334E+03 0.  0.
         25    2    3    3    0    0 -0.12463145760E+02 -0.13331215222E+02  0.60834579253E+01  0.12588579811E+03  0.12440729240E+03 0.  0.
          5    1    4    4  502    0  0.44765605494E+02 -0.29971762343E+02 -0.20505220053E+02  0.57834419013E+02  0.47000000000E+01 0. -1.
         -5    1    4    4    0  502 -0.32302459733E+02  0.43302977565E+02 -0.10086455759E+03  0.11451788397E+03  0.47000000000E+01 0. -1.
          5    1    5    5  503    0 -0.59169937846E+02  0.25152523604E+02  0.91269270463E+01  0.65108538500E+02  0.47000000000E+01 0.  1.
         -5    1    5    5    0  503  0.46706792086E+02 -0.38483738827E+02 -0.30434691210E+01  0.60777259607E+02  0.47000000000E+01 0.  1.
<mgrwt>
<rscale>  0 0.27505459E+03</rscale>
<asrwt>0</asrwt>
<pdfrwt beam="1">  1        4 0.31809570E-01 0.27505459E+03</pdfrwt>
<pdfrwt beam="2">  1       -4 0.14073214E-01 0.27505459E+03</pdfrwt>
<totfact> 0.75145041E+02</totfact>
</mgrwt>
</event>
<event>
 9    1  0.7944303E-001  0.2761901E+03  0.7818608E-02  0.1097788E+00
          2   -1    0    0  501    0  0.00000000000E+00  0.00000000000E+00  0.64491822091E+03  0.64491822091E+03  0.00000000000E+00 0.  1.
         -2   -1    0    0    0  501 -0.00000000000E+00 -0.00000000000E+00 -0.29570013128E+02  0.29570013128E+02  0.00000000000E+00 0.  1.
         35    2    1    2    0    0  0.00000000000E+00  0.35527136788E-14  0.61534820778E+03  0.67448823403E+03  0.27619008135E+03 0.  0.
         25    2    3    3    0    0  0.31943299782E+02  0.10254038972E+02  0.19272046117E+03  0.23245933886E+03  0.12558124204E+03 0.  0.
         25    2    3    3    0    0 -0.31943299782E+02 -0.10254038972E+02  0.42262774661E+03  0.44202889517E+03  0.12509920964E+03 0.  0.
          5    1    4    4  502    0 -0.18435583824E+02  0.12272558474E+02 -0.90870564278E+01  0.24395717594E+02  0.47000000000E+01 0.  1.
         -5    1    4    4    0  502  0.50378883605E+02 -0.20185195025E+01  0.20180751760E+03  0.20806362126E+03  0.47000000000E+01 0.  1.
          5    1    5    5  503    0  0.15969233814E+02  0.49684587091E+02  0.15819406752E+03  0.16664641497E+03  0.47000000000E+01 0.  1.
         -5    1    5    5    0  503 -0.47912533596E+02 -0.59938626063E+02  0.26443367908E+03  0.27538248021E+03  0.47000000000E+01 0.  1.
<mgrwt>
<rscale>  0 0.27619008E+03</rscale>
<asrwt>0</asrwt>
<pdfrwt beam="1">  1        2 0.99218177E-01 0.27619008E+03</pdfrwt>
<pdfrwt beam="2">  1       -2 0.45492333E-02 0.27619008E+03</pdfrwt>
<totfact> 0.10430155E+04</totfact>
</mgrwt>
</event>
<event>
 9    1  0.7944303E-001  0.2850122E+03  0.7818608E-02  0.1092982E+00
          2   -1    0    0  501    0  0.00000000000E+00  0.00000000000E+00  0.79222931211E+03  0.79222931211E+03  0.00000000000E+00 0. -1.
         -2   -1    0    0    0  501 -0.00000000000E+00 -0.00000000000E+00 -0.25633981666E+02  0.25633981666E+02  0.00000000000E+00 0. -1.
         35    2    1    2    0    0  0.35527136788E-14  0.00000000000E+00  0.76659533044E+03  0.81786329377E+03  0.28501222193E+03 0.  0.
         25    2    3    3    0    0 -0.19817232096E+02 -0.64737176109E+02  0.38124639772E+03  0.40704094668E+03  0.12549857305E+03 0.  0.
         25    2    3    3    0    0  0.19817232096E+02  0.64737176109E+02  0.38534893272E+03  0.41082234710E+03  0.12528996874E+03 0.  0.
          5    1    4    4  502    0 -0.31488829519E+02  0.31047667755E+02  0.94102478526E+02  0.10408107668E+03  0.47000000000E+01 0. -1.
         -5    1    4    4    0  502  0.11671597423E+02 -0.95784843864E+02  0.28714391919E+03  0.30295987000E+03  0.47000000000E+01 0. -1.
          5    1    5    5  503    0 -0.36689396456E+02  0.56589350524E+02  0.10646839822E+03  0.12611929362E+03  0.47000000000E+01 0.  1.
         -5    1    5    5    0  503  0.56506628552E+02  0.81478255850E+01  0.27888053451E+03  0.28470305347E+03  0.47000000000E+01 0.  1.
<mgrwt>
<rscale>  0 0.28501222E+03</rscale>
<asrwt>0</asrwt>
<pdfrwt beam="1">  1        2 0.12188141E+00 0.28501222E+03</pdfrwt>
<pdfrwt beam="2">  1       -2 0.39436901E-02 0.28501222E+03</pdfrwt>
<totfact> 0.10068743E+04</totfact>
</mgrwt>
</event>
<event>
 9    1  0.7944303E-001  0.2726973E+03  0.7818608E-02  0.1099746E+00
         -2   -1    0    0    0  501 -0.00000000000E+00  0.00000000000E+00  0.14295196751E+02  0.14295196751E+02  0.00000000000E+00 0.  1.
          2   -1    0    0  501    0  0.00000000000E+00 -0.00000000000E+00 -0.13005037006E+04  0.13005037006E+04  0.00000000000E+00 0.  1.
         35    2    1    2    0    0  0.00000000000E+00 -0.35527136788E-14 -0.12862085039E+04  0.13147988974E+04  0.27269731408E+03 0.  0.
         25    2    3    3    0    0  0.52116381253E+02 -0.10494542123E+02 -0.58708299885E+03  0.60256828734E+03  0.12488330856E+03 0.  0.
         25    2    3    3    0    0 -0.52116381253E+02  0.10494542123E+02 -0.69912550503E+03  0.71223061005E+03  0.12517874217E+03 0.  0.
          5    1    4    4  502    0  0.70136758269E+02 -0.37475459627E+02 -0.21917280634E+03  0.23320030869E+03  0.47000000000E+01 0.  1.
         -5    1    4    4    0  502 -0.18020377016E+02  0.26980917504E+02 -0.36791019251E+03  0.36936797865E+03  0.47000000000E+01 0.  1.
          5    1    5    5  503    0 -0.32329747251E+02 -0.46065061578E+02 -0.52489288978E+03  0.52792218953E+03  0.47000000000E+01 0.  1.
         -5    1    5    5    0  503 -0.19786634003E+02  0.56559603702E+02 -0.17423261525E+03  0.18430842052E+03  0.47000000000E+01 0.  1.
<mgrwt>
<rscale>  0 0.27269731E+03</rscale>
<asrwt>0</asrwt>
<pdfrwt beam="1">  1        2 0.20007751E+00 0.27269731E+03</pdfrwt>
<pdfrwt beam="2">  1       -2 0.21992608E-02 0.27269731E+03</pdfrwt>
<totfact> 0.11769669E+04</totfact>
</mgrwt>
</event>
<event>
 9    1  0.7944303E-001  0.2793971E+03  0.7818608E-02  0.1096019E+00
          3   -1    0    0  501    0  0.00000000000E+00  0.00000000000E+00  0.14532387556E+03  0.14532387556E+03  0.00000000000E+00 0. -1.
         -3   -1    0    0    0  501 -0.00000000000E+00 -0.00000000000E+00 -0.13429096323E+03  0.13429096323E+03  0.00000000000E+00 0. -1.
         35    2    1    2    0    0  0.00000000000E+00  0.71054273576E-14  0.11032912330E+02  0.27961483878E+03  0.27939708823E+03 0.  0.
         25    2    3    3    0    0  0.19105576676E+02 -0.17913233461E+02 -0.34647002422E+02  0.14484642290E+03  0.13818163575E+03 0.  0.
         25    2    3    3    0    0 -0.19105576676E+02  0.17913233461E+02  0.45679914752E+02  0.13476841588E+03  0.12405629494E+03 0.  0.
          5    1    4    4  502    0  0.31515206007E+02 -0.72468199373E+02 -0.56499456698E+00  0.79166011324E+02  0.47000000000E+01 0. -1.
         -5    1    4    4    0  502 -0.12409629331E+02  0.54554965913E+02 -0.34082007855E+02  0.65680411580E+02  0.47000000000E+01 0. -1.
          5    1    5    5  503    0 -0.29237971888E+02  0.67969902125E+02  0.17222820104E+02  0.76114927100E+02  0.47000000000E+01 0.  1.
         -5    1    5    5    0  503  0.10132395212E+02 -0.50056668664E+02  0.28457094647E+02  0.58653488782E+02  0.47000000000E+01 0.  1.
<mgrwt>
<rscale>  0 0.27939709E+03</rscale>
<asrwt>0</asrwt>
<pdfrwt beam="1">  1        3 0.22357519E-01 0.27939709E+03</pdfrwt>
<pdfrwt beam="2">  1       -3 0.20660148E-01 0.27939709E+03</pdfrwt>
<totfact> 0.99231943E+02</totfact>
</mgrwt>
</event>
<event>
 9    1  0.7944303E-001  0.2681233E+03  0.7818608E-02  0.1102359E+00
         -2   -1    0    0    0  501 -0.00000000000E+00  0.00000000000E+00  0.25655931146E+02  0.25655931146E+02  0.00000000000E+00 0.  1.
          2   -1    0    0  501    0  0.00000000000E+00 -0.00000000000E+00 -0.70052132330E+03  0.70052132330E+03  0.00000000000E+00 0.  1.
         35    2    1    2    0    0  0.00000000000E+00  0.00000000000E+00 -0.67486539216E+03  0.72617725445E+03  0.26812330624E+03 0.  0.
         25    2    3    3    0    0  0.24018001398E+02 -0.20067963795E+02 -0.23988674021E+03  0.27247530858E+03  0.12536968569E+03 0.  0.
         25    2    3    3    0    0 -0.24018001398E+02  0.20067963795E+02 -0.43497865194E+03  0.45370194588E+03  0.12513768610E+03 0.  0.
          5    1    4    4  502    0 -0.38412940134E+02  0.29735307138E+02 -0.80517572307E+02  0.94153661164E+02  0.47000000000E+01 0.  1.
         -5    1    4    4    0  502  0.62430941532E+02 -0.49803270933E+02 -0.15936916791E+03  0.17832164741E+03  0.47000000000E+01 0.  1.
          5    1    5    5  503    0  0.38577582412E+01 -0.22977307898E+02 -0.10286153935E+02  0.25898531612E+02  0.47000000000E+01 0. -1.
         -5    1    5    5    0  503 -0.27875759639E+02  0.43045271693E+02 -0.42469249801E+03  0.42780341426E+03  0.47000000000E+01 0. -1.
<mgrwt>
<rscale>  0 0.26812331E+03</rscale>
<asrwt>0</asrwt>
<pdfrwt beam="1">  1        2 0.10777253E+00 0.26812331E+03</pdfrwt>
<pdfrwt beam="2">  1       -2 0.39470658E-02 0.26812331E+03</pdfrwt>
<totfact> 0.11688076E+04</totfact>
</mgrwt>
</event>
<event>
 9    1  0.7944303E-001  0.2689773E+03  0.7818608E-02  0.1101866E+00
          2   -1    0    0  501    0  0.00000000000E+00  0.00000000000E+00  0.10302038673E+04  0.10302038673E+04  0.00000000000E+00 0. -1.
         -2   -1    0    0    0  501 -0.00000000000E+00 -0.00000000000E+00 -0.17556908396E+02  0.17556908396E+02  0.00000000000E+00 0. -1.
         35    2    1    2    0    0  0.35527136788E-14 -0.71054273576E-14  0.10126469589E+04  0.10477607757E+04  0.26897728475E+03 0.  0.
         25    2    3    3    0    0 -0.30617883056E+01 -0.36024377031E+02  0.37074383625E+03  0.39281958147E+03  0.12469603514E+03 0.  0.
         25    2    3    3    0    0  0.30617883056E+01  0.36024377031E+02  0.64190312267E+03  0.65494119424E+03  0.12490483871E+03 0.  0.
          5    1    4    4  502    0  0.51018798418E+02 -0.81548970776E-01  0.80942029997E+02  0.95794711035E+02  0.47000000000E+01 0. -1.
         -5    1    4    4    0  502 -0.54080586723E+02 -0.35942828060E+02  0.28980180625E+03  0.29702487044E+03  0.47000000000E+01 0. -1.
          5    1    5    5  503    0  0.31655192067E+02  0.71362953019E+02  0.30127251541E+03  0.31125863970E+03  0.47000000000E+01 0. -1.
         -5    1    5    5    0  503 -0.28593403762E+02 -0.35338575989E+02  0.34063060726E+03  0.34368255454E+03  0.47000000000E+01 0. -1.
<mgrwt>
<rscale>  0 0.26897728E+03</rscale>
<asrwt>0</asrwt>
<pdfrwt beam="1">  1        2 0.15849286E+00 0.26897728E+03</pdfrwt>
<pdfrwt beam="2">  1       -2 0.27010636E-02 0.26897728E+03</pdfrwt>
<totfact> 0.12422015E+04</totfact>
</mgrwt>
</event>
<event>
 9    1  0.7944303E-001  0.2760762E+03  0.7818608E-02  0.1097852E+00
          2   -1    0    0  501    0  0.00000000000E+00  0.00000000000E+00  0.74715120869E+03  0.74715120869E+03  0.00000000000E+00 0. -1.
         -2   -1    0    0    0  501 -0.00000000000E+00 -0.00000000000E+00 -0.25502886755E+02  0.25502886755E+02  0.00000000000E+00 0. -1.
         35    2    1    2    0    0  0.00000000000E+00  0.00000000000E+00  0.72164832194E+03  0.77265409545E+03  0.27607616822E+03 0.  0.
         25    2    3    3    0    0 -0.13598945545E+02 -0.91279081312E+01  0.19479735264E+03  0.23148070980E+03  0.12397201452E+03 0.  0.
         25    2    3    3    0    0  0.13598945545E+02  0.91279081312E+01  0.52685096929E+03  0.54117338565E+03  0.12259053579E+03 0.  0.
          5    1    4    4  502    0  0.23294299433E+02 -0.37839220589E+02  0.17373572383E+02  0.47941235051E+02  0.47000000000E+01 0. -1.
         -5    1    4    4    0  502 -0.36893244978E+02  0.28711312458E+02  0.17742378026E+03  0.18353947475E+03  0.47000000000E+01 0. -1.
          5    1    5    5  503    0 -0.14187164060E+02 -0.11963574517E+02  0.73894471864E+01  0.20520640073E+02  0.47000000000E+01 0.  1.
         -5    1    5    5    0  503  0.27786109605E+02  0.21091482648E+02  0.51946152211E+03  0.52065274558E+03  0.47000000000E+01 0.  1.
<mgrwt>
<rscale>  0 0.27607617E+03</rscale>
<asrwt>0</asrwt>
<pdfrwt beam="1">  1        2 0.11494632E+00 0.27607617E+03</pdfrwt>
<pdfrwt beam="2">  1       -2 0.39235216E-02 0.27607617E+03</pdfrwt>
<totfact> 0.10909241E+04</totfact>
</mgrwt>
</event>
<event>
 9    1  0.7944303E-001  0.2751849E+03  0.7818608E-02  0.1098348E+00
          2   -1    0    0  501    0  0.00000000000E+00  0.00000000000E+00  0.33780731246E+02  0.33780731246E+02  0.00000000000E+00 0. -1.
         -2   -1    0    0    0  501 -0.00000000000E+00 -0.00000000000E+00 -0.56042844963E+03  0.56042844963E+03  0.00000000000E+00 0. -1.
         35    2    1    2    0    0 -0.14210854715E-13  0.00000000000E+00 -0.52664771838E+03  0.59420918087E+03  0.27518490394E+03 0.  0.
         25    2    3    3    0    0 -0.54970660821E+02  0.37570463847E+01 -0.30894562672E+03  0.33759708064E+03  0.12445280085E+03 0.  0.
         25    2    3    3    0    0  0.54970660821E+02 -0.37570463847E+01 -0.21770209166E+03  0.25661210023E+03  0.12417600542E+03 0.  0.
          5    1    4    4  502    0  0.27452821758E+02 -0.34978855101E+02 -0.93242006859E+02  0.10340860491E+03  0.47000000000E+01 0. -1.
         -5    1    4    4    0  502 -0.82423482579E+02  0.38735901485E+02 -0.21570361986E+03  0.23418847573E+03  0.47000000000E+01 0. -1.
          5    1    5    5  503    0  0.75559383509E+02 -0.31655373110E+02 -0.80247171253E+02  0.11477361011E+03  0.47000000000E+01 0. -1.
         -5    1    5    5    0  503 -0.20588722688E+02  0.27898326726E+02 -0.13745492041E+03  0.14183849012E+03  0.47000000000E+01 0. -1.
<mgrwt>
<rscale>  0 0.27518490E+03</rscale>
<asrwt>0</asrwt>
<pdfrwt beam="1">  1        2 0.51970358E-02 0.27518490E+03</pdfrwt>
<pdfrwt beam="2">  1       -2 0.86219757E-01 0.27518490E+03</pdfrwt>
<totfact> 0.17966042E+03</totfact>
</mgrwt>
</event>
<event>
 9    1  0.7944303E-001  0.2771552E+03  0.7818608E-02  0.1097253E+00
         -1   -1    0    0    0  501 -0.00000000000E+00  0.00000000000E+00  0.64517894213E+02  0.64517894213E+02  0.00000000000E+00 0.  1.
          1   -1    0    0  501    0  0.00000000000E+00 -0.00000000000E+00 -0.29765008487E+03  0.29765008487E+03  0.00000000000E+00 0.  1.
         35    2    1    2    0    0  0.00000000000E+00 -0.71054273576E-14 -0.23313219065E+03  0.36216797908E+03  0.27715523945E+03 0.  0.
         25    2    3    3    0    0  0.16557149763E+01  0.54149325963E+02 -0.88974620826E+02  0.16255113241E+03  0.12478580288E+03 0.  0.
         25    2    3    3    0    0 -0.16557149763E+01 -0.54149325963E+02 -0.14415756983E+03  0.19961684667E+03  0.12700625828E+03 0.  0.
          5    1    4    4  502    0  0.22093590996E+02  0.46796928487E+02  0.16687820180E+02  0.54577033826E+02  0.47000000000E+01 0. -1.
         -5    1    4    4    0  502 -0.20437876020E+02  0.73523974757E+01 -0.10566244101E+03  0.10797409858E+03  0.47000000000E+01 0. -1.
          5    1    5    5  503    0  0.56200218589E+02  0.31613299188E+01 -0.60711549769E+02  0.82924307967E+02  0.47000000000E+01 0.  1.
         -5    1    5    5    0  503 -0.57855933566E+02 -0.57310655882E+02 -0.83446020060E+02  0.11669253871E+03  0.47000000000E+01 0.  1.
<mgrwt>
<rscale>  0 0.27715524E+03</rscale>
<asrwt>0</asrwt>
<pdfrwt beam="1">  1        1 0.45792321E-01 0.27715524E+03</pdfrwt>
<pdfrwt beam="2">  1       -1 0.99258299E-02 0.27715524E+03</pdfrwt>
<totfact> 0.54235748E+03</totfact>
</mgrwt>
</event>
<event>
 9    1  0.7944303E-001  0.2762102E+03  0.7818608E-02  0.1097777E+00
         -2   -1    0    0    0  501 -0.00000000000E+00  0.00000000000E+00  0.30301538182E+02  0.30301538182E+02  0.00000000000E+00 0. -1.
          2   -1    0    0  501    0  0.00000000000E+00 -0.00000000000E+00 -0.62944082326E+03  0.62944082326E+03  0.00000000000E+00 0. -1.
         35    2    1    2    0    0  0.00000000000E+00  0.00000000000E+00 -0.59913928508E+03  0.65974236145E+03  0.27621024702E+03 0.  0.
         25    2    3    3    0    0  0.18139730701E+02 -0.44267222582E+02 -0.38480699569E+03  0.40707109455E+03  0.12386208162E+03 0.  0.
         25    2    3    3    0    0 -0.18139730701E+02  0.44267222582E+02 -0.21433228940E+03  0.25267126690E+03  0.12496320263E+03 0.  0.
          5    1    4    4  502    0  0.11800014627E+01 -0.22129117958E+02 -0.37707127595E+03  0.37775114482E+03  0.47000000000E+01 0.  1.
         -5    1    4    4    0  502  0.16959729238E+02 -0.22138104625E+02 -0.77357197321E+01  0.29319949727E+02  0.47000000000E+01 0.  1.
          5    1    5    5  503    0 -0.60874705012E+02  0.40408307151E+02 -0.67351260968E+02  0.99482879688E+02  0.47000000000E+01 0. -1.
         -5    1    5    5    0  503  0.42734974311E+02  0.38589154313E+01 -0.14698102843E+03  0.15318838721E+03  0.47000000000E+01 0. -1.
<mgrwt>
<rscale>  0 0.27621025E+03</rscale>
<asrwt>0</asrwt>
<pdfrwt beam="1">  1        2 0.96837046E-01 0.27621025E+03</pdfrwt>
<pdfrwt beam="2">  1       -2 0.46617753E-02 0.27621025E+03</pdfrwt>
<totfact> 0.10343686E+04</totfact>
</mgrwt>
</event>
<event>
 9    1  0.7944303E-001  0.2754164E+03  0.7818608E-02  0.1098219E+00
          1   -1    0    0  501    0  0.00000000000E+00  0.00000000000E+00  0.41215250699E+03  0.41215250699E+03  0.00000000000E+00 0.  1.
         -1   -1    0    0    0  501 -0.00000000000E+00 -0.00000000000E+00 -0.46011000147E+02  0.46011000147E+02  0.00000000000E+00 0.  1.
         35    2    1    2    0    0 -0.71054273576E-14 -0.21316282073E-13  0.36614150684E+03  0.45816350713E+03  0.27541640517E+03 0.  0.
         25    2    3    3    0    0 -0.30309685231E+02 -0.48684434732E+02  0.18064260228E+03  0.22677495792E+03  0.12452421684E+03 0.  0.
         25    2    3    3    0    0  0.30309685231E+02  0.48684434732E+02  0.18549890456E+03  0.23138854921E+03  0.12586487162E+03 0.  0.
          5    1    4    4  502    0 -0.19266670392E+02 -0.74266291733E+02  0.18293112450E+03  0.19842523274E+03  0.47000000000E+01 0.  1.
         -5    1    4    4    0  502 -0.11043014838E+02  0.25581857000E+02 -0.22885222193E+01  0.28349725188E+02  0.47000000000E+01 0.  1.
          5    1    5    5  503    0  0.93038586122E+01 -0.38538938197E+02  0.98694114814E+02  0.10646327931E+03  0.47000000000E+01 0. -1.
         -5    1    5    5    0  503  0.21005826618E+02  0.87223372929E+02  0.86804789745E+02  0.12492526990E+03  0.47000000000E+01 0. -1.
<mgrwt>
<rscale>  0 0.27541641E+03</rscale>
<asrwt>0</asrwt>
<pdfrwt beam="1">  1        1 0.63408075E-01 0.27541641E+03</pdfrwt>
<pdfrwt beam="2">  1       -1 0.70786157E-02 0.27541641E+03</pdfrwt>
<totfact> 0.60197894E+03</totfact>
</mgrwt>
</event>
<event>
 9    1  0.7944303E-001  0.2748960E+03  0.7818608E-02  0.1098510E+00
         -2   -1    0    0    0  501 -0.00000000000E+00  0.00000000000E+00  0.22189545261E+02  0.22189545261E+02  0.00000000000E+00 0.  1.
          2   -1    0    0  501    0  0.00000000000E+00 -0.00000000000E+00 -0.85139007958E+03  0.85139007958E+03  0.00000000000E+00 0.  1.
         35    2    1    2    0    0  0.35527136788E-14  0.14210854715E-13 -0.82920053431E+03  0.87357962484E+03  0.27489604366E+03 0.  0.
         25    2    3    3    0    0 -0.30407011979E+02 -0.43582655554E+02 -0.36584188390E+03  0.39070409885E+03  0.12643328121E+03 0.  0.
         25    2    3    3    0    0  0.30407011979E+02  0.43582655554E+02 -0.46335865042E+03  0.48287552599E+03  0.12507397988E+03 0.  0.
          5    1    4    4  502    0  0.23266576662E+02 -0.72215127498E+02 -0.19489854481E+03  0.20919820983E+03  0.47000000000E+01 0.  1.
         -5    1    4    4    0  502 -0.53673588641E+02  0.28632471944E+02 -0.17094333909E+03  0.18150588901E+03  0.47000000000E+01 0.  1.
          5    1    5    5  503    0  0.44478284364E+02  0.79732302745E+02 -0.37955584415E+03  0.39041040805E+03  0.47000000000E+01 0.  1.
         -5    1    5    5    0  503 -0.14071272385E+02 -0.36149647191E+02 -0.83802806262E+02  0.92465117941E+02  0.47000000000E+01 0.  1.
<mgrwt>
<rscale>  0 0.27489604E+03</rscale>
<asrwt>0</asrwt>
<pdfrwt beam="1">  1        2 0.13098307E+00 0.27489604E+03</pdfrwt>
<pdfrwt beam="2">  1       -2 0.34137766E-02 0.27489604E+03</pdfrwt>
<totfact> 0.11380887E+04</totfact>
</mgrwt>
</event>
<event>
 9    1  0.7944303E-001  0.2718731E+03  0.7818608E-02  0.1100212E+00
         -2   -1    0    0    0  501 -0.00000000000E+00  0.00000000000E+00  0.34013920567E+03  0.34013920567E+03  0.00000000000E+00 0. -1.
          2   -1    0    0  501    0  0.00000000000E+00 -0.00000000000E+00 -0.54327006269E+02  0.54327006269E+02  0.00000000000E+00 0. -1.
         35    2    1    2    0    0  0.71054273576E-14  0.00000000000E+00  0.28581219940E+03  0.39446621194E+03  0.27187309362E+03 0.  0.
         25    2    3    3    0    0  0.48144499946E+02  0.23968357990E+02  0.15087078731E+03  0.20291278030E+03  0.12457618907E+03 0.  0.
         25    2    3    3    0    0 -0.48144499946E+02 -0.23968357990E+02  0.13494141208E+03  0.19155343164E+03  0.12486455629E+03 0.  0.
          5    1    4    4  502    0  0.84929907514E+02  0.37053967694E+02  0.12565835958E+03  0.15619922869E+03  0.47000000000E+01 0. -1.
         -5    1    4    4    0  502 -0.36785407567E+02 -0.13085609704E+02  0.25212427737E+02  0.46713551606E+02  0.47000000000E+01 0. -1.
          5    1    5    5  503    0 -0.41670383713E+02  0.38234955598E+02  0.11054395053E+03  0.12425935662E+03  0.47000000000E+01 0. -1.
         -5    1    5    5    0  503 -0.64741162334E+01 -0.62203313589E+02  0.24397461551E+02  0.67294075018E+02  0.47000000000E+01 0. -1.
<mgrwt>
<rscale>  0 0.27187309E+03</rscale>
<asrwt>0</asrwt>
<pdfrwt beam="1">  1        2 0.83580011E-02 0.27187309E+03</pdfrwt>
<pdfrwt beam="2">  1       -2 0.52329107E-01 0.27187309E+03</pdfrwt>
<totfact> 0.28059333E+03</totfact>
</mgrwt>
</event>
<event>
 9    1  0.7944303E-001  0.2780696E+03  0.7818608E-02  0.1096748E+00
          2   -1    0    0  501    0  0.00000000000E+00  0.00000000000E+00  0.15854744563E+04  0.15854744563E+04  0.00000000000E+00 0.  1.
         -2   -1    0    0    0  501 -0.00000000000E+00 -0.00000000000E+00 -0.12192361693E+02  0.12192361693E+02  0.00000000000E+00 0.  1.
         35    2    1    2    0    0  0.00000000000E+00  0.35527136788E-14  0.15732820947E+04  0.15976668180E+04  0.27806961737E+03 0.  0.
         25    2    3    3    0    0 -0.32348813917E+02 -0.13946667501E+01  0.51242268627E+03  0.52881916852E+03  0.12658717442E+03 0.  0.
         25    2    3    3    0    0  0.32348813917E+02  0.13946667501E+01  0.10608594084E+04  0.10688476495E+04  0.12634960499E+03 0.  0.
          5    1    4    4  502    0  0.47629481114E+02  0.34601513946E+01  0.24310732101E+03  0.24779790081E+03  0.47000000000E+01 0. -1.
         -5    1    4    4    0  502 -0.79978295032E+02 -0.48548181447E+01  0.26931536527E+03  0.28102126771E+03  0.47000000000E+01 0. -1.
          5    1    5    5  503    0 -0.16827544017E+02 -0.32410614570E+02  0.81407399553E+03  0.81490623655E+03  0.47000000000E+01 0. -1.
         -5    1    5    5    0  503  0.49176357934E+02  0.33805281320E+02  0.24678541285E+03  0.25394141297E+03  0.47000000000E+01 0. -1.
<mgrwt>
<rscale>  0 0.27806962E+03</rscale>
<asrwt>0</asrwt>
<pdfrwt beam="1">  1        2 0.24391898E+00 0.27806962E+03</pdfrwt>
<pdfrwt beam="2">  1       -2 0.18757492E-02 0.27806962E+03</pdfrwt>
<totfact> 0.10439565E+04</totfact>
</mgrwt>
</event>
<event>
 9    1  0.7944303E-001  0.2853927E+03  0.7818608E-02  0.1092779E+00
          2   -1    0    0  501    0  0.00000000000E+00  0.00000000000E+00  0.21415788208E+04  0.21415788208E+04  0.00000000000E+00 0.  1.
         -2   -1    0    0    0  501 -0.00000000000E+00 -0.00000000000E+00 -0.95080542788E+01  0.95080542788E+01  0.00000000000E+00 0.  1.
         35    2    1    2    0    0  0.00000000000E+00  0.00000000000E+00  0.21320707665E+04  0.21510868750E+04  0.28539269556E+03 0.  0.
         25    2    3    3    0    0  0.34526353358E+02  0.54987208289E+02  0.12759448838E+04  0.12836409690E+04  0.12443122141E+03 0.  0.
         25    2    3    3    0    0 -0.34526353358E+02 -0.54987208289E+02  0.85612588272E+03  0.86744590599E+03  0.12367380730E+03 0.  0.
          5    1    4    4  502    0 -0.95259943584E+01 -0.29525256529E+02  0.61983604583E+03  0.62062976004E+03  0.47000000000E+01 0. -1.
         -5    1    4    4    0  502  0.44052347716E+02  0.84512464819E+02  0.65610883793E+03  0.66301120900E+03  0.47000000000E+01 0. -1.
          5    1    5    5  503    0  0.26129114448E+02 -0.56263747794E+02  0.22657330582E+03  0.23495934296E+03  0.47000000000E+01 0. -1.
         -5    1    5    5    0  503 -0.60655467805E+02  0.12765395046E+01  0.62955257690E+03  0.63248656303E+03  0.47000000000E+01 0. -1.
<mgrwt>
<rscale>  0 0.28539270E+03</rscale>
<asrwt>0</asrwt>
<pdfrwt beam="1">  1        2 0.32947328E+00 0.28539270E+03</pdfrwt>
<pdfrwt beam="2">  1       -2 0.14627793E-02 0.28539270E+03</pdfrwt>
<totfact> 0.76571906E+03</totfact>
</mgrwt>
</event>
<event>
 9    1  0.7944303E-001  0.2760031E+03  0.7818608E-02  0.1097892E+00
         -2   -1    0    0    0  501 -0.00000000000E+00  0.00000000000E+00  0.46992942936E+02  0.46992942936E+02  0.00000000000E+00 0.  1.
          2   -1    0    0  501    0  0.00000000000E+00 -0.00000000000E+00 -0.40526137082E+03  0.40526137082E+03  0.00000000000E+00 0.  1.
         35    2    1    2    0    0  0.35527136788E-14  0.00000000000E+00 -0.35826842788E+03  0.45225431375E+03  0.27600307588E+03 0.  0.
         25    2    3    3    0    0 -0.26405165021E+02  0.10461070603E+02 -0.10106526597E+03  0.16480248887E+03  0.12703938607E+03 0.  0.
         25    2    3    3    0    0  0.26405165021E+02 -0.10461070603E+02 -0.25720316191E+03  0.28745182489E+03  0.12517355309E+03 0.  0.
          5    1    4    4  502    0  0.39071457856E+02 -0.12865521339E+01  0.48185398032E+01  0.39667900893E+02  0.47000000000E+01 0. -1.
         -5    1    4    4    0  502 -0.65476622877E+02  0.11747622737E+02 -0.10588380577E+03  0.12513458798E+03  0.47000000000E+01 0. -1.
          5    1    5    5  503    0  0.15775417608E+02 -0.13338878843E+02 -0.26947495912E+03  0.27030655390E+03  0.47000000000E+01 0. -1.
         -5    1    5    5    0  503  0.10629747413E+02  0.28778082404E+01  0.12271797208E+02  0.17145270982E+02  0.47000000000E+01 0. -1.
<mgrwt>
<rscale>  0 0.27600308E+03</rscale>
<asrwt>0</asrwt>
<pdfrwt beam="1">  1        2 0.62347902E-01 0.27600308E+03</pdfrwt>
<pdfrwt beam="2">  1       -2 0.72296836E-02 0.27600308E+03</pdfrwt>
<totfact> 0.86639116E+03</totfact>
</mgrwt>
</event>
<event>
 9    1  0.7944303E-001  0.3048334E+03  0.7818608E-02  0.1082849E+00
          2   -1    0    0  501    0  0.00000000000E+00  0.00000000000E+00  0.61724270137E+03  0.61724270137E+03  0.00000000000E+00 0.  1.
         -2   -1    0    0    0  501 -0.00000000000E+00 -0.00000000000E+00 -0.37636490256E+02  0.37636490256E+02  0.00000000000E+00 0.  1.
         35    2    1    2    0    0  0.00000000000E+00  0.00000000000E+00  0.57960621111E+03  0.65487919163E+03  0.30483339001E+03 0.  0.
         25    2    3    3    0    0 -0.76630278814E+02 -0.33785048547E+01  0.20726315735E+03  0.25488558386E+03  0.12698437124E+03 0.  0.
         25    2    3    3    0    0  0.76630278814E+02  0.33785048547E+01  0.37234305376E+03  0.39999360777E+03  0.12438618348E+03 0.  0.
          5    1    4    4  502    0 -0.35214324508E+02  0.10524402026E+02 -0.56542434375E+01  0.37481624263E+02  0.47000000000E+01 0.  1.
         -5    1    4    4    0  502 -0.41415954306E+02 -0.13902906880E+02  0.21291740079E+03  0.21740395960E+03  0.47000000000E+01 0.  1.
          5    1    5    5  503    0  0.55239211773E+02  0.31482085473E+02  0.66654350914E+02  0.92235485139E+02  0.47000000000E+01 0.  1.
         -5    1    5    5    0  503  0.21391067040E+02 -0.28103580618E+02  0.30568870285E+03  0.30775812263E+03  0.47000000000E+01 0.  1.
<mgrwt>
<rscale>  0 0.30483339E+03</rscale>
<asrwt>0</asrwt>
<pdfrwt beam="1">  1        2 0.94960408E-01 0.30483339E+03</pdfrwt>
<pdfrwt beam="2">  1       -2 0.57902297E-02 0.30483339E+03</pdfrwt>
<totfact> 0.76295094E+03</totfact>
</mgrwt>
</event>
<event>
 9    1  0.7944303E-001  0.2713703E+03  0.7818608E-02  0.1100498E+00
         -2   -1    0    0    0  501 -0.00000000000E+00  0.00000000000E+00  0.23480713946E+02  0.23480713946E+02  0.00000000000E+00 0. -1.
          2   -1    0    0  501    0  0.00000000000E+00 -0.00000000000E+00 -0.78406726598E+03  0.78406726598E+03  0.00000000000E+00 0. -1.
         35    2    1    2    0    0  0.00000000000E+00 -0.14210854715E-13 -0.76058655204E+03  0.80754797993E+03  0.27137029452E+03 0.  0.
         25    2    3    3    0    0  0.11354848887E+02  0.33119175496E+02 -0.26287477306E+03  0.29315684123E+03  0.12494788862E+03 0.  0.
         25    2    3    3    0    0 -0.11354848887E+02 -0.33119175496E+02 -0.49771177898E+03  0.51439113870E+03  0.12512160589E+03 0.  0.
          5    1    4    4  502    0  0.54348511949E+02 -0.22588440337E+02 -0.12775539628E+03  0.14073922576E+03  0.47000000000E+01 0. -1.
         -5    1    4    4    0  502 -0.42993663062E+02  0.55707615833E+02 -0.13511937678E+03  0.15241761547E+03  0.47000000000E+01 0. -1.
          5    1    5    5  503    0 -0.33985228034E+02 -0.15948522086E+02 -0.47800437401E+03  0.47949934584E+03  0.47000000000E+01 0. -1.
         -5    1    5    5    0  503  0.22630379147E+02 -0.17170653409E+02 -0.19707404966E+02  0.34891792865E+02  0.47000000000E+01 0. -1.
<mgrwt>
<rscale>  0 0.27137029E+03</rscale>
<asrwt>0</asrwt>
<pdfrwt beam="1">  1        2 0.12062573E+00 0.27137029E+03</pdfrwt>
<pdfrwt beam="2">  1       -2 0.36124177E-02 0.27137029E+03</pdfrwt>
<totfact> 0.11618420E+04</totfact>
</mgrwt>
</event>
<event>
 9    1  0.7944303E-001  0.2769607E+03  0.7818608E-02  0.1097361E+00
         -1   -1    0    0    0  501 -0.00000000000E+00  0.00000000000E+00  0.30491172691E+02  0.30491172691E+02  0.00000000000E+00 0. -1.
          1   -1    0    0  501    0  0.00000000000E+00 -0.00000000000E+00 -0.62893000691E+03  0.62893000691E+03  0.00000000000E+00 0. -1.
         35    2    1    2    0    0  0.35527136788E-14  0.14210854715E-13 -0.59843883422E+03  0.65942117960E+03  0.27696074416E+03 0.  0.
         25    2    3    3    0    0 -0.18578185601E+02  0.56218436981E+02 -0.29911460834E+03  0.32983649203E+03  0.12576526117E+03 0.  0.
         25    2    3    3    0    0  0.18578185601E+02 -0.56218436981E+02 -0.29932422588E+03  0.32958468757E+03  0.12460101302E+03 0.  0.
          5    1    4    4  502    0 -0.46821716119E+02  0.78471793011E+02 -0.26380492797E+03  0.27922253745E+03  0.47000000000E+01 0.  1.
         -5    1    4    4    0  502  0.28243530518E+02 -0.22253356030E+02 -0.35309680369E+02  0.50613954583E+02  0.47000000000E+01 0.  1.
          5    1    5    5  503    0  0.42708062479E+02 -0.87536356925E+02 -0.19772168758E+03  0.22045985604E+03  0.47000000000E+01 0. -1.
         -5    1    5    5    0  503 -0.24129876878E+02  0.31317919944E+02 -0.10160253830E+03  0.10912483153E+03  0.47000000000E+01 0. -1.
<mgrwt>
<rscale>  0 0.27696074E+03</rscale>
<asrwt>0</asrwt>
<pdfrwt beam="1">  1        1 0.96758464E-01 0.27696074E+03</pdfrwt>
<pdfrwt beam="2">  1       -1 0.46909496E-02 0.27696074E+03</pdfrwt>
<totfact> 0.63554215E+03</totfact>
</mgrwt>
</event>
<event>
 9    1  0.7944303E-001  0.2723983E+03  0.7818608E-02  0.1099915E+00
          1   -1    0    0  501    0  0.00000000000E+00  0.00000000000E+00  0.36102486521E+04  0.36102486521E+04  0.00000000000E+00 0. -1.
         -1   -1    0    0    0  501 -0.00000000000E+00 -0.00000000000E+00 -0.51382062028E+01  0.51382062028E+01  0.00000000000E+00 0. -1.
         35    2    1    2    0    0 -0.71054273576E-14  0.14210854715E-13  0.36051104459E+04  0.36153868583E+04  0.27239825269E+03 0.  0.
         25    2    3    3    0    0 -0.18409291250E+02  0.36523893839E+02  0.23106790994E+04  0.23143677191E+04  0.12404491928E+03 0.  0.
         25    2    3    3    0    0  0.18409291250E+02 -0.36523893839E+02  0.12944313465E+04  0.13010191392E+04  0.12419900540E+03 0.  0.
          5    1    4    4  502    0 -0.60223192248E+02 -0.14235142724E+02  0.89120972879E+03  0.89336797730E+03  0.47000000000E+01 0. -1.
         -5    1    4    4    0  502  0.41813900999E+02  0.50759036563E+02  0.14194693706E+04  0.14209997418E+04  0.47000000000E+01 0. -1.
          5    1    5    5  503    0 -0.10493473677E+02 -0.72678150567E+02  0.51861049501E+03  0.52380450751E+03  0.47000000000E+01 0.  1.
         -5    1    5    5    0  503  0.28902764926E+02  0.36154256728E+02  0.77582085149E+03  0.77721463168E+03  0.47000000000E+01 0.  1.
<mgrwt>
<rscale>  0 0.27239825E+03</rscale>
<asrwt>0</asrwt>
<pdfrwt beam="1">  1        1 0.55542084E+00 0.27239825E+03</pdfrwt>
<pdfrwt beam="2">  1       -1 0.79049615E-03 0.27239825E+03</pdfrwt>
<totfact> 0.68315521E+02</totfact>
</mgrwt>
</event>
<event>
 9    1  0.7944303E-001  0.3132773E+03  0.7818608E-02  0.1078786E+00
          1   -1    0    0  501    0  0.00000000000E+00  0.00000000000E+00  0.13126227094E+04  0.13126227094E+04  0.00000000000E+00 0.  1.
         -1   -1    0    0    0  501 -0.00000000000E+00 -0.00000000000E+00 -0.18692095069E+02  0.18692095069E+02  0.00000000000E+00 0.  1.
         35    2    1    2    0    0  0.14210854715E-13 -0.14210854715E-13  0.12939306143E+04  0.13313148045E+04  0.31327731149E+03 0.  0.
         25    2    3    3    0    0 -0.80157121643E+02  0.19695456621E+02  0.54604225415E+03  0.56625646487E+03  0.12518452590E+03 0.  0.
         25    2    3    3    0    0  0.80157121643E+02 -0.19695456621E+02  0.74788836018E+03  0.76505833960E+03  0.13843478081E+03 0.  0.
          5    1    4    4  502    0 -0.32943043415E+02  0.71326034697E+02  0.32301497511E+03  0.33246565459E+03  0.47000000000E+01 0.  1.
         -5    1    4    4    0  502 -0.47214078228E+02 -0.51630578076E+02  0.22302727904E+03  0.23379081028E+03  0.47000000000E+01 0.  1.
          5    1    5    5  503    0  0.26512882152E+02 -0.16275332253E+01  0.65912794520E+03  0.65967971010E+03  0.47000000000E+01 0.  1.
         -5    1    5    5    0  503  0.53644239491E+02 -0.18067923396E+02  0.88760414985E+02  0.10537862950E+03  0.47000000000E+01 0.  1.
<mgrwt>
<rscale>  0 0.31327731E+03</rscale>
<asrwt>0</asrwt>
<pdfrwt beam="1">  1        1 0.20194188E+00 0.31327731E+03</pdfrwt>
<pdfrwt beam="2">  1       -1 0.28757080E-02 0.31327731E+03</pdfrwt>
<totfact> 0.38490810E+03</totfact>
</mgrwt>
</event>
<event>
 9    1  0.7944303E-001  0.2768899E+03  0.7818608E-02  0.1097400E+00
          1   -1    0    0  501    0  0.00000000000E+00  0.00000000000E+00  0.11876377293E+04  0.11876377293E+04  0.00000000000E+00 0. -1.
         -1   -1    0    0    0  501 -0.00000000000E+00 -0.00000000000E+00 -0.16138757596E+02  0.16138757596E+02  0.00000000000E+00 0. -1.
         35    2    1    2    0    0 -0.71054273576E-14  0.00000000000E+00  0.11714989717E+04  0.12037764869E+04  0.27688985120E+03 0.  0.
         25    2    3    3    0    0  0.20054272047E+02 -0.50594937583E+02  0.47014425962E+03  0.48925195368E+03  0.12397510955E+03 0.  0.
         25    2    3    3    0    0 -0.20054272047E+02  0.50594937583E+02  0.70135471205E+03  0.71452453319E+03  0.12523919063E+03 0.  0.
          5    1    4    4  502    0  0.22744210307E+02  0.19847165211E+02  0.27813411773E+02  0.41314464100E+02  0.47000000000E+01 0. -1.
         -5    1    4    4    0  502 -0.26899382594E+01 -0.70442102794E+02  0.44233084784E+03  0.44793748958E+03  0.47000000000E+01 0. -1.
          5    1    5    5  503    0  0.37301657547E+02 -0.19340741059E+02  0.30734366945E+03  0.31023813284E+03  0.47000000000E+01 0.  1.
         -5    1    5    5    0  503 -0.57355929594E+02  0.69935678642E+02  0.39401104261E+03  0.40428640034E+03  0.47000000000E+01 0.  1.
<mgrwt>
<rscale>  0 0.27688985E+03</rscale>
<asrwt>0</asrwt>
<pdfrwt beam="1">  1        1 0.18271343E+00 0.27688985E+03</pdfrwt>
<pdfrwt beam="2">  1       -1 0.24828867E-02 0.27688985E+03</pdfrwt>
<totfact> 0.58277707E+03</totfact>
</mgrwt>
</event>
<event>
 9    1  0.7944303E-001  0.2819595E+03  0.7818608E-02  0.1094624E+00
         -1   -1    0    0    0  501 -0.00000000000E+00  0.00000000000E+00  0.83466058714E+02  0.83466058714E+02  0.00000000000E+00 0. -1.
          1   -1    0    0  501    0  0.00000000000E+00 -0.00000000000E+00 -0.23812413847E+03  0.23812413847E+03  0.00000000000E+00 0. -1.
         35    2    1    2    0    0  0.71054273576E-14  0.00000000000E+00 -0.15465807976E+03  0.32159019719E+03  0.28195945328E+03 0.  0.
         25    2    3    3    0    0  0.32759171710E+01 -0.35155628834E+02 -0.11369803351E+03  0.17257714873E+03  0.12493590183E+03 0.  0.
         25    2    3    3    0    0 -0.32759171710E+01  0.35155628834E+02 -0.40960046243E+02  0.14901304846E+03  0.13885428820E+03 0.  0.
          5    1    4    4  502    0 -0.55393049361E+02  0.53685675570E+01 -0.66942571490E+02  0.87181473449E+02  0.47000000000E+01 0.  1.
         -5    1    4    4    0  502  0.58668966532E+02 -0.40524196391E+02 -0.46755462024E+02  0.85395675278E+02  0.47000000000E+01 0.  1.
          5    1    5    5  503    0  0.65238211817E+02  0.26070538130E+02 -0.37207908772E+02  0.79638029325E+02  0.47000000000E+01 0. -1.
         -5    1    5    5    0  503 -0.68514128988E+02  0.90850907038E+01 -0.37521374702E+01  0.69375019133E+02  0.47000000000E+01 0. -1.
<mgrwt>
<rscale>  0 0.28195945E+03</rscale>
<asrwt>0</asrwt>
<pdfrwt beam="1">  1        1 0.36634482E-01 0.28195945E+03</pdfrwt>
<pdfrwt beam="2">  1       -1 0.12840932E-01 0.28195945E+03</pdfrwt>
<totfact> 0.48094455E+03</totfact>
</mgrwt>
</event>
<event>
 9    1  0.7944303E-001  0.2736581E+03  0.7818608E-02  0.1099204E+00
          1   -1    0    0  501    0  0.00000000000E+00  0.00000000000E+00  0.29931957595E+02  0.29931957595E+02  0.00000000000E+00 0. -1.
         -1   -1    0    0    0  501 -0.00000000000E+00 -0.00000000000E+00 -0.62549159314E+03  0.62549159314E+03  0.00000000000E+00 0. -1.
         35    2    1    2    0    0 -0.17763568394E-14  0.00000000000E+00 -0.59555963555E+03  0.65542355074E+03  0.27365809209E+03 0.  0.
         25    2    3    3    0    0  0.14943760932E+02  0.52485417192E+02 -0.31357062690E+03  0.34196271694E+03  0.12503570175E+03 0.  0.
         25    2    3    3    0    0 -0.14943760932E+02 -0.52485417192E+02 -0.28198900865E+03  0.31346083380E+03  0.12554623977E+03 0.  0.
          5    1    4    4  502    0  0.30084884296E+02 -0.35186065613E+02 -0.90592378324E+02  0.10184413821E+03  0.47000000000E+01 0.  1.
         -5    1    4    4    0  502 -0.15141123365E+02  0.87671482806E+02 -0.22297824858E+03  0.24011857873E+03  0.47000000000E+01 0.  1.
          5    1    5    5  503    0 -0.35566980701E+02 -0.70892176163E+02 -0.92631185422E+02  0.12203826150E+03  0.47000000000E+01 0.  1.
         -5    1    5    5    0  503  0.20623219770E+02  0.18406758970E+02 -0.18935782322E+03  0.19142257230E+03  0.47000000000E+01 0.  1.
<mgrwt>
<rscale>  0 0.27365809E+03</rscale>
<asrwt>0</asrwt>
<pdfrwt beam="1">  1        1 0.46049176E-02 0.27365809E+03</pdfrwt>
<pdfrwt beam="2">  1       -1 0.96229454E-01 0.27365809E+03</pdfrwt>
<totfact> 0.20469420E+03</totfact>
</mgrwt>
</event>
<event>
 9    1  0.7944303E-001  0.2753779E+03  0.7818608E-02  0.1098241E+00
          1   -1    0    0  501    0  0.00000000000E+00  0.00000000000E+00  0.14025992706E+04  0.14025992706E+04  0.00000000000E+00 0.  1.
         -1   -1    0    0    0  501 -0.00000000000E+00 -0.00000000000E+00 -0.13516513425E+02  0.13516513425E+02  0.00000000000E+00 0.  1.
         35    2    1    2    0    0  0.00000000000E+00  0.00000000000E+00  0.13890827572E+04  0.14161157840E+04  0.27537793572E+03 0.  0.
         25    2    3    3    0    0 -0.53935631925E+02  0.12361737048E+02  0.58751483916E+03  0.60325323551E+03  0.12521547424E+03 0.  0.
         25    2    3    3    0    0  0.53935631925E+02 -0.12361737048E+02  0.80156791804E+03  0.81286254854E+03  0.12317682675E+03 0.  0.
          5    1    4    4  502    0  0.26828184958E+02 -0.15436910323E+02  0.50133703809E+02  0.59106073851E+02  0.47000000000E+01 0. -1.
         -5    1    4    4    0  502 -0.80763816883E+02  0.27798647371E+02  0.53738113535E+03  0.54414716166E+03  0.47000000000E+01 0. -1.
          5    1    5    5  503    0  0.21406758293E+02  0.16266783048E+02  0.71881140174E+03  0.71932939520E+03  0.47000000000E+01 0. -1.
         -5    1    5    5    0  503  0.32528873632E+02 -0.28628520095E+02  0.82756516305E+02  0.93533153339E+02  0.47000000000E+01 0. -1.
<mgrwt>
<rscale>  0 0.27537794E+03</rscale>
<asrwt>0</asrwt>
<pdfrwt beam="1">  1        1 0.21578439E+00 0.27537794E+03</pdfrwt>
<pdfrwt beam="2">  1       -1 0.20794647E-02 0.27537794E+03</pdfrwt>
<totfact> 0.53835749E+03</totfact>
</mgrwt>
</event>
<event>
 9    1  0.7944303E-001  0.2771359E+03  0.7818608E-02  0.1097264E+00
         -1   -1    0    0    0  501 -0.00000000000E+00  0.00000000000E+00  0.12416675128E+02  0.12416675128E+02  0.00000000000E+00 0. -1.
          1   -1    0    0  501    0  0.00000000000E+00 -0.00000000000E+00 -0.15463949231E+04  0.15463949231E+04  0.00000000000E+00 0. -1.
         35    2    1    2    0    0  0.71054273576E-14 -0.44408920985E-15 -0.15339782480E+04  0.15588115982E+04  0.27713594772E+03 0.  0.
         25    2    3    3    0    0 -0.61214282004E+02  0.23136412187E+01 -0.62215502433E+03  0.63749644006E+03  0.12478900404E+03 0.  0.
         25    2    3    3    0    0  0.61214282004E+02 -0.23136412187E+01 -0.91182322364E+03  0.92131515817E+03  0.11682246464E+03 0.  0.
          5    1    4    4  502    0 -0.72100324157E+02 -0.33495154444E+01 -0.16505985243E+03  0.18021243265E+03  0.47000000000E+01 0. -1.
         -5    1    4    4    0  502  0.10886042153E+02  0.56631566630E+01 -0.45709517190E+03  0.45728400740E+03  0.47000000000E+01 0. -1.
          5    1    5    5  503    0 -0.51124902029E+00  0.10400809887E+02 -0.53044633249E+01  0.12596251547E+02  0.47000000000E+01 0. -1.
         -5    1    5    5    0  503  0.61725531024E+02 -0.12714451106E+02 -0.90651876032E+03  0.90871890663E+03  0.47000000000E+01 0. -1.
<mgrwt>
<rscale>  0 0.27713595E+03</rscale>
<asrwt>0</asrwt>
<pdfrwt beam="1">  1        1 0.23790685E+00 0.27713595E+03</pdfrwt>
<pdfrwt beam="2">  1       -1 0.19102582E-02 0.27713595E+03</pdfrwt>
<totfact> 0.48902962E+03</totfact>
</mgrwt>
</event>
<event>
 9    1  0.7944303E-001  0.2702743E+03  0.7818608E-02  0.1101123E+00
          1   -1    0    0  501    0  0.00000000000E+00  0.00000000000E+00  0.12446374194E+04  0.12446374194E+04  0.00000000000E+00 0.  1.
         -1   -1    0    0    0  501 -0.00000000000E+00 -0.00000000000E+00 -0.14672580536E+02  0.14672580536E+02  0.00000000000E+00 0.  1.
         35    2    1    2    0    0  0.71054273576E-14  0.00000000000E+00  0.12299648389E+04  0.12593100000E+04  0.27027425164E+03 0.  0.
         25    2    3    3    0    0  0.55257899118E+01 -0.32765965015E+02  0.75930972670E+03  0.77046469487E+03  0.12633464355E+03 0.  0.
         25    2    3    3    0    0 -0.55257899118E+01  0.32765965015E+02  0.47065511219E+03  0.48884530509E+03  0.12786459582E+03 0.  0.
          5    1    4    4  502    0  0.26647463688E+02 -0.48534706407E+01  0.70589377107E+03  0.70642887082E+03  0.47000000000E+01 0.  1.
         -5    1    4    4    0  502 -0.21121673776E+02 -0.27912494374E+02  0.53415955637E+02  0.64035824052E+02  0.47000000000E+01 0.  1.
          5    1    5    5  503    0 -0.51631987672E+02 -0.15431678861E+02  0.11666473361E+03  0.12859529125E+03  0.47000000000E+01 0.  1.
         -5    1    5    5    0  503  0.46106197760E+02  0.48197643876E+02  0.35399037858E+03  0.36025001384E+03  0.47000000000E+01 0.  1.
<mgrwt>
<rscale>  0 0.27027425E+03</rscale>
<asrwt>0</asrwt>
<pdfrwt beam="1">  1        1 0.19148260E+00 0.27027425E+03</pdfrwt>
<pdfrwt beam="2">  1       -1 0.22573211E-02 0.27027425E+03</pdfrwt>
<totfact> 0.61137301E+03</totfact>
</mgrwt>
</event>
<event>
 9    1  0.7944303E-001  0.2700005E+03  0.7818608E-02  0.1101279E+00
         -3   -1    0    0    0  501 -0.00000000000E+00  0.00000000000E+00  0.32414550991E+03  0.32414550991E+03  0.00000000000E+00 0. -1.
          3   -1    0    0  501    0  0.00000000000E+00 -0.00000000000E+00 -0.56224976395E+02  0.56224976395E+02  0.00000000000E+00 0. -1.
         35    2    1    2    0    0  0.00000000000E+00  0.71054273576E-14  0.26792053352E+03  0.38037048631E+03  0.27000054551E+03 0.  0.
         25    2    3    3    0    0  0.42938221714E+02 -0.23896736939E+02  0.14347750534E+03  0.19691761723E+03  0.12560258166E+03 0.  0.
         25    2    3    3    0    0 -0.42938221714E+02  0.23896736939E+02  0.12444302818E+03  0.18345286908E+03  0.12551550896E+03 0.  0.
          5    1    4    4  502    0  0.42948866163E+02  0.38898822210E+02  0.11273599055E+03  0.12684327747E+03  0.47000000000E+01 0.  1.
         -5    1    4    4    0  502 -0.10644449025E-01 -0.62795559149E+02  0.30741514792E+02  0.70074339767E+02  0.47000000000E+01 0.  1.
          5    1    5    5  503    0  0.13357590682E+02 -0.13493354111E+02  0.11308333248E+03  0.11476247609E+03  0.47000000000E+01 0. -1.
         -5    1    5    5    0  503 -0.56295812396E+02  0.37390091050E+02  0.11359695703E+02  0.68690392986E+02  0.47000000000E+01 0. -1.
<mgrwt>
<rscale>  0 0.27000055E+03</rscale>
<asrwt>0</asrwt>
<pdfrwt beam="1">  1        3 0.86499966E-02 0.27000055E+03</pdfrwt>
<pdfrwt beam="2">  1       -3 0.49868539E-01 0.27000055E+03</pdfrwt>
<totfact> 0.95618516E+02</totfact>
</mgrwt>
</event>
<event>
 9    1  0.7944303E-001  0.2832880E+03  0.7818608E-02  0.1093907E+00
          2   -1    0    0  501    0  0.00000000000E+00  0.00000000000E+00  0.11849565614E+04  0.11849565614E+04  0.00000000000E+00 0.  1.
         -2   -1    0    0    0  501 -0.00000000000E+00 -0.00000000000E+00 -0.16931439027E+02  0.16931439027E+02  0.00000000000E+00 0.  1.
         35    2    1    2    0    0 -0.35527136788E-14  0.00000000000E+00  0.11680251224E+04  0.12018880004E+04  0.28328797905E+03 0.  0.
         25    2    3    3    0    0 -0.29070308338E+02 -0.53378277456E+02  0.49575025956E+03  0.51533698950E+03  0.12692347916E+03 0.  0.
         25    2    3    3    0    0  0.29070308338E+02  0.53378277456E+02  0.67227486281E+03  0.68655101093E+03  0.12531750119E+03 0.  0.
          5    1    4    4  502    0 -0.18311508995E+02 -0.21785445421E+02  0.47475125016E+03  0.47562669871E+03  0.47000000000E+01 0. -1.
         -5    1    4    4    0  502 -0.10758799343E+02 -0.31592832035E+02  0.20999009404E+02  0.39710290797E+02  0.47000000000E+01 0. -1.
          5    1    5    5  503    0  0.52580449913E+02  0.72612675778E+02  0.30354381208E+03  0.31654105618E+03  0.47000000000E+01 0. -1.
         -5    1    5    5    0  503 -0.23510141575E+02 -0.19234398322E+02  0.36873105073E+03  0.37000995475E+03  0.47000000000E+01 0. -1.
<mgrwt>
<rscale>  0 0.28328798E+03</rscale>
<asrwt>0</asrwt>
<pdfrwt beam="1">  1        2 0.18230094E+00 0.28328798E+03</pdfrwt>
<pdfrwt beam="2">  1       -2 0.26048377E-02 0.28328798E+03</pdfrwt>
<totfact> 0.10652536E+04</totfact>
</mgrwt>
</event>
<event>
 9    1  0.7944303E-001  0.2745734E+03  0.7818608E-02  0.1098690E+00
          1   -1    0    0  501    0  0.00000000000E+00  0.00000000000E+00  0.33945555728E+03  0.33945555728E+03  0.00000000000E+00 0.  1.
         -1   -1    0    0    0  501 -0.00000000000E+00 -0.00000000000E+00 -0.55523124009E+02  0.55523124009E+02  0.00000000000E+00 0.  1.
         35    2    1    2    0    0  0.71054273576E-14 -0.14210854715E-13  0.28393243327E+03  0.39497868128E+03  0.27457336362E+03 0.  0.
         25    2    3    3    0    0 -0.27530525078E+02  0.49483475013E+02  0.12525467848E+03  0.18572366511E+03  0.12489195808E+03 0.  0.
         25    2    3    3    0    0  0.27530525078E+02 -0.49483475013E+02  0.15867775479E+03  0.20925501617E+03  0.12410675976E+03 0.  0.
          5    1    4    4  502    0 -0.11122451181E+02  0.46086468521E+02 -0.10560215546E+02  0.48798357077E+02  0.47000000000E+01 0.  1.
         -5    1    4    4    0  502 -0.16408073897E+02  0.33970064920E+01  0.13581489403E+03  0.13692530804E+03  0.47000000000E+01 0.  1.
          5    1    5    5  503    0 -0.27731279036E+02  0.23049552171E+02  0.15699468276E+02  0.39608950964E+02  0.47000000000E+01 0. -1.
         -5    1    5    5    0  503  0.55261804115E+02 -0.72533027184E+02  0.14297828651E+03  0.16964606521E+03  0.47000000000E+01 0. -1.
<mgrwt>
<rscale>  0 0.27457336E+03</rscale>
<asrwt>0</asrwt>
<pdfrwt beam="1">  1        1 0.52223930E-01 0.27457336E+03</pdfrwt>
<pdfrwt beam="2">  1       -1 0.85420193E-02 0.27457336E+03</pdfrwt>
<totfact> 0.57877000E+03</totfact>
</mgrwt>
</event>
<event>
 9    1  0.7944303E-001  0.2807584E+03  0.7818608E-02  0.1095275E+00
         -2   -1    0    0    0  501 -0.00000000000E+00  0.00000000000E+00  0.86128672563E+02  0.86128672563E+02  0.00000000000E+00 0. -1.
          2   -1    0    0  501    0  0.00000000000E+00 -0.00000000000E+00 -0.22880098250E+03  0.22880098250E+03  0.00000000000E+00 0. -1.
         35    2    1    2    0    0  0.00000000000E+00  0.71054273576E-14 -0.14267230994E+03  0.31492965507E+03  0.28075843641E+03 0.  0.
         25    2    3    3    0    0  0.21638825684E+02  0.42620068677E+02 -0.25448125990E+02  0.13681951418E+03  0.12564737686E+03 0.  0.
         25    2    3    3    0    0 -0.21638825684E+02 -0.42620068677E+02 -0.11722418395E+03  0.17811014089E+03  0.12528768476E+03 0.  0.
          5    1    4    4  502    0 -0.49592845780E+02  0.36114453322E+02 -0.25993799093E+01  0.61583689944E+02  0.47000000000E+01 0. -1.
         -5    1    4    4    0  502  0.71231671464E+02  0.65056153550E+01 -0.22848746080E+02  0.75235824234E+02  0.47000000000E+01 0. -1.
          5    1    5    5  503    0  0.20874236902E+02  0.25054944248E+02 -0.86144736431E+02  0.92230632721E+02  0.47000000000E+01 0. -1.
         -5    1    5    5    0  503 -0.42513062586E+02 -0.67675012925E+02 -0.31079447521E+02  0.85879508167E+02  0.47000000000E+01 0. -1.
<mgrwt>
<rscale>  0 0.28075844E+03</rscale>
<asrwt>0</asrwt>
<pdfrwt beam="1">  1        2 0.35200151E-01 0.28075844E+03</pdfrwt>
<pdfrwt beam="2">  1       -2 0.13250565E-01 0.28075844E+03</pdfrwt>
<totfact> 0.61394996E+03</totfact>
</mgrwt>
</event>
<event>
 9    1  0.7944303E-001  0.2788286E+03  0.7818608E-02  0.1096330E+00
         -2   -1    0    0    0  501 -0.00000000000E+00  0.00000000000E+00  0.11986555603E+03  0.11986555603E+03  0.00000000000E+00 0. -1.
          2   -1    0    0  501    0  0.00000000000E+00 -0.00000000000E+00 -0.16215118518E+03  0.16215118518E+03  0.00000000000E+00 0. -1.
         35    2    1    2    0    0 -0.71054273576E-14  0.00000000000E+00 -0.42285629150E+02  0.28201674121E+03  0.27882856362E+03 0.  0.
         25    2    3    3    0    0 -0.40624837420E+02 -0.14503318371E+02  0.24908705763E+02  0.13456623243E+03  0.12500761428E+03 0.  0.
         25    2    3    3    0    0  0.40624837420E+02  0.14503318371E+02 -0.67194334913E+02  0.14745050879E+03  0.12395906678E+03 0.  0.
          5    1    4    4  502    0 -0.79439304252E+02 -0.18061981976E+02 -0.97682830599E+01  0.82184838059E+02  0.47000000000E+01 0. -1.
         -5    1    4    4    0  502  0.38814466831E+02  0.35586636053E+01  0.34676988823E+02  0.52381394367E+02  0.47000000000E+01 0. -1.
          5    1    5    5  503    0  0.66926669352E+02  0.11112619065E+02  0.71477336976E+01  0.68380183314E+02  0.47000000000E+01 0.  1.
         -5    1    5    5    0  503 -0.26301831932E+02  0.33906993056E+01 -0.74342068610E+02  0.79070325471E+02  0.47000000000E+01 0.  1.
<mgrwt>
<rscale>  0 0.27882856E+03</rscale>
<asrwt>0</asrwt>
<pdfrwt beam="1">  1        2 0.24946336E-01 0.27882856E+03</pdfrwt>
<pdfrwt beam="2">  1       -2 0.18440855E-01 0.27882856E+03</pdfrwt>
<totfact> 0.51778824E+03</totfact>
</mgrwt>
</event>
<event>
 9    1  0.7944303E-001  0.2693292E+03  0.7818608E-02  0.1101664E+00
          1   -1    0    0  501    0  0.00000000000E+00  0.00000000000E+00  0.12785059418E+04  0.12785059418E+04  0.00000000000E+00 0. -1.
         -1   -1    0    0    0  501 -0.00000000000E+00 -0.00000000000E+00 -0.14184177662E+02  0.14184177662E+02  0.00000000000E+00 0. -1.
         35    2    1    2    0    0  0.35527136788E-14  0.00000000000E+00  0.12643217641E+04  0.12926901195E+04  0.26932920688E+03 0.  0.
         25    2    3    3    0    0  0.30699694419E+02  0.32346973023E+02  0.75417612406E+03  0.76560342953E+03  0.12400881942E+03 0.  0.
         25    2    3    3    0    0 -0.30699694419E+02 -0.32346973023E+02  0.51014564007E+03  0.52708668993E+03  0.12483191386E+03 0.  0.
          5    1    4    4  502    0  0.34386003231E+02 -0.29125076265E+02  0.56026979335E+03  0.56209874455E+03  0.47000000000E+01 0. -1.
         -5    1    4    4    0  502 -0.36863088118E+01  0.61472049287E+02  0.19390633071E+03  0.20350468498E+03  0.47000000000E+01 0. -1.
          5    1    5    5  503    0 -0.58846956398E+02  0.28037452627E+02  0.27319923229E+03  0.28090741099E+03  0.47000000000E+01 0.  1.
         -5    1    5    5    0  503  0.28147261980E+02 -0.60384425650E+02  0.23694640778E+03  0.24617927894E+03  0.47000000000E+01 0.  1.
<mgrwt>
<rscale>  0 0.26932921E+03</rscale>
<asrwt>0</asrwt>
<pdfrwt beam="1">  1        1 0.19669313E+00 0.26932921E+03</pdfrwt>
<pdfrwt beam="2">  1       -1 0.21821822E-02 0.26932921E+03</pdfrwt>
<totfact> 0.60881311E+03</totfact>
</mgrwt>
</event>
<event>
 9    1  0.7944303E-001  0.2769344E+03  0.7818608E-02  0.1097375E+00
          3   -1    0    0  501    0  0.00000000000E+00  0.00000000000E+00  0.12779532625E+02  0.12779532625E+02  0.00000000000E+00 0.  1.
         -3   -1    0    0    0  501 -0.00000000000E+00 -0.00000000000E+00 -0.15003021740E+04  0.15003021740E+04  0.00000000000E+00 0.  1.
         35    2    1    2    0    0  0.00000000000E+00  0.71054273576E-14 -0.14875226414E+04  0.15130817066E+04  0.27693436464E+03 0.  0.
         25    2    3    3    0    0 -0.48625025381E+02  0.30764893455E+02 -0.84258433086E+03  0.85355561509E+03  0.12368492910E+03 0.  0.
         25    2    3    3    0    0  0.48625025381E+02 -0.30764893455E+02 -0.64493831054E+03  0.65952609155E+03  0.12537292082E+03 0.  0.
          5    1    4    4  502    0 -0.17991486052E+02  0.44208908409E+02 -0.78734993283E+03  0.78880931022E+03  0.47000000000E+01 0. -1.
         -5    1    4    4    0  502 -0.30633539329E+02 -0.13444014953E+02 -0.55234398025E+02  0.64746304876E+02  0.47000000000E+01 0. -1.
          5    1    5    5  503    0 -0.22484848643E+02  0.11262182354E+02 -0.40341367248E+03  0.40422405460E+03  0.47000000000E+01 0. -1.
         -5    1    5    5    0  503  0.71109874025E+02 -0.42027075810E+02 -0.24152463805E+03  0.25530203695E+03  0.47000000000E+01 0. -1.
<mgrwt>
<rscale>  0 0.27693436E+03</rscale>
<asrwt>0</asrwt>
<pdfrwt beam="1">  1        3 0.19660815E-02 0.27693436E+03</pdfrwt>
<pdfrwt beam="2">  1       -3 0.23081577E+00 0.27693436E+03</pdfrwt>
<totfact> 0.26021155E+02</totfact>
</mgrwt>
</event>
<event>
 9    1  0.7944303E-001  0.2735615E+03  0.7818608E-02  0.1099258E+00
         -1   -1    0    0    0  501 -0.00000000000E+00  0.00000000000E+00  0.76534496226E+02  0.76534496226E+02  0.00000000000E+00 0.  1.
          1   -1    0    0  501    0  0.00000000000E+00 -0.00000000000E+00 -0.24445153827E+03  0.24445153827E+03  0.00000000000E+00 0.  1.
         35    2    1    2    0    0  0.35527136788E-14  0.14210854715E-13 -0.16791704204E+03  0.32098603449E+03  0.27356151288E+03 0.  0.
         25    2    3    3    0    0  0.18081993681E+02  0.50202049503E+02 -0.10600898463E+03  0.17205105139E+03  0.12456506409E+03 0.  0.
         25    2    3    3    0    0 -0.18081993681E+02 -0.50202049503E+02 -0.61908057411E+02  0.14893498310E+03  0.12450629442E+03 0.  0.
          5    1    4    4  502    0 -0.39828897871E+01  0.55601989849E+01  0.27898594404E+02  0.29106713891E+02  0.47000000000E+01 0. -1.
         -5    1    4    4    0  502  0.22064883468E+02  0.44641850518E+02 -0.13390757903E+03  0.14294433750E+03  0.47000000000E+01 0. -1.
          5    1    5    5  503    0  0.38096047682E+02  0.11468708675E+02  0.69540233705E+01  0.40660651357E+02  0.47000000000E+01 0. -1.
         -5    1    5    5    0  503 -0.56178041363E+02 -0.61670758178E+02 -0.68862080782E+02  0.10827433175E+03  0.47000000000E+01 0. -1.
<mgrwt>
<rscale>  0 0.27356151E+03</rscale>
<asrwt>0</asrwt>
<pdfrwt beam="1">  1        1 0.37607929E-01 0.27356151E+03</pdfrwt>
<pdfrwt beam="2">  1       -1 0.11774538E-01 0.27356151E+03</pdfrwt>
<totfact> 0.53247480E+03</totfact>
</mgrwt>
</event>
<event>
 9    1  0.7944303E-001  0.2717977E+03  0.7818608E-02  0.1100255E+00
          2   -1    0    0  501    0  0.00000000000E+00  0.00000000000E+00  0.18907132387E+03  0.18907132387E+03  0.00000000000E+00 0.  1.
         -2   -1    0    0    0  501 -0.00000000000E+00 -0.00000000000E+00 -0.97680044752E+02  0.97680044752E+02  0.00000000000E+00 0.  1.
         35    2    1    2    0    0  0.17763568394E-14  0.00000000000E+00  0.91391279117E+02  0.28675136862E+03  0.27179768488E+03 0.  0.
         25    2    3    3    0    0  0.50509363084E+01  0.53260256818E+02  0.42272153840E+02  0.14215067334E+03  0.12473055771E+03 0.  0.
         25    2    3    3    0    0 -0.50509363084E+01 -0.53260256818E+02  0.49119125277E+02  0.14460069528E+03  0.12503801700E+03 0.  0.
          5    1    4    4  502    0  0.75093858448E+01  0.25845503132E+02 -0.43822045528E+02  0.51641481216E+02  0.47000000000E+01 0. -1.
         -5    1    4    4    0  502 -0.24584495365E+01  0.27414753687E+02  0.86094199368E+02  0.90509192122E+02  0.47000000000E+01 0. -1.
          5    1    5    5  503    0  0.14823103374E+01 -0.74456522995E+02 -0.15418994084E+02  0.76195842662E+02  0.47000000000E+01 0. -1.
         -5    1    5    5    0  503 -0.65332466458E+01  0.21196266176E+02  0.64538119361E+02  0.68404852622E+02  0.47000000000E+01 0. -1.
<mgrwt>
<rscale>  0 0.27179768E+03</rscale>
<asrwt>0</asrwt>
<pdfrwt beam="1">  1        2 0.29087896E-01 0.27179768E+03</pdfrwt>
<pdfrwt beam="2">  1       -2 0.15027699E-01 0.27179768E+03</pdfrwt>
<totfact> 0.61430791E+03</totfact>
</mgrwt>
</event>
<event>
 9    1  0.7944303E-001  0.2727980E+03  0.7818608E-02  0.1099689E+00
         -1   -1    0    0    0  501 -0.00000000000E+00  0.00000000000E+00  0.12814582537E+02  0.12814582537E+02  0.00000000000E+00 0. -1.
          1   -1    0    0  501    0  0.00000000000E+00 -0.00000000000E+00 -0.14518371191E+04  0.14518371191E+04  0.00000000000E+00 0. -1.
         35    2    1    2    0    0 -0.71054273576E-14  0.00000000000E+00 -0.14390225366E+04  0.14646517017E+04  0.27279799554E+03 0.  0.
         25    2    3    3    0    0  0.37483166718E+02  0.35696753465E+01 -0.52674448748E+03  0.54315757113E+03  0.12705377450E+03 0.  0.
         25    2    3    3    0    0 -0.37483166718E+02 -0.35696753465E+01 -0.91227804912E+03  0.92149413054E+03  0.12442854717E+03 0.  0.
          5    1    4    4  502    0  0.57507010131E+02 -0.56374898930E+01 -0.51401905567E+03  0.51727798822E+03  0.47000000000E+01 0.  1.
         -5    1    4    4    0  502 -0.20023843413E+02  0.92071652395E+01 -0.12725431812E+02  0.25879582909E+02  0.47000000000E+01 0.  1.
          5    1    5    5  503    0  0.44057619870E+02  0.44840201303E+01 -0.22771877741E+03  0.23203256644E+03  0.47000000000E+01 0. -1.
         -5    1    5    5    0  503 -0.81540786589E+02 -0.80536954768E+01 -0.68455927171E+03  0.68946156410E+03  0.47000000000E+01 0. -1.
<mgrwt>
<rscale>  0 0.27279800E+03</rscale>
<asrwt>0</asrwt>
<pdfrwt beam="1">  1        1 0.22335971E+00 0.27279800E+03</pdfrwt>
<pdfrwt beam="2">  1       -1 0.19714729E-02 0.27279800E+03</pdfrwt>
<totfact> 0.53946047E+03</totfact>
</mgrwt>
</event>
<event>
 9    1  0.7944303E-001  0.2760846E+03  0.7818608E-02  0.1097847E+00
         -2   -1    0    0    0  501 -0.00000000000E+00  0.00000000000E+00  0.28580080341E+02  0.28580080341E+02  0.00000000000E+00 0. -1.
          2   -1    0    0  501    0  0.00000000000E+00 -0.00000000000E+00 -0.66674682378E+03  0.66674682378E+03  0.00000000000E+00 0. -1.
         35    2    1    2    0    0  0.00000000000E+00  0.00000000000E+00 -0.63816674343E+03  0.69532690412E+03  0.27608460870E+03 0.  0.
         25    2    3    3    0    0 -0.20985061536E+02  0.42035588738E+02 -0.22494393587E+03  0.26142460434E+03  0.12464223176E+03 0.  0.
         25    2    3    3    0    0  0.20985061536E+02 -0.42035588738E+02 -0.41322280756E+03  0.43390229978E+03  0.12373662973E+03 0.  0.
          5    1    4    4  502    0 -0.36527875809E+02 -0.35900978987E+02 -0.66147457190E+02  0.83789868696E+02  0.47000000000E+01 0.  1.
         -5    1    4    4    0  502  0.15542814273E+02  0.77936567724E+02 -0.15879647868E+03  0.17763473564E+03  0.47000000000E+01 0.  1.
          5    1    5    5  503    0  0.60475344762E+02 -0.62850304968E+02 -0.26400732141E+03  0.27808161377E+03  0.47000000000E+01 0.  1.
         -5    1    5    5    0  503 -0.39490283227E+02  0.20814716230E+02 -0.14921548615E+03  0.15582068601E+03  0.47000000000E+01 0.  1.
<mgrwt>
<rscale>  0 0.27608461E+03</rscale>
<asrwt>0</asrwt>
<pdfrwt beam="1">  1        2 0.10257643E+00 0.27608461E+03</pdfrwt>
<pdfrwt beam="2">  1       -2 0.43969357E-02 0.27608461E+03</pdfrwt>
<totfact> 0.10554591E+04</totfact>
</mgrwt>
</event>
<event>
 9    1  0.7944303E-001  0.2754596E+03  0.7818608E-02  0.1098195E+00
          1   -1    0    0  501    0  0.00000000000E+00  0.00000000000E+00  0.82447810342E+03  0.82447810342E+03  0.00000000000E+00 0. -1.
         -1   -1    0    0    0  501 -0.00000000000E+00 -0.00000000000E+00 -0.23007884926E+02  0.23007884926E+02  0.00000000000E+00 0. -1.
         35    2    1    2    0    0  0.71054273576E-14  0.00000000000E+00  0.80147021850E+03  0.84748598835E+03  0.27545959651E+03 0.  0.
         25    2    3    3    0    0 -0.28874078362E+02 -0.13432274301E+02  0.26403142658E+03  0.29490052987E+03  0.12743464953E+03 0.  0.
         25    2    3    3    0    0  0.28874078362E+02  0.13432274301E+02  0.53743879192E+03  0.55258545848E+03  0.12448331403E+03 0.  0.
          5    1    4    4  502    0 -0.69138327622E+02 -0.18016476923E+02  0.84332500338E+02  0.11062894016E+03  0.47000000000E+01 0. -1.
         -5    1    4    4    0  502  0.40264249261E+02  0.45842026221E+01  0.17969892624E+03  0.18427158971E+03  0.47000000000E+01 0. -1.
          5    1    5    5  503    0  0.68481720451E+02  0.41046465835E+02  0.33333957937E+03  0.34280012189E+03  0.47000000000E+01 0. -1.
         -5    1    5    5    0  503 -0.39607642089E+02 -0.27614191534E+02  0.20409921255E+03  0.20978533659E+03  0.47000000000E+01 0. -1.
<mgrwt>
<rscale>  0 0.27545960E+03</rscale>
<asrwt>0</asrwt>
<pdfrwt beam="1">  1        1 0.12684276E+00 0.27545960E+03</pdfrwt>
<pdfrwt beam="2">  1       -1 0.35396752E-02 0.27545960E+03</pdfrwt>
<totfact> 0.64756833E+03</totfact>
</mgrwt>
</event>
<event>
 9    1  0.7944303E-001  0.2741147E+03  0.7818608E-02  0.1098947E+00
          1   -1    0    0  501    0  0.00000000000E+00  0.00000000000E+00  0.38089645077E+02  0.38089645077E+02  0.00000000000E+00 0.  1.
         -1   -1    0    0    0  501 -0.00000000000E+00 -0.00000000000E+00 -0.49317119592E+03  0.49317119592E+03  0.00000000000E+00 0.  1.
         35    2    1    2    0    0  0.71054273576E-14 -0.71054273576E-14 -0.45508155084E+03  0.53126084100E+03  0.27411468997E+03 0.  0.
         25    2    3    3    0    0  0.33211989995E+02 -0.45165240377E+02 -0.20499973448E+03  0.24650899834E+03  0.12489539586E+03 0.  0.
         25    2    3    3    0    0 -0.33211989995E+02  0.45165240377E+02 -0.25008181637E+03  0.28475184266E+03  0.12409577673E+03 0.  0.
          5    1    4    4  502    0  0.31382059393E+02  0.27749072907E+02 -0.14781437127E+03  0.15370758944E+03  0.47000000000E+01 0.  1.
         -5    1    4    4    0  502  0.18299306017E+01 -0.72914313284E+02 -0.57185363212E+02  0.92801408897E+02  0.47000000000E+01 0.  1.
          5    1    5    5  503    0 -0.70220723505E+02  0.28786907785E+02 -0.82111295720E+02  0.11191063825E+03  0.47000000000E+01 0. -1.
         -5    1    5    5    0  503  0.37008733510E+02  0.16378332592E+02 -0.16797052065E+03  0.17284120441E+03  0.47000000000E+01 0. -1.
<mgrwt>
<rscale>  0 0.27411469E+03</rscale>
<asrwt>0</asrwt>
<pdfrwt beam="1">  1        1 0.58599457E-02 0.27411469E+03</pdfrwt>
<pdfrwt beam="2">  1       -1 0.75872488E-01 0.27411469E+03</pdfrwt>
<totfact> 0.24249612E+03</totfact>
</mgrwt>
</event>
<event>
 9    1  0.7944303E-001  0.2767651E+03  0.7818608E-02  0.1097469E+00
          2   -1    0    0  501    0  0.00000000000E+00  0.00000000000E+00  0.21495443166E+03  0.21495443166E+03  0.00000000000E+00 0. -1.
         -2   -1    0    0    0  501 -0.00000000000E+00 -0.00000000000E+00 -0.89087386244E+02  0.89087386244E+02  0.00000000000E+00 0. -1.
         35    2    1    2    0    0  0.00000000000E+00  0.35527136788E-14  0.12586704541E+03  0.30404181790E+03  0.27676508796E+03 0.  0.
         25    2    3    3    0    0 -0.41535817759E+02 -0.29436385167E+02  0.31890262900E+02  0.13911203424E+03  0.12547288262E+03 0.  0.
         25    2    3    3    0    0  0.41535817759E+02  0.29436385167E+02  0.93976782515E+02  0.16492978366E+03  0.12561239174E+03 0.  0.
          5    1    4    4  502    0  0.31508463350E+02  0.45116129364E+01 -0.24697965680E+02  0.40561279846E+02  0.47000000000E+01 0.  1.
         -5    1    4    4    0  502 -0.73044281110E+02 -0.33947998103E+02  0.56588228580E+02  0.98550754395E+02  0.47000000000E+01 0.  1.
          5    1    5    5  503    0  0.47139161146E+02  0.67288333755E+02  0.95853505118E+02  0.12633212108E+03  0.47000000000E+01 0. -1.
         -5    1    5    5    0  503 -0.56033433870E+01 -0.37851948589E+02 -0.18767226037E+01  0.38597662582E+02  0.47000000000E+01 0. -1.
<mgrwt>
<rscale>  0 0.27676509E+03</rscale>
<asrwt>0</asrwt>
<pdfrwt beam="1">  1        2 0.33069912E-01 0.27676509E+03</pdfrwt>
<pdfrwt beam="2">  1       -2 0.13705752E-01 0.27676509E+03</pdfrwt>
<totfact> 0.62148883E+03</totfact>
</mgrwt>
</event>
<event>
 9    1  0.7944303E-001  0.2769959E+03  0.7818608E-02  0.1097341E+00
         -2   -1    0    0    0  501 -0.00000000000E+00  0.00000000000E+00  0.87169656812E+01  0.87169656812E+01  0.00000000000E+00 0.  1.
          2   -1    0    0  501    0  0.00000000000E+00 -0.00000000000E+00 -0.22004993894E+04  0.22004993894E+04  0.00000000000E+00 0.  1.
         35    2    1    2    0    0  0.00000000000E+00  0.00000000000E+00 -0.21917824238E+04  0.22092163551E+04  0.27699586755E+03 0.  0.
         25    2    3    3    0    0 -0.33508486167E+02  0.32191215274E+02 -0.14045145199E+04  0.14107922985E+04  0.12455833974E+03 0.  0.
         25    2    3    3    0    0  0.33508486167E+02 -0.32191215274E+02 -0.78726790389E+03  0.79842405663E+03  0.12462394918E+03 0.  0.
          5    1    4    4  502    0 -0.33269087521E+02  0.53104370756E+02 -0.32249870472E+03  0.32856416561E+03  0.47000000000E+01 0.  1.
         -5    1    4    4    0  502 -0.23939864545E+00 -0.20913155482E+02 -0.10820158152E+04  0.10822281329E+04  0.47000000000E+01 0.  1.
          5    1    5    5  503    0 -0.26228270682E+02 -0.57830713526E+02 -0.48831376454E+03  0.49244769900E+03  0.47000000000E+01 0.  1.
         -5    1    5    5    0  503  0.59736756848E+02  0.25639498252E+02 -0.29895413936E+03  0.30597635763E+03  0.47000000000E+01 0.  1.
<mgrwt>
<rscale>  0 0.27699587E+03</rscale>
<asrwt>0</asrwt>
<pdfrwt beam="1">  1        2 0.33853828E+00 0.27699587E+03</pdfrwt>
<pdfrwt beam="2">  1       -2 0.13410720E-02 0.27699587E+03</pdfrwt>
<totfact> 0.80885433E+03</totfact>
</mgrwt>
</event>
<event>
 9    1  0.7944303E-001  0.2756352E+03  0.7818608E-02  0.1098097E+00
          1   -1    0    0  501    0  0.00000000000E+00  0.00000000000E+00  0.45132954762E+03  0.45132954762E+03  0.00000000000E+00 0. -1.
         -1   -1    0    0    0  501 -0.00000000000E+00 -0.00000000000E+00 -0.42083875597E+02  0.42083875597E+02  0.00000000000E+00 0. -1.
         35    2    1    2    0    0  0.35527136788E-14  0.71054273576E-14  0.40924567202E+03  0.49341342322E+03  0.27563524111E+03 0.  0.
         25    2    3    3    0    0 -0.11386292418E+02  0.41958437302E+02  0.13404469054E+03  0.18877125612E+03  0.12560433895E+03 0.  0.
         25    2    3    3    0    0  0.11386292418E+02 -0.41958437302E+02  0.27520098149E+03  0.30464216709E+03  0.12321165384E+03 0.  0.
          5    1    4    4  502    0 -0.28573920544E+02  0.74762676917E+02  0.44363498028E+02  0.91630435731E+02  0.47000000000E+01 0. -1.
         -5    1    4    4    0  502  0.17187628126E+02 -0.32804239614E+02  0.89681192507E+02  0.97140820394E+02  0.47000000000E+01 0. -1.
          5    1    5    5  503    0 -0.28976469589E+02  0.44062179557E+01  0.84555789763E+01  0.30864824029E+02  0.47000000000E+01 0. -1.
         -5    1    5    5    0  503  0.40362762007E+02 -0.46364655258E+02  0.26674540251E+03  0.27377734306E+03  0.47000000000E+01 0. -1.
<mgrwt>
<rscale>  0 0.27563524E+03</rscale>
<asrwt>0</asrwt>
<pdfrwt beam="1">  1        1 0.69435312E-01 0.27563524E+03</pdfrwt>
<pdfrwt beam="2">  1       -1 0.64744427E-02 0.27563524E+03</pdfrwt>
<totfact> 0.61268975E+03</totfact>
</mgrwt>
</event>
<event>
 9    1  0.7944303E-001  0.2775358E+03  0.7818608E-02  0.1097043E+00
         -2   -1    0    0    0  501 -0.00000000000E+00  0.00000000000E+00  0.17858728258E+02  0.17858728258E+02  0.00000000000E+00 0.  1.
          2   -1    0    0  501    0  0.00000000000E+00 -0.00000000000E+00 -0.10782698294E+04  0.10782698294E+04  0.00000000000E+00 0.  1.
         35    2    1    2    0    0  0.00000000000E+00  0.14210854715E-13 -0.10604111011E+04  0.10961285576E+04  0.27753578415E+03 0.  0.
         25    2    3    3    0    0  0.20783511284E+02 -0.48529023280E+02 -0.66543599142E+03  0.67926368965E+03  0.12572621428E+03 0.  0.
         25    2    3    3    0    0 -0.20783511284E+02  0.48529023280E+02 -0.39497510969E+03  0.41686486798E+03  0.12240898838E+03 0.  0.
          5    1    4    4  502    0  0.44515019508E+02 -0.18391493885E+02 -0.60867198636E+03  0.61059275380E+03  0.47000000000E+01 0.  1.
         -5    1    4    4    0  502 -0.23731508224E+02 -0.30137529394E+02 -0.56764005064E+02  0.68670935857E+02  0.47000000000E+01 0.  1.
          5    1    5    5  503    0 -0.31038771796E+02  0.70295441445E+02 -0.38088628485E+03  0.38858886555E+03  0.47000000000E+01 0.  1.
         -5    1    5    5    0  503  0.10255260512E+02 -0.21766418165E+02 -0.14088824841E+02  0.28276002428E+02  0.47000000000E+01 0.  1.
<mgrwt>
<rscale>  0 0.27753578E+03</rscale>
<asrwt>0</asrwt>
<pdfrwt beam="1">  1        2 0.16588765E+00 0.27753578E+03</pdfrwt>
<pdfrwt beam="2">  1       -2 0.27474969E-02 0.27753578E+03</pdfrwt>
<totfact> 0.11347315E+04</totfact>
</mgrwt>
</event>
<event>
 9    1  0.7944303E-001  0.2761059E+03  0.7818608E-02  0.1097835E+00
          2   -1    0    0  501    0  0.00000000000E+00  0.00000000000E+00  0.10092960126E+04  0.10092960126E+04  0.00000000000E+00 0.  1.
         -2   -1    0    0    0  501 -0.00000000000E+00 -0.00000000000E+00 -0.18883079336E+02  0.18883079336E+02  0.00000000000E+00 0.  1.
         35    2    1    2    0    0  0.00000000000E+00  0.00000000000E+00  0.99041293324E+03  0.10281790919E+04  0.27610589765E+03 0.  0.
         25    2    3    3    0    0 -0.51017245845E+02 -0.50709678056E+01  0.39122756078E+03  0.41394374101E+03  0.12514768205E+03 0.  0.
         25    2    3    3    0    0  0.51017245845E+02  0.50709678056E+01  0.59918537246E+03  0.61423535090E+03  0.12503392194E+03 0.  0.
          5    1    4    4  502    0 -0.52089285827E+02  0.48764663145E+02  0.29531852655E+03  0.30385260932E+03  0.47000000000E+01 0.  1.
         -5    1    4    4    0  502  0.10720399815E+01 -0.53835630950E+02  0.95909034234E+02  0.11009113169E+03  0.47000000000E+01 0.  1.
          5    1    5    5  503    0  0.50929554799E+02  0.60040500057E+02  0.31330405725E+03  0.32307925265E+03  0.47000000000E+01 0.  1.
         -5    1    5    5    0  503  0.87691046354E-01 -0.54969532252E+02  0.28588131521E+03  0.29115609826E+03  0.47000000000E+01 0.  1.
<mgrwt>
<rscale>  0 0.27610590E+03</rscale>
<asrwt>0</asrwt>
<pdfrwt beam="1">  1        2 0.15527627E+00 0.27610590E+03</pdfrwt>
<pdfrwt beam="2">  1       -2 0.29050899E-02 0.27610590E+03</pdfrwt>
<totfact> 0.11489316E+04</totfact>
</mgrwt>
</event>
<event>
 9    1  0.7944303E-001  0.2757848E+03  0.7818608E-02  0.1098014E+00
          1   -1    0    0  501    0  0.00000000000E+00  0.00000000000E+00  0.19422521416E+03  0.19422521416E+03  0.00000000000E+00 0. -1.
         -1   -1    0    0    0  501 -0.00000000000E+00 -0.00000000000E+00 -0.97898275233E+02  0.97898275233E+02  0.00000000000E+00 0. -1.
         35    2    1    2    0    0  0.71054273576E-14  0.13322676296E-14  0.96326938927E+02  0.29212348939E+03  0.27578479634E+03 0.  0.
         25    2    3    3    0    0 -0.43263830498E+02  0.23933001292E+01  0.81410021115E+01  0.13270299039E+03  0.12516517418E+03 0.  0.
         25    2    3    3    0    0  0.43263830498E+02 -0.23933001292E+01  0.88185936815E+02  0.15942049900E+03  0.12554142398E+03 0.  0.
          5    1    4    4  502    0 -0.25586463893E+02  0.57246439409E+02 -0.23089666649E+02  0.66985406362E+02  0.47000000000E+01 0. -1.
         -5    1    4    4    0  502 -0.17677366605E+02 -0.54853139280E+02  0.31230668760E+02  0.65717584026E+02  0.47000000000E+01 0. -1.
          5    1    5    5  503    0  0.29550616517E+02  0.85565613336E+00 -0.28773840571E+02  0.41521018595E+02  0.47000000000E+01 0. -1.
         -5    1    5    5    0  503  0.13713213981E+02 -0.32489562626E+01  0.11695977739E+03  0.11789948041E+03  0.47000000000E+01 0. -1.
<mgrwt>
<rscale>  0 0.27578480E+03</rscale>
<asrwt>0</asrwt>
<pdfrwt beam="1">  1        1 0.29880802E-01 0.27578480E+03</pdfrwt>
<pdfrwt beam="2">  1       -1 0.15061273E-01 0.27578480E+03</pdfrwt>
<totfact> 0.48290943E+03</totfact>
</mgrwt>
</event>
<event>
 9    1  0.7944303E-001  0.2754835E+03  0.7818608E-02  0.1098182E+00
         -2   -1    0    0    0  501 -0.00000000000E+00  0.00000000000E+00  0.14503307987E+02  0.14503307987E+02  0.00000000000E+00 0. -1.
          2   -1    0    0  501    0  0.00000000000E+00 -0.00000000000E+00 -0.13081700283E+04  0.13081700283E+04  0.00000000000E+00 0. -1.
         35    2    1    2    0    0  0.71054273576E-14 -0.17763568394E-14 -0.12936667203E+04  0.13226733363E+04  0.27548352270E+03 0.  0.
         25    2    3    3    0    0 -0.47911919507E+02 -0.11045105019E+02 -0.78824273268E+03  0.79958444268E+03  0.12486444241E+03 0.  0.
         25    2    3    3    0    0  0.47911919507E+02  0.11045105019E+02 -0.50542398764E+03  0.52308889361E+03  0.12550313527E+03 0.  0.
          5    1    4    4  502    0  0.38801779185E+02 -0.11566118976E+00 -0.38346688439E+03  0.38545367149E+03  0.47000000000E+01 0.  1.
         -5    1    4    4    0  502 -0.86713698692E+02 -0.10929443829E+02 -0.40477584829E+03  0.41413077119E+03  0.47000000000E+01 0.  1.
          5    1    5    5  503    0  0.28196636976E+02 -0.30979727547E+02 -0.44378661542E+03  0.44578407765E+03  0.47000000000E+01 0.  1.
         -5    1    5    5    0  503  0.19715282531E+02  0.42024832566E+02 -0.61637372214E+02  0.77304815962E+02  0.47000000000E+01 0.  1.
<mgrwt>
<rscale>  0 0.27548352E+03</rscale>
<asrwt>0</asrwt>
<pdfrwt beam="1">  1        2 0.20125693E+00 0.27548352E+03</pdfrwt>
<pdfrwt beam="2">  1       -2 0.22312781E-02 0.27548352E+03</pdfrwt>
<totfact> 0.11412422E+04</totfact>
</mgrwt>
</event>
<event>
 9    1  0.7944303E-001  0.2749703E+03  0.7818608E-02  0.1098468E+00
          2   -1    0    0  501    0  0.00000000000E+00  0.00000000000E+00  0.17978418720E+03  0.17978418720E+03  0.00000000000E+00 0. -1.
         -2   -1    0    0    0  501 -0.00000000000E+00 -0.00000000000E+00 -0.10513811313E+03  0.10513811313E+03  0.00000000000E+00 0. -1.
         35    2    1    2    0    0  0.71054273576E-14 -0.35527136788E-14  0.74646074070E+02  0.28492230033E+03  0.27497032722E+03 0.  0.
         25    2    3    3    0    0 -0.43322364914E+02  0.19059099706E+02  0.24266205828E+01  0.13359598730E+03  0.12490765689E+03 0.  0.
         25    2    3    3    0    0  0.43322364914E+02 -0.19059099706E+02  0.72219453487E+02  0.15132631304E+03  0.12427359724E+03 0.  0.
          5    1    4    4  502    0  0.11044129194E+02  0.43262728256E+02  0.42399217680E+02  0.61752895525E+02  0.47000000000E+01 0. -1.
         -5    1    4    4    0  502 -0.54366494108E+02 -0.24203628551E+02 -0.39972597097E+02  0.71843091771E+02  0.47000000000E+01 0. -1.
          5    1    5    5  503    0 -0.43928416867E+02 -0.46428675131E+01  0.24260220823E+02  0.50615317262E+02  0.47000000000E+01 0. -1.
         -5    1    5    5    0  503  0.87250781780E+02 -0.14416232193E+02  0.47959232664E+02  0.10071099577E+03  0.47000000000E+01 0. -1.
<mgrwt>
<rscale>  0 0.27497033E+03</rscale>
<asrwt>0</asrwt>
<pdfrwt beam="1">  1        2 0.27659106E-01 0.27497033E+03</pdfrwt>
<pdfrwt beam="2">  1       -2 0.16175094E-01 0.27497033E+03</pdfrwt>
<totfact> 0.57501470E+03</totfact>
</mgrwt>
</event>
<event>
 9    1  0.7944303E-001  0.2804862E+03  0.7818608E-02  0.1095424E+00
         -2   -1    0    0    0  501 -0.00000000000E+00  0.00000000000E+00  0.29460679103E+02  0.29460679103E+02  0.00000000000E+00 0. -1.
          2   -1    0    0  501    0  0.00000000000E+00 -0.00000000000E+00 -0.66760621389E+03  0.66760621389E+03  0.00000000000E+00 0. -1.
         35    2    1    2    0    0  0.00000000000E+00 -0.71054273576E-14 -0.63814553478E+03  0.69706689299E+03  0.28048623805E+03 0.  0.
         25    2    3    3    0    0  0.27489379390E+02  0.54315325038E+02 -0.29488591633E+03  0.32637182222E+03  0.12591680659E+03 0.  0.
         25    2    3    3    0    0 -0.27489379390E+02 -0.54315325038E+02 -0.34325961846E+03  0.37069507076E+03  0.12602320942E+03 0.  0.
          5    1    4    4  502    0  0.85627727655E+01 -0.41035669322E+02 -0.78806928540E+02  0.89386068378E+02  0.47000000000E+01 0. -1.
         -5    1    4    4    0  502  0.18926606624E+02  0.95350994360E+02 -0.21607898779E+03  0.23698575385E+03  0.47000000000E+01 0. -1.
          5    1    5    5  503    0 -0.36169997230E+02  0.34642407286E+02 -0.11541274600E+03  0.12589899531E+03  0.47000000000E+01 0. -1.
         -5    1    5    5    0  503  0.86806178404E+01 -0.88957732324E+02 -0.22784687246E+03  0.24479607545E+03  0.47000000000E+01 0. -1.
<mgrwt>
<rscale>  0 0.28048624E+03</rscale>
<asrwt>0</asrwt>
<pdfrwt beam="1">  1        2 0.10270865E+00 0.28048624E+03</pdfrwt>
<pdfrwt beam="2">  1       -2 0.45324120E-02 0.28048624E+03</pdfrwt>
<totfact> 0.10071464E+04</totfact>
</mgrwt>
</event>
<event>
 9    1  0.7944303E-001  0.2609011E+03  0.7818608E-02  0.1106603E+00
          1   -1    0    0  501    0  0.00000000000E+00  0.00000000000E+00  0.26397230110E+04  0.26397230110E+04  0.00000000000E+00 0. -1.
         -1   -1    0    0    0  501 -0.00000000000E+00 -0.00000000000E+00 -0.64466425595E+01  0.64466425595E+01  0.00000000000E+00 0. -1.
         35    2    1    2    0    0  0.00000000000E+00 -0.53290705182E-14  0.26332763685E+04  0.26461696536E+04  0.26090113613E+03 0.  0.
         25    2    3    3    0    0 -0.20950259286E+02 -0.73478151837E+01  0.16005899272E+04  0.16055814027E+04  0.12454164736E+03 0.  0.
         25    2    3    3    0    0  0.20950259286E+02  0.73478151837E+01  0.10326864413E+04  0.10405882509E+04  0.12605442527E+03 0.  0.
          5    1    4    4  502    0 -0.43049591471E+02  0.48800114153E+02  0.74348267153E+03  0.74633993015E+03  0.47000000000E+01 0. -1.
         -5    1    4    4    0  502  0.22099332184E+02 -0.56147929337E+02  0.85710725565E+03  0.85924147254E+03  0.47000000000E+01 0. -1.
          5    1    5    5  503    0  0.54705031839E+02 -0.50169230013E+01  0.21043707392E+03  0.21754002414E+03  0.47000000000E+01 0.  1.
         -5    1    5    5    0  503 -0.33754772552E+02  0.12364738185E+02  0.82224936736E+03  0.82304822674E+03  0.47000000000E+01 0.  1.
<mgrwt>
<rscale>  0 0.26090114E+03</rscale>
<asrwt>0</asrwt>
<pdfrwt beam="1">  1        1 0.40611037E+00 0.26090114E+03</pdfrwt>
<pdfrwt beam="2">  1       -1 0.99179327E-03 0.26090114E+03</pdfrwt>
<totfact> 0.24358287E+03</totfact>
</mgrwt>
</event>
<event>
 9    1  0.7944303E-001  0.2716852E+03  0.7818608E-02  0.1100319E+00
          4   -1    0    0  501    0  0.00000000000E+00  0.00000000000E+00  0.18101731076E+03  0.18101731076E+03  0.00000000000E+00 0.  1.
         -4   -1    0    0    0  501 -0.00000000000E+00 -0.00000000000E+00 -0.10194168169E+03  0.10194168169E+03  0.00000000000E+00 0.  1.
         35    2    1    2    0    0  0.71054273576E-14 -0.35527136788E-14  0.79075629078E+02  0.28295899245E+03  0.27168517864E+03 0.  0.
         25    2    3    3    0    0 -0.40179949274E+02 -0.28237776372E+02  0.18302555056E+02  0.13519728159E+03  0.12462552343E+03 0.  0.
         25    2    3    3    0    0  0.40179949274E+02  0.28237776372E+02  0.60773074022E+02  0.14776171086E+03  0.12541274390E+03 0.  0.
          5    1    4    4  502    0 -0.79539687038E+02 -0.23475533716E+02 -0.13499892582E+02  0.84154617206E+02  0.47000000000E+01 0. -1.
         -5    1    4    4    0  502  0.39359737764E+02 -0.47622426560E+01  0.31802447638E+02  0.51042664387E+02  0.47000000000E+01 0. -1.
          5    1    5    5  503    0  0.69581862064E+02  0.46472357378E+02  0.75994243533E+01  0.84149609500E+02  0.47000000000E+01 0. -1.
         -5    1    5    5    0  503 -0.29401912789E+02 -0.18234581007E+02  0.53173649668E+02  0.63612101358E+02  0.47000000000E+01 0. -1.
<mgrwt>
<rscale>  0 0.27168518E+03</rscale>
<asrwt>0</asrwt>
<pdfrwt beam="1">  1        4 0.27848817E-01 0.27168518E+03</pdfrwt>
<pdfrwt beam="2">  1       -4 0.15683336E-01 0.27168518E+03</pdfrwt>
<totfact> 0.79871376E+02</totfact>
</mgrwt>
</event>
<event>
 9    1  0.7944303E-001  0.2650396E+03  0.7818608E-02  0.1104153E+00
          1   -1    0    0  501    0  0.00000000000E+00  0.00000000000E+00  0.56237500633E+03  0.56237500633E+03  0.00000000000E+00 0.  1.
         -1   -1    0    0    0  501 -0.00000000000E+00 -0.00000000000E+00 -0.31227371398E+02  0.31227371398E+02  0.00000000000E+00 0.  1.
         35    2    1    2    0    0  0.00000000000E+00 -0.35527136788E-14  0.53114763493E+03  0.59360237773E+03  0.26503956827E+03 0.  0.
         25    2    3    3    0    0 -0.42469503983E+02 -0.15309743567E+02  0.26653813056E+03  0.29770413014E+03  0.12468811908E+03 0.  0.
         25    2    3    3    0    0  0.42469503983E+02  0.15309743567E+02  0.26460950437E+03  0.29589824759E+03  0.12449713293E+03 0.  0.
          5    1    4    4  502    0 -0.53065708647E+02  0.36173513122E+02  0.21303474577E+03  0.22255423022E+03  0.47000000000E+01 0.  1.
         -5    1    4    4    0  502  0.10596204664E+02 -0.51483256689E+02  0.53503384795E+02  0.75149899914E+02  0.47000000000E+01 0.  1.
          5    1    5    5  503    0  0.79613456114E+02  0.13106885244E+02  0.10819067491E+03  0.13504593653E+03  0.47000000000E+01 0. -1.
         -5    1    5    5    0  503 -0.37143952131E+02  0.22028583228E+01  0.15641882946E+03  0.16085231106E+03  0.47000000000E+01 0. -1.
<mgrwt>
<rscale>  0 0.26503957E+03</rscale>
<asrwt>0</asrwt>
<pdfrwt beam="1">  1        1 0.86519224E-01 0.26503957E+03</pdfrwt>
<pdfrwt beam="2">  1       -1 0.48042114E-02 0.26503957E+03</pdfrwt>
<totfact> 0.71508842E+03</totfact>
</mgrwt>
</event>
<event>
 9    1  0.7944303E-001  0.2739396E+03  0.7818608E-02  0.1099046E+00
         -2   -1    0    0    0  501 -0.00000000000E+00  0.00000000000E+00  0.21353946569E+02  0.21353946569E+02  0.00000000000E+00 0. -1.
          2   -1    0    0  501    0  0.00000000000E+00 -0.00000000000E+00 -0.87856007725E+03  0.87856007725E+03  0.00000000000E+00 0. -1.
         35    2    1    2    0    0  0.71054273576E-14  0.00000000000E+00 -0.85720613068E+03  0.89991402382E+03  0.27393959150E+03 0.  0.
         25    2    3    3    0    0  0.54268015484E+02 -0.11898790188E+02 -0.40004477326E+03  0.42274511736E+03  0.12486398571E+03 0.  0.
         25    2    3    3    0    0 -0.54268015484E+02  0.11898790188E+02 -0.45716135742E+03  0.47716890646E+03  0.12492821882E+03 0.  0.
          5    1    4    4  502    0  0.34899158836E+02  0.49975123044E+02 -0.11348295135E+03  0.12890281012E+03  0.47000000000E+01 0.  1.
         -5    1    4    4    0  502  0.19368856648E+02 -0.61873913232E+02 -0.28656182191E+03  0.29384230724E+03  0.47000000000E+01 0.  1.
          5    1    5    5  503    0  0.87639121738E+01 -0.40292216824E+01  0.39794185333E+01  0.11444062033E+02  0.47000000000E+01 0.  1.
         -5    1    5    5    0  503 -0.63031927658E+02  0.15928011870E+02 -0.46114077595E+03  0.46572484443E+03  0.47000000000E+01 0.  1.
<mgrwt>
<rscale>  0 0.27393959E+03</rscale>
<asrwt>0</asrwt>
<pdfrwt beam="1">  1        2 0.13516308E+00 0.27393959E+03</pdfrwt>
<pdfrwt beam="2">  1       -2 0.32852227E-02 0.27393959E+03</pdfrwt>
<totfact> 0.11563520E+04</totfact>
</mgrwt>
</event>
<event>
 9    1  0.7944303E-001  0.2752295E+03  0.7818608E-02  0.1098323E+00
          2   -1    0    0  501    0  0.00000000000E+00  0.00000000000E+00  0.30744511728E+03  0.30744511728E+03  0.00000000000E+00 0. -1.
         -2   -1    0    0    0  501 -0.00000000000E+00 -0.00000000000E+00 -0.61597389240E+02  0.61597389240E+02  0.00000000000E+00 0. -1.
         35    2    1    2    0    0 -0.71054273576E-14  0.71054273576E-14  0.24584772804E+03  0.36904250652E+03  0.27522947923E+03 0.  0.
         25    2    3    3    0    0  0.50019448177E+02  0.23506897445E+02  0.15164249511E+03  0.20263969035E+03  0.12252705155E+03 0.  0.
         25    2    3    3    0    0 -0.50019448177E+02 -0.23506897445E+02  0.94205232932E+02  0.16640281616E+03  0.12554183324E+03 0.  0.
          5    1    4    4  502    0  0.38459921739E+02 -0.41281403437E+02  0.11244887915E+03  0.12589741964E+03  0.47000000000E+01 0.  1.
         -5    1    4    4    0  502  0.11559526437E+02  0.64788300882E+02  0.39193615956E+02  0.76742270714E+02  0.47000000000E+01 0.  1.
          5    1    5    5  503    0  0.21210308206E+02  0.37124120316E+02  0.23199434179E+02  0.48871067409E+02  0.47000000000E+01 0. -1.
         -5    1    5    5    0  503 -0.71229756383E+02 -0.60631017761E+02  0.71005798753E+02  0.11753174876E+03  0.47000000000E+01 0. -1.
<mgrwt>
<rscale>  0 0.27522948E+03</rscale>
<asrwt>0</asrwt>
<pdfrwt beam="1">  1        2 0.47299248E-01 0.27522948E+03</pdfrwt>
<pdfrwt beam="2">  1       -2 0.94765216E-02 0.27522948E+03</pdfrwt>
<totfact> 0.76411295E+03</totfact>
</mgrwt>
</event>
<event>
 9    1  0.7944303E-001  0.2805271E+03  0.7818608E-02  0.1095401E+00
         -2   -1    0    0    0  501 -0.00000000000E+00  0.00000000000E+00  0.33391368850E+02  0.33391368850E+02  0.00000000000E+00 0. -1.
          2   -1    0    0  501    0  0.00000000000E+00 -0.00000000000E+00 -0.58919025325E+03  0.58919025325E+03  0.00000000000E+00 0. -1.
         35    2    1    2    0    0 -0.35527136788E-14  0.00000000000E+00 -0.55579888440E+03  0.62258162210E+03  0.28052714000E+03 0.  0.
         25    2    3    3    0    0  0.10308086439E+02  0.37009446576E+02 -0.16085918989E+03  0.20667230145E+03  0.12394275063E+03 0.  0.
         25    2    3    3    0    0 -0.10308086439E+02 -0.37009446576E+02 -0.39493969451E+03  0.41590932064E+03  0.12460836616E+03 0.  0.
          5    1    4    4  502    0  0.13749483309E+02 -0.39368516300E+02 -0.20346541170E+02  0.46636896386E+02  0.47000000000E+01 0. -1.
         -5    1    4    4    0  502 -0.34413968700E+01  0.76377962876E+02 -0.14051264872E+03  0.16003540507E+03  0.47000000000E+01 0. -1.
          5    1    5    5  503    0  0.10756749631E+02 -0.79689762972E+02 -0.28154820229E+03  0.29284406464E+03  0.47000000000E+01 0. -1.
         -5    1    5    5    0  503 -0.21064836071E+02  0.42680316396E+02 -0.11339149222E+03  0.12306525600E+03  0.47000000000E+01 0. -1.
<mgrwt>
<rscale>  0 0.28052714E+03</rscale>
<asrwt>0</asrwt>
<pdfrwt beam="1">  1        2 0.90644643E-01 0.28052714E+03</pdfrwt>
<pdfrwt beam="2">  1       -2 0.51371343E-02 0.28052714E+03</pdfrwt>
<totfact> 0.96464180E+03</totfact>
</mgrwt>
</event>
<event>
 9    1  0.7944303E-001  0.2812786E+03  0.7818608E-02  0.1094993E+00
         -2   -1    0    0    0  501 -0.00000000000E+00  0.00000000000E+00  0.46562916673E+02  0.46562916673E+02  0.00000000000E+00 0.  1.
          2   -1    0    0  501    0  0.00000000000E+00 -0.00000000000E+00 -0.42478890935E+03  0.42478890935E+03  0.00000000000E+00 0.  1.
         35    2    1    2    0    0 -0.35527136788E-14  0.00000000000E+00 -0.37822599267E+03  0.47135182602E+03  0.28127858496E+03 0.  0.
         25    2    3    3    0    0  0.11994453323E+02 -0.57594036754E+02 -0.14972507193E+03  0.20380055688E+03  0.12512445739E+03 0.  0.
         25    2    3    3    0    0 -0.11994453323E+02  0.57594036754E+02 -0.22850092074E+03  0.26755126914E+03  0.12613512937E+03 0.  0.
          5    1    4    4  502    0 -0.32664987568E+02 -0.20117710956E+02  0.44485216385E+01  0.38905051750E+02  0.47000000000E+01 0.  1.
         -5    1    4    4    0  502  0.44659440891E+02 -0.37476325799E+02 -0.15417359357E+03  0.16489550513E+03  0.47000000000E+01 0.  1.
          5    1    5    5  503    0 -0.20549177105E+02 -0.37503248063E+02 -0.82379705615E+02  0.92936904361E+02  0.47000000000E+01 0.  1.
         -5    1    5    5    0  503  0.85547237818E+01  0.95097284817E+02 -0.14612121513E+03  0.17461436478E+03  0.47000000000E+01 0.  1.
<mgrwt>
<rscale>  0 0.28127858E+03</rscale>
<asrwt>0</asrwt>
<pdfrwt beam="1">  1        2 0.65352138E-01 0.28127858E+03</pdfrwt>
<pdfrwt beam="2">  1       -2 0.71635258E-02 0.28127858E+03</pdfrwt>
<totfact> 0.83544157E+03</totfact>
</mgrwt>
</event>
<event>
 9    1  0.7944303E-001  0.3018666E+03  0.7818608E-02  0.1084311E+00
          1   -1    0    0  501    0  0.00000000000E+00  0.00000000000E+00  0.10084298020E+04  0.10084298020E+04  0.00000000000E+00 0. -1.
         -1   -1    0    0    0  501 -0.00000000000E+00 -0.00000000000E+00 -0.22590427454E+02  0.22590427454E+02  0.00000000000E+00 0. -1.
         35    2    1    2    0    0  0.71054273576E-14  0.14210854715E-13  0.98583937454E+03  0.10310202295E+04  0.30186659493E+03 0.  0.
         25    2    3    3    0    0 -0.38530726204E+02  0.71688995097E+02  0.48684153324E+03  0.50936499664E+03  0.12575409509E+03 0.  0.
         25    2    3    3    0    0  0.38530726204E+02 -0.71688995097E+02  0.49899784130E+03  0.52165523281E+03  0.12845780403E+03 0.  0.
          5    1    4    4  502    0 -0.56273238329E+02  0.10040440998E+03  0.35698222987E+03  0.37510815152E+03  0.47000000000E+01 0. -1.
         -5    1    4    4    0  502  0.17742512125E+02 -0.28715414881E+02  0.12985930337E+03  0.13425684511E+03  0.47000000000E+01 0. -1.
          5    1    5    5  503    0 -0.35443734168E+02  0.12875794093E+01  0.23831571580E+03  0.24098627876E+03  0.47000000000E+01 0. -1.
         -5    1    5    5    0  503  0.73974460372E+02 -0.72976574507E+02  0.26068212550E+03  0.28066895405E+03  0.47000000000E+01 0. -1.
<mgrwt>
<rscale>  0 0.30186659E+03</rscale>
<asrwt>0</asrwt>
<pdfrwt beam="1">  1        1 0.15514301E+00 0.30186659E+03</pdfrwt>
<pdfrwt beam="2">  1       -1 0.34754512E-02 0.30186659E+03</pdfrwt>
<totfact> 0.47862340E+03</totfact>
</mgrwt>
</event>
<event>
 9    1  0.7944303E-001  0.2728199E+03  0.7818608E-02  0.1099676E+00
         -4   -1    0    0    0  501 -0.00000000000E+00  0.00000000000E+00  0.31850875269E+03  0.31850875269E+03  0.00000000000E+00 0.  1.
          4   -1    0    0  501    0  0.00000000000E+00 -0.00000000000E+00 -0.58421239532E+02  0.58421239532E+02  0.00000000000E+00 0.  1.
         35    2    1    2    0    0  0.00000000000E+00  0.00000000000E+00  0.26008751316E+03  0.37692999222E+03  0.27281991228E+03 0.  0.
         25    2    3    3    0    0 -0.53089866374E+02 -0.30064963280E+01  0.12135082009E+03  0.18229402058E+03  0.12520988567E+03 0.  0.
         25    2    3    3    0    0  0.53089866374E+02  0.30064963280E+01  0.13873669306E+03  0.19463597164E+03  0.12572874979E+03 0.  0.
          5    1    4    4  502    0 -0.25259872621E+02 -0.61985730647E+02  0.40738037044E+02  0.78498214189E+02  0.47000000000E+01 0.  1.
         -5    1    4    4    0  502 -0.27829993753E+02  0.58979234319E+02  0.80612783047E+02  0.10379580639E+03  0.47000000000E+01 0.  1.
          5    1    5    5  503    0 -0.36350228157E+02  0.21703716123E+02  0.61994509873E+02  0.75218346399E+02  0.47000000000E+01 0.  1.
         -5    1    5    5    0  503  0.89440094531E+02 -0.18697219795E+02  0.76742183192E+02  0.11941762524E+03  0.47000000000E+01 0.  1.
<mgrwt>
<rscale>  0 0.27281991E+03</rscale>
<asrwt>0</asrwt>
<pdfrwt beam="1">  1        4 0.89878832E-02 0.27281991E+03</pdfrwt>
<pdfrwt beam="2">  1       -4 0.49001346E-01 0.27281991E+03</pdfrwt>
<totfact> 0.68781062E+02</totfact>
</mgrwt>
</event>
<event>
 9    1  0.7944303E-001  0.2719361E+03  0.7818608E-02  0.1100177E+00
         -2   -1    0    0    0  501 -0.00000000000E+00  0.00000000000E+00  0.31808185956E+02  0.31808185956E+02  0.00000000000E+00 0.  1.
          2   -1    0    0  501    0  0.00000000000E+00 -0.00000000000E+00 -0.58121234983E+03  0.58121234983E+03  0.00000000000E+00 0.  1.
         35    2    1    2    0    0  0.00000000000E+00  0.00000000000E+00 -0.54940416387E+03  0.61302053578E+03  0.27193609914E+03 0.  0.
         25    2    3    3    0    0  0.45645735443E+02 -0.29928731395E+02 -0.28901736996E+03  0.31926471576E+03  0.12417590934E+03 0.  0.
         25    2    3    3    0    0 -0.45645735443E+02  0.29928731395E+02 -0.26038679390E+03  0.29375582002E+03  0.12454692782E+03 0.  0.
          5    1    4    4  502    0  0.32989756996E+02  0.46844186677E+02 -0.11408081009E+03  0.12774671472E+03  0.47000000000E+01 0.  1.
         -5    1    4    4    0  502  0.12655978446E+02 -0.76772918072E+02 -0.17493655988E+03  0.19151800104E+03  0.47000000000E+01 0.  1.
          5    1    5    5  503    0 -0.91308757902E+01  0.51398706482E+02 -0.31966089023E+02  0.61393165484E+02  0.47000000000E+01 0.  1.
         -5    1    5    5    0  503 -0.36514859652E+02 -0.21469975087E+02 -0.22842070488E+03  0.23236265454E+03  0.47000000000E+01 0.  1.
<mgrwt>
<rscale>  0 0.27193610E+03</rscale>
<asrwt>0</asrwt>
<pdfrwt beam="1">  1        2 0.89417278E-01 0.27193610E+03</pdfrwt>
<pdfrwt beam="2">  1       -2 0.48935674E-02 0.27193610E+03</pdfrwt>
<totfact> 0.10538032E+04</totfact>
</mgrwt>
</event>
<event>
 9    1  0.7944303E-001  0.2760122E+03  0.7818608E-02  0.1097887E+00
         -2   -1    0    0    0  501 -0.00000000000E+00  0.00000000000E+00  0.10915829264E+03  0.10915829264E+03  0.00000000000E+00 0. -1.
          2   -1    0    0  501    0  0.00000000000E+00 -0.00000000000E+00 -0.17447763207E+03  0.17447763207E+03  0.00000000000E+00 0. -1.
         35    2    1    2    0    0  0.00000000000E+00  0.71054273576E-14 -0.65319339430E+02  0.28363592472E+03  0.27601217670E+03 0.  0.
         25    2    3    3    0    0 -0.26546016429E+02 -0.33748707875E+02 -0.70458593290E+02  0.14997510252E+03  0.12523758116E+03 0.  0.
         25    2    3    3    0    0  0.26546016429E+02  0.33748707875E+02  0.51392538601E+01  0.13366082220E+03  0.12647188300E+03 0.  0.
          5    1    4    4  502    0  0.24693280523E+02  0.33704009912E+02 -0.44577056878E+02  0.61277421511E+02  0.47000000000E+01 0.  1.
         -5    1    4    4    0  502 -0.51239296952E+02 -0.67452717786E+02 -0.25881536412E+02  0.88697681007E+02  0.47000000000E+01 0.  1.
          5    1    5    5  503    0 -0.82511898673E+01 -0.39612056448E+02  0.27698026129E+02  0.49259190023E+02  0.47000000000E+01 0. -1.
         -5    1    5    5    0  503  0.34797206296E+02  0.73360764322E+02 -0.22558772269E+02  0.84401632178E+02  0.47000000000E+01 0. -1.
<mgrwt>
<rscale>  0 0.27601218E+03</rscale>
<asrwt>0</asrwt>
<pdfrwt beam="1">  1        2 0.26842713E-01 0.27601218E+03</pdfrwt>
<pdfrwt beam="2">  1       -2 0.16793584E-01 0.27601218E+03</pdfrwt>
<totfact> 0.55839116E+03</totfact>
</mgrwt>
</event>
<event>
 9    1  0.7944303E-001  0.2693333E+03  0.7818608E-02  0.1101662E+00
          2   -1    0    0  501    0  0.00000000000E+00  0.00000000000E+00  0.94869951312E+03  0.94869951312E+03  0.00000000000E+00 0.  1.
         -2   -1    0    0    0  501 -0.00000000000E+00 -0.00000000000E+00 -0.19115749233E+02  0.19115749233E+02  0.00000000000E+00 0.  1.
         35    2    1    2    0    0  0.00000000000E+00 -0.17763568394E-14  0.92958376388E+03  0.96781526235E+03  0.26933326560E+03 0.  0.
         25    2    3    3    0    0  0.49358353730E+02 -0.49407102354E+01  0.50507360426E+03  0.52256466145E+03  0.12455449400E+03 0.  0.
         25    2    3    3    0    0 -0.49358353730E+02  0.49407102354E+01  0.42451015962E+03  0.44525060090E+03  0.12481411890E+03 0.  0.
          5    1    4    4  502    0  0.64436917915E+02 -0.19619254388E+02  0.49349086384E+03  0.49808870116E+03  0.47000000000E+01 0.  1.
         -5    1    4    4    0  502 -0.15078564185E+02  0.14678544153E+02  0.11582740421E+02  0.24475960287E+02  0.47000000000E+01 0.  1.
          5    1    5    5  503    0  0.70972130698E+00 -0.87049555679E+00 -0.82384642609E+01  0.95511130360E+01  0.47000000000E+01 0. -1.
         -5    1    5    5    0  503 -0.50068075037E+02  0.58112057922E+01  0.43274862389E+03  0.43569948786E+03  0.47000000000E+01 0. -1.
<mgrwt>
<rscale>  0 0.26933327E+03</rscale>
<asrwt>0</asrwt>
<pdfrwt beam="1">  1        2 0.14595373E+00 0.26933327E+03</pdfrwt>
<pdfrwt beam="2">  1       -2 0.29408852E-02 0.26933327E+03</pdfrwt>
<totfact> 0.12289368E+04</totfact>
</mgrwt>
</event>
<event>
 9    1  0.7944303E-001  0.2754185E+03  0.7818608E-02  0.1098218E+00
         -2   -1    0    0    0  501 -0.00000000000E+00  0.00000000000E+00  0.14408785630E+02  0.14408785630E+02  0.00000000000E+00 0. -1.
          2   -1    0    0  501    0  0.00000000000E+00 -0.00000000000E+00 -0.13161303253E+04  0.13161303253E+04  0.00000000000E+00 0. -1.
         35    2    1    2    0    0  0.00000000000E+00  0.17763568394E-14 -0.13017215396E+04  0.13305391109E+04  0.27541851585E+03 0.  0.
         25    2    3    3    0    0  0.14551995994E+02  0.63389671847E+01 -0.91143716001E+03  0.92013006385E+03  0.12517865102E+03 0.  0.
         25    2    3    3    0    0 -0.14551995994E+02 -0.63389671847E+01 -0.39028437963E+03  0.41040904704E+03  0.12594342309E+03 0.  0.
          5    1    4    4  502    0  0.16776275430E+02 -0.48892533821E+02 -0.68625648080E+03  0.68821651442E+03  0.47000000000E+01 0.  1.
         -5    1    4    4    0  502 -0.22242794358E+01  0.55231501005E+02 -0.22518067921E+03  0.23191354944E+03  0.47000000000E+01 0.  1.
          5    1    5    5  503    0 -0.69662923091E+02  0.28156942458E+01 -0.19068104834E+03  0.20308176477E+03  0.47000000000E+01 0. -1.
         -5    1    5    5    0  503  0.55110927097E+02 -0.91546614305E+01 -0.19960333129E+03  0.20732728227E+03  0.47000000000E+01 0. -1.
<mgrwt>
<rscale>  0 0.27541852E+03</rscale>
<asrwt>0</asrwt>
<pdfrwt beam="1">  1        2 0.20248162E+00 0.27541852E+03</pdfrwt>
<pdfrwt beam="2">  1       -2 0.22167359E-02 0.27541852E+03</pdfrwt>
<totfact> 0.11406900E+04</totfact>
</mgrwt>
</event>
<event>
 9    1  0.7944303E-001  0.2629122E+03  0.7818608E-02  0.1105406E+00
          2   -1    0    0  501    0  0.00000000000E+00  0.00000000000E+00  0.16584717688E+03  0.16584717688E+03  0.00000000000E+00 0.  1.
         -2   -1    0    0    0  501 -0.00000000000E+00 -0.00000000000E+00 -0.10419656310E+03  0.10419656310E+03  0.00000000000E+00 0.  1.
         35    2    1    2    0    0  0.71054273576E-14  0.00000000000E+00  0.61650613781E+02  0.27004373998E+03  0.26291219698E+03 0.  0.
         25    2    3    3    0    0 -0.40542721371E+02 -0.34601174720E+01  0.17910158352E+02  0.13139490765E+03  0.12364531254E+03 0.  0.
         25    2    3    3    0    0  0.40542721371E+02  0.34601174720E+01  0.43740455429E+02  0.13864883233E+03  0.12511829042E+03 0.  0.
          5    1    4    4  502    0  0.26905049453E+02  0.28635736061E+02  0.36979045237E+02  0.54161119380E+02  0.47000000000E+01 0. -1.
         -5    1    4    4    0  502 -0.67447770823E+02 -0.32095853533E+02 -0.19068886885E+02  0.77233788267E+02  0.47000000000E+01 0. -1.
          5    1    5    5  503    0 -0.90736225757E+01 -0.49531045687E+02  0.42230491383E+02  0.65887476169E+02  0.47000000000E+01 0. -1.
         -5    1    5    5    0  503  0.49616343947E+02  0.52991163159E+02  0.15099640455E+01  0.72761356165E+02  0.47000000000E+01 0. -1.
<mgrwt>
<rscale>  0 0.26291220E+03</rscale>
<asrwt>0</asrwt>
<pdfrwt beam="1">  1        2 0.25514950E-01 0.26291220E+03</pdfrwt>
<pdfrwt beam="2">  1       -2 0.16030240E-01 0.26291220E+03</pdfrwt>
<totfact> 0.63730372E+03</totfact>
</mgrwt>
</event>
<event>
 9    1  0.7944303E-001  0.2884874E+03  0.7818608E-02  0.1091142E+00
          1   -1    0    0  501    0  0.00000000000E+00  0.00000000000E+00  0.15860687369E+03  0.15860687369E+03  0.00000000000E+00 0.  1.
         -1   -1    0    0    0  501 -0.00000000000E+00 -0.00000000000E+00 -0.13118119477E+03  0.13118119477E+03  0.00000000000E+00 0.  1.
         35    2    1    2    0    0  0.35527136788E-14  0.71054273576E-14  0.27425678922E+02  0.28978806846E+03  0.28848735978E+03 0.  0.
         25    2    3    3    0    0  0.20805860691E+02  0.13062938897E+02 -0.54996041606E+02  0.13854837828E+03  0.12477004576E+03 0.  0.
         25    2    3    3    0    0 -0.20805860691E+02 -0.13062938897E+02  0.82421720528E+02  0.15123969018E+03  0.12440490207E+03 0.  0.
          5    1    4    4  502    0  0.56934524916E+02 -0.34881935197E+02 -0.29940050190E+02  0.73326571827E+02  0.47000000000E+01 0. -1.
         -5    1    4    4    0  502 -0.36128664224E+02  0.47944874094E+02 -0.25055991416E+02  0.65221806448E+02  0.47000000000E+01 0. -1.
          5    1    5    5  503    0  0.14378578932E+02  0.45300719187E+02  0.65147656012E+02  0.80778745811E+02  0.47000000000E+01 0. -1.
         -5    1    5    5    0  503 -0.35184439623E+02 -0.58363658084E+02  0.17274064516E+02  0.70460944369E+02  0.47000000000E+01 0. -1.
<mgrwt>
<rscale>  0 0.28848736E+03</rscale>
<asrwt>0</asrwt>
<pdfrwt beam="1">  1        1 0.24401057E-01 0.28848736E+03</pdfrwt>
<pdfrwt beam="2">  1       -1 0.20181722E-01 0.28848736E+03</pdfrwt>
<totfact> 0.39064140E+03</totfact>
</mgrwt>
</event>
<event>
 9    1  0.7944303E-001  0.2751479E+03  0.7818608E-02  0.1098369E+00
         -2   -1    0    0    0  501 -0.00000000000E+00  0.00000000000E+00  0.10814621738E+02  0.10814621738E+02  0.00000000000E+00 0.  1.
          2   -1    0    0  501    0  0.00000000000E+00 -0.00000000000E+00 -0.17500927382E+04  0.17500927382E+04  0.00000000000E+00 0.  1.
         35    2    1    2    0    0  0.00000000000E+00 -0.71054273576E-14 -0.17392781165E+04  0.17609073600E+04  0.27514789456E+03 0.  0.
         25    2    3    3    0    0 -0.19348615981E+02  0.50172488885E+02 -0.81647940330E+03  0.82801462643E+03  0.12679888798E+03 0.  0.
         25    2    3    3    0    0  0.19348615981E+02 -0.50172488885E+02 -0.92279871319E+03  0.93289273353E+03  0.12585602740E+03 0.  0.
          5    1    4    4  502    0  0.20092927452E+01 -0.38999944506E+02 -0.14320257915E+03  0.14850623423E+03  0.47000000000E+01 0. -1.
         -5    1    4    4    0  502 -0.21357908727E+02  0.89172433391E+02 -0.67327682415E+03  0.67950839220E+03  0.47000000000E+01 0. -1.
          5    1    5    5  503    0 -0.46774506721E+02  0.91177439606E+01 -0.31227333601E+03  0.31592358905E+03  0.47000000000E+01 0. -1.
         -5    1    5    5    0  503  0.66123122703E+02 -0.59290232846E+02 -0.61052537718E+03  0.61696914448E+03  0.47000000000E+01 0. -1.
<mgrwt>
<rscale>  0 0.27514789E+03</rscale>
<asrwt>0</asrwt>
<pdfrwt beam="1">  1        2 0.26924474E+00 0.27514789E+03</pdfrwt>
<pdfrwt beam="2">  1       -2 0.16637898E-02 0.27514789E+03</pdfrwt>
<totfact> 0.10189180E+04</totfact>
</mgrwt>
</event>
<event>
 9    1  0.7944303E-001  0.2704427E+03  0.7818608E-02  0.1101027E+00
          1   -1    0    0  501    0  0.00000000000E+00  0.00000000000E+00  0.46912716139E+03  0.46912716139E+03  0.00000000000E+00 0. -1.
         -1   -1    0    0    0  501 -0.00000000000E+00 -0.00000000000E+00 -0.38976237928E+02  0.38976237928E+02  0.00000000000E+00 0. -1.
         35    2    1    2    0    0 -0.71054273576E-14  0.00000000000E+00  0.43015092346E+03  0.50810339931E+03  0.27044268791E+03 0.  0.
         25    2    3    3    0    0 -0.12629854125E+02  0.26347001032E+02  0.13530355765E+03  0.18660193293E+03  0.12513812761E+03 0.  0.
         25    2    3    3    0    0  0.12629854125E+02 -0.26347001032E+02  0.29484736580E+03  0.32150146638E+03  0.12479802116E+03 0.  0.
          5    1    4    4  502    0 -0.64852755313E+02 -0.22110490857E+01  0.48071555513E+02  0.80893343726E+02  0.47000000000E+01 0.  1.
         -5    1    4    4    0  502  0.52222901187E+02  0.28558050118E+02  0.87232002141E+02  0.10570858921E+03  0.47000000000E+01 0.  1.
          5    1    5    5  503    0  0.21543590004E+02 -0.33631343527E+01  0.29555512855E+03  0.29639561561E+03  0.47000000000E+01 0. -1.
         -5    1    5    5    0  503 -0.89137358785E+01 -0.22983866679E+02 -0.70776274131E+00  0.25105850771E+02  0.47000000000E+01 0. -1.
<mgrwt>
<rscale>  0 0.27044269E+03</rscale>
<asrwt>0</asrwt>
<pdfrwt beam="1">  1        1 0.72173405E-01 0.27044269E+03</pdfrwt>
<pdfrwt beam="2">  1       -1 0.59963447E-02 0.27044269E+03</pdfrwt>
<totfact> 0.65362436E+03</totfact>
</mgrwt>
</event>
<event>
 9    1  0.7944303E-001  0.2681386E+03  0.7818608E-02  0.1102350E+00
          1   -1    0    0  501    0  0.00000000000E+00  0.00000000000E+00  0.81594001302E+03  0.81594001302E+03  0.00000000000E+00 0. -1.
         -1   -1    0    0    0  501 -0.00000000000E+00 -0.00000000000E+00 -0.22029282004E+02  0.22029282004E+02  0.00000000000E+00 0. -1.
         35    2    1    2    0    0  0.00000000000E+00  0.71054273576E-14  0.79391073101E+03  0.83796929502E+03  0.26813856601E+03 0.  0.
         25    2    3    3    0    0 -0.36346559589E+02  0.27387250811E+02  0.46704600830E+03  0.48505987018E+03  0.12280052887E+03 0.  0.
         25    2    3    3    0    0  0.36346559589E+02 -0.27387250811E+02  0.32686472271E+03  0.35290942484E+03  0.12503352064E+03 0.  0.
          5    1    4    4  502    0 -0.41362179785E+01  0.72672106525E+02  0.30799947885E+03  0.31651873932E+03  0.47000000000E+01 0.  1.
         -5    1    4    4    0  502 -0.32210341611E+02 -0.45284855714E+02  0.15904652945E+03  0.16854113087E+03  0.47000000000E+01 0.  1.
          5    1    5    5  503    0  0.58787720362E+01 -0.64044285236E+02  0.86906490053E+02  0.10821764387E+03  0.47000000000E+01 0. -1.
         -5    1    5    5    0  503  0.30467787553E+02  0.36657034425E+02  0.23995823266E+03  0.24469178096E+03  0.47000000000E+01 0. -1.
<mgrwt>
<rscale>  0 0.26813857E+03</rscale>
<asrwt>0</asrwt>
<pdfrwt beam="1">  1        1 0.12552921E+00 0.26813857E+03</pdfrwt>
<pdfrwt beam="2">  1       -1 0.33891209E-02 0.26813857E+03</pdfrwt>
<totfact> 0.70140767E+03</totfact>
</mgrwt>
</event>
<event>
 9    1  0.7944303E-001  0.2750946E+03  0.7818608E-02  0.1098399E+00
         -1   -1    0    0    0  501 -0.00000000000E+00  0.00000000000E+00  0.31460084886E+03  0.31460084886E+03  0.00000000000E+00 0.  1.
          1   -1    0    0  501    0  0.00000000000E+00 -0.00000000000E+00 -0.60137338901E+02  0.60137338901E+02  0.00000000000E+00 0.  1.
         35    2    1    2    0    0 -0.35527136788E-14  0.00000000000E+00  0.25446350996E+03  0.37473818776E+03  0.27509458640E+03 0.  0.
         25    2    3    3    0    0  0.16967256474E+02  0.22420995596E+01  0.67551827810E+02  0.14919124345E+03  0.13191612062E+03 0.  0.
         25    2    3    3    0    0 -0.16967256474E+02 -0.22420995596E+01  0.18691168215E+03  0.22554694430E+03  0.12507010978E+03 0.  0.
          5    1    4    4  502    0  0.26894656585E+02 -0.30034351979E+02 -0.26953918444E+02  0.48723593577E+02  0.47000000000E+01 0.  1.
         -5    1    4    4    0  502 -0.99274001109E+01  0.32276451538E+02  0.94505746253E+02  0.10046764988E+03  0.47000000000E+01 0.  1.
          5    1    5    5  503    0 -0.48359204831E+02 -0.33545813378E+02  0.16622632606E+03  0.17640072495E+03  0.47000000000E+01 0. -1.
         -5    1    5    5    0  503  0.31391948357E+02  0.31303713818E+02  0.20685356088E+02  0.49146219356E+02  0.47000000000E+01 0. -1.
<mgrwt>
<rscale>  0 0.27509459E+03</rscale>
<asrwt>0</asrwt>
<pdfrwt beam="1">  1        1 0.92518985E-02 0.27509459E+03</pdfrwt>
<pdfrwt beam="2">  1       -1 0.48400130E-01 0.27509459E+03</pdfrwt>
<totfact> 0.30996919E+03</totfact>
</mgrwt>
</event>
<event>
 9    1  0.7944303E-001  0.2681237E+03  0.7818608E-02  0.1102358E+00
          1   -1    0    0  501    0  0.00000000000E+00  0.00000000000E+00  0.47710629900E+03  0.47710629900E+03  0.00000000000E+00 0. -1.
         -1   -1    0    0    0  501 -0.00000000000E+00 -0.00000000000E+00 -0.37669957974E+02  0.37669957974E+02  0.00000000000E+00 0. -1.
         35    2    1    2    0    0  0.00000000000E+00  0.00000000000E+00  0.43943634103E+03  0.51477625698E+03  0.26812365977E+03 0.  0.
         25    2    3    3    0    0  0.22571988222E+02  0.35034554097E+02  0.17580598927E+03  0.22010962424E+03  0.12571231517E+03 0.  0.
         25    2    3    3    0    0 -0.22571988222E+02 -0.35034554097E+02  0.26363035176E+03  0.29466663274E+03  0.12486211374E+03 0.  0.
          5    1    4    4  502    0 -0.61134976599E+01  0.32537196324E+02  0.18616943716E+03  0.18914860119E+03  0.47000000000E+01 0.  1.
         -5    1    4    4    0  502  0.28685485882E+02  0.24973577731E+01 -0.10363447891E+02  0.30961023050E+02  0.47000000000E+01 0.  1.
          5    1    5    5  503    0 -0.98214528369E+01 -0.77668036021E+02  0.11313950594E+03  0.13766416585E+03  0.47000000000E+01 0. -1.
         -5    1    5    5    0  503 -0.12750535385E+02  0.42633481924E+02  0.15049084582E+03  0.15700246689E+03  0.47000000000E+01 0. -1.
<mgrwt>
<rscale>  0 0.26812366E+03</rscale>
<asrwt>0</asrwt>
<pdfrwt beam="1">  1        1 0.73400965E-01 0.26812366E+03</pdfrwt>
<pdfrwt beam="2">  1       -1 0.57953785E-02 0.26812366E+03</pdfrwt>
<totfact> 0.67279979E+03</totfact>
</mgrwt>
</event>
<event>
 9    1  0.7944303E-001  0.2757324E+03  0.7818608E-02  0.1098043E+00
          2   -1    0    0  501    0  0.00000000000E+00  0.00000000000E+00  0.77955821061E+03  0.77955821061E+03  0.00000000000E+00 0. -1.
         -2   -1    0    0    0  501 -0.00000000000E+00 -0.00000000000E+00 -0.24381877181E+02  0.24381877181E+02  0.00000000000E+00 0. -1.
         35    2    1    2    0    0  0.35527136788E-14  0.00000000000E+00  0.75517633343E+03  0.80394008779E+03  0.27573242498E+03 0.  0.
         25    2    3    3    0    0  0.22043363420E+02  0.43544445070E+01  0.54933975272E+03  0.56225982166E+03  0.11771606549E+03 0.  0.
         25    2    3    3    0    0 -0.22043363420E+02 -0.43544445070E+01  0.20583658070E+03  0.24168026613E+03  0.12464261720E+03 0.  0.
          5    1    4    4  502    0  0.84563730014E+01  0.74478299125E+01 -0.50362125887E+00  0.12219821976E+02  0.47000000000E+01 0. -1.
         -5    1    4    4    0  502  0.13586990419E+02 -0.30933854056E+01  0.54984337398E+03  0.55003999969E+03  0.47000000000E+01 0. -1.
          5    1    5    5  503    0  0.24542194629E+02 -0.19312900578E+02  0.18602117724E+03  0.18868300354E+03  0.47000000000E+01 0. -1.
         -5    1    5    5    0  503 -0.46585558049E+02  0.14958456071E+02  0.19815403468E+02  0.52997262584E+02  0.47000000000E+01 0. -1.
<mgrwt>
<rscale>  0 0.27573242E+03</rscale>
<asrwt>0</asrwt>
<pdfrwt beam="1">  1        2 0.11993201E+00 0.27573242E+03</pdfrwt>
<pdfrwt beam="2">  1       -2 0.37510586E-02 0.27573242E+03</pdfrwt>
<totfact> 0.11067163E+04</totfact>
</mgrwt>
</event>
<event>
 9    1  0.7944303E-001  0.2819470E+03  0.7818608E-02  0.1094630E+00
          1   -1    0    0  501    0  0.00000000000E+00  0.00000000000E+00  0.56445187493E+02  0.56445187493E+02  0.00000000000E+00 0. -1.
         -1   -1    0    0    0  501 -0.00000000000E+00 -0.00000000000E+00 -0.35208531672E+03  0.35208531672E+03  0.00000000000E+00 0. -1.
         35    2    1    2    0    0 -0.35527136788E-14 -0.71054273576E-14 -0.29564012923E+03  0.40853050421E+03  0.28194695753E+03 0.  0.
         25    2    3    3    0    0  0.29137913280E+02  0.45847971440E+02 -0.95242845191E+02  0.16616741647E+03  0.12485734363E+03 0.  0.
         25    2    3    3    0    0 -0.29137913280E+02 -0.45847971440E+02 -0.20039728404E+03  0.24236308775E+03  0.12501896007E+03 0.  0.
          5    1    4    4  502    0 -0.20804801673E+02 -0.34929750521E+02 -0.25124825536E+02  0.48023682724E+02  0.47000000000E+01 0. -1.
         -5    1    4    4    0  502  0.49942714954E+02  0.80777721961E+02 -0.70118019655E+02  0.11814373374E+03  0.47000000000E+01 0. -1.
          5    1    5    5  503    0  0.49279801104E+02 -0.15237344977E+02 -0.69890264198E+02  0.86990887503E+02  0.47000000000E+01 0. -1.
         -5    1    5    5    0  503 -0.78417714385E+02 -0.30610626463E+02 -0.13050701984E+03  0.15537220025E+03  0.47000000000E+01 0. -1.
<mgrwt>
<rscale>  0 0.28194696E+03</rscale>
<asrwt>0</asrwt>
<pdfrwt beam="1">  1        1 0.86838752E-02 0.28194696E+03</pdfrwt>
<pdfrwt beam="2">  1       -1 0.54166971E-01 0.28194696E+03</pdfrwt>
<totfact> 0.27412080E+03</totfact>
</mgrwt>
</event>
<event>
 9    1  0.7944303E-001  0.2744491E+03  0.7818608E-02  0.1098760E+00
          2   -1    0    0  501    0  0.00000000000E+00  0.00000000000E+00  0.19286580196E+03  0.19286580196E+03  0.00000000000E+00 0. -1.
         -2   -1    0    0    0  501 -0.00000000000E+00 -0.00000000000E+00 -0.97635661875E+02  0.97635661875E+02  0.00000000000E+00 0. -1.
         35    2    1    2    0    0  0.71054273576E-14  0.00000000000E+00  0.95230140083E+02  0.29050146383E+03  0.27444912262E+03 0.  0.
         25    2    3    3    0    0  0.39671088668E+02 -0.40809869784E+02  0.45928409820E+02  0.14434683294E+03  0.12444817637E+03 0.  0.
         25    2    3    3    0    0 -0.39671088668E+02  0.40809869784E+02  0.49301730264E+02  0.14615463090E+03  0.12526481859E+03 0.  0.
          5    1    4    4  502    0 -0.43158133172E+02 -0.14357552890E+02  0.32827231898E+02  0.56289261302E+02  0.47000000000E+01 0. -1.
         -5    1    4    4    0  502  0.82829221839E+02 -0.26452316894E+02  0.13101177922E+02  0.88057571636E+02  0.47000000000E+01 0. -1.
          5    1    5    5  503    0 -0.43364827701E+02 -0.38331792409E+02  0.24241100420E+02  0.62924999328E+02  0.47000000000E+01 0.  1.
         -5    1    5    5    0  503  0.36937390330E+01  0.79141662193E+02  0.25060629844E+02  0.83229631568E+02  0.47000000000E+01 0.  1.
<mgrwt>
<rscale>  0 0.27444912E+03</rscale>
<asrwt>0</asrwt>
<pdfrwt beam="1">  1        2 0.29671662E-01 0.27444912E+03</pdfrwt>
<pdfrwt beam="2">  1       -2 0.15020871E-01 0.27444912E+03</pdfrwt>
<totfact> 0.60170216E+03</totfact>
</mgrwt>
</event>
<event>
 9    1  0.7944303E-001  0.2742334E+03  0.7818608E-02  0.1098881E+00
          3   -1    0    0  501    0  0.00000000000E+00  0.00000000000E+00  0.10442314823E+03  0.10442314823E+03  0.00000000000E+00 0.  1.
         -3   -1    0    0    0  501 -0.00000000000E+00 -0.00000000000E+00 -0.18004614940E+03  0.18004614940E+03  0.00000000000E+00 0.  1.
         35    2    1    2    0    0  0.00000000000E+00  0.35527136788E-14 -0.75623001173E+02  0.28446929763E+03  0.27423337322E+03 0.  0.
         25    2    3    3    0    0 -0.17404762069E+02 -0.24973454892E+02 -0.87169710550E+02  0.15553087430E+03  0.12515868020E+03 0.  0.
         25    2    3    3    0    0  0.17404762069E+02  0.24973454892E+02  0.11546709376E+02  0.12893842333E+03  0.12476053592E+03 0.  0.
          5    1    4    4  502    0 -0.39757960619E+02  0.35988403644E+02 -0.10318873275E+02  0.54812678963E+02  0.47000000000E+01 0.  1.
         -5    1    4    4    0  502  0.22353198550E+02 -0.60961858536E+02 -0.76850837274E+02  0.10071819533E+03  0.47000000000E+01 0.  1.
          5    1    5    5  503    0  0.41201700456E+02  0.22116864563E+02 -0.46406686776E+02  0.66048515472E+02  0.47000000000E+01 0. -1.
         -5    1    5    5    0  503 -0.23796938387E+02  0.28565903289E+01  0.57953396153E+02  0.62889907859E+02  0.47000000000E+01 0. -1.
<mgrwt>
<rscale>  0 0.27423337E+03</rscale>
<asrwt>0</asrwt>
<pdfrwt beam="1">  1        3 0.16065100E-01 0.27423337E+03</pdfrwt>
<pdfrwt beam="2">  1       -3 0.27699407E-01 0.27423337E+03</pdfrwt>
<totfact> 0.10433836E+03</totfact>
</mgrwt>
</event>
<event>
 9    1  0.7944303E-001  0.2744936E+03  0.7818608E-02  0.1098735E+00
          2   -1    0    0  501    0  0.00000000000E+00  0.00000000000E+00  0.15300050229E+04  0.15300050229E+04  0.00000000000E+00 0.  1.
         -2   -1    0    0    0  501 -0.00000000000E+00 -0.00000000000E+00 -0.12311521867E+02  0.12311521867E+02  0.00000000000E+00 0.  1.
         35    2    1    2    0    0  0.14210854715E-13  0.00000000000E+00  0.15176935010E+04  0.15423165448E+04  0.27449364507E+03 0.  0.
         25    2    3    3    0    0  0.43200435164E+02 -0.19062482264E+01  0.55057559484E+03  0.56615301017E+03  0.12460270427E+03 0.  0.
         25    2    3    3    0    0 -0.43200435164E+02  0.19062482264E+01  0.96711790618E+03  0.97616353458E+03  0.12533271885E+03 0.  0.
          5    1    4    4  502    0 -0.21251847097E+01 -0.35027168246E+02  0.44571000194E+03  0.44711398407E+03  0.47000000000E+01 0. -1.
         -5    1    4    4    0  502  0.45325619874E+02  0.33120920020E+02  0.10486559290E+03  0.11903902610E+03  0.47000000000E+01 0. -1.
          5    1    5    5  503    0 -0.52310829467E+02 -0.54205871656E+02  0.56588571637E+03  0.57089704273E+03  0.47000000000E+01 0. -1.
         -5    1    5    5    0  503  0.91103943021E+01  0.56112119882E+02  0.40123218981E+03  0.40526649186E+03  0.47000000000E+01 0. -1.
<mgrwt>
<rscale>  0 0.27449365E+03</rscale>
<asrwt>0</asrwt>
<pdfrwt beam="1">  1        2 0.23538524E+00 0.27449365E+03</pdfrwt>
<pdfrwt beam="2">  1       -2 0.18940815E-02 0.27449365E+03</pdfrwt>
<totfact> 0.11012382E+04</totfact>
</mgrwt>
</event>
<event>
 9    1  0.7944303E-001  0.2770538E+03  0.7818608E-02  0.1097309E+00
         -1   -1    0    0    0  501 -0.00000000000E+00  0.00000000000E+00  0.46228607564E+02  0.46228607564E+02  0.00000000000E+00 0.  1.
          1   -1    0    0  501    0  0.00000000000E+00 -0.00000000000E+00 -0.41510437003E+03  0.41510437003E+03  0.00000000000E+00 0.  1.
         35    2    1    2    0    0 -0.35527136788E-14 -0.35527136788E-14 -0.36887576247E+03  0.46133297760E+03  0.27705376388E+03 0.  0.
         25    2    3    3    0    0 -0.64443921649E+01  0.17035401823E+02 -0.87557748586E+02  0.15293865964E+03  0.12406506023E+03 0.  0.
         25    2    3    3    0    0  0.64443921649E+01 -0.17035401823E+02 -0.28131801388E+03  0.30839431795E+03  0.12504197417E+03 0.  0.
          5    1    4    4  502    0 -0.63598972343E+02 -0.47100372457E+01 -0.47991004681E+02  0.79951486942E+02  0.47000000000E+01 0. -1.
         -5    1    4    4    0  502  0.57154580178E+02  0.21745439069E+02 -0.39566743905E+02  0.72987172701E+02  0.47000000000E+01 0. -1.
          5    1    5    5  503    0 -0.26225687380E+02 -0.10549081415E+02 -0.27197872992E+03  0.27348416649E+03  0.47000000000E+01 0.  1.
         -5    1    5    5    0  503  0.32670079545E+02 -0.64863204081E+01 -0.93392839696E+01  0.34910151460E+02  0.47000000000E+01 0.  1.
<mgrwt>
<rscale>  0 0.27705376E+03</rscale>
<asrwt>0</asrwt>
<pdfrwt beam="1">  1        1 0.63862213E-01 0.27705376E+03</pdfrwt>
<pdfrwt beam="2">  1       -1 0.71120933E-02 0.27705376E+03</pdfrwt>
<totfact> 0.59231981E+03</totfact>
</mgrwt>
</event>
<event>
 9    1  0.7944303E-001  0.2739884E+03  0.7818608E-02  0.1099018E+00
          1   -1    0    0  501    0  0.00000000000E+00  0.00000000000E+00  0.71709544541E+03  0.71709544541E+03  0.00000000000E+00 0. -1.
         -1   -1    0    0    0  501 -0.00000000000E+00 -0.00000000000E+00 -0.26171433873E+02  0.26171433873E+02  0.00000000000E+00 0. -1.
         35    2    1    2    0    0  0.00000000000E+00 -0.35527136788E-14  0.69092401153E+03  0.74326687928E+03  0.27398843793E+03 0.  0.
         25    2    3    3    0    0 -0.40289421568E+02 -0.21423294656E+02  0.25947734753E+03  0.29177603306E+03  0.12538965085E+03 0.  0.
         25    2    3    3    0    0  0.40289421568E+02  0.21423294656E+02  0.43144666400E+03  0.45149084622E+03  0.12496225550E+03 0.  0.
          5    1    4    4  502    0 -0.12366982028E+01  0.17866818429E+02  0.22625208612E+03  0.22700847803E+03  0.47000000000E+01 0.  1.
         -5    1    4    4    0  502 -0.39052723365E+02 -0.39290113085E+02  0.33225261410E+02  0.64767555027E+02  0.47000000000E+01 0.  1.
          5    1    5    5  503    0  0.38379590533E+02 -0.14000203479E+02  0.36676876882E+02  0.55102467864E+02  0.47000000000E+01 0.  1.
         -5    1    5    5    0  503  0.19098310352E+01  0.35423498134E+02  0.39476978712E+03  0.39638837836E+03  0.47000000000E+01 0.  1.
<mgrwt>
<rscale>  0 0.27398844E+03</rscale>
<asrwt>0</asrwt>
<pdfrwt beam="1">  1        1 0.11032236E+00 0.27398844E+03</pdfrwt>
<pdfrwt beam="2">  1       -1 0.40263750E-02 0.27398844E+03</pdfrwt>
<totfact> 0.66061301E+03</totfact>
</mgrwt>
</event>
<event>
 9    1  0.7944303E-001  0.2590504E+03  0.7818608E-02  0.1107715E+00
         -1   -1    0    0    0  501 -0.00000000000E+00  0.00000000000E+00  0.19473290075E+03  0.19473290075E+03  0.00000000000E+00 0. -1.
          1   -1    0    0  501    0  0.00000000000E+00 -0.00000000000E+00 -0.86152736237E+02  0.86152736237E+02  0.00000000000E+00 0. -1.
         35    2    1    2    0    0  0.00000000000E+00 -0.35527136788E-14  0.10858016451E+03  0.28088563698E+03  0.25905035985E+03 0.  0.
         25    2    3    3    0    0 -0.10748471599E+02 -0.16589368480E+02  0.86678904964E+02  0.15356242154E+03  0.12520961606E+03 0.  0.
         25    2    3    3    0    0  0.10748471599E+02  0.16589368480E+02  0.21901259546E+02  0.12732321545E+03  0.12385798010E+03 0.  0.
          5    1    4    4  502    0 -0.38167896343E+02  0.15803383299E+02 -0.14267661058E+02  0.43956699000E+02  0.47000000000E+01 0. -1.
         -5    1    4    4    0  502  0.27419424743E+02 -0.32392751778E+02  0.10094656602E+03  0.10960572254E+03  0.47000000000E+01 0. -1.
          5    1    5    5  503    0  0.33832060494E+02 -0.61775324847E+01 -0.42616751419E+02  0.54964058496E+02  0.47000000000E+01 0. -1.
         -5    1    5    5    0  503 -0.23083588895E+02  0.22766900964E+02  0.64518010964E+02  0.72359156951E+02  0.47000000000E+01 0. -1.
<mgrwt>
<rscale>  0 0.25905036E+03</rscale>
<asrwt>0</asrwt>
<pdfrwt beam="1">  1        1 0.13254267E-01 0.25905036E+03</pdfrwt>
<pdfrwt beam="2">  1       -1 0.29958908E-01 0.25905036E+03</pdfrwt>
<totfact> 0.44588116E+03</totfact>
</mgrwt>
</event>
<event>
 9    1  0.7944303E-001  0.2736874E+03  0.7818608E-02  0.1099188E+00
          1   -1    0    0  501    0  0.00000000000E+00  0.00000000000E+00  0.21114087119E+04  0.21114087119E+04  0.00000000000E+00 0.  1.
         -1   -1    0    0    0  501 -0.00000000000E+00 -0.00000000000E+00 -0.88690528558E+01  0.88690528558E+01  0.00000000000E+00 0.  1.
         35    2    1    2    0    0  0.53290705182E-14  0.35527136788E-14  0.21025396591E+04  0.21202777648E+04  0.27368737981E+03 0.  0.
         25    2    3    3    0    0 -0.91427044565E+01 -0.12031867297E+02  0.14441899971E+04  0.14497014099E+04  0.12538371245E+03 0.  0.
         25    2    3    3    0    0  0.91427044565E+01  0.12031867297E+02  0.65834966201E+03  0.67057635490E+03  0.12657019949E+03 0.  0.
          5    1    4    4  502    0  0.15936783425E+02  0.44398100933E+02  0.10105612122E+04  0.10116724895E+04  0.47000000000E+01 0. -1.
         -5    1    4    4    0  502 -0.25079487882E+02 -0.56429968229E+02  0.43362878484E+03  0.43802892036E+03  0.47000000000E+01 0. -1.
          5    1    5    5  503    0  0.58216552667E+02 -0.21562036203E+02  0.23773258798E+03  0.24574979512E+03  0.47000000000E+01 0.  1.
         -5    1    5    5    0  503 -0.49073848211E+02  0.33593903500E+02  0.42061707403E+03  0.42482655978E+03  0.47000000000E+01 0.  1.
<mgrwt>
<rscale>  0 0.27368738E+03</rscale>
<asrwt>0</asrwt>
<pdfrwt beam="1">  1        1 0.32483171E+00 0.27368738E+03</pdfrwt>
<pdfrwt beam="2">  1       -1 0.13644714E-02 0.27368738E+03</pdfrwt>
<totfact> 0.34208510E+03</totfact>
</mgrwt>
</event>
<event>
 9    1  0.7944303E-001  0.2752117E+03  0.7818608E-02  0.1098333E+00
         -1   -1    0    0    0  501 -0.00000000000E+00  0.00000000000E+00  0.46045090399E+02  0.46045090399E+02  0.00000000000E+00 0. -1.
          1   -1    0    0  501    0  0.00000000000E+00 -0.00000000000E+00 -0.41123547800E+03  0.41123547800E+03  0.00000000000E+00 0. -1.
         35    2    1    2    0    0  0.00000000000E+00  0.00000000000E+00 -0.36519038760E+03  0.45728056840E+03  0.27521173492E+03 0.  0.
         25    2    3    3    0    0 -0.12491357564E+02  0.48874214460E+02 -0.13775790816E+03  0.19345661238E+03  0.12610906693E+03 0.  0.
         25    2    3    3    0    0  0.12491357564E+02 -0.48874214460E+02 -0.22743247944E+03  0.26382395601E+03  0.12382578168E+03 0.  0.
          5    1    4    4  502    0 -0.51916670086E+02  0.72298528336E+02 -0.82042817633E+02  0.12114260917E+03  0.47000000000E+01 0. -1.
         -5    1    4    4    0  502  0.39425312522E+02 -0.23424313876E+02 -0.55715090523E+02  0.72314003208E+02  0.47000000000E+01 0. -1.
          5    1    5    5  503    0  0.58038379372E+02 -0.62893457825E+02 -0.15099835420E+03  0.17362785919E+03  0.47000000000E+01 0. -1.
         -5    1    5    5    0  503 -0.45547021808E+02  0.14019243365E+02 -0.76434125242E+02  0.90196096820E+02  0.47000000000E+01 0. -1.
<mgrwt>
<rscale>  0 0.27521173E+03</rscale>
<asrwt>0</asrwt>
<pdfrwt beam="1">  1        1 0.63266997E-01 0.27521173E+03</pdfrwt>
<pdfrwt beam="2">  1       -1 0.70838600E-02 0.27521173E+03</pdfrwt>
<totfact> 0.60301461E+03</totfact>
</mgrwt>
</event>
<event>
 9    1  0.7944303E-001  0.2630106E+03  0.7818608E-02  0.1105348E+00
         -1   -1    0    0    0  501 -0.00000000000E+00  0.00000000000E+00  0.56775567141E+02  0.56775567141E+02  0.00000000000E+00 0.  1.
          1   -1    0    0  501    0  0.00000000000E+00 -0.00000000000E+00 -0.30459654312E+03  0.30459654312E+03  0.00000000000E+00 0.  1.
         35    2    1    2    0    0  0.00000000000E+00 -0.35527136788E-14 -0.24782097598E+03  0.36137211026E+03  0.26301058142E+03 0.  0.
         25    2    3    3    0    0 -0.28048430218E+02 -0.84729853382E+01 -0.16619805101E+03  0.21007623673E+03  0.12510686297E+03 0.  0.
         25    2    3    3    0    0  0.28048430218E+02  0.84729853382E+01 -0.81622924970E+02  0.15129587353E+03  0.12397432617E+03 0.  0.
          5    1    4    4  502    0 -0.15525926037E+02 -0.41090619558E+02 -0.43012848894E+01  0.44385633336E+02  0.47000000000E+01 0.  1.
         -5    1    4    4    0  502 -0.12522504181E+02  0.32617634220E+02 -0.16189676612E+03  0.16569060339E+03  0.47000000000E+01 0.  1.
          5    1    5    5  503    0  0.37755154717E+02 -0.37746523653E+01  0.23523645089E+02  0.44890439811E+02  0.47000000000E+01 0. -1.
         -5    1    5    5    0  503 -0.97067244989E+01  0.12247637704E+02 -0.10514657006E+03  0.10640543372E+03  0.47000000000E+01 0. -1.
<mgrwt>
<rscale>  0 0.26301058E+03</rscale>
<asrwt>0</asrwt>
<pdfrwt beam="1">  1        1 0.46861007E-01 0.26301058E+03</pdfrwt>
<pdfrwt beam="2">  1       -1 0.87347026E-02 0.26301058E+03</pdfrwt>
<totfact> 0.64024985E+03</totfact>
</mgrwt>
</event>
<event>
 9    1  0.7944303E-001  0.2743669E+03  0.7818608E-02  0.1098806E+00
         -1   -1    0    0    0  501 -0.00000000000E+00  0.00000000000E+00  0.54031425939E+01  0.54031425939E+01  0.00000000000E+00 0.  1.
          1   -1    0    0  501    0  0.00000000000E+00 -0.00000000000E+00 -0.34830271089E+04  0.34830271089E+04  0.00000000000E+00 0.  1.
         35    2    1    2    0    0 -0.71054273576E-14 -0.35527136788E-14 -0.34776239663E+04  0.34884302515E+04  0.27436685024E+03 0.  0.
         25    2    3    3    0    0 -0.28487295857E+02 -0.69887017668E+01 -0.14494797968E+04  0.14562402983E+04  0.13705384806E+03 0.  0.
         25    2    3    3    0    0  0.28487295857E+02  0.69887017668E+01 -0.20281441695E+04  0.20321899531E+04  0.12476724460E+03 0.  0.
          5    1    4    4  502    0 -0.25121949834E+02 -0.67984717846E+02 -0.99529818480E+03  0.99794468829E+03  0.47000000000E+01 0. -1.
         -5    1    4    4    0  502 -0.33653460228E+01  0.60996016079E+02 -0.45418161197E+03  0.45829561004E+03  0.47000000000E+01 0. -1.
          5    1    5    5  503    0  0.64941475319E+02 -0.21126485144E+02 -0.72500905252E+03  0.72823343773E+03  0.47000000000E+01 0. -1.
         -5    1    5    5    0  503 -0.36454179462E+02  0.28115186911E+02 -0.13031351170E+04  0.13039565154E+04  0.47000000000E+01 0. -1.
<mgrwt>
<rscale>  0 0.27436685E+03</rscale>
<asrwt>0</asrwt>
<pdfrwt beam="1">  1        1 0.53585239E+00 0.27436685E+03</pdfrwt>
<pdfrwt beam="2">  1       -1 0.83124950E-03 0.27436685E+03</pdfrwt>
<totfact> 0.79406782E+02</totfact>
</mgrwt>
</event>
<event>
 9    1  0.7944303E-001  0.2737017E+03  0.7818608E-02  0.1099180E+00
          1   -1    0    0  501    0  0.00000000000E+00  0.00000000000E+00  0.10483717331E+04  0.10483717331E+04  0.00000000000E+00 0. -1.
         -1   -1    0    0    0  501 -0.00000000000E+00 -0.00000000000E+00 -0.17864038981E+02  0.17864038981E+02  0.00000000000E+00 0. -1.
         35    2    1    2    0    0  0.00000000000E+00  0.00000000000E+00  0.10305076942E+04  0.10662357721E+04  0.27370168803E+03 0.  0.
         25    2    3    3    0    0  0.62656947996E+02  0.11262613611E+02  0.51653004824E+03  0.53555190352E+03  0.12633214566E+03 0.  0.
         25    2    3    3    0    0 -0.62656947996E+02 -0.11262613611E+02  0.51397764591E+03  0.53068386860E+03  0.11575667711E+03 0.  0.
          5    1    4    4  502    0  0.34468470945E+01  0.54965155732E+01 -0.57578436234E+01  0.98658604050E+01  0.47000000000E+01 0. -1.
         -5    1    4    4    0  502  0.59210100901E+02  0.57660980373E+01  0.52228789186E+03  0.52568604311E+03  0.47000000000E+01 0. -1.
          5    1    5    5  503    0 -0.58396660217E+02 -0.15321949080E+02  0.51841693228E+03  0.52194169954E+03  0.47000000000E+01 0. -1.
         -5    1    5    5    0  503 -0.42602877785E+01  0.40593354694E+01 -0.44392863645E+01  0.87421690578E+01  0.47000000000E+01 0. -1.
<mgrwt>
<rscale>  0 0.27370169E+03</rscale>
<asrwt>0</asrwt>
<pdfrwt beam="1">  1        1 0.16128791E+00 0.27370169E+03</pdfrwt>
<pdfrwt beam="2">  1       -1 0.27483145E-02 0.27370169E+03</pdfrwt>
<totfact> 0.63155955E+03</totfact>
</mgrwt>
</event>
<event>
 9    1  0.7944303E-001  0.2787424E+03  0.7818608E-02  0.1096378E+00
          1   -1    0    0  501    0  0.00000000000E+00  0.00000000000E+00  0.10210538309E+03  0.10210538309E+03  0.00000000000E+00 0.  1.
         -1   -1    0    0    0  501 -0.00000000000E+00 -0.00000000000E+00 -0.19023813191E+03  0.19023813191E+03  0.00000000000E+00 0.  1.
         35    2    1    2    0    0  0.00000000000E+00  0.00000000000E+00 -0.88132748827E+02  0.29234351500E+03  0.27874244267E+03 0.  0.
         25    2    3    3    0    0  0.40634370679E+02 -0.15220899616E+02 -0.95285973034E+02  0.16402974618E+03  0.12626762495E+03 0.  0.
         25    2    3    3    0    0 -0.40634370679E+02  0.15220899616E+02  0.71532242077E+01  0.12831376882E+03  0.12054221993E+03 0.  0.
          5    1    4    4  502    0 -0.19285577025E+02  0.12612305369E+02  0.20131089202E+02  0.30957300922E+02  0.47000000000E+01 0.  1.
         -5    1    4    4    0  502  0.59919947704E+02 -0.27833204985E+02 -0.11541706224E+03  0.13307244526E+03  0.47000000000E+01 0.  1.
          5    1    5    5  503    0 -0.65273566483E+02 -0.33124295414E+02  0.84504396076E+01  0.73833307915E+02  0.47000000000E+01 0.  1.
         -5    1    5    5    0  503  0.24639195804E+02  0.48345195030E+02 -0.12972153999E+01  0.54480460902E+02  0.47000000000E+01 0.  1.
<mgrwt>
<rscale>  0 0.27874244E+03</rscale>
<asrwt>0</asrwt>
<pdfrwt beam="1">  1        1 0.15708521E-01 0.27874244E+03</pdfrwt>
<pdfrwt beam="2">  1       -1 0.29267404E-01 0.27874244E+03</pdfrwt>
<totfact> 0.37190714E+03</totfact>
</mgrwt>
</event>
<event>
 9    1  0.7944303E-001  0.2529682E+03  0.7818608E-02  0.1111443E+00
         -4   -1    0    0    0  501 -0.00000000000E+00  0.00000000000E+00  0.11078973244E+03  0.11078973244E+03  0.00000000000E+00 0. -1.
          4   -1    0    0  501    0  0.00000000000E+00 -0.00000000000E+00 -0.14440169998E+03  0.14440169998E+03  0.00000000000E+00 0. -1.
         35    2    1    2    0    0 -0.17763568394E-14 -0.71054273576E-14 -0.33611967540E+02  0.25519143241E+03  0.25296818538E+03 0.  0.
         25    2    3    3    0    0 -0.69717487421E+01  0.24116931269E+02 -0.90262329534E+01  0.12745538482E+03  0.12463214106E+03 0.  0.
         25    2    3    3    0    0  0.69717487421E+01 -0.24116931269E+02 -0.24585734587E+02  0.12773604759E+03  0.12280801218E+03 0.  0.
          5    1    4    4  502    0 -0.40527741431E+02  0.62852474781E+02  0.13972462460E+01  0.74946472290E+02  0.47000000000E+01 0.  1.
         -5    1    4    4    0  502  0.33555992689E+02 -0.38735543512E+02 -0.10423479199E+02  0.52508912530E+02  0.47000000000E+01 0.  1.
          5    1    5    5  503    0  0.16390304773E+02 -0.73168975546E+02 -0.16498731698E+02  0.76919693321E+02  0.47000000000E+01 0. -1.
         -5    1    5    5    0  503 -0.94185560311E+01  0.49052044277E+02 -0.80870028886E+01  0.50816354269E+02  0.47000000000E+01 0. -1.
<mgrwt>
<rscale>  0 0.25296819E+03</rscale>
<asrwt>0</asrwt>
<pdfrwt beam="1">  1        4 0.22215646E-01 0.25296819E+03</pdfrwt>
<pdfrwt beam="2">  1       -4 0.17044574E-01 0.25296819E+03</pdfrwt>
<totfact> 0.10384098E+03</totfact>
</mgrwt>
</event>
<event>
 9    1  0.7944303E-001  0.2757909E+03  0.7818608E-02  0.1098010E+00
          2   -1    0    0  501    0  0.00000000000E+00  0.00000000000E+00  0.42719579780E+02  0.42719579780E+02  0.00000000000E+00 0. -1.
         -2   -1    0    0    0  501 -0.00000000000E+00 -0.00000000000E+00 -0.44511578926E+03  0.44511578926E+03  0.00000000000E+00 0. -1.
         35    2    1    2    0    0  0.00000000000E+00  0.71054273576E-14 -0.40239620948E+03  0.48783536904E+03  0.27579093148E+03 0.  0.
         25    2    3    3    0    0 -0.37843315222E+02 -0.43343930174E+02 -0.20478793728E+03  0.24686939114E+03  0.12528201881E+03 0.  0.
         25    2    3    3    0    0  0.37843315222E+02  0.43343930174E+02 -0.19760827220E+03  0.24096597790E+03  0.12531863578E+03 0.  0.
          5    1    4    4  502    0  0.29213100662E+02 -0.61397068256E+02 -0.96484290529E+02  0.11812837745E+03  0.47000000000E+01 0. -1.
         -5    1    4    4    0  502 -0.67056415884E+02  0.18053138082E+02 -0.10830364675E+03  0.12874101369E+03  0.47000000000E+01 0. -1.
          5    1    5    5  503    0  0.35130022547E+02 -0.20906963553E+02 -0.96652287652E+01  0.42269684837E+02  0.47000000000E+01 0.  1.
         -5    1    5    5    0  503  0.27132926750E+01  0.64250893727E+02 -0.18794304344E+03  0.19869629306E+03  0.47000000000E+01 0.  1.
<mgrwt>
<rscale>  0 0.27579093E+03</rscale>
<asrwt>0</asrwt>
<pdfrwt beam="1">  1        2 0.65722434E-02 0.27579093E+03</pdfrwt>
<pdfrwt beam="2">  1       -2 0.68479348E-01 0.27579093E+03</pdfrwt>
<totfact> 0.21877002E+03</totfact>
</mgrwt>
</event>
<event>
 9    1  0.7944303E-001  0.2775477E+03  0.7818608E-02  0.1097036E+00
          2   -1    0    0  501    0  0.00000000000E+00  0.00000000000E+00  0.63246339605E+03  0.63246339605E+03  0.00000000000E+00 0.  1.
         -2   -1    0    0    0  501 -0.00000000000E+00 -0.00000000000E+00 -0.30449478013E+02  0.30449478013E+02  0.00000000000E+00 0.  1.
         35    2    1    2    0    0  0.00000000000E+00 -0.35527136788E-14  0.60201391804E+03  0.66291287407E+03  0.27754769156E+03 0.  0.
         25    2    3    3    0    0 -0.21164176053E+02  0.78214747992E+01  0.43427273419E+03  0.45243893421E+03  0.12489629181E+03 0.  0.
         25    2    3    3    0    0  0.21164176053E+02 -0.78214747992E+01  0.16774118385E+03  0.21047393986E+03  0.12511225674E+03 0.  0.
          5    1    4    4  502    0 -0.46996023463E+02 -0.11790848850E+01  0.56509986129E+02  0.73657891599E+02  0.47000000000E+01 0.  1.
         -5    1    4    4    0  502  0.25831847410E+02  0.90005596841E+01  0.37776274806E+03  0.37878104261E+03  0.47000000000E+01 0.  1.
          5    1    5    5  503    0  0.10714974281E+02  0.48040455337E+02  0.22276667093E+02  0.54231318623E+02  0.47000000000E+01 0. -1.
         -5    1    5    5    0  503  0.10449201772E+02 -0.55861930136E+02  0.14546451676E+03  0.15624262124E+03  0.47000000000E+01 0. -1.
<mgrwt>
<rscale>  0 0.27754769E+03</rscale>
<asrwt>0</asrwt>
<pdfrwt beam="1">  1        2 0.97302052E-01 0.27754769E+03</pdfrwt>
<pdfrwt beam="2">  1       -2 0.46845355E-02 0.27754769E+03</pdfrwt>
<totfact> 0.10211728E+04</totfact>
</mgrwt>
</event>
<event>
 9    1  0.7944303E-001  0.2723232E+03  0.7818608E-02  0.1099957E+00
         -1   -1    0    0    0  501 -0.00000000000E+00  0.00000000000E+00  0.22392805744E+03  0.22392805744E+03  0.00000000000E+00 0.  1.
          1   -1    0    0  501    0  0.00000000000E+00 -0.00000000000E+00 -0.82794382279E+02  0.82794382279E+02  0.00000000000E+00 0.  1.
         35    2    1    2    0    0 -0.10658141036E-13  0.00000000000E+00  0.14113367516E+03  0.30672243972E+03  0.27232322846E+03 0.  0.
         25    2    3    3    0    0  0.14457403658E+02  0.53084183181E+02  0.97974205124E+02  0.16319050044E+03  0.11834376849E+03 0.  0.
         25    2    3    3    0    0 -0.14457403658E+02 -0.53084183181E+02  0.43159470033E+02  0.14353193927E+03  0.12534644276E+03 0.  0.
          5    1    4    4  502    0 -0.16537821101E+02  0.33041140535E+01  0.10269104146E+03  0.10417272528E+03  0.47000000000E+01 0. -1.
         -5    1    4    4    0  502  0.30995224759E+02  0.49780069127E+02 -0.47168363334E+01  0.59017775163E+02  0.47000000000E+01 0. -1.
          5    1    5    5  503    0 -0.48894462442E+02 -0.51076955398E+00 -0.21156451118E+02  0.53484715265E+02  0.47000000000E+01 0.  1.
         -5    1    5    5    0  503  0.34437058784E+02 -0.52573413627E+02  0.64315921151E+02  0.90047224008E+02  0.47000000000E+01 0.  1.
<mgrwt>
<rscale>  0 0.27232323E+03</rscale>
<asrwt>0</asrwt>
<pdfrwt beam="1">  1        1 0.12737597E-01 0.27232323E+03</pdfrwt>
<pdfrwt beam="2">  1       -1 0.34450470E-01 0.27232323E+03</pdfrwt>
<totfact> 0.37038372E+03</totfact>
</mgrwt>
</event>
<event>
 9    1  0.7944303E-001  0.2742669E+03  0.7818608E-02  0.1098862E+00
         -2   -1    0    0    0  501 -0.00000000000E+00  0.00000000000E+00  0.16117753095E+02  0.16117753095E+02  0.00000000000E+00 0.  1.
          2   -1    0    0  501    0  0.00000000000E+00 -0.00000000000E+00 -0.11667620181E+04  0.11667620181E+04  0.00000000000E+00 0.  1.
         35    2    1    2    0    0  0.14210854715E-13  0.71054273576E-14 -0.11506442650E+04  0.11828797712E+04  0.27426689284E+03 0.  0.
         25    2    3    3    0    0 -0.44322413766E+02 -0.32369974732E+02 -0.64429799728E+03  0.65861166093E+03  0.12504846655E+03 0.  0.
         25    2    3    3    0    0  0.44322413766E+02  0.32369974732E+02 -0.50634626770E+03  0.52426811024E+03  0.12433107807E+03 0.  0.
          5    1    4    4  502    0 -0.83724444062E+02 -0.29241821960E+02 -0.53436203092E+03  0.54169155132E+03  0.47000000000E+01 0.  1.
         -5    1    4    4    0  502  0.39402030296E+02 -0.31281527724E+01 -0.10993596637E+03  0.11692010962E+03  0.47000000000E+01 0.  1.
          5    1    5    5  503    0  0.43332191805E+02 -0.35352184177E+02 -0.12632783426E+03  0.13823265707E+03  0.47000000000E+01 0.  1.
         -5    1    5    5    0  503  0.99022196118E+00  0.67722158910E+02 -0.38001843344E+03  0.38603545317E+03  0.47000000000E+01 0.  1.
<mgrwt>
<rscale>  0 0.27426689E+03</rscale>
<asrwt>0</asrwt>
<pdfrwt beam="1">  1        2 0.17950186E+00 0.27426689E+03</pdfrwt>
<pdfrwt beam="2">  1       -2 0.24796542E-02 0.27426689E+03</pdfrwt>
<totfact> 0.11726719E+04</totfact>
</mgrwt>
</event>
<event>
 9    1  0.7944303E-001  0.2753312E+03  0.7818608E-02  0.1098267E+00
          2   -1    0    0  501    0  0.00000000000E+00  0.00000000000E+00  0.63668205848E+02  0.63668205848E+02  0.00000000000E+00 0. -1.
         -2   -1    0    0    0  501 -0.00000000000E+00 -0.00000000000E+00 -0.29766539075E+03  0.29766539075E+03  0.00000000000E+00 0. -1.
         35    2    1    2    0    0  0.00000000000E+00  0.00000000000E+00 -0.23399718490E+03  0.36133359660E+03  0.27533122868E+03 0.  0.
         25    2    3    3    0    0 -0.29970686356E+02 -0.44579570712E+02 -0.96217758063E+02  0.16688223053E+03  0.12532454562E+03 0.  0.
         25    2    3    3    0    0  0.29970686356E+02  0.44579570712E+02 -0.13777942684E+03  0.19445136607E+03  0.12626394236E+03 0.  0.
          5    1    4    4  502    0  0.19281316018E+02  0.35988723931E+02 -0.21541405817E+02  0.46401288367E+02  0.47000000000E+01 0.  1.
         -5    1    4    4    0  502 -0.49252002373E+02 -0.80568294643E+02 -0.74676352246E+02  0.12048094216E+03  0.47000000000E+01 0.  1.
          5    1    5    5  503    0  0.37891677850E+02  0.41141264064E+02  0.19271209827E+00  0.56129404032E+02  0.47000000000E+01 0. -1.
         -5    1    5    5    0  503 -0.79209914944E+01  0.34383066474E+01 -0.13797213894E+03  0.13832196204E+03  0.47000000000E+01 0. -1.
<mgrwt>
<rscale>  0 0.27533123E+03</rscale>
<asrwt>0</asrwt>
<pdfrwt beam="1">  1        2 0.97951085E-02 0.27533123E+03</pdfrwt>
<pdfrwt beam="2">  1       -2 0.45794676E-01 0.27533123E+03</pdfrwt>
<totfact> 0.29978740E+03</totfact>
</mgrwt>
</event>
<event>
 9    1  0.7944303E-001  0.2749772E+03  0.7818608E-02  0.1098464E+00
          3   -1    0    0  501    0  0.00000000000E+00  0.00000000000E+00  0.34111897608E+02  0.34111897608E+02  0.00000000000E+00 0.  1.
         -3   -1    0    0    0  501 -0.00000000000E+00 -0.00000000000E+00 -0.55415025610E+03  0.55415025610E+03  0.00000000000E+00 0.  1.
         35    2    1    2    0    0  0.00000000000E+00  0.71054273576E-14 -0.52003835849E+03  0.58826215371E+03  0.27497721211E+03 0.  0.
         25    2    3    3    0    0 -0.22767645946E+02  0.46939033974E+02 -0.19628684039E+03  0.23757823896E+03  0.12326093178E+03 0.  0.
         25    2    3    3    0    0  0.22767645946E+02 -0.46939033974E+02 -0.32375151810E+03  0.35068391475E+03  0.12426795234E+03 0.  0.
          5    1    4    4  502    0 -0.32397503265E+02  0.74746518473E+01  0.33966307579E+01  0.33750492419E+02  0.47000000000E+01 0. -1.
         -5    1    4    4    0  502  0.96298573191E+01  0.39464382126E+02 -0.19968347115E+03  0.20382774654E+03  0.47000000000E+01 0. -1.
          5    1    5    5  503    0  0.15243251234E+02 -0.77888912502E+02 -0.11710337264E+03  0.14154267654E+03  0.47000000000E+01 0. -1.
         -5    1    5    5    0  503  0.75243947115E+01  0.30949878529E+02 -0.20664814547E+03  0.20914123821E+03  0.47000000000E+01 0. -1.
<mgrwt>
<rscale>  0 0.27497721E+03</rscale>
<asrwt>0</asrwt>
<pdfrwt beam="1">  1        3 0.52479847E-02 0.27497721E+03</pdfrwt>
<pdfrwt beam="2">  1       -3 0.85253878E-01 0.27497721E+03</pdfrwt>
<totfact> 0.69442966E+02</totfact>
</mgrwt>
</event>
<event>
 9    1  0.7944303E-001  0.2763836E+03  0.7818608E-02  0.1097681E+00
          1   -1    0    0  501    0  0.00000000000E+00  0.00000000000E+00  0.40974193959E+03  0.40974193959E+03  0.00000000000E+00 0. -1.
         -1   -1    0    0    0  501 -0.00000000000E+00 -0.00000000000E+00 -0.46607322755E+02  0.46607322755E+02  0.00000000000E+00 0. -1.
         35    2    1    2    0    0  0.14210854715E-13 -0.71054273576E-14  0.36313461684E+03  0.45634926235E+03  0.27638360895E+03 0.  0.
         25    2    3    3    0    0 -0.54442803844E+02  0.22584586168E+02  0.16394034753E+03  0.21401868621E+03  0.12431201903E+03 0.  0.
         25    2    3    3    0    0  0.54442803844E+02 -0.22584586168E+02  0.19919426930E+03  0.24233057614E+03  0.12478649279E+03 0.  0.
          5    1    4    4  502    0 -0.74480438396E+02  0.92963051777E+01  0.35320717476E+02  0.83086702165E+02  0.47000000000E+01 0. -1.
         -5    1    4    4    0  502  0.20037634552E+02  0.13288280990E+02  0.12861963006E+03  0.13093198404E+03  0.47000000000E+01 0. -1.
          5    1    5    5  503    0 -0.37618551071E+02  0.11668332444E+02  0.57640071263E+02  0.69969801929E+02  0.47000000000E+01 0. -1.
         -5    1    5    5    0  503  0.92061354916E+02 -0.34252918612E+02  0.14155419804E+03  0.17236077421E+03  0.47000000000E+01 0. -1.
<mgrwt>
<rscale>  0 0.27638361E+03</rscale>
<asrwt>0</asrwt>
<pdfrwt beam="1">  1        1 0.63037219E-01 0.27638361E+03</pdfrwt>
<pdfrwt beam="2">  1       -1 0.71703576E-02 0.27638361E+03</pdfrwt>
<totfact> 0.59485445E+03</totfact>
</mgrwt>
</event>
<event>
 9    1  0.7944303E-001  0.2724408E+03  0.7818608E-02  0.1099891E+00
          2   -1    0    0  501    0  0.00000000000E+00  0.00000000000E+00  0.17347702132E+04  0.17347702132E+04  0.00000000000E+00 0. -1.
         -2   -1    0    0    0  501 -0.00000000000E+00 -0.00000000000E+00 -0.10696513446E+02  0.10696513446E+02  0.00000000000E+00 0. -1.
         35    2    1    2    0    0  0.35527136788E-14  0.00000000000E+00  0.17240736998E+04  0.17454667267E+04  0.27244076722E+03 0.  0.
         25    2    3    3    0    0 -0.16371381542E+02  0.21428278196E+02  0.55598075288E+03  0.57034501422E+03  0.12430464368E+03 0.  0.
         25    2    3    3    0    0  0.16371381542E+02 -0.21428278196E+02  0.11680929469E+04  0.11751217125E+04  0.12546996941E+03 0.  0.
          5    1    4    4  502    0 -0.66524820258E+02  0.20891165257E+02  0.22653592253E+03  0.23707088959E+03  0.47000000000E+01 0. -1.
         -5    1    4    4    0  502  0.50153438716E+02  0.53711293881E+00  0.32944483035E+03  0.33327412463E+03  0.47000000000E+01 0. -1.
          5    1    5    5  503    0  0.11347822149E+02 -0.11291384487E+02  0.16504862314E+02  0.23468466315E+02  0.47000000000E+01 0.  1.
         -5    1    5    5    0  503  0.50235593928E+01 -0.10136893709E+02  0.11515880846E+04  0.11516532461E+04  0.47000000000E+01 0.  1.
<mgrwt>
<rscale>  0 0.27244077E+03</rscale>
<asrwt>0</asrwt>
<pdfrwt beam="1">  1        2 0.26688750E+00 0.27244077E+03</pdfrwt>
<pdfrwt beam="2">  1       -2 0.16456188E-02 0.27244077E+03</pdfrwt>
<totfact> 0.10546620E+04</totfact>
</mgrwt>
</event>
<event>
 9    1  0.7944303E-001  0.2674730E+03  0.7818608E-02  0.1102735E+00
          1   -1    0    0  501    0  0.00000000000E+00  0.00000000000E+00  0.10518641568E+04  0.10518641568E+04  0.00000000000E+00 0.  1.
         -1   -1    0    0    0  501 -0.00000000000E+00 -0.00000000000E+00 -0.17003573264E+02  0.17003573264E+02  0.00000000000E+00 0.  1.
         35    2    1    2    0    0  0.00000000000E+00  0.71054273576E-14  0.10348605835E+04  0.10688677300E+04  0.26747298371E+03 0.  0.
         25    2    3    3    0    0  0.24609837343E+02 -0.41024130617E+02  0.50862286677E+03  0.52584477304E+03  0.12460690727E+03 0.  0.
         25    2    3    3    0    0 -0.24609837343E+02  0.41024130617E+02  0.52623771673E+03  0.54302295700E+03  0.12513662105E+03 0.  0.
          5    1    4    4  502    0  0.63216096248E+02 -0.16109277131E+02  0.14217883233E+03  0.15650141852E+03  0.47000000000E+01 0. -1.
         -5    1    4    4    0  502 -0.38606258905E+02 -0.24914853486E+02  0.36644403444E+03  0.36934335452E+03  0.47000000000E+01 0. -1.
          5    1    5    5  503    0 -0.13438491409E+02  0.85784126359E+02  0.31718500134E+03  0.32888892420E+03  0.47000000000E+01 0.  1.
         -5    1    5    5    0  503 -0.11171345934E+02 -0.44759995742E+02  0.20905271539E+03  0.21413403280E+03  0.47000000000E+01 0.  1.
<mgrwt>
<rscale>  0 0.26747298E+03</rscale>
<asrwt>0</asrwt>
<pdfrwt beam="1">  1        1 0.16182520E+00 0.26747298E+03</pdfrwt>
<pdfrwt beam="2">  1       -1 0.26159352E-02 0.26747298E+03</pdfrwt>
<totfact> 0.67480191E+03</totfact>
</mgrwt>
</event>
<event>
 9    1  0.7944303E-001  0.2758594E+03  0.7818608E-02  0.1097972E+00
          1   -1    0    0  501    0  0.00000000000E+00  0.00000000000E+00  0.46021826274E+03  0.46021826274E+03  0.00000000000E+00 0.  1.
         -1   -1    0    0    0  501 -0.00000000000E+00 -0.00000000000E+00 -0.41338230876E+02  0.41338230876E+02  0.00000000000E+00 0.  1.
         35    2    1    2    0    0  0.00000000000E+00  0.00000000000E+00  0.41888003186E+03  0.50155649361E+03  0.27585944826E+03 0.  0.
         25    2    3    3    0    0  0.48879271446E+01  0.30542222904E+02  0.29891030114E+03  0.32561350795E+03  0.12537970020E+03 0.  0.
         25    2    3    3    0    0 -0.48879271446E+01 -0.30542222904E+02  0.11996973073E+03  0.17594298567E+03  0.12492589284E+03 0.  0.
          5    1    4    4  502    0 -0.27531931188E+02  0.27168796502E+01  0.27500235251E+03  0.27643041178E+03  0.47000000000E+01 0.  1.
         -5    1    4    4    0  502  0.32419858333E+02  0.27825343254E+02  0.23907948628E+02  0.49183096173E+02  0.47000000000E+01 0.  1.
          5    1    5    5  503    0 -0.38505577200E+02 -0.33016255956E+02 -0.31016637379E+00  0.50940542165E+02  0.47000000000E+01 0.  1.
         -5    1    5    5    0  503  0.33617650055E+02  0.24740330518E+01  0.12027989710E+03  0.12500244350E+03  0.47000000000E+01 0.  1.
<mgrwt>
<rscale>  0 0.27585945E+03</rscale>
<asrwt>0</asrwt>
<pdfrwt beam="1">  1        1 0.70802806E-01 0.27585945E+03</pdfrwt>
<pdfrwt beam="2">  1       -1 0.63597282E-02 0.27585945E+03</pdfrwt>
<totfact> 0.61366315E+03</totfact>
</mgrwt>
</event>
<event>
 9    1  0.7944303E-001  0.2779760E+03  0.7818608E-02  0.1096800E+00
          2   -1    0    0  501    0  0.00000000000E+00  0.00000000000E+00  0.27547068654E+03  0.27547068654E+03  0.00000000000E+00 0.  1.
         -2   -1    0    0    0  501 -0.00000000000E+00 -0.00000000000E+00 -0.70126015818E+02  0.70126015818E+02  0.00000000000E+00 0.  1.
         35    2    1    2    0    0  0.35527136788E-14  0.71054273576E-14  0.20534467073E+03  0.34559670236E+03  0.27797598257E+03 0.  0.
         25    2    3    3    0    0  0.49639731263E+01  0.51103342194E+02  0.14023309821E+03  0.19476637445E+03  0.12502970115E+03 0.  0.
         25    2    3    3    0    0 -0.49639731263E+01 -0.51103342194E+02  0.65111572515E+02  0.15083032791E+03  0.12599237410E+03 0.  0.
          5    1    4    4  502    0  0.71147682565E+01  0.89635751577E+02  0.12251071743E+03  0.15203997426E+03  0.47000000000E+01 0.  1.
         -5    1    4    4    0  502 -0.21507951302E+01 -0.38532409383E+02  0.17722380783E+02  0.42726400190E+02  0.47000000000E+01 0.  1.
          5    1    5    5  503    0 -0.60565160849E+02 -0.86183400334E+01  0.11195830061E+02  0.62368670856E+02  0.47000000000E+01 0.  1.
         -5    1    5    5    0  503  0.55601187723E+02 -0.42485002161E+02  0.53915742455E+02  0.88461657057E+02  0.47000000000E+01 0.  1.
<mgrwt>
<rscale>  0 0.27797598E+03</rscale>
<asrwt>0</asrwt>
<pdfrwt beam="1">  1        2 0.42380105E-01 0.27797598E+03</pdfrwt>
<pdfrwt beam="2">  1       -2 0.10788618E-01 0.27797598E+03</pdfrwt>
<totfact> 0.69986819E+03</totfact>
</mgrwt>
</event>
<event>
 9    1  0.7944303E-001  0.2723045E+03  0.7818608E-02  0.1099968E+00
         -1   -1    0    0    0  501 -0.00000000000E+00  0.00000000000E+00  0.27537736421E+03  0.27537736421E+03  0.00000000000E+00 0.  1.
          1   -1    0    0  501    0  0.00000000000E+00 -0.00000000000E+00 -0.67316499580E+02  0.67316499580E+02  0.00000000000E+00 0.  1.
         35    2    1    2    0    0  0.35527136788E-14  0.71054273576E-14  0.20806086463E+03  0.34269386379E+03  0.27230453703E+03 0.  0.
         25    2    3    3    0    0 -0.28943794477E+02  0.26990689983E+02  0.53032456670E+02  0.14022133289E+03  0.12362580699E+03 0.  0.
         25    2    3    3    0    0  0.28943794477E+02 -0.26990689983E+02  0.15502840796E+03  0.20247253089E+03  0.12407690320E+03 0.  0.
          5    1    4    4  502    0 -0.58972126650E+01  0.57495553055E+02  0.75829841573E+02  0.95460832865E+02  0.47000000000E+01 0.  1.
         -5    1    4    4    0  502 -0.23046581812E+02 -0.30504863072E+02 -0.22797384903E+02  0.44760500027E+02  0.47000000000E+01 0.  1.
          5    1    5    5  503    0 -0.18043869090E+02 -0.66001171516E+02  0.89777736805E+02  0.11297728922E+03  0.47000000000E+01 0. -1.
         -5    1    5    5    0  503  0.46987663567E+02  0.39010481533E+02  0.65250671152E+02  0.89495241676E+02  0.47000000000E+01 0. -1.
<mgrwt>
<rscale>  0 0.27230454E+03</rscale>
<asrwt>0</asrwt>
<pdfrwt beam="1">  1        1 0.10356385E-01 0.27230454E+03</pdfrwt>
<pdfrwt beam="2">  1       -1 0.42365748E-01 0.27230454E+03</pdfrwt>
<totfact> 0.33902762E+03</totfact>
</mgrwt>
</event>
<event>
 9    1  0.7944303E-001  0.2798843E+03  0.7818608E-02  0.1095752E+00
          1   -1    0    0  501    0  0.00000000000E+00  0.00000000000E+00  0.51715877023E+03  0.51715877023E+03  0.00000000000E+00 0.  1.
         -1   -1    0    0    0  501 -0.00000000000E+00 -0.00000000000E+00 -0.37868074721E+02  0.37868074721E+02  0.00000000000E+00 0.  1.
         35    2    1    2    0    0 -0.21316282073E-13  0.00000000000E+00  0.47929069551E+03  0.55502684495E+03  0.27988431149E+03 0.  0.
         25    2    3    3    0    0  0.60032647656E+02  0.87169360059E+00  0.19192527739E+03  0.23601659276E+03  0.12354691951E+03 0.  0.
         25    2    3    3    0    0 -0.60032647656E+02 -0.87169360059E+00  0.28736541812E+03  0.31901025220E+03  0.12483580753E+03 0.  0.
          5    1    4    4  502    0 -0.18822320726E+02  0.22913023258E+02  0.12953883880E+03  0.13297250524E+03  0.47000000000E+01 0. -1.
         -5    1    4    4    0  502  0.78854968382E+02 -0.22041329657E+02  0.62386438591E+02  0.10304408751E+03  0.47000000000E+01 0. -1.
          5    1    5    5  503    0 -0.23213839034E+02  0.48829806068E+02  0.22343415175E+03  0.22993073403E+03  0.47000000000E+01 0. -1.
         -5    1    5    5    0  503 -0.36818808621E+02 -0.49701499668E+02  0.63931266370E+02  0.89079518169E+02  0.47000000000E+01 0. -1.
<mgrwt>
<rscale>  0 0.27988431E+03</rscale>
<asrwt>0</asrwt>
<pdfrwt beam="1">  1        1 0.79562883E-01 0.27988431E+03</pdfrwt>
<pdfrwt beam="2">  1       -1 0.58258580E-02 0.27988431E+03</pdfrwt>
<totfact> 0.60059067E+03</totfact>
</mgrwt>
</event>
<event>
 9    1  0.7944303E-001  0.2750352E+03  0.7818608E-02  0.1098432E+00
          2   -1    0    0  501    0  0.00000000000E+00  0.00000000000E+00  0.30611848121E+04  0.30611848121E+04  0.00000000000E+00 0.  1.
         -2   -1    0    0    0  501 -0.00000000000E+00 -0.00000000000E+00 -0.61777027108E+01  0.61777027108E+01  0.00000000000E+00 0.  1.
         35    2    1    2    0    0  0.35527136788E-14  0.00000000000E+00  0.30550071094E+04  0.30673625148E+04  0.27503519565E+03 0.  0.
         25    2    3    3    0    0  0.52774187750E+01  0.42936854310E+01  0.21565619653E+04  0.21602077898E+04  0.12526730676E+03 0.  0.
         25    2    3    3    0    0 -0.52774187750E+01 -0.42936854310E+01  0.89844514413E+03  0.90715472503E+03  0.12521873362E+03 0.  0.
          5    1    4    4  502    0 -0.14411452520E+02 -0.26959630216E+02  0.14322202695E+03  0.14652354974E+03  0.47000000000E+01 0.  1.
         -5    1    4    4    0  502  0.19688871295E+02  0.31253315647E+02  0.20133399383E+04  0.20136842400E+04  0.47000000000E+01 0.  1.
          5    1    5    5  503    0 -0.53123151509E+02  0.11794794686E+02  0.21491127749E+03  0.22174339585E+03  0.47000000000E+01 0.  1.
         -5    1    5    5    0  503  0.47845732734E+02 -0.16088480117E+02  0.68353386664E+03  0.68541132918E+03  0.47000000000E+01 0.  1.
<mgrwt>
<rscale>  0 0.27503520E+03</rscale>
<asrwt>0</asrwt>
<pdfrwt beam="1">  1        2 0.47095030E+00 0.27503520E+03</pdfrwt>
<pdfrwt beam="2">  1       -2 0.95041825E-03 0.27503520E+03</pdfrwt>
<totfact> 0.43976394E+03</totfact>
</mgrwt>
</event>
<event>
 9    1  0.7944303E-001  0.2759044E+03  0.7818608E-02  0.1097947E+00
         -3   -1    0    0    0  501 -0.00000000000E+00  0.00000000000E+00  0.60450523716E+02  0.60450523716E+02  0.00000000000E+00 0.  1.
          3   -1    0    0  501    0  0.00000000000E+00 -0.00000000000E+00 -0.31481634172E+03  0.31481634172E+03  0.00000000000E+00 0.  1.
         35    2    1    2    0    0  0.71054273576E-14  0.14210854715E-13 -0.25436581801E+03  0.37526686544E+03  0.27590442353E+03 0.  0.
         25    2    3    3    0    0 -0.18363135187E+02 -0.50412909598E+02 -0.16313474640E+03  0.21171531458E+03  0.12382149553E+03 0.  0.
         25    2    3    3    0    0  0.18363135187E+02  0.50412909598E+02 -0.91231071609E+02  0.16355155086E+03  0.12468895370E+03 0.  0.
          5    1    4    4  502    0  0.13391437326E+02 -0.84140938576E+02 -0.12592100660E+03  0.15210923063E+03  0.47000000000E+01 0.  1.
         -5    1    4    4    0  502 -0.31754572513E+02  0.33728028978E+02 -0.37213739792E+02  0.59606083947E+02  0.47000000000E+01 0.  1.
          5    1    5    5  503    0  0.44521204039E+02 -0.22217298412E+02 -0.64768673083E+02  0.81809638617E+02  0.47000000000E+01 0. -1.
         -5    1    5    5    0  503 -0.26158068852E+02  0.72630208010E+02 -0.26462398527E+02  0.81741912245E+02  0.47000000000E+01 0. -1.
<mgrwt>
<rscale>  0 0.27590442E+03</rscale>
<asrwt>0</asrwt>
<pdfrwt beam="1">  1        3 0.48433282E-01 0.27590442E+03</pdfrwt>
<pdfrwt beam="2">  1       -3 0.93000807E-02 0.27590442E+03</pdfrwt>
<totfact> 0.90190213E+02</totfact>
</mgrwt>
</event>
<event>
 9    1  0.7944303E-001  0.2764709E+03  0.7818608E-02  0.1097632E+00
          2   -1    0    0  501    0  0.00000000000E+00  0.00000000000E+00  0.65928724493E+02  0.65928724493E+02  0.00000000000E+00 0.  1.
         -2   -1    0    0    0  501 -0.00000000000E+00 -0.00000000000E+00 -0.28984394692E+03  0.28984394692E+03  0.00000000000E+00 0.  1.
         35    2    1    2    0    0 -0.35527136788E-14  0.14210854715E-13 -0.22391522243E+03  0.35577267142E+03  0.27647091509E+03 0.  0.
         25    2    3    3    0    0 -0.45327899778E+01  0.56326013575E+02 -0.88090324913E+02  0.16242123261E+03  0.12420783175E+03 0.  0.
         25    2    3    3    0    0  0.45327899778E+01 -0.56326013575E+02 -0.13582489752E+03  0.19335143881E+03  0.12547194951E+03 0.  0.
          5    1    4    4  502    0  0.31012958306E+02 -0.17756550391E+02 -0.69129762350E+02  0.77962251810E+02  0.47000000000E+01 0. -1.
         -5    1    4    4    0  502 -0.35545748284E+02  0.74082563966E+02 -0.18960562562E+02  0.84458980799E+02  0.47000000000E+01 0. -1.
          5    1    5    5  503    0 -0.55053419132E+02 -0.95320661724E+01 -0.85605697334E+02  0.10233359497E+03  0.47000000000E+01 0.  1.
         -5    1    5    5    0  503  0.59586209110E+02 -0.46793947402E+02 -0.50219200183E+02  0.91017843836E+02  0.47000000000E+01 0.  1.
<mgrwt>
<rscale>  0 0.27647092E+03</rscale>
<asrwt>0</asrwt>
<pdfrwt beam="1">  1        2 0.10142881E-01 0.27647092E+03</pdfrwt>
<pdfrwt beam="2">  1       -2 0.44591377E-01 0.27647092E+03</pdfrwt>
<totfact> 0.30244507E+03</totfact>
</mgrwt>
</event>
<event>
 9    1  0.7944303E-001  0.2667950E+03  0.7818608E-02  0.1103128E+00
         -2   -1    0    0    0  501 -0.00000000000E+00  0.00000000000E+00  0.10754397143E+02  0.10754397143E+02  0.00000000000E+00 0.  1.
          2   -1    0    0  501    0  0.00000000000E+00 -0.00000000000E+00 -0.16546626018E+04  0.16546626018E+04  0.00000000000E+00 0.  1.
         35    2    1    2    0    0  0.00000000000E+00  0.71054273576E-14 -0.16439082046E+04  0.16654169989E+04  0.26679504311E+03 0.  0.
         25    2    3    3    0    0  0.13595511501E+02  0.44398708778E+02 -0.95546284964E+03  0.96416121698E+03  0.12058819189E+03 0.  0.
         25    2    3    3    0    0 -0.13595511501E+02 -0.44398708778E+02 -0.68844535500E+03  0.70125578194E+03  0.12508629665E+03 0.  0.
          5    1    4    4  502    0 -0.12594422688E+02  0.20677193626E+02 -0.88358797200E+03  0.88393210151E+03  0.47000000000E+01 0.  1.
         -5    1    4    4    0  502  0.26189934189E+02  0.23721515152E+02 -0.71874877634E+02  0.80229115468E+02  0.47000000000E+01 0.  1.
          5    1    5    5  503    0 -0.64843696743E+02 -0.81772923117E+01 -0.44543863044E+03  0.45023242509E+03  0.47000000000E+01 0.  1.
         -5    1    5    5    0  503  0.51248185242E+02 -0.36221416467E+02 -0.24300672457E+03  0.25102335685E+03  0.47000000000E+01 0.  1.
<mgrwt>
<rscale>  0 0.26679504E+03</rscale>
<asrwt>0</asrwt>
<pdfrwt beam="1">  1        2 0.25456340E+00 0.26679504E+03</pdfrwt>
<pdfrwt beam="2">  1       -2 0.16545232E-02 0.26679504E+03</pdfrwt>
<totfact> 0.11526141E+04</totfact>
</mgrwt>
</event>
<event>
 9    1  0.7944303E-001  0.2878463E+03  0.7818608E-02  0.1091479E+00
         -1   -1    0    0    0  501 -0.00000000000E+00  0.00000000000E+00  0.62797783065E+01  0.62797783065E+01  0.00000000000E+00 0.  1.
          1   -1    0    0  501    0  0.00000000000E+00 -0.00000000000E+00 -0.32985029345E+04  0.32985029345E+04  0.00000000000E+00 0.  1.
         35    2    1    2    0    0 -0.71054273576E-14  0.14210854715E-13 -0.32922231562E+04  0.33047827128E+04  0.28784625877E+03 0.  0.
         25    2    3    3    0    0 -0.26522779586E+02 -0.64402103752E+02 -0.18508306293E+04  0.18563370963E+04  0.12474898048E+03 0.  0.
         25    2    3    3    0    0  0.26522779586E+02  0.64402103752E+02 -0.14413925269E+04  0.14484456165E+04  0.12462422894E+03 0.  0.
          5    1    4    4  502    0 -0.52640312196E+02 -0.89546400892E+02 -0.12074991039E+04  0.12119677126E+04  0.47000000000E+01 0.  1.
         -5    1    4    4    0  502  0.26117532610E+02  0.25144297139E+02 -0.64333152538E+03  0.64436938376E+03  0.47000000000E+01 0.  1.
          5    1    5    5  503    0 -0.93489609900E+01  0.27294983775E+02 -0.67278604317E+02  0.73354753150E+02  0.47000000000E+01 0.  1.
         -5    1    5    5    0  503  0.35871740576E+02  0.37107119977E+02 -0.13741139226E+04  0.13750908633E+04  0.47000000000E+01 0.  1.
<mgrwt>
<rscale>  0 0.28784626E+03</rscale>
<asrwt>0</asrwt>
<pdfrwt beam="1">  1        1 0.50746102E+00 0.28784626E+03</pdfrwt>
<pdfrwt beam="2">  1       -1 0.96612158E-03 0.28784626E+03</pdfrwt>
<totfact> 0.87398522E+02</totfact>
</mgrwt>
</event>
<event>
 9    1  0.7944303E-001  0.2746384E+03  0.7818608E-02  0.1098654E+00
          2   -1    0    0  501    0  0.00000000000E+00  0.00000000000E+00  0.11361244205E+03  0.11361244205E+03  0.00000000000E+00 0. -1.
         -2   -1    0    0    0  501 -0.00000000000E+00 -0.00000000000E+00 -0.16597265468E+03  0.16597265468E+03  0.00000000000E+00 0. -1.
         35    2    1    2    0    0 -0.71054273576E-14  0.00000000000E+00 -0.52360212633E+02  0.27958509672E+03  0.27463837030E+03 0.  0.
         25    2    3    3    0    0  0.36916647032E+02  0.33596960077E+01  0.15825295536E+02  0.13217673445E+03  0.12588138372E+03 0.  0.
         25    2    3    3    0    0 -0.36916647032E+02 -0.33596960077E+01 -0.68185508169E+02  0.14740836227E+03  0.12532292431E+03 0.  0.
          5    1    4    4  502    0 -0.20941151400E+02 -0.35303625363E+02 -0.27904096647E+02  0.49855856180E+02  0.47000000000E+01 0.  1.
         -5    1    4    4    0  502  0.57857798431E+02  0.38663321371E+02  0.43729392183E+02  0.82320878272E+02  0.47000000000E+01 0.  1.
          5    1    5    5  503    0 -0.29973959802E+02  0.58486186214E+02 -0.20953180930E+02  0.69138976237E+02  0.47000000000E+01 0.  1.
         -5    1    5    5    0  503 -0.69426872300E+01 -0.61845882222E+02 -0.47232327239E+02  0.78269386035E+02  0.47000000000E+01 0.  1.
<mgrwt>
<rscale>  0 0.27463837E+03</rscale>
<asrwt>0</asrwt>
<pdfrwt beam="1">  1        2 0.17478837E-01 0.27463837E+03</pdfrwt>
<pdfrwt beam="2">  1       -2 0.25534254E-01 0.27463837E+03</pdfrwt>
<totfact> 0.44209702E+03</totfact>
</mgrwt>
</event>
<event>
 9    1  0.7944303E-001  0.2777641E+03  0.7818608E-02  0.1096916E+00
          2   -1    0    0  501    0  0.00000000000E+00  0.00000000000E+00  0.14126361027E+04  0.14126361027E+04  0.00000000000E+00 0. -1.
         -2   -1    0    0    0  501 -0.00000000000E+00 -0.00000000000E+00 -0.13654060762E+02  0.13654060762E+02  0.00000000000E+00 0. -1.
         35    2    1    2    0    0  0.71054273576E-14 -0.88817841970E-15  0.13989820420E+04  0.14262901635E+04  0.27776406666E+03 0.  0.
         25    2    3    3    0    0 -0.58293012618E+02  0.53072577904E+01  0.75911559266E+03  0.77154304531E+03  0.12488372771E+03 0.  0.
         25    2    3    3    0    0  0.58293012618E+02 -0.53072577904E+01  0.63986644932E+03  0.65474711819E+03  0.12585099726E+03 0.  0.
          5    1    4    4  502    0 -0.82497260357E+02  0.26191257236E+02  0.32940565427E+03  0.34061995683E+03  0.47000000000E+01 0.  1.
         -5    1    4    4    0  502  0.24204247738E+02 -0.20883999446E+02  0.42970993838E+03  0.43092308848E+03  0.47000000000E+01 0.  1.
          5    1    5    5  503    0 -0.18547059130E+02  0.54343322503E+01  0.14614025369E+02  0.24681675528E+02  0.47000000000E+01 0.  1.
         -5    1    5    5    0  503  0.76840071748E+02 -0.10741590041E+02  0.62525242395E+03  0.63006544267E+03  0.47000000000E+01 0.  1.
<mgrwt>
<rscale>  0 0.27776407E+03</rscale>
<asrwt>0</asrwt>
<pdfrwt beam="1">  1        2 0.21732852E+00 0.27776407E+03</pdfrwt>
<pdfrwt beam="2">  1       -2 0.21006258E-02 0.27776407E+03</pdfrwt>
<totfact> 0.10937960E+04</totfact>
</mgrwt>
</event>
<event>
 9    1  0.7944303E-001  0.2776539E+03  0.7818608E-02  0.1096977E+00
          2   -1    0    0  501    0  0.00000000000E+00  0.00000000000E+00  0.88023425647E+02  0.88023425647E+02  0.00000000000E+00 0. -1.
         -2   -1    0    0    0  501 -0.00000000000E+00 -0.00000000000E+00 -0.21895217754E+03  0.21895217754E+03  0.00000000000E+00 0. -1.
         35    2    1    2    0    0  0.71054273576E-14  0.35527136788E-14 -0.13092875189E+03  0.30697560318E+03  0.27765389044E+03 0.  0.
         25    2    3    3    0    0 -0.54106382682E+02 -0.18404567092E+02 -0.83355188667E+02  0.16134577593E+03  0.12577019995E+03 0.  0.
         25    2    3    3    0    0  0.54106382682E+02  0.18404567092E+02 -0.47573563221E+02  0.14562982726E+03  0.12521411235E+03 0.  0.
          5    1    4    4  502    0 -0.37656705753E+02  0.40218265864E+02  0.32316135889E+01  0.55390159087E+02  0.47000000000E+01 0.  1.
         -5    1    4    4    0  502 -0.16449676929E+02 -0.58622832955E+02 -0.86586802256E+02  0.10595561684E+03  0.47000000000E+01 0.  1.
          5    1    5    5  503    0 -0.16146135790E+02 -0.29873802603E+02 -0.49529041287E+02  0.60235850735E+02  0.47000000000E+01 0. -1.
         -5    1    5    5    0  503  0.70252518472E+02  0.48278369694E+02  0.19554780661E+01  0.85393976523E+02  0.47000000000E+01 0. -1.
<mgrwt>
<rscale>  0 0.27765389E+03</rscale>
<asrwt>0</asrwt>
<pdfrwt beam="1">  1        2 0.13542066E-01 0.27765389E+03</pdfrwt>
<pdfrwt beam="2">  1       -2 0.33684950E-01 0.27765389E+03</pdfrwt>
<totfact> 0.36215974E+03</totfact>
</mgrwt>
</event>
<event>
 9    1  0.7944303E-001  0.2759702E+03  0.7818608E-02  0.1097911E+00
         -2   -1    0    0    0  501 -0.00000000000E+00  0.00000000000E+00  0.47282027815E+01  0.47282027815E+01  0.00000000000E+00 0. -1.
          2   -1    0    0  501    0  0.00000000000E+00 -0.00000000000E+00 -0.40268762586E+04  0.40268762586E+04  0.00000000000E+00 0. -1.
         35    2    1    2    0    0  0.00000000000E+00  0.17763568394E-14 -0.40221480558E+04  0.40316044613E+04  0.27597019786E+03 0.  0.
         25    2    3    3    0    0 -0.12325567562E+02 -0.13880842419E+02 -0.11368186349E+04  0.11434941249E+04  0.12197379868E+03 0.  0.
         25    2    3    3    0    0  0.12325567562E+02  0.13880842419E+02 -0.28853294209E+04  0.28881103365E+04  0.12534293447E+03 0.  0.
          5    1    4    4  502    0 -0.66368153797E+02  0.28411865225E+01 -0.60399632299E+03  0.60765652499E+03  0.47000000000E+01 0.  1.
         -5    1    4    4    0  502  0.54042586235E+02 -0.16722028942E+02 -0.53282231191E+03  0.53583759988E+03  0.47000000000E+01 0.  1.
          5    1    5    5  503    0  0.64215549363E+02  0.26423151765E+02 -0.12845003873E+04  0.12863845283E+04  0.47000000000E+01 0.  1.
         -5    1    5    5    0  503 -0.51889981802E+02 -0.12542309346E+02 -0.16008290336E+04  0.16017258082E+04  0.47000000000E+01 0.  1.
<mgrwt>
<rscale>  0 0.27597020E+03</rscale>
<asrwt>0</asrwt>
<pdfrwt beam="1">  1        2 0.61951892E+00 0.27597020E+03</pdfrwt>
<pdfrwt beam="2">  1       -2 0.72741640E-03 0.27597020E+03</pdfrwt>
<totfact> 0.14420077E+03</totfact>
</mgrwt>
</event>
<event>
 9    1  0.7944303E-001  0.2966949E+03  0.7818608E-02  0.1086905E+00
          2   -1    0    0  501    0  0.00000000000E+00  0.00000000000E+00  0.16309362796E+04  0.16309362796E+04  0.00000000000E+00 0.  1.
         -2   -1    0    0    0  501 -0.00000000000E+00 -0.00000000000E+00 -0.13493454174E+02  0.13493454174E+02  0.00000000000E+00 0.  1.
         35    2    1    2    0    0 -0.14210854715E-13  0.00000000000E+00  0.16174428254E+04  0.16444297337E+04  0.29669488670E+03 0.  0.
         25    2    3    3    0    0  0.44122494194E+02 -0.22411884727E+02  0.11547669888E+04  0.11625171105E+04  0.12453973938E+03 0.  0.
         25    2    3    3    0    0 -0.44122494194E+02  0.22411884727E+02  0.46267583662E+03  0.48191262328E+03  0.12538644110E+03 0.  0.
          5    1    4    4  502    0  0.27026809981E+02  0.11952769861E+02  0.10563826471E+04  0.10568063703E+04  0.47000000000E+01 0. -1.
         -5    1    4    4    0  502  0.17095684214E+02 -0.34364654588E+02  0.98384341658E+02  0.10571074017E+03  0.47000000000E+01 0. -1.
          5    1    5    5  503    0  0.33592806488E+02 -0.24751069823E+02  0.18465726180E+03  0.18937129254E+03  0.47000000000E+01 0. -1.
         -5    1    5    5    0  503 -0.77715300682E+02  0.47162954551E+02  0.27801857482E+03  0.29254133074E+03  0.47000000000E+01 0. -1.
<mgrwt>
<rscale>  0 0.29669489E+03</rscale>
<asrwt>0</asrwt>
<pdfrwt beam="1">  1        2 0.25091312E+00 0.29669489E+03</pdfrwt>
<pdfrwt beam="2">  1       -2 0.20759173E-02 0.29669489E+03</pdfrwt>
<totfact> 0.85140615E+03</totfact>
</mgrwt>
</event>
<event>
 8    1  0.7944303E-001  0.3470863E+03  0.7818608E-02  0.1063817E+00
          1   -1    0    0  501    0  0.00000000000E+00  0.00000000000E+00  0.27409046031E+03  0.27409046031E+03  0.00000000000E+00 0. -1.
         -1   -1    0    0    0  501 -0.00000000000E+00 -0.00000000000E+00 -0.10988058907E+03  0.10988058907E+03  0.00000000000E+00 0. -1.
         25    2    1    2    0    0 -0.29085017241E+02  0.11517778323E+03  0.60624644649E+02  0.18313222112E+03  0.12549981233E+03 0.  0.
         25    2    1    2    0    0  0.29085017241E+02 -0.11517778323E+03  0.10358522659E+03  0.20083882826E+03  0.12447680825E+03 0.  0.
          5    1    3    3  502    0  0.32152091677E+02  0.78345981723E+02 -0.63835499171E+01  0.85056978320E+02  0.47000000000E+01 0.  1.
         -5    1    3    3    0  502 -0.61237108918E+02  0.36831801511E+02  0.67008194566E+02  0.98075242799E+02  0.47000000000E+01 0.  1.
          5    1    4    4  503    0  0.40222339620E+01 -0.13639833834E+03  0.69252368470E+02  0.15309691574E+03  0.47000000000E+01 0.  1.
         -5    1    4    4    0  503  0.25062783279E+02  0.21220555110E+02  0.34332858122E+02  0.47741912527E+02  0.47000000000E+01 0.  1.
<mgrwt>
<rscale>  0 0.34708628E+03</rscale>
<asrwt>0</asrwt>
<pdfrwt beam="1">  1        1 0.42167763E-01 0.34708628E+03</pdfrwt>
<pdfrwt beam="2">  1       -1 0.16904706E-01 0.34708628E+03</pdfrwt>
<totfact> 0.26132181E+03</totfact>
</mgrwt>
</event>
<event>
 9    1  0.7944303E-001  0.2757610E+03  0.7818608E-02  0.1098027E+00
          1   -1    0    0  501    0  0.00000000000E+00  0.00000000000E+00  0.11681889168E+03  0.11681889168E+03  0.00000000000E+00 0. -1.
         -1   -1    0    0    0  501 -0.00000000000E+00 -0.00000000000E+00 -0.16273942414E+03  0.16273942414E+03  0.00000000000E+00 0. -1.
         35    2    1    2    0    0 -0.14210854715E-13  0.00000000000E+00 -0.45920532453E+02  0.27955831582E+03  0.27576104990E+03 0.  0.
         25    2    3    3    0    0  0.50740552198E+02 -0.28717212864E+02 -0.15711460857E+02  0.13855733499E+03  0.12470767067E+03 0.  0.
         25    2    3    3    0    0 -0.50740552198E+02  0.28717212864E+02 -0.30209071596E+02  0.14100098084E+03  0.12477742840E+03 0.  0.
          5    1    4    4  502    0 -0.32034743484E+01  0.26296084874E+02  0.36516352556E+02  0.45357252250E+02  0.47000000000E+01 0.  1.
         -5    1    4    4    0  502  0.53944026546E+02 -0.55013297738E+02 -0.52227813413E+02  0.93200082736E+02  0.47000000000E+01 0.  1.
          5    1    5    5  503    0  0.32095197160E+02  0.33448148290E+02 -0.34205384679E+02  0.57801199346E+02  0.47000000000E+01 0.  1.
         -5    1    5    5    0  503 -0.82835749358E+02 -0.47309354263E+01  0.39963130834E+01  0.83199781490E+02  0.47000000000E+01 0.  1.
<mgrwt>
<rscale>  0 0.27576105E+03</rscale>
<asrwt>0</asrwt>
<pdfrwt beam="1">  1        1 0.17972137E-01 0.27576105E+03</pdfrwt>
<pdfrwt beam="2">  1       -1 0.25036835E-01 0.27576105E+03</pdfrwt>
<totfact> 0.40549920E+03</totfact>
</mgrwt>
</event>
<event>
 9    1  0.7944303E-001  0.2785507E+03  0.7818608E-02  0.1096483E+00
         -1   -1    0    0    0  501 -0.00000000000E+00  0.00000000000E+00  0.90321105791E+01  0.90321105791E+01  0.00000000000E+00 0.  1.
          1   -1    0    0  501    0  0.00000000000E+00 -0.00000000000E+00 -0.21476295001E+04  0.21476295001E+04  0.00000000000E+00 0.  1.
         35    2    1    2    0    0  0.00000000000E+00  0.00000000000E+00 -0.21385973895E+04  0.21566616107E+04  0.27855072879E+03 0.  0.
         25    2    3    3    0    0  0.23154858855E+02  0.54852725186E+02 -0.11552790372E+04  0.11636449357E+04  0.12591629678E+03 0.  0.
         25    2    3    3    0    0 -0.23154858855E+02 -0.54852725186E+02 -0.98331835234E+03  0.99301667493E+03  0.12498866225E+03 0.  0.
          5    1    4    4  502    0  0.61942450855E+02 -0.97236696011E+01 -0.45888090190E+03  0.46316864002E+03  0.47000000000E+01 0. -1.
         -5    1    4    4    0  502 -0.38787592000E+02  0.64576394787E+02 -0.69639813527E+03  0.70047629572E+03  0.47000000000E+01 0. -1.
          5    1    5    5  503    0 -0.33809468891E+02 -0.29949925720E+02 -0.94371453768E+03  0.94480648646E+03  0.47000000000E+01 0. -1.
         -5    1    5    5    0  503  0.10654610036E+02 -0.24902799466E+02 -0.39603814660E+02  0.48210188465E+02  0.47000000000E+01 0. -1.
<mgrwt>
<rscale>  0 0.27855073E+03</rscale>
<asrwt>0</asrwt>
<pdfrwt beam="1">  1        1 0.33040475E+00 0.27855073E+03</pdfrwt>
<pdfrwt beam="2">  1       -1 0.13895546E-02 0.27855073E+03</pdfrwt>
<totfact> 0.31548407E+03</totfact>
</mgrwt>
</event>
<event>
 9    1  0.7944303E-001  0.2720906E+03  0.7818608E-02  0.1100089E+00
         -2   -1    0    0    0  501 -0.00000000000E+00  0.00000000000E+00  0.50606181288E+03  0.50606181288E+03  0.00000000000E+00 0.  1.
          2   -1    0    0  501    0  0.00000000000E+00 -0.00000000000E+00 -0.36573247434E+02  0.36573247434E+02  0.00000000000E+00 0.  1.
         35    2    1    2    0    0  0.00000000000E+00  0.00000000000E+00  0.46948856544E+03  0.54263506031E+03  0.27209060182E+03 0.  0.
         25    2    3    3    0    0 -0.42752617433E+02  0.27623702715E+02  0.28783414267E+03  0.31759783291E+03  0.12421366484E+03 0.  0.
         25    2    3    3    0    0  0.42752617433E+02 -0.27623702715E+02  0.18165442278E+03  0.22503722741E+03  0.12268891211E+03 0.  0.
          5    1    4    4  502    0 -0.68241111790E+02 -0.16491187511E+02  0.95794749686E+02  0.11885929779E+03  0.47000000000E+01 0.  1.
         -5    1    4    4    0  502  0.25488494357E+02  0.44114890226E+02  0.19203939298E+03  0.19873853512E+03  0.47000000000E+01 0. -1.
          5    1    5    5  503    0  0.55950742011E+02 -0.59755789416E+02  0.16887151080E+03  0.18772564305E+03  0.47000000000E+01 0. -1.
         -5    1    5    5    0  503 -0.13198124578E+02  0.32132086702E+02  0.12782911980E+02  0.37311584352E+02  0.47000000000E+01 0. -1.
<mgrwt>
<rscale>  0 0.27209060E+03</rscale>
<asrwt>0</asrwt>
<pdfrwt beam="1">  1        2 0.56266538E-02 0.27209060E+03</pdfrwt>
<pdfrwt beam="2">  1       -2 0.77855659E-01 0.27209060E+03</pdfrwt>
<totfact> 0.20287049E+03</totfact>
</mgrwt>
</event>
<event>
 9    1  0.7944303E-001  0.2818453E+03  0.7818608E-02  0.1094685E+00
         -1   -1    0    0    0  501 -0.00000000000E+00  0.00000000000E+00  0.17646051876E+02  0.17646051876E+02  0.00000000000E+00 0. -1.
          1   -1    0    0  501    0  0.00000000000E+00 -0.00000000000E+00 -0.11254182922E+04  0.11254182922E+04  0.00000000000E+00 0. -1.
         35    2    1    2    0    0  0.00000000000E+00  0.17763568394E-14 -0.11077722403E+04  0.11430643441E+04  0.28184527363E+03 0.  0.
         25    2    3    3    0    0 -0.43918277916E+02 -0.12089440606E+02 -0.37077765566E+03  0.39413443114E+03  0.12566188827E+03 0.  0.
         25    2    3    3    0    0  0.43918277916E+02  0.12089440606E+02 -0.73699458466E+03  0.74892991293E+03  0.12514002939E+03 0.  0.
          5    1    4    4  502    0 -0.24141467886E+02  0.32850076389E+02 -0.32255422841E+03  0.32515420688E+03  0.47000000000E+01 0. -1.
         -5    1    4    4    0  502 -0.19776810030E+02 -0.44939516995E+02 -0.48223427258E+02  0.68980224262E+02  0.47000000000E+01 0. -1.
          5    1    5    5  503    0 -0.86773438243E+01 -0.12619318475E+02 -0.85548964639E+01  0.18160940177E+02  0.47000000000E+01 0. -1.
         -5    1    5    5    0  503  0.52595621740E+02  0.24708759081E+02 -0.72843968819E+03  0.73076897275E+03  0.47000000000E+01 0. -1.
<mgrwt>
<rscale>  0 0.28184527E+03</rscale>
<asrwt>0</asrwt>
<pdfrwt beam="1">  1        1 0.17314130E+00 0.28184527E+03</pdfrwt>
<pdfrwt beam="2">  1       -1 0.27147768E-02 0.28184527E+03</pdfrwt>
<totfact> 0.56582013E+03</totfact>
</mgrwt>
</event>
<event>
 9    1  0.7944303E-001  0.2707169E+03  0.7818608E-02  0.1100870E+00
          2   -1    0    0  501    0  0.00000000000E+00  0.00000000000E+00  0.26754438012E+04  0.26754438012E+04  0.00000000000E+00 0. -1.
         -2   -1    0    0    0  501 -0.00000000000E+00 -0.00000000000E+00 -0.68481736950E+01  0.68481736950E+01  0.00000000000E+00 0. -1.
         35    2    1    2    0    0  0.71054273576E-14  0.00000000000E+00  0.26685956275E+04  0.26822919749E+04  0.27071685475E+03 0.  0.
         25    2    3    3    0    0 -0.42668010551E+02  0.25806003326E+02  0.14690943039E+04  0.14752371368E+04  0.12490006894E+03 0.  0.
         25    2    3    3    0    0  0.42668010551E+02 -0.25806003326E+02  0.11995013237E+04  0.12070548381E+04  0.12526550929E+03 0.  0.
          5    1    4    4  502    0  0.26552029095E+02 -0.33274990019E+02  0.53287820063E+03  0.53459657866E+03  0.47000000000E+01 0.  1.
         -5    1    4    4    0  502 -0.69220039646E+02  0.59080993344E+02  0.93621610325E+03  0.94064055816E+03  0.47000000000E+01 0.  1.
          5    1    5    5  503    0  0.43346101065E+01 -0.72779253325E+02  0.72524754860E+03  0.72891817464E+03  0.47000000000E+01 0.  1.
         -5    1    5    5    0  503  0.38333400444E+02  0.46973250000E+02  0.47425377505E+03  0.47813666347E+03  0.47000000000E+01 0.  1.
<mgrwt>
<rscale>  0 0.27071685E+03</rscale>
<asrwt>0</asrwt>
<pdfrwt beam="1">  1        2 0.41160590E+00 0.27071685E+03</pdfrwt>
<pdfrwt beam="2">  1       -2 0.10535673E-02 0.27071685E+03</pdfrwt>
<totfact> 0.63355445E+03</totfact>
</mgrwt>
</event>
<event>
 9    1  0.7944303E-001  0.2714989E+03  0.7818608E-02  0.1100425E+00
         -4   -1    0    0    0  501 -0.00000000000E+00  0.00000000000E+00  0.13376707876E+03  0.13376707876E+03  0.00000000000E+00 0. -1.
          4   -1    0    0  501    0  0.00000000000E+00 -0.00000000000E+00 -0.13776124750E+03  0.13776124750E+03  0.00000000000E+00 0. -1.
         35    2    1    2    0    0  0.71054273576E-14  0.17763568394E-14 -0.39941687313E+01  0.27152832626E+03  0.27149894766E+03 0.  0.
         25    2    3    3    0    0 -0.44788549148E+02  0.87259892934E+01 -0.29492624072E+02  0.13654434047E+03  0.12526925008E+03 0.  0.
         25    2    3    3    0    0  0.44788549148E+02 -0.87259892934E+01  0.25498455341E+02  0.13498398579E+03  0.12445219231E+03 0.  0.
          5    1    4    4  502    0  0.28910340150E+02  0.29177811554E+00 -0.51307995008E+02  0.59080396527E+02  0.47000000000E+01 0. -1.
         -5    1    4    4    0  502 -0.73698889298E+02  0.84342111778E+01  0.21815370936E+02  0.77463943942E+02  0.47000000000E+01 0. -1.
          5    1    5    5  503    0  0.21051480150E+02 -0.30597584282E+02 -0.44264464968E+02  0.57972492092E+02  0.47000000000E+01 0. -1.
         -5    1    5    5    0  503  0.23737068998E+02  0.21871594988E+02  0.69762920309E+02  0.77011493700E+02  0.47000000000E+01 0. -1.
<mgrwt>
<rscale>  0 0.27149895E+03</rscale>
<asrwt>0</asrwt>
<pdfrwt beam="1">  1        4 0.21194038E-01 0.27149895E+03</pdfrwt>
<pdfrwt beam="2">  1       -4 0.20579551E-01 0.27149895E+03</pdfrwt>
<totfact> 0.81440824E+02</totfact>
</mgrwt>
</event>
<event>
 9    1  0.7944303E-001  0.2763347E+03  0.7818608E-02  0.1097708E+00
         -2   -1    0    0    0  501 -0.00000000000E+00  0.00000000000E+00  0.44581798225E+03  0.44581798225E+03  0.00000000000E+00 0.  1.
          2   -1    0    0  501    0  0.00000000000E+00 -0.00000000000E+00 -0.42820645578E+02  0.42820645578E+02  0.00000000000E+00 0.  1.
         35    2    1    2    0    0  0.00000000000E+00  0.35527136788E-14  0.40299733667E+03  0.48863862783E+03  0.27633467976E+03 0.  0.
         25    2    3    3    0    0  0.33072587934E+02  0.31544533040E+02  0.13786912288E+03  0.19219674286E+03  0.12586834107E+03 0.  0.
         25    2    3    3    0    0 -0.33072587934E+02 -0.31544533040E+02  0.26512821379E+03  0.29644188497E+03  0.12448280113E+03 0.  0.
          5    1    4    4  502    0 -0.43882250785E+02 -0.41829649345E+01  0.24927414554E+02  0.50858776293E+02  0.47000000000E+01 0. -1.
         -5    1    4    4    0  502  0.76954838719E+02  0.35727497975E+02  0.11294170832E+03  0.14133796657E+03  0.47000000000E+01 0. -1.
          5    1    5    5  503    0 -0.39761763940E+02 -0.24032950875E+02  0.27657846554E+03  0.28049299136E+03  0.47000000000E+01 0.  1.
         -5    1    5    5    0  503  0.66891760059E+01 -0.75115821655E+01 -0.11450251749E+02  0.15948893610E+02  0.47000000000E+01 0.  1.
<mgrwt>
<rscale>  0 0.27633468E+03</rscale>
<asrwt>0</asrwt>
<pdfrwt beam="1">  1        2 0.65877919E-02 0.27633468E+03</pdfrwt>
<pdfrwt beam="2">  1       -2 0.68587379E-01 0.27633468E+03</pdfrwt>
<totfact> 0.21738244E+03</totfact>
</mgrwt>
</event>
<event>
 9    1  0.7944303E-001  0.2753127E+03  0.7818608E-02  0.1098277E+00
          1   -1    0    0  501    0  0.00000000000E+00  0.00000000000E+00  0.21184996274E+04  0.21184996274E+04  0.00000000000E+00 0.  1.
         -1   -1    0    0    0  501 -0.00000000000E+00 -0.00000000000E+00 -0.89446668094E+01  0.89446668094E+01  0.00000000000E+00 0.  1.
         35    2    1    2    0    0  0.00000000000E+00  0.35527136788E-14  0.21095549605E+04  0.21274442942E+04  0.27531271894E+03 0.  0.
         25    2    3    3    0    0 -0.51362220979E+02  0.12861494772E+02  0.12235619257E+04  0.12311584580E+04  0.12587242279E+03 0.  0.
         25    2    3    3    0    0  0.51362220979E+02 -0.12861494772E+02  0.88599303485E+03  0.89628583619E+03  0.12466413508E+03 0.  0.
          5    1    4    4  502    0  0.17619373846E+01  0.12601654320E+02  0.10378930710E+04  0.10379817065E+04  0.47000000000E+01 0.  1.
         -5    1    4    4    0  502 -0.53124158363E+02  0.25984045210E+00  0.18566885469E+03  0.19317675151E+03  0.47000000000E+01 0.  1.
          5    1    5    5  503    0 -0.14521398392E+02  0.89731935763E+01  0.17108043544E+02  0.24620405523E+02  0.47000000000E+01 0.  1.
         -5    1    5    5    0  503  0.65883619371E+02 -0.21834688348E+02  0.86888499130E+03  0.87166543067E+03  0.47000000000E+01 0.  1.
<mgrwt>
<rscale>  0 0.27531272E+03</rscale>
<asrwt>0</asrwt>
<pdfrwt beam="1">  1        1 0.32592262E+00 0.27531272E+03</pdfrwt>
<pdfrwt beam="2">  1       -1 0.13761043E-02 0.27531272E+03</pdfrwt>
<totfact> 0.33430444E+03</totfact>
</mgrwt>
</event>
<event>
 9    1  0.7944303E-001  0.2753087E+03  0.7818608E-02  0.1098279E+00
          2   -1    0    0  501    0  0.00000000000E+00  0.00000000000E+00  0.53216215599E+03  0.53216215599E+03  0.00000000000E+00 0. -1.
         -2   -1    0    0    0  501 -0.00000000000E+00 -0.00000000000E+00 -0.35607040253E+02  0.35607040253E+02  0.00000000000E+00 0. -1.
         35    2    1    2    0    0  0.00000000000E+00  0.00000000000E+00  0.49655511574E+03  0.56776919624E+03  0.27530869445E+03 0.  0.
         25    2    3    3    0    0  0.12784436784E+02 -0.49136915235E+02  0.29402782420E+03  0.32385110469E+03  0.12589399645E+03 0.  0.
         25    2    3    3    0    0 -0.12784436784E+02  0.49136915235E+02  0.20252729154E+03  0.24391809155E+03  0.12609858567E+03 0.  0.
          5    1    4    4  502    0 -0.17825200404E+01 -0.79184136236E+02  0.10376856621E+03  0.13062660580E+03  0.47000000000E+01 0. -1.
         -5    1    4    4    0  502  0.14566956824E+02  0.30047221001E+02  0.19025925799E+03  0.19322449889E+03  0.47000000000E+01 0. -1.
          5    1    5    5  503    0  0.29523315024E+02  0.48853861481E+02  0.19158811926E+03  0.19996605551E+03  0.47000000000E+01 0. -1.
         -5    1    5    5    0  503 -0.42307751808E+02  0.28305375448E+00  0.10939172270E+02  0.43952036045E+02  0.47000000000E+01 0. -1.
<mgrwt>
<rscale>  0 0.27530869E+03</rscale>
<asrwt>0</asrwt>
<pdfrwt beam="1">  1        2 0.81871095E-01 0.27530869E+03</pdfrwt>
<pdfrwt beam="2">  1       -2 0.54780066E-02 0.27530869E+03</pdfrwt>
<totfact> 0.98195044E+03</totfact>
</mgrwt>
</event>
<event>
 9    1  0.7944303E-001  0.2717361E+03  0.7818608E-02  0.1100290E+00
         -2   -1    0    0    0  501 -0.00000000000E+00  0.00000000000E+00  0.69505888424E+01  0.69505888424E+01  0.00000000000E+00 0. -1.
          2   -1    0    0  501    0  0.00000000000E+00 -0.00000000000E+00 -0.26559074157E+04  0.26559074157E+04  0.00000000000E+00 0. -1.
         35    2    1    2    0    0  0.71054273576E-14  0.00000000000E+00 -0.26489568268E+04  0.26628580045E+04  0.27173605171E+03 0.  0.
         25    2    3    3    0    0  0.48041572509E+02 -0.26669442117E+02 -0.14477096792E+04  0.14538881551E+04  0.12209914128E+03 0.  0.
         25    2    3    3    0    0 -0.48041572509E+02  0.26669442117E+02 -0.12012471476E+04  0.12089698494E+04  0.12487648058E+03 0.  0.
          5    1    4    4  502    0  0.36057375060E+02  0.59759758679E+01 -0.13420043525E+04  0.13425101931E+04  0.47000000000E+01 0.  1.
         -5    1    4    4    0  502  0.11984197450E+02 -0.32645417985E+02 -0.10570532676E+03  0.11137796196E+03  0.47000000000E+01 0.  1.
          5    1    5    5  503    0  0.31989272387E+02  0.34699460440E+02 -0.26078435559E+03  0.26506213653E+03  0.47000000000E+01 0.  1.
         -5    1    5    5    0  503 -0.80030844896E+02 -0.80300183230E+01 -0.94046279199E+03  0.94390771288E+03  0.47000000000E+01 0.  1.
<mgrwt>
<rscale>  0 0.27173605E+03</rscale>
<asrwt>0</asrwt>
<pdfrwt beam="1">  1        2 0.40860101E+00 0.27173605E+03</pdfrwt>
<pdfrwt beam="2">  1       -2 0.10693217E-02 0.27173605E+03</pdfrwt>
<totfact> 0.63582913E+03</totfact>
</mgrwt>
</event>
<event>
 9    1  0.7944303E-001  0.2785778E+03  0.7818608E-02  0.1096468E+00
         -2   -1    0    0    0  501 -0.00000000000E+00  0.00000000000E+00  0.20030613160E+03  0.20030613160E+03  0.00000000000E+00 0. -1.
          2   -1    0    0  501    0  0.00000000000E+00 -0.00000000000E+00 -0.96858744120E+02  0.96858744120E+02  0.00000000000E+00 0. -1.
         35    2    1    2    0    0  0.17763568394E-14 -0.17763568394E-14  0.10344738749E+03  0.29716487572E+03  0.27857781927E+03 0.  0.
         25    2    3    3    0    0  0.14831930288E+02 -0.64160396035E+01 -0.11101237936E+02  0.12688023065E+03  0.12535630708E+03 0.  0.
         25    2    3    3    0    0 -0.14831930288E+02  0.64160396035E+01  0.11454862542E+03  0.17028464507E+03  0.12495727687E+03 0.  0.
          5    1    4    4  502    0 -0.90512664354E+01  0.76579727011E+01 -0.64919124833E+02  0.66160053953E+02  0.47000000000E+01 0. -1.
         -5    1    4    4    0  502  0.23883196723E+02 -0.14074012305E+02  0.53817886897E+02  0.60720176697E+02  0.47000000000E+01 0. -1.
          5    1    5    5  503    0 -0.10192440675E+01 -0.25691726417E+02  0.12940316364E+03  0.13201656118E+03  0.47000000000E+01 0. -1.
         -5    1    5    5    0  503 -0.13812686221E+02  0.32107766021E+02 -0.14854538219E+02  0.38268083897E+02  0.47000000000E+01 0. -1.
<mgrwt>
<rscale>  0 0.27857782E+03</rscale>
<asrwt>0</asrwt>
<pdfrwt beam="1">  1        2 0.14901345E-01 0.27857782E+03</pdfrwt>
<pdfrwt beam="2">  1       -2 0.30816328E-01 0.27857782E+03</pdfrwt>
<totfact> 0.38056375E+03</totfact>
</mgrwt>
</event>
<event>
 9    1  0.7944303E-001  0.2714146E+03  0.7818608E-02  0.1100473E+00
         -2   -1    0    0    0  501 -0.00000000000E+00  0.00000000000E+00  0.11895986579E+02  0.11895986579E+02  0.00000000000E+00 0.  1.
          2   -1    0    0  501    0  0.00000000000E+00 -0.00000000000E+00 -0.15481243758E+04  0.15481243758E+04  0.00000000000E+00 0.  1.
         35    2    1    2    0    0 -0.35527136788E-14  0.00000000000E+00 -0.15362283892E+04  0.15600203624E+04  0.27141456702E+03 0.  0.
         25    2    3    3    0    0  0.17028629153E+02  0.55170097958E+02 -0.76960122024E+03  0.78125085564E+03  0.12138017679E+03 0.  0.
         25    2    3    3    0    0 -0.17028629153E+02 -0.55170097958E+02 -0.76662716900E+03  0.77876950676E+03  0.12422163456E+03 0.  0.
          5    1    4    4  502    0  0.88127950064E+01 -0.34544490008E+02 -0.36222356579E+03  0.36400410542E+03  0.47000000000E+01 0. -1.
         -5    1    4    4    0  502  0.82158341461E+01  0.89714587966E+02 -0.40737765445E+03  0.41724675022E+03  0.47000000000E+01 0. -1.
          5    1    5    5  503    0  0.21138387790E+02 -0.16735209600E+02 -0.64456874475E+03  0.64514948298E+03  0.47000000000E+01 0.  1.
         -5    1    5    5    0  503 -0.38167016942E+02 -0.38434888358E+02 -0.12205842424E+03  0.13362002378E+03  0.47000000000E+01 0.  1.
<mgrwt>
<rscale>  0 0.27141457E+03</rscale>
<asrwt>0</asrwt>
<pdfrwt beam="1">  1        2 0.23817297E+00 0.27141457E+03</pdfrwt>
<pdfrwt beam="2">  1       -2 0.18301519E-02 0.27141457E+03</pdfrwt>
<totfact> 0.11324627E+04</totfact>
</mgrwt>
</event>
<event>
 9    1  0.7944303E-001  0.2713344E+03  0.7818608E-02  0.1100518E+00
          2   -1    0    0  501    0  0.00000000000E+00  0.00000000000E+00  0.21952711758E+03  0.21952711758E+03  0.00000000000E+00 0. -1.
         -2   -1    0    0    0  501 -0.00000000000E+00 -0.00000000000E+00 -0.83841978415E+02  0.83841978415E+02  0.00000000000E+00 0. -1.
         35    2    1    2    0    0 -0.35527136788E-14  0.00000000000E+00  0.13568513916E+03  0.30336909599E+03  0.27133439040E+03 0.  0.
         25    2    3    3    0    0 -0.20480716187E+02 -0.24014680930E+02  0.20513525692E+02  0.13071118386E+03  0.12517365623E+03 0.  0.
         25    2    3    3    0    0  0.20480716187E+02  0.24014680930E+02  0.11517161347E+03  0.17265791213E+03  0.12469999774E+03 0.  0.
          5    1    4    4  502    0  0.13873873370E+02 -0.40943000207E+02 -0.39906789734E+02  0.59020805612E+02  0.47000000000E+01 0.  1.
         -5    1    4    4    0  502 -0.34354589556E+02  0.16928319277E+02  0.60420315425E+02  0.71690378247E+02  0.47000000000E+01 0.  1.
          5    1    5    5  503    0 -0.17848439074E+02  0.16797395783E+02 -0.19944442980E+02  0.31946675699E+02  0.47000000000E+01 0.  1.
         -5    1    5    5    0  503  0.38329155261E+02  0.72172851471E+01  0.13511605645E+03  0.14071123643E+03  0.47000000000E+01 0.  1.
<mgrwt>
<rscale>  0 0.27133439E+03</rscale>
<asrwt>0</asrwt>
<pdfrwt beam="1">  1        2 0.33773403E-01 0.27133439E+03</pdfrwt>
<pdfrwt beam="2">  1       -2 0.12898766E-01 0.27133439E+03</pdfrwt>
<totfact> 0.67012268E+03</totfact>
</mgrwt>
</event>
<event>
 9    1  0.7944303E-001  0.2724486E+03  0.7818608E-02  0.1099886E+00
         -2   -1    0    0    0  501 -0.00000000000E+00  0.00000000000E+00  0.10103451716E+02  0.10103451716E+02  0.00000000000E+00 0.  1.
          2   -1    0    0  501    0  0.00000000000E+00 -0.00000000000E+00 -0.18367056325E+04  0.18367056325E+04  0.00000000000E+00 0.  1.
         35    2    1    2    0    0 -0.35527136788E-14 -0.71054273576E-14 -0.18266021808E+04  0.18468090842E+04  0.27244864965E+03 0.  0.
         25    2    3    3    0    0 -0.30756352953E+02  0.28911402051E+02 -0.11518589383E+04  0.11593769964E+04  0.12487667371E+03 0.  0.
         25    2    3    3    0    0  0.30756352953E+02 -0.28911402051E+02 -0.67474324244E+03  0.68743208777E+03  0.12450947618E+03 0.  0.
          5    1    4    4  502    0 -0.43776169919E+02 -0.38572004820E+02 -0.38420846604E+03  0.38864172187E+03  0.47000000000E+01 0.  1.
         -5    1    4    4    0  502  0.13019816966E+02  0.67483406871E+02 -0.76765047230E+03  0.77073527457E+03  0.47000000000E+01 0.  1.
          5    1    5    5  503    0 -0.27342345807E+02 -0.51939927884E+01 -0.51452449105E+03  0.51529809171E+03  0.47000000000E+01 0. -1.
         -5    1    5    5    0  503  0.58098698760E+02 -0.23717409262E+02 -0.16021875139E+03  0.17213399605E+03  0.47000000000E+01 0. -1.
<mgrwt>
<rscale>  0 0.27244865E+03</rscale>
<asrwt>0</asrwt>
<pdfrwt beam="1">  1        2 0.28257039E+00 0.27244865E+03</pdfrwt>
<pdfrwt beam="2">  1       -2 0.15543756E-02 0.27244865E+03</pdfrwt>
<totfact> 0.10135872E+04</totfact>
</mgrwt>
</event>
<event>
 9    1  0.7944303E-001  0.2745917E+03  0.7818608E-02  0.1098680E+00
          1   -1    0    0  501    0  0.00000000000E+00  0.00000000000E+00  0.83062986904E+02  0.83062986904E+02  0.00000000000E+00 0. -1.
         -1   -1    0    0    0  501 -0.00000000000E+00 -0.00000000000E+00 -0.22693797994E+03  0.22693797994E+03  0.00000000000E+00 0. -1.
         35    2    1    2    0    0 -0.71054273576E-14  0.00000000000E+00 -0.14387499303E+03  0.31000096684E+03  0.27459167107E+03 0.  0.
         25    2    3    3    0    0 -0.46989155226E+02 -0.13983281394E+02 -0.10446191117E+03  0.17088848465E+03  0.12604392264E+03 0.  0.
         25    2    3    3    0    0  0.46989155226E+02  0.13983281394E+02 -0.39413081861E+02  0.13911248219E+03  0.12407811576E+03 0.  0.
          5    1    4    4  502    0 -0.53047866150E+02 -0.50387564643E+02 -0.16167580592E+02  0.75076384010E+02  0.47000000000E+01 0. -1.
         -5    1    4    4    0  502  0.60587109243E+01  0.36404283249E+02 -0.88294330582E+02  0.95812100644E+02  0.47000000000E+01 0. -1.
          5    1    5    5  503    0 -0.18589285352E+02  0.51020933126E+02 -0.11786373171E+01  0.54517669914E+02  0.47000000000E+01 0. -1.
         -5    1    5    5    0  503  0.65578440578E+02 -0.37037651731E+02 -0.38234444544E+02  0.84594812276E+02  0.47000000000E+01 0. -1.
<mgrwt>
<rscale>  0 0.27459167E+03</rscale>
<asrwt>0</asrwt>
<pdfrwt beam="1">  1        1 0.12778921E-01 0.27459167E+03</pdfrwt>
<pdfrwt beam="2">  1       -1 0.34913535E-01 0.27459167E+03</pdfrwt>
<totfact> 0.36043728E+03</totfact>
</mgrwt>
</event>
<event>
 9    1  0.7944303E-001  0.2698992E+03  0.7818608E-02  0.1101337E+00
         -2   -1    0    0    0  501 -0.00000000000E+00  0.00000000000E+00  0.14191226816E+03  0.14191226816E+03  0.00000000000E+00 0. -1.
          2   -1    0    0  501    0  0.00000000000E+00 -0.00000000000E+00 -0.12832854323E+03  0.12832854323E+03  0.00000000000E+00 0. -1.
         35    2    1    2    0    0 -0.35527136788E-14  0.71054273576E-14  0.13583724929E+02  0.27024081140E+03  0.26989920074E+03 0.  0.
         25    2    3    3    0    0  0.23222922327E+02 -0.27371610539E+02 -0.30389370702E+02  0.13397781083E+03  0.12545130832E+03 0.  0.
         25    2    3    3    0    0 -0.23222922327E+02  0.27371610539E+02  0.43973095630E+02  0.13626300056E+03  0.12387680573E+03 0.  0.
          5    1    4    4  502    0  0.45663083714E+02  0.36780291455E+02  0.13141255755E+01  0.58836417123E+02  0.47000000000E+01 0. -1.
         -5    1    4    4    0  502 -0.22440161387E+02 -0.64151901994E+02 -0.31703496277E+02  0.75141393710E+02  0.47000000000E+01 0. -1.
          5    1    5    5  503    0 -0.11265580486E+02  0.27120826224E+02  0.86692747474E+02  0.91652468506E+02  0.47000000000E+01 0. -1.
         -5    1    5    5    0  503 -0.11957341841E+02  0.25078431439E+00 -0.42719651843E+02  0.44610532056E+02  0.47000000000E+01 0. -1.
<mgrwt>
<rscale>  0 0.26989920E+03</rscale>
<asrwt>0</asrwt>
<pdfrwt beam="1">  1        2 0.19742853E-01 0.26989920E+03</pdfrwt>
<pdfrwt beam="2">  1       -2 0.21832657E-01 0.26989920E+03</pdfrwt>
<totfact> 0.50484564E+03</totfact>
</mgrwt>
</event>
<event>
 9    1  0.7944303E-001  0.2765108E+03  0.7818608E-02  0.1097610E+00
          1   -1    0    0  501    0  0.00000000000E+00  0.00000000000E+00  0.62692520411E+03  0.62692520411E+03  0.00000000000E+00 0.  1.
         -1   -1    0    0    0  501 -0.00000000000E+00 -0.00000000000E+00 -0.30489374208E+02  0.30489374208E+02  0.00000000000E+00 0.  1.
         35    2    1    2    0    0  0.00000000000E+00  0.00000000000E+00  0.59643582990E+03  0.65741457832E+03  0.27651081099E+03 0.  0.
         25    2    3    3    0    0 -0.52987358367E+02  0.29159037959E+02  0.29326328900E+03  0.32434354683E+03  0.12464938852E+03 0.  0.
         25    2    3    3    0    0  0.52987358367E+02 -0.29159037959E+02  0.30317254090E+03  0.33307103148E+03  0.12395488217E+03 0.  0.
          5    1    4    4  502    0  0.37884702786E+02 -0.77036076164E+00  0.50087903444E+02  0.62981999272E+02  0.47000000000E+01 0. -1.
         -5    1    4    4    0  502 -0.90872061153E+02  0.29929398721E+02  0.24317538555E+03  0.26136154756E+03  0.47000000000E+01 0. -1.
          5    1    5    5  503    0  0.81411878739E+01 -0.35749390235E+02  0.12760388722E+02  0.39105183320E+02  0.47000000000E+01 0.  1.
         -5    1    5    5    0  503  0.44846170493E+02  0.65903522759E+01  0.29041215218E+03  0.29396584816E+03  0.47000000000E+01 0.  1.
<mgrwt>
<rscale>  0 0.27651081E+03</rscale>
<asrwt>0</asrwt>
<pdfrwt beam="1">  1        1 0.96450022E-01 0.27651081E+03</pdfrwt>
<pdfrwt beam="2">  1       -1 0.46906734E-02 0.27651081E+03</pdfrwt>
<totfact> 0.63843223E+03</totfact>
</mgrwt>
</event>
<event>
 9    1  0.7944303E-001  0.2768058E+03  0.7818608E-02  0.1097446E+00
          2   -1    0    0  501    0  0.00000000000E+00  0.00000000000E+00  0.25372079948E+03  0.25372079948E+03  0.00000000000E+00 0.  1.
         -2   -1    0    0    0  501 -0.00000000000E+00 -0.00000000000E+00 -0.75497794461E+02  0.75497794461E+02  0.00000000000E+00 0.  1.
         35    2    1    2    0    0  0.71054273576E-14  0.00000000000E+00  0.17822300502E+03  0.32921859394E+03  0.27680578585E+03 0.  0.
         25    2    3    3    0    0  0.41520445070E+02  0.16428779736E+02  0.42642836456E+02  0.13964512017E+03  0.12525372619E+03 0.  0.
         25    2    3    3    0    0 -0.41520445070E+02 -0.16428779736E+02  0.13558016856E+03  0.18957347377E+03  0.12474881838E+03 0.  0.
          5    1    4    4  502    0  0.79798158771E+02  0.35359909624E+02  0.41272311058E+02  0.96662107426E+02  0.47000000000E+01 0.  1.
         -5    1    4    4    0  502 -0.38277713701E+02 -0.18931129888E+02  0.13705253982E+01  0.42983012748E+02  0.47000000000E+01 0.  1.
          5    1    5    5  503    0 -0.31077263599E+02  0.16153756140E+01  0.15652030379E+03  0.15965306527E+03  0.47000000000E+01 0. -1.
         -5    1    5    5    0  503 -0.10443181471E+02 -0.18044155350E+02 -0.20940135226E+02  0.29920408500E+02  0.47000000000E+01 0. -1.
<mgrwt>
<rscale>  0 0.27680579E+03</rscale>
<asrwt>0</asrwt>
<pdfrwt beam="1">  1        2 0.39033969E-01 0.27680579E+03</pdfrwt>
<pdfrwt beam="2">  1       -2 0.11615045E-01 0.27680579E+03</pdfrwt>
<totfact> 0.67919124E+03</totfact>
</mgrwt>
</event>
<event>
 9    1  0.7944303E-001  0.2752724E+03  0.7818608E-02  0.1098299E+00
          2   -1    0    0  501    0  0.00000000000E+00  0.00000000000E+00  0.11260205126E+04  0.11260205126E+04  0.00000000000E+00 0.  1.
         -2   -1    0    0    0  501 -0.00000000000E+00 -0.00000000000E+00 -0.16823604890E+02  0.16823604890E+02  0.00000000000E+00 0.  1.
         35    2    1    2    0    0 -0.71054273576E-14  0.71054273576E-14  0.11091969078E+04  0.11428441175E+04  0.27527240474E+03 0.  0.
         25    2    3    3    0    0 -0.17319121692E+02  0.13909389772E+02  0.77360008848E+03  0.78400434360E+03  0.12534867690E+03 0.  0.
         25    2    3    3    0    0  0.17319121692E+02 -0.13909389772E+02  0.33559681928E+03  0.35883977394E+03  0.12508930868E+03 0.  0.
          5    1    4    4  502    0  0.39942882724E+02  0.36827799259E+02  0.52498190223E+03  0.52780660127E+03  0.47000000000E+01 0. -1.
         -5    1    4    4    0  502 -0.57262004416E+02 -0.22918409487E+02  0.24861818625E+03  0.25619774233E+03  0.47000000000E+01 0. -1.
          5    1    5    5  503    0  0.15241851368E+02  0.44364888232E+02  0.25458676184E+03  0.25891517268E+03  0.47000000000E+01 0.  1.
         -5    1    5    5    0  503  0.20772703243E+01 -0.58274278003E+02  0.81010057447E+02  0.99924601257E+02  0.47000000000E+01 0.  1.
<mgrwt>
<rscale>  0 0.27527240E+03</rscale>
<asrwt>0</asrwt>
<pdfrwt beam="1">  1        2 0.17323387E+00 0.27527240E+03</pdfrwt>
<pdfrwt beam="2">  1       -2 0.25882478E-02 0.27527240E+03</pdfrwt>
<totfact> 0.11620033E+04</totfact>
</mgrwt>
</event>
<event>
 9    1  0.7944303E-001  0.2782969E+03  0.7818608E-02  0.1096623E+00
         -2   -1    0    0    0  501 -0.00000000000E+00  0.00000000000E+00  0.10821790529E+02  0.10821790529E+02  0.00000000000E+00 0.  1.
          2   -1    0    0  501    0  0.00000000000E+00 -0.00000000000E+00 -0.17891947197E+04  0.17891947197E+04  0.00000000000E+00 0.  1.
         35    2    1    2    0    0  0.71054273576E-14  0.35527136788E-14 -0.17783729292E+04  0.18000165102E+04  0.27829689522E+03 0.  0.
         25    2    3    3    0    0  0.52231211411E+02 -0.20224291496E+02 -0.73803351047E+03  0.75064975078E+03  0.12507783320E+03 0.  0.
         25    2    3    3    0    0 -0.52231211411E+02  0.20224291496E+02 -0.10403394187E+04  0.10493667594E+04  0.12540880480E+03 0.  0.
          5    1    4    4  502    0  0.63720911536E+02  0.33160142321E+02 -0.27050716509E+03  0.27992171400E+03  0.47000000000E+01 0.  1.
         -5    1    4    4    0  502 -0.11489700125E+02 -0.53384433817E+02 -0.46752634538E+03  0.47072803678E+03  0.47000000000E+01 0.  1.
          5    1    5    5  503    0 -0.72854968911E+01  0.51826576633E+01 -0.24614050618E+01  0.10396485958E+02  0.47000000000E+01 0.  1.
         -5    1    5    5    0  503 -0.44945714520E+02  0.15041633832E+02 -0.10378780136E+04  0.10389702735E+04  0.47000000000E+01 0.  1.
<mgrwt>
<rscale>  0 0.27829690E+03</rscale>
<asrwt>0</asrwt>
<pdfrwt beam="1">  1        2 0.27526078E+00 0.27829690E+03</pdfrwt>
<pdfrwt beam="2">  1       -2 0.16648905E-02 0.27829690E+03</pdfrwt>
<totfact> 0.97104605E+03</totfact>
</mgrwt>
</event>
<event>
 9    1  0.7944303E-001  0.2789910E+03  0.7818608E-02  0.1096241E+00
          1   -1    0    0  501    0  0.00000000000E+00  0.00000000000E+00  0.63818521821E+02  0.63818521821E+02  0.00000000000E+00 0.  1.
         -1   -1    0    0    0  501 -0.00000000000E+00 -0.00000000000E+00 -0.30491140312E+03  0.30491140312E+03  0.00000000000E+00 0.  1.
         35    2    1    2    0    0  0.00000000000E+00  0.00000000000E+00 -0.24109288130E+03  0.36872992494E+03  0.27899100368E+03 0.  0.
         25    2    3    3    0    0  0.46320986500E+02  0.19246460313E+02 -0.17015583138E+03  0.21720450047E+03  0.12533446472E+03 0.  0.
         25    2    3    3    0    0 -0.46320986500E+02 -0.19246460313E+02 -0.70937049917E+02  0.15152542447E+03  0.12414438845E+03 0.  0.
          5    1    4    4  502    0  0.61374068300E+02 -0.22277034503E+02 -0.15819669892E+03  0.17120551415E+03  0.47000000000E+01 0. -1.
         -5    1    4    4    0  502 -0.15053081800E+02  0.41523494816E+02 -0.11959132462E+02  0.45998986322E+02  0.47000000000E+01 0. -1.
          5    1    5    5  503    0  0.26021984029E+02  0.42093812198E+01  0.19606844518E+02  0.33187059150E+02  0.47000000000E+01 0. -1.
         -5    1    5    5    0  503 -0.72342970529E+02 -0.23455841533E+02 -0.90543894435E+02  0.11833836532E+03  0.47000000000E+01 0. -1.
<mgrwt>
<rscale>  0 0.27899100E+03</rscale>
<asrwt>0</asrwt>
<pdfrwt beam="1">  1        1 0.98182340E-02 0.27899100E+03</pdfrwt>
<pdfrwt beam="2">  1       -1 0.46909447E-01 0.27899100E+03</pdfrwt>
<totfact> 0.30310426E+03</totfact>
</mgrwt>
</event>
<event>
 9    1  0.7944303E-001  0.2766523E+03  0.7818608E-02  0.1097532E+00
         -2   -1    0    0    0  501 -0.00000000000E+00  0.00000000000E+00  0.54868484382E+02  0.54868484382E+02  0.00000000000E+00 0. -1.
          2   -1    0    0  501    0  0.00000000000E+00 -0.00000000000E+00 -0.34872698360E+03  0.34872698360E+03  0.00000000000E+00 0. -1.
         35    2    1    2    0    0  0.00000000000E+00  0.00000000000E+00 -0.29385849922E+03  0.40359546798E+03  0.27665228033E+03 0.  0.
         25    2    3    3    0    0  0.28925789666E+02  0.39246482416E+01 -0.22724398414E+03  0.26062386925E+03  0.12422909773E+03 0.  0.
         25    2    3    3    0    0 -0.28925789666E+02 -0.39246482416E+01 -0.66614515084E+02  0.14297159874E+03  0.12309053682E+03 0.  0.
          5    1    4    4  502    0  0.35255270147E+00 -0.63203080675E+01  0.14730448977E+02  0.16707684296E+02  0.47000000000E+01 0.  1.
         -5    1    4    4    0  502  0.28573236964E+02  0.10244956309E+02 -0.24197443311E+03  0.24391618495E+03  0.47000000000E+01 0.  1.
          5    1    5    5  503    0 -0.66421334088E+02  0.58290426704E+01 -0.77608438538E+02  0.10242524636E+03  0.47000000000E+01 0.  1.
         -5    1    5    5    0  503  0.37495544423E+02 -0.97536909120E+01  0.10993923453E+02  0.40546352374E+02  0.47000000000E+01 0.  1.
<mgrwt>
<rscale>  0 0.27665228E+03</rscale>
<asrwt>0</asrwt>
<pdfrwt beam="1">  1        2 0.53650304E-01 0.27665228E+03</pdfrwt>
<pdfrwt beam="2">  1       -2 0.84413055E-02 0.27665228E+03</pdfrwt>
<totfact> 0.80067036E+03</totfact>
</mgrwt>
</event>
<event>
 9    1  0.7944303E-001  0.2801882E+03  0.7818608E-02  0.1095586E+00
         -2   -1    0    0    0  501 -0.00000000000E+00  0.00000000000E+00  0.16276584417E+02  0.16276584417E+02  0.00000000000E+00 0.  1.
          2   -1    0    0  501    0  0.00000000000E+00 -0.00000000000E+00 -0.12058034589E+04  0.12058034589E+04  0.00000000000E+00 0.  1.
         35    2    1    2    0    0 -0.35527136788E-14  0.35527136788E-14 -0.11895268745E+04  0.12220800434E+04  0.28018823523E+03 0.  0.
         25    2    3    3    0    0 -0.22744341746E+02  0.18346308798E+02 -0.82990794307E+03  0.84005008196E+03  0.12681898159E+03 0.  0.
         25    2    3    3    0    0  0.22744341746E+02 -0.18346308798E+02 -0.35961893146E+03  0.38202996141E+03  0.12556760499E+03 0.  0.
          5    1    4    4  502    0  0.43938529328E+02  0.22238470368E+02 -0.17910292138E+03  0.18580928494E+03  0.47000000000E+01 0. -1.
         -5    1    4    4    0  502 -0.66682871074E+02 -0.38921615706E+01 -0.65080502169E+03  0.65424079702E+03  0.47000000000E+01 0. -1.
          5    1    5    5  503    0  0.11501526988E+02  0.29998747573E+02 -0.30997821627E+03  0.31167418010E+03  0.47000000000E+01 0. -1.
         -5    1    5    5    0  503  0.11242814757E+02 -0.48345056370E+02 -0.49640715186E+02  0.70355781307E+02  0.47000000000E+01 0. -1.
<mgrwt>
<rscale>  0 0.28018824E+03</rscale>
<asrwt>0</asrwt>
<pdfrwt beam="1">  1        2 0.18550822E+00 0.28018824E+03</pdfrwt>
<pdfrwt beam="2">  1       -2 0.25040900E-02 0.28018824E+03</pdfrwt>
<totfact> 0.10986042E+04</totfact>
</mgrwt>
</event>
<event>
 9    1  0.7944303E-001  0.2747658E+03  0.7818608E-02  0.1098583E+00
         -2   -1    0    0    0  501 -0.00000000000E+00  0.00000000000E+00  0.12021197438E+02  0.12021197438E+02  0.00000000000E+00 0.  1.
          2   -1    0    0  501    0  0.00000000000E+00 -0.00000000000E+00 -0.15700651664E+04  0.15700651664E+04  0.00000000000E+00 0.  1.
         35    2    1    2    0    0  0.00000000000E+00 -0.71054273576E-14 -0.15580439690E+04  0.15820863639E+04  0.27476581560E+03 0.  0.
         25    2    3    3    0    0  0.30576623239E+01 -0.54188172932E+02 -0.75253451030E+03  0.76517766739E+03  0.12744789559E+03 0.  0.
         25    2    3    3    0    0 -0.30576623239E+01  0.54188172932E+02 -0.80550945870E+03  0.81690869649E+03  0.12469411758E+03 0.  0.
          5    1    4    4  502    0 -0.30950784914E+02 -0.85411472086E+02 -0.44974715770E+03  0.45885473356E+03  0.47000000000E+01 0.  1.
         -5    1    4    4    0  502  0.34008447238E+02  0.31223299153E+02 -0.30278735261E+03  0.30632293383E+03  0.47000000000E+01 0.  1.
          5    1    5    5  503    0  0.56936028874E+02  0.29435933794E+02 -0.27426581873E+03  0.28169489684E+03  0.47000000000E+01 0. -1.
         -5    1    5    5    0  503 -0.59993691198E+02  0.24752239138E+02 -0.53124363997E+03  0.53521379965E+03  0.47000000000E+01 0. -1.
<mgrwt>
<rscale>  0 0.27476582E+03</rscale>
<asrwt>0</asrwt>
<pdfrwt beam="1">  1        2 0.24154842E+00 0.27476582E+03</pdfrwt>
<pdfrwt beam="2">  1       -2 0.18494155E-02 0.27476582E+03</pdfrwt>
<totfact> 0.10858973E+04</totfact>
</mgrwt>
</event>
<event>
 9    1  0.7944303E-001  0.2761189E+03  0.7818608E-02  0.1097828E+00
          1   -1    0    0  501    0  0.00000000000E+00  0.00000000000E+00  0.15468319092E+04  0.15468319092E+04  0.00000000000E+00 0.  1.
         -1   -1    0    0    0  501 -0.00000000000E+00 -0.00000000000E+00 -0.12322226408E+02  0.12322226408E+02  0.00000000000E+00 0.  1.
         35    2    1    2    0    0 -0.35527136788E-14 -0.14210854715E-13  0.15345096828E+04  0.15591541356E+04  0.27611890917E+03 0.  0.
         25    2    3    3    0    0  0.29772667360E+02 -0.44285255026E+02  0.89715874536E+03  0.90742948625E+03  0.12524720594E+03 0.  0.
         25    2    3    3    0    0 -0.29772667360E+02  0.44285255026E+02  0.63735093740E+03  0.65172464933E+03  0.12522462061E+03 0.  0.
          5    1    4    4  502    0  0.43796753798E+02 -0.70608878981E+02  0.82529214487E+03  0.82947753666E+03  0.47000000000E+01 0. -1.
         -5    1    4    4    0  502 -0.14024086438E+02  0.26323623955E+02  0.71866600493E+02  0.77951949590E+02  0.47000000000E+01 0. -1.
          5    1    5    5  503    0  0.65084453216E+01  0.46879887601E+00 -0.31856092468E+01  0.86497248028E+01  0.47000000000E+01 0. -1.
         -5    1    5    5    0  503 -0.36281112681E+02  0.43816456150E+02  0.64053654665E+03  0.64307492453E+03  0.47000000000E+01 0. -1.
<mgrwt>
<rscale>  0 0.27611891E+03</rscale>
<asrwt>0</asrwt>
<pdfrwt beam="1">  1        1 0.23797399E+00 0.27611891E+03</pdfrwt>
<pdfrwt beam="2">  1       -1 0.18957284E-02 0.27611891E+03</pdfrwt>
<totfact> 0.49417596E+03</totfact>
</mgrwt>
</event>
<event>
 9    1  0.7944303E-001  0.2624065E+03  0.7818608E-02  0.1105706E+00
          2   -1    0    0  501    0  0.00000000000E+00  0.00000000000E+00  0.47764372391E+02  0.47764372391E+02  0.00000000000E+00 0. -1.
         -2   -1    0    0    0  501 -0.00000000000E+00 -0.00000000000E+00 -0.36040025535E+03  0.36040025535E+03  0.00000000000E+00 0. -1.
         35    2    1    2    0    0  0.00000000000E+00  0.35527136788E-14 -0.31263588296E+03  0.40816462774E+03  0.26240649387E+03 0.  0.
         25    2    3    3    0    0 -0.37060704249E+02  0.84522199449E+01 -0.15235521522E+03  0.20098901528E+03  0.12545731082E+03 0.  0.
         25    2    3    3    0    0  0.37060704249E+02 -0.84522199449E+01 -0.16028066774E+03  0.20717561246E+03  0.12564595546E+03 0.  0.
          5    1    4    4  502    0 -0.22903489469E+02 -0.25844401974E+02  0.84756335821E+01  0.35866827401E+02  0.47000000000E+01 0.  1.
         -5    1    4    4    0  502 -0.14157214780E+02  0.34296621919E+02 -0.16083084880E+03  0.16512218788E+03  0.47000000000E+01 0.  1.
          5    1    5    5  503    0 -0.95181914663E+01 -0.10216995170E+02  0.17759185981E+02  0.23075130461E+02  0.47000000000E+01 0. -1.
         -5    1    5    5    0  503  0.46578895715E+02  0.17647752252E+01 -0.17803985372E+03  0.18410048200E+03  0.47000000000E+01 0. -1.
<mgrwt>
<rscale>  0 0.26240649E+03</rscale>
<asrwt>0</asrwt>
<pdfrwt beam="1">  1        2 0.73483652E-02 0.26240649E+03</pdfrwt>
<pdfrwt beam="2">  1       -2 0.55446191E-01 0.26240649E+03</pdfrwt>
<totfact> 0.29368312E+03</totfact>
</mgrwt>
</event>
<event>
 9    1  0.7944303E-001  0.2751703E+03  0.7818608E-02  0.1098356E+00
          3   -1    0    0  501    0  0.00000000000E+00  0.00000000000E+00  0.31822080453E+02  0.31822080453E+02  0.00000000000E+00 0. -1.
         -3   -1    0    0    0  501 -0.00000000000E+00 -0.00000000000E+00 -0.59485961083E+03  0.59485961083E+03  0.00000000000E+00 0. -1.
         35    2    1    2    0    0  0.00000000000E+00  0.00000000000E+00 -0.56303753037E+03  0.62668169128E+03  0.27517027742E+03 0.  0.
         25    2    3    3    0    0 -0.35651450091E+02 -0.46600223199E+02 -0.26594308454E+03  0.29948503615E+03  0.12459115526E+03 0.  0.
         25    2    3    3    0    0  0.35651450091E+02  0.46600223199E+02 -0.29709444583E+03  0.32719665513E+03  0.12389485335E+03 0.  0.
          5    1    4    4  502    0 -0.44541461245E+02 -0.84945778174E+02 -0.21005399910E+03  0.23096428195E+03  0.47000000000E+01 0.  1.
         -5    1    4    4    0  502  0.88900111547E+01  0.38345554975E+02 -0.55889085441E+02  0.68520754200E+02  0.47000000000E+01 0.  1.
          5    1    5    5  503    0  0.41604941327E+02  0.83697534688E+02 -0.16402959198E+03  0.18884926662E+03  0.47000000000E+01 0.  1.
         -5    1    5    5    0  503 -0.59534912365E+01 -0.37097311489E+02 -0.13306485385E+03  0.13834738851E+03  0.47000000000E+01 0.  1.
<mgrwt>
<rscale>  0 0.27517028E+03</rscale>
<asrwt>0</asrwt>
<pdfrwt beam="1">  1        3 0.48957050E-02 0.27517028E+03</pdfrwt>
<pdfrwt beam="2">  1       -3 0.91516858E-01 0.27517028E+03</pdfrwt>
<totfact> 0.66224173E+02</totfact>
</mgrwt>
</event>
<event>
 9    1  0.7944303E-001  0.2727688E+03  0.7818608E-02  0.1099705E+00
          2   -1    0    0  501    0  0.00000000000E+00  0.00000000000E+00  0.11017399861E+04  0.11017399861E+04  0.00000000000E+00 0.  1.
         -2   -1    0    0    0  501 -0.00000000000E+00 -0.00000000000E+00 -0.16883029160E+02  0.16883029160E+02  0.00000000000E+00 0.  1.
         35    2    1    2    0    0 -0.71054273576E-14  0.35527136788E-14  0.10848569570E+04  0.11186230153E+04  0.27276882749E+03 0.  0.
         25    2    3    3    0    0 -0.40122571597E+02  0.12797815074E+02  0.40532792819E+03  0.42627975492E+03  0.12510034077E+03 0.  0.
         25    2    3    3    0    0  0.40122571597E+02 -0.12797815074E+02  0.67952902877E+03  0.69234326036E+03  0.12572145562E+03 0.  0.
          5    1    4    4  502    0 -0.83741976851E+02  0.19539753873E+02  0.23569516936E+03  0.25093589526E+03  0.47000000000E+01 0. -1.
         -5    1    4    4    0  502  0.43619405254E+02 -0.67419387993E+01  0.16963275883E+03  0.17534385967E+03  0.47000000000E+01 0. -1.
          5    1    5    5  503    0  0.23155021222E+02 -0.62485623250E+02  0.22328997495E+03  0.23306889761E+03  0.47000000000E+01 0.  1.
         -5    1    5    5    0  503  0.16967550375E+02  0.49687808177E+02  0.45623905382E+03  0.45927436275E+03  0.47000000000E+01 0.  1.
<mgrwt>
<rscale>  0 0.27276883E+03</rscale>
<asrwt>0</asrwt>
<pdfrwt beam="1">  1        2 0.16949840E+00 0.27276883E+03</pdfrwt>
<pdfrwt beam="2">  1       -2 0.25973900E-02 0.27276883E+03</pdfrwt>
<totfact> 0.11940142E+04</totfact>
</mgrwt>
</event>
<event>
 9    1  0.7944303E-001  0.2769696E+03  0.7818608E-02  0.1097356E+00
         -1   -1    0    0    0  501 -0.00000000000E+00  0.00000000000E+00  0.43941161480E+02  0.43941161480E+02  0.00000000000E+00 0. -1.
          1   -1    0    0  501    0  0.00000000000E+00 -0.00000000000E+00 -0.43644828395E+03  0.43644828395E+03  0.00000000000E+00 0. -1.
         35    2    1    2    0    0  0.00000000000E+00  0.10658141036E-13 -0.39250712247E+03  0.48038944543E+03  0.27696963388E+03 0.  0.
         25    2    3    3    0    0 -0.33300547462E+02 -0.29787425952E+02 -0.12835484476E+03  0.18453709204E+03  0.12483090546E+03 0.  0.
         25    2    3    3    0    0  0.33300547462E+02  0.29787425952E+02 -0.26415227771E+03  0.29585235339E+03  0.12552279467E+03 0.  0.
          5    1    4    4  502    0 -0.65350486358E+02 -0.18537953419E+02 -0.13350049471E+03  0.14986265003E+03  0.47000000000E+01 0.  1.
         -5    1    4    4    0  502  0.32049938897E+02 -0.11249472533E+02  0.51456499509E+01  0.34674442014E+02  0.47000000000E+01 0.  1.
          5    1    5    5  503    0  0.29169380557E+02 -0.47231076418E+02 -0.10173347478E+03  0.11598886685E+03  0.47000000000E+01 0.  1.
         -5    1    5    5    0  503  0.41311669047E+01  0.77018502369E+02 -0.16241880293E+03  0.17986348654E+03  0.47000000000E+01 0.  1.
<mgrwt>
<rscale>  0 0.27696963E+03</rscale>
<asrwt>0</asrwt>
<pdfrwt beam="1">  1        1 0.67145891E-01 0.27696963E+03</pdfrwt>
<pdfrwt beam="2">  1       -1 0.67601785E-02 0.27696963E+03</pdfrwt>
<totfact> 0.59957201E+03</totfact>
</mgrwt>
</event>
<event>
 9    1  0.7944303E-001  0.2731076E+03  0.7818608E-02  0.1099514E+00
         -1   -1    0    0    0  501 -0.00000000000E+00  0.00000000000E+00  0.34027630128E+02  0.34027630128E+02  0.00000000000E+00 0. -1.
          1   -1    0    0  501    0  0.00000000000E+00 -0.00000000000E+00 -0.54799395462E+03  0.54799395462E+03  0.00000000000E+00 0. -1.
         35    2    1    2    0    0  0.71054273576E-14  0.71054273576E-14 -0.51396632450E+03  0.58202158475E+03  0.27310756562E+03 0.  0.
         25    2    3    3    0    0  0.14864364806E+02  0.41073475962E+02 -0.23314738758E+03  0.26830784592E+03  0.12539304638E+03 0.  0.
         25    2    3    3    0    0 -0.14864364806E+02 -0.41073475962E+02 -0.28081893692E+03  0.31371373883E+03  0.13284974531E+03 0.  0.
          5    1    4    4  502    0 -0.46688319152E+02  0.22885648490E+02 -0.17119458492E+03  0.17897828907E+03  0.47000000000E+01 0. -1.
         -5    1    4    4    0  502  0.61552683957E+02  0.18187827471E+02 -0.61952802657E+02  0.89329556853E+02  0.47000000000E+01 0. -1.
          5    1    5    5  503    0  0.26990482756E+02 -0.22783545879E+02 -0.73065781422E+01  0.36373784604E+02  0.47000000000E+01 0. -1.
         -5    1    5    5    0  503 -0.41854847562E+02 -0.18289930082E+02 -0.27351235878E+03  0.27733995423E+03  0.47000000000E+01 0. -1.
<mgrwt>
<rscale>  0 0.27310757E+03</rscale>
<asrwt>0</asrwt>
<pdfrwt beam="1">  1        1 0.84306759E-01 0.27310757E+03</pdfrwt>
<pdfrwt beam="2">  1       -1 0.52350202E-02 0.27310757E+03</pdfrwt>
<totfact> 0.65194772E+03</totfact>
</mgrwt>
</event>
<event>
 9    1  0.7944303E-001  0.2769804E+03  0.7818608E-02  0.1097350E+00
          1   -1    0    0  501    0  0.00000000000E+00  0.00000000000E+00  0.33928809790E+03  0.33928809790E+03  0.00000000000E+00 0. -1.
         -1   -1    0    0    0  501 -0.00000000000E+00 -0.00000000000E+00 -0.56528755647E+02  0.56528755647E+02  0.00000000000E+00 0. -1.
         35    2    1    2    0    0  0.00000000000E+00 -0.71054273576E-14  0.28275934225E+03  0.39581685354E+03  0.27698038905E+03 0.  0.
         25    2    3    3    0    0  0.43315487803E+02  0.40197724290E+02  0.15477946375E+03  0.20698078501E+03  0.12406560541E+03 0.  0.
         25    2    3    3    0    0 -0.43315487803E+02 -0.40197724290E+02  0.12797987850E+03  0.18883606853E+03  0.12565079767E+03 0.  0.
          5    1    4    4  502    0  0.46515547348E+01 -0.25754886874E+01  0.14863702138E+03  0.14880633128E+03  0.47000000000E+01 0.  1.
         -5    1    4    4    0  502  0.38663933068E+02  0.42773212978E+02  0.61424423628E+01  0.58174453731E+02  0.47000000000E+01 0.  1.
          5    1    5    5  503    0 -0.50224076092E+02 -0.19397058516E+02  0.14875801629E+03  0.15827110004E+03  0.47000000000E+01 0. -1.
         -5    1    5    5    0  503  0.69085882891E+01 -0.20800665774E+02 -0.20778137786E+02  0.30564968488E+02  0.47000000000E+01 0. -1.
<mgrwt>
<rscale>  0 0.27698039E+03</rscale>
<asrwt>0</asrwt>
<pdfrwt beam="1">  1        1 0.52198168E-01 0.27698039E+03</pdfrwt>
<pdfrwt beam="2">  1       -1 0.86967318E-02 0.27698039E+03</pdfrwt>
<totfact> 0.56357016E+03</totfact>
</mgrwt>
</event>
<event>
 9    1  0.7944303E-001  0.2743808E+03  0.7818608E-02  0.1098798E+00
         -2   -1    0    0    0  501 -0.00000000000E+00  0.00000000000E+00  0.10684193998E+02  0.10684193998E+02  0.00000000000E+00 0. -1.
          2   -1    0    0  501    0  0.00000000000E+00 -0.00000000000E+00 -0.17615940236E+04  0.17615940236E+04  0.00000000000E+00 0. -1.
         35    2    1    2    0    0  0.14210854715E-13 -0.35527136788E-14 -0.17509098296E+04  0.17722782175E+04  0.27438084696E+03 0.  0.
         25    2    3    3    0    0 -0.54907929133E+02 -0.52798301776E+01 -0.93010217739E+03  0.94014445966E+03  0.12545432377E+03 0.  0.
         25    2    3    3    0    0  0.54907929133E+02  0.52798301776E+01 -0.82080765216E+03  0.83213375789E+03  0.12521434376E+03 0.  0.
          5    1    4    4  502    0 -0.90152546019E+01 -0.51352783465E+02 -0.66824692389E+03  0.67029428199E+03  0.47000000000E+01 0.  1.
         -5    1    4    4    0  502 -0.45892674531E+02  0.46072953288E+02 -0.26185525350E+03  0.26985017767E+03  0.47000000000E+01 0.  1.
          5    1    5    5  503    0 -0.17343139494E+02  0.27846615086E+02 -0.54741206370E+03  0.54841432872E+03  0.47000000000E+01 0.  1.
         -5    1    5    5    0  503  0.72251068627E+02 -0.22566784909E+02 -0.27339558845E+03  0.28371942916E+03  0.47000000000E+01 0.  1.
<mgrwt>
<rscale>  0 0.27438085E+03</rscale>
<asrwt>0</asrwt>
<pdfrwt beam="1">  1        2 0.27101458E+00 0.27438085E+03</pdfrwt>
<pdfrwt beam="2">  1       -2 0.16437214E-02 0.27438085E+03</pdfrwt>
<totfact> 0.10228172E+04</totfact>
</mgrwt>
</event>
<event>
 9    1  0.7944303E-001  0.2744783E+03  0.7818608E-02  0.1098744E+00
          2   -1    0    0  501    0  0.00000000000E+00  0.00000000000E+00  0.15443930857E+04  0.15443930857E+04  0.00000000000E+00 0.  1.
         -2   -1    0    0    0  501 -0.00000000000E+00 -0.00000000000E+00 -0.12195461948E+02  0.12195461948E+02  0.00000000000E+00 0.  1.
         35    2    1    2    0    0  0.00000000000E+00  0.00000000000E+00  0.15321976237E+04  0.15565885476E+04  0.27447832053E+03 0.  0.
         25    2    3    3    0    0 -0.94977168807E+01 -0.52611181532E+02  0.74690562476E+03  0.75952449337E+03  0.12708776763E+03 0.  0.
         25    2    3    3    0    0  0.94977168807E+01  0.52611181532E+02  0.78529199898E+03  0.79706405427E+03  0.12557643050E+03 0.  0.
          5    1    4    4  502    0  0.21776200072E+01  0.10065059822E+02  0.15418349309E+01  0.11424303614E+02  0.47000000000E+01 0. -1.
         -5    1    4    4    0  502 -0.11675336888E+02 -0.62676241354E+02  0.74536378983E+03  0.74810018976E+03  0.47000000000E+01 0. -1.
          5    1    5    5  503    0 -0.24425304846E+01  0.87285591749E+01  0.70179307213E+03  0.70186733775E+03  0.47000000000E+01 0. -1.
         -5    1    5    5    0  503  0.11940247365E+02  0.43882622357E+02  0.83498926850E+02  0.95196716525E+02  0.47000000000E+01 0. -1.
<mgrwt>
<rscale>  0 0.27447832E+03</rscale>
<asrwt>0</asrwt>
<pdfrwt beam="1">  1        2 0.23759878E+00 0.27447832E+03</pdfrwt>
<pdfrwt beam="2">  1       -2 0.18762261E-02 0.27447832E+03</pdfrwt>
<totfact> 0.10971229E+04</totfact>
</mgrwt>
</event>
<event>
 9    1  0.7944303E-001  0.2725721E+03  0.7818608E-02  0.1099816E+00
         -2   -1    0    0    0  501 -0.00000000000E+00  0.00000000000E+00  0.37851797461E+02  0.37851797461E+02  0.00000000000E+00 0.  1.
          2   -1    0    0  501    0  0.00000000000E+00 -0.00000000000E+00 -0.49070023371E+03  0.49070023371E+03  0.00000000000E+00 0.  1.
         35    2    1    2    0    0  0.17763568394E-14 -0.35527136788E-14 -0.45284843625E+03  0.52855203117E+03  0.27257208852E+03 0.  0.
         25    2    3    3    0    0 -0.69913836707E+01  0.30315206346E+02 -0.31535188145E+03  0.34055614419E+03  0.12475490784E+03 0.  0.
         25    2    3    3    0    0  0.69913836707E+01 -0.30315206346E+02 -0.13749655480E+03  0.18799588698E+03  0.12437547893E+03 0.  0.
          5    1    4    4  502    0  0.32798932982E+01  0.11848564200E+02  0.87029895293E+01  0.15779043076E+02  0.47000000000E+01 0. -1.
         -5    1    4    4    0  502 -0.10271276969E+02  0.18466642146E+02 -0.32405487098E+03  0.32477710112E+03  0.47000000000E+01 0. -1.
          5    1    5    5  503    0 -0.33669075686E+01  0.19619653878E+02  0.16135719698E+02  0.26052223227E+02  0.47000000000E+01 0. -1.
         -5    1    5    5    0  503  0.10358291239E+02 -0.49934860224E+02 -0.15363227450E+03  0.16194366375E+03  0.47000000000E+01 0. -1.
<mgrwt>
<rscale>  0 0.27257209E+03</rscale>
<asrwt>0</asrwt>
<pdfrwt beam="1">  1        2 0.75492346E-01 0.27257209E+03</pdfrwt>
<pdfrwt beam="2">  1       -2 0.58233533E-02 0.27257209E+03</pdfrwt>
<totfact> 0.97924107E+03</totfact>
</mgrwt>
</event>
<event>
 9    1  0.7944303E-001  0.2728241E+03  0.7818608E-02  0.1099674E+00
          2   -1    0    0  501    0  0.00000000000E+00  0.00000000000E+00  0.52346174408E+02  0.52346174408E+02  0.00000000000E+00 0.  1.
         -2   -1    0    0    0  501 -0.00000000000E+00 -0.00000000000E+00 -0.35548434628E+03  0.35548434628E+03  0.00000000000E+00 0.  1.
         35    2    1    2    0    0 -0.35527136788E-14  0.00000000000E+00 -0.30313817187E+03  0.40783052069E+03  0.27282408684E+03 0.  0.
         25    2    3    3    0    0  0.13515082914E+02  0.51900781536E+02 -0.14636434035E+03  0.19969082727E+03  0.12481008684E+03 0.  0.
         25    2    3    3    0    0 -0.13515082914E+02 -0.51900781536E+02 -0.15677383152E+03  0.20813969342E+03  0.12596725423E+03 0.  0.
          5    1    4    4  502    0 -0.46122424651E+02 -0.31430668934E+01 -0.22741305538E+02  0.51734069072E+02  0.47000000000E+01 0.  1.
         -5    1    4    4    0  502  0.59637507565E+02  0.55043848430E+02 -0.12362303482E+03  0.14795675820E+03  0.47000000000E+01 0.  1.
          5    1    5    5  503    0  0.14034263951E+02 -0.89047100909E+02 -0.98737997560E+02  0.13378202012E+03  0.47000000000E+01 0.  1.
         -5    1    5    5    0  503 -0.27549346865E+02  0.37146319373E+02 -0.58035833958E+02  0.74357673302E+02  0.47000000000E+01 0.  1.
<mgrwt>
<rscale>  0 0.27282409E+03</rscale>
<asrwt>0</asrwt>
<pdfrwt beam="1">  1        2 0.80532577E-02 0.27282409E+03</pdfrwt>
<pdfrwt beam="2">  1       -2 0.54689899E-01 0.27282409E+03</pdfrwt>
<totfact> 0.26903828E+03</totfact>
</mgrwt>
</event>
<event>
 9    1  0.7944303E-001  0.2737538E+03  0.7818608E-02  0.1099150E+00
          1   -1    0    0  501    0  0.00000000000E+00  0.00000000000E+00  0.44511135031E+03  0.44511135031E+03  0.00000000000E+00 0.  1.
         -1   -1    0    0    0  501 -0.00000000000E+00 -0.00000000000E+00 -0.42091229410E+02  0.42091229410E+02  0.00000000000E+00 0.  1.
         35    2    1    2    0    0  0.71054273576E-14  0.00000000000E+00  0.40302012090E+03  0.48720257972E+03  0.27375378689E+03 0.  0.
         25    2    3    3    0    0  0.26639390327E+02 -0.43961407085E+02  0.19802786891E+03  0.24016530380E+03  0.12578582533E+03 0.  0.
         25    2    3    3    0    0 -0.26639390327E+02  0.43961407085E+02  0.20499225199E+03  0.24703727592E+03  0.12791923189E+03 0.  0.
          5    1    4    4  502    0  0.65539817062E+02 -0.31685743236E+02  0.18202020343E+03  0.19609410598E+03  0.47000000000E+01 0. -1.
         -5    1    4    4    0  502 -0.38900426735E+02 -0.12275663849E+02  0.16007665484E+02  0.44071197821E+02  0.47000000000E+01 0. -1.
          5    1    5    5  503    0  0.36939659923E+02  0.55843529136E+02  0.13982593949E+03  0.15510132680E+03  0.47000000000E+01 0.  1.
         -5    1    5    5    0  503 -0.63579050250E+02 -0.11882122051E+02  0.65166312502E+02  0.91935949118E+02  0.47000000000E+01 0.  1.
<mgrwt>
<rscale>  0 0.27375379E+03</rscale>
<asrwt>0</asrwt>
<pdfrwt beam="1">  1        1 0.68478666E-01 0.27375379E+03</pdfrwt>
<pdfrwt beam="2">  1       -1 0.64755741E-02 0.27375379E+03</pdfrwt>
<totfact> 0.62356538E+03</totfact>
</mgrwt>
</event>
<event>
 9    1  0.7944303E-001  0.2737087E+03  0.7818608E-02  0.1099176E+00
          3   -1    0    0  501    0  0.00000000000E+00  0.00000000000E+00  0.63608624040E+02  0.63608624040E+02  0.00000000000E+00 0.  1.
         -3   -1    0    0    0  501 -0.00000000000E+00 -0.00000000000E+00 -0.29444305665E+03  0.29444305665E+03  0.00000000000E+00 0.  1.
         35    2    1    2    0    0 -0.35527136788E-14  0.17763568394E-14 -0.23083443260E+03  0.35805168069E+03  0.27370873345E+03 0.  0.
         25    2    3    3    0    0 -0.13308393424E+02  0.82839331994E+01 -0.44745479585E+02  0.13377527847E+03  0.12509168758E+03 0.  0.
         25    2    3    3    0    0  0.13308393424E+02 -0.82839331994E+01 -0.18608895302E+03  0.22427640221E+03  0.12419770235E+03 0.  0.
          5    1    4    4  502    0  0.91702648317E+01  0.63669691976E+01 -0.85823869472E+02  0.86674440437E+02  0.47000000000E+01 0.  1.
         -5    1    4    4    0  502 -0.22478658256E+02  0.19169640018E+01  0.41078389888E+02  0.47100838037E+02  0.47000000000E+01 0.  1.
          5    1    5    5  503    0 -0.37219843348E+02  0.38103964627E+02 -0.10600357071E+03  0.11872689612E+03  0.47000000000E+01 0. -1.
         -5    1    5    5    0  503  0.50528236772E+02 -0.46387897827E+02 -0.80085382306E+02  0.10554950609E+03  0.47000000000E+01 0. -1.
<mgrwt>
<rscale>  0 0.27370873E+03</rscale>
<asrwt>0</asrwt>
<pdfrwt beam="1">  1        3 0.97859420E-02 0.27370873E+03</pdfrwt>
<pdfrwt beam="2">  1       -3 0.45298933E-01 0.27370873E+03</pdfrwt>
<totfact> 0.94570559E+02</totfact>
</mgrwt>
</event>
<event>
 9    1  0.7944303E-001  0.2776214E+03  0.7818608E-02  0.1096995E+00
         -1   -1    0    0    0  501 -0.00000000000E+00  0.00000000000E+00  0.12259448845E+02  0.12259448845E+02  0.00000000000E+00 0. -1.
          1   -1    0    0  501    0  0.00000000000E+00 -0.00000000000E+00 -0.15717196485E+04  0.15717196485E+04  0.00000000000E+00 0. -1.
         35    2    1    2    0    0  0.00000000000E+00  0.71054273576E-14 -0.15594601996E+04  0.15839790973E+04  0.27762144463E+03 0.  0.
         25    2    3    3    0    0  0.32373505296E+02  0.49296875430E+02 -0.82096390779E+03  0.83254358233E+03  0.12517528834E+03 0.  0.
         25    2    3    3    0    0 -0.32373505296E+02 -0.49296875430E+02 -0.73849629182E+03  0.75143551497E+03  0.12569938089E+03 0.  0.
          5    1    4    4  502    0  0.27618703091E+02 -0.21714116305E+02 -0.72623898127E+02  0.80812227951E+02  0.47000000000E+01 0. -1.
         -5    1    4    4    0  502  0.47548022057E+01  0.71010991735E+02 -0.74834000966E+03  0.75173135438E+03  0.47000000000E+01 0. -1.
          5    1    5    5  503    0 -0.80885265273E+02 -0.29201263117E+02 -0.45507601764E+03  0.46315376684E+03  0.47000000000E+01 0. -1.
         -5    1    5    5    0  503  0.48511759977E+02 -0.20095612313E+02 -0.28342027418E+03  0.28828174813E+03  0.47000000000E+01 0. -1.
<mgrwt>
<rscale>  0 0.27762144E+03</rscale>
<asrwt>0</asrwt>
<pdfrwt beam="1">  1        1 0.24180311E+00 0.27762144E+03</pdfrwt>
<pdfrwt beam="2">  1       -1 0.18860683E-02 0.27762144E+03</pdfrwt>
<totfact> 0.47943809E+03</totfact>
</mgrwt>
</event>
<event>
 9    1  0.7944303E-001  0.2713078E+03  0.7818608E-02  0.1100533E+00
         -2   -1    0    0    0  501 -0.00000000000E+00  0.00000000000E+00  0.11300897786E+03  0.11300897786E+03  0.00000000000E+00 0.  1.
          2   -1    0    0  501    0  0.00000000000E+00 -0.00000000000E+00 -0.16283641644E+03  0.16283641644E+03  0.00000000000E+00 0.  1.
         35    2    1    2    0    0  0.00000000000E+00  0.00000000000E+00 -0.49827438580E+02  0.27584539430E+03  0.27130777343E+03 0.  0.
         25    2    3    3    0    0 -0.33098134407E+02 -0.85533691452E+01  0.15351611373E+02  0.13071386410E+03  0.12522697661E+03 0.  0.
         25    2    3    3    0    0  0.33098134407E+02  0.85533691452E+01 -0.65179049953E+02  0.14513153020E+03  0.12508479477E+03 0.  0.
          5    1    4    4  502    0 -0.18706133775E+02 -0.88076649128E+01 -0.54898214312E+02  0.58850644318E+02  0.47000000000E+01 0. -1.
         -5    1    4    4    0  502 -0.14392000632E+02  0.25429576756E+00  0.70249825685E+02  0.71863219781E+02  0.47000000000E+01 0. -1.
          5    1    5    5  503    0 -0.13113491248E+02 -0.44150152725E+02  0.40864627426E+01  0.46475679835E+02  0.47000000000E+01 0.  1.
         -5    1    5    5    0  503  0.46211625655E+02  0.52703521871E+02 -0.69265512695E+02  0.98655850370E+02  0.47000000000E+01 0.  1.
<mgrwt>
<rscale>  0 0.27130777E+03</rscale>
<asrwt>0</asrwt>
<pdfrwt beam="1">  1        2 0.25051756E-01 0.27130777E+03</pdfrwt>
<pdfrwt beam="2">  1       -2 0.17385997E-01 0.27130777E+03</pdfrwt>
<totfact> 0.56860974E+03</totfact>
</mgrwt>
</event>
<event>
 9    1  0.7944303E-001  0.2747519E+03  0.7818608E-02  0.1098590E+00
          2   -1    0    0  501    0  0.00000000000E+00  0.00000000000E+00  0.13846615448E+04  0.13846615448E+04  0.00000000000E+00 0.  1.
         -2   -1    0    0    0  501 -0.00000000000E+00 -0.00000000000E+00 -0.13629431486E+02  0.13629431486E+02  0.00000000000E+00 0.  1.
         35    2    1    2    0    0  0.00000000000E+00  0.00000000000E+00  0.13710321133E+04  0.13982909763E+04  0.27475188557E+03 0.  0.
         25    2    3    3    0    0 -0.40701160864E+02  0.35894410498E+02  0.74929608169E+03  0.76175647629E+03  0.12602903607E+03 0.  0.
         25    2    3    3    0    0  0.40701160864E+02 -0.35894410498E+02  0.62173603160E+03  0.63653449997E+03  0.12520177101E+03 0.  0.
          5    1    4    4  502    0  0.51097156597E+01 -0.42822418922E+02  0.31625247863E+03  0.31921401754E+03  0.47000000000E+01 0.  1.
         -5    1    4    4    0  502 -0.45810876524E+02  0.78716829420E+02  0.43304360306E+03  0.44254245875E+03  0.47000000000E+01 0.  1.
          5    1    5    5  503    0  0.18355100899E+02 -0.58669521525E+02  0.58245935130E+03  0.58571324759E+03  0.47000000000E+01 0.  1.
         -5    1    5    5    0  503  0.22346059965E+02  0.22775111027E+02  0.39276680292E+02  0.50821252375E+02  0.47000000000E+01 0.  1.
<mgrwt>
<rscale>  0 0.27475189E+03</rscale>
<asrwt>0</asrwt>
<pdfrwt beam="1">  1        2 0.21302474E+00 0.27475189E+03</pdfrwt>
<pdfrwt beam="2">  1       -2 0.20968367E-02 0.27475189E+03</pdfrwt>
<totfact> 0.11354855E+04</totfact>
</mgrwt>
</event>
<event>
 9    1  0.7944303E-001  0.2745673E+03  0.7818608E-02  0.1098694E+00
          2   -1    0    0  501    0  0.00000000000E+00  0.00000000000E+00  0.79938143951E+02  0.79938143951E+02  0.00000000000E+00 0. -1.
         -2   -1    0    0    0  501 -0.00000000000E+00 -0.00000000000E+00 -0.23576732904E+03  0.23576732904E+03  0.00000000000E+00 0. -1.
         35    2    1    2    0    0 -0.14210854715E-13  0.00000000000E+00 -0.15582918509E+03  0.31570547299E+03  0.27456731552E+03 0.  0.
         25    2    3    3    0    0  0.51549157576E+02  0.27716138270E+02 -0.88554148033E+02  0.16343541137E+03  0.12427307266E+03 0.  0.
         25    2    3    3    0    0 -0.51549157576E+02 -0.27716138270E+02 -0.67275037053E+02  0.15227006162E+03  0.12342909336E+03 0.  0.
          5    1    4    4  502    0  0.11886418181E+02  0.15692425901E+02 -0.11319484871E+03  0.11499001236E+03  0.47000000000E+01 0.  1.
         -5    1    4    4    0  502  0.39662739395E+02  0.12023712370E+02  0.24640700679E+02  0.48445399011E+02  0.47000000000E+01 0.  1.
          5    1    5    5  503    0  0.24506139167E+00 -0.47288501208E+02  0.17723260926E+02  0.50719487177E+02  0.47000000000E+01 0. -1.
         -5    1    5    5    0  503 -0.51794218968E+02  0.19572362938E+02 -0.84998297979E+02  0.10155057444E+03  0.47000000000E+01 0. -1.
<mgrwt>
<rscale>  0 0.27456732E+03</rscale>
<asrwt>0</asrwt>
<pdfrwt beam="1">  1        2 0.12298176E-01 0.27456732E+03</pdfrwt>
<pdfrwt beam="2">  1       -2 0.36271896E-01 0.27456732E+03</pdfrwt>
<totfact> 0.35428893E+03</totfact>
</mgrwt>
</event>
<event>
 9    1  0.7944303E-001  0.2796222E+03  0.7818608E-02  0.1095895E+00
         -2   -1    0    0    0  501 -0.00000000000E+00  0.00000000000E+00  0.74262306895E+01  0.74262306895E+01  0.00000000000E+00 0.  1.
          2   -1    0    0  501    0  0.00000000000E+00 -0.00000000000E+00 -0.26321757567E+04  0.26321757567E+04  0.00000000000E+00 0.  1.
         35    2    1    2    0    0  0.00000000000E+00  0.14210854715E-13 -0.26247495260E+04  0.26396019874E+04  0.27962220502E+03 0.  0.
         25    2    3    3    0    0 -0.46840963367E+01  0.35432296868E+02 -0.18181143918E+04  0.18227660587E+04  0.12513502591E+03 0.  0.
         25    2    3    3    0    0  0.46840963367E+01 -0.35432296868E+02 -0.80663513421E+03  0.81683592868E+03  0.12362566972E+03 0.  0.
          5    1    4    4  502    0 -0.28431753233E+01  0.20524493708E+02 -0.46973050231E+02  0.51554785771E+02  0.47000000000E+01 0.  1.
         -5    1    4    4    0  502 -0.18409210134E+01  0.14907803160E+02 -0.17711413416E+04  0.17712112729E+04  0.47000000000E+01 0.  1.
          5    1    5    5  503    0 -0.13668494061E+02  0.33550408834E+02 -0.97800061017E+02  0.10440018964E+03  0.47000000000E+01 0.  1.
         -5    1    5    5    0  503  0.18352590398E+02 -0.68982705701E+02 -0.70883507320E+03  0.71243573904E+03  0.47000000000E+01 0.  1.
<mgrwt>
<rscale>  0 0.27962221E+03</rscale>
<asrwt>0</asrwt>
<pdfrwt beam="1">  1        2 0.40495037E+00 0.27962221E+03</pdfrwt>
<pdfrwt beam="2">  1       -2 0.11424963E-02 0.27962221E+03</pdfrwt>
<totfact> 0.59517651E+03</totfact>
</mgrwt>
</event>
<event>
 9    1  0.7944303E-001  0.2651932E+03  0.7818608E-02  0.1104063E+00
         -2   -1    0    0    0  501 -0.00000000000E+00  0.00000000000E+00  0.23655066988E+02  0.23655066988E+02  0.00000000000E+00 0. -1.
          2   -1    0    0  501    0  0.00000000000E+00 -0.00000000000E+00 -0.74325985344E+03  0.74325985344E+03  0.00000000000E+00 0. -1.
         35    2    1    2    0    0  0.71054273576E-14  0.71054273576E-14 -0.71960478645E+03  0.76691492042E+03  0.26519322482E+03 0.  0.
         25    2    3    3    0    0 -0.38190624024E+02 -0.24578229919E+02 -0.35955996773E+03  0.38330124425E+03  0.12479527356E+03 0.  0.
         25    2    3    3    0    0  0.38190624024E+02  0.24578229919E+02 -0.36004481872E+03  0.38361367617E+03  0.12435661587E+03 0.  0.
          5    1    4    4  502    0 -0.66050222436E+02 -0.57875213612E+02 -0.26330834376E+03  0.27760681931E+03  0.47000000000E+01 0. -1.
         -5    1    4    4    0  502  0.27859598411E+02  0.33296983693E+02 -0.96251623970E+02  0.10569442494E+03  0.47000000000E+01 0. -1.
          5    1    5    5  503    0 -0.43169989786E+02  0.25433052209E+02 -0.15501121146E+03  0.16297562345E+03  0.47000000000E+01 0. -1.
         -5    1    5    5    0  503  0.81360613811E+02 -0.85482228999E+00 -0.20503360726E+03  0.22063805271E+03  0.47000000000E+01 0. -1.
<mgrwt>
<rscale>  0 0.26519322E+03</rscale>
<asrwt>0</asrwt>
<pdfrwt beam="1">  1        2 0.11434767E+00 0.26519322E+03</pdfrwt>
<pdfrwt beam="2">  1       -2 0.36392411E-02 0.26519322E+03</pdfrwt>
<totfact> 0.12273216E+04</totfact>
</mgrwt>
</event>
<event>
 9    1  0.7944303E-001  0.2746561E+03  0.7818608E-02  0.1098644E+00
          1   -1    0    0  501    0  0.00000000000E+00  0.00000000000E+00  0.30206338614E+04  0.30206338614E+04  0.00000000000E+00 0. -1.
         -1   -1    0    0    0  501 -0.00000000000E+00 -0.00000000000E+00 -0.62433887320E+01  0.62433887320E+01  0.00000000000E+00 0. -1.
         35    2    1    2    0    0  0.71054273576E-14  0.00000000000E+00  0.30143904726E+04  0.30268772501E+04  0.27465608614E+03 0.  0.
         25    2    3    3    0    0  0.45834610512E+02 -0.15065485896E+01  0.11459985669E+04  0.11537765613E+04  0.12563660680E+03 0.  0.
         25    2    3    3    0    0 -0.45834610512E+02  0.15065485896E+01  0.18683919057E+04  0.18731006887E+04  0.12455840227E+03 0.  0.
          5    1    4    4  502    0  0.68044402715E+02  0.21412993152E+02  0.35532472295E+03  0.36244490031E+03  0.47000000000E+01 0. -1.
         -5    1    4    4    0  502 -0.22209792203E+02 -0.22919541742E+02  0.79067384395E+03  0.79133166104E+03  0.47000000000E+01 0. -1.
          5    1    5    5  503    0  0.46271989594E+01 -0.20398895405E+02  0.15363666956E+04  0.15365162672E+04  0.47000000000E+01 0.  1.
         -5    1    5    5    0  503 -0.50461809472E+02  0.21905443994E+02  0.33202521012E+03  0.33658442158E+03  0.47000000000E+01 0.  1.
<mgrwt>
<rscale>  0 0.27465609E+03</rscale>
<asrwt>0</asrwt>
<pdfrwt beam="1">  1        1 0.46471173E+00 0.27465609E+03</pdfrwt>
<pdfrwt beam="2">  1       -1 0.96052376E-03 0.27465609E+03</pdfrwt>
<totfact> 0.13959508E+03</totfact>
</mgrwt>
</event>
<event>
 9    1  0.7944303E-001  0.2902582E+03  0.7818608E-02  0.1090214E+00
          1   -1    0    0  501    0  0.00000000000E+00  0.00000000000E+00  0.13113921782E+04  0.13113921782E+04  0.00000000000E+00 0. -1.
         -1   -1    0    0    0  501 -0.00000000000E+00 -0.00000000000E+00 -0.16061140859E+02  0.16061140859E+02  0.00000000000E+00 0. -1.
         35    2    1    2    0    0  0.71054273576E-14 -0.21316282073E-13  0.12953310374E+04  0.13274533191E+04  0.29025819193E+03 0.  0.
         25    2    3    3    0    0 -0.34330877832E+02  0.47309242066E+02  0.44685758682E+03  0.46768322686E+03  0.12501649584E+03 0.  0.
         25    2    3    3    0    0  0.34330877832E+02 -0.47309242066E+02  0.84847345055E+03  0.85977009222E+03  0.12601841785E+03 0.  0.
          5    1    4    4  502    0 -0.66147605750E+02 -0.85102588100E+01  0.29928410828E+03  0.30666104696E+03  0.47000000000E+01 0. -1.
         -5    1    4    4    0  502  0.31816727917E+02  0.55819500876E+02  0.14757347854E+03  0.16102217990E+03  0.47000000000E+01 0. -1.
          5    1    5    5  503    0  0.28999634911E+02 -0.76889797830E+02  0.31982802552E+03  0.33025002005E+03  0.47000000000E+01 0. -1.
         -5    1    5    5    0  503  0.53312429215E+01  0.29580555764E+02  0.52864542503E+03  0.52952007217E+03  0.47000000000E+01 0. -1.
<mgrwt>
<rscale>  0 0.29025819E+03</rscale>
<asrwt>0</asrwt>
<pdfrwt beam="1">  1        1 0.20175256E+00 0.29025819E+03</pdfrwt>
<pdfrwt beam="2">  1       -1 0.24709458E-02 0.29025819E+03</pdfrwt>
<totfact> 0.48212449E+03</totfact>
</mgrwt>
</event>
<event>
 9    1  0.7944303E-001  0.2753379E+03  0.7818608E-02  0.1098263E+00
         -4   -1    0    0    0  501 -0.00000000000E+00  0.00000000000E+00  0.15233990164E+03  0.15233990164E+03  0.00000000000E+00 0. -1.
          4   -1    0    0  501    0  0.00000000000E+00 -0.00000000000E+00 -0.12441086163E+03  0.12441086163E+03  0.00000000000E+00 0. -1.
         35    2    1    2    0    0  0.00000000000E+00  0.35527136788E-14  0.27929040004E+02  0.27675076327E+03  0.27533789005E+03 0.  0.
         25    2    3    3    0    0 -0.64484856241E+01  0.29351970267E+02 -0.33143015153E+02  0.13408689431E+03  0.12640298512E+03 0.  0.
         25    2    3    3    0    0  0.64484856241E+01 -0.29351970267E+02  0.61072055157E+02  0.14266386896E+03  0.12537967324E+03 0.  0.
          5    1    4    4  502    0  0.41705128326E+02 -0.12842179413E+02 -0.51163046893E+02  0.67409099298E+02  0.47000000000E+01 0.  1.
         -5    1    4    4    0  502 -0.48153613951E+02  0.42194149679E+02  0.18020031740E+02  0.66677795011E+02  0.47000000000E+01 0.  1.
          5    1    5    5  503    0  0.40555123900E+02  0.27067147259E+02  0.58800250001E+02  0.76530437967E+02  0.47000000000E+01 0. -1.
         -5    1    5    5    0  503 -0.34106638276E+02 -0.56419117525E+02  0.22718051556E+01  0.66133430997E+02  0.47000000000E+01 0. -1.
<mgrwt>
<rscale>  0 0.27533789E+03</rscale>
<asrwt>0</asrwt>
<pdfrwt beam="1">  1        4 0.19140132E-01 0.27533789E+03</pdfrwt>
<pdfrwt beam="2">  1       -4 0.23436908E-01 0.27533789E+03</pdfrwt>
<totfact> 0.77363588E+02</totfact>
</mgrwt>
</event>
<event>
 9    1  0.7944303E-001  0.2744228E+03  0.7818608E-02  0.1098775E+00
          1   -1    0    0  501    0  0.00000000000E+00  0.00000000000E+00  0.21338101186E+04  0.21338101186E+04  0.00000000000E+00 0.  1.
         -1   -1    0    0    0  501 -0.00000000000E+00 -0.00000000000E+00 -0.88231703697E+01  0.88231703697E+01  0.00000000000E+00 0.  1.
         35    2    1    2    0    0  0.71054273576E-14  0.00000000000E+00  0.21249869482E+04  0.21426332890E+04  0.27442281401E+03 0.  0.
         25    2    3    3    0    0  0.22666767054E+02 -0.53377174797E+02  0.10982538875E+04  0.11068771843E+04  0.12511033036E+03 0.  0.
         25    2    3    3    0    0 -0.22666767054E+02  0.53377174797E+02  0.10267330607E+04  0.10357561046E+04  0.12347884471E+03 0.  0.
          5    1    4    4  502    0 -0.28863497512E+02 -0.63091972248E+02  0.86333006123E+03  0.86612619350E+03  0.47000000000E+01 0.  1.
         -5    1    4    4    0  502  0.51530264566E+02  0.97147974506E+01  0.23492382624E+03  0.24075099085E+03  0.47000000000E+01 0.  1.
          5    1    5    5  503    0  0.13025935628E+02 -0.18224110793E+02  0.42550502778E+02  0.48315923874E+02  0.47000000000E+01 0. -1.
         -5    1    5    5    0  503 -0.35692702682E+02  0.71601285590E+02  0.98418255797E+03  0.98744018073E+03  0.47000000000E+01 0. -1.
<mgrwt>
<rscale>  0 0.27442281E+03</rscale>
<asrwt>0</asrwt>
<pdfrwt beam="1">  1        1 0.32827807E+00 0.27442281E+03</pdfrwt>
<pdfrwt beam="2">  1       -1 0.13574125E-02 0.27442281E+03</pdfrwt>
<totfact> 0.33328381E+03</totfact>
</mgrwt>
</event>
<event>
 9    1  0.7944303E-001  0.2751829E+03  0.7818608E-02  0.1098349E+00
         -1   -1    0    0    0  501 -0.00000000000E+00  0.00000000000E+00  0.46778197264E+02  0.46778197264E+02  0.00000000000E+00 0. -1.
          1   -1    0    0  501    0  0.00000000000E+00 -0.00000000000E+00 -0.40470579198E+03  0.40470579198E+03  0.00000000000E+00 0. -1.
         35    2    1    2    0    0 -0.71054273576E-14 -0.17763568394E-14 -0.35792759472E+03  0.45148398925E+03  0.27518290188E+03 0.  0.
         25    2    3    3    0    0 -0.50215883464E+02 -0.15673547579E+02 -0.14306475468E+03  0.19725524033E+03  0.12519908450E+03 0.  0.
         25    2    3    3    0    0  0.50215883464E+02  0.15673547579E+02 -0.21486284004E+03  0.25422874891E+03  0.12529533791E+03 0.  0.
          5    1    4    4  502    0 -0.34836643261E+02  0.30208867786E+02 -0.20587879200E+00  0.46349755044E+02  0.47000000000E+01 0.  1.
         -5    1    4    4    0  502 -0.15379240203E+02 -0.45882415364E+02 -0.14285887589E+03  0.15090548529E+03  0.47000000000E+01 0.  1.
          5    1    5    5  503    0  0.56779592852E+02 -0.81399574724E+01 -0.22097926748E+03  0.22835084350E+03  0.47000000000E+01 0. -1.
         -5    1    5    5    0  503 -0.65637093880E+01  0.23813505051E+02  0.61164274465E+01  0.25877905411E+02  0.47000000000E+01 0. -1.
<mgrwt>
<rscale>  0 0.27518290E+03</rscale>
<asrwt>0</asrwt>
<pdfrwt beam="1">  1        1 0.62262429E-01 0.27518290E+03</pdfrwt>
<pdfrwt beam="2">  1       -1 0.71966458E-02 0.27518290E+03</pdfrwt>
<totfact> 0.60095314E+03</totfact>
</mgrwt>
</event>
<event>
 9    1  0.7944303E-001  0.2743708E+03  0.7818608E-02  0.1098804E+00
          1   -1    0    0  501    0  0.00000000000E+00  0.00000000000E+00  0.10896044847E+04  0.10896044847E+04  0.00000000000E+00 0. -1.
         -1   -1    0    0    0  501 -0.00000000000E+00 -0.00000000000E+00 -0.17272175318E+02  0.17272175318E+02  0.00000000000E+00 0. -1.
         35    2    1    2    0    0 -0.71054273576E-14 -0.35527136788E-14  0.10723323094E+04  0.11068766600E+04  0.27437084165E+03 0.  0.
         25    2    3    3    0    0 -0.46737911718E+02 -0.23397918465E+02  0.42954931124E+03  0.45003907601E+03  0.12365542513E+03 0.  0.
         25    2    3    3    0    0  0.46737911718E+02  0.23397918465E+02  0.64278299813E+03  0.65683758400E+03  0.12463440172E+03 0.  0.
          5    1    4    4  502    0  0.32702842310E+02 -0.39269886834E+02  0.20331312309E+03  0.20969004728E+03  0.47000000000E+01 0.  1.
         -5    1    4    4    0  502 -0.79440754028E+02  0.15871968369E+02  0.22623618816E+03  0.24034902873E+03  0.47000000000E+01 0.  1.
          5    1    5    5  503    0 -0.26798961522E+02  0.17100299189E+02  0.49850888125E+02  0.59311091862E+02  0.47000000000E+01 0. -1.
         -5    1    5    5    0  503  0.73536873240E+02  0.62976192760E+01  0.59293211000E+03  0.59752649214E+03  0.47000000000E+01 0. -1.
<mgrwt>
<rscale>  0 0.27437084E+03</rscale>
<asrwt>0</asrwt>
<pdfrwt beam="1">  1        1 0.16763140E+00 0.27437084E+03</pdfrwt>
<pdfrwt beam="2">  1       -1 0.26572586E-02 0.27437084E+03</pdfrwt>
<totfact> 0.61933535E+03</totfact>
</mgrwt>
</event>
<event>
 9    1  0.7944303E-001  0.2751598E+03  0.7818608E-02  0.1098362E+00
          2   -1    0    0  501    0  0.00000000000E+00  0.00000000000E+00  0.12185335147E+04  0.12185335147E+04  0.00000000000E+00 0. -1.
         -2   -1    0    0    0  501 -0.00000000000E+00 -0.00000000000E+00 -0.15533609347E+02  0.15533609347E+02  0.00000000000E+00 0. -1.
         35    2    1    2    0    0  0.48849813084E-14 -0.71054273576E-14  0.12029999054E+04  0.12340671241E+04  0.27515976154E+03 0.  0.
         25    2    3    3    0    0 -0.28328516381E+01  0.55560038695E+02  0.60055447116E+03  0.61629521115E+03  0.12672478648E+03 0.  0.
         25    2    3    3    0    0  0.28328516381E+01 -0.55560038695E+02  0.60244543420E+03  0.61777191290E+03  0.12492674747E+03 0.  0.
          5    1    4    4  502    0 -0.63146249996E+01 -0.34802702493E+02  0.30766753811E+03  0.30972973154E+03  0.47000000000E+01 0.  1.
         -5    1    4    4    0  502  0.34817733614E+01  0.90362741188E+02  0.29288693305E+03  0.30656547961E+03  0.47000000000E+01 0.  1.
          5    1    5    5  503    0  0.39327814314E+02 -0.12037509405E+02  0.48963790917E+03  0.49138472779E+03  0.47000000000E+01 0. -1.
         -5    1    5    5    0  503 -0.36494962676E+02 -0.43522529291E+02  0.11280752503E+03  0.12638718511E+03  0.47000000000E+01 0. -1.
<mgrwt>
<rscale>  0 0.27515976E+03</rscale>
<asrwt>0</asrwt>
<pdfrwt beam="1">  1        2 0.18746662E+00 0.27515976E+03</pdfrwt>
<pdfrwt beam="2">  1       -2 0.23897870E-02 0.27515976E+03</pdfrwt>
<totfact> 0.11572796E+04</totfact>
</mgrwt>
</event>
<event>
 9    1  0.7944303E-001  0.2740494E+03  0.7818608E-02  0.1098984E+00
         -1   -1    0    0    0  501 -0.00000000000E+00  0.00000000000E+00  0.27043921863E+03  0.27043921863E+03  0.00000000000E+00 0.  1.
          1   -1    0    0  501    0  0.00000000000E+00 -0.00000000000E+00 -0.69426960758E+02  0.69426960758E+02  0.00000000000E+00 0.  1.
         35    2    1    2    0    0 -0.35527136788E-14  0.00000000000E+00  0.20101225787E+03  0.33986617939E+03  0.27404943364E+03 0.  0.
         25    2    3    3    0    0  0.37695570387E+01 -0.50327934552E+02  0.14043587410E+03  0.19399925281E+03  0.12396114230E+03 0.  0.
         25    2    3    3    0    0 -0.37695570387E+01  0.50327934552E+02  0.60576383775E+02  0.14586692658E+03  0.12272143840E+03 0.  0.
          5    1    4    4  502    0 -0.54955010772E+02 -0.49946563393E+02  0.69848207732E+02  0.10205672211E+03  0.47000000000E+01 0. -1.
         -5    1    4    4    0  502  0.58724567811E+02 -0.38137115901E+00  0.70587666364E+02  0.91942530699E+02  0.47000000000E+01 0. -1.
          5    1    5    5  503    0 -0.13770234054E+02  0.56293370926E+02 -0.22130152602E+02  0.62212511686E+02  0.47000000000E+01 0.  1.
         -5    1    5    5    0  503  0.10000677015E+02 -0.59654363737E+01  0.82706536377E+02  0.83654414895E+02  0.47000000000E+01 0.  1.
<mgrwt>
<rscale>  0 0.27404943E+03</rscale>
<asrwt>0</asrwt>
<pdfrwt beam="1">  1        1 0.10681071E-01 0.27404943E+03</pdfrwt>
<pdfrwt beam="2">  1       -1 0.41606033E-01 0.27404943E+03</pdfrwt>
<totfact> 0.33605719E+03</totfact>
</mgrwt>
</event>
<event>
 9    1  0.7944303E-001  0.2748906E+03  0.7818608E-02  0.1098513E+00
          1   -1    0    0  501    0  0.00000000000E+00  0.00000000000E+00  0.28584990985E+03  0.28584990985E+03  0.00000000000E+00 0.  1.
         -1   -1    0    0    0  501 -0.00000000000E+00 -0.00000000000E+00 -0.66087855216E+02  0.66087855216E+02  0.00000000000E+00 0.  1.
         35    2    1    2    0    0  0.00000000000E+00 -0.35527136788E-14  0.21976205464E+03  0.35193776507E+03  0.27489057791E+03 0.  0.
         25    2    3    3    0    0 -0.49889798321E+02 -0.26245452488E+02  0.96179734628E+02  0.16744971077E+03  0.12494418166E+03 0.  0.
         25    2    3    3    0    0  0.49889798321E+02  0.26245452488E+02  0.12358232001E+03  0.18448805430E+03  0.12484164613E+03 0.  0.
          5    1    4    4  502    0  0.32474865267E+02 -0.41628816313E+02  0.41013484417E+02  0.67020676853E+02  0.47000000000E+01 0. -1.
         -5    1    4    4    0  502 -0.82364663588E+02  0.15383363825E+02  0.55166250211E+02  0.10042903391E+03  0.47000000000E+01 0. -1.
          5    1    5    5  503    0  0.86926533016E+02 -0.39859444898E+01  0.64934392138E+02  0.10867693029E+03  0.47000000000E+01 0.  1.
         -5    1    5    5    0  503 -0.37036734695E+02  0.30231396977E+02  0.58647927872E+02  0.75811124010E+02  0.47000000000E+01 0.  1.
<mgrwt>
<rscale>  0 0.27489058E+03</rscale>
<asrwt>0</asrwt>
<pdfrwt beam="1">  1        1 0.43976909E-01 0.27489058E+03</pdfrwt>
<pdfrwt beam="2">  1       -1 0.10167362E-01 0.27489058E+03</pdfrwt>
<totfact> 0.54967434E+03</totfact>
</mgrwt>
</event>
<event>
 9    1  0.7944303E-001  0.2759049E+03  0.7818608E-02  0.1097947E+00
         -2   -1    0    0    0  501 -0.00000000000E+00  0.00000000000E+00  0.11279378660E+04  0.11279378660E+04  0.00000000000E+00 0.  1.
          2   -1    0    0  501    0  0.00000000000E+00 -0.00000000000E+00 -0.16872276194E+02  0.16872276194E+02  0.00000000000E+00 0.  1.
         35    2    1    2    0    0  0.00000000000E+00  0.71054273576E-14  0.11110655898E+04  0.11448101422E+04  0.27590490539E+03 0.  0.
         25    2    3    3    0    0 -0.83460705482E+01  0.18805142195E+02  0.78602578750E+03  0.79605348348E+03  0.12426310663E+03 0.  0.
         25    2    3    3    0    0  0.83460705482E+01 -0.18805142195E+02  0.32503980234E+03  0.34875665875E+03  0.12472787841E+03 0.  0.
          5    1    4    4  502    0 -0.58461155719E+02  0.13900025890E+02  0.60809811993E+03  0.61107800722E+03  0.47000000000E+01 0. -1.
         -5    1    4    4    0  502  0.50115085170E+02  0.49051163046E+01  0.17792766758E+03  0.18497547626E+03  0.47000000000E+01 0. -1.
          5    1    5    5  503    0  0.16934133725E+02 -0.65817843490E+02  0.25423162990E+03  0.26320061749E+03  0.47000000000E+01 0.  1.
         -5    1    5    5    0  503 -0.85880631768E+01  0.47012701295E+02  0.70808172441E+02  0.85556041263E+02  0.47000000000E+01 0.  1.
<mgrwt>
<rscale>  0 0.27590491E+03</rscale>
<asrwt>0</asrwt>
<pdfrwt beam="1">  1        2 0.25957357E-02 0.27590491E+03</pdfrwt>
<pdfrwt beam="2">  1       -2 0.17352884E+00 0.27590491E+03</pdfrwt>
<totfact> 0.82266668E+02</totfact>
</mgrwt>
</event>
<event>
 9    1  0.7944303E-001  0.2776276E+03  0.7818608E-02  0.1096992E+00
         -2   -1    0    0    0  501 -0.00000000000E+00  0.00000000000E+00  0.18872051764E+02  0.18872051764E+02  0.00000000000E+00 0.  1.
          2   -1    0    0  501    0  0.00000000000E+00 -0.00000000000E+00 -0.10210479295E+04  0.10210479295E+04  0.00000000000E+00 0.  1.
         35    2    1    2    0    0  0.71054273576E-14  0.17763568394E-14 -0.10021758778E+04  0.10399199813E+04  0.27762758782E+03 0.  0.
         25    2    3    3    0    0  0.56841981391E+02 -0.14719392489E+02 -0.44589949773E+03  0.46691492900E+03  0.12544129098E+03 0.  0.
         25    2    3    3    0    0 -0.56841981391E+02  0.14719392489E+02 -0.55627638005E+03  0.57300505231E+03  0.12427271465E+03 0.  0.
          5    1    4    4  502    0  0.61274617627E+02 -0.70060779139E+01 -0.81189151150E+02  0.10206582267E+03  0.47000000000E+01 0. -1.
         -5    1    4    4    0  502 -0.44326362359E+01 -0.77133145752E+01 -0.36471034658E+03  0.36484910633E+03  0.47000000000E+01 0. -1.
          5    1    5    5  503    0 -0.81783344452E+02 -0.28990242674E+02 -0.35410661159E+03  0.36461285218E+03  0.47000000000E+01 0.  1.
         -5    1    5    5    0  503  0.24941363060E+02  0.43709635163E+02 -0.20216976845E+03  0.20839220013E+03  0.47000000000E+01 0.  1.
<mgrwt>
<rscale>  0 0.27762759E+03</rscale>
<asrwt>0</asrwt>
<pdfrwt beam="1">  1        2 0.15708438E+00 0.27762759E+03</pdfrwt>
<pdfrwt beam="2">  1       -2 0.29033910E-02 0.27762759E+03</pdfrwt>
<totfact> 0.11313435E+04</totfact>
</mgrwt>
</event>
<event>
 9    1  0.7944303E-001  0.2775200E+03  0.7818608E-02  0.1097051E+00
         -2   -1    0    0    0  501 -0.00000000000E+00  0.00000000000E+00  0.12327731886E+02  0.12327731886E+02  0.00000000000E+00 0. -1.
          2   -1    0    0  501    0  0.00000000000E+00 -0.00000000000E+00 -0.15618714653E+04  0.15618714653E+04  0.00000000000E+00 0. -1.
         35    2    1    2    0    0  0.35527136788E-14 -0.14210854715E-13 -0.15495437334E+04  0.15741991972E+04  0.27751996443E+03 0.  0.
         25    2    3    3    0    0  0.49820434268E+01 -0.65461070414E+02 -0.86190683610E+03  0.87315639592E+03  0.12332366003E+03 0.  0.
         25    2    3    3    0    0 -0.49820434268E+01  0.65461070414E+02 -0.68763689729E+03  0.70104280124E+03  0.11960992502E+03 0.  0.
          5    1    4    4  502    0  0.36988240602E+02 -0.22024450019E+02 -0.71944434826E+03  0.72074646485E+03  0.47000000000E+01 0. -1.
         -5    1    4    4    0  502 -0.32006197175E+02 -0.43436620395E+02 -0.14246248784E+03  0.15240993107E+03  0.47000000000E+01 0. -1.
          5    1    5    5  503    0 -0.42705904052E+01 -0.15136394178E+02 -0.11356803474E+02  0.19960344593E+02  0.47000000000E+01 0.  1.
         -5    1    5    5    0  503 -0.71145302159E+00  0.80597464592E+02 -0.67628009382E+03  0.68108245665E+03  0.47000000000E+01 0.  1.
<mgrwt>
<rscale>  0 0.27751996E+03</rscale>
<asrwt>0</asrwt>
<pdfrwt beam="1">  1        2 0.24028806E+00 0.27751996E+03</pdfrwt>
<pdfrwt beam="2">  1       -2 0.18965730E-02 0.27751996E+03</pdfrwt>
<totfact> 0.10572092E+04</totfact>
</mgrwt>
</event>
<event>
 9    1  0.7944303E-001  0.2731617E+03  0.7818608E-02  0.1099484E+00
          2   -1    0    0  501    0  0.00000000000E+00  0.00000000000E+00  0.56113625504E+03  0.56113625504E+03  0.00000000000E+00 0. -1.
         -2   -1    0    0    0  501 -0.00000000000E+00 -0.00000000000E+00 -0.33243842877E+02  0.33243842877E+02  0.00000000000E+00 0. -1.
         35    2    1    2    0    0  0.35527136788E-14  0.00000000000E+00  0.52789241216E+03  0.59438009792E+03  0.27316167737E+03 0.  0.
         25    2    3    3    0    0  0.29683917127E+02  0.22264658162E+01  0.16210506588E+03  0.20680132562E+03  0.12491054322E+03 0.  0.
         25    2    3    3    0    0 -0.29683917127E+02 -0.22264658162E+01  0.36578734628E+03  0.38757877230E+03  0.12462275052E+03 0.  0.
          5    1    4    4  502    0 -0.25864794708E+02  0.42481680715E+02  0.31100995735E+02  0.58847623039E+02  0.47000000000E+01 0.  1.
         -5    1    4    4    0  502  0.55548711834E+02 -0.40255214899E+02  0.13100407014E+03  0.14795370258E+03  0.47000000000E+01 0.  1.
          5    1    5    5  503    0 -0.74660201019E+02 -0.22533834209E+02  0.23896148616E+03  0.25140923048E+03  0.47000000000E+01 0. -1.
         -5    1    5    5    0  503  0.44976283893E+02  0.20307368393E+02  0.12682586012E+03  0.13616954182E+03  0.47000000000E+01 0. -1.
<mgrwt>
<rscale>  0 0.27316168E+03</rscale>
<asrwt>0</asrwt>
<pdfrwt beam="1">  1        2 0.86328647E-01 0.27316168E+03</pdfrwt>
<pdfrwt beam="2">  1       -2 0.51144378E-02 0.27316168E+03</pdfrwt>
<totfact> 0.10261845E+04</totfact>
</mgrwt>
</event>
<event>
 9    1  0.7944303E-001  0.2757814E+03  0.7818608E-02  0.1098016E+00
         -1   -1    0    0    0  501 -0.00000000000E+00  0.00000000000E+00  0.48369507277E+03  0.48369507277E+03  0.00000000000E+00 0. -1.
          1   -1    0    0  501    0  0.00000000000E+00 -0.00000000000E+00 -0.39309579059E+02  0.39309579059E+02  0.00000000000E+00 0. -1.
         35    2    1    2    0    0 -0.35527136788E-14  0.71054273576E-14  0.44438549371E+03  0.52300465183E+03  0.27578143305E+03 0.  0.
         25    2    3    3    0    0  0.36929195521E+01  0.11861637904E+02  0.33148102287E+03  0.35473309934E+03  0.12570428447E+03 0.  0.
         25    2    3    3    0    0 -0.36929195521E+01 -0.11861637904E+02  0.11290447084E+03  0.16827155249E+03  0.12415135816E+03 0.  0.
          5    1    4    4  502    0  0.39710167724E+02  0.22484831766E+02  0.40178180432E+02  0.60982302868E+02  0.47000000000E+01 0. -1.
         -5    1    4    4    0  502 -0.36017248172E+02 -0.10623193862E+02  0.29130284244E+03  0.29375079647E+03  0.47000000000E+01 0. -1.
          5    1    5    5  503    0 -0.26802046009E+02 -0.59387539706E+02  0.35264692485E+02  0.74235558048E+02  0.47000000000E+01 0. -1.
         -5    1    5    5    0  503  0.23109126457E+02  0.47525901802E+02  0.77639778352E+02  0.94035994440E+02  0.47000000000E+01 0. -1.
<mgrwt>
<rscale>  0 0.27578143E+03</rscale>
<asrwt>0</asrwt>
<pdfrwt beam="1">  1        1 0.60476279E-02 0.27578143E+03</pdfrwt>
<pdfrwt beam="2">  1       -1 0.74414622E-01 0.27578143E+03</pdfrwt>
<totfact> 0.24158720E+03</totfact>
</mgrwt>
</event>
<event>
 9    1  0.7944303E-001  0.2769945E+03  0.7818608E-02  0.1097342E+00
         -1   -1    0    0    0  501 -0.00000000000E+00  0.00000000000E+00  0.46199966398E+02  0.46199966398E+02  0.00000000000E+00 0.  1.
          1   -1    0    0  501    0  0.00000000000E+00 -0.00000000000E+00 -0.41518391905E+03  0.41518391905E+03  0.00000000000E+00 0.  1.
         35    2    1    2    0    0  0.00000000000E+00  0.71054273576E-14 -0.36898395265E+03  0.46138388545E+03  0.27699446283E+03 0.  0.
         25    2    3    3    0    0  0.31095943830E+02 -0.39950381913E+02 -0.23588773932E+03  0.27178852834E+03  0.12515185909E+03 0.  0.
         25    2    3    3    0    0 -0.31095943830E+02  0.39950381913E+02 -0.13309621333E+03  0.18959535711E+03  0.12517510415E+03 0.  0.
          5    1    4    4  502    0  0.78634257077E+02 -0.37157974601E+02 -0.15587708759E+03  0.17856040406E+03  0.47000000000E+01 0.  1.
         -5    1    4    4    0  502 -0.47538313247E+02 -0.27924073124E+01 -0.80010651731E+02  0.93228124272E+02  0.47000000000E+01 0.  1.
          5    1    5    5  503    0 -0.79139403623E+02  0.31918436908E+02 -0.93243021275E+02  0.12648392324E+03  0.47000000000E+01 0.  1.
         -5    1    5    5    0  503  0.48043459793E+02  0.80319450056E+01 -0.39853192053E+02  0.63111433879E+02  0.47000000000E+01 0.  1.
<mgrwt>
<rscale>  0 0.27699446E+03</rscale>
<asrwt>0</asrwt>
<pdfrwt beam="1">  1        1 0.63874448E-01 0.27699446E+03</pdfrwt>
<pdfrwt beam="2">  1       -1 0.71076873E-02 0.27699446E+03</pdfrwt>
<totfact> 0.59272748E+03</totfact>
</mgrwt>
</event>
<event>
 9    1  0.7944303E-001  0.2760535E+03  0.7818608E-02  0.1097864E+00
         -4   -1    0    0    0  501 -0.00000000000E+00  0.00000000000E+00  0.98586957685E+01  0.98586957685E+01  0.00000000000E+00 0.  1.
          4   -1    0    0  501    0  0.00000000000E+00 -0.00000000000E+00 -0.19324442548E+04  0.19324442548E+04  0.00000000000E+00 0.  1.
         35    2    1    2    0    0  0.17763568394E-14  0.21316282073E-13 -0.19225855591E+04  0.19423029506E+04  0.27605347307E+03 0.  0.
         25    2    3    3    0    0  0.32087708163E+01  0.40232867110E+02 -0.12561941091E+04  0.12630759407E+04  0.12533240738E+03 0.  0.
         25    2    3    3    0    0 -0.32087708163E+01 -0.40232867110E+02 -0.66639144995E+03  0.67922700993E+03  0.12507112632E+03 0.  0.
          5    1    4    4  502    0 -0.38894579483E+02 -0.28803180954E+02 -0.36857519469E+03  0.37176898161E+03  0.47000000000E+01 0. -1.
         -5    1    4    4    0  502  0.42103350300E+02  0.69036048065E+02 -0.88761891443E+03  0.89130695907E+03  0.47000000000E+01 0. -1.
          5    1    5    5  503    0 -0.18032053070E+02  0.21317683009E+02 -0.50507736592E+03  0.50587037283E+03  0.47000000000E+01 0. -1.
         -5    1    5    5    0  503  0.14823282254E+02 -0.61550550119E+02 -0.16131408404E+03  0.17335663710E+03  0.47000000000E+01 0. -1.
<mgrwt>
<rscale>  0 0.27605347E+03</rscale>
<asrwt>0</asrwt>
<pdfrwt beam="1">  1        4 0.29729947E+00 0.27605347E+03</pdfrwt>
<pdfrwt beam="2">  1       -4 0.15167206E-02 0.27605347E+03</pdfrwt>
<totfact> 0.10954815E+02</totfact>
</mgrwt>
</event>
<event>
 9    1  0.7944303E-001  0.2766096E+03  0.7818608E-02  0.1097555E+00
          1   -1    0    0  501    0  0.00000000000E+00  0.00000000000E+00  0.44795203029E+02  0.44795203029E+02  0.00000000000E+00 0. -1.
         -1   -1    0    0    0  501 -0.00000000000E+00 -0.00000000000E+00 -0.42701473468E+03  0.42701473468E+03  0.00000000000E+00 0. -1.
         35    2    1    2    0    0  0.00000000000E+00  0.00000000000E+00 -0.38221953165E+03  0.47180993771E+03  0.27660955686E+03 0.  0.
         25    2    3    3    0    0  0.34041286715E+02  0.56498908418E+02 -0.24992019690E+03  0.28707494422E+03  0.12490389475E+03 0.  0.
         25    2    3    3    0    0 -0.34041286715E+02 -0.56498908418E+02 -0.13229933475E+03  0.18473499349E+03  0.11078342832E+03 0.  0.
          5    1    4    4  502    0  0.20832944801E+01  0.10973175640E+02  0.13304851855E+02  0.17996104645E+02  0.47000000000E+01 0.  1.
         -5    1    4    4    0  502  0.31957992235E+02  0.45525732778E+02 -0.26322504876E+03  0.26907883957E+03  0.47000000000E+01 0.  1.
          5    1    5    5  503    0 -0.38540286241E+02 -0.21757159799E+01  0.27903477840E+01  0.38986708560E+02  0.47000000000E+01 0. -1.
         -5    1    5    5    0  503  0.44989995260E+01 -0.54323192438E+02 -0.13508968253E+03  0.14574828493E+03  0.47000000000E+01 0. -1.
<mgrwt>
<rscale>  0 0.27660956E+03</rscale>
<asrwt>0</asrwt>
<pdfrwt beam="1">  1        1 0.68915697E-02 0.27660956E+03</pdfrwt>
<pdfrwt beam="2">  1       -1 0.65694575E-01 0.27660956E+03</pdfrwt>
<totfact> 0.25905774E+03</totfact>
</mgrwt>
</event>
<event>
 9    1  0.7944303E-001  0.2724239E+03  0.7818608E-02  0.1099900E+00
          4   -1    0    0  501    0  0.00000000000E+00  0.00000000000E+00  0.32487309082E+02  0.32487309082E+02  0.00000000000E+00 0.  1.
         -4   -1    0    0    0  501 -0.00000000000E+00 -0.00000000000E+00 -0.57110574313E+03  0.57110574313E+03  0.00000000000E+00 0.  1.
         35    2    1    2    0    0  0.71054273576E-14  0.00000000000E+00 -0.53861843405E+03  0.60359305221E+03  0.27242385208E+03 0.  0.
         25    2    3    3    0    0  0.36472975990E+02 -0.20780214863E+02 -0.19238945687E+03  0.23295466079E+03  0.12446716661E+03 0.  0.
         25    2    3    3    0    0 -0.36472975990E+02  0.20780214863E+02 -0.34622897718E+03  0.37063839142E+03  0.12544408016E+03 0.  0.
          5    1    4    4  502    0  0.64774692065E+02 -0.44837338848E+02 -0.17438123587E+03  0.19140808006E+03  0.47000000000E+01 0. -1.
         -5    1    4    4    0  502 -0.28301716075E+02  0.24057123985E+02 -0.18008220994E+02  0.41546580733E+02  0.47000000000E+01 0. -1.
          5    1    5    5  503    0 -0.53412986669E+02 -0.55596942242E+01 -0.52636179774E+02  0.75342649050E+02  0.47000000000E+01 0. -1.
         -5    1    5    5    0  503  0.16940010679E+02  0.26339909087E+02 -0.29359279741E+03  0.29529574237E+03  0.47000000000E+01 0. -1.
<mgrwt>
<rscale>  0 0.27242385E+03</rscale>
<asrwt>0</asrwt>
<pdfrwt beam="1">  1        4 0.49980480E-02 0.27242385E+03</pdfrwt>
<pdfrwt beam="2">  1       -4 0.87862415E-01 0.27242385E+03</pdfrwt>
<totfact> 0.51422438E+02</totfact>
</mgrwt>
</event>
<event>
 9    1  0.7944303E-001  0.2684048E+03  0.7818608E-02  0.1102196E+00
         -2   -1    0    0    0  501 -0.00000000000E+00  0.00000000000E+00  0.27940509487E+02  0.27940509487E+02  0.00000000000E+00 0.  1.
          2   -1    0    0  501    0  0.00000000000E+00 -0.00000000000E+00 -0.64459404210E+03  0.64459404210E+03  0.00000000000E+00 0.  1.
         35    2    1    2    0    0 -0.35527136788E-14 -0.14210854715E-13 -0.61665353261E+03  0.67253455159E+03  0.26840481329E+03 0.  0.
         25    2    3    3    0    0  0.15692362689E+02  0.43480090740E+02 -0.35304725643E+03  0.37711801811E+03  0.12425323246E+03 0.  0.
         25    2    3    3    0    0 -0.15692362689E+02 -0.43480090740E+02 -0.26360627618E+03  0.29541653347E+03  0.12508353556E+03 0.  0.
          5    1    4    4  502    0  0.29188592576E+01  0.80665573784E+02 -0.15158360375E+03  0.17179968993E+03  0.47000000000E+01 0.  1.
         -5    1    4    4    0  502  0.12773503431E+02 -0.37185483043E+02 -0.20146365268E+03  0.20531832818E+03  0.47000000000E+01 0.  1.
          5    1    5    5  503    0  0.20669149821E+02 -0.13525785321E+02 -0.24212405946E+03  0.24342619167E+03  0.47000000000E+01 0.  1.
         -5    1    5    5    0  503 -0.36361512510E+02 -0.29954305419E+02 -0.21482216725E+02  0.51990341801E+02  0.47000000000E+01 0.  1.
<mgrwt>
<rscale>  0 0.26840481E+03</rscale>
<asrwt>0</asrwt>
<pdfrwt beam="1">  1        2 0.99168312E-01 0.26840481E+03</pdfrwt>
<pdfrwt beam="2">  1       -2 0.42985400E-02 0.26840481E+03</pdfrwt>
<totfact> 0.11357029E+04</totfact>
</mgrwt>
</event>
<event>
 9    1  0.7944303E-001  0.2770819E+03  0.7818608E-02  0.1097294E+00
          2   -1    0    0  501    0  0.00000000000E+00  0.00000000000E+00  0.62499266971E+03  0.62499266971E+03  0.00000000000E+00 0. -1.
         -2   -1    0    0    0  501 -0.00000000000E+00 -0.00000000000E+00 -0.30710105025E+02  0.30710105025E+02  0.00000000000E+00 0. -1.
         35    2    1    2    0    0  0.00000000000E+00  0.00000000000E+00  0.59428256469E+03  0.65570277474E+03  0.27708186896E+03 0.  0.
         25    2    3    3    0    0 -0.33692388594E+02 -0.11377559182E+02  0.42085042945E+03  0.44024483077E+03  0.12424089964E+03 0.  0.
         25    2    3    3    0    0  0.33692388594E+02  0.11377559182E+02  0.17343213523E+03  0.21545794397E+03  0.12279574173E+03 0.  0.
          5    1    4    4  502    0 -0.75802654110E+02 -0.15112891106E+02  0.34195429812E+03  0.35061271205E+03  0.47000000000E+01 0.  1.
         -5    1    4    4    0  502  0.42110265516E+02  0.37353319238E+01  0.78896131337E+02  0.89632118721E+02  0.47000000000E+01 0.  1.
          5    1    5    5  503    0 -0.17584775205E+02 -0.40190710049E+02  0.11117881681E+03  0.11961328020E+03  0.47000000000E+01 0. -1.
         -5    1    5    5    0  503  0.51277163799E+02  0.51568269231E+02  0.62253318428E+02  0.95844663775E+02  0.47000000000E+01 0. -1.
<mgrwt>
<rscale>  0 0.27708187E+03</rscale>
<asrwt>0</asrwt>
<pdfrwt beam="1">  1        2 0.96152709E-01 0.27708187E+03</pdfrwt>
<pdfrwt beam="2">  1       -2 0.47246320E-02 0.27708187E+03</pdfrwt>
<totfact> 0.10221903E+04</totfact>
</mgrwt>
</event>
<event>
 9    1  0.7944303E-001  0.2735041E+03  0.7818608E-02  0.1099291E+00
          4   -1    0    0  501    0  0.00000000000E+00  0.00000000000E+00  0.23841231860E+02  0.23841231860E+02  0.00000000000E+00 0. -1.
         -4   -1    0    0    0  501 -0.00000000000E+00 -0.00000000000E+00 -0.78440256801E+03  0.78440256801E+03  0.00000000000E+00 0. -1.
         35    2    1    2    0    0 -0.71054273576E-14 -0.14210854715E-13 -0.76056133616E+03  0.80824379987E+03  0.27350410231E+03 0.  0.
         25    2    3    3    0    0 -0.17756859125E+02 -0.43782484607E+02 -0.28964417697E+03  0.31882750476E+03  0.12459942430E+03 0.  0.
         25    2    3    3    0    0  0.17756859125E+02  0.43782484607E+02 -0.47091715918E+03  0.48941629511E+03  0.12463196662E+03 0.  0.
          5    1    4    4  502    0 -0.20438772152E+02 -0.55137318732E+02 -0.45862801754E+02  0.74721843585E+02  0.47000000000E+01 0.  1.
         -5    1    4    4    0  502  0.26819130271E+01  0.11354834125E+02 -0.24378137522E+03  0.24410566118E+03  0.47000000000E+01 0.  1.
          5    1    5    5  503    0  0.52655162542E+02 -0.33614502721E+01 -0.35981721360E+03  0.36369545322E+03  0.47000000000E+01 0.  1.
         -5    1    5    5    0  503 -0.34898303417E+02  0.47143934879E+02 -0.11109994558E+03  0.12572084189E+03  0.47000000000E+01 0.  1.
<mgrwt>
<rscale>  0 0.27350410E+03</rscale>
<asrwt>0</asrwt>
<pdfrwt beam="1">  1        4 0.36678815E-02 0.27350410E+03</pdfrwt>
<pdfrwt beam="2">  1       -4 0.12067733E+00 0.27350410E+03</pdfrwt>
<totfact> 0.40066617E+02</totfact>
</mgrwt>
</event>
<event>
 9    1  0.7944303E-001  0.2803327E+03  0.7818608E-02  0.1095507E+00
         -2   -1    0    0    0  501 -0.00000000000E+00  0.00000000000E+00  0.20581138293E+02  0.20581138293E+02  0.00000000000E+00 0. -1.
          2   -1    0    0  501    0  0.00000000000E+00 -0.00000000000E+00 -0.95459257380E+03  0.95459257380E+03  0.00000000000E+00 0. -1.
         35    2    1    2    0    0 -0.71054273576E-14 -0.71054273576E-14 -0.93401143551E+03  0.97517371209E+03  0.28033267219E+03 0.  0.
         25    2    3    3    0    0  0.48096329304E+02 -0.46101035710E+02 -0.47631227345E+03  0.49601497012E+03  0.12132149998E+03 0.  0.
         25    2    3    3    0    0 -0.48096329304E+02  0.46101035710E+02 -0.45769916205E+03  0.47915874197E+03  0.12516395118E+03 0.  0.
          5    1    4    4  502    0  0.48833380314E+02 -0.83605419029E+02 -0.38849261807E+03  0.40040375799E+03  0.47000000000E+01 0.  1.
         -5    1    4    4    0  502 -0.73705100914E+00  0.37504383318E+02 -0.87819655388E+02  0.95611212128E+02  0.47000000000E+01 0.  1.
          5    1    5    5  503    0 -0.26363415937E+02  0.18634845278E+02 -0.16524401874E+02  0.36570931294E+02  0.47000000000E+01 0.  1.
         -5    1    5    5    0  503 -0.21732913367E+02  0.27466190432E+02 -0.44117476018E+03  0.44258781068E+03  0.47000000000E+01 0.  1.
<mgrwt>
<rscale>  0 0.28033267E+03</rscale>
<asrwt>0</asrwt>
<pdfrwt beam="1">  1        2 0.14686034E+00 0.28033267E+03</pdfrwt>
<pdfrwt beam="2">  1       -2 0.31663301E-02 0.28033267E+03</pdfrwt>
<totfact> 0.10930163E+04</totfact>
</mgrwt>
</event>
<event>
 9    1  0.7944303E-001  0.2772096E+03  0.7818608E-02  0.1097223E+00
          2   -1    0    0  501    0  0.00000000000E+00  0.00000000000E+00  0.54697580433E+02  0.54697580433E+02  0.00000000000E+00 0. -1.
         -2   -1    0    0    0  501 -0.00000000000E+00 -0.00000000000E+00 -0.35122733157E+03  0.35122733157E+03  0.00000000000E+00 0. -1.
         35    2    1    2    0    0 -0.71054273576E-14 -0.71054273576E-14 -0.29652975114E+03  0.40592491200E+03  0.27720956130E+03 0.  0.
         25    2    3    3    0    0 -0.44721906200E+02  0.18678164115E+02 -0.97909585029E+02  0.16629104728E+03  0.12536946541E+03 0.  0.
         25    2    3    3    0    0  0.44721906200E+02 -0.18678164115E+02 -0.19862016611E+03  0.23963386472E+03  0.12500198409E+03 0.  0.
          5    1    4    4  502    0 -0.66366812797E+01  0.52995805765E+02 -0.10138906156E+03  0.11469277558E+03  0.47000000000E+01 0. -1.
         -5    1    4    4    0  502 -0.38085224920E+02 -0.34317641650E+02  0.34794765284E+01  0.51598271701E+02  0.47000000000E+01 0. -1.
          5    1    5    5  503    0  0.53612951840E+02  0.37634864330E+02 -0.57228140170E+02  0.87108447612E+02  0.47000000000E+01 0.  1.
         -5    1    5    5    0  503 -0.88910456405E+01 -0.56313028445E+02 -0.14139202594E+03  0.15252541711E+03  0.47000000000E+01 0.  1.
<mgrwt>
<rscale>  0 0.27720956E+03</rscale>
<asrwt>0</asrwt>
<pdfrwt beam="1">  1        2 0.84150124E-02 0.27720956E+03</pdfrwt>
<pdfrwt beam="2">  1       -2 0.54034974E-01 0.27720956E+03</pdfrwt>
<totfact> 0.26088307E+03</totfact>
</mgrwt>
</event>
<event>
 9    1  0.7944303E-001  0.2732652E+03  0.7818608E-02  0.1099425E+00
         -4   -1    0    0    0  501 -0.00000000000E+00  0.00000000000E+00  0.31619594854E+02  0.31619594854E+02  0.00000000000E+00 0.  1.
          4   -1    0    0  501    0  0.00000000000E+00 -0.00000000000E+00 -0.59040834824E+03  0.59040834824E+03  0.00000000000E+00 0.  1.
         35    2    1    2    0    0 -0.35527136788E-14  0.14210854715E-13 -0.55878875339E+03  0.62202794310E+03  0.27326523943E+03 0.  0.
         25    2    3    3    0    0 -0.28793807788E+02  0.37266239950E+02 -0.21470181585E+03  0.25293853412E+03  0.12515261207E+03 0.  0.
         25    2    3    3    0    0  0.28793807788E+02 -0.37266239950E+02 -0.34408693754E+03  0.36908940897E+03  0.12495325216E+03 0.  0.
          5    1    4    4  502    0  0.37186746509E+02  0.45239535629E+02 -0.14531939412E+03  0.15674592820E+03  0.47000000000E+01 0. -1.
         -5    1    4    4    0  502 -0.65980554297E+02 -0.79732956788E+01 -0.69382421733E+02  0.96192605926E+02  0.47000000000E+01 0. -1.
          5    1    5    5  503    0  0.16859583606E+02 -0.39346583819E+02 -0.35150095562E+03  0.35412908807E+03  0.47000000000E+01 0. -1.
         -5    1    5    5    0  503  0.11934224182E+02  0.20803438694E+01  0.74140180791E+01  0.14960320903E+02  0.47000000000E+01 0. -1.
<mgrwt>
<rscale>  0 0.27326524E+03</rscale>
<asrwt>0</asrwt>
<pdfrwt beam="1">  1        4 0.90832049E-01 0.27326524E+03</pdfrwt>
<pdfrwt beam="2">  1       -4 0.48645533E-02 0.27326524E+03</pdfrwt>
<totfact> 0.49821390E+02</totfact>
</mgrwt>
</event>
<event>
 9    1  0.7944303E-001  0.2709555E+03  0.7818608E-02  0.1100734E+00
          1   -1    0    0  501    0  0.00000000000E+00  0.00000000000E+00  0.15924757520E+04  0.15924757520E+04  0.00000000000E+00 0.  1.
         -1   -1    0    0    0  501 -0.00000000000E+00 -0.00000000000E+00 -0.11525589465E+02  0.11525589465E+02  0.00000000000E+00 0.  1.
         35    2    1    2    0    0  0.35527136788E-14 -0.71054273576E-14  0.15809501625E+04  0.16040013415E+04  0.27095550743E+03 0.  0.
         25    2    3    3    0    0 -0.10789665461E+02  0.27815975681E+02  0.53800481490E+03  0.55312430804E+03  0.12492867527E+03 0.  0.
         25    2    3    3    0    0  0.10789665461E+02 -0.27815975681E+02  0.10429453476E+04  0.10508770334E+04  0.12536903862E+03 0.  0.
          5    1    4    4  502    0 -0.22010343970E+02 -0.45178822515E+02  0.15420992704E+03  0.16226020104E+03  0.47000000000E+01 0. -1.
         -5    1    4    4    0  502  0.11220678509E+02  0.72994798196E+02  0.38379488786E+03  0.39086410700E+03  0.47000000000E+01 0. -1.
          5    1    5    5  503    0  0.63002629612E+02  0.10356496181E+02  0.51743708086E+03  0.52138259561E+03  0.47000000000E+01 0.  1.
         -5    1    5    5    0  503 -0.52212964151E+02 -0.38172471863E+02  0.52550826676E+03  0.52949443780E+03  0.47000000000E+01 0.  1.
<mgrwt>
<rscale>  0 0.27095551E+03</rscale>
<asrwt>0</asrwt>
<pdfrwt beam="1">  1        1 0.24499610E+00 0.27095551E+03</pdfrwt>
<pdfrwt beam="2">  1       -1 0.17731689E-02 0.27095551E+03</pdfrwt>
<totfact> 0.50833358E+03</totfact>
</mgrwt>
</event>
<event>
 9    1  0.7944303E-001  0.2733778E+03  0.7818608E-02  0.1099362E+00
         -1   -1    0    0    0  501 -0.00000000000E+00  0.00000000000E+00  0.61361236835E+02  0.61361236835E+02  0.00000000000E+00 0.  1.
          1   -1    0    0  501    0  0.00000000000E+00 -0.00000000000E+00 -0.30448959043E+03  0.30448959043E+03  0.00000000000E+00 0.  1.
         35    2    1    2    0    0  0.71054273576E-14  0.00000000000E+00 -0.24312835359E+03  0.36585082726E+03  0.27337781821E+03 0.  0.
         25    2    3    3    0    0 -0.42215824334E+01 -0.42729929810E+02 -0.16786066169E+03  0.21344032962E+03  0.12464310613E+03 0.  0.
         25    2    3    3    0    0  0.42215824334E+01  0.42729929810E+02 -0.75267691898E+02  0.15241049764E+03  0.12537968610E+03 0.  0.
          5    1    4    4  502    0  0.16108077644E+02 -0.50583385499E+02 -0.10262507556E+02  0.54272996188E+02  0.47000000000E+01 0. -1.
         -5    1    4    4    0  502 -0.20329660077E+02  0.78534556883E+01 -0.15759815414E+03  0.15916733344E+03  0.47000000000E+01 0. -1.
          5    1    5    5  503    0 -0.50937312612E+02  0.84745337382E+01 -0.69979941856E+02  0.87095980391E+02  0.47000000000E+01 0.  1.
         -5    1    5    5    0  503  0.55158895045E+02  0.34255396072E+02 -0.52877500423E+01  0.65314517247E+02  0.47000000000E+01 0.  1.
<mgrwt>
<rscale>  0 0.27337782E+03</rscale>
<asrwt>0</asrwt>
<pdfrwt beam="1">  1        1 0.46844552E-01 0.27337782E+03</pdfrwt>
<pdfrwt beam="2">  1       -1 0.94401904E-02 0.27337782E+03</pdfrwt>
<totfact> 0.56923368E+03</totfact>
</mgrwt>
</event>
<event>
 9    1  0.7944303E-001  0.2766627E+03  0.7818608E-02  0.1097526E+00
         -2   -1    0    0    0  501 -0.00000000000E+00  0.00000000000E+00  0.39961909528E+03  0.39961909528E+03  0.00000000000E+00 0. -1.
          2   -1    0    0  501    0  0.00000000000E+00 -0.00000000000E+00 -0.47884520850E+02  0.47884520850E+02  0.00000000000E+00 0. -1.
         35    2    1    2    0    0 -0.71054273576E-14  0.71054273576E-14  0.35173457443E+03  0.44750361613E+03  0.27666274704E+03 0.  0.
         25    2    3    3    0    0  0.16228214706E+02  0.36964171229E+02  0.10076541522E+03  0.16529276042E+03  0.12465280918E+03 0.  0.
         25    2    3    3    0    0 -0.16228214706E+02 -0.36964171229E+02  0.25096915921E+03  0.28221085571E+03  0.12258769634E+03 0.  0.
          5    1    4    4  502    0 -0.29485843023E+02  0.27608346810E+02 -0.12629893536E+02  0.42582155454E+02  0.47000000000E+01 0.  1.
         -5    1    4    4    0  502  0.45714057729E+02  0.93558244188E+01  0.11339530875E+03  0.12271060497E+03  0.47000000000E+01 0.  1.
          5    1    5    5  503    0  0.47838159713E+02 -0.24596734938E+02  0.61885034059E+02  0.82129996559E+02  0.47000000000E+01 0.  1.
         -5    1    5    5    0  503 -0.64066374419E+02 -0.12367436290E+02  0.18908412516E+03  0.20008085915E+03  0.47000000000E+01 0.  1.
<mgrwt>
<rscale>  0 0.27666275E+03</rscale>
<asrwt>0</asrwt>
<pdfrwt beam="1">  1        2 0.73668496E-02 0.27666275E+03</pdfrwt>
<pdfrwt beam="2">  1       -2 0.61479858E-01 0.27666275E+03</pdfrwt>
<totfact> 0.23704145E+03</totfact>
</mgrwt>
</event>
<event>
 9    1  0.7944303E-001  0.2748352E+03  0.7818608E-02  0.1098544E+00
         -2   -1    0    0    0  501 -0.00000000000E+00  0.00000000000E+00  0.23140641561E+02  0.23140641561E+02  0.00000000000E+00 0.  1.
          2   -1    0    0  501    0  0.00000000000E+00 -0.00000000000E+00 -0.81603615874E+03  0.81603615874E+03  0.00000000000E+00 0.  1.
         35    2    1    2    0    0  0.00000000000E+00  0.71054273576E-14 -0.79289551718E+03  0.83917680030E+03  0.27483522518E+03 0.  0.
         25    2    3    3    0    0 -0.67059959516E+01 -0.53772748705E+02 -0.46179026032E+03  0.48152363957E+03  0.12521298675E+03 0.  0.
         25    2    3    3    0    0  0.67059959516E+01  0.53772748705E+02 -0.33110525686E+03  0.35765316074E+03  0.12388952086E+03 0.  0.
          5    1    4    4  502    0  0.37483016336E+02 -0.13334246842E+02 -0.36776556598E+03  0.36994104959E+03  0.47000000000E+01 0. -1.
         -5    1    4    4    0  502 -0.44189012288E+02 -0.40438501863E+02 -0.94024694340E+02  0.11158258998E+03  0.47000000000E+01 0. -1.
          5    1    5    5  503    0  0.27947605278E+02  0.58594203478E+02 -0.69946783184E+02  0.95545757623E+02  0.47000000000E+01 0. -1.
         -5    1    5    5    0  503 -0.21241609327E+02 -0.48214547736E+01 -0.26115847368E+03  0.26210740311E+03  0.47000000000E+01 0. -1.
<mgrwt>
<rscale>  0 0.27483523E+03</rscale>
<asrwt>0</asrwt>
<pdfrwt beam="1">  1        2 0.12554400E+00 0.27483523E+03</pdfrwt>
<pdfrwt beam="2">  1       -2 0.35600993E-02 0.27483523E+03</pdfrwt>
<totfact> 0.11291290E+04</totfact>
</mgrwt>
</event>
<event>
 9    1  0.7944303E-001  0.2750564E+03  0.7818608E-02  0.1098420E+00
         -2   -1    0    0    0  501 -0.00000000000E+00  0.00000000000E+00  0.16576015992E+03  0.16576015992E+03  0.00000000000E+00 0.  1.
          2   -1    0    0  501    0  0.00000000000E+00 -0.00000000000E+00 -0.11410464942E+03  0.11410464942E+03  0.00000000000E+00 0.  1.
         35    2    1    2    0    0 -0.71054273576E-14  0.00000000000E+00  0.51655510502E+02  0.27986480933E+03  0.27505639374E+03 0.  0.
         25    2    3    3    0    0 -0.16430547393E+02 -0.57370085679E+02  0.29885968505E+02  0.14170196603E+03  0.12499994578E+03 0.  0.
         25    2    3    3    0    0  0.16430547393E+02  0.57370085679E+02  0.21769541997E+02  0.13816284330E+03  0.12269380054E+03 0.  0.
          5    1    4    4  502    0  0.33027257551E+02 -0.71720042019E+02  0.40572704221E+02  0.88897685551E+02  0.47000000000E+01 0. -1.
         -5    1    4    4    0  502 -0.49457804944E+02  0.14349956340E+02 -0.10686735716E+02  0.52804280481E+02  0.47000000000E+01 0. -1.
          5    1    5    5  503    0  0.54336414514E+02 -0.44816100910E+01 -0.14938392700E+02  0.56725447091E+02  0.47000000000E+01 0. -1.
         -5    1    5    5    0  503 -0.37905867120E+02  0.61851695770E+02  0.36707934698E+02  0.81437396211E+02  0.47000000000E+01 0. -1.
<mgrwt>
<rscale>  0 0.27505639E+03</rscale>
<asrwt>0</asrwt>
<pdfrwt beam="1">  1        2 0.17554561E-01 0.27505639E+03</pdfrwt>
<pdfrwt beam="2">  1       -2 0.25501563E-01 0.27505639E+03</pdfrwt>
<totfact> 0.44089940E+03</totfact>
</mgrwt>
</event>
<event>
 9    1  0.7944303E-001  0.2781782E+03  0.7818608E-02  0.1096688E+00
          2   -1    0    0  501    0  0.00000000000E+00  0.00000000000E+00  0.17530303230E+03  0.17530303230E+03  0.00000000000E+00 0.  1.
         -2   -1    0    0    0  501 -0.00000000000E+00 -0.00000000000E+00 -0.11035618827E+03  0.11035618827E+03  0.00000000000E+00 0.  1.
         35    2    1    2    0    0  0.14210854715E-13 -0.35527136788E-14  0.64946844033E+02  0.28565922057E+03  0.27817817626E+03 0.  0.
         25    2    3    3    0    0 -0.54577809870E+02 -0.15464762329E+02  0.14689649371E+02  0.13831849704E+03  0.12529295520E+03 0.  0.
         25    2    3    3    0    0  0.54577809870E+02  0.15464762329E+02  0.50257194662E+02  0.14734072352E+03  0.12635508296E+03 0.  0.
          5    1    4    4  502    0 -0.94735464285E+02 -0.12599957240E+02  0.19011557829E+02  0.97555606947E+02  0.47000000000E+01 0.  1.
         -5    1    4    4    0  502  0.40157654415E+02 -0.28648050888E+01 -0.43219084588E+01  0.40762890097E+02  0.47000000000E+01 0.  1.
          5    1    5    5  503    0  0.91339533355E+02  0.33059442390E+02  0.31458105280E+02  0.10221320596E+03  0.47000000000E+01 0. -1.
         -5    1    5    5    0  503 -0.36761723485E+02 -0.17594680061E+02  0.18799089382E+02  0.45127517566E+02  0.47000000000E+01 0. -1.
<mgrwt>
<rscale>  0 0.27817818E+03</rscale>
<asrwt>0</asrwt>
<pdfrwt beam="1">  1        2 0.26969697E-01 0.27817818E+03</pdfrwt>
<pdfrwt beam="2">  1       -2 0.16977875E-01 0.27817818E+03</pdfrwt>
<totfact> 0.54556578E+03</totfact>
</mgrwt>
</event>
<event>
 9    1  0.7944303E-001  0.2736648E+03  0.7818608E-02  0.1099200E+00
         -1   -1    0    0    0  501 -0.00000000000E+00  0.00000000000E+00  0.98625330717E+02  0.98625330717E+02  0.00000000000E+00 0.  1.
          1   -1    0    0  501    0  0.00000000000E+00 -0.00000000000E+00 -0.18984079350E+03  0.18984079350E+03  0.00000000000E+00 0.  1.
         35    2    1    2    0    0 -0.71054273576E-14 -0.71054273576E-14 -0.91215462786E+02  0.28846612422E+03  0.27366483912E+03 0.  0.
         25    2    3    3    0    0  0.32499167069E+02  0.28688902269E+02  0.14237382055E+01  0.13195714861E+03  0.12462509003E+03 0.  0.
         25    2    3    3    0    0 -0.32499167069E+02 -0.28688902269E+02 -0.92639200991E+02  0.15650897561E+03  0.11846429383E+03 0.  0.
          5    1    4    4  502    0  0.47418073256E+02  0.19512344442E+02 -0.53418363191E+02  0.74194452508E+02  0.47000000000E+01 0.  1.
         -5    1    4    4    0  502 -0.14918906188E+02  0.91765578275E+01  0.54842101396E+02  0.57762696102E+02  0.47000000000E+01 0.  1.
          5    1    5    5  503    0 -0.43054266077E+02 -0.66787325591E+02 -0.36211393002E+02  0.87450395483E+02  0.47000000000E+01 0. -1.
         -5    1    5    5    0  503  0.10555099009E+02  0.38098423322E+02 -0.56427807989E+02  0.69058580127E+02  0.47000000000E+01 0. -1.
<mgrwt>
<rscale>  0 0.27366484E+03</rscale>
<asrwt>0</asrwt>
<pdfrwt beam="1">  1        1 0.29206275E-01 0.27366484E+03</pdfrwt>
<pdfrwt beam="2">  1       -1 0.15173128E-01 0.27366484E+03</pdfrwt>
<totfact> 0.49110597E+03</totfact>
</mgrwt>
</event>
<event>
 9    1  0.7944303E-001  0.2749062E+03  0.7818608E-02  0.1098504E+00
          2   -1    0    0  501    0  0.00000000000E+00  0.00000000000E+00  0.33128735317E+02  0.33128735317E+02  0.00000000000E+00 0. -1.
         -2   -1    0    0    0  501 -0.00000000000E+00 -0.00000000000E+00 -0.57030118801E+03  0.57030118801E+03  0.00000000000E+00 0. -1.
         35    2    1    2    0    0  0.71054273576E-14  0.14210854715E-13 -0.53717245269E+03  0.60342992333E+03  0.27490621753E+03 0.  0.
         25    2    3    3    0    0  0.20335935133E+02  0.43783586338E+02 -0.19840229499E+03  0.23884390168E+03  0.12390474577E+03 0.  0.
         25    2    3    3    0    0 -0.20335935133E+02 -0.43783586338E+02 -0.33877015771E+03  0.36458602165E+03  0.12580617925E+03 0.  0.
          5    1    4    4  502    0 -0.38828236843E+02 -0.11657919508E+02 -0.11674796907E+03  0.12367585595E+03  0.47000000000E+01 0.  1.
         -5    1    4    4    0  502  0.59164171976E+02  0.55441505846E+02 -0.81654325917E+02  0.11516804573E+03  0.47000000000E+01 0.  1.
          5    1    5    5  503    0 -0.54689575391E+02  0.22374509102E+02 -0.13064985139E+03  0.14346791273E+03  0.47000000000E+01 0.  1.
         -5    1    5    5    0  503  0.34353640257E+02 -0.66158095440E+02 -0.20812030631E+03  0.22111810892E+03  0.47000000000E+01 0.  1.
<mgrwt>
<rscale>  0 0.27490622E+03</rscale>
<asrwt>0</asrwt>
<pdfrwt beam="1">  1        2 0.50967294E-02 0.27490622E+03</pdfrwt>
<pdfrwt beam="2">  1       -2 0.87738629E-01 0.27490622E+03</pdfrwt>
<totfact> 0.17724626E+03</totfact>
</mgrwt>
</event>
<event>
 9    1  0.7944303E-001  0.2811796E+03  0.7818608E-02  0.1095046E+00
          2   -1    0    0  501    0  0.00000000000E+00  0.00000000000E+00  0.59064593021E+02  0.59064593021E+02  0.00000000000E+00 0.  1.
         -2   -1    0    0    0  501 -0.00000000000E+00 -0.00000000000E+00 -0.33464203750E+03  0.33464203750E+03  0.00000000000E+00 0.  1.
         35    2    1    2    0    0  0.00000000000E+00  0.14210854715E-13 -0.27557744448E+03  0.39370663052E+03  0.28117962766E+03 0.  0.
         25    2    3    3    0    0 -0.42347777010E+02 -0.38685458938E+02 -0.18212559403E+03  0.22818534311E+03  0.12493566288E+03 0.  0.
         25    2    3    3    0    0  0.42347777010E+02  0.38685458938E+02 -0.93451850446E+02  0.16552128741E+03  0.12399253720E+03 0.  0.
          5    1    4    4  502    0 -0.31821347909E+02  0.41417912420E+02 -0.99820558992E+02  0.11275759686E+03  0.47000000000E+01 0. -1.
         -5    1    4    4    0  502 -0.10526429100E+02 -0.80103371358E+02 -0.82305035040E+02  0.11542774625E+03  0.47000000000E+01 0. -1.
          5    1    5    5  503    0  0.83502195552E+02  0.42626767497E+02 -0.74294580747E+02  0.11971396200E+03  0.47000000000E+01 0. -1.
         -5    1    5    5    0  503 -0.41154418542E+02 -0.39413085588E+01 -0.19157269699E+02  0.45807325408E+02  0.47000000000E+01 0. -1.
<mgrwt>
<rscale>  0 0.28117963E+03</rscale>
<asrwt>0</asrwt>
<pdfrwt beam="1">  1        2 0.90868605E-02 0.28117963E+03</pdfrwt>
<pdfrwt beam="2">  1       -2 0.51483390E-01 0.28117963E+03</pdfrwt>
<totfact> 0.26119042E+03</totfact>
</mgrwt>
</event>
<event>
 9    1  0.7944303E-001  0.2760322E+03  0.7818608E-02  0.1097876E+00
         -2   -1    0    0    0  501 -0.00000000000E+00  0.00000000000E+00  0.13063880620E+02  0.13063880620E+02  0.00000000000E+00 0. -1.
          2   -1    0    0  501    0  0.00000000000E+00 -0.00000000000E+00 -0.14580997809E+04  0.14580997809E+04  0.00000000000E+00 0. -1.
         35    2    1    2    0    0  0.00000000000E+00  0.00000000000E+00 -0.14450359003E+04  0.14711636615E+04  0.27603218269E+03 0.  0.
         25    2    3    3    0    0 -0.54195477376E+02 -0.23171291003E+02 -0.74273227240E+03  0.75546187489E+03  0.12488938087E+03 0.  0.
         25    2    3    3    0    0  0.54195477376E+02  0.23171291003E+02 -0.70230362789E+03  0.71570178664E+03  0.12459776545E+03 0.  0.
          5    1    4    4  502    0 -0.49995258518E+02 -0.71816579544E+02 -0.52585325236E+03  0.53310494276E+03  0.47000000000E+01 0. -1.
         -5    1    4    4    0  502 -0.42002188575E+01  0.48645288541E+02 -0.21687902004E+03  0.22235693213E+03  0.47000000000E+01 0. -1.
          5    1    5    5  503    0  0.11992928998E+02 -0.21694756551E+00 -0.12160173676E+01  0.12940097002E+02  0.47000000000E+01 0.  1.
         -5    1    5    5    0  503  0.42202548378E+02  0.23388238568E+02 -0.70108761052E+03  0.70276168963E+03  0.47000000000E+01 0.  1.
<mgrwt>
<rscale>  0 0.27603218E+03</rscale>
<asrwt>0</asrwt>
<pdfrwt beam="1">  1        2 0.22432312E+00 0.27603218E+03</pdfrwt>
<pdfrwt beam="2">  1       -2 0.20098271E-02 0.27603218E+03</pdfrwt>
<totfact> 0.11030049E+04</totfact>
</mgrwt>
</event>
<event>
 9    1  0.7944303E-001  0.2748616E+03  0.7818608E-02  0.1098529E+00
         -1   -1    0    0    0  501 -0.00000000000E+00  0.00000000000E+00  0.30850513663E+03  0.30850513663E+03  0.00000000000E+00 0.  1.
          1   -1    0    0  501    0  0.00000000000E+00 -0.00000000000E+00 -0.61221759709E+02  0.61221759709E+02  0.00000000000E+00 0.  1.
         35    2    1    2    0    0  0.00000000000E+00  0.71054273576E-14  0.24728337692E+03  0.36972689634E+03  0.27486161859E+03 0.  0.
         25    2    3    3    0    0  0.52438924858E+01 -0.27957517534E+02  0.19238182871E+03  0.23125994571E+03  0.12514500901E+03 0.  0.
         25    2    3    3    0    0 -0.52438924858E+01  0.27957517534E+02  0.54901548215E+02  0.13846695063E+03  0.12389429052E+03 0.  0.
          5    1    4    4  502    0 -0.24253267593E+02  0.43472074552E+02  0.62337700401E+02  0.79913210085E+02  0.47000000000E+01 0.  1.
         -5    1    4    4    0  502  0.29497160079E+02 -0.71429592086E+02  0.13004412831E+03  0.15134673563E+03  0.47000000000E+01 0.  1.
          5    1    5    5  503    0  0.49993871743E+02  0.39233798778E+02  0.51250996348E+02  0.81776725327E+02  0.47000000000E+01 0.  1.
         -5    1    5    5    0  503 -0.55237764229E+02 -0.11276281245E+02  0.36505518669E+01  0.56690225301E+02  0.47000000000E+01 0.  1.
<mgrwt>
<rscale>  0 0.27486162E+03</rscale>
<asrwt>0</asrwt>
<pdfrwt beam="1">  1        1 0.94187324E-02 0.27486162E+03</pdfrwt>
<pdfrwt beam="2">  1       -1 0.47462328E-01 0.27486162E+03</pdfrwt>
<totfact> 0.31363213E+03</totfact>
</mgrwt>
</event>
<event>
 9    1  0.7944303E-001  0.2783845E+03  0.7818608E-02  0.1096575E+00
          2   -1    0    0  501    0  0.00000000000E+00  0.00000000000E+00  0.79996741793E+03  0.79996741793E+03  0.00000000000E+00 0.  1.
         -2   -1    0    0    0  501 -0.00000000000E+00 -0.00000000000E+00 -0.24219087121E+02  0.24219087121E+02  0.00000000000E+00 0.  1.
         35    2    1    2    0    0 -0.14210854715E-13  0.71054273576E-14  0.77574833081E+03  0.82418650506E+03  0.27838448656E+03 0.  0.
         25    2    3    3    0    0  0.43386464138E+02  0.12983089338E+02  0.51618868013E+03  0.53303986241E+03  0.12501918072E+03 0.  0.
         25    2    3    3    0    0 -0.43386464138E+02 -0.12983089338E+02  0.25955965069E+03  0.29114664264E+03  0.12387174568E+03 0.  0.
          5    1    4    4  502    0 -0.10233205080E+02  0.57047140281E+02  0.31076015001E+03  0.31615353158E+03  0.47000000000E+01 0. -1.
         -5    1    4    4    0  502  0.53619669218E+02 -0.44064050944E+02  0.20542853012E+03  0.21688633083E+03  0.47000000000E+01 0. -1.
          5    1    5    5  503    0  0.26989364810E+02  0.35733586346E+02  0.10827037569E+03  0.11725987914E+03  0.47000000000E+01 0.  1.
         -5    1    5    5    0  503 -0.70375828948E+02 -0.48716675683E+02  0.15128927500E+03  0.17388676350E+03  0.47000000000E+01 0.  1.
<mgrwt>
<rscale>  0 0.27838449E+03</rscale>
<asrwt>0</asrwt>
<pdfrwt beam="1">  1        2 0.12307189E+00 0.27838449E+03</pdfrwt>
<pdfrwt beam="2">  1       -2 0.37260140E-02 0.27838449E+03</pdfrwt>
<totfact> 0.10822460E+04</totfact>
</mgrwt>
</event>
<event>
 9    1  0.7944303E-001  0.2870805E+03  0.7818608E-02  0.1091883E+00
         -1   -1    0    0    0  501 -0.00000000000E+00  0.00000000000E+00  0.10545578424E+02  0.10545578424E+02  0.00000000000E+00 0.  1.
          1   -1    0    0  501    0  0.00000000000E+00 -0.00000000000E+00 -0.19537864118E+04  0.19537864118E+04  0.00000000000E+00 0.  1.
         35    2    1    2    0    0 -0.35527136788E-14  0.00000000000E+00 -0.19432408333E+04  0.19643319902E+04  0.28708053106E+03 0.  0.
         25    2    3    3    0    0 -0.90459759720E+01 -0.22121431372E+02 -0.14231982237E+04  0.14289062106E+04  0.12533390280E+03 0.  0.
         25    2    3    3    0    0  0.90459759720E+01  0.22121431372E+02 -0.52004260963E+03  0.53542577963E+03  0.12516094540E+03 0.  0.
          5    1    4    4  502    0  0.28886461481E+02  0.41364231091E+02 -0.73057166224E+03  0.73232675148E+03  0.47000000000E+01 0. -1.
         -5    1    4    4    0  502 -0.37932437453E+02 -0.63485662463E+02 -0.69262656147E+03  0.69657945907E+03  0.47000000000E+01 0. -1.
          5    1    5    5  503    0 -0.18146552962E+02  0.35352278684E+02 -0.49289465563E+03  0.49451624093E+03  0.47000000000E+01 0. -1.
         -5    1    5    5    0  503  0.27192528933E+02 -0.13230847312E+02 -0.27147953998E+02  0.40909538700E+02  0.47000000000E+01 0. -1.
<mgrwt>
<rscale>  0 0.28708053E+03</rscale>
<asrwt>0</asrwt>
<pdfrwt beam="1">  1        1 0.30058260E+00 0.28708053E+03</pdfrwt>
<pdfrwt beam="2">  1       -1 0.16223963E-02 0.28708053E+03</pdfrwt>
<totfact> 0.33651347E+03</totfact>
</mgrwt>
</event>
<event>
 9    1  0.7944303E-001  0.2722963E+03  0.7818608E-02  0.1099972E+00
         -2   -1    0    0    0  501 -0.00000000000E+00  0.00000000000E+00  0.23326479189E+02  0.23326479189E+02  0.00000000000E+00 0. -1.
          2   -1    0    0  501    0  0.00000000000E+00 -0.00000000000E+00 -0.79464735755E+03  0.79464735755E+03  0.00000000000E+00 0. -1.
         35    2    1    2    0    0  0.35527136788E-14 -0.14210854715E-13 -0.77132087836E+03  0.81797383674E+03  0.27229634627E+03 0.  0.
         25    2    3    3    0    0  0.10829656078E+02 -0.49271978487E+02 -0.44119942038E+03  0.46140654061E+03  0.12527592688E+03 0.  0.
         25    2    3    3    0    0 -0.10829656078E+02  0.49271978487E+02 -0.33012145798E+03  0.35656729613E+03  0.12496019501E+03 0.  0.
          5    1    4    4  502    0 -0.12152189533E+02 -0.76947781975E+02 -0.16154633573E+03  0.17940999261E+03  0.47000000000E+01 0. -1.
         -5    1    4    4    0  502  0.22981845611E+02  0.27675803489E+02 -0.27965308465E+03  0.28199654799E+03  0.47000000000E+01 0. -1.
          5    1    5    5  503    0  0.27980719185E+02  0.74033340238E+02 -0.13996111925E+03  0.16085726907E+03  0.47000000000E+01 0.  1.
         -5    1    5    5    0  503 -0.38810375263E+02 -0.24761361752E+02 -0.19016033873E+03  0.19571002706E+03  0.47000000000E+01 0.  1.
<mgrwt>
<rscale>  0 0.27229635E+03</rscale>
<asrwt>0</asrwt>
<pdfrwt beam="1">  1        2 0.12225345E+00 0.27229635E+03</pdfrwt>
<pdfrwt beam="2">  1       -2 0.35886887E-02 0.27229635E+03</pdfrwt>
<totfact> 0.11537680E+04</totfact>
</mgrwt>
</event>
<event>
 9    1  0.7944303E-001  0.2704492E+03  0.7818608E-02  0.1101023E+00
         -1   -1    0    0    0  501 -0.00000000000E+00  0.00000000000E+00  0.39154636119E+02  0.39154636119E+02  0.00000000000E+00 0. -1.
          1   -1    0    0  501    0  0.00000000000E+00 -0.00000000000E+00 -0.46701217459E+03  0.46701217459E+03  0.00000000000E+00 0. -1.
         35    2    1    2    0    0  0.35527136788E-14 -0.71054273576E-14 -0.42785753847E+03  0.50616681071E+03  0.27044919493E+03 0.  0.
         25    2    3    3    0    0 -0.28711244135E+02  0.41648021806E+02 -0.23474842188E+03  0.27023783875E+03  0.12394666053E+03 0.  0.
         25    2    3    3    0    0  0.28711244135E+02 -0.41648021806E+02 -0.19310911659E+03  0.23592897196E+03  0.12574758702E+03 0.  0.
          5    1    4    4  502    0 -0.28839445350E+02 -0.26432930492E+02 -0.18598200252E+02  0.43570591861E+02  0.47000000000E+01 0. -1.
         -5    1    4    4    0  502  0.12820121524E+00  0.68080952298E+02 -0.21615022163E+03  0.22666724689E+03  0.47000000000E+01 0. -1.
          5    1    5    5  503    0  0.40721184057E+02  0.37331011366E+02 -0.82859479499E+02  0.99697555554E+02  0.47000000000E+01 0.  1.
         -5    1    5    5    0  503 -0.12009939922E+02 -0.78979033172E+02 -0.11024963709E+03  0.13623141641E+03  0.47000000000E+01 0.  1.
<mgrwt>
<rscale>  0 0.27044919E+03</rscale>
<asrwt>0</asrwt>
<pdfrwt beam="1">  1        1 0.71848025E-01 0.27044919E+03</pdfrwt>
<pdfrwt beam="2">  1       -1 0.60237903E-02 0.27044919E+03</pdfrwt>
<totfact> 0.65299833E+03</totfact>
</mgrwt>
</event>
<event>
 9    1  0.7944303E-001  0.2742700E+03  0.7818608E-02  0.1098860E+00
         -1   -1    0    0    0  501 -0.00000000000E+00  0.00000000000E+00  0.19716960610E+03  0.19716960610E+03  0.00000000000E+00 0. -1.
          1   -1    0    0  501    0  0.00000000000E+00 -0.00000000000E+00 -0.95379833077E+02  0.95379833077E+02  0.00000000000E+00 0. -1.
         35    2    1    2    0    0  0.71054273576E-14 -0.35527136788E-14  0.10178977303E+03  0.29254943918E+03  0.27426997005E+03 0.  0.
         25    2    3    3    0    0 -0.54127243861E+02  0.16933398384E+02  0.43335865090E+02  0.14339056157E+03  0.12436381080E+03 0.  0.
         25    2    3    3    0    0  0.54127243861E+02 -0.16933398384E+02  0.58453907936E+02  0.14915887761E+03  0.12496004524E+03 0.  0.
          5    1    4    4  502    0 -0.88899981544E+02 -0.76413602092E+01  0.11651811894E+02  0.90108000892E+02  0.47000000000E+01 0. -1.
         -5    1    4    4    0  502  0.34772737683E+02  0.24574758593E+02  0.31684053196E+02  0.53282560682E+02  0.47000000000E+01 0. -1.
          5    1    5    5  503    0  0.53216545971E+02 -0.64448271659E+02  0.15928775356E+02  0.85213827336E+02  0.47000000000E+01 0. -1.
         -5    1    5    5    0  503  0.91069788960E+00  0.47514873275E+02  0.42525132581E+02  0.63945050270E+02  0.47000000000E+01 0. -1.
<mgrwt>
<rscale>  0 0.27426997E+03</rscale>
<asrwt>0</asrwt>
<pdfrwt beam="1">  1        1 0.14673820E-01 0.27426997E+03</pdfrwt>
<pdfrwt beam="2">  1       -1 0.30333786E-01 0.27426997E+03</pdfrwt>
<totfact> 0.38248668E+03</totfact>
</mgrwt>
</event>
<event>
 9    1  0.7944303E-001  0.2756411E+03  0.7818608E-02  0.1098094E+00
         -1   -1    0    0    0  501 -0.00000000000E+00  0.00000000000E+00  0.17642458254E+02  0.17642458254E+02  0.00000000000E+00 0. -1.
          1   -1    0    0  501    0  0.00000000000E+00 -0.00000000000E+00 -0.10766361493E+04  0.10766361493E+04  0.00000000000E+00 0. -1.
         35    2    1    2    0    0  0.00000000000E+00 -0.17763568394E-14 -0.10589936911E+04  0.10942786076E+04  0.27564113132E+03 0.  0.
         25    2    3    3    0    0  0.32483417358E+02 -0.10974607212E+02 -0.70991324654E+03  0.72170200827E+03  0.12530505466E+03 0.  0.
         25    2    3    3    0    0 -0.32483417358E+02  0.10974607212E+02 -0.34908044456E+03  0.37257659933E+03  0.12562066387E+03 0.  0.
          5    1    4    4  502    0  0.28536463735E+02 -0.20215577267E+02 -0.70973046737E+03  0.71060708246E+03  0.47000000000E+01 0. -1.
         -5    1    4    4    0  502  0.39469536230E+01  0.92409700554E+01 -0.18277916566E+00  0.11094925808E+02  0.47000000000E+01 0. -1.
          5    1    5    5  503    0 -0.29452189138E+01  0.56851012103E+02 -0.81967844762E+02  0.99907604648E+02  0.47000000000E+01 0. -1.
         -5    1    5    5    0  503 -0.29538198445E+02 -0.45876404892E+02 -0.26711259979E+03  0.27266899468E+03  0.47000000000E+01 0. -1.
<mgrwt>
<rscale>  0 0.27564113E+03</rscale>
<asrwt>0</asrwt>
<pdfrwt beam="1">  1        1 0.16563630E+00 0.27564113E+03</pdfrwt>
<pdfrwt beam="2">  1       -1 0.27142248E-02 0.27564113E+03</pdfrwt>
<totfact> 0.61349416E+03</totfact>
</mgrwt>
</event>
<event>
 9    1  0.7944303E-001  0.2733749E+03  0.7818608E-02  0.1099363E+00
          1   -1    0    0  501    0  0.00000000000E+00  0.00000000000E+00  0.11797055526E+03  0.11797055526E+03  0.00000000000E+00 0. -1.
         -1   -1    0    0    0  501 -0.00000000000E+00 -0.00000000000E+00 -0.15837389763E+03  0.15837389763E+03  0.00000000000E+00 0. -1.
         35    2    1    2    0    0  0.71054273576E-14 -0.71054273576E-14 -0.40403342373E+02  0.27634445289E+03  0.27337488284E+03 0.  0.
         25    2    3    3    0    0 -0.25895926036E+02  0.38859317394E+02 -0.51403823578E+02  0.14272645136E+03  0.12469098326E+03 0.  0.
         25    2    3    3    0    0  0.25895926036E+02 -0.38859317394E+02  0.11000481204E+02  0.13361800153E+03  0.12470811606E+03 0.  0.
          5    1    4    4  502    0 -0.14553939203E+02  0.73688692509E+02  0.48705873270E+01  0.75416531151E+02  0.47000000000E+01 0.  1.
         -5    1    4    4    0  502 -0.11341986832E+02 -0.34829375115E+02 -0.56274410905E+02  0.67309920212E+02  0.47000000000E+01 0.  1.
          5    1    5    5  503    0  0.31760200221E+02  0.41430308187E+02  0.16891792949E+01  0.52441625463E+02  0.47000000000E+01 0.  1.
         -5    1    5    5    0  503 -0.58642741856E+01 -0.80289625580E+02  0.93113019094E+01  0.81176376064E+02  0.47000000000E+01 0.  1.
<mgrwt>
<rscale>  0 0.27337488E+03</rscale>
<asrwt>0</asrwt>
<pdfrwt beam="1">  1        1 0.18149316E-01 0.27337488E+03</pdfrwt>
<pdfrwt beam="2">  1       -1 0.24365215E-01 0.27337488E+03</pdfrwt>
<totfact> 0.41876005E+03</totfact>
</mgrwt>
</event>
<event>
 9    1  0.7944303E-001  0.2739755E+03  0.7818608E-02  0.1099026E+00
         -1   -1    0    0    0  501 -0.00000000000E+00  0.00000000000E+00  0.14970447125E+02  0.14970447125E+02  0.00000000000E+00 0. -1.
          1   -1    0    0  501    0  0.00000000000E+00 -0.00000000000E+00 -0.12535123573E+04  0.12535123573E+04  0.00000000000E+00 0. -1.
         35    2    1    2    0    0  0.35527136788E-14  0.00000000000E+00 -0.12385419102E+04  0.12684828044E+04  0.27397547676E+03 0.  0.
         25    2    3    3    0    0  0.16433239820E+02  0.50452649756E+02 -0.51427755921E+03  0.53153053025E+03  0.12340087294E+03 0.  0.
         25    2    3    3    0    0 -0.16433239820E+02 -0.50452649756E+02 -0.72426435099E+03  0.73695227420E+03  0.12539650352E+03 0.  0.
          5    1    4    4  502    0  0.43177094464E+02 -0.78306291513E+01 -0.70888370646E+02  0.83503480958E+02  0.47000000000E+01 0.  1.
         -5    1    4    4    0  502 -0.26743854645E+02  0.58283278907E+02 -0.44338918856E+03  0.44802704929E+03  0.47000000000E+01 0.  1.
          5    1    5    5  503    0  0.61910701288E+01  0.34120029909E+02 -0.38339161890E+03  0.38498536236E+03  0.47000000000E+01 0. -1.
         -5    1    5    5    0  503 -0.22624309948E+02 -0.84572679665E+02 -0.34087273209E+03  0.35196691183E+03  0.47000000000E+01 0. -1.
<mgrwt>
<rscale>  0 0.27397548E+03</rscale>
<asrwt>0</asrwt>
<pdfrwt beam="1">  1        1 0.19284812E+00 0.27397548E+03</pdfrwt>
<pdfrwt beam="2">  1       -1 0.23031450E-02 0.27397548E+03</pdfrwt>
<totfact> 0.58542440E+03</totfact>
</mgrwt>
</event>
<event>
 9    1  0.7944303E-001  0.2755218E+03  0.7818608E-02  0.1098160E+00
          4   -1    0    0  501    0  0.00000000000E+00  0.00000000000E+00  0.93216531277E+02  0.93216531277E+02  0.00000000000E+00 0. -1.
         -4   -1    0    0    0  501 -0.00000000000E+00 -0.00000000000E+00 -0.20359127170E+03  0.20359127170E+03  0.00000000000E+00 0. -1.
         35    2    1    2    0    0  0.35527136788E-14  0.35527136788E-14 -0.11037474043E+03  0.29680780298E+03  0.27552184775E+03 0.  0.
         25    2    3    3    0    0  0.17109614629E+02 -0.10324355494E+02 -0.11299085413E+03  0.16983235169E+03  0.12520688213E+03 0.  0.
         25    2    3    3    0    0 -0.17109614629E+02  0.10324355494E+02  0.26161136994E+01  0.12697545129E+03  0.12536582450E+03 0.  0.
          5    1    4    4  502    0 -0.75234228144E+01 -0.37537697270E+01  0.26373453880E+02  0.28077424162E+02  0.47000000000E+01 0. -1.
         -5    1    4    4    0  502  0.24633037444E+02 -0.65705857666E+01 -0.13936430801E+03  0.14175492752E+03  0.47000000000E+01 0. -1.
          5    1    5    5  503    0  0.53491598334E+01 -0.54862894956E+02 -0.11338446079E+02  0.56473012257E+02  0.47000000000E+01 0.  1.
         -5    1    5    5    0  503 -0.22458774463E+02  0.65187250450E+02  0.13954559778E+02  0.70502439037E+02  0.47000000000E+01 0.  1.
<mgrwt>
<rscale>  0 0.27552185E+03</rscale>
<asrwt>0</asrwt>
<pdfrwt beam="1">  1        4 0.14341005E-01 0.27552185E+03</pdfrwt>
<pdfrwt beam="2">  1       -4 0.31321734E-01 0.27552185E+03</pdfrwt>
<totfact> 0.74911183E+02</totfact>
</mgrwt>
</event>
<event>
 9    1  0.7944303E-001  0.2721549E+03  0.7818608E-02  0.1100053E+00
         -2   -1    0    0    0  501 -0.00000000000E+00  0.00000000000E+00  0.16869516381E+02  0.16869516381E+02  0.00000000000E+00 0.  1.
          2   -1    0    0  501    0  0.00000000000E+00 -0.00000000000E+00 -0.10976650520E+04  0.10976650520E+04  0.00000000000E+00 0.  1.
         35    2    1    2    0    0 -0.35527136788E-14 -0.71054273576E-14 -0.10807955356E+04  0.11145345684E+04  0.27215494539E+03 0.  0.
         25    2    3    3    0    0 -0.16488366943E+02 -0.50771172365E+02 -0.58207271930E+03  0.59757112764E+03  0.12422972208E+03 0.  0.
         25    2    3    3    0    0  0.16488366943E+02  0.50771172365E+02 -0.49872281629E+03  0.51696344071E+03  0.12520851951E+03 0.  0.
          5    1    4    4  502    0 -0.71981153235E+01  0.10038192736E+02 -0.46543100926E+03  0.46561861277E+03  0.47000000000E+01 0. -1.
         -5    1    4    4    0  502 -0.92902516193E+01 -0.60809365101E+02 -0.11664171004E+03  0.13195251486E+03  0.47000000000E+01 0. -1.
          5    1    5    5  503    0  0.60556362825E+02  0.14990176358E+01 -0.33271001650E+03  0.33821201223E+03  0.47000000000E+01 0. -1.
         -5    1    5    5    0  503 -0.44067995882E+02  0.49272154730E+02 -0.16601279979E+03  0.17875142849E+03  0.47000000000E+01 0. -1.
<mgrwt>
<rscale>  0 0.27215495E+03</rscale>
<asrwt>0</asrwt>
<pdfrwt beam="1">  1        2 0.16887159E+00 0.27215495E+03</pdfrwt>
<pdfrwt beam="2">  1       -2 0.25953096E-02 0.27215495E+03</pdfrwt>
<totfact> 0.12019537E+04</totfact>
</mgrwt>
</event>
<event>
 9    1  0.7944303E-001  0.2738631E+03  0.7818608E-02  0.1099089E+00
          2   -1    0    0  501    0  0.00000000000E+00  0.00000000000E+00  0.20396668970E+04  0.20396668970E+04  0.00000000000E+00 0.  1.
         -2   -1    0    0    0  501 -0.00000000000E+00 -0.00000000000E+00 -0.91928000977E+01  0.91928000977E+01  0.00000000000E+00 0.  1.
         35    2    1    2    0    0  0.00000000000E+00  0.00000000000E+00  0.20304740969E+04  0.20488596971E+04  0.27386310486E+03 0.  0.
         25    2    3    3    0    0  0.58007946340E+02 -0.82446802341E+01  0.85345343934E+03  0.86439154422E+03  0.12392365394E+03 0.  0.
         25    2    3    3    0    0 -0.58007946340E+02  0.82446802341E+01  0.11770206576E+04  0.11844681529E+04  0.11897176247E+03 0.  0.
          5    1    4    4  502    0  0.69388175337E+02  0.33718286390E+02  0.71574251522E+03  0.71990352117E+03  0.47000000000E+01 0. -1.
         -5    1    4    4    0  502 -0.11380228997E+02 -0.41962966624E+02  0.13771092412E+03  0.14448802304E+03  0.47000000000E+01 0. -1.
          5    1    5    5  503    0 -0.11398178241E+02 -0.36224840050E+02  0.86429281004E+03  0.86513947373E+03  0.47000000000E+01 0.  1.
         -5    1    5    5    0  503 -0.46609768099E+02  0.44469520285E+02  0.31272784755E+03  0.31932867918E+03  0.47000000000E+01 0.  1.
<mgrwt>
<rscale>  0 0.27386310E+03</rscale>
<asrwt>0</asrwt>
<pdfrwt beam="1">  1        2 0.31379455E+00 0.27386310E+03</pdfrwt>
<pdfrwt beam="2">  1       -2 0.14142786E-02 0.27386310E+03</pdfrwt>
<totfact> 0.91044006E+03</totfact>
</mgrwt>
</event>
<event>
 9    1  0.7944303E-001  0.2746929E+03  0.7818608E-02  0.1098623E+00
         -2   -1    0    0    0  501 -0.00000000000E+00  0.00000000000E+00  0.29678348071E+02  0.29678348071E+02  0.00000000000E+00 0. -1.
          2   -1    0    0  501    0  0.00000000000E+00 -0.00000000000E+00 -0.63561658752E+03  0.63561658752E+03  0.00000000000E+00 0. -1.
         35    2    1    2    0    0  0.00000000000E+00  0.00000000000E+00 -0.60593823945E+03  0.66529493560E+03  0.27469292182E+03 0.  0.
         25    2    3    3    0    0 -0.41216817205E+02  0.28830364814E+02 -0.36498929377E+03  0.38901063169E+03  0.12482816606E+03 0.  0.
         25    2    3    3    0    0  0.41216817205E+02 -0.28830364814E+02 -0.24094894568E+03  0.27628430391E+03  0.12548548205E+03 0.  0.
          5    1    4    4  502    0 -0.31351253834E+02 -0.26102086466E+02 -0.30176316796E+03  0.30454444597E+03  0.47000000000E+01 0.  1.
         -5    1    4    4    0  502 -0.98655633711E+01  0.54932451280E+02 -0.63226125813E+02  0.84466185717E+02  0.47000000000E+01 0.  1.
          5    1    5    5  503    0  0.43711337705E+02  0.33291005124E+02 -0.18312867850E+03  0.19125160119E+03  0.47000000000E+01 0.  1.
         -5    1    5    5    0  503 -0.24945205003E+01 -0.62121369939E+02 -0.57820267181E+02  0.85032702723E+02  0.47000000000E+01 0.  1.
<mgrwt>
<rscale>  0 0.27469292E+03</rscale>
<asrwt>0</asrwt>
<pdfrwt beam="1">  1        2 0.97787160E-01 0.27469292E+03</pdfrwt>
<pdfrwt beam="2">  1       -2 0.45659000E-02 0.27469292E+03</pdfrwt>
<totfact> 0.10550073E+04</totfact>
</mgrwt>
</event>
<event>
 9    1  0.7944303E-001  0.3059363E+03  0.7818608E-02  0.1082310E+00
          1   -1    0    0  501    0  0.00000000000E+00  0.00000000000E+00  0.13375965509E+03  0.13375965509E+03  0.00000000000E+00 0. -1.
         -1   -1    0    0    0  501 -0.00000000000E+00 -0.00000000000E+00 -0.17493506861E+03  0.17493506861E+03  0.00000000000E+00 0. -1.
         35    2    1    2    0    0  0.00000000000E+00  0.00000000000E+00 -0.41175413522E+02  0.30869472371E+03  0.30593629691E+03 0.  0.
         25    2    3    3    0    0 -0.18949188468E+02 -0.33562491295E+02  0.59650278211E+02  0.14338192972E+03  0.12455805680E+03 0.  0.
         25    2    3    3    0    0  0.18949188468E+02  0.33562491295E+02 -0.10082569173E+03  0.16531279398E+03  0.12520777602E+03 0.  0.
          5    1    4    4  502    0  0.41051199244E+02 -0.52519713433E+02  0.36691599186E+02  0.76235718068E+02  0.47000000000E+01 0.  1.
         -5    1    4    4    0  502 -0.60000387712E+02  0.18957222138E+02  0.22958679026E+02  0.67146211654E+02  0.47000000000E+01 0.  1.
          5    1    5    5  503    0 -0.41728282254E+02  0.44079815084E+02 -0.79156305880E+02  0.99860354487E+02  0.47000000000E+01 0.  1.
         -5    1    5    5    0  503  0.60677470722E+02 -0.10517323789E+02 -0.21669385853E+02  0.65452439498E+02  0.47000000000E+01 0.  1.
<mgrwt>
<rscale>  0 0.30593630E+03</rscale>
<asrwt>0</asrwt>
<pdfrwt beam="1">  1        1 0.20578409E-01 0.30593630E+03</pdfrwt>
<pdfrwt beam="2">  1       -1 0.26913087E-01 0.30593630E+03</pdfrwt>
<totfact> 0.30233873E+03</totfact>
</mgrwt>
</event>
<event>
 9    1  0.7944303E-001  0.2774110E+03  0.7818608E-02  0.1097111E+00
          3   -1    0    0  501    0  0.00000000000E+00  0.00000000000E+00  0.63240008364E+03  0.63240008364E+03  0.00000000000E+00 0.  1.
         -3   -1    0    0    0  501 -0.00000000000E+00 -0.00000000000E+00 -0.30422535307E+02  0.30422535307E+02  0.00000000000E+00 0.  1.
         35    2    1    2    0    0 -0.17763568394E-14  0.00000000000E+00  0.60197754833E+03  0.66282261895E+03  0.27741098661E+03 0.  0.
         25    2    3    3    0    0 -0.23655533357E+01 -0.58217263762E+02  0.24457998391E+03  0.27990685134E+03  0.12301882478E+03 0.  0.
         25    2    3    3    0    0  0.23655533357E+01  0.58217263762E+02  0.35739756442E+03  0.38291576761E+03  0.12448542241E+03 0.  0.
          5    1    4    4  502    0  0.53855085243E+02 -0.53558019077E+02  0.10854024339E+03  0.13255906627E+03  0.47000000000E+01 0.  1.
         -5    1    4    4    0  502 -0.56220638578E+02 -0.46592446848E+01  0.13603974052E+03  0.14734778507E+03  0.47000000000E+01 0.  1.
          5    1    5    5  503    0 -0.12420768003E+02  0.37259035640E+02  0.19657114487E+02  0.44170163737E+02  0.47000000000E+01 0.  1.
         -5    1    5    5    0  503  0.14786321339E+02  0.20958228122E+02  0.33774044993E+03  0.33874560388E+03  0.47000000000E+01 0.  1.
<mgrwt>
<rscale>  0 0.27741099E+03</rscale>
<asrwt>0</asrwt>
<pdfrwt beam="1">  1        3 0.97292311E-01 0.27741099E+03</pdfrwt>
<pdfrwt beam="2">  1       -3 0.46803905E-02 0.27741099E+03</pdfrwt>
<totfact> 0.62097404E+02</totfact>
</mgrwt>
</event>
<event>
 9    1  0.7944303E-001  0.2715820E+03  0.7818608E-02  0.1100378E+00
         -2   -1    0    0    0  501 -0.00000000000E+00  0.00000000000E+00  0.74864389089E+02  0.74864389089E+02  0.00000000000E+00 0. -1.
          2   -1    0    0  501    0  0.00000000000E+00 -0.00000000000E+00 -0.24630120732E+03  0.24630120732E+03  0.00000000000E+00 0. -1.
         35    2    1    2    0    0  0.71054273576E-14  0.00000000000E+00 -0.17143681823E+03  0.32116559641E+03  0.27158195388E+03 0.  0.
         25    2    3    3    0    0  0.34834878959E+02 -0.25148381188E+01 -0.13593698765E+03  0.18804599308E+03  0.12515046025E+03 0.  0.
         25    2    3    3    0    0 -0.34834878959E+02  0.25148381188E+01 -0.35499830586E+02  0.13311960333E+03  0.12345362537E+03 0.  0.
          5    1    4    4  502    0  0.63071727051E+01  0.10788219530E+02 -0.15186916110E+03  0.15245490546E+03  0.47000000000E+01 0. -1.
         -5    1    4    4    0  502  0.28527706254E+02 -0.13303057649E+02  0.15932173450E+02  0.35591087617E+02  0.47000000000E+01 0. -1.
          5    1    5    5  503    0 -0.55104241626E+02  0.48733765526E+02 -0.48174848575E+01  0.73869855204E+02  0.47000000000E+01 0. -1.
         -5    1    5    5    0  503  0.20269362667E+02 -0.46218927407E+02 -0.30682345728E+02  0.59249748126E+02  0.47000000000E+01 0. -1.
<mgrwt>
<rscale>  0 0.27158195E+03</rscale>
<asrwt>0</asrwt>
<pdfrwt beam="1">  1        2 0.37892494E-01 0.27158195E+03</pdfrwt>
<pdfrwt beam="2">  1       -2 0.11517598E-01 0.27158195E+03</pdfrwt>
<totfact> 0.71039330E+03</totfact>
</mgrwt>
</event>
<event>
 9    1  0.7944303E-001  0.2779104E+03  0.7818608E-02  0.1096836E+00
         -1   -1    0    0    0  501 -0.00000000000E+00  0.00000000000E+00  0.40762422767E+02  0.40762422767E+02  0.00000000000E+00 0.  1.
          1   -1    0    0  501    0  0.00000000000E+00 -0.00000000000E+00 -0.47368510730E+03  0.47368510730E+03  0.00000000000E+00 0.  1.
         35    2    1    2    0    0  0.00000000000E+00 -0.71054273576E-14 -0.43292268454E+03  0.51444753007E+03  0.27791043595E+03 0.  0.
         25    2    3    3    0    0  0.41203091216E+02  0.47732767209E+02 -0.24204985230E+03  0.27893771355E+03  0.12345851632E+03 0.  0.
         25    2    3    3    0    0 -0.41203091216E+02 -0.47732767209E+02 -0.19087283224E+03  0.23550981652E+03  0.12270421264E+03 0.  0.
          5    1    4    4  502    0  0.81947349283E+02  0.36573530713E+02 -0.19945199871E+03  0.21876055630E+03  0.47000000000E+01 0.  1.
         -5    1    4    4    0  502 -0.40744258067E+02  0.11159236496E+02 -0.42597853590E+02  0.60177157253E+02  0.47000000000E+01 0.  1.
          5    1    5    5  503    0 -0.66618257001E+02 -0.12700270123E+02 -0.40877423855E+02  0.79324288891E+02  0.47000000000E+01 0. -1.
         -5    1    5    5    0  503  0.25415165785E+02 -0.35032497087E+02 -0.14999540839E+03  0.15618552763E+03  0.47000000000E+01 0. -1.
<mgrwt>
<rscale>  0 0.27791044E+03</rscale>
<asrwt>0</asrwt>
<pdfrwt beam="1">  1        1 0.72874634E-01 0.27791044E+03</pdfrwt>
<pdfrwt beam="2">  1       -1 0.62711418E-02 0.27791044E+03</pdfrwt>
<totfact> 0.60367707E+03</totfact>
</mgrwt>
</event>
<event>
 9    1  0.7944303E-001  0.2765585E+03  0.7818608E-02  0.1097584E+00
         -1   -1    0    0    0  501 -0.00000000000E+00  0.00000000000E+00  0.51609449400E+02  0.51609449400E+02  0.00000000000E+00 0. -1.
          1   -1    0    0  501    0  0.00000000000E+00 -0.00000000000E+00 -0.37049708702E+03  0.37049708702E+03  0.00000000000E+00 0. -1.
         35    2    1    2    0    0 -0.71054273576E-14  0.00000000000E+00 -0.31888763762E+03  0.42210653642E+03  0.27655849772E+03 0.  0.
         25    2    3    3    0    0  0.46921905786E+02  0.15253468120E+02 -0.20953894753E+03  0.24925115725E+03  0.12563930647E+03 0.  0.
         25    2    3    3    0    0 -0.46921905786E+02 -0.15253468120E+02 -0.10934869009E+03  0.17285537916E+03  0.12444883506E+03 0.  0.
          5    1    4    4  502    0 -0.10368645760E+02 -0.45592536432E+02 -0.10714694343E+03  0.11699891315E+03  0.47000000000E+01 0.  1.
         -5    1    4    4    0  502  0.57290551546E+02  0.60846004552E+02 -0.10239200410E+03  0.13225224410E+03  0.47000000000E+01 0.  1.
          5    1    5    5  503    0 -0.42185391180E+02  0.14884220053E+02 -0.12876076105E+03  0.13639124174E+03  0.47000000000E+01 0.  1.
         -5    1    5    5    0  503 -0.47365146068E+01 -0.30137688173E+02  0.19412070964E+02  0.36464137425E+02  0.47000000000E+01 0.  1.
<mgrwt>
<rscale>  0 0.27655850E+03</rscale>
<asrwt>0</asrwt>
<pdfrwt beam="1">  1        1 0.56999551E-01 0.27655850E+03</pdfrwt>
<pdfrwt beam="2">  1       -1 0.79399154E-02 0.27655850E+03</pdfrwt>
<totfact> 0.57931813E+03</totfact>
</mgrwt>
</event>
<event>
 9    1  0.7944303E-001  0.2716620E+03  0.7818608E-02  0.1100332E+00
         -2   -1    0    0    0  501 -0.00000000000E+00  0.00000000000E+00  0.83442632891E+02  0.83442632891E+02  0.00000000000E+00 0. -1.
          2   -1    0    0  501    0  0.00000000000E+00 -0.00000000000E+00 -0.22111066088E+03  0.22111066088E+03  0.00000000000E+00 0. -1.
         35    2    1    2    0    0  0.71054273576E-14  0.00000000000E+00 -0.13766802799E+03  0.30455329378E+03  0.27166196425E+03 0.  0.
         25    2    3    3    0    0  0.42483930963E+02 -0.24411736210E+02 -0.89763040280E+02  0.16190696525E+03  0.12552149115E+03 0.  0.
         25    2    3    3    0    0 -0.42483930963E+02  0.24411736210E+02 -0.47904987713E+02  0.14264632853E+03  0.12510903221E+03 0.  0.
          5    1    4    4  502    0  0.42092796041E+01 -0.21306796054E+02 -0.11407228549E+03  0.11621649586E+03  0.47000000000E+01 0.  1.
         -5    1    4    4    0  502  0.38274651359E+02 -0.31049401558E+01  0.24309245213E+02  0.45690469387E+02  0.47000000000E+01 0.  1.
          5    1    5    5  503    0  0.19731577943E+01  0.56878362286E+02  0.14879748770E+02  0.59013035606E+02  0.47000000000E+01 0. -1.
         -5    1    5    5    0  503 -0.44457088757E+02 -0.32466626076E+02 -0.62784736483E+02  0.83633292921E+02  0.47000000000E+01 0. -1.
<mgrwt>
<rscale>  0 0.27166196E+03</rscale>
<asrwt>0</asrwt>
<pdfrwt beam="1">  1        2 0.34017025E-01 0.27166196E+03</pdfrwt>
<pdfrwt beam="2">  1       -2 0.12837328E-01 0.27166196E+03</pdfrwt>
<totfact> 0.67011443E+03</totfact>
</mgrwt>
</event>
<event>
 9    1  0.7944303E-001  0.2745341E+03  0.7818608E-02  0.1098712E+00
         -3   -1    0    0    0  501 -0.00000000000E+00  0.00000000000E+00  0.98366255461E+03  0.98366255461E+03  0.00000000000E+00 0.  1.
          3   -1    0    0  501    0  0.00000000000E+00 -0.00000000000E+00 -0.19155190774E+02  0.19155190774E+02  0.00000000000E+00 0.  1.
         35    2    1    2    0    0 -0.35527136788E-14  0.35527136788E-14  0.96450736384E+03  0.10028177454E+04  0.27453410637E+03 0.  0.
         25    2    3    3    0    0  0.12181501332E+02  0.27181439337E+01  0.68174133609E+03  0.69319132788E+03  0.12484867017E+03 0.  0.
         25    2    3    3    0    0 -0.12181501332E+02 -0.27181439337E+01  0.28276602775E+03  0.30962641750E+03  0.12552336310E+03 0.  0.
          5    1    4    4  502    0 -0.22453261170E+02 -0.48864152883E+02  0.44975809681E+03  0.45298597111E+03  0.47000000000E+01 0. -1.
         -5    1    4    4    0  502  0.34634762503E+02  0.51582296816E+02  0.23198323928E+03  0.24020535678E+03  0.47000000000E+01 0. -1.
          5    1    5    5  503    0 -0.10256145167E+02  0.18809409707E+02  0.28637639437E+03  0.28721509650E+03  0.47000000000E+01 0. -1.
         -5    1    5    5    0  503 -0.19253561649E+01 -0.21527553641E+02 -0.36103666121E+01  0.22411321005E+02  0.47000000000E+01 0. -1.
<mgrwt>
<rscale>  0 0.27453411E+03</rscale>
<asrwt>0</asrwt>
<pdfrwt beam="1">  1        3 0.29469532E-02 0.27453411E+03</pdfrwt>
<pdfrwt beam="2">  1       -3 0.15133266E+00 0.27453411E+03</pdfrwt>
<totfact> 0.44403153E+02</totfact>
</mgrwt>
</event>
<event>
 9    1  0.7944303E-001  0.2741967E+03  0.7818608E-02  0.1098901E+00
         -1   -1    0    0    0  501 -0.00000000000E+00  0.00000000000E+00  0.19836158329E+03  0.19836158329E+03  0.00000000000E+00 0. -1.
          1   -1    0    0  501    0  0.00000000000E+00 -0.00000000000E+00 -0.94756005143E+02  0.94756005143E+02  0.00000000000E+00 0. -1.
         35    2    1    2    0    0 -0.35527136788E-14 -0.71054273576E-14  0.10360557815E+03  0.29311758843E+03  0.27419665356E+03 0.  0.
         25    2    3    3    0    0  0.21103145155E+02  0.52140350318E+02  0.58269530458E+02  0.14859801223E+03  0.12458760850E+03 0.  0.
         25    2    3    3    0    0 -0.21103145155E+02 -0.52140350318E+02  0.45336047690E+02  0.14451957620E+03  0.12516625671E+03 0.  0.
          5    1    4    4  502    0 -0.27714044721E+02 -0.10747266182E+02  0.61833910015E+02  0.68768411592E+02  0.47000000000E+01 0. -1.
         -5    1    4    4    0  502  0.48817189876E+02  0.62887616500E+02 -0.35643795571E+01  0.79829600638E+02  0.47000000000E+01 0. -1.
          5    1    5    5  503    0 -0.24530167599E+02 -0.82367595309E+02  0.65118589056E+02  0.10792900685E+03  0.47000000000E+01 0. -1.
         -5    1    5    5    0  503  0.34270224439E+01  0.30227244991E+02 -0.19782541366E+02  0.36590569352E+02  0.47000000000E+01 0. -1.
<mgrwt>
<rscale>  0 0.27419665E+03</rscale>
<asrwt>0</asrwt>
<pdfrwt beam="1">  1        1 0.14577847E-01 0.27419665E+03</pdfrwt>
<pdfrwt beam="2">  1       -1 0.30517166E-01 0.27419665E+03</pdfrwt>
<totfact> 0.38185364E+03</totfact>
</mgrwt>
</event>
<event>
 9    1  0.7944303E-001  0.2659038E+03  0.7818608E-02  0.1103647E+00
          2   -1    0    0  501    0  0.00000000000E+00  0.00000000000E+00  0.95990519704E+03  0.95990519704E+03  0.00000000000E+00 0. -1.
         -2   -1    0    0    0  501 -0.00000000000E+00 -0.00000000000E+00 -0.18414534303E+02  0.18414534303E+02  0.00000000000E+00 0. -1.
         35    2    1    2    0    0  0.00000000000E+00  0.00000000000E+00  0.94149066274E+03  0.97831973135E+03  0.26590379598E+03 0.  0.
         25    2    3    3    0    0 -0.35801401078E+02 -0.24672916043E+02  0.48770939042E+03  0.50532684927E+03  0.12491710045E+03 0.  0.
         25    2    3    3    0    0  0.35801401078E+02  0.24672916043E+02  0.45378127233E+03  0.47299288208E+03  0.12615201259E+03 0.  0.
          5    1    4    4  502    0  0.33913056308E+02 -0.47441804572E+02  0.23241682391E+03  0.23966745763E+03  0.47000000000E+01 0. -1.
         -5    1    4    4    0  502 -0.69714457387E+02  0.22768888529E+02  0.25529256651E+03  0.26565939164E+03  0.47000000000E+01 0. -1.
          5    1    5    5  503    0  0.50557137642E+02 -0.12850113777E+02  0.40983231859E+03  0.41316554666E+03  0.47000000000E+01 0.  1.
         -5    1    5    5    0  503 -0.14755736563E+02  0.37523029820E+02  0.43948953739E+02  0.59827335417E+02  0.47000000000E+01 0.  1.
<mgrwt>
<rscale>  0 0.26590380E+03</rscale>
<asrwt>0</asrwt>
<pdfrwt beam="1">  1        2 0.14767768E+00 0.26590380E+03</pdfrwt>
<pdfrwt beam="2">  1       -2 0.28330060E-02 0.26590380E+03</pdfrwt>
<totfact> 0.12777025E+04</totfact>
</mgrwt>
</event>
<event>
 9    1  0.7944303E-001  0.2682046E+03  0.7818608E-02  0.1102312E+00
         -2   -1    0    0    0  501 -0.00000000000E+00  0.00000000000E+00  0.20316881950E+04  0.20316881950E+04  0.00000000000E+00 0.  1.
          2   -1    0    0  501    0  0.00000000000E+00 -0.00000000000E+00 -0.88514680965E+01  0.88514680965E+01  0.00000000000E+00 0.  1.
         35    2    1    2    0    0 -0.14210854715E-13  0.21316282073E-13  0.20228367269E+04  0.20405396631E+04  0.26820457297E+03 0.  0.
         25    2    3    3    0    0 -0.38480593289E+02  0.31254425882E+02  0.10156610013E+04  0.10243881405E+04  0.12387977150E+03 0.  0.
         25    2    3    3    0    0  0.38480593289E+02 -0.31254425882E+02  0.10071757256E+04  0.10161515225E+04  0.12531312495E+03 0.  0.
          5    1    4    4  502    0 -0.55230984042E+02 -0.33133387713E+02  0.40821363269E+03  0.41329014372E+03  0.47000000000E+01 0. -1.
         -5    1    4    4    0  502  0.16750390753E+02  0.64387813595E+02  0.60744736857E+03  0.61109799682E+03  0.47000000000E+01 0. -1.
          5    1    5    5  503    0 -0.52585703019E+01  0.43805947923E+02  0.24084557465E+03  0.24489853912E+03  0.47000000000E+01 0. -1.
         -5    1    5    5    0  503  0.43739163591E+02 -0.75060373805E+02  0.76633015097E+03  0.77125298342E+03  0.47000000000E+01 0. -1.
<mgrwt>
<rscale>  0 0.26820457E+03</rscale>
<asrwt>0</asrwt>
<pdfrwt beam="1">  1        2 0.13617659E-02 0.26820457E+03</pdfrwt>
<pdfrwt beam="2">  1       -2 0.31256704E+00 0.26820457E+03</pdfrwt>
<totfact> 0.28897344E+02</totfact>
</mgrwt>
</event>
<event>
 9    1  0.7944303E-001  0.2828098E+03  0.7818608E-02  0.1094164E+00
          2   -1    0    0  501    0  0.00000000000E+00  0.00000000000E+00  0.14383095288E+04  0.14383095288E+04  0.00000000000E+00 0.  1.
         -2   -1    0    0    0  501 -0.00000000000E+00 -0.00000000000E+00 -0.13901975028E+02  0.13901975028E+02  0.00000000000E+00 0.  1.
         35    2    1    2    0    0 -0.71054273576E-14  0.00000000000E+00  0.14244075537E+04  0.14522115038E+04  0.28280978167E+03 0.  0.
         25    2    3    3    0    0 -0.46974323203E+02  0.38587380582E+02  0.84932882009E+03  0.86053950696E+03  0.12439142021E+03 0.  0.
         25    2    3    3    0    0  0.46974323203E+02 -0.38587380582E+02  0.57507873366E+03  0.59167199684E+03  0.12515841547E+03 0.  0.
          5    1    4    4  502    0  0.39717015639E+02  0.32196355538E+02  0.32684308745E+03  0.33085123614E+03  0.47000000000E+01 0.  1.
         -5    1    4    4    0  502 -0.86691338842E+02  0.63910250436E+01  0.52248573265E+03  0.52968827082E+03  0.47000000000E+01 0.  1.
          5    1    5    5  503    0  0.35142144433E+02 -0.77674232635E+02  0.25387872500E+03  0.26785211170E+03  0.47000000000E+01 0.  1.
         -5    1    5    5    0  503  0.11832178770E+02  0.39086852054E+02  0.32120000865E+03  0.32381988515E+03  0.47000000000E+01 0.  1.
<mgrwt>
<rscale>  0 0.28280978E+03</rscale>
<asrwt>0</asrwt>
<pdfrwt beam="1">  1        2 0.22127827E+00 0.28280978E+03</pdfrwt>
<pdfrwt beam="2">  1       -2 0.21387665E-02 0.28280978E+03</pdfrwt>
<totfact> 0.10320092E+04</totfact>
</mgrwt>
</event>
<event>
 9    1  0.7944303E-001  0.2736339E+03  0.7818608E-02  0.1099218E+00
          2   -1    0    0  501    0  0.00000000000E+00  0.00000000000E+00  0.83227003084E+03  0.83227003084E+03  0.00000000000E+00 0. -1.
         -2   -1    0    0    0  501 -0.00000000000E+00 -0.00000000000E+00 -0.22491352282E+02  0.22491352282E+02  0.00000000000E+00 0. -1.
         35    2    1    2    0    0  0.00000000000E+00  0.00000000000E+00  0.80977867856E+03  0.85476138312E+03  0.27363390475E+03 0.  0.
         25    2    3    3    0    0 -0.57825976728E+01 -0.55851114685E+02  0.39151750492E+03  0.41473516286E+03  0.12476583349E+03 0.  0.
         25    2    3    3    0    0  0.57825976728E+01  0.55851114685E+02  0.41826117365E+03  0.44002622027E+03  0.12461091323E+03 0.  0.
          5    1    4    4  502    0 -0.58789671806E+02 -0.46356683959E+02  0.29203012592E+03  0.30151094856E+03  0.47000000000E+01 0. -1.
         -5    1    4    4    0  502  0.53007074133E+02 -0.94944307262E+01  0.99487378993E+02  0.11322421429E+03  0.47000000000E+01 0. -1.
          5    1    5    5  503    0 -0.33272592725E+02  0.67119214911E+02  0.14074495755E+03  0.15950952170E+03  0.47000000000E+01 0.  1.
         -5    1    5    5    0  503  0.39055190398E+02 -0.11268100226E+02  0.27751621610E+03  0.28051669857E+03  0.47000000000E+01 0.  1.
<mgrwt>
<rscale>  0 0.27363390E+03</rscale>
<asrwt>0</asrwt>
<pdfrwt beam="1">  1        2 0.12804152E+00 0.27363390E+03</pdfrwt>
<pdfrwt beam="2">  1       -2 0.34602087E-02 0.27363390E+03</pdfrwt>
<totfact> 0.11485586E+04</totfact>
</mgrwt>
</event>
<event>
 9    1  0.7944303E-001  0.2754608E+03  0.7818608E-02  0.1098194E+00
          2   -1    0    0  501    0  0.00000000000E+00  0.00000000000E+00  0.37307485975E+03  0.37307485975E+03  0.00000000000E+00 0. -1.
         -2   -1    0    0    0  501 -0.00000000000E+00 -0.00000000000E+00 -0.50846789844E+02  0.50846789844E+02  0.00000000000E+00 0. -1.
         35    2    1    2    0    0 -0.35527136788E-14 -0.71054273576E-14  0.32222806991E+03  0.42392164960E+03  0.27546077027E+03 0.  0.
         25    2    3    3    0    0  0.27395065417E+02 -0.24955101975E+02  0.90743389005E+02  0.15845070421E+03  0.12449504525E+03 0.  0.
         25    2    3    3    0    0 -0.27395065417E+02  0.24955101975E+02  0.23148468090E+03  0.26547094539E+03  0.12456491733E+03 0.  0.
          5    1    4    4  502    0 -0.42135158254E+02  0.82887471817E+01  0.63035734837E+02  0.76417725414E+02  0.47000000000E+01 0. -1.
         -5    1    4    4    0  502  0.69530223672E+02 -0.33243849157E+02  0.27707654169E+02  0.82032978796E+02  0.47000000000E+01 0. -1.
          5    1    5    5  503    0 -0.47610045573E+02  0.61416928057E+02  0.19464857292E+03  0.20963995905E+03  0.47000000000E+01 0.  1.
         -5    1    5    5    0  503  0.20214980155E+02 -0.36461826082E+02  0.36836107984E+02  0.55830986337E+02  0.47000000000E+01 0.  1.
<mgrwt>
<rscale>  0 0.27546077E+03</rscale>
<asrwt>0</asrwt>
<pdfrwt beam="1">  1        2 0.57396130E-01 0.27546077E+03</pdfrwt>
<pdfrwt beam="2">  1       -2 0.78225833E-02 0.27546077E+03</pdfrwt>
<totfact> 0.83830710E+03</totfact>
</mgrwt>
</event>
<event>
 9    1  0.7944303E-001  0.2756065E+03  0.7818608E-02  0.1098113E+00
         -4   -1    0    0    0  501 -0.00000000000E+00  0.00000000000E+00  0.75872607846E+02  0.75872607846E+02  0.00000000000E+00 0.  1.
          4   -1    0    0  501    0  0.00000000000E+00 -0.00000000000E+00 -0.25028438835E+03  0.25028438835E+03  0.00000000000E+00 0.  1.
         35    2    1    2    0    0  0.17763568394E-14  0.00000000000E+00 -0.17441178051E+03  0.32615699620E+03  0.27560645310E+03 0.  0.
         25    2    3    3    0    0  0.22507490425E+01  0.58168248109E+02 -0.84651577345E+02  0.16200392705E+03  0.12526281122E+03 0.  0.
         25    2    3    3    0    0 -0.22507490425E+01 -0.58168248109E+02 -0.89760203163E+02  0.16415306915E+03  0.12450190793E+03 0.  0.
          5    1    4    4  502    0  0.16879256306E+02 -0.33536805841E+02 -0.24871113906E+01  0.37919683049E+02  0.47000000000E+01 0.  1.
         -5    1    4    4    0  502 -0.14628507264E+02  0.91705053950E+02 -0.82164465955E+02  0.12408424401E+03  0.47000000000E+01 0.  1.
          5    1    5    5  503    0  0.13197876678E+02 -0.86754228193E+02 -0.96626683851E+02  0.13061120201E+03  0.47000000000E+01 0.  1.
         -5    1    5    5    0  503 -0.15448625721E+02  0.28585980084E+02  0.68664806876E+01  0.33541867138E+02  0.47000000000E+01 0.  1.
<mgrwt>
<rscale>  0 0.27560645E+03</rscale>
<asrwt>0</asrwt>
<pdfrwt beam="1">  1        4 0.38505291E-01 0.27560645E+03</pdfrwt>
<pdfrwt beam="2">  1       -4 0.11672709E-01 0.27560645E+03</pdfrwt>
<totfact> 0.71676699E+02</totfact>
</mgrwt>
</event>
<event>
 9    1  0.7944303E-001  0.2741575E+03  0.7818608E-02  0.1098923E+00
          2   -1    0    0  501    0  0.00000000000E+00  0.00000000000E+00  0.86661816211E+03  0.86661816211E+03  0.00000000000E+00 0.  1.
         -2   -1    0    0    0  501 -0.00000000000E+00 -0.00000000000E+00 -0.21682656130E+02  0.21682656130E+02  0.00000000000E+00 0.  1.
         35    2    1    2    0    0 -0.71054273576E-14  0.71054273576E-14  0.84493550598E+03  0.88830081824E+03  0.27415749929E+03 0.  0.
         25    2    3    3    0    0  0.38978952839E+02 -0.45455706820E+02  0.42732050043E+03  0.44831042533E+03  0.12162996064E+03 0.  0.
         25    2    3    3    0    0 -0.38978952839E+02  0.45455706820E+02  0.41761500555E+03  0.43999039291E+03  0.12491466265E+03 0.  0.
          5    1    4    4  502    0  0.78508834678E+02 -0.19115526542E+02  0.19488900645E+03  0.21102809129E+03  0.47000000000E+01 0.  1.
         -5    1    4    4    0  502 -0.39529881839E+02 -0.26340180278E+02  0.23243149398E+03  0.23728233404E+03  0.47000000000E+01 0.  1.
          5    1    5    5  503    0 -0.22498749901E+02 -0.52303801009E+00  0.38312903873E+01  0.23307425896E+02  0.47000000000E+01 0. -1.
         -5    1    5    5    0  503 -0.16480202938E+02  0.45978744830E+02  0.41378371516E+03  0.41668296701E+03  0.47000000000E+01 0. -1.
<mgrwt>
<rscale>  0 0.27415750E+03</rscale>
<asrwt>0</asrwt>
<pdfrwt beam="1">  1        2 0.13332584E+00 0.27415750E+03</pdfrwt>
<pdfrwt beam="2">  1       -2 0.33357939E-02 0.27415750E+03</pdfrwt>
<totfact> 0.11509068E+04</totfact>
</mgrwt>
</event>
<event>
 9    1  0.7944303E-001  0.2738018E+03  0.7818608E-02  0.1099123E+00
         -3   -1    0    0    0  501 -0.00000000000E+00  0.00000000000E+00  0.16724682044E+03  0.16724682044E+03  0.00000000000E+00 0. -1.
          3   -1    0    0  501    0  0.00000000000E+00 -0.00000000000E+00 -0.11206108990E+03  0.11206108990E+03  0.00000000000E+00 0. -1.
         35    2    1    2    0    0  0.71054273576E-14 -0.71054273576E-14  0.55185730534E+02  0.27930791034E+03  0.27380183331E+03 0.  0.
         25    2    3    3    0    0  0.40077606435E+02 -0.46123851881E+02  0.15784653340E+02  0.13500289949E+03  0.11934405448E+03 0.  0.
         25    2    3    3    0    0 -0.40077606435E+02  0.46123851881E+02  0.39401077195E+02  0.14430501085E+03  0.12465098083E+03 0.  0.
          5    1    4    4  502    0  0.74737350404E+02 -0.52649468009E+02 -0.84851193661E+01  0.91933265349E+02  0.47000000000E+01 0.  1.
         -5    1    4    4    0  502 -0.34659743969E+02  0.65256161277E+01  0.24269772706E+02  0.43069634141E+02  0.47000000000E+01 0.  1.
          5    1    5    5  503    0 -0.61822790735E+02  0.47569040919E+02 -0.20162234442E+02  0.80706113808E+02  0.47000000000E+01 0. -1.
         -5    1    5    5    0  503  0.21745184300E+02 -0.14451890380E+01  0.59563311637E+02  0.63598897041E+02  0.47000000000E+01 0. -1.
<mgrwt>
<rscale>  0 0.27380183E+03</rscale>
<asrwt>0</asrwt>
<pdfrwt beam="1">  1        3 0.17240168E-01 0.27380183E+03</pdfrwt>
<pdfrwt beam="2">  1       -3 0.25730280E-01 0.27380183E+03</pdfrwt>
<totfact> 0.10563517E+03</totfact>
</mgrwt>
</event>
<event>
 9    1  0.7944303E-001  0.2747174E+03  0.7818608E-02  0.1098610E+00
         -2   -1    0    0    0  501 -0.00000000000E+00  0.00000000000E+00  0.14275508712E+02  0.14275508712E+02  0.00000000000E+00 0. -1.
          2   -1    0    0  501    0  0.00000000000E+00 -0.00000000000E+00 -0.13216627841E+04  0.13216627841E+04  0.00000000000E+00 0. -1.
         35    2    1    2    0    0  0.00000000000E+00  0.00000000000E+00 -0.13073872754E+04  0.13359382928E+04  0.27471737177E+03 0.  0.
         25    2    3    3    0    0 -0.10783167823E+02 -0.11220313807E+02 -0.38440689789E+03  0.40429001731E+03  0.12425611777E+03 0.  0.
         25    2    3    3    0    0  0.10783167823E+02  0.11220313807E+02 -0.92298037750E+03  0.93164827550E+03  0.12583147397E+03 0.  0.
          5    1    4    4  502    0 -0.47115926558E+02 -0.47138005191E+02 -0.14803420260E+03  0.16241341450E+03  0.47000000000E+01 0. -1.
         -5    1    4    4    0  502  0.36332758736E+02  0.35917691384E+02 -0.23637269529E+03  0.24187660281E+03  0.47000000000E+01 0. -1.
          5    1    5    5  503    0  0.25414597560E+02  0.19893032193E+02 -0.90775780270E+03  0.90834352140E+03  0.47000000000E+01 0. -1.
         -5    1    5    5    0  503 -0.14631429737E+02 -0.86727183862E+01 -0.15222574803E+02  0.23304754107E+02  0.47000000000E+01 0. -1.
<mgrwt>
<rscale>  0 0.27471737E+03</rscale>
<asrwt>0</asrwt>
<pdfrwt beam="1">  1        2 0.20333273E+00 0.27471737E+03</pdfrwt>
<pdfrwt beam="2">  1       -2 0.21962322E-02 0.27471737E+03</pdfrwt>
<totfact> 0.11482627E+04</totfact>
</mgrwt>
</event>
<event>
 9    1  0.7944303E-001  0.2799413E+03  0.7818608E-02  0.1095721E+00
          2   -1    0    0  501    0  0.00000000000E+00  0.00000000000E+00  0.36089540152E+04  0.36089540152E+04  0.00000000000E+00 0. -1.
         -2   -1    0    0    0  501 -0.00000000000E+00 -0.00000000000E+00 -0.54286613801E+01  0.54286613801E+01  0.00000000000E+00 0. -1.
         35    2    1    2    0    0 -0.14210854715E-13  0.17763568394E-14  0.36035253538E+04  0.36143826765E+04  0.27994134589E+03 0.  0.
         25    2    3    3    0    0 -0.52647892562E+02 -0.21419474789E+01  0.22276228911E+04  0.22317647817E+04  0.12527532635E+03 0.  0.
         25    2    3    3    0    0  0.52647892562E+02  0.21419474789E+01  0.13759024627E+04  0.13826178948E+04  0.12549210242E+03 0.  0.
          5    1    4    4  502    0 -0.47226305022E+01 -0.86536680991E+01  0.19424959137E+04  0.19425266160E+04  0.47000000000E+01 0. -1.
         -5    1    4    4    0  502 -0.47925262060E+02  0.65117206203E+01  0.28512697742E+03  0.28923816571E+03  0.47000000000E+01 0. -1.
          5    1    5    5  503    0  0.75487877861E+02  0.32775736317E+02  0.11854919937E+04  0.11883543351E+04  0.47000000000E+01 0.  1.
         -5    1    5    5    0  503 -0.22839985299E+02 -0.30633788838E+02  0.19041046895E+03  0.19426355972E+03  0.47000000000E+01 0.  1.
<mgrwt>
<rscale>  0 0.27994135E+03</rscale>
<asrwt>0</asrwt>
<pdfrwt beam="1">  1        2 0.55522178E+00 0.27994135E+03</pdfrwt>
<pdfrwt beam="2">  1       -2 0.83518156E-03 0.27994135E+03</pdfrwt>
<totfact> 0.23707637E+03</totfact>
</mgrwt>
</event>
<event>
 9    1  0.7944303E-001  0.2743241E+03  0.7818608E-02  0.1098830E+00
          1   -1    0    0  501    0  0.00000000000E+00  0.00000000000E+00  0.58269316118E+03  0.58269316118E+03  0.00000000000E+00 0. -1.
         -1   -1    0    0    0  501 -0.00000000000E+00 -0.00000000000E+00 -0.32287033929E+02  0.32287033929E+02  0.00000000000E+00 0. -1.
         35    2    1    2    0    0  0.00000000000E+00  0.00000000000E+00  0.55040612725E+03  0.61498019511E+03  0.27432414305E+03 0.  0.
         25    2    3    3    0    0  0.23422439659E+02  0.25807033768E+02  0.17193638044E+03  0.21500625248E+03  0.12430187455E+03 0.  0.
         25    2    3    3    0    0 -0.23422439659E+02 -0.25807033768E+02  0.37846974681E+03  0.39997394263E+03  0.12460012784E+03 0.  0.
          5    1    4    4  502    0  0.31085283549E+02 -0.68467364570E+01  0.17775322239E+03  0.18064182994E+03  0.47000000000E+01 0. -1.
         -5    1    4    4    0  502 -0.76628438902E+01  0.32653770225E+02 -0.58168419522E+01  0.34364422543E+02  0.47000000000E+01 0. -1.
          5    1    5    5  503    0  0.14078940701E+02  0.44171857180E+02  0.18535466821E+03  0.19112250670E+03  0.47000000000E+01 0. -1.
         -5    1    5    5    0  503 -0.37501380360E+02 -0.69978890948E+02  0.19311507860E+03  0.20885143593E+03  0.47000000000E+01 0. -1.
<mgrwt>
<rscale>  0 0.27432414E+03</rscale>
<asrwt>0</asrwt>
<pdfrwt beam="1">  1        1 0.89645094E-01 0.27432414E+03</pdfrwt>
<pdfrwt beam="2">  1       -1 0.49672364E-02 0.27432414E+03</pdfrwt>
<totfact> 0.64865701E+03</totfact>
</mgrwt>
</event>
<event>
 9    1  0.7944303E-001  0.2646002E+03  0.7818608E-02  0.1104410E+00
         -2   -1    0    0    0  501 -0.00000000000E+00  0.00000000000E+00  0.14231673170E+02  0.14231673170E+02  0.00000000000E+00 0.  1.
          2   -1    0    0  501    0  0.00000000000E+00 -0.00000000000E+00 -0.12298850135E+04  0.12298850135E+04  0.00000000000E+00 0.  1.
         35    2    1    2    0    0  0.00000000000E+00  0.35527136788E-14 -0.12156533404E+04  0.12441166867E+04  0.26460023847E+03 0.  0.
         25    2    3    3    0    0  0.34911280291E+02  0.57128299359E+01 -0.48532242798E+03  0.50219557996E+03  0.12414148185E+03 0.  0.
         25    2    3    3    0    0 -0.34911280291E+02 -0.57128299359E+01 -0.73033091238E+03  0.74192110673E+03  0.12574678177E+03 0.  0.
          5    1    4    4  502    0  0.53905436732E+02 -0.28574057776E+02 -0.42942753291E+03  0.43376533853E+03  0.47000000000E+01 0. -1.
         -5    1    4    4    0  502 -0.18994156441E+02  0.34286887712E+02 -0.55894895067E+02  0.68430241433E+02  0.47000000000E+01 0. -1.
          5    1    5    5  503    0 -0.76258171024E+02 -0.22914771918E+02 -0.56361350498E+03  0.56922989065E+03  0.47000000000E+01 0.  1.
         -5    1    5    5    0  503  0.41346890734E+02  0.17201941982E+02 -0.16671740740E+03  0.17269121608E+03  0.47000000000E+01 0.  1.
<mgrwt>
<rscale>  0 0.26460024E+03</rscale>
<asrwt>0</asrwt>
<pdfrwt beam="1">  1        2 0.18921317E+00 0.26460024E+03</pdfrwt>
<pdfrwt beam="2">  1       -2 0.21894871E-02 0.26460024E+03</pdfrwt>
<totfact> 0.12961276E+04</totfact>
</mgrwt>
</event>
<event>
 9    1  0.7944303E-001  0.2744688E+03  0.7818608E-02  0.1098749E+00
          1   -1    0    0  501    0  0.00000000000E+00  0.00000000000E+00  0.32880641273E+03  0.32880641273E+03  0.00000000000E+00 0. -1.
         -1   -1    0    0    0  501 -0.00000000000E+00 -0.00000000000E+00 -0.57277730721E+02  0.57277730721E+02  0.00000000000E+00 0. -1.
         35    2    1    2    0    0  0.00000000000E+00  0.00000000000E+00  0.27152868201E+03  0.38608414345E+03  0.27446883370E+03 0.  0.
         25    2    3    3    0    0  0.48075829187E+02 -0.16397258593E+02  0.16044889947E+03  0.21162724507E+03  0.12830466115E+03 0.  0.
         25    2    3    3    0    0 -0.48075829187E+02  0.16397258593E+02  0.11107978254E+03  0.17445689838E+03  0.12456458510E+03 0.  0.
          5    1    4    4  502    0  0.43965346885E+02 -0.24285139849E+02  0.18145484737E+03  0.18833659066E+03  0.47000000000E+01 0.  1.
         -5    1    4    4    0  502  0.41104823019E+01  0.78878812564E+01 -0.21005947907E+02  0.23290654412E+02  0.47000000000E+01 0.  1.
          5    1    5    5  503    0 -0.35398290891E+02  0.65450450827E+02  0.95671272886E+02  0.12129255116E+03  0.47000000000E+01 0.  1.
         -5    1    5    5    0  503 -0.12677538296E+02 -0.49053192234E+02  0.15408509654E+02  0.53164347220E+02  0.47000000000E+01 0.  1.
<mgrwt>
<rscale>  0 0.27446883E+03</rscale>
<asrwt>0</asrwt>
<pdfrwt beam="1">  1        1 0.50585601E-01 0.27446883E+03</pdfrwt>
<pdfrwt beam="2">  1       -1 0.88119588E-02 0.27446883E+03</pdfrwt>
<totfact> 0.57448579E+03</totfact>
</mgrwt>
</event>
<event>
 9    1  0.7944303E-001  0.2739131E+03  0.7818608E-02  0.1099061E+00
         -2   -1    0    0    0  501 -0.00000000000E+00  0.00000000000E+00  0.63737873319E+01  0.63737873319E+01  0.00000000000E+00 0. -1.
          2   -1    0    0  501    0  0.00000000000E+00 -0.00000000000E+00 -0.29428503716E+04  0.29428503716E+04  0.00000000000E+00 0. -1.
         35    2    1    2    0    0  0.71054273576E-14  0.71054273576E-14 -0.29364765842E+04  0.29492241589E+04  0.27391314257E+03 0.  0.
         25    2    3    3    0    0 -0.20708422018E+02  0.53235159421E+02 -0.14569465101E+04  0.14633934881E+04  0.12475795191E+03 0.  0.
         25    2    3    3    0    0  0.20708422018E+02 -0.53235159421E+02 -0.14795300741E+04  0.14858306708E+04  0.12418019687E+03 0.  0.
          5    1    4    4  502    0 -0.37268980331E+02  0.75744667563E+01 -0.12950833098E+03  0.13505868071E+03  0.47000000000E+01 0. -1.
         -5    1    4    4    0  502  0.16560558313E+02  0.45660692664E+02 -0.13274381792E+04  0.13283348074E+04  0.47000000000E+01 0. -1.
          5    1    5    5  503    0  0.45050377725E+02 -0.73088730687E+02 -0.64622203416E+03  0.65191756113E+03  0.47000000000E+01 0.  1.
         -5    1    5    5    0  503 -0.24341955708E+02  0.19853571266E+02 -0.83330803993E+03  0.83391310968E+03  0.47000000000E+01 0.  1.
<mgrwt>
<rscale>  0 0.27391314E+03</rscale>
<asrwt>0</asrwt>
<pdfrwt beam="1">  1        2 0.45274624E+00 0.27391314E+03</pdfrwt>
<pdfrwt beam="2">  1       -2 0.98058259E-03 0.27391314E+03</pdfrwt>
<totfact> 0.49400914E+03</totfact>
</mgrwt>
</event>
<event>
 9    1  0.7944303E-001  0.2742874E+03  0.7818608E-02  0.1098851E+00
         -2   -1    0    0    0  501 -0.00000000000E+00  0.00000000000E+00  0.10552979335E+03  0.10552979335E+03  0.00000000000E+00 0. -1.
          2   -1    0    0  501    0  0.00000000000E+00 -0.00000000000E+00 -0.17822822667E+03  0.17822822667E+03  0.00000000000E+00 0. -1.
         35    2    1    2    0    0  0.00000000000E+00 -0.71054273576E-14 -0.72698433317E+02  0.28375802001E+03  0.27428735245E+03 0.  0.
         25    2    3    3    0    0  0.56401226277E+02  0.76401477474E+01 -0.41052270130E+02  0.14307524736E+03  0.12468266656E+03 0.  0.
         25    2    3    3    0    0 -0.56401226277E+02 -0.76401477474E+01 -0.31646163186E+02  0.14068277266E+03  0.12470241655E+03 0.  0.
          5    1    4    4  502    0  0.36055179520E+02  0.64886823246E+02 -0.33831805508E+02  0.81712648134E+02  0.47000000000E+01 0.  1.
         -5    1    4    4    0  502  0.20346046757E+02 -0.57246675499E+02 -0.72204646228E+01  0.61362599225E+02  0.47000000000E+01 0.  1.
          5    1    5    5  503    0 -0.42379473936E+02 -0.42858347562E+02  0.30517164288E+02  0.67721821321E+02  0.47000000000E+01 0. -1.
         -5    1    5    5    0  503 -0.14021752341E+02  0.35218199814E+02 -0.62163327474E+02  0.72960951334E+02  0.47000000000E+01 0. -1.
<mgrwt>
<rscale>  0 0.27428735E+03</rscale>
<asrwt>0</asrwt>
<pdfrwt beam="1">  1        2 0.27419727E-01 0.27428735E+03</pdfrwt>
<pdfrwt beam="2">  1       -2 0.16235353E-01 0.27428735E+03</pdfrwt>
<totfact> 0.57693004E+03</totfact>
</mgrwt>
</event>
<event>
 9    1  0.7944303E-001  0.2783294E+03  0.7818608E-02  0.1096605E+00
          3   -1    0    0  501    0  0.00000000000E+00  0.00000000000E+00  0.98417675334E+02  0.98417675334E+02  0.00000000000E+00 0. -1.
         -3   -1    0    0    0  501 -0.00000000000E+00 -0.00000000000E+00 -0.19678182047E+03  0.19678182047E+03  0.00000000000E+00 0. -1.
         35    2    1    2    0    0  0.00000000000E+00 -0.17763568394E-14 -0.98364145136E+02  0.29519949580E+03  0.27832936833E+03 0.  0.
         25    2    3    3    0    0 -0.49855043934E+02  0.14537547394E+02 -0.53461011672E+02  0.15339792657E+03  0.13407452560E+03 0.  0.
         25    2    3    3    0    0  0.49855043934E+02 -0.14537547394E+02 -0.44903133464E+02  0.14180156924E+03  0.12407468700E+03 0.  0.
          5    1    4    4  502    0  0.15066146155E+02  0.14368331055E+02  0.36545344248E+02  0.42321269871E+02  0.47000000000E+01 0. -1.
         -5    1    4    4    0  502 -0.64921190090E+02  0.16921633817E+00 -0.90006355920E+02  0.11107665670E+03  0.47000000000E+01 0. -1.
          5    1    5    5  503    0  0.28095498230E+02  0.61142038244E+00  0.42039167108E+02  0.50784962605E+02  0.47000000000E+01 0. -1.
         -5    1    5    5    0  503  0.21759545704E+02 -0.15148967776E+02 -0.86942300572E+02  0.91016606631E+02  0.47000000000E+01 0. -1.
<mgrwt>
<rscale>  0 0.27832937E+03</rscale>
<asrwt>0</asrwt>
<pdfrwt beam="1">  1        3 0.15141181E-01 0.27832937E+03</pdfrwt>
<pdfrwt beam="2">  1       -3 0.30274126E-01 0.27832937E+03</pdfrwt>
<totfact> 0.98161617E+02</totfact>
</mgrwt>
</event>
<event>
 9    1  0.7944303E-001  0.2753788E+03  0.7818608E-02  0.1098240E+00
         -2   -1    0    0    0  501 -0.00000000000E+00  0.00000000000E+00  0.21150505203E+02  0.21150505203E+02  0.00000000000E+00 0. -1.
          2   -1    0    0  501    0  0.00000000000E+00 -0.00000000000E+00 -0.89635523590E+03  0.89635523590E+03  0.00000000000E+00 0. -1.
         35    2    1    2    0    0  0.00000000000E+00  0.53290705182E-14 -0.87520473070E+03  0.91750574110E+03  0.27537876520E+03 0.  0.
         25    2    3    3    0    0  0.54695259833E+02  0.29600211439E+00 -0.48484340016E+03  0.50392620443E+03  0.12600332441E+03 0.  0.
         25    2    3    3    0    0 -0.54695259833E+02 -0.29600211439E+00 -0.39036133053E+03  0.41357953667E+03  0.12519746688E+03 0.  0.
          5    1    4    4  502    0  0.49427301790E+02 -0.59236843074E+02 -0.28344812897E+03  0.29379753838E+03  0.47000000000E+01 0. -1.
         -5    1    4    4    0  502  0.52679580428E+01  0.59532845188E+02 -0.20139527119E+03  0.21012866605E+03  0.47000000000E+01 0. -1.
          5    1    5    5  503    0  0.24616328959E+02 -0.84239911581E+01 -0.16239416793E+02  0.31027986338E+02  0.47000000000E+01 0.  1.
         -5    1    5    5    0  503 -0.79311588791E+02  0.81279890437E+01 -0.37412191374E+03  0.38255155034E+03  0.47000000000E+01 0.  1.
<mgrwt>
<rscale>  0 0.27537877E+03</rscale>
<asrwt>0</asrwt>
<pdfrwt beam="1">  1        2 0.13790083E+00 0.27537877E+03</pdfrwt>
<pdfrwt beam="2">  1       -2 0.32539232E-02 0.27537877E+03</pdfrwt>
<totfact> 0.11423237E+04</totfact>
</mgrwt>
</event>
<event>
 9    1  0.7944303E-001  0.2771123E+03  0.7818608E-02  0.1097277E+00
         -1   -1    0    0    0  501 -0.00000000000E+00  0.00000000000E+00  0.20584810824E+03  0.20584810824E+03  0.00000000000E+00 0.  1.
          1   -1    0    0  501    0  0.00000000000E+00 -0.00000000000E+00 -0.93262007738E+02  0.93262007738E+02  0.00000000000E+00 0.  1.
         35    2    1    2    0    0  0.00000000000E+00  0.00000000000E+00  0.11258610050E+03  0.29911011598E+03  0.27711230838E+03 0.  0.
         25    2    3    3    0    0  0.13403092181E+02 -0.19933558170E+02 -0.35094635880E+01  0.12713071223E+03  0.12479147421E+03 0.  0.
         25    2    3    3    0    0 -0.13403092181E+02  0.19933558170E+02  0.11609556409E+03  0.17197940375E+03  0.12458629817E+03 0.  0.
          5    1    4    4  502    0 -0.54746280458E+02 -0.15902459064E+02  0.79347258559E+01  0.57750266690E+02  0.47000000000E+01 0. -1.
         -5    1    4    4    0  502  0.68149372640E+02 -0.40310991053E+01 -0.11444189444E+02  0.69380445539E+02  0.47000000000E+01 0. -1.
          5    1    5    5  503    0  0.23995863158E+02  0.96579791470E+01 -0.18292323945E+02  0.32027755545E+02  0.47000000000E+01 0.  1.
         -5    1    5    5    0  503 -0.37398955340E+02  0.10275579023E+02  0.13438788804E+03  0.13995164821E+03  0.47000000000E+01 0.  1.
<mgrwt>
<rscale>  0 0.27711231E+03</rscale>
<asrwt>0</asrwt>
<pdfrwt beam="1">  1        1 0.14348001E-01 0.27711231E+03</pdfrwt>
<pdfrwt beam="2">  1       -1 0.31668939E-01 0.27711231E+03</pdfrwt>
<totfact> 0.36610538E+03</totfact>
</mgrwt>
</event>
<event>
 9    1  0.7944303E-001  0.2748171E+03  0.7818608E-02  0.1098554E+00
          2   -1    0    0  501    0  0.00000000000E+00  0.00000000000E+00  0.21954163807E+04  0.21954163807E+04  0.00000000000E+00 0.  1.
         -2   -1    0    0    0  501 -0.00000000000E+00 -0.00000000000E+00 -0.86002384876E+01  0.86002384876E+01  0.00000000000E+00 0.  1.
         35    2    1    2    0    0  0.17763568394E-14  0.00000000000E+00  0.21868161422E+04  0.22040166192E+04  0.27481706245E+03 0.  0.
         25    2    3    3    0    0  0.93895501454E+01  0.37591387493E+02  0.77112671896E+03  0.78231344435E+03  0.12600250968E+03 0.  0.
         25    2    3    3    0    0 -0.93895501454E+01 -0.37591387493E+02  0.14156894233E+04  0.14217031749E+04  0.12474813897E+03 0.  0.
          5    1    4    4  502    0  0.17176342523E+02  0.71175357831E+02  0.69195126654E+03  0.69583015425E+03  0.47000000000E+01 0.  1.
         -5    1    4    4    0  502 -0.77867923780E+01 -0.33583970338E+02  0.79175452421E+02  0.86483290093E+02  0.47000000000E+01 0.  1.
          5    1    5    5  503    0 -0.43599807975E+02  0.61458097289E+01  0.20481310331E+03  0.20954524934E+03  0.47000000000E+01 0. -1.
         -5    1    5    5    0  503  0.34210257829E+02 -0.43737197222E+02  0.12108763200E+04  0.12121579255E+04  0.47000000000E+01 0. -1.
<mgrwt>
<rscale>  0 0.27481706E+03</rscale>
<asrwt>0</asrwt>
<pdfrwt beam="1">  1        2 0.33775592E+00 0.27481706E+03</pdfrwt>
<pdfrwt beam="2">  1       -2 0.13231154E-02 0.27481706E+03</pdfrwt>
<totfact> 0.83005902E+03</totfact>
</mgrwt>
</event>
<event>
 9    1  0.7944303E-001  0.2746960E+03  0.7818608E-02  0.1098622E+00
         -2   -1    0    0    0  501 -0.00000000000E+00  0.00000000000E+00  0.18290324951E+03  0.18290324951E+03  0.00000000000E+00 0.  1.
          2   -1    0    0  501    0  0.00000000000E+00 -0.00000000000E+00 -0.10313907733E+03  0.10313907733E+03  0.00000000000E+00 0.  1.
         35    2    1    2    0    0  0.00000000000E+00  0.71054273576E-14  0.79764172181E+02  0.28604232685E+03  0.27469599485E+03 0.  0.
         25    2    3    3    0    0  0.44134988436E+02  0.77717080376E+01  0.79238771228E+02  0.15455546430E+03  0.12490120908E+03 0.  0.
         25    2    3    3    0    0 -0.44134988436E+02 -0.77717080376E+01  0.52540095363E+00  0.13148686255E+03  0.12361319641E+03 0.  0.
          5    1    4    4  502    0  0.72574630384E+02 -0.34038188347E+02  0.36602210932E+02  0.88246739806E+02  0.47000000000E+01 0. -1.
         -5    1    4    4    0  502 -0.28439641948E+02  0.41809896385E+02  0.42636560296E+02  0.66308724492E+02  0.47000000000E+01 0. -1.
          5    1    5    5  503    0 -0.43553016930E+02 -0.62035669059E+02  0.85719487420E+01  0.76425505066E+02  0.47000000000E+01 0.  1.
         -5    1    5    5    0  503 -0.58197150579E+00  0.54263961021E+02 -0.80465477883E+01  0.55061357483E+02  0.47000000000E+01 0.  1.
<mgrwt>
<rscale>  0 0.27469599E+03</rscale>
<asrwt>0</asrwt>
<pdfrwt beam="1">  1        2 0.15867550E-01 0.27469599E+03</pdfrwt>
<pdfrwt beam="2">  1       -2 0.28138961E-01 0.27469599E+03</pdfrwt>
<totfact> 0.41635325E+03</totfact>
</mgrwt>
</event>
<event>
 9    1  0.7944303E-001  0.2784648E+03  0.7818608E-02  0.1096530E+00
         -1   -1    0    0    0  501 -0.00000000000E+00  0.00000000000E+00  0.14856515545E+03  0.14856515545E+03  0.00000000000E+00 0.  1.
          1   -1    0    0  501    0  0.00000000000E+00 -0.00000000000E+00 -0.13048595853E+03  0.13048595853E+03  0.00000000000E+00 0.  1.
         35    2    1    2    0    0 -0.88817841970E-15  0.71054273576E-14  0.18079196926E+02  0.27905111398E+03  0.27846483953E+03 0.  0.
         25    2    3    3    0    0  0.76940748916E+01  0.17393471127E+02  0.67873920948E+02  0.14366101572E+03  0.12517941790E+03 0.  0.
         25    2    3    3    0    0 -0.76940748916E+01 -0.17393471127E+02 -0.49794724022E+02  0.13539009827E+03  0.12445574532E+03 0.  0.
          5    1    4    4  502    0 -0.42715289748E+01  0.64486944610E+02  0.63303838796E+01  0.65107416974E+02  0.47000000000E+01 0.  1.
         -5    1    4    4    0  502  0.11965603866E+02 -0.47093473483E+02  0.61543537068E+02  0.78553598743E+02  0.47000000000E+01 0.  1.
          5    1    5    5  503    0 -0.51412574487E+02 -0.15254389476E+02 -0.68869270967E+02  0.87412903494E+02  0.47000000000E+01 0.  1.
         -5    1    5    5    0  503  0.43718499596E+02 -0.21390816505E+01  0.19074546945E+02  0.47977194774E+02  0.47000000000E+01 0.  1.
<mgrwt>
<rscale>  0 0.27846484E+03</rscale>
<asrwt>0</asrwt>
<pdfrwt beam="1">  1        1 0.20074763E-01 0.27846484E+03</pdfrwt>
<pdfrwt beam="2">  1       -1 0.22856178E-01 0.27846484E+03</pdfrwt>
<totfact> 0.40879588E+03</totfact>
</mgrwt>
</event>
<event>
 9    1  0.7944303E-001  0.2791187E+03  0.7818608E-02  0.1096171E+00
          4   -1    0    0  501    0  0.00000000000E+00  0.00000000000E+00  0.24022901388E+02  0.24022901388E+02  0.00000000000E+00 0. -1.
         -4   -1    0    0    0  501 -0.00000000000E+00 -0.00000000000E+00 -0.81076043733E+03  0.81076043733E+03  0.00000000000E+00 0. -1.
         35    2    1    2    0    0  0.10658141036E-13  0.00000000000E+00 -0.78673753595E+03  0.83478333872E+03  0.27911874201E+03 0.  0.
         25    2    3    3    0    0  0.31797118154E+02  0.47508999996E+02 -0.28295377610E+03  0.31273075953E+03  0.12028934593E+03 0.  0.
         25    2    3    3    0    0 -0.31797118154E+02 -0.47508999996E+02 -0.50378375984E+03  0.52205257919E+03  0.12438913518E+03 0.  0.
          5    1    4    4  502    0  0.60237409471E+02  0.42382134324E+02 -0.27139884814E+03  0.28125471655E+03  0.47000000000E+01 0. -1.
         -5    1    4    4    0  502 -0.28440291317E+02  0.51268656714E+01 -0.11554927963E+02  0.31476042986E+02  0.47000000000E+01 0. -1.
          5    1    5    5  503    0  0.17345109229E+01  0.39733224904E+02 -0.10356812964E+03  0.11104136692E+03  0.47000000000E+01 0.  1.
         -5    1    5    5    0  503 -0.33531629076E+02 -0.87242224900E+02 -0.40021563020E+03  0.41101121227E+03  0.47000000000E+01 0.  1.
<mgrwt>
<rscale>  0 0.27911874E+03</rscale>
<asrwt>0</asrwt>
<pdfrwt beam="1">  1        4 0.36958311E-02 0.27911874E+03</pdfrwt>
<pdfrwt beam="2">  1       -4 0.12473237E+00 0.27911874E+03</pdfrwt>
<totfact> 0.36588807E+02</totfact>
</mgrwt>
</event>
<event>
 9    1  0.7944303E-001  0.2646306E+03  0.7818608E-02  0.1104393E+00
          3   -1    0    0  501    0  0.00000000000E+00  0.00000000000E+00  0.17584172035E+03  0.17584172035E+03  0.00000000000E+00 0.  1.
         -3   -1    0    0    0  501 -0.00000000000E+00 -0.00000000000E+00 -0.99563091000E+02  0.99563091000E+02  0.00000000000E+00 0.  1.
         35    2    1    2    0    0 -0.71054273576E-14  0.17763568394E-14  0.76278629348E+02  0.27540481135E+03  0.26463064981E+03 0.  0.
         25    2    3    3    0    0  0.32044658691E+02  0.77910741054E+01  0.84780972394E+01  0.12947349072E+03  0.12491575433E+03 0.  0.
         25    2    3    3    0    0 -0.32044658691E+02 -0.77910741054E+01  0.67800532109E+02  0.14593132063E+03  0.12494589710E+03 0.  0.
          5    1    4    4  502    0 -0.53015427550E+01  0.40556222105E+02 -0.41774051188E+02  0.58652151364E+02  0.47000000000E+01 0.  1.
         -5    1    4    4    0  502  0.37346201446E+02 -0.32765147999E+02  0.50252148427E+02  0.70821339351E+02  0.47000000000E+01 0.  1.
          5    1    5    5  503    0 -0.79493849623E+02 -0.22415806827E+01  0.53055371375E+02  0.95714467263E+02  0.47000000000E+01 0.  1.
         -5    1    5    5    0  503  0.47449190931E+02 -0.55494934227E+01  0.14745160734E+02  0.50216853369E+02  0.47000000000E+01 0.  1.
<mgrwt>
<rscale>  0 0.26463065E+03</rscale>
<asrwt>0</asrwt>
<pdfrwt beam="1">  1        3 0.27052572E-01 0.26463065E+03</pdfrwt>
<pdfrwt beam="2">  1       -3 0.15317399E-01 0.26463065E+03</pdfrwt>
<totfact> 0.11793126E+03</totfact>
</mgrwt>
</event>
<event>
 9    1  0.7944303E-001  0.2769924E+03  0.7818608E-02  0.1097343E+00
          2   -1    0    0  501    0  0.00000000000E+00  0.00000000000E+00  0.10297290219E+04  0.10297290219E+04  0.00000000000E+00 0. -1.
         -2   -1    0    0    0  501 -0.00000000000E+00 -0.00000000000E+00 -0.18627426459E+02  0.18627426459E+02  0.00000000000E+00 0. -1.
         35    2    1    2    0    0 -0.71054273576E-14  0.35527136788E-14  0.10111015955E+04  0.10483564484E+04  0.27699243043E+03 0.  0.
         25    2    3    3    0    0  0.31807046380E+02  0.31369808790E+02  0.66410813719E+03  0.67705712879E+03  0.12397977524E+03 0.  0.
         25    2    3    3    0    0 -0.31807046380E+02 -0.31369808790E+02  0.34699345829E+03  0.37129931961E+03  0.12435019718E+03 0.  0.
          5    1    4    4  502    0  0.51862472491E+02 -0.19158007447E+02  0.14777713521E+03  0.15785093282E+03  0.47000000000E+01 0.  1.
         -5    1    4    4    0  502 -0.20055426111E+02  0.50527816237E+02  0.51633100198E+03  0.51920619597E+03  0.47000000000E+01 0.  1.
          5    1    5    5  503    0  0.34428124202E+02  0.76170135823E+01  0.21945006493E+03  0.22231449712E+03  0.47000000000E+01 0. -1.
         -5    1    5    5    0  503 -0.66235170582E+02 -0.38986822372E+02  0.12754339337E+03  0.14898482249E+03  0.47000000000E+01 0. -1.
<mgrwt>
<rscale>  0 0.27699243E+03</rscale>
<asrwt>0</asrwt>
<pdfrwt beam="1">  1        2 0.15841980E+00 0.27699243E+03</pdfrwt>
<pdfrwt beam="2">  1       -2 0.28657587E-02 0.27699243E+03</pdfrwt>
<totfact> 0.11395390E+04</totfact>
</mgrwt>
</event>
<event>
 9    1  0.7944303E-001  0.2700635E+03  0.7818608E-02  0.1101243E+00
          1   -1    0    0  501    0  0.00000000000E+00  0.00000000000E+00  0.35841088550E+04  0.35841088550E+04  0.00000000000E+00 0. -1.
         -1   -1    0    0    0  501 -0.00000000000E+00 -0.00000000000E+00 -0.50873392683E+01  0.50873392683E+01  0.00000000000E+00 0. -1.
         35    2    1    2    0    0  0.35527136788E-14  0.00000000000E+00  0.35790215157E+04  0.35891961943E+04  0.27006353119E+03 0.  0.
         25    2    3    3    0    0  0.12494896635E+02 -0.33892705225E+02  0.22661236109E+04  0.22698649014E+04  0.12516234628E+03 0.  0.
         25    2    3    3    0    0 -0.12494896635E+02  0.33892705225E+02  0.13128979049E+04  0.13193312929E+04  0.12501725424E+03 0.  0.
          5    1    4    4  502    0 -0.53036349851E+02  0.25431488316E+01  0.75859064076E+03  0.76046115763E+03  0.47000000000E+01 0.  1.
         -5    1    4    4    0  502  0.65531246486E+02 -0.36435854057E+02  0.15075329701E+04  0.15094037438E+04  0.47000000000E+01 0.  1.
          5    1    5    5  503    0 -0.33876969198E+02  0.36084485647E+02  0.19569534549E+03  0.20191210313E+03  0.47000000000E+01 0. -1.
         -5    1    5    5    0  503  0.21382072562E+02 -0.21917804224E+01  0.11172025594E+04  0.11174191898E+04  0.47000000000E+01 0. -1.
<mgrwt>
<rscale>  0 0.27006353E+03</rscale>
<asrwt>0</asrwt>
<pdfrwt beam="1">  1        1 0.55139934E+00 0.27006353E+03</pdfrwt>
<pdfrwt beam="2">  1       -1 0.78267044E-03 0.27006353E+03</pdfrwt>
<totfact> 0.72620409E+02</totfact>
</mgrwt>
</event>
<event>
 9    1  0.7944303E-001  0.2754569E+03  0.7818608E-02  0.1098196E+00
         -2   -1    0    0    0  501 -0.00000000000E+00  0.00000000000E+00  0.12081373878E+02  0.12081373878E+02  0.00000000000E+00 0. -1.
          2   -1    0    0  501    0  0.00000000000E+00 -0.00000000000E+00 -0.15701138681E+04  0.15701138681E+04  0.00000000000E+00 0. -1.
         35    2    1    2    0    0  0.00000000000E+00  0.00000000000E+00 -0.15580324943E+04  0.15821952420E+04  0.27545694889E+03 0.  0.
         25    2    3    3    0    0  0.58951717680E+02  0.10001167790E+02 -0.91209121084E+03  0.92210874627E+03  0.12165046108E+03 0.  0.
         25    2    3    3    0    0 -0.58951717680E+02 -0.10001167790E+02 -0.64594128341E+03  0.66008649574E+03  0.12206027964E+03 0.  0.
          5    1    4    4  502    0  0.22462928487E+01 -0.35949976263E+02 -0.94315609278E+02  0.10106913860E+03  0.47000000000E+01 0. -1.
         -5    1    4    4    0  502  0.56705424831E+02  0.45951144053E+02 -0.81777560156E+03  0.82103960767E+03  0.47000000000E+01 0. -1.
          5    1    5    5  503    0 -0.71815641240E+02 -0.50197897777E+02 -0.33681967421E+03  0.34806162989E+03  0.47000000000E+01 0. -1.
         -5    1    5    5    0  503  0.12863923560E+02  0.40196729986E+02 -0.30912160921E+03  0.31202486585E+03  0.47000000000E+01 0. -1.
<mgrwt>
<rscale>  0 0.27545695E+03</rscale>
<asrwt>0</asrwt>
<pdfrwt beam="1">  1        2 0.24155577E+00 0.27545695E+03</pdfrwt>
<pdfrwt beam="2">  1       -2 0.18586745E-02 0.27545695E+03</pdfrwt>
<totfact> 0.10779510E+04</totfact>
</mgrwt>
</event>
<event>
 9    1  0.7944303E-001  0.2761841E+03  0.7818608E-02  0.1097792E+00
         -2   -1    0    0    0  501 -0.00000000000E+00  0.00000000000E+00  0.91029876864E+01  0.91029876864E+01  0.00000000000E+00 0.  1.
          2   -1    0    0  501    0  0.00000000000E+00 -0.00000000000E+00 -0.20948518995E+04  0.20948518995E+04  0.00000000000E+00 0.  1.
         35    2    1    2    0    0 -0.71054273576E-14 -0.53290705182E-14 -0.20857489118E+04  0.21039548871E+04  0.27618407663E+03 0.  0.
         25    2    3    3    0    0  0.64404275687E+01  0.71830294908E+01 -0.14893676650E+04  0.14946234944E+04  0.12486101728E+03 0.  0.
         25    2    3    3    0    0 -0.64404275687E+01 -0.71830294908E+01 -0.59638124681E+03  0.60933139271E+03  0.12458362487E+03 0.  0.
          5    1    4    4  502    0  0.47564608820E+02 -0.34833505857E+02 -0.49737032173E+03  0.50087432764E+03  0.47000000000E+01 0. -1.
         -5    1    4    4    0  502 -0.41124181252E+02  0.42016535348E+02 -0.99199734324E+03  0.99374916680E+03  0.47000000000E+01 0. -1.
          5    1    5    5  503    0 -0.62326495987E+02 -0.16873446029E+02 -0.24694272675E+03  0.25528827936E+03  0.47000000000E+01 0. -1.
         -5    1    5    5    0  503  0.55886068419E+02  0.96904165383E+01 -0.34943852005E+03  0.35404311336E+03  0.47000000000E+01 0. -1.
<mgrwt>
<rscale>  0 0.27618408E+03</rscale>
<asrwt>0</asrwt>
<pdfrwt beam="1">  1        2 0.32228529E+00 0.27618408E+03</pdfrwt>
<pdfrwt beam="2">  1       -2 0.14004580E-02 0.27618408E+03</pdfrwt>
<totfact> 0.86375486E+03</totfact>
</mgrwt>
</event>
<event>
 9    1  0.7944303E-001  0.2734428E+03  0.7818608E-02  0.1099325E+00
         -2   -1    0    0    0  501 -0.00000000000E+00  0.00000000000E+00  0.13690485486E+02  0.13690485486E+02  0.00000000000E+00 0.  1.
          2   -1    0    0  501    0  0.00000000000E+00 -0.00000000000E+00 -0.13653821711E+04  0.13653821711E+04  0.00000000000E+00 0.  1.
         35    2    1    2    0    0  0.14210854715E-13  0.00000000000E+00 -0.13516916856E+04  0.13790726566E+04  0.27344282617E+03 0.  0.
         25    2    3    3    0    0  0.42796444682E+02  0.20000783617E+02 -0.83135238646E+03  0.84209085775E+03  0.12545379708E+03 0.  0.
         25    2    3    3    0    0 -0.42796444682E+02 -0.20000783617E+02 -0.52033929915E+03  0.53698179884E+03  0.12395522990E+03 0.  0.
          5    1    4    4  502    0 -0.17268382771E+02  0.16228573874E+02 -0.65953604949E+03  0.65997837406E+03  0.47000000000E+01 0.  1.
         -5    1    4    4    0  502  0.60064827453E+02  0.37722097429E+01 -0.17181633697E+03  0.18211248368E+03  0.47000000000E+01 0.  1.
          5    1    5    5  503    0  0.16022004477E+02 -0.57361855879E+02 -0.29808369485E+03  0.30401162193E+03  0.47000000000E+01 0. -1.
         -5    1    5    5    0  503 -0.58818449159E+02  0.37361072262E+02 -0.22225560430E+03  0.23297017690E+03  0.47000000000E+01 0. -1.
<mgrwt>
<rscale>  0 0.27344283E+03</rscale>
<asrwt>0</asrwt>
<pdfrwt beam="1">  1        2 0.21005882E+00 0.27344283E+03</pdfrwt>
<pdfrwt beam="2">  1       -2 0.21062283E-02 0.27344283E+03</pdfrwt>
<totfact> 0.11555444E+04</totfact>
</mgrwt>
</event>
<event>
 9    1  0.7944303E-001  0.2729339E+03  0.7818608E-02  0.1099612E+00
          2   -1    0    0  501    0  0.00000000000E+00  0.00000000000E+00  0.23876564513E+03  0.23876564513E+03  0.00000000000E+00 0.  1.
         -2   -1    0    0    0  501 -0.00000000000E+00 -0.00000000000E+00 -0.77997944763E+02  0.77997944763E+02  0.00000000000E+00 0.  1.
         35    2    1    2    0    0 -0.17763568394E-14  0.00000000000E+00  0.16076770037E+03  0.31676358990E+03  0.27293390849E+03 0.  0.
         25    2    3    3    0    0 -0.14500739832E+02  0.11054471704E+02  0.14043130769E+03  0.18875664357E+03  0.12480242590E+03 0.  0.
         25    2    3    3    0    0  0.14500739832E+02 -0.11054471704E+02  0.20336392684E+02  0.12800694633E+03  0.12505893267E+03 0.  0.
          5    1    4    4  502    0  0.19896127645E+01 -0.25759193696E+02  0.14548163738E+03  0.14783264671E+03  0.47000000000E+01 0. -1.
         -5    1    4    4    0  502 -0.16490352597E+02  0.36813665400E+02 -0.50503296885E+01  0.40923996859E+02  0.47000000000E+01 0. -1.
          5    1    5    5  503    0  0.48592793462E+02 -0.52078292881E+02  0.20121926787E+01  0.71411113177E+02  0.47000000000E+01 0. -1.
         -5    1    5    5    0  503 -0.34092053629E+02  0.41023821178E+02  0.18324200006E+02  0.56595833155E+02  0.47000000000E+01 0. -1.
<mgrwt>
<rscale>  0 0.27293391E+03</rscale>
<asrwt>0</asrwt>
<pdfrwt beam="1">  1        2 0.36733176E-01 0.27293391E+03</pdfrwt>
<pdfrwt beam="2">  1       -2 0.11999684E-01 0.27293391E+03</pdfrwt>
<totfact> 0.68784062E+03</totfact>
</mgrwt>
</event>
<event>
 9    1  0.7944303E-001  0.2750033E+03  0.7818608E-02  0.1098450E+00
          2   -1    0    0  501    0  0.00000000000E+00  0.00000000000E+00  0.19412978893E+04  0.19412978893E+04  0.00000000000E+00 0.  1.
         -2   -1    0    0    0  501 -0.00000000000E+00 -0.00000000000E+00 -0.97392078260E+01  0.97392078260E+01  0.00000000000E+00 0.  1.
         35    2    1    2    0    0  0.00000000000E+00 -0.53290705182E-14  0.19315586815E+04  0.19510370971E+04  0.27500329886E+03 0.  0.
         25    2    3    3    0    0 -0.62213384002E+01 -0.10753717892E+02  0.13556184529E+04  0.13614968685E+04  0.12576957342E+03 0.  0.
         25    2    3    3    0    0  0.62213384002E+01  0.10753717892E+02  0.57594022857E+03  0.58954022862E+03  0.12528442352E+03 0.  0.
          5    1    4    4  502    0 -0.30532378676E+02 -0.52595333595E+02  0.10725753504E+04  0.10743083671E+04  0.47000000000E+01 0.  1.
         -5    1    4    4    0  502  0.24311040275E+02  0.41841615704E+02  0.28304310251E+03  0.28718850144E+03  0.47000000000E+01 0.  1.
          5    1    5    5  503    0  0.20434644163E+02 -0.63674900222E+01  0.11699352350E+02  0.24841184687E+02  0.47000000000E+01 0. -1.
         -5    1    5    5    0  503 -0.14213305763E+02  0.17121207914E+02  0.56424087622E+03  0.56469904393E+03  0.47000000000E+01 0. -1.
<mgrwt>
<rscale>  0 0.27500330E+03</rscale>
<asrwt>0</asrwt>
<pdfrwt beam="1">  1        2 0.29866091E+00 0.27500330E+03</pdfrwt>
<pdfrwt beam="2">  1       -2 0.14983412E-02 0.27500330E+03</pdfrwt>
<totfact> 0.94264450E+03</totfact>
</mgrwt>
</event>
<event>
 9    1  0.7944303E-001  0.2738647E+03  0.7818608E-02  0.1099088E+00
         -2   -1    0    0    0  501 -0.00000000000E+00  0.00000000000E+00  0.61513646523E+01  0.61513646523E+01  0.00000000000E+00 0.  1.
          2   -1    0    0  501    0  0.00000000000E+00 -0.00000000000E+00 -0.30481808505E+04  0.30481808505E+04  0.00000000000E+00 0.  1.
         35    2    1    2    0    0 -0.71054273576E-14  0.88817841970E-15 -0.30420294858E+04  0.30543322151E+04  0.27386472528E+03 0.  0.
         25    2    3    3    0    0 -0.37942935271E+02  0.60542713684E+01 -0.10736262715E+04  0.10815746584E+04  0.12511614678E+03 0.  0.
         25    2    3    3    0    0  0.37942935271E+02 -0.60542713684E+01 -0.19684032143E+04  0.19727575567E+04  0.12523914380E+03 0.  0.
          5    1    4    4  502    0 -0.53770755583E+02 -0.48854027837E+02 -0.65706694339E+03  0.66108779167E+03  0.47000000000E+01 0.  1.
         -5    1    4    4    0  502  0.15827820311E+02  0.54908299205E+02 -0.41655932815E+03  0.42048686673E+03  0.47000000000E+01 0.  1.
          5    1    5    5  503    0  0.78922594482E+02 -0.22806637413E+01 -0.16149240209E+04  0.16168598147E+04  0.47000000000E+01 0.  1.
         -5    1    5    5    0  503 -0.40979659210E+02 -0.37736076271E+01 -0.35347919343E+03  0.35589774202E+03  0.47000000000E+01 0.  1.
<mgrwt>
<rscale>  0 0.27386473E+03</rscale>
<asrwt>0</asrwt>
<pdfrwt beam="1">  1        2 0.46895217E+00 0.27386473E+03</pdfrwt>
<pdfrwt beam="2">  1       -2 0.94636122E-03 0.27386473E+03</pdfrwt>
<totfact> 0.45054668E+03</totfact>
</mgrwt>
</event>
<event>
 9    1  0.7944303E-001  0.2747917E+03  0.7818608E-02  0.1098568E+00
          2   -1    0    0  501    0  0.00000000000E+00  0.00000000000E+00  0.36262092289E+02  0.36262092289E+02  0.00000000000E+00 0. -1.
         -2   -1    0    0    0  501 -0.00000000000E+00 -0.00000000000E+00 -0.52058823546E+03  0.52058823546E+03  0.00000000000E+00 0. -1.
         35    2    1    2    0    0  0.71054273576E-14  0.71054273576E-14 -0.48432614317E+03  0.55685032775E+03  0.27479169302E+03 0.  0.
         25    2    3    3    0    0 -0.45915503583E+02 -0.32800546866E+02 -0.24213407318E+03  0.27873584659E+03  0.12601846465E+03 0.  0.
         25    2    3    3    0    0  0.45915503583E+02  0.32800546866E+02 -0.24219206999E+03  0.27811448117E+03  0.12452532482E+03 0.  0.
          5    1    4    4  502    0  0.61707637922E+01  0.32933697873E+02 -0.15120801801E+03  0.15494728617E+03  0.47000000000E+01 0.  1.
         -5    1    4    4    0  502 -0.52086267375E+02 -0.65734244739E+02 -0.90926055169E+02  0.12378856041E+03  0.47000000000E+01 0.  1.
          5    1    5    5  503    0  0.21190930762E+02  0.18243417170E+02  0.53637615607E+01  0.28857195891E+02  0.47000000000E+01 0. -1.
         -5    1    5    5    0  503  0.24724572820E+02  0.14557129696E+02 -0.24755583155E+03  0.24925728528E+03  0.47000000000E+01 0. -1.
<mgrwt>
<rscale>  0 0.27479169E+03</rscale>
<asrwt>0</asrwt>
<pdfrwt beam="1">  1        2 0.55787832E-02 0.27479169E+03</pdfrwt>
<pdfrwt beam="2">  1       -2 0.80090501E-01 0.27479169E+03</pdfrwt>
<totfact> 0.19282820E+03</totfact>
</mgrwt>
</event>
<event>
 9    1  0.7944303E-001  0.2706708E+03  0.7818608E-02  0.1100896E+00
         -2   -1    0    0    0  501 -0.00000000000E+00  0.00000000000E+00  0.23440138401E+02  0.23440138401E+02  0.00000000000E+00 0.  1.
          2   -1    0    0  501    0  0.00000000000E+00 -0.00000000000E+00 -0.78138056526E+03  0.78138056526E+03  0.00000000000E+00 0.  1.
         35    2    1    2    0    0  0.00000000000E+00  0.17763568394E-14 -0.75794042686E+03  0.80482070366E+03  0.27067078596E+03 0.  0.
         25    2    3    3    0    0 -0.49161585804E+02 -0.14790233605E+01 -0.40481139495E+03  0.42666338591E+03  0.12550032017E+03 0.  0.
         25    2    3    3    0    0  0.49161585804E+02  0.14790233605E+01 -0.35312903191E+03  0.37815731776E+03  0.12603092782E+03 0.  0.
          5    1    4    4  502    0  0.24446319709E+02  0.15342795767E+02 -0.27396479461E+03  0.27552100213E+03  0.47000000000E+01 0. -1.
         -5    1    4    4    0  502 -0.73607905513E+02 -0.16821819127E+02 -0.13084660034E+03  0.15114238378E+03  0.47000000000E+01 0. -1.
          5    1    5    5  503    0  0.49685167312E+02 -0.56420222126E+02 -0.16766879226E+03  0.18381178203E+03  0.47000000000E+01 0.  1.
         -5    1    5    5    0  503 -0.52358150736E+00  0.57899245486E+02 -0.18546023965E+03  0.19434553572E+03  0.47000000000E+01 0.  1.
<mgrwt>
<rscale>  0 0.27067079E+03</rscale>
<asrwt>0</asrwt>
<pdfrwt beam="1">  1        2 0.12021236E+00 0.27067079E+03</pdfrwt>
<pdfrwt beam="2">  1       -2 0.36061760E-02 0.27067079E+03</pdfrwt>
<totfact> 0.11698001E+04</totfact>
</mgrwt>
</event>
<event>
 9    1  0.7944303E-001  0.2762357E+03  0.7818608E-02  0.1097763E+00
         -1   -1    0    0    0  501 -0.00000000000E+00  0.00000000000E+00  0.35454485905E+02  0.35454485905E+02  0.00000000000E+00 0. -1.
          1   -1    0    0  501    0  0.00000000000E+00 -0.00000000000E+00 -0.53805714411E+03  0.53805714411E+03  0.00000000000E+00 0. -1.
         35    2    1    2    0    0  0.71054273576E-14  0.00000000000E+00 -0.50260265820E+03  0.57351163002E+03  0.27623569235E+03 0.  0.
         25    2    3    3    0    0  0.35571562798E+02  0.52347653357E+02 -0.24025051669E+03  0.27667789253E+03  0.12175685835E+03 0.  0.
         25    2    3    3    0    0 -0.35571562798E+02 -0.52347653357E+02 -0.26235214152E+03  0.29683373748E+03  0.12359615147E+03 0.  0.
          5    1    4    4  502    0  0.74412003007E+02  0.50501205490E+02 -0.11883913533E+03  0.14910515764E+03  0.47000000000E+01 0. -1.
         -5    1    4    4    0  502 -0.38840440209E+02  0.18464478675E+01 -0.12141138136E+03  0.12757273490E+03  0.47000000000E+01 0. -1.
          5    1    5    5  503    0 -0.19579823346E+02 -0.30635265076E+02 -0.26662167888E+03  0.26913026325E+03  0.47000000000E+01 0. -1.
         -5    1    5    5    0  503 -0.15991739451E+02 -0.21712388281E+02  0.42695373605E+01  0.27703474238E+02  0.47000000000E+01 0. -1.
<mgrwt>
<rscale>  0 0.27623569E+03</rscale>
<asrwt>0</asrwt>
<pdfrwt beam="1">  1        1 0.82778020E-01 0.27623569E+03</pdfrwt>
<pdfrwt beam="2">  1       -1 0.54545365E-02 0.27623569E+03</pdfrwt>
<totfact> 0.62853278E+03</totfact>
</mgrwt>
</event>
<event>
 9    1  0.7944303E-001  0.2746060E+03  0.7818608E-02  0.1098672E+00
          2   -1    0    0  501    0  0.00000000000E+00  0.00000000000E+00  0.49771144924E+03  0.49771144924E+03  0.00000000000E+00 0.  1.
         -2   -1    0    0    0  501 -0.00000000000E+00 -0.00000000000E+00 -0.37877593913E+02  0.37877593913E+02  0.00000000000E+00 0.  1.
         35    2    1    2    0    0 -0.35527136788E-14  0.00000000000E+00  0.45983385532E+03  0.53558904315E+03  0.27460598799E+03 0.  0.
         25    2    3    3    0    0  0.28931681867E+02  0.21478203521E+02  0.14632527683E+03  0.19618769135E+03  0.12561913930E+03 0.  0.
         25    2    3    3    0    0 -0.28931681867E+02 -0.21478203521E+02  0.31350857849E+03  0.33940135180E+03  0.12492915340E+03 0.  0.
          5    1    4    4  502    0  0.43214189848E+02 -0.22207861858E+02  0.68897593046E+01  0.49297201907E+02  0.47000000000E+01 0.  1.
         -5    1    4    4    0  502 -0.14282507981E+02  0.43686065380E+02  0.13943551752E+03  0.14689048945E+03  0.47000000000E+01 0.  1.
          5    1    5    5  503    0 -0.76369770711E+02 -0.45741617745E+01  0.22178091509E+03  0.23465321036E+03  0.47000000000E+01 0.  1.
         -5    1    5    5    0  503  0.47438088845E+02 -0.16904041747E+02  0.91727663402E+02  0.10474814143E+03  0.47000000000E+01 0.  1.
<mgrwt>
<rscale>  0 0.27460599E+03</rscale>
<asrwt>0</asrwt>
<pdfrwt beam="1">  1        2 0.76570988E-01 0.27460599E+03</pdfrwt>
<pdfrwt beam="2">  1       -2 0.58273225E-02 0.27460599E+03</pdfrwt>
<totfact> 0.96312702E+03</totfact>
</mgrwt>
</event>
<event>
 9    1  0.7944303E-001  0.2727886E+03  0.7818608E-02  0.1099694E+00
         -2   -1    0    0    0  501 -0.00000000000E+00  0.00000000000E+00  0.39793780650E+03  0.39793780650E+03  0.00000000000E+00 0.  1.
          2   -1    0    0  501    0  0.00000000000E+00 -0.00000000000E+00 -0.46749529605E+02  0.46749529605E+02  0.00000000000E+00 0.  1.
         35    2    1    2    0    0  0.00000000000E+00 -0.17763568394E-14  0.35118827689E+03  0.44468733611E+03  0.27278860142E+03 0.  0.
         25    2    3    3    0    0 -0.54209953158E+02  0.45350042675E+01  0.20979499768E+03  0.24855841226E+03  0.12168836416E+03 0.  0.
         25    2    3    3    0    0  0.54209953158E+02 -0.45350042675E+01  0.14139327922E+03  0.19612892384E+03  0.12456006613E+03 0.  0.
          5    1    4    4  502    0  0.22834004920E+02  0.15920631929E+01  0.14746101802E+03  0.14930093195E+03  0.47000000000E+01 0. -1.
         -5    1    4    4    0  502 -0.77043958078E+02  0.29429410746E+01  0.62333979661E+02  0.99257480317E+02  0.47000000000E+01 0. -1.
          5    1    5    5  503    0 -0.18951652877E+01 -0.57948186915E+02  0.56121772092E+02  0.80829000495E+02  0.47000000000E+01 0. -1.
         -5    1    5    5    0  503  0.56105118446E+02  0.53413182647E+02  0.85271507124E+02  0.11529992335E+03  0.47000000000E+01 0. -1.
<mgrwt>
<rscale>  0 0.27278860E+03</rscale>
<asrwt>0</asrwt>
<pdfrwt beam="1">  1        2 0.71922356E-02 0.27278860E+03</pdfrwt>
<pdfrwt beam="2">  1       -2 0.61221199E-01 0.27278860E+03</pdfrwt>
<totfact> 0.24650064E+03</totfact>
</mgrwt>
</event>
<event>
 9    1  0.7944303E-001  0.2785316E+03  0.7818608E-02  0.1096494E+00
          3   -1    0    0  501    0  0.00000000000E+00  0.00000000000E+00  0.36509206020E+02  0.36509206020E+02  0.00000000000E+00 0. -1.
         -3   -1    0    0    0  501 -0.00000000000E+00 -0.00000000000E+00 -0.53123484293E+03  0.53123484293E+03  0.00000000000E+00 0. -1.
         35    2    1    2    0    0  0.14210854715E-13  0.35527136788E-14 -0.49472563691E+03  0.56774404895E+03  0.27853159480E+03 0.  0.
         25    2    3    3    0    0 -0.59889972759E+02  0.14743689538E+02 -0.24829955886E+03  0.28464832075E+03  0.12477103172E+03 0.  0.
         25    2    3    3    0    0  0.59889972759E+02 -0.14743689538E+02 -0.24642607805E+03  0.28309572820E+03  0.12495276773E+03 0.  0.
          5    1    4    4  502    0 -0.45389901432E+02 -0.51765739473E+02 -0.14852280797E+03  0.16377133273E+03  0.47000000000E+01 0.  1.
         -5    1    4    4    0  502 -0.14500071327E+02  0.66509429011E+02 -0.99776750887E+02  0.12087698802E+03  0.47000000000E+01 0.  1.
          5    1    5    5  503    0 -0.31312826562E+02  0.18546773842E+02 -0.10710937574E+03  0.11322095344E+03  0.47000000000E+01 0.  1.
         -5    1    5    5    0  503  0.91202799321E+02 -0.33290463380E+02 -0.13931670232E+03  0.16987477476E+03  0.47000000000E+01 0.  1.
<mgrwt>
<rscale>  0 0.27853159E+03</rscale>
<asrwt>0</asrwt>
<pdfrwt beam="1">  1        3 0.56168012E-02 0.27853159E+03</pdfrwt>
<pdfrwt beam="2">  1       -3 0.81728433E-01 0.27853159E+03</pdfrwt>
<totfact> 0.68461944E+02</totfact>
</mgrwt>
</event>
<event>
 9    1  0.7944303E-001  0.2783065E+03  0.7818608E-02  0.1096617E+00
         -2   -1    0    0    0  501 -0.00000000000E+00  0.00000000000E+00  0.46435636163E+02  0.46435636163E+02  0.00000000000E+00 0.  1.
          2   -1    0    0  501    0  0.00000000000E+00 -0.00000000000E+00 -0.41699932847E+03  0.41699932847E+03  0.00000000000E+00 0.  1.
         35    2    1    2    0    0  0.00000000000E+00  0.00000000000E+00 -0.37056369231E+03  0.46343496464E+03  0.27830651518E+03 0.  0.
         25    2    3    3    0    0 -0.29318693105E+02 -0.51180380464E+02 -0.16170142252E+03  0.21280496146E+03  0.12513826141E+03 0.  0.
         25    2    3    3    0    0  0.29318693105E+02  0.51180380464E+02 -0.20886226979E+03  0.25063000317E+03  0.12535124107E+03 0.  0.
          5    1    4    4  502    0 -0.72991762361E+02 -0.19606716365E+02 -0.56398295848E+02  0.94419693251E+02  0.47000000000E+01 0. -1.
         -5    1    4    4    0  502  0.43673069256E+02 -0.31573664099E+02 -0.10530312667E+03  0.11838526821E+03  0.47000000000E+01 0. -1.
          5    1    5    5  503    0 -0.30200258041E+02  0.48058073348E+02 -0.17009108906E+03  0.17937308209E+03  0.47000000000E+01 0.  1.
         -5    1    5    5    0  503  0.59518951147E+02  0.31223071167E+01 -0.38771180729E+02  0.71256921085E+02  0.47000000000E+01 0.  1.
<mgrwt>
<rscale>  0 0.27830652E+03</rscale>
<asrwt>0</asrwt>
<pdfrwt beam="1">  1        2 0.64153744E-01 0.27830652E+03</pdfrwt>
<pdfrwt beam="2">  1       -2 0.71439439E-02 0.27830652E+03</pdfrwt>
<totfact> 0.85580209E+03</totfact>
</mgrwt>
</event>
<event>
 9    1  0.7944303E-001  0.2762853E+03  0.7818608E-02  0.1097735E+00
         -1   -1    0    0    0  501 -0.00000000000E+00  0.00000000000E+00  0.26299224966E+03  0.26299224966E+03  0.00000000000E+00 0.  1.
          1   -1    0    0  501    0  0.00000000000E+00 -0.00000000000E+00 -0.72562540091E+02  0.72562540091E+02  0.00000000000E+00 0.  1.
         35    2    1    2    0    0  0.00000000000E+00 -0.17763568394E-14  0.19042970957E+03  0.33555478975E+03  0.27628525592E+03 0.  0.
         25    2    3    3    0    0 -0.54306906812E+02  0.52875263954E+01  0.12003941931E+03  0.18152827835E+03  0.12476319807E+03 0.  0.
         25    2    3    3    0    0  0.54306906812E+02 -0.52875263954E+01  0.70390290262E+02  0.15402651139E+03  0.12566692161E+03 0.  0.
          5    1    4    4  502    0  0.37599533692E+02  0.13649657075E+02  0.18765966655E+02  0.44432978480E+02  0.47000000000E+01 0. -1.
         -5    1    4    4    0  502 -0.91906440504E+02 -0.83621306795E+01  0.10127345265E+03  0.13709529987E+03  0.47000000000E+01 0. -1.
          5    1    5    5  503    0  0.49053518503E+02 -0.39287222462E+02  0.93181044574E+02  0.11249235794E+03  0.47000000000E+01 0.  1.
         -5    1    5    5    0  503  0.52533883093E+01  0.33999696067E+02 -0.22790754312E+02  0.41534153458E+02  0.47000000000E+01 0.  1.
<mgrwt>
<rscale>  0 0.27628526E+03</rscale>
<asrwt>0</asrwt>
<pdfrwt beam="1">  1        1 0.11163468E-01 0.27628526E+03</pdfrwt>
<pdfrwt beam="2">  1       -1 0.40460346E-01 0.27628526E+03</pdfrwt>
<totfact> 0.33302472E+03</totfact>
</mgrwt>
</event>
<event>
 9    1  0.7944303E-001  0.2815143E+03  0.7818608E-02  0.1094865E+00
          1   -1    0    0  501    0  0.00000000000E+00  0.00000000000E+00  0.46214371729E+02  0.46214371729E+02  0.00000000000E+00 0. -1.
         -1   -1    0    0    0  501 -0.00000000000E+00 -0.00000000000E+00 -0.42871038266E+03  0.42871038266E+03  0.00000000000E+00 0. -1.
         35    2    1    2    0    0  0.35527136788E-14 -0.71054273576E-14 -0.38249601093E+03  0.47492475438E+03  0.28151434058E+03 0.  0.
         25    2    3    3    0    0 -0.15280464125E+02  0.23471131570E+01 -0.68837225522E+02  0.13714685397E+03  0.11760822425E+03 0.  0.
         25    2    3    3    0    0  0.15280464125E+02 -0.23471131570E+01 -0.31365878541E+03  0.33777790042E+03  0.12439081487E+03 0.  0.
          5    1    4    4  502    0 -0.29197974449E+01 -0.44309577431E+02 -0.75978990192E+02  0.88129227955E+02  0.47000000000E+01 0. -1.
         -5    1    4    4    0  502 -0.12360666680E+02  0.46656690588E+02  0.71417646709E+01  0.49017626013E+02  0.47000000000E+01 0. -1.
          5    1    5    5  503    0  0.18864616171E+02  0.37010673398E+02 -0.28664313340E+03  0.28967574910E+03  0.47000000000E+01 0. -1.
         -5    1    5    5    0  503 -0.35841520463E+01 -0.39357786555E+02 -0.27015652006E+02  0.48102151321E+02  0.47000000000E+01 0. -1.
<mgrwt>
<rscale>  0 0.28151434E+03</rscale>
<asrwt>0</asrwt>
<pdfrwt beam="1">  1        1 0.71099035E-02 0.28151434E+03</pdfrwt>
<pdfrwt beam="2">  1       -1 0.65955442E-01 0.28151434E+03</pdfrwt>
<totfact> 0.24640391E+03</totfact>
</mgrwt>
</event>
<event>
 9    1  0.7944303E-001  0.2748020E+03  0.7818608E-02  0.1098562E+00
         -3   -1    0    0    0  501 -0.00000000000E+00  0.00000000000E+00  0.14014283068E+02  0.14014283068E+02  0.00000000000E+00 0.  1.
          3   -1    0    0  501    0  0.00000000000E+00 -0.00000000000E+00 -0.13471285937E+04  0.13471285937E+04  0.00000000000E+00 0.  1.
         35    2    1    2    0    0  0.00000000000E+00  0.00000000000E+00 -0.13331143106E+04  0.13611428768E+04  0.27480204833E+03 0.  0.
         25    2    3    3    0    0  0.49695370258E+02  0.17532392878E+02 -0.69327174762E+03  0.70658067969E+03  0.12591078682E+03 0.  0.
         25    2    3    3    0    0 -0.49695370258E+02 -0.17532392878E+02 -0.63984256302E+03  0.65456219708E+03  0.12757801448E+03 0.  0.
          5    1    4    4  502    0  0.32358595804E+02  0.98200723816E+01 -0.68416320610E+03  0.68501452184E+03  0.47000000000E+01 0.  1.
         -5    1    4    4    0  502  0.17336774453E+02  0.77123204967E+01 -0.91085415159E+01  0.21566157851E+02  0.47000000000E+01 0.  1.
          5    1    5    5  503    0 -0.90245134000E+02 -0.10884491248E+02 -0.34380885125E+03  0.35565330387E+03  0.47000000000E+01 0.  1.
         -5    1    5    5    0  503  0.40549763743E+02 -0.66479016300E+01 -0.29603371177E+03  0.29890889321E+03  0.47000000000E+01 0.  1.
<mgrwt>
<rscale>  0 0.27480205E+03</rscale>
<asrwt>0</asrwt>
<pdfrwt beam="1">  1        3 0.20725066E+00 0.27480205E+03</pdfrwt>
<pdfrwt beam="2">  1       -3 0.21560424E-02 0.27480205E+03</pdfrwt>
<totfact> 0.31203212E+02</totfact>
</mgrwt>
</event>
<event>
 9    1  0.7944303E-001  0.2751290E+03  0.7818608E-02  0.1098380E+00
          1   -1    0    0  501    0  0.00000000000E+00  0.00000000000E+00  0.34856788996E+02  0.34856788996E+02  0.00000000000E+00 0. -1.
         -1   -1    0    0    0  501 -0.00000000000E+00 -0.00000000000E+00 -0.54290686387E+03  0.54290686387E+03  0.00000000000E+00 0. -1.
         35    2    1    2    0    0  0.00000000000E+00  0.53290705182E-14 -0.50805007488E+03  0.57776365287E+03  0.27512898792E+03 0.  0.
         25    2    3    3    0    0  0.78753908606E+00 -0.13034797746E+02 -0.13550265588E+03  0.18442203411E+03  0.12441861093E+03 0.  0.
         25    2    3    3    0    0 -0.78753908606E+00  0.13034797746E+02 -0.37254741900E+03  0.39334161875E+03  0.12552100808E+03 0.  0.
          5    1    4    4  502    0  0.23016727964E+02  0.51454300493E+02 -0.56660526817E+02  0.80061352128E+02  0.47000000000E+01 0.  1.
         -5    1    4    4    0  502 -0.22229188878E+02 -0.64489098239E+02 -0.78842129058E+02  0.10436068198E+03  0.47000000000E+01 0.  1.
          5    1    5    5  503    0 -0.22835380343E+02  0.11894173071E+02 -0.69929223851E+01  0.27090900906E+02  0.47000000000E+01 0.  1.
         -5    1    5    5    0  503  0.22047841257E+02  0.11406246750E+01 -0.36555449662E+03  0.36625071785E+03  0.47000000000E+01 0.  1.
<mgrwt>
<rscale>  0 0.27512899E+03</rscale>
<asrwt>0</asrwt>
<pdfrwt beam="1">  1        1 0.53625835E-02 0.27512899E+03</pdfrwt>
<pdfrwt beam="2">  1       -1 0.83524124E-01 0.27512899E+03</pdfrwt>
<totfact> 0.22465057E+03</totfact>
</mgrwt>
</event>
<event>
 9    1  0.7944303E-001  0.2751038E+03  0.7818608E-02  0.1098394E+00
          1   -1    0    0  501    0  0.00000000000E+00  0.00000000000E+00  0.75129210757E+02  0.75129210757E+02  0.00000000000E+00 0. -1.
         -1   -1    0    0    0  501 -0.00000000000E+00 -0.00000000000E+00 -0.25183979105E+03  0.25183979105E+03  0.00000000000E+00 0. -1.
         35    2    1    2    0    0 -0.17763568394E-14 -0.35527136788E-14 -0.17671058029E+03  0.32696900180E+03  0.27510379669E+03 0.  0.
         25    2    3    3    0    0  0.10352888622E+02  0.25399391997E+02 -0.14650305627E+03  0.19468218109E+03  0.12524254357E+03 0.  0.
         25    2    3    3    0    0 -0.10352888622E+02 -0.25399391997E+02 -0.30207524020E+02  0.13228682072E+03  0.12583718454E+03 0.  0.
          5    1    4    4  502    0  0.35467285910E+01 -0.37484466928E+02 -0.12015110406E+03  0.12600016806E+03  0.47000000000E+01 0. -1.
         -5    1    4    4    0  502  0.68061600309E+01  0.62883858925E+02 -0.26351952209E+02  0.68682013023E+02  0.47000000000E+01 0. -1.
          5    1    5    5  503    0 -0.61385697368E+02 -0.38667935765E+02 -0.31735531858E+02  0.79326206766E+02  0.47000000000E+01 0. -1.
         -5    1    5    5    0  503  0.51032808746E+02  0.13268543768E+02  0.15280078377E+01  0.52960613952E+02  0.47000000000E+01 0. -1.
<mgrwt>
<rscale>  0 0.27510380E+03</rscale>
<asrwt>0</asrwt>
<pdfrwt beam="1">  1        1 0.11558340E-01 0.27510380E+03</pdfrwt>
<pdfrwt beam="2">  1       -1 0.38744583E-01 0.27510380E+03</pdfrwt>
<totfact> 0.34326553E+03</totfact>
</mgrwt>
</event>
<event>
 9    1  0.7944303E-001  0.2896433E+03  0.7818608E-02  0.1090536E+00
          2   -1    0    0  501    0  0.00000000000E+00  0.00000000000E+00  0.14923798101E+03  0.14923798101E+03  0.00000000000E+00 0.  1.
         -2   -1    0    0    0  501 -0.00000000000E+00 -0.00000000000E+00 -0.14053600619E+03  0.14053600619E+03  0.00000000000E+00 0.  1.
         35    2    1    2    0    0 -0.71054273576E-14  0.14210854715E-13  0.87019748197E+01  0.28977398720E+03  0.28964329664E+03 0.  0.
         25    2    3    3    0    0  0.55320612076E+02 -0.46925331677E+02  0.18050550127E+02  0.14556551360E+03  0.12490452161E+03 0.  0.
         25    2    3    3    0    0 -0.55320612076E+02  0.46925331677E+02 -0.93485753078E+01  0.14420847359E+03  0.12428326968E+03 0.  0.
          5    1    4    4  502    0 -0.39797033647E+01 -0.72877522821E+02  0.30913472513E+02  0.79402167189E+02  0.47000000000E+01 0.  1.
         -5    1    4    4    0  502  0.59300315441E+02  0.25952191144E+02 -0.12862922386E+02  0.66163346415E+02  0.47000000000E+01 0.  1.
          5    1    5    5  503    0 -0.80990112914E+02  0.24397558046E+01  0.21693520433E+02  0.84012199275E+02  0.47000000000E+01 0. -1.
         -5    1    5    5    0  503  0.25669500838E+02  0.44485575872E+02 -0.31042095741E+02  0.60196274320E+02  0.47000000000E+01 0. -1.
<mgrwt>
<rscale>  0 0.28964330E+03</rscale>
<asrwt>0</asrwt>
<pdfrwt beam="1">  1        2 0.22959689E-01 0.28964330E+03</pdfrwt>
<pdfrwt beam="2">  1       -2 0.21620924E-01 0.28964330E+03</pdfrwt>
<totfact> 0.43341279E+03</totfact>
</mgrwt>
</event>
<event>
 9    1  0.7944303E-001  0.2783416E+03  0.7818608E-02  0.1096598E+00
         -2   -1    0    0    0  501 -0.00000000000E+00  0.00000000000E+00  0.16647663153E+02  0.16647663153E+02  0.00000000000E+00 0.  1.
          2   -1    0    0  501    0  0.00000000000E+00 -0.00000000000E+00 -0.11634376083E+04  0.11634376083E+04  0.00000000000E+00 0.  1.
         35    2    1    2    0    0  0.00000000000E+00  0.88817841970E-15 -0.11467899451E+04  0.11800852714E+04  0.27834164188E+03 0.  0.
         25    2    3    3    0    0  0.48680687297E+02  0.79993915156E+01 -0.44761716520E+03  0.46798241392E+03  0.12732876178E+03 0.  0.
         25    2    3    3    0    0 -0.48680687297E+02 -0.79993915156E+01 -0.69917277994E+03  0.71210285752E+03  0.12575414071E+03 0.  0.
          5    1    4    4  502    0  0.54276461701E+02  0.56078511625E+02 -0.35350706538E+03  0.36204981568E+03  0.47000000000E+01 0.  1.
         -5    1    4    4    0  502 -0.55957744043E+01 -0.48079120110E+02 -0.94110099819E+02  0.10593259824E+03  0.47000000000E+01 0.  1.
          5    1    5    5  503    0 -0.58425174810E+02 -0.13444472875E+02 -0.13486213095E+03  0.14766224726E+03  0.47000000000E+01 0. -1.
         -5    1    5    5    0  503  0.97444875128E+01  0.54450813592E+01 -0.56431064899E+03  0.56444061026E+03  0.47000000000E+01 0. -1.
<mgrwt>
<rscale>  0 0.27834164E+03</rscale>
<asrwt>0</asrwt>
<pdfrwt beam="1">  1        2 0.17899041E+00 0.27834164E+03</pdfrwt>
<pdfrwt beam="2">  1       -2 0.25611788E-02 0.27834164E+03</pdfrwt>
<totfact> 0.11232264E+04</totfact>
</mgrwt>
</event>
<event>
 9    1  0.7944303E-001  0.2961429E+03  0.7818608E-02  0.1087185E+00
          2   -1    0    0  501    0  0.00000000000E+00  0.00000000000E+00  0.11602456810E+03  0.11602456810E+03  0.00000000000E+00 0.  1.
         -2   -1    0    0    0  501 -0.00000000000E+00 -0.00000000000E+00 -0.18896992182E+03  0.18896992182E+03  0.00000000000E+00 0.  1.
         35    2    1    2    0    0  0.71054273576E-14  0.00000000000E+00 -0.72945353719E+02  0.30499448991E+03  0.29614289498E+03 0.  0.
         25    2    3    3    0    0  0.39228249161E+02  0.36260864274E+02  0.23154995803E+02  0.13815419313E+03  0.12528655729E+03 0.  0.
         25    2    3    3    0    0 -0.39228249161E+02 -0.36260864274E+02 -0.96100349522E+02  0.16684029678E+03  0.12548586232E+03 0.  0.
          5    1    4    4  502    0  0.45807032181E+02  0.33939931485E+02 -0.42939311809E+02  0.71526761740E+02  0.47000000000E+01 0.  1.
         -5    1    4    4    0  502 -0.65787830197E+01  0.23209327891E+01  0.66094307612E+02  0.66627431390E+02  0.47000000000E+01 0.  1.
          5    1    5    5  503    0  0.18129783350E+02  0.24972064824E+02  0.88001744192E+01  0.32431869136E+02  0.47000000000E+01 0. -1.
         -5    1    5    5    0  503 -0.57358032511E+02 -0.61232929098E+02 -0.10490052394E+03  0.13440842765E+03  0.47000000000E+01 0. -1.
<mgrwt>
<rscale>  0 0.29614289E+03</rscale>
<asrwt>0</asrwt>
<pdfrwt beam="1">  1        2 0.17849934E-01 0.29614289E+03</pdfrwt>
<pdfrwt beam="2">  1       -2 0.29072295E-01 0.29614289E+03</pdfrwt>
<totfact> 0.34276443E+03</totfact>
</mgrwt>
</event>
<event>
 9    1  0.7944303E-001  0.2672443E+03  0.7818608E-02  0.1102867E+00
         -2   -1    0    0    0  501 -0.00000000000E+00  0.00000000000E+00  0.63867523967E+02  0.63867523967E+02  0.00000000000E+00 0.  1.
          2   -1    0    0  501    0  0.00000000000E+00 -0.00000000000E+00 -0.27956119762E+03  0.27956119762E+03  0.00000000000E+00 0.  1.
         35    2    1    2    0    0  0.00000000000E+00 -0.35527136788E-14 -0.21569367365E+03  0.34342872159E+03  0.26724431885E+03 0.  0.
         25    2    3    3    0    0  0.39499370161E+02  0.27340966617E+02 -0.10034191237E+03  0.16697662658E+03  0.12451893730E+03 0.  0.
         25    2    3    3    0    0 -0.39499370161E+02 -0.27340966617E+02 -0.11535176128E+03  0.17645209501E+03  0.12458565048E+03 0.  0.
          5    1    4    4  502    0 -0.58437258942E+01  0.45743990158E+02  0.88832251007E+01  0.47198129795E+02  0.47000000000E+01 0. -1.
         -5    1    4    4    0  502  0.45343096055E+02 -0.18403023541E+02 -0.10922513747E+03  0.11977849678E+03  0.47000000000E+01 0. -1.
          5    1    5    5  503    0 -0.12968546889E+02 -0.44656731399E+02  0.93828783848E+01  0.47671115725E+02  0.47000000000E+01 0. -1.
         -5    1    5    5    0  503 -0.26530823273E+02  0.17315764782E+02 -0.12473463967E+03  0.12878097929E+03  0.47000000000E+01 0. -1.
<mgrwt>
<rscale>  0 0.26724432E+03</rscale>
<asrwt>0</asrwt>
<pdfrwt beam="1">  1        2 0.43009414E-01 0.26724432E+03</pdfrwt>
<pdfrwt beam="2">  1       -2 0.98257730E-02 0.26724432E+03</pdfrwt>
<totfact> 0.79825473E+03</totfact>
</mgrwt>
</event>
<event>
 9    1  0.7944303E-001  0.2731823E+03  0.7818608E-02  0.1099472E+00
          2   -1    0    0  501    0  0.00000000000E+00  0.00000000000E+00  0.91769612059E+03  0.91769612059E+03  0.00000000000E+00 0.  1.
         -2   -1    0    0    0  501 -0.00000000000E+00 -0.00000000000E+00 -0.20330407134E+02  0.20330407134E+02  0.00000000000E+00 0.  1.
         35    2    1    2    0    0  0.00000000000E+00  0.35527136788E-14  0.89736571345E+03  0.93802652772E+03  0.27318225240E+03 0.  0.
         25    2    3    3    0    0  0.93006331361E+01  0.10628137282E+02  0.26895933973E+03  0.29708850979E+03  0.12539137587E+03 0.  0.
         25    2    3    3    0    0 -0.93006331361E+01 -0.10628137282E+02  0.62840637372E+03  0.64093801793E+03  0.12532961826E+03 0.  0.
          5    1    4    4  502    0 -0.30851563982E+02 -0.29717454393E+02  0.21232976326E+03  0.21665863579E+03  0.47000000000E+01 0.  1.
         -5    1    4    4    0  502  0.40152197118E+02  0.40345591675E+02  0.56629576470E+02  0.80429874003E+02  0.47000000000E+01 0.  1.
          5    1    5    5  503    0  0.26485394042E+02  0.37076427134E+02  0.45900176043E+03  0.46128173997E+03  0.47000000000E+01 0.  1.
         -5    1    5    5    0  503 -0.35786027178E+02 -0.47704564416E+02  0.16940461329E+03  0.17965627796E+03  0.47000000000E+01 0.  1.
<mgrwt>
<rscale>  0 0.27318225E+03</rscale>
<asrwt>0</asrwt>
<pdfrwt beam="1">  1        2 0.14118399E+00 0.27318225E+03</pdfrwt>
<pdfrwt beam="2">  1       -2 0.31277557E-02 0.27318225E+03</pdfrwt>
<totfact> 0.11737018E+04</totfact>
</mgrwt>
</event>
<event>
 9    1  0.7944303E-001  0.2740935E+03  0.7818608E-02  0.1098959E+00
         -1   -1    0    0    0  501 -0.00000000000E+00  0.00000000000E+00  0.11190011656E+02  0.11190011656E+02  0.00000000000E+00 0. -1.
          1   -1    0    0  501    0  0.00000000000E+00 -0.00000000000E+00 -0.16784438523E+04  0.16784438523E+04  0.00000000000E+00 0. -1.
         35    2    1    2    0    0  0.00000000000E+00 -0.35527136788E-14 -0.16672538407E+04  0.16896338640E+04  0.27409346050E+03 0.  0.
         25    2    3    3    0    0 -0.27089947169E+02 -0.14864572847E+02 -0.11248288827E+04  0.11321520319E+04  0.12479337742E+03 0.  0.
         25    2    3    3    0    0  0.27089947169E+02  0.14864572847E+02 -0.54242495792E+03  0.55748183211E+03  0.12492532726E+03 0.  0.
          5    1    4    4  502    0 -0.25207715484E+02  0.49667963257E+02 -0.33082515264E+03  0.33551409376E+03  0.47000000000E+01 0.  1.
         -5    1    4    4    0  502 -0.18822316851E+01 -0.64532536105E+02 -0.79400373010E+03  0.79663793811E+03  0.47000000000E+01 0.  1.
          5    1    5    5  503    0 -0.21277069782E+02  0.59528262365E-01 -0.46096610008E+03  0.46148082589E+03  0.47000000000E+01 0. -1.
         -5    1    5    5    0  503  0.48367016950E+02  0.14805044585E+02 -0.81458857840E+02  0.96001006216E+02  0.47000000000E+01 0. -1.
<mgrwt>
<rscale>  0 0.27409346E+03</rscale>
<asrwt>0</asrwt>
<pdfrwt beam="1">  1        1 0.25822201E+00 0.27409346E+03</pdfrwt>
<pdfrwt beam="2">  1       -1 0.17215411E-02 0.27409346E+03</pdfrwt>
<totfact> 0.46622572E+03</totfact>
</mgrwt>
</event>
<event>
 9    1  0.7944303E-001  0.2763208E+03  0.7818608E-02  0.1097716E+00
         -2   -1    0    0    0  501 -0.00000000000E+00  0.00000000000E+00  0.10550019305E+03  0.10550019305E+03  0.00000000000E+00 0.  1.
          2   -1    0    0  501    0  0.00000000000E+00 -0.00000000000E+00 -0.18093136864E+03  0.18093136864E+03  0.00000000000E+00 0.  1.
         35    2    1    2    0    0 -0.71054273576E-14  0.14210854715E-13 -0.75431175582E+02  0.28643156169E+03  0.27632078692E+03 0.  0.
         25    2    3    3    0    0  0.34016151799E+02  0.47696293022E+02 -0.14507105828E+02  0.13564333666E+03  0.12147684434E+03 0.  0.
         25    2    3    3    0    0 -0.34016151799E+02 -0.47696293022E+02 -0.60924069754E+02  0.15078822503E+03  0.12487318199E+03 0.  0.
          5    1    4    4  502    0  0.10642978664E+00 -0.40201959391E+02 -0.25055132184E+01  0.40553377944E+02  0.47000000000E+01 0. -1.
         -5    1    4    4    0  502  0.33909722012E+02  0.87898252412E+02 -0.12001592609E+02  0.95089958719E+02  0.47000000000E+01 0. -1.
          5    1    5    5  503    0  0.43664678845E+02 -0.13845104562E+02  0.45847539392E+00  0.46049878378E+02  0.47000000000E+01 0.  1.
         -5    1    5    5    0  503 -0.77680830644E+02 -0.33851188460E+02 -0.61382545148E+02  0.10473834665E+03  0.47000000000E+01 0.  1.
<mgrwt>
<rscale>  0 0.27632079E+03</rscale>
<asrwt>0</asrwt>
<pdfrwt beam="1">  1        2 0.27835595E-01 0.27632079E+03</pdfrwt>
<pdfrwt beam="2">  1       -2 0.16230799E-01 0.27632079E+03</pdfrwt>
<totfact> 0.56782523E+03</totfact>
</mgrwt>
</event>
<event>
 9    1  0.7944303E-001  0.2707130E+03  0.7818608E-02  0.1100872E+00
         -2   -1    0    0    0  501 -0.00000000000E+00  0.00000000000E+00  0.49712238206E+02  0.49712238206E+02  0.00000000000E+00 0. -1.
          2   -1    0    0  501    0  0.00000000000E+00 -0.00000000000E+00 -0.36854859067E+03  0.36854859067E+03  0.00000000000E+00 0. -1.
         35    2    1    2    0    0 -0.71054273576E-14  0.00000000000E+00 -0.31883635247E+03  0.41826082888E+03  0.27071295004E+03 0.  0.
         25    2    3    3    0    0 -0.51304144198E+02 -0.49665245927E+01 -0.14712597851E+03  0.19956667816E+03  0.12459544093E+03 0.  0.
         25    2    3    3    0    0  0.51304144198E+02  0.49665245927E+01 -0.17171037396E+03  0.21869415072E+03  0.12524335294E+03 0.  0.
          5    1    4    4  502    0 -0.21873409844E+01  0.32171571165E+02 -0.13203076532E+03  0.13599267423E+03  0.47000000000E+01 0.  1.
         -5    1    4    4    0  502 -0.49116803214E+02 -0.37138095757E+02 -0.15095213182E+02  0.63574003928E+02  0.47000000000E+01 0.  1.
          5    1    5    5  503    0  0.54019127773E+02  0.36181423071E+02 -0.27001287541E+02  0.70557218409E+02  0.47000000000E+01 0.  1.
         -5    1    5    5    0  503 -0.27149835744E+01 -0.31214898478E+02 -0.14470908642E+03  0.14813693231E+03  0.47000000000E+01 0.  1.
<mgrwt>
<rscale>  0 0.27071295E+03</rscale>
<asrwt>0</asrwt>
<pdfrwt beam="1">  1        2 0.56699782E-01 0.27071295E+03</pdfrwt>
<pdfrwt beam="2">  1       -2 0.76480368E-02 0.27071295E+03</pdfrwt>
<totfact> 0.87925865E+03</totfact>
</mgrwt>
</event>
<event>
 9    1  0.7944303E-001  0.2744675E+03  0.7818608E-02  0.1098750E+00
          4   -1    0    0  501    0  0.00000000000E+00  0.00000000000E+00  0.15433501645E+03  0.15433501645E+03  0.00000000000E+00 0. -1.
         -4   -1    0    0    0  501 -0.00000000000E+00 -0.00000000000E+00 -0.12202737848E+03  0.12202737848E+03  0.00000000000E+00 0. -1.
         35    2    1    2    0    0  0.35527136788E-14  0.00000000000E+00  0.32307637969E+02  0.27636239493E+03  0.27446746595E+03 0.  0.
         25    2    3    3    0    0  0.16291586251E+02  0.14175595635E+02  0.67706349775E+02  0.14442084641E+03  0.12572536651E+03 0.  0.
         25    2    3    3    0    0 -0.16291586251E+02 -0.14175595635E+02 -0.35398711806E+02  0.13194154853E+03  0.12525629779E+03 0.  0.
          5    1    4    4  502    0 -0.35688198937E+02  0.49205735044E+02  0.50725942248E+02  0.79309918179E+02  0.47000000000E+01 0. -1.
         -5    1    4    4    0  502  0.51979785188E+02 -0.35030139409E+02  0.16980407527E+02  0.65110928230E+02  0.47000000000E+01 0. -1.
          5    1    5    5  503    0 -0.31518393937E+02 -0.40454951534E+02 -0.69198229792E+02  0.86258317085E+02  0.47000000000E+01 0. -1.
         -5    1    5    5    0  503  0.15226807686E+02  0.26279355899E+02  0.33799517986E+02  0.45683231441E+02  0.47000000000E+01 0. -1.
<mgrwt>
<rscale>  0 0.27446747E+03</rscale>
<asrwt>0</asrwt>
<pdfrwt beam="1">  1        4 0.23743849E-01 0.27446747E+03</pdfrwt>
<pdfrwt beam="2">  1       -4 0.18773443E-01 0.27446747E+03</pdfrwt>
<totfact> 0.78171953E+02</totfact>
</mgrwt>
</event>
<event>
 9    1  0.7944303E-001  0.2744551E+03  0.7818608E-02  0.1098757E+00
         -2   -1    0    0    0  501 -0.00000000000E+00  0.00000000000E+00  0.11449994104E+02  0.11449994104E+02  0.00000000000E+00 0.  1.
          2   -1    0    0  501    0  0.00000000000E+00 -0.00000000000E+00 -0.16446652366E+04  0.16446652366E+04  0.00000000000E+00 0.  1.
         35    2    1    2    0    0  0.35527136788E-14  0.00000000000E+00 -0.16332152425E+04  0.16561152307E+04  0.27445514943E+03 0.  0.
         25    2    3    3    0    0 -0.13858851268E+02 -0.24469046511E+02 -0.50967071711E+03  0.52530899023E+03  0.12407454750E+03 0.  0.
         25    2    3    3    0    0  0.13858851268E+02  0.24469046511E+02 -0.11235445254E+04  0.11308062405E+04  0.12481847212E+03 0.  0.
          5    1    4    4  502    0 -0.38864545626E+02  0.37713925465E+02 -0.30746615402E+03  0.31223439745E+03  0.47000000000E+01 0. -1.
         -5    1    4    4    0  502  0.25005694359E+02 -0.62182971976E+02 -0.20220456309E+03  0.21307459278E+03  0.47000000000E+01 0. -1.
          5    1    5    5  503    0  0.38240574790E+00 -0.34812180099E+02 -0.11097883534E+03  0.11640629713E+03  0.47000000000E+01 0.  1.
         -5    1    5    5    0  503  0.13476445520E+02  0.59281226610E+02 -0.10125656900E+04  0.10143999433E+04  0.47000000000E+01 0.  1.
<mgrwt>
<rscale>  0 0.27445515E+03</rscale>
<asrwt>0</asrwt>
<pdfrwt beam="1">  1        2 0.25302541E+00 0.27445515E+03</pdfrwt>
<pdfrwt beam="2">  1       -2 0.17615377E-02 0.27445515E+03</pdfrwt>
<totfact> 0.10648801E+04</totfact>
</mgrwt>
</event>
<event>
 9    1  0.7944303E-001  0.3067040E+03  0.7818608E-02  0.1081937E+00
         -2   -1    0    0    0  501 -0.00000000000E+00  0.00000000000E+00  0.46321761217E+03  0.46321761217E+03  0.00000000000E+00 0.  1.
          2   -1    0    0  501    0  0.00000000000E+00 -0.00000000000E+00 -0.50768431639E+02  0.50768431639E+02  0.00000000000E+00 0.  1.
         35    2    1    2    0    0  0.71054273576E-14  0.00000000000E+00  0.41244918053E+03  0.51398604381E+03  0.30670397244E+03 0.  0.
         25    2    3    3    0    0 -0.47891215894E+02 -0.29294260327E+02  0.90365483690E+02  0.16401984308E+03  0.12483936091E+03 0.  0.
         25    2    3    3    0    0  0.47891215894E+02  0.29294260327E+02  0.32208369684E+03  0.34996620074E+03  0.12484675261E+03 0.  0.
          5    1    4    4  502    0  0.16268552067E+02  0.38946407620E+02  0.21038841918E+02  0.47394211905E+02  0.47000000000E+01 0.  1.
         -5    1    4    4    0  502 -0.64159767961E+02 -0.68240667947E+02  0.69326641772E+02  0.11662563117E+03  0.47000000000E+01 0.  1.
          5    1    5    5  503    0  0.15800186961E+02  0.14077947961E+02  0.31199523468E+03  0.31274742364E+03  0.47000000000E+01 0. -1.
         -5    1    5    5    0  503  0.32091028933E+02  0.15216312366E+02  0.10088462160E+02  0.37218777099E+02  0.47000000000E+01 0. -1.
<mgrwt>
<rscale>  0 0.30670397E+03</rscale>
<asrwt>0</asrwt>
<pdfrwt beam="1">  1        2 0.78105282E-02 0.30670397E+03</pdfrwt>
<pdfrwt beam="2">  1       -2 0.71264245E-01 0.30670397E+03</pdfrwt>
<totfact> 0.16125606E+03</totfact>
</mgrwt>
</event>
<event>
 9    1  0.7944303E-001  0.2787459E+03  0.7818608E-02  0.1096376E+00
         -3   -1    0    0    0  501 -0.00000000000E+00  0.00000000000E+00  0.30404509959E+02  0.30404509959E+02  0.00000000000E+00 0.  1.
          3   -1    0    0  501    0  0.00000000000E+00 -0.00000000000E+00 -0.63887931916E+03  0.63887931916E+03  0.00000000000E+00 0.  1.
         35    2    1    2    0    0  0.00000000000E+00  0.71054273576E-14 -0.60847480920E+03  0.66928382912E+03  0.27874585286E+03 0.  0.
         25    2    3    3    0    0  0.53787438629E+02  0.24534266531E+02 -0.34854201942E+03  0.37482695471E+03  0.12457402573E+03 0.  0.
         25    2    3    3    0    0 -0.53787438629E+02 -0.24534266531E+02 -0.25993278979E+03  0.29445687442E+03  0.12507908257E+03 0.  0.
          5    1    4    4  502    0  0.48821487055E+02 -0.21400608041E+02 -0.51814890611E+02  0.74487559443E+02  0.47000000000E+01 0.  1.
         -5    1    4    4    0  502  0.49659515740E+01  0.45934874572E+02 -0.29672712881E+03  0.30033939526E+03  0.47000000000E+01 0.  1.
          5    1    5    5  503    0 -0.93407493629E+02 -0.43328045350E+01 -0.17596602166E+03  0.19932351552E+03  0.47000000000E+01 0. -1.
         -5    1    5    5    0  503  0.39620055000E+02 -0.20201461996E+02 -0.83966768124E+02  0.95133358893E+02  0.47000000000E+01 0. -1.
<mgrwt>
<rscale>  0 0.27874585E+03</rscale>
<asrwt>0</asrwt>
<pdfrwt beam="1">  1        3 0.98289120E-01 0.27874585E+03</pdfrwt>
<pdfrwt beam="2">  1       -3 0.46776172E-02 0.27874585E+03</pdfrwt>
<totfact> 0.60755483E+02</totfact>
</mgrwt>
</event>
<event>
 9    1  0.7944303E-001  0.2770435E+03  0.7818608E-02  0.1097315E+00
          2   -1    0    0  501    0  0.00000000000E+00  0.00000000000E+00  0.22309837006E+04  0.22309837006E+04  0.00000000000E+00 0.  1.
         -2   -1    0    0    0  501 -0.00000000000E+00 -0.00000000000E+00 -0.86008115857E+01  0.86008115857E+01  0.00000000000E+00 0.  1.
         35    2    1    2    0    0 -0.71054273576E-14  0.00000000000E+00  0.22223828890E+04  0.22395845122E+04  0.27704346561E+03 0.  0.
         25    2    3    3    0    0  0.22502932883E+02 -0.54811277662E+02  0.11915942346E+04  0.11996043544E+04  0.12507249496E+03 0.  0.
         25    2    3    3    0    0 -0.22502932883E+02  0.54811277662E+02  0.10307886544E+04  0.10399801578E+04  0.12459061116E+03 0.  0.
          5    1    4    4  502    0  0.70412256653E+02 -0.56198186543E+02  0.76574836400E+03  0.77104394753E+03  0.47000000000E+01 0.  1.
         -5    1    4    4    0  502 -0.47909323769E+02  0.13869088809E+01  0.42584587059E+03  0.42856040685E+03  0.47000000000E+01 0.  1.
          5    1    5    5  503    0 -0.49636270150E+02  0.24476197493E+02  0.92297249018E+03  0.92464217468E+03  0.47000000000E+01 0. -1.
         -5    1    5    5    0  503  0.27133337267E+02  0.30335080169E+02  0.10781616425E+03  0.11533798314E+03  0.47000000000E+01 0. -1.
<mgrwt>
<rscale>  0 0.27704347E+03</rscale>
<asrwt>0</asrwt>
<pdfrwt beam="1">  1        2 0.34322780E+00 0.27704347E+03</pdfrwt>
<pdfrwt beam="2">  1       -2 0.13232036E-02 0.27704347E+03</pdfrwt>
<totfact> 0.79457793E+03</totfact>
</mgrwt>
</event>
<event>
 9    1  0.7944303E-001  0.2767049E+03  0.7818608E-02  0.1097502E+00
          1   -1    0    0  501    0  0.00000000000E+00  0.00000000000E+00  0.68082240450E+02  0.68082240450E+02  0.00000000000E+00 0. -1.
         -1   -1    0    0    0  501 -0.00000000000E+00 -0.00000000000E+00 -0.28115107611E+03  0.28115107611E+03  0.00000000000E+00 0. -1.
         35    2    1    2    0    0  0.00000000000E+00 -0.71054273576E-14 -0.21306883566E+03  0.34923331656E+03  0.27670486202E+03 0.  0.
         25    2    3    3    0    0  0.48140222392E+02 -0.17169991230E+02 -0.14041229686E+03  0.19490936626E+03  0.12514694697E+03 0.  0.
         25    2    3    3    0    0 -0.48140222392E+02  0.17169991230E+02 -0.72656538803E+02  0.15432395030E+03  0.12619278662E+03 0.  0.
          5    1    4    4  502    0  0.48803393335E+02  0.15016577655E+02 -0.51616856059E+00  0.51279871640E+02  0.47000000000E+01 0. -1.
         -5    1    4    4    0  502 -0.66317094307E+00 -0.32186568886E+02 -0.13989612830E+03  0.14362949462E+03  0.47000000000E+01 0. -1.
          5    1    5    5  503    0 -0.93724530595E+01  0.69591093224E+02 -0.43608248819E+02  0.82792104077E+02  0.47000000000E+01 0.  1.
         -5    1    5    5    0  503 -0.38767769332E+02 -0.52421101993E+02 -0.29048289984E+02  0.71531846224E+02  0.47000000000E+01 0.  1.
<mgrwt>
<rscale>  0 0.27670486E+03</rscale>
<asrwt>0</asrwt>
<pdfrwt beam="1">  1        1 0.10474191E-01 0.27670486E+03</pdfrwt>
<pdfrwt beam="2">  1       -1 0.43254010E-01 0.27670486E+03</pdfrwt>
<totfact> 0.32184904E+03</totfact>
</mgrwt>
</event>
<event>
 9    1  0.7944303E-001  0.2689010E+03  0.7818608E-02  0.1101910E+00
         -2   -1    0    0    0  501 -0.00000000000E+00  0.00000000000E+00  0.10345913837E+03  0.10345913837E+03  0.00000000000E+00 0. -1.
          2   -1    0    0  501    0  0.00000000000E+00 -0.00000000000E+00 -0.17472542345E+03  0.17472542345E+03  0.00000000000E+00 0. -1.
         35    2    1    2    0    0  0.00000000000E+00  0.00000000000E+00 -0.71266285081E+02  0.27818456183E+03  0.26890103579E+03 0.  0.
         25    2    3    3    0    0 -0.33581276380E+02 -0.17232244319E+02 -0.19597490496E+01  0.13061782788E+03  0.12503009229E+03 0.  0.
         25    2    3    3    0    0  0.33581276380E+02  0.17232244319E+02 -0.69306536031E+02  0.14756673395E+03  0.12469118920E+03 0.  0.
          5    1    4    4  502    0  0.13661034261E+02  0.43800241686E+02  0.19948851829E+02  0.50250688733E+02  0.47000000000E+01 0. -1.
         -5    1    4    4    0  502 -0.47242310640E+02 -0.61032486005E+02 -0.21908600879E+02  0.80367139149E+02  0.47000000000E+01 0. -1.
          5    1    5    5  503    0 -0.43338414423E+01 -0.51268805443E+02 -0.31314977561E+02  0.60415150524E+02  0.47000000000E+01 0. -1.
         -5    1    5    5    0  503  0.37915117822E+02  0.68501049762E+02 -0.37991558470E+02  0.87151583422E+02  0.47000000000E+01 0. -1.
<mgrwt>
<rscale>  0 0.26890104E+03</rscale>
<asrwt>0</asrwt>
<pdfrwt beam="1">  1        2 0.26880834E-01 0.26890104E+03</pdfrwt>
<pdfrwt beam="2">  1       -2 0.15916791E-01 0.26890104E+03</pdfrwt>
<totfact> 0.60908472E+03</totfact>
</mgrwt>
</event>
<event>
 9    1  0.7944303E-001  0.2787929E+03  0.7818608E-02  0.1096350E+00
          1   -1    0    0  501    0  0.00000000000E+00  0.00000000000E+00  0.14392289689E+04  0.14392289689E+04  0.00000000000E+00 0.  1.
         -1   -1    0    0    0  501 -0.00000000000E+00 -0.00000000000E+00 -0.13501237766E+02  0.13501237766E+02  0.00000000000E+00 0.  1.
         35    2    1    2    0    0  0.14210854715E-13  0.35527136788E-14  0.14257277311E+04  0.14527302066E+04  0.27879291604E+03 0.  0.
         25    2    3    3    0    0  0.50863487994E+02 -0.13283194503E+02  0.58497367983E+03  0.60105048520E+03  0.12768689051E+03 0.  0.
         25    2    3    3    0    0 -0.50863487994E+02  0.13283194503E+02  0.84075405127E+03  0.85167972143E+03  0.12540907261E+03 0.  0.
          5    1    4    4  502    0  0.60396348259E+02  0.20078153944E+02  0.13089946446E+03  0.14562833153E+03  0.47000000000E+01 0. -1.
         -5    1    4    4    0  502 -0.95328602649E+01 -0.33361348447E+02  0.45407421537E+03  0.45542215367E+03  0.47000000000E+01 0. -1.
          5    1    5    5  503    0  0.36945918301E+02 -0.41151214515E+01  0.12990554400E+03  0.13520161044E+03  0.47000000000E+01 0. -1.
         -5    1    5    5    0  503 -0.87809406295E+02  0.17398315954E+02  0.71084850727E+03  0.71647811099E+03  0.47000000000E+01 0. -1.
<mgrwt>
<rscale>  0 0.27879292E+03</rscale>
<asrwt>0</asrwt>
<pdfrwt beam="1">  1        1 0.22141972E+00 0.27879292E+03</pdfrwt>
<pdfrwt beam="2">  1       -1 0.20771146E-02 0.27879292E+03</pdfrwt>
<totfact> 0.50968834E+03</totfact>
</mgrwt>
</event>
<event>
 9    1  0.7944303E-001  0.2732104E+03  0.7818608E-02  0.1099456E+00
         -2   -1    0    0    0  501 -0.00000000000E+00  0.00000000000E+00  0.91752954031E+02  0.91752954031E+02  0.00000000000E+00 0.  1.
          2   -1    0    0  501    0  0.00000000000E+00 -0.00000000000E+00 -0.20338288017E+03  0.20338288017E+03  0.00000000000E+00 0.  1.
         35    2    1    2    0    0  0.71054273576E-14  0.88817841970E-15 -0.11162992614E+03  0.29513583420E+03  0.27321039552E+03 0.  0.
         25    2    3    3    0    0 -0.41100463586E+02  0.27635715559E+01 -0.95247284336E+02  0.16256322941E+03  0.12513142271E+03 0.  0.
         25    2    3    3    0    0  0.41100463586E+02 -0.27635715559E+01 -0.16382641803E+02  0.13257260479E+03  0.12494086263E+03 0.  0.
          5    1    4    4  502    0  0.39530484364E+02  0.14365804566E+02 -0.79369897377E+01  0.43059509298E+02  0.47000000000E+01 0. -1.
         -5    1    4    4    0  502 -0.80630947950E+02 -0.11602233010E+02 -0.87310294598E+02  0.11950372011E+03  0.47000000000E+01 0. -1.
          5    1    5    5  503    0 -0.38463317625E+02 -0.91150199007E+01  0.20207873789E+02  0.44642564371E+02  0.47000000000E+01 0. -1.
         -5    1    5    5    0  503  0.79563781212E+02  0.63514483448E+01 -0.36590515592E+02  0.87930040419E+02  0.47000000000E+01 0. -1.
<mgrwt>
<rscale>  0 0.27321040E+03</rscale>
<asrwt>0</asrwt>
<pdfrwt beam="1">  1        2 0.31289673E-01 0.27321040E+03</pdfrwt>
<pdfrwt beam="2">  1       -2 0.14115839E-01 0.27321040E+03</pdfrwt>
<totfact> 0.62875052E+03</totfact>
</mgrwt>
</event>
<event>
 9    1  0.7944303E-001  0.2748085E+03  0.7818608E-02  0.1098559E+00
         -1   -1    0    0    0  501 -0.00000000000E+00  0.00000000000E+00  0.27593353492E+03  0.27593353492E+03  0.00000000000E+00 0. -1.
          1   -1    0    0  501    0  0.00000000000E+00 -0.00000000000E+00 -0.68422003179E+02  0.68422003179E+02  0.00000000000E+00 0. -1.
         35    2    1    2    0    0 -0.14210854715E-13  0.00000000000E+00  0.20751153174E+03  0.34435553810E+03  0.27480848024E+03 0.  0.
         25    2    3    3    0    0  0.50195173813E+02  0.91090311783E+01  0.13926920488E+03  0.19319947934E+03  0.12380467466E+03 0.  0.
         25    2    3    3    0    0 -0.50195173813E+02 -0.91090311783E+01  0.68242326862E+02  0.15115605876E+03  0.12485435115E+03 0.  0.
          5    1    4    4  502    0  0.49506074087E+02 -0.46376844319E+02  0.11239901065E+03  0.13136700748E+03  0.47000000000E+01 0. -1.
         -5    1    4    4    0  502  0.68909972690E+00  0.55485875497E+02  0.26870194233E+02  0.61832471859E+02  0.47000000000E+01 0. -1.
          5    1    5    5  503    0  0.18383293201E+02 -0.45008962041E+02  0.15441872829E+01  0.48869485850E+02  0.47000000000E+01 0. -1.
         -5    1    5    5    0  503 -0.68578467014E+02  0.35899930863E+02  0.66698139579E+02  0.10228657291E+03  0.47000000000E+01 0. -1.
<mgrwt>
<rscale>  0 0.27480848E+03</rscale>
<asrwt>0</asrwt>
<pdfrwt beam="1">  1        1 0.10526462E-01 0.27480848E+03</pdfrwt>
<pdfrwt beam="2">  1       -1 0.42451312E-01 0.27480848E+03</pdfrwt>
<totfact> 0.33059011E+03</totfact>
</mgrwt>
</event>
<event>
 9    1  0.7944303E-001  0.2730834E+03  0.7818608E-02  0.1099528E+00
          2   -1    0    0  501    0  0.00000000000E+00  0.00000000000E+00  0.22581891169E+03  0.22581891169E+03  0.00000000000E+00 0.  1.
         -2   -1    0    0    0  501 -0.00000000000E+00 -0.00000000000E+00 -0.82560146085E+02  0.82560146085E+02  0.00000000000E+00 0.  1.
         35    2    1    2    0    0 -0.88817841970E-15  0.00000000000E+00  0.14325876561E+03  0.30837905778E+03  0.27308344760E+03 0.  0.
         25    2    3    3    0    0  0.49021364066E+01  0.15062047967E+02  0.12895947622E+03  0.18181216513E+03  0.12717790944E+03 0.  0.
         25    2    3    3    0    0 -0.49021364066E+01 -0.15062047967E+02  0.14299289385E+02  0.12656689265E+03  0.12475500955E+03 0.  0.
          5    1    4    4  502    0  0.16624851190E+01 -0.52918184605E+02  0.28309484722E+02  0.60221383610E+02  0.47000000000E+01 0. -1.
         -5    1    4    4    0  502  0.32396512876E+01  0.67980232573E+02  0.10064999150E+03  0.12159078152E+03  0.47000000000E+01 0. -1.
          5    1    5    5  503    0 -0.23746942526E+02  0.43792982344E+02 -0.22089378568E+02  0.54697104379E+02  0.47000000000E+01 0.  1.
         -5    1    5    5    0  503  0.18844806120E+02 -0.58855030311E+02  0.36388667953E+02  0.71869788271E+02  0.47000000000E+01 0.  1.
<mgrwt>
<rscale>  0 0.27308345E+03</rscale>
<asrwt>0</asrwt>
<pdfrwt beam="1">  1        2 0.34741371E-01 0.27308345E+03</pdfrwt>
<pdfrwt beam="2">  1       -2 0.12701561E-01 0.27308345E+03</pdfrwt>
<totfact> 0.66648293E+03</totfact>
</mgrwt>
</event>
<event>
 9    1  0.7944303E-001  0.2737513E+03  0.7818608E-02  0.1099152E+00
          2   -1    0    0  501    0  0.00000000000E+00  0.00000000000E+00  0.29388156466E+04  0.29388156466E+04  0.00000000000E+00 0.  1.
         -2   -1    0    0    0  501 -0.00000000000E+00 -0.00000000000E+00 -0.63749957550E+01  0.63749957550E+01  0.00000000000E+00 0.  1.
         35    2    1    2    0    0  0.00000000000E+00  0.00000000000E+00  0.29324406508E+04  0.29451906423E+04  0.27375125404E+03 0.  0.
         25    2    3    3    0    0 -0.10834638384E+02 -0.27033652094E+02  0.19780126957E+04  0.19821429349E+04  0.12453185211E+03 0.  0.
         25    2    3    3    0    0  0.10834638384E+02  0.27033652094E+02  0.95442795507E+03  0.96304770741E+03  0.12521963738E+03 0.  0.
          5    1    4    4  502    0 -0.32945783057E+01  0.39850139542E+02  0.28989870948E+03  0.29268112277E+03  0.47000000000E+01 0. -1.
         -5    1    4    4    0  502 -0.75400600787E+01 -0.66883791636E+02  0.16881139863E+04  0.16894618122E+04  0.47000000000E+01 0. -1.
          5    1    5    5  503    0  0.66240778877E+02  0.14635602673E+00  0.53184560685E+03  0.53597546747E+03  0.47000000000E+01 0. -1.
         -5    1    5    5    0  503 -0.55406140493E+02  0.26887296068E+02  0.42258234822E+03  0.42707223993E+03  0.47000000000E+01 0. -1.
<mgrwt>
<rscale>  0 0.27375125E+03</rscale>
<asrwt>0</asrwt>
<pdfrwt beam="1">  1        2 0.45212440E+00 0.27375125E+03</pdfrwt>
<pdfrwt beam="2">  1       -2 0.98077093E-03 0.27375125E+03</pdfrwt>
<totfact> 0.49657906E+03</totfact>
</mgrwt>
</event>
<event>
 9    1  0.7944303E-001  0.2756743E+03  0.7818608E-02  0.1098075E+00
          2   -1    0    0  501    0  0.00000000000E+00  0.00000000000E+00  0.33092479933E+03  0.33092479933E+03  0.00000000000E+00 0.  1.
         -2   -1    0    0    0  501 -0.00000000000E+00 -0.00000000000E+00 -0.57412072906E+02  0.57412072906E+02  0.00000000000E+00 0.  1.
         35    2    1    2    0    0 -0.35527136788E-14  0.00000000000E+00  0.27351272642E+03  0.38833687223E+03  0.27567429119E+03 0.  0.
         25    2    3    3    0    0 -0.28270399611E+02  0.26242867204E+02  0.19852254831E+03  0.23752518909E+03  0.12457571870E+03 0.  0.
         25    2    3    3    0    0  0.28270399611E+02 -0.26242867204E+02  0.74990178111E+02  0.15081168315E+03  0.12503092972E+03 0.  0.
          5    1    4    4  502    0 -0.35162694718E+02  0.51086978567E+02  0.33910499298E+02  0.70840005940E+02  0.47000000000E+01 0. -1.
         -5    1    4    4    0  502  0.68922951073E+01 -0.24844111363E+02  0.16461204901E+03  0.16668518315E+03  0.47000000000E+01 0. -1.
          5    1    5    5  503    0  0.23734485573E+02  0.48667848294E+02  0.42050597144E+02  0.68718469011E+02  0.47000000000E+01 0. -1.
         -5    1    5    5    0  503  0.45359140372E+01 -0.74910715498E+02  0.32939580968E+02  0.82093214135E+02  0.47000000000E+01 0. -1.
<mgrwt>
<rscale>  0 0.27567429E+03</rscale>
<asrwt>0</asrwt>
<pdfrwt beam="1">  1        2 0.50911506E-01 0.27567429E+03</pdfrwt>
<pdfrwt beam="2">  1       -2 0.88326268E-02 0.27567429E+03</pdfrwt>
<totfact> 0.78888690E+03</totfact>
</mgrwt>
</event>
<event>
 9    1  0.7944303E-001  0.2754576E+03  0.7818608E-02  0.1098196E+00
         -2   -1    0    0    0  501 -0.00000000000E+00  0.00000000000E+00  0.59061885128E+01  0.59061885128E+01  0.00000000000E+00 0. -1.
          2   -1    0    0  501    0  0.00000000000E+00 -0.00000000000E+00 -0.32117529853E+04  0.32117529853E+04  0.00000000000E+00 0. -1.
         35    2    1    2    0    0  0.00000000000E+00  0.00000000000E+00 -0.32058467968E+04  0.32176591739E+04  0.27545757269E+03 0.  0.
         25    2    3    3    0    0 -0.30883653852E+02 -0.40346759358E+02 -0.19067714866E+04  0.19116062430E+04  0.12601295569E+03 0.  0.
         25    2    3    3    0    0  0.30883653852E+02  0.40346759358E+02 -0.12990753102E+04  0.13060529309E+04  0.12488368808E+03 0.  0.
          5    1    4    4  502    0  0.48449720353E+02 -0.54250714385E+01 -0.72073523332E+03  0.72239751754E+03  0.47000000000E+01 0.  1.
         -5    1    4    4    0  502 -0.79333374205E+02 -0.34921687920E+02 -0.11860362533E+04  0.11892087255E+04  0.47000000000E+01 0.  1.
          5    1    5    5  503    0  0.34944918888E+02  0.55964037668E+02 -0.12748691374E+04  0.12765839292E+04  0.47000000000E+01 0. -1.
         -5    1    5    5    0  503 -0.40612650357E+01 -0.15617278310E+02 -0.24206172844E+02  0.29469001667E+02  0.47000000000E+01 0. -1.
<mgrwt>
<rscale>  0 0.27545757E+03</rscale>
<asrwt>0</asrwt>
<pdfrwt beam="1">  1        2 0.49411546E+00 0.27545757E+03</pdfrwt>
<pdfrwt beam="2">  1       -2 0.90864509E-03 0.27545757E+03</pdfrwt>
<totfact> 0.38000641E+03</totfact>
</mgrwt>
</event>
<event>
 9    1  0.7944303E-001  0.2792211E+03  0.7818608E-02  0.1096115E+00
          2   -1    0    0  501    0  0.00000000000E+00  0.00000000000E+00  0.28369732156E+03  0.28369732156E+03  0.00000000000E+00 0. -1.
         -2   -1    0    0    0  501 -0.00000000000E+00 -0.00000000000E+00 -0.68703855078E+02  0.68703855078E+02  0.00000000000E+00 0. -1.
         35    2    1    2    0    0  0.26645352591E-14 -0.71054273576E-14  0.21499346648E+03  0.35240117663E+03  0.27922105699E+03 0.  0.
         25    2    3    3    0    0 -0.60099701890E+01  0.31250172382E+02  0.41131675466E+02  0.13612285224E+03  0.12579715084E+03 0.  0.
         25    2    3    3    0    0  0.60099701890E+01 -0.31250172382E+02  0.17386179101E+03  0.21627832439E+03  0.12464228100E+03 0.  0.
          5    1    4    4  502    0  0.73461947178E+01 -0.44804074921E+02 -0.52138037260E+01  0.45941761565E+02  0.47000000000E+01 0. -1.
         -5    1    4    4    0  502 -0.13356164907E+02  0.76054247303E+02  0.46345479192E+02  0.90181090675E+02  0.47000000000E+01 0. -1.
          5    1    5    5  503    0  0.58090122870E+02 -0.17838489724E+02  0.13963786136E+03  0.15235975983E+03  0.47000000000E+01 0. -1.
         -5    1    5    5    0  503 -0.52080152681E+02 -0.13411682658E+02  0.34223929654E+02  0.63918564565E+02  0.47000000000E+01 0. -1.
<mgrwt>
<rscale>  0 0.27922106E+03</rscale>
<asrwt>0</asrwt>
<pdfrwt beam="1">  1        2 0.43645741E-01 0.27922106E+03</pdfrwt>
<pdfrwt beam="2">  1       -2 0.10569824E-01 0.27922106E+03</pdfrwt>
<totfact> 0.70074355E+03</totfact>
</mgrwt>
</event>
<event>
 9    1  0.7944303E-001  0.2737350E+03  0.7818608E-02  0.1099161E+00
         -1   -1    0    0    0  501 -0.00000000000E+00  0.00000000000E+00  0.98383638327E+03  0.98383638327E+03  0.00000000000E+00 0.  1.
          1   -1    0    0  501    0  0.00000000000E+00 -0.00000000000E+00 -0.19040472962E+02  0.19040472962E+02  0.00000000000E+00 0.  1.
         35    2    1    2    0    0  0.00000000000E+00  0.00000000000E+00  0.96479591031E+03  0.10028768562E+04  0.27373498172E+03 0.  0.
         25    2    3    3    0    0  0.56333241901E+02 -0.54242055857E+01  0.50913802878E+03  0.52730353094E+03  0.12499850094E+03 0.  0.
         25    2    3    3    0    0 -0.56333241901E+02  0.54242055857E+01  0.45565788153E+03  0.47557332530E+03  0.12386697133E+03 0.  0.
          5    1    4    4  502    0  0.22237283774E+02 -0.59671266440E+02  0.34838381300E+03  0.35418713696E+03  0.47000000000E+01 0.  1.
         -5    1    4    4    0  502  0.34095958127E+02  0.54247060854E+02  0.16075421578E+03  0.17311639398E+03  0.47000000000E+01 0.  1.
          5    1    5    5  503    0 -0.55696009846E+02  0.59404880318E+02  0.29194465728E+03  0.30312498781E+03  0.47000000000E+01 0.  1.
         -5    1    5    5    0  503 -0.63723205534E+00 -0.53980674733E+02  0.16371322425E+03  0.17244833749E+03  0.47000000000E+01 0.  1.
<mgrwt>
<rscale>  0 0.27373498E+03</rscale>
<asrwt>0</asrwt>
<pdfrwt beam="1">  1        1 0.29293043E-02 0.27373498E+03</pdfrwt>
<pdfrwt beam="2">  1       -1 0.15135940E+00 0.27373498E+03</pdfrwt>
<totfact> 0.13008729E+03</totfact>
</mgrwt>
</event>
<event>
 9    1  0.7944303E-001  0.2842355E+03  0.7818608E-02  0.1093398E+00
          2   -1    0    0  501    0  0.00000000000E+00  0.00000000000E+00  0.87371452903E+03  0.87371452903E+03  0.00000000000E+00 0.  1.
         -2   -1    0    0    0  501 -0.00000000000E+00 -0.00000000000E+00 -0.23116774304E+02  0.23116774304E+02  0.00000000000E+00 0.  1.
         35    2    1    2    0    0 -0.71054273576E-14  0.00000000000E+00  0.85059775473E+03  0.89683130333E+03  0.28423554720E+03 0.  0.
         25    2    3    3    0    0 -0.44439878169E+02 -0.38553128692E+02  0.41635825118E+03  0.43871139141E+03  0.12510893305E+03 0.  0.
         25    2    3    3    0    0  0.44439878169E+02  0.38553128692E+02  0.43423950355E+03  0.45811991192E+03  0.13359888006E+03 0.  0.
          5    1    4    4  502    0 -0.47440176692E+02  0.74328671055E+01  0.50172690884E+02  0.69607519626E+02  0.47000000000E+01 0. -1.
         -5    1    4    4    0  502  0.30002985222E+01 -0.45985995798E+02  0.36618556029E+03  0.36910387179E+03  0.47000000000E+01 0. -1.
          5    1    5    5  503    0  0.22893147976E+02  0.81305229647E+02  0.35887522196E+03  0.36871147464E+03  0.47000000000E+01 0. -1.
         -5    1    5    5    0  503  0.21546730193E+02 -0.42752100955E+02  0.75364281586E+02  0.89408437281E+02  0.47000000000E+01 0. -1.
<mgrwt>
<rscale>  0 0.28423555E+03</rscale>
<asrwt>0</asrwt>
<pdfrwt beam="1">  1        2 0.13441759E+00 0.28423555E+03</pdfrwt>
<pdfrwt beam="2">  1       -2 0.35564275E-02 0.28423555E+03</pdfrwt>
<totfact> 0.10357641E+04</totfact>
</mgrwt>
</event>
<event>
 9    1  0.7944303E-001  0.2766978E+03  0.7818608E-02  0.1097506E+00
          2   -1    0    0  501    0  0.00000000000E+00  0.00000000000E+00  0.21608878862E+04  0.21608878862E+04  0.00000000000E+00 0.  1.
         -2   -1    0    0    0  501 -0.00000000000E+00 -0.00000000000E+00 -0.88576626835E+01  0.88576626835E+01  0.00000000000E+00 0.  1.
         35    2    1    2    0    0  0.00000000000E+00  0.71054273576E-14  0.21520302235E+04  0.21697455489E+04  0.27669778455E+03 0.  0.
         25    2    3    3    0    0 -0.22087709952E+02 -0.52514957785E+02  0.10100501591E+04  0.10194910007E+04  0.12615422719E+03 0.  0.
         25    2    3    3    0    0  0.22087709952E+02  0.52514957785E+02  0.11419800645E+04  0.11502545482E+04  0.12538488826E+03 0.  0.
          5    1    4    4  502    0 -0.57942578207E+02 -0.67866727040E+02  0.49940056942E+03  0.50733248836E+03  0.47000000000E+01 0.  1.
         -5    1    4    4    0  502  0.35854868254E+02  0.15351769255E+02  0.51064958966E+03  0.51215851239E+03  0.47000000000E+01 0.  1.
          5    1    5    5  503    0 -0.29906920549E+02  0.38050585100E+02  0.17139839645E+03  0.17816220483E+03  0.47000000000E+01 0.  1.
         -5    1    5    5    0  503  0.51994630501E+02  0.14464372685E+02  0.97058166802E+03  0.97209234334E+03  0.47000000000E+01 0.  1.
<mgrwt>
<rscale>  0 0.27669778E+03</rscale>
<asrwt>0</asrwt>
<pdfrwt beam="1">  1        2 0.33244387E+00 0.27669778E+03</pdfrwt>
<pdfrwt beam="2">  1       -2 0.13627191E-02 0.27669778E+03</pdfrwt>
<totfact> 0.82939863E+03</totfact>
</mgrwt>
</event>
<event>
 9    1  0.7944303E-001  0.2753357E+03  0.7818608E-02  0.1098264E+00
         -1   -1    0    0    0  501 -0.00000000000E+00  0.00000000000E+00  0.11420734839E+03  0.11420734839E+03  0.00000000000E+00 0. -1.
          1   -1    0    0  501    0  0.00000000000E+00 -0.00000000000E+00 -0.16594760825E+03  0.16594760825E+03  0.00000000000E+00 0. -1.
         35    2    1    2    0    0  0.00000000000E+00  0.00000000000E+00 -0.51740259863E+02  0.28015495664E+03  0.27533569554E+03 0.  0.
         25    2    3    3    0    0 -0.85812469975E+01  0.40579153111E+02  0.11869254161E+02  0.13113940858E+03  0.12384005741E+03 0.  0.
         25    2    3    3    0    0  0.85812469975E+01 -0.40579153111E+02 -0.63609514024E+02  0.14901554807E+03  0.12821527921E+03 0.  0.
          5    1    4    4  502    0  0.90834799380E+01 -0.16528428632E+02  0.54306292677E+02  0.57679823033E+02  0.47000000000E+01 0.  1.
         -5    1    4    4    0  502 -0.17664726935E+02  0.57107581743E+02 -0.42437038515E+02  0.73459585543E+02  0.47000000000E+01 0.  1.
          5    1    5    5  503    0 -0.19995317011E+02  0.38793335851E+02 -0.44262884969E+02  0.62338018854E+02  0.47000000000E+01 0.  1.
         -5    1    5    5    0  503  0.28576564009E+02 -0.79372488962E+02 -0.19346629055E+02  0.86677529212E+02  0.47000000000E+01 0.  1.
<mgrwt>
<rscale>  0 0.27533570E+03</rscale>
<asrwt>0</asrwt>
<pdfrwt beam="1">  1        1 0.25530401E-01 0.27533570E+03</pdfrwt>
<pdfrwt beam="2">  1       -1 0.17570361E-01 0.27533570E+03</pdfrwt>
<totfact> 0.46082001E+03</totfact>
</mgrwt>
</event>
<event>
 9    1  0.7944303E-001  0.2794676E+03  0.7818608E-02  0.1095980E+00
         -2   -1    0    0    0  501 -0.00000000000E+00  0.00000000000E+00  0.17495282557E+02  0.17495282557E+02  0.00000000000E+00 0. -1.
          2   -1    0    0  501    0  0.00000000000E+00 -0.00000000000E+00 -0.11160459548E+04  0.11160459548E+04  0.00000000000E+00 0. -1.
         35    2    1    2    0    0  0.00000000000E+00  0.00000000000E+00 -0.10985506722E+04  0.11335412373E+04  0.27946763194E+03 0.  0.
         25    2    3    3    0    0  0.18906041773E+02  0.18925892630E+02 -0.77772028564E+03  0.78810257052E+03  0.12466431382E+03 0.  0.
         25    2    3    3    0    0 -0.18906041773E+02 -0.18925892630E+02 -0.32083038659E+03  0.34543866682E+03  0.12522023698E+03 0.  0.
          5    1    4    4  502    0 -0.33226189126E+02  0.95417125808E+01 -0.63233852236E+03  0.63330018220E+03  0.47000000000E+01 0. -1.
         -5    1    4    4    0  502  0.52132230900E+02  0.93841800491E+01 -0.14538176328E+03  0.15480238832E+03  0.47000000000E+01 0. -1.
          5    1    5    5  503    0 -0.14701602489E+02 -0.15584977916E+02 -0.33170613212E+03  0.33243055928E+03  0.47000000000E+01 0.  1.
         -5    1    5    5    0  503 -0.42044392846E+01 -0.33409147138E+01  0.10875745537E+02  0.13008107542E+02  0.47000000000E+01 0.  1.
<mgrwt>
<rscale>  0 0.27946763E+03</rscale>
<asrwt>0</asrwt>
<pdfrwt beam="1">  1        2 0.17169936E+00 0.27946763E+03</pdfrwt>
<pdfrwt beam="2">  1       -2 0.26915822E-02 0.27946763E+03</pdfrwt>
<totfact> 0.11117462E+04</totfact>
</mgrwt>
</event>
<event>
 9    1  0.7944303E-001  0.2778362E+03  0.7818608E-02  0.1096877E+00
         -2   -1    0    0    0  501 -0.00000000000E+00  0.00000000000E+00  0.25216821066E+02  0.25216821066E+02  0.00000000000E+00 0. -1.
          2   -1    0    0  501    0  0.00000000000E+00 -0.00000000000E+00 -0.76529236737E+03  0.76529236737E+03  0.00000000000E+00 0. -1.
         35    2    1    2    0    0  0.71054273576E-14  0.00000000000E+00 -0.74007554631E+03  0.79050918844E+03  0.27783621572E+03 0.  0.
         25    2    3    3    0    0 -0.43801966520E+02  0.43863646086E+02 -0.36663328296E+03  0.39217289054E+03  0.12464742348E+03 0.  0.
         25    2    3    3    0    0  0.43801966520E+02 -0.43863646086E+02 -0.37344226335E+03  0.39833629790E+03  0.12397600757E+03 0.  0.
          5    1    4    4  502    0 -0.76592720245E+02 -0.51827627839E+01 -0.16523079638E+03  0.18225425070E+03  0.47000000000E+01 0. -1.
         -5    1    4    4    0  502  0.32790753725E+02  0.49046408870E+02 -0.20140248658E+03  0.20991863984E+03  0.47000000000E+01 0. -1.
          5    1    5    5  503    0 -0.20540024065E+02 -0.61534418321E+02 -0.24542211013E+03  0.25389462257E+03  0.47000000000E+01 0. -1.
         -5    1    5    5    0  503  0.64341990585E+02  0.17670772235E+02 -0.12802015322E+03  0.14444167533E+03  0.47000000000E+01 0. -1.
<mgrwt>
<rscale>  0 0.27783622E+03</rscale>
<asrwt>0</asrwt>
<pdfrwt beam="1">  1        2 0.11773727E+00 0.27783622E+03</pdfrwt>
<pdfrwt beam="2">  1       -2 0.38795114E-02 0.27783622E+03</pdfrwt>
<totfact> 0.10771356E+04</totfact>
</mgrwt>
</event>
<event>
 9    1  0.7944303E-001  0.2771397E+03  0.7818608E-02  0.1097261E+00
         -2   -1    0    0    0  501 -0.00000000000E+00  0.00000000000E+00  0.72140296950E+01  0.72140296950E+01  0.00000000000E+00 0.  1.
          2   -1    0    0  501    0  0.00000000000E+00 -0.00000000000E+00 -0.26617032598E+04  0.26617032598E+04  0.00000000000E+00 0.  1.
         35    2    1    2    0    0  0.00000000000E+00  0.00000000000E+00 -0.26544892301E+04  0.26689172895E+04  0.27713972184E+03 0.  0.
         25    2    3    3    0    0  0.23900654639E+02  0.55251017122E+02 -0.12245753874E+04  0.12323493723E+04  0.12440329418E+03 0.  0.
         25    2    3    3    0    0 -0.23900654639E+02 -0.55251017122E+02 -0.14299138427E+04  0.14365679173E+04  0.12429749473E+03 0.  0.
          5    1    4    4  502    0 -0.21395380298E+02  0.39651559678E+02 -0.10577070421E+04  0.10586766670E+04  0.47000000000E+01 0.  1.
         -5    1    4    4    0  502  0.45296034938E+02  0.15599457443E+02 -0.16686834538E+03  0.17367270523E+03  0.47000000000E+01 0.  1.
          5    1    5    5  503    0 -0.28561725081E+02 -0.87588106774E+02 -0.12664302022E+04  0.12697854132E+04  0.47000000000E+01 0.  1.
         -5    1    5    5    0  503  0.46610704414E+01  0.32337089652E+02 -0.16348364048E+03  0.16678250403E+03  0.47000000000E+01 0.  1.
<mgrwt>
<rscale>  0 0.27713972E+03</rscale>
<asrwt>0</asrwt>
<pdfrwt beam="1">  1        2 0.40949291E+00 0.27713972E+03</pdfrwt>
<pdfrwt beam="2">  1       -2 0.11098504E-02 0.27713972E+03</pdfrwt>
<totfact> 0.59773482E+03</totfact>
</mgrwt>
</event>
<event>
 9    1  0.7944303E-001  0.2752925E+03  0.7818608E-02  0.1098288E+00
         -2   -1    0    0    0  501 -0.00000000000E+00  0.00000000000E+00  0.10636355720E+03  0.10636355720E+03  0.00000000000E+00 0. -1.
          2   -1    0    0  501    0  0.00000000000E+00 -0.00000000000E+00 -0.17812946520E+03  0.17812946520E+03  0.00000000000E+00 0. -1.
         35    2    1    2    0    0  0.00000000000E+00 -0.44408920985E-15 -0.71765907990E+02  0.28449302240E+03  0.27529245221E+03 0.  0.
         25    2    3    3    0    0 -0.58156735171E+02 -0.33114056302E+01 -0.45595033542E+02  0.14539309692E+03  0.12516818404E+03 0.  0.
         25    2    3    3    0    0  0.58156735171E+02  0.33114056302E+01 -0.26170874449E+02  0.13909992548E+03  0.12357468732E+03 0.  0.
          5    1    4    4  502    0 -0.97513422530E+02 -0.23187490203E+01 -0.39217385070E+02  0.10523467804E+03  0.47000000000E+01 0.  1.
         -5    1    4    4    0  502  0.39356687359E+02 -0.99265660993E+00 -0.63776484712E+01  0.40158418881E+02  0.47000000000E+01 0.  1.
          5    1    5    5  503    0 -0.28537327651E+02 -0.32225601490E+01 -0.41507630262E+02  0.50692576709E+02  0.47000000000E+01 0. -1.
         -5    1    5    5    0  503  0.86694062822E+02  0.65339657792E+01  0.15336755814E+02  0.88407348769E+02  0.47000000000E+01 0. -1.
<mgrwt>
<rscale>  0 0.27529245E+03</rscale>
<asrwt>0</asrwt>
<pdfrwt beam="1">  1        2 0.27404533E-01 0.27529245E+03</pdfrwt>
<pdfrwt beam="2">  1       -2 0.16363624E-01 0.27529245E+03</pdfrwt>
<totfact> 0.56983342E+03</totfact>
</mgrwt>
</event>
<event>
 9    1  0.7944303E-001  0.2748163E+03  0.7818608E-02  0.1098554E+00
         -1   -1    0    0    0  501 -0.00000000000E+00  0.00000000000E+00  0.60237908835E+02  0.60237908835E+02  0.00000000000E+00 0.  1.
          1   -1    0    0  501    0  0.00000000000E+00 -0.00000000000E+00 -0.31344044928E+03  0.31344044928E+03  0.00000000000E+00 0.  1.
         35    2    1    2    0    0  0.71054273576E-14 -0.35527136788E-14 -0.25320254045E+03  0.37367835812E+03  0.27481628197E+03 0.  0.
         25    2    3    3    0    0  0.46083104935E+02  0.12104352699E+02 -0.16952088726E+03  0.21593116060E+03  0.12497506546E+03 0.  0.
         25    2    3    3    0    0 -0.46083104935E+02 -0.12104352699E+02 -0.83681653183E+02  0.15774719751E+03  0.12494555346E+03 0.  0.
          5    1    4    4  502    0 -0.12075316426E+02  0.30971982686E+02  0.21443708049E+01  0.33641719701E+02  0.47000000000E+01 0. -1.
         -5    1    4    4    0  502  0.58158421361E+02 -0.18867629987E+02 -0.17166525807E+03  0.18228944090E+03  0.47000000000E+01 0. -1.
          5    1    5    5  503    0 -0.52935906271E+02 -0.60386536109E+02 -0.70624330678E+02  0.10704499054E+03  0.47000000000E+01 0. -1.
         -5    1    5    5    0  503  0.68528013365E+01  0.48282183410E+02 -0.13057322505E+02  0.50702206973E+02  0.47000000000E+01 0. -1.
<mgrwt>
<rscale>  0 0.27481628E+03</rscale>
<asrwt>0</asrwt>
<pdfrwt beam="1">  1        1 0.48221609E-01 0.27481628E+03</pdfrwt>
<pdfrwt beam="2">  1       -1 0.92673703E-02 0.27481628E+03</pdfrwt>
<totfact> 0.56478023E+03</totfact>
</mgrwt>
</event>
<event>
 9    1  0.7944303E-001  0.2834792E+03  0.7818608E-02  0.1093804E+00
         -1   -1    0    0    0  501 -0.00000000000E+00  0.00000000000E+00  0.72471437418E+02  0.72471437418E+02  0.00000000000E+00 0.  1.
          1   -1    0    0  501    0  0.00000000000E+00 -0.00000000000E+00 -0.27721429665E+03  0.27721429665E+03  0.00000000000E+00 0.  1.
         35    2    1    2    0    0 -0.71054273576E-14  0.35527136788E-14 -0.20474285923E+03  0.34968573407E+03  0.28347923064E+03 0.  0.
         25    2    3    3    0    0 -0.40497378340E+02 -0.14322066058E+02 -0.16726520444E+03  0.21206503053E+03  0.12308033689E+03 0.  0.
         25    2    3    3    0    0  0.40497378340E+02  0.14322066058E+02 -0.37477654786E+02  0.13762070353E+03  0.12525862926E+03 0.  0.
          5    1    4    4  502    0 -0.37981623132E+02  0.50133728948E+02 -0.61503208414E+02  0.88095000534E+02  0.47000000000E+01 0. -1.
         -5    1    4    4    0  502 -0.25157552082E+01 -0.64455795006E+02 -0.10576199603E+03  0.12397003000E+03  0.47000000000E+01 0. -1.
          5    1    5    5  503    0  0.31728753632E+02 -0.29480250536E+02  0.32580046504E+02  0.54399893464E+02  0.47000000000E+01 0. -1.
         -5    1    5    5    0  503  0.87686247082E+01  0.43802316594E+02 -0.70057701290E+02  0.83220810067E+02  0.47000000000E+01 0. -1.
<mgrwt>
<rscale>  0 0.28347923E+03</rscale>
<asrwt>0</asrwt>
<pdfrwt beam="1">  1        1 0.42648353E-01 0.28347923E+03</pdfrwt>
<pdfrwt beam="2">  1       -1 0.11149452E-01 0.28347923E+03</pdfrwt>
<totfact> 0.49558798E+03</totfact>
</mgrwt>
</event>
<event>
 9    1  0.7944303E-001  0.2735621E+03  0.7818608E-02  0.1099258E+00
          2   -1    0    0  501    0  0.00000000000E+00  0.00000000000E+00  0.19563785951E+04  0.19563785951E+04  0.00000000000E+00 0. -1.
         -2   -1    0    0    0  501 -0.00000000000E+00 -0.00000000000E+00 -0.95631044593E+01  0.95631044593E+01  0.00000000000E+00 0. -1.
         35    2    1    2    0    0  0.71054273576E-14  0.00000000000E+00  0.19468154907E+04  0.19659416996E+04  0.27356207973E+03 0.  0.
         25    2    3    3    0    0  0.13576312977E+02 -0.36276586955E+02  0.72879626384E+03  0.74091636072E+03  0.12772138569E+03 0.  0.
         25    2    3    3    0    0 -0.13576312977E+02  0.36276586955E+02  0.12180192268E+04  0.12250253389E+04  0.12496374235E+03 0.  0.
          5    1    4    4  502    0  0.54706687060E+02 -0.40765740222E+02  0.21916399749E+03  0.22958574646E+03  0.47000000000E+01 0. -1.
         -5    1    4    4    0  502 -0.41130374083E+02  0.44891532669E+01  0.50963226635E+03  0.51133061425E+03  0.47000000000E+01 0. -1.
          5    1    5    5  503    0 -0.65463215845E+01 -0.89299835409E+01  0.10690663094E+04  0.10691339779E+04  0.47000000000E+01 0.  1.
         -5    1    5    5    0  503 -0.70299913926E+01  0.45206570496E+02  0.14895291745E+03  0.15589136093E+03  0.47000000000E+01 0.  1.
<mgrwt>
<rscale>  0 0.27356208E+03</rscale>
<asrwt>0</asrwt>
<pdfrwt beam="1">  1        2 0.30098100E+00 0.27356208E+03</pdfrwt>
<pdfrwt beam="2">  1       -2 0.14712484E-02 0.27356208E+03</pdfrwt>
<totfact> 0.95058392E+03</totfact>
</mgrwt>
</event>
<event>
 9    1  0.7944303E-001  0.2787696E+03  0.7818608E-02  0.1096363E+00
          2   -1    0    0  501    0  0.00000000000E+00  0.00000000000E+00  0.99752027499E+03  0.99752027499E+03  0.00000000000E+00 0. -1.
         -2   -1    0    0    0  501 -0.00000000000E+00 -0.00000000000E+00 -0.19476424199E+02  0.19476424199E+02  0.00000000000E+00 0. -1.
         35    2    1    2    0    0 -0.71054273576E-14  0.71054273576E-14  0.97804385079E+03  0.10169966992E+04  0.27876963983E+03 0.  0.
         25    2    3    3    0    0 -0.34964609161E+02 -0.47663351898E+02  0.47027936946E+03  0.49014965534E+03  0.12485864120E+03 0.  0.
         25    2    3    3    0    0  0.34964609161E+02  0.47663351898E+02  0.50776448133E+03  0.52684704385E+03  0.12747046757E+03 0.  0.
          5    1    4    4  502    0 -0.28944400365E+02 -0.84894695421E+02  0.23057012331E+03  0.24744607370E+03  0.47000000000E+01 0. -1.
         -5    1    4    4    0  502 -0.60202087966E+01  0.37231343523E+02  0.23970924615E+03  0.24270358165E+03  0.47000000000E+01 0. -1.
          5    1    5    5  503    0  0.20348212730E+02 -0.11716499515E+02  0.11071597248E+02  0.26381743456E+02  0.47000000000E+01 0.  1.
         -5    1    5    5    0  503  0.14616396431E+02  0.59379851413E+02  0.49669288408E+03  0.50046530039E+03  0.47000000000E+01 0.  1.
<mgrwt>
<rscale>  0 0.27876964E+03</rscale>
<asrwt>0</asrwt>
<pdfrwt beam="1">  1        2 0.15346462E+00 0.27876964E+03</pdfrwt>
<pdfrwt beam="2">  1       -2 0.29963737E-02 0.27876964E+03</pdfrwt>
<totfact> 0.11159268E+04</totfact>
</mgrwt>
</event>
<event>
 9    1  0.7944303E-001  0.2733413E+03  0.7818608E-02  0.1099382E+00
          2   -1    0    0  501    0  0.00000000000E+00  0.00000000000E+00  0.88412694593E+03  0.88412694593E+03  0.00000000000E+00 0.  1.
         -2   -1    0    0    0  501 -0.00000000000E+00 -0.00000000000E+00 -0.21126909879E+02  0.21126909879E+02  0.00000000000E+00 0.  1.
         35    2    1    2    0    0  0.00000000000E+00 -0.14210854715E-13  0.86300003605E+03  0.90525385581E+03  0.27334132734E+03 0.  0.
         25    2    3    3    0    0  0.30476646139E+02 -0.41517879791E+02  0.49104506249E+03  0.50939934596E+03  0.12533906002E+03 0.  0.
         25    2    3    3    0    0 -0.30476646139E+02  0.41517879791E+02  0.37195497356E+03  0.39585450985E+03  0.12529058348E+03 0.  0.
          5    1    4    4  502    0 -0.13392748142E+02  0.34997281044E+02  0.73726279439E+02  0.82836161567E+02  0.47000000000E+01 0. -1.
         -5    1    4    4    0  502  0.43869394281E+02 -0.76515160836E+02  0.41731878305E+03  0.42656318440E+03  0.47000000000E+01 0. -1.
          5    1    5    5  503    0  0.24076048929E+02 -0.11766610735E+02  0.15517969824E+02  0.31321025648E+02  0.47000000000E+01 0. -1.
         -5    1    5    5    0  503 -0.54552695068E+02  0.53284490526E+02  0.35643700374E+03  0.36453348420E+03  0.47000000000E+01 0. -1.
<mgrwt>
<rscale>  0 0.27334133E+03</rscale>
<asrwt>0</asrwt>
<pdfrwt beam="1">  1        2 0.13601950E+00 0.27334133E+03</pdfrwt>
<pdfrwt beam="2">  1       -2 0.32502945E-02 0.27334133E+03</pdfrwt>
<totfact> 0.11650632E+04</totfact>
</mgrwt>
</event>
<event>
 9    1  0.7944303E-001  0.2745505E+03  0.7818608E-02  0.1098703E+00
         -1   -1    0    0    0  501 -0.00000000000E+00  0.00000000000E+00  0.13155461971E+02  0.13155461971E+02  0.00000000000E+00 0.  1.
          1   -1    0    0  501    0  0.00000000000E+00 -0.00000000000E+00 -0.14324461768E+04  0.14324461768E+04  0.00000000000E+00 0.  1.
         35    2    1    2    0    0 -0.35527136788E-14  0.00000000000E+00 -0.14192907149E+04  0.14456016388E+04  0.27455047773E+03 0.  0.
         25    2    3    3    0    0  0.28601491010E+02  0.45571549031E+02 -0.62164978463E+03  0.63643114025E+03  0.12530494873E+03 0.  0.
         25    2    3    3    0    0 -0.28601491010E+02 -0.45571549031E+02 -0.79764093022E+03  0.80917049855E+03  0.12502412082E+03 0.  0.
          5    1    4    4  502    0 -0.41304193443E+02  0.49670358586E+02 -0.25295449320E+03  0.26111538934E+03  0.47000000000E+01 0. -1.
         -5    1    4    4    0  502  0.69905684453E+02 -0.40988095551E+01 -0.36869529143E+03  0.37531575091E+03  0.47000000000E+01 0. -1.
          5    1    5    5  503    0  0.50903201108E+01 -0.84274428733E+02 -0.50278314134E+03  0.50984416042E+03  0.47000000000E+01 0.  1.
         -5    1    5    5    0  503 -0.33691811121E+02  0.38702879702E+02 -0.29485778888E+03  0.29932633813E+03  0.47000000000E+01 0.  1.
<mgrwt>
<rscale>  0 0.27455048E+03</rscale>
<asrwt>0</asrwt>
<pdfrwt beam="1">  1        1 0.22037634E+00 0.27455048E+03</pdfrwt>
<pdfrwt beam="2">  1       -1 0.20239172E-02 0.27455048E+03</pdfrwt>
<totfact> 0.53488918E+03</totfact>
</mgrwt>
</event>
<event>
 9    1  0.7944303E-001  0.2750307E+03  0.7818608E-02  0.1098434E+00
         -2   -1    0    0    0  501 -0.00000000000E+00  0.00000000000E+00  0.20197484464E+03  0.20197484464E+03  0.00000000000E+00 0.  1.
          2   -1    0    0  501    0  0.00000000000E+00 -0.00000000000E+00 -0.93627851017E+02  0.93627851017E+02  0.00000000000E+00 0.  1.
         35    2    1    2    0    0 -0.71054273576E-14 -0.71054273576E-14  0.10834699362E+03  0.29560269565E+03  0.27503069402E+03 0.  0.
         25    2    3    3    0    0  0.46489957918E+02 -0.21640432543E+02  0.26450331554E+02  0.13815461413E+03  0.12552869336E+03 0.  0.
         25    2    3    3    0    0 -0.46489957918E+02  0.21640432543E+02  0.81896662066E+02  0.15744808153E+03  0.12431094325E+03 0.  0.
          5    1    4    4  502    0  0.33514958105E+02 -0.74024852138E+02  0.17374054239E+02  0.83227873406E+02  0.47000000000E+01 0. -1.
         -5    1    4    4    0  502  0.12974999812E+02  0.52384419595E+02  0.90762773149E+01  0.54926740722E+02  0.47000000000E+01 0. -1.
          5    1    5    5  503    0 -0.71874540807E+02  0.11667613324E+02  0.21095036778E+01  0.72997416548E+02  0.47000000000E+01 0.  1.
         -5    1    5    5    0  503  0.25384582890E+02  0.99728192193E+01  0.79787158389E+02  0.84450664979E+02  0.47000000000E+01 0.  1.
<mgrwt>
<rscale>  0 0.27503069E+03</rscale>
<asrwt>0</asrwt>
<pdfrwt beam="1">  1        2 0.14404285E-01 0.27503069E+03</pdfrwt>
<pdfrwt beam="2">  1       -2 0.31073053E-01 0.27503069E+03</pdfrwt>
<totfact> 0.39011274E+03</totfact>
</mgrwt>
</event>
<event>
 9    1  0.7944303E-001  0.2717469E+03  0.7818608E-02  0.1100284E+00
         -2   -1    0    0    0  501 -0.00000000000E+00  0.00000000000E+00  0.17696139055E+02  0.17696139055E+02  0.00000000000E+00 0.  1.
          2   -1    0    0  501    0  0.00000000000E+00 -0.00000000000E+00 -0.10432552335E+04  0.10432552335E+04  0.00000000000E+00 0.  1.
         35    2    1    2    0    0  0.00000000000E+00  0.00000000000E+00 -0.10255590945E+04  0.10609513726E+04  0.27174686517E+03 0.  0.
         25    2    3    3    0    0 -0.49207357682E+02  0.17484845125E+02 -0.45271515336E+03  0.47215302642E+03  0.12349245488E+03 0.  0.
         25    2    3    3    0    0  0.49207357682E+02 -0.17484845125E+02 -0.57284394110E+03  0.58879834615E+03  0.12572282100E+03 0.  0.
          5    1    4    4  502    0 -0.78759337072E+02  0.54956632848E+01 -0.41531037720E+03  0.42277421267E+03  0.47000000000E+01 0. -1.
         -5    1    4    4    0  502  0.29551979391E+02  0.11989181840E+02 -0.37404776161E+02  0.49378813744E+02  0.47000000000E+01 0. -1.
          5    1    5    5  503    0  0.27926282046E+02  0.53228075531E+02 -0.20986963761E+03  0.21835855844E+03  0.47000000000E+01 0. -1.
         -5    1    5    5    0  503  0.21281075636E+02 -0.70712920656E+02 -0.36297430349E+03  0.37043978772E+03  0.47000000000E+01 0. -1.
<mgrwt>
<rscale>  0 0.27174687E+03</rscale>
<asrwt>0</asrwt>
<pdfrwt beam="1">  1        2 0.16050087E+00 0.27174687E+03</pdfrwt>
<pdfrwt beam="2">  1       -2 0.27224818E-02 0.27174687E+03</pdfrwt>
<totfact> 0.12061212E+04</totfact>
</mgrwt>
</event>
<event>
 9    1  0.7944303E-001  0.2795675E+03  0.7818608E-02  0.1095925E+00
         -3   -1    0    0    0  501 -0.00000000000E+00  0.00000000000E+00  0.12880008951E+02  0.12880008951E+02  0.00000000000E+00 0. -1.
          3   -1    0    0  501    0  0.00000000000E+00 -0.00000000000E+00 -0.15170401782E+04  0.15170401782E+04  0.00000000000E+00 0. -1.
         35    2    1    2    0    0  0.00000000000E+00  0.00000000000E+00 -0.15041601692E+04  0.15299201871E+04  0.27956745930E+03 0.  0.
         25    2    3    3    0    0 -0.50713066870E+02 -0.26795003247E+02 -0.87506867708E+03  0.88585622900E+03  0.12532470423E+03 0.  0.
         25    2    3    3    0    0  0.50713066870E+02  0.26795003247E+02 -0.62909149214E+03  0.64406395813E+03  0.12558857164E+03 0.  0.
          5    1    4    4  502    0 -0.33243435464E+02 -0.35020839840E+02 -0.10648806562E+03  0.11701873074E+03  0.47000000000E+01 0. -1.
         -5    1    4    4    0  502 -0.17469631406E+02  0.82258365934E+01 -0.76858061146E+03  0.76883749826E+03  0.47000000000E+01 0. -1.
          5    1    5    5  503    0  0.23770671694E+02  0.76869807930E+02 -0.34355078313E+03  0.35287850996E+03  0.47000000000E+01 0. -1.
         -5    1    5    5    0  503  0.26942395176E+02 -0.50074804683E+02 -0.28554070901E+03  0.29118544817E+03  0.47000000000E+01 0. -1.
<mgrwt>
<rscale>  0 0.27956746E+03</rscale>
<asrwt>0</asrwt>
<pdfrwt beam="1">  1        3 0.23339067E+00 0.27956746E+03</pdfrwt>
<pdfrwt beam="2">  1       -3 0.19815409E-02 0.27956746E+03</pdfrwt>
<totfact> 0.25090012E+02</totfact>
</mgrwt>
</event>
<event>
 9    1  0.7944303E-001  0.3145207E+03  0.7818608E-02  0.1078199E+00
          2   -1    0    0  501    0  0.00000000000E+00  0.00000000000E+00  0.24028600436E+04  0.24028600436E+04  0.00000000000E+00 0. -1.
         -2   -1    0    0    0  501 -0.00000000000E+00 -0.00000000000E+00 -0.10292244948E+02  0.10292244948E+02  0.00000000000E+00 0. -1.
         35    2    1    2    0    0  0.00000000000E+00  0.00000000000E+00  0.23925677987E+04  0.24131522886E+04  0.31452074110E+03 0.  0.
         25    2    3    3    0    0  0.53264401254E+02 -0.40855161508E+02  0.16961219700E+04  0.17019947027E+04  0.12429798982E+03 0.  0.
         25    2    3    3    0    0 -0.53264401254E+02  0.40855161508E+02  0.69644582868E+03  0.71115758587E+03  0.12728738739E+03 0.  0.
          5    1    4    4  502    0  0.29289562661E+02 -0.85415624987E+02  0.11019959660E+04  0.11056992840E+04  0.47000000000E+01 0.  1.
         -5    1    4    4    0  502  0.23974838593E+02  0.44560463479E+02  0.59412600397E+03  0.59629541871E+03  0.47000000000E+01 0.  1.
          5    1    5    5  503    0 -0.80237458375E+02  0.56457379042E+02  0.63008126374E+03  0.63769112766E+03  0.47000000000E+01 0. -1.
         -5    1    5    5    0  503  0.26973057122E+02 -0.15602217534E+02  0.66364564944E+02  0.73466458215E+02  0.47000000000E+01 0. -1.
<mgrwt>
<rscale>  0 0.31452074E+03</rscale>
<asrwt>0</asrwt>
<pdfrwt beam="1">  1        2 0.36967033E+00 0.31452074E+03</pdfrwt>
<pdfrwt beam="2">  1       -2 0.15834242E-02 0.31452074E+03</pdfrwt>
<totfact> 0.49329647E+03</totfact>
</mgrwt>
</event>
<event>
 9    1  0.7944303E-001  0.2702631E+03  0.7818608E-02  0.1101129E+00
         -2   -1    0    0    0  501 -0.00000000000E+00  0.00000000000E+00  0.11029814966E+04  0.11029814966E+04  0.00000000000E+00 0. -1.
          2   -1    0    0  501    0  0.00000000000E+00 -0.00000000000E+00 -0.16555610296E+02  0.16555610296E+02  0.00000000000E+00 0. -1.
         35    2    1    2    0    0  0.00000000000E+00  0.35527136788E-14  0.10864258863E+04  0.11195371069E+04  0.27026307051E+03 0.  0.
         25    2    3    3    0    0  0.41516016164E+02 -0.27509249620E+02  0.57404428588E+03  0.58964918577E+03  0.12521574070E+03 0.  0.
         25    2    3    3    0    0 -0.41516016164E+02  0.27509249620E+02  0.51238160038E+03  0.52988792108E+03  0.12556259827E+03 0.  0.
          5    1    4    4  502    0 -0.10403456270E+02 -0.83588373802E+01  0.48157913757E+03  0.48178694234E+03  0.47000000000E+01 0.  1.
         -5    1    4    4    0  502  0.51919472434E+02 -0.19150412240E+02  0.92465148312E+02  0.10786224344E+03  0.47000000000E+01 0.  1.
          5    1    5    5  503    0 -0.84822368100E+02  0.25315431680E+02  0.39057311415E+03  0.40050612069E+03  0.47000000000E+01 0. -1.
         -5    1    5    5    0  503  0.43306351936E+02  0.21938179398E+01  0.12180848623E+03  0.12938180039E+03  0.47000000000E+01 0. -1.
<mgrwt>
<rscale>  0 0.27026307E+03</rscale>
<asrwt>0</asrwt>
<pdfrwt beam="1">  1        2 0.25470178E-02 0.27026307E+03</pdfrwt>
<pdfrwt beam="2">  1       -2 0.16968940E+00 0.27026307E+03</pdfrwt>
<totfact> 0.89674610E+02</totfact>
</mgrwt>
</event>
<event>
 9    1  0.7944303E-001  0.2749738E+03  0.7818608E-02  0.1098466E+00
          2   -1    0    0  501    0  0.00000000000E+00  0.00000000000E+00  0.52246106722E+02  0.52246106722E+02  0.00000000000E+00 0.  1.
         -2   -1    0    0    0  501 -0.00000000000E+00 -0.00000000000E+00 -0.36180023438E+03  0.36180023438E+03  0.00000000000E+00 0.  1.
         35    2    1    2    0    0  0.00000000000E+00 -0.71054273576E-14 -0.30955412766E+03  0.41404634110E+03  0.27497384354E+03 0.  0.
         25    2    3    3    0    0  0.48011042929E+01 -0.26841989468E+02 -0.78945146199E+02  0.15057059282E+03  0.12528217875E+03 0.  0.
         25    2    3    3    0    0 -0.48011042929E+01  0.26841989468E+02 -0.23060898146E+03  0.26347574829E+03  0.12448061939E+03 0.  0.
          5    1    4    4  502    0  0.47297920108E+02  0.82436365388E+01 -0.82043536335E+02  0.95175010608E+02  0.47000000000E+01 0.  1.
         -5    1    4    4    0  502 -0.42496815815E+02 -0.35085626007E+02  0.30983901355E+01  0.55395582208E+02  0.47000000000E+01 0.  1.
          5    1    5    5  503    0  0.24603807865E+02 -0.25965609330E+02 -0.18263780444E+03  0.18616717713E+03  0.47000000000E+01 0.  1.
         -5    1    5    5    0  503 -0.29404912158E+02  0.52807598798E+02 -0.47971177015E+02  0.77308571155E+02  0.47000000000E+01 0.  1.
<mgrwt>
<rscale>  0 0.27497384E+03</rscale>
<asrwt>0</asrwt>
<pdfrwt beam="1">  1        2 0.80378624E-02 0.27497384E+03</pdfrwt>
<pdfrwt beam="2">  1       -2 0.55661576E-01 0.27497384E+03</pdfrwt>
<totfact> 0.26025591E+03</totfact>
</mgrwt>
</event>
<event>
 9    1  0.7944303E-001  0.2747416E+03  0.7818608E-02  0.1098596E+00
          1   -1    0    0  501    0  0.00000000000E+00  0.00000000000E+00  0.73003633075E+02  0.73003633075E+02  0.00000000000E+00 0. -1.
         -1   -1    0    0    0  501 -0.00000000000E+00 -0.00000000000E+00 -0.25849041751E+03  0.25849041751E+03  0.00000000000E+00 0. -1.
         35    2    1    2    0    0  0.00000000000E+00  0.00000000000E+00 -0.18548678444E+03  0.33149405059E+03  0.27474162112E+03 0.  0.
         25    2    3    3    0    0 -0.73254093510E+01  0.41312431688E+02 -0.14106054760E+03  0.19305539597E+03  0.12494770583E+03 0.  0.
         25    2    3    3    0    0  0.73254093510E+01 -0.41312431688E+02 -0.44426236843E+02  0.13843865462E+03  0.12422234879E+03 0.  0.
          5    1    4    4  502    0  0.16529336899E+02  0.33290491432E+02  0.10849027950E+02  0.39003425563E+02  0.47000000000E+01 0.  1.
         -5    1    4    4    0  502 -0.23854746250E+02  0.80219402551E+01 -0.15190957555E+03  0.15405197041E+03  0.47000000000E+01 0.  1.
          5    1    5    5  503    0  0.32791774815E+02 -0.34656999612E+02  0.31885929118E+02  0.57577865481E+02  0.47000000000E+01 0. -1.
         -5    1    5    5    0  503 -0.25466365464E+02 -0.66554320753E+01 -0.76312165961E+02  0.80860789136E+02  0.47000000000E+01 0. -1.
<mgrwt>
<rscale>  0 0.27474162E+03</rscale>
<asrwt>0</asrwt>
<pdfrwt beam="1">  1        1 0.11231328E-01 0.27474162E+03</pdfrwt>
<pdfrwt beam="2">  1       -1 0.39767757E-01 0.27474162E+03</pdfrwt>
<totfact> 0.34057712E+03</totfact>
</mgrwt>
</event>
<event>
 9    1  0.7944303E-001  0.2825624E+03  0.7818608E-02  0.1094298E+00
          1   -1    0    0  501    0  0.00000000000E+00  0.00000000000E+00  0.66555563806E+03  0.66555563806E+03  0.00000000000E+00 0. -1.
         -1   -1    0    0    0  501 -0.00000000000E+00 -0.00000000000E+00 -0.29990542921E+02  0.29990542921E+02  0.00000000000E+00 0. -1.
         35    2    1    2    0    0 -0.71054273576E-14  0.00000000000E+00  0.63556509514E+03  0.69554618098E+03  0.28256238200E+03 0.  0.
         25    2    3    3    0    0  0.10039140302E+02  0.97091225031E+01  0.46682141133E+03  0.48375031022E+03  0.12608362768E+03 0.  0.
         25    2    3    3    0    0 -0.10039140302E+02 -0.97091225031E+01  0.16874368381E+03  0.21179587076E+03  0.12723210541E+03 0.  0.
          5    1    4    4  502    0 -0.45307401780E+02 -0.38081356783E+01  0.75376622696E+02  0.88153206422E+02  0.47000000000E+01 0. -1.
         -5    1    4    4    0  502  0.55346542083E+02  0.13517258181E+02  0.39144478863E+03  0.39559710380E+03  0.47000000000E+01 0. -1.
          5    1    5    5  503    0 -0.97165772810E+01 -0.64876501763E+02  0.56769936664E+02  0.86880884341E+02  0.47000000000E+01 0.  1.
         -5    1    5    5    0  503 -0.32256302120E+00  0.55167379260E+02  0.11197374715E+03  0.12491498642E+03  0.47000000000E+01 0.  1.
<mgrwt>
<rscale>  0 0.28256238E+03</rscale>
<asrwt>0</asrwt>
<pdfrwt beam="1">  1        1 0.10239316E+00 0.28256238E+03</pdfrwt>
<pdfrwt beam="2">  1       -1 0.46139302E-02 0.28256238E+03</pdfrwt>
<totfact> 0.60141016E+03</totfact>
</mgrwt>
</event>
<event>
 9    1  0.7944303E-001  0.2743898E+03  0.7818608E-02  0.1098793E+00
         -2   -1    0    0    0  501 -0.00000000000E+00  0.00000000000E+00  0.17156899095E+02  0.17156899095E+02  0.00000000000E+00 0. -1.
          2   -1    0    0  501    0  0.00000000000E+00 -0.00000000000E+00 -0.10970770080E+04  0.10970770080E+04  0.00000000000E+00 0. -1.
         35    2    1    2    0    0  0.71054273576E-14 -0.35527136788E-14 -0.10799201089E+04  0.11142339071E+04  0.27438979227E+03 0.  0.
         25    2    3    3    0    0  0.47476176621E+02 -0.12715574161E+02 -0.42347821285E+03  0.44412381608E+03  0.12448491506E+03 0.  0.
         25    2    3    3    0    0 -0.47476176621E+02  0.12715574161E+02 -0.65644189604E+03  0.67011009100E+03  0.12536306478E+03 0.  0.
          5    1    4    4  502    0  0.87979155547E+02 -0.17898130399E+02 -0.32960630599E+03  0.34164759889E+03  0.47000000000E+01 0. -1.
         -5    1    4    4    0  502 -0.40502978926E+02  0.51825562378E+01 -0.93871906867E+02  0.10247621719E+03  0.47000000000E+01 0. -1.
          5    1    5    5  503    0 -0.32834288523E+02 -0.50979007294E+02 -0.20165445987E+03  0.21062659109E+03  0.47000000000E+01 0. -1.
         -5    1    5    5    0  503 -0.14641888099E+02  0.63694581455E+02 -0.45478743617E+03  0.45948349991E+03  0.47000000000E+01 0. -1.
<mgrwt>
<rscale>  0 0.27438979E+03</rscale>
<asrwt>0</asrwt>
<pdfrwt beam="1">  1        2 0.16878112E+00 0.27438979E+03</pdfrwt>
<pdfrwt beam="2">  1       -2 0.26395223E-02 0.27438979E+03</pdfrwt>
<totfact> 0.11734685E+04</totfact>
</mgrwt>
</event>
<event>
 9    1  0.7944303E-001  0.2671349E+03  0.7818608E-02  0.1102931E+00
          1   -1    0    0  501    0  0.00000000000E+00  0.00000000000E+00  0.10647123284E+03  0.10647123284E+03  0.00000000000E+00 0.  1.
         -1   -1    0    0    0  501 -0.00000000000E+00 -0.00000000000E+00 -0.16755951054E+03  0.16755951054E+03  0.00000000000E+00 0.  1.
         35    2    1    2    0    0 -0.17763568394E-14 -0.71054273576E-14 -0.61088277701E+02  0.27403074337E+03  0.26713492966E+03 0.  0.
         25    2    3    3    0    0  0.65864705586E+01 -0.44994279090E+02 -0.15827931665E+02  0.13352746182E+03  0.12454393961E+03 0.  0.
         25    2    3    3    0    0 -0.65864705586E+01  0.44994279090E+02 -0.45260346036E+02  0.14050328156E+03  0.12499922584E+03 0.  0.
          5    1    4    4  502    0  0.37695525364E+02 -0.47476279525E+02  0.37588941361E+02  0.71484042014E+02  0.47000000000E+01 0. -1.
         -5    1    4    4    0  502 -0.31109054805E+02  0.24820004353E+01 -0.53416873027E+02  0.62043419804E+02  0.47000000000E+01 0. -1.
          5    1    5    5  503    0 -0.19768314101E+02 -0.77432271360E+01  0.36335689460E+02  0.42345202059E+02  0.47000000000E+01 0.  1.
         -5    1    5    5    0  503  0.13181843542E+02  0.52737506226E+02 -0.81596035496E+02  0.98158079498E+02  0.47000000000E+01 0.  1.
<mgrwt>
<rscale>  0 0.26713493E+03</rscale>
<asrwt>0</asrwt>
<pdfrwt beam="1">  1        1 0.16380190E-01 0.26713493E+03</pdfrwt>
<pdfrwt beam="2">  1       -1 0.25778386E-01 0.26713493E+03</pdfrwt>
<totfact> 0.43535550E+03</totfact>
</mgrwt>
</event>
<event>
 9    1  0.7944303E-001  0.2663581E+03  0.7818608E-02  0.1103382E+00
         -2   -1    0    0    0  501 -0.00000000000E+00  0.00000000000E+00  0.47415080567E+01  0.47415080567E+01  0.00000000000E+00 0.  1.
          2   -1    0    0  501    0  0.00000000000E+00 -0.00000000000E+00 -0.37407214500E+04  0.37407214500E+04  0.00000000000E+00 0.  1.
         35    2    1    2    0    0  0.00000000000E+00  0.00000000000E+00 -0.37359799419E+04  0.37454629581E+04  0.26635811152E+03 0.  0.
         25    2    3    3    0    0 -0.24378330000E+02 -0.37169166143E+02 -0.16669293976E+04  0.16721610621E+04  0.12447148731E+03 0.  0.
         25    2    3    3    0    0  0.24378330000E+02  0.37169166143E+02 -0.20690505444E+04  0.20733018960E+04  0.12503898121E+03 0.  0.
          5    1    4    4  502    0  0.17316887322E+02  0.31149617381E+02 -0.96471083633E+03  0.96538037114E+03  0.47000000000E+01 0.  1.
         -5    1    4    4    0  502 -0.41695217323E+02 -0.68318783524E+02 -0.70221856123E+03  0.70678069093E+03  0.47000000000E+01 0.  1.
          5    1    5    5  503    0  0.71773414701E+02  0.91685809177E+00 -0.10068789412E+04  0.10094451723E+04  0.47000000000E+01 0.  1.
         -5    1    5    5    0  503 -0.47395084700E+02  0.36252308051E+02 -0.10621716032E+04  0.10638567236E+04  0.47000000000E+01 0.  1.
<mgrwt>
<rscale>  0 0.26635811E+03</rscale>
<asrwt>0</asrwt>
<pdfrwt beam="1">  1        2 0.57549513E+00 0.26635811E+03</pdfrwt>
<pdfrwt beam="2">  1       -2 0.72946338E-03 0.26635811E+03</pdfrwt>
<totfact> 0.23413662E+03</totfact>
</mgrwt>
</event>
<event>
 9    1  0.7944303E-001  0.2747729E+03  0.7818608E-02  0.1098579E+00
          1   -1    0    0  501    0  0.00000000000E+00  0.00000000000E+00  0.44512390314E+03  0.44512390314E+03  0.00000000000E+00 0. -1.
         -1   -1    0    0    0  501 -0.00000000000E+00 -0.00000000000E+00 -0.42404006797E+02  0.42404006797E+02  0.00000000000E+00 0. -1.
         35    2    1    2    0    0  0.35527136788E-14  0.00000000000E+00  0.40271989634E+03  0.48752790993E+03  0.27477290270E+03 0.  0.
         25    2    3    3    0    0  0.22906641596E+02 -0.25387333575E+02  0.22404748642E+03  0.25942109815E+03  0.12622519186E+03 0.  0.
         25    2    3    3    0    0 -0.22906641596E+02  0.25387333575E+02  0.17867240992E+03  0.22810681178E+03  0.13762142486E+03 0.  0.
          5    1    4    4  502    0 -0.84542330104E+01  0.48264419910E+02  0.10391759884E+03  0.11498645848E+03  0.47000000000E+01 0. -1.
         -5    1    4    4    0  502  0.31360874606E+02 -0.73651753484E+02  0.12012988758E+03  0.14443463967E+03  0.47000000000E+01 0. -1.
          5    1    5    5  503    0 -0.34461609093E+02  0.79127758157E+02  0.11494459622E+03  0.14381639271E+03  0.47000000000E+01 0.  1.
         -5    1    5    5    0  503  0.11554967497E+02 -0.53740424582E+02  0.63727813698E+02  0.84290419069E+02  0.47000000000E+01 0.  1.
<mgrwt>
<rscale>  0 0.27477290E+03</rscale>
<asrwt>0</asrwt>
<pdfrwt beam="1">  1        1 0.68480597E-01 0.27477290E+03</pdfrwt>
<pdfrwt beam="2">  1       -1 0.65236937E-02 0.27477290E+03</pdfrwt>
<totfact> 0.61666774E+03</totfact>
</mgrwt>
</event>
<event>
 9    1  0.7944303E-001  0.2705008E+03  0.7818608E-02  0.1100993E+00
          2   -1    0    0  501    0  0.00000000000E+00  0.00000000000E+00  0.21805282140E+03  0.21805282140E+03  0.00000000000E+00 0.  1.
         -2   -1    0    0    0  501 -0.00000000000E+00 -0.00000000000E+00 -0.83891036935E+02  0.83891036935E+02  0.00000000000E+00 0.  1.
         35    2    1    2    0    0  0.00000000000E+00  0.71054273576E-14  0.13416178447E+03  0.30194385833E+03  0.27050084875E+03 0.  0.
         25    2    3    3    0    0 -0.12537368130E+02  0.33702630526E+02  0.72218771721E+02  0.15883512735E+03  0.13682102831E+03 0.  0.
         25    2    3    3    0    0  0.12537368130E+02 -0.33702630526E+02  0.61943012745E+02  0.14310873098E+03  0.12389559779E+03 0.  0.
          5    1    4    4  502    0  0.48802276462E+02 -0.26008127570E+02  0.23926681249E+02  0.60437248144E+02  0.47000000000E+01 0. -1.
         -5    1    4    4    0  502 -0.61339644592E+02  0.59710758096E+02  0.48292090472E+02  0.98397879211E+02  0.47000000000E+01 0. -1.
          5    1    5    5  503    0 -0.39316932339E+02 -0.56624202175E+02  0.18501164051E+02  0.71529745643E+02  0.47000000000E+01 0. -1.
         -5    1    5    5    0  503  0.51854300469E+02  0.22921571649E+02  0.43441848694E+02  0.71578985337E+02  0.47000000000E+01 0. -1.
<mgrwt>
<rscale>  0 0.27050085E+03</rscale>
<asrwt>0</asrwt>
<pdfrwt beam="1">  1        2 0.33546588E-01 0.27050085E+03</pdfrwt>
<pdfrwt beam="2">  1       -2 0.12906313E-01 0.27050085E+03</pdfrwt>
<totfact> 0.67433313E+03</totfact>
</mgrwt>
</event>
<event>
 9    1  0.7944303E-001  0.2772883E+03  0.7818608E-02  0.1097179E+00
         -1   -1    0    0    0  501 -0.00000000000E+00  0.00000000000E+00  0.25420040904E+02  0.25420040904E+02  0.00000000000E+00 0.  1.
          1   -1    0    0  501    0  0.00000000000E+00 -0.00000000000E+00 -0.75618309419E+03  0.75618309419E+03  0.00000000000E+00 0.  1.
         35    2    1    2    0    0  0.00000000000E+00  0.00000000000E+00 -0.73076305329E+03  0.78160313510E+03  0.27728833503E+03 0.  0.
         25    2    3    3    0    0  0.16098323532E+02 -0.29303323290E+02 -0.22390677686E+03  0.25866086105E+03  0.12511337075E+03 0.  0.
         25    2    3    3    0    0 -0.16098323532E+02  0.29303323290E+02 -0.50685627644E+03  0.52294227405E+03  0.12428795698E+03 0.  0.
          5    1    4    4  502    0  0.51387782511E+02 -0.61655071752E+02 -0.15518284877E+03  0.17477373549E+03  0.47000000000E+01 0. -1.
         -5    1    4    4    0  502 -0.35289458979E+02  0.32351748461E+02 -0.68723928088E+02  0.83887125564E+02  0.47000000000E+01 0. -1.
          5    1    5    5  503    0 -0.22506778289E+02 -0.37172933552E+02 -0.82751980705E+02  0.93586122734E+02  0.47000000000E+01 0.  1.
         -5    1    5    5    0  503  0.64084547570E+01  0.66476256842E+02 -0.42410429573E+03  0.42935615132E+03  0.47000000000E+01 0.  1.
<mgrwt>
<rscale>  0 0.27728834E+03</rscale>
<asrwt>0</asrwt>
<pdfrwt beam="1">  1        1 0.11633587E+00 0.27728834E+03</pdfrwt>
<pdfrwt beam="2">  1       -1 0.39107753E-02 0.27728834E+03</pdfrwt>
<totfact> 0.63769228E+03</totfact>
</mgrwt>
</event>
<event>
 9    1  0.7944303E-001  0.2768917E+03  0.7818608E-02  0.1097399E+00
          1   -1    0    0  501    0  0.00000000000E+00  0.00000000000E+00  0.20762699533E+04  0.20762699533E+04  0.00000000000E+00 0.  1.
         -1   -1    0    0    0  501 -0.00000000000E+00 -0.00000000000E+00 -0.92315824178E+01  0.92315824178E+01  0.00000000000E+00 0.  1.
         35    2    1    2    0    0 -0.71054273576E-14  0.00000000000E+00  0.20670383709E+04  0.20855015358E+04  0.27689172755E+03 0.  0.
         25    2    3    3    0    0  0.54197387546E+02  0.36876224784E+02  0.98701380464E+03  0.99612187103E+03  0.11732569465E+03 0.  0.
         25    2    3    3    0    0 -0.54197387546E+02 -0.36876224784E+02  0.10800245663E+04  0.10893796647E+04  0.12648232041E+03 0.  0.
          5    1    4    4  502    0 -0.14321605088E+02 -0.22356400585E+02  0.50056768580E+03  0.50129334235E+03  0.47000000000E+01 0.  1.
         -5    1    4    4    0  502  0.68518992633E+02  0.59232625369E+02  0.48644611883E+03  0.49482852867E+03  0.47000000000E+01 0.  1.
          5    1    5    5  503    0  0.37975039507E+01  0.18108839695E+02  0.73269195803E+03  0.73294061592E+03  0.47000000000E+01 0.  1.
         -5    1    5    5    0  503 -0.57994891496E+02 -0.54985064479E+02  0.34733260826E+03  0.35643904880E+03  0.47000000000E+01 0.  1.
<mgrwt>
<rscale>  0 0.27689173E+03</rscale>
<asrwt>0</asrwt>
<pdfrwt beam="1">  1        1 0.31942577E+00 0.27689173E+03</pdfrwt>
<pdfrwt beam="2">  1       -1 0.14202451E-02 0.27689173E+03</pdfrwt>
<totfact> 0.34014614E+03</totfact>
</mgrwt>
</event>
<event>
 9    1  0.7944303E-001  0.2727056E+03  0.7818608E-02  0.1099741E+00
         -1   -1    0    0    0  501 -0.00000000000E+00  0.00000000000E+00  0.28040819775E+03  0.28040819775E+03  0.00000000000E+00 0. -1.
          1   -1    0    0  501    0  0.00000000000E+00 -0.00000000000E+00 -0.66303635856E+02  0.66303635856E+02  0.00000000000E+00 0. -1.
         35    2    1    2    0    0 -0.35527136788E-14  0.71054273576E-14  0.21410456190E+03  0.34671183361E+03  0.27270557775E+03 0.  0.
         25    2    3    3    0    0  0.26849833074E+02  0.43338606869E+02  0.12952795374E+03  0.18737050723E+03  0.12542355359E+03 0.  0.
         25    2    3    3    0    0 -0.26849833074E+02 -0.43338606869E+02  0.84576608155E+02  0.15934132638E+03  0.12504921937E+03 0.  0.
          5    1    4    4  502    0 -0.20126842055E+02  0.25299270492E+02  0.13276646749E+03  0.13672661683E+03  0.47000000000E+01 0. -1.
         -5    1    4    4    0  502  0.46976675129E+02  0.18039336378E+02 -0.32385137540E+01  0.50643890396E+02  0.47000000000E+01 0. -1.
          5    1    5    5  503    0 -0.32544595665E+02 -0.85826031352E+02  0.58407925660E+02  0.10889827430E+03  0.47000000000E+01 0. -1.
         -5    1    5    5    0  503  0.56947625912E+01  0.42487424483E+02  0.26168682495E+02  0.50443052086E+02  0.47000000000E+01 0. -1.
<mgrwt>
<rscale>  0 0.27270558E+03</rscale>
<asrwt>0</asrwt>
<pdfrwt beam="1">  1        1 0.10200560E-01 0.27270558E+03</pdfrwt>
<pdfrwt beam="2">  1       -1 0.43139722E-01 0.27270558E+03</pdfrwt>
<totfact> 0.33494223E+03</totfact>
</mgrwt>
</event>
<event>
 9    1  0.7944303E-001  0.2722939E+03  0.7818608E-02  0.1099974E+00
          1   -1    0    0  501    0  0.00000000000E+00  0.00000000000E+00  0.12950377638E+04  0.12950377638E+04  0.00000000000E+00 0. -1.
         -1   -1    0    0    0  501 -0.00000000000E+00 -0.00000000000E+00 -0.14313092768E+02  0.14313092768E+02  0.00000000000E+00 0. -1.
         35    2    1    2    0    0 -0.35527136788E-14  0.00000000000E+00  0.12807246710E+04  0.13093508565E+04  0.27229392686E+03 0.  0.
         25    2    3    3    0    0  0.64262591641E+01  0.11032621700E+01  0.90205695822E+03  0.91064196492E+03  0.12457735909E+03 0.  0.
         25    2    3    3    0    0 -0.64262591641E+01 -0.11032621700E+01  0.37866771279E+03  0.39870889163E+03  0.12464762156E+03 0.  0.
          5    1    4    4  502    0 -0.18411375661E+02 -0.30355168079E+02  0.80135156191E+03  0.80215137646E+03  0.47000000000E+01 0. -1.
         -5    1    4    4    0  502  0.24837634825E+02  0.31458430249E+02  0.10070539632E+03  0.10849058846E+03  0.47000000000E+01 0. -1.
          5    1    5    5  503    0  0.30742372271E+02  0.17618052234E+02  0.27619004288E+02  0.45170661001E+02  0.47000000000E+01 0.  1.
         -5    1    5    5    0  503 -0.37168631435E+02 -0.18721314404E+02  0.35104870850E+03  0.35353823063E+03  0.47000000000E+01 0.  1.
<mgrwt>
<rscale>  0 0.27229393E+03</rscale>
<asrwt>0</asrwt>
<pdfrwt beam="1">  1        1 0.19923649E+00 0.27229393E+03</pdfrwt>
<pdfrwt beam="2">  1       -1 0.22020153E-02 0.27229393E+03</pdfrwt>
<totfact> 0.58542679E+03</totfact>
</mgrwt>
</event>
<event>
 9    1  0.7944303E-001  0.2744612E+03  0.7818608E-02  0.1098753E+00
          2   -1    0    0  501    0  0.00000000000E+00  0.00000000000E+00  0.31838550330E+03  0.31838550330E+03  0.00000000000E+00 0.  1.
         -2   -1    0    0    0  501 -0.00000000000E+00 -0.00000000000E+00 -0.59149182294E+02  0.59149182294E+02  0.00000000000E+00 0.  1.
         35    2    1    2    0    0  0.00000000000E+00 -0.71054273576E-14  0.25923632101E+03  0.37753468560E+03  0.27446123351E+03 0.  0.
         25    2    3    3    0    0 -0.97357304564E+01 -0.28746785037E+01  0.20712699925E+03  0.24200469432E+03  0.12474626260E+03 0.  0.
         25    2    3    3    0    0  0.97357304564E+01  0.28746785037E+01  0.52109321764E+02  0.13552999128E+03  0.12469943423E+03 0.  0.
          5    1    4    4  502    0 -0.47966276447E+02  0.43464896096E+02  0.10712085407E+03  0.12524746802E+03  0.47000000000E+01 0. -1.
         -5    1    4    4    0  502  0.38230545990E+02 -0.46339574599E+02  0.10000614518E+03  0.11675722631E+03  0.47000000000E+01 0. -1.
          5    1    5    5  503    0 -0.28077759492E+02 -0.50601327687E+02  0.34540141759E+02  0.67557133853E+02  0.47000000000E+01 0.  1.
         -5    1    5    5    0  503  0.37813489948E+02  0.53476006190E+02  0.17569180005E+02  0.67972857422E+02  0.47000000000E+01 0.  1.
<mgrwt>
<rscale>  0 0.27446123E+03</rscale>
<asrwt>0</asrwt>
<pdfrwt beam="1">  1        2 0.48982384E-01 0.27446123E+03</pdfrwt>
<pdfrwt beam="2">  1       -2 0.90998744E-02 0.27446123E+03</pdfrwt>
<totfact> 0.78452084E+03</totfact>
</mgrwt>
</event>
<event>
 9    1  0.7944303E-001  0.2678726E+03  0.7818608E-02  0.1102503E+00
         -1   -1    0    0    0  501 -0.00000000000E+00  0.00000000000E+00  0.20200628603E+02  0.20200628603E+02  0.00000000000E+00 0.  1.
          1   -1    0    0  501    0  0.00000000000E+00 -0.00000000000E+00 -0.88803830439E+03  0.88803830439E+03  0.00000000000E+00 0.  1.
         35    2    1    2    0    0 -0.10658141036E-13 -0.35527136788E-14 -0.86783767579E+03  0.90823893300E+03  0.26787259638E+03 0.  0.
         25    2    3    3    0    0 -0.27893538469E+02 -0.17535579085E+02 -0.31594570853E+03  0.34146398631E+03  0.12526139543E+03 0.  0.
         25    2    3    3    0    0  0.27893538469E+02  0.17535579085E+02 -0.55189196726E+03  0.56677494669E+03  0.12475396043E+03 0.  0.
          5    1    4    4  502    0 -0.10759908958E+02 -0.52387519077E+02 -0.52364679219E+02  0.74995849388E+02  0.47000000000E+01 0. -1.
         -5    1    4    4    0  502 -0.17133629511E+02  0.34851939992E+02 -0.26358102931E+03  0.26646813692E+03  0.47000000000E+01 0. -1.
          5    1    5    5  503    0  0.75149052767E+02  0.18904995544E+02 -0.40557955840E+03  0.41294266816E+03  0.47000000000E+01 0.  1.
         -5    1    5    5    0  503 -0.47255514298E+02 -0.13694164589E+01 -0.14631240886E+03  0.15383227853E+03  0.47000000000E+01 0.  1.
<mgrwt>
<rscale>  0 0.26787260E+03</rscale>
<asrwt>0</asrwt>
<pdfrwt beam="1">  1        1 0.13662131E+00 0.26787260E+03</pdfrwt>
<pdfrwt beam="2">  1       -1 0.31077883E-02 0.26787260E+03</pdfrwt>
<totfact> 0.69720224E+03</totfact>
</mgrwt>
</event>
<event>
 9    1  0.7944303E-001  0.2740674E+03  0.7818608E-02  0.1098974E+00
         -1   -1    0    0    0  501 -0.00000000000E+00  0.00000000000E+00  0.36675784996E+02  0.36675784996E+02  0.00000000000E+00 0.  1.
          1   -1    0    0  501    0  0.00000000000E+00 -0.00000000000E+00 -0.51200624776E+03  0.51200624776E+03  0.00000000000E+00 0.  1.
         35    2    1    2    0    0  0.35527136788E-14  0.00000000000E+00 -0.47533046277E+03  0.54868203276E+03  0.27406737171E+03 0.  0.
         25    2    3    3    0    0  0.26925600019E+02 -0.47147292010E+02 -0.26617137411E+03  0.29932752407E+03  0.12570565297E+03 0.  0.
         25    2    3    3    0    0 -0.26925600019E+02  0.47147292010E+02 -0.20915908866E+03  0.24935450869E+03  0.12442785684E+03 0.  0.
          5    1    4    4  502    0 -0.45324572823E+01 -0.42831561126E+00  0.12967183453E+02  0.14524616001E+02  0.47000000000E+01 0. -1.
         -5    1    4    4    0  502  0.31458057301E+02 -0.46718976399E+02 -0.27913855756E+03  0.28480290807E+03  0.47000000000E+01 0. -1.
          5    1    5    5  503    0 -0.65940487905E+02  0.64779790102E+02 -0.13758545282E+03  0.16582043293E+03  0.47000000000E+01 0.  1.
         -5    1    5    5    0  503  0.39014887886E+02 -0.17632498092E+02 -0.71573635841E+02  0.83534075761E+02  0.47000000000E+01 0.  1.
<mgrwt>
<rscale>  0 0.27406737E+03</rscale>
<asrwt>0</asrwt>
<pdfrwt beam="1">  1        1 0.78770187E-01 0.27406737E+03</pdfrwt>
<pdfrwt beam="2">  1       -1 0.56424288E-02 0.27406737E+03</pdfrwt>
<totfact> 0.63832470E+03</totfact>
</mgrwt>
</event>
<event>
 9    1  0.7944303E-001  0.2710058E+03  0.7818608E-02  0.1100705E+00
         -3   -1    0    0    0  501 -0.00000000000E+00  0.00000000000E+00  0.11073387998E+04  0.11073387998E+04  0.00000000000E+00 0.  1.
          3   -1    0    0  501    0  0.00000000000E+00 -0.00000000000E+00 -0.16581230927E+02  0.16581230927E+02  0.00000000000E+00 0.  1.
         35    2    1    2    0    0 -0.71054273576E-14 -0.14210854715E-13  0.10907575689E+04  0.11239200307E+04  0.27100583281E+03 0.  0.
         25    2    3    3    0    0 -0.17092598833E+02 -0.37324464937E+02  0.63755156594E+03  0.65110407720E+03  0.12561547472E+03 0.  0.
         25    2    3    3    0    0  0.17092598833E+02  0.37324464937E+02  0.45320600294E+03  0.47281595354E+03  0.12835097274E+03 0.  0.
          5    1    4    4  502    0  0.55306895818E+01 -0.17576274131E+02  0.76938815083E+01  0.20513404209E+02  0.47000000000E+01 0.  1.
         -5    1    4    4    0  502 -0.22623288415E+02 -0.19748190807E+02  0.62985768443E+03  0.63059067299E+03  0.47000000000E+01 0.  1.
          5    1    5    5  503    0  0.49581345745E+02  0.68056309915E+02  0.35380294604E+03  0.36371497878E+03  0.47000000000E+01 0. -1.
         -5    1    5    5    0  503 -0.32488746912E+02 -0.30731844978E+02  0.99403056902E+02  0.10910097476E+03  0.47000000000E+01 0. -1.
<mgrwt>
<rscale>  0 0.27100583E+03</rscale>
<asrwt>0</asrwt>
<pdfrwt beam="1">  1        3 0.25509595E-02 0.27100583E+03</pdfrwt>
<pdfrwt beam="2">  1       -3 0.17035976E+00 0.27100583E+03</pdfrwt>
<totfact> 0.40859284E+02</totfact>
</mgrwt>
</event>
<event>
 9    1  0.7944303E-001  0.2758401E+03  0.7818608E-02  0.1097983E+00
          1   -1    0    0  501    0  0.00000000000E+00  0.00000000000E+00  0.39829987245E+03  0.39829987245E+03  0.00000000000E+00 0.  1.
         -1   -1    0    0    0  501 -0.00000000000E+00 -0.00000000000E+00 -0.47757822113E+02  0.47757822113E+02  0.00000000000E+00 0.  1.
         35    2    1    2    0    0 -0.35527136788E-14  0.00000000000E+00  0.35054205034E+03  0.44605769456E+03  0.27584005841E+03 0.  0.
         25    2    3    3    0    0  0.10452360276E+02  0.48828647299E+02  0.12557683544E+03  0.18407386096E+03  0.12498062272E+03 0.  0.
         25    2    3    3    0    0 -0.10452360276E+02 -0.48828647299E+02  0.22496521489E+03  0.26198383361E+03  0.12463022317E+03 0.  0.
          5    1    4    4  502    0 -0.37909733259E+01  0.50265018212E+02  0.14835942684E+03  0.15675953900E+03  0.47000000000E+01 0. -1.
         -5    1    4    4    0  502  0.14243333602E+02 -0.14363709128E+01 -0.22782591394E+02  0.27314321960E+02  0.47000000000E+01 0. -1.
          5    1    5    5  503    0 -0.58151219893E+02 -0.60068209574E+02  0.12357443287E+03  0.14927318793E+03  0.47000000000E+01 0. -1.
         -5    1    5    5    0  503  0.47698859617E+02  0.11239562275E+02  0.10139078202E+03  0.11271064568E+03  0.47000000000E+01 0. -1.
<mgrwt>
<rscale>  0 0.27584006E+03</rscale>
<asrwt>0</asrwt>
<pdfrwt beam="1">  1        1 0.61276901E-01 0.27584006E+03</pdfrwt>
<pdfrwt beam="2">  1       -1 0.73473575E-02 0.27584006E+03</pdfrwt>
<totfact> 0.59439927E+03</totfact>
</mgrwt>
</event>
<event>
 9    1  0.7944303E-001  0.2744448E+03  0.7818608E-02  0.1098762E+00
         -1   -1    0    0    0  501 -0.00000000000E+00  0.00000000000E+00  0.61216209641E+01  0.61216209641E+01  0.00000000000E+00 0.  1.
          1   -1    0    0  501    0  0.00000000000E+00 -0.00000000000E+00 -0.30759807363E+04  0.30759807363E+04  0.00000000000E+00 0.  1.
         35    2    1    2    0    0  0.71054273576E-14  0.35527136788E-14 -0.30698591153E+04  0.30821023573E+04  0.27444480801E+03 0.  0.
         25    2    3    3    0    0 -0.52248663461E+02  0.13194026913E+02 -0.12973017395E+04  0.13044124536E+04  0.12488410903E+03 0.  0.
         25    2    3    3    0    0  0.52248663461E+02 -0.13194026913E+02 -0.17725573759E+04  0.17776899037E+04  0.12376484834E+03 0.  0.
          5    1    4    4  502    0  0.30760380271E+02 -0.24875235572E+02 -0.25329961955E+03  0.25641327111E+03  0.47000000000E+01 0. -1.
         -5    1    4    4    0  502 -0.83009043732E+02  0.38069262484E+02 -0.10440021199E+04  0.10479991825E+04  0.47000000000E+01 0. -1.
          5    1    5    5  503    0 -0.21556068070E+02 -0.29867393226E+02 -0.11401959512E+04  0.11408004305E+04  0.47000000000E+01 0. -1.
         -5    1    5    5    0  503  0.73804731531E+02  0.16673366313E+02 -0.63236142468E+03  0.63688947312E+03  0.47000000000E+01 0. -1.
<mgrwt>
<rscale>  0 0.27444481E+03</rscale>
<asrwt>0</asrwt>
<pdfrwt beam="1">  1        1 0.47322853E+00 0.27444481E+03</pdfrwt>
<pdfrwt beam="2">  1       -1 0.94178641E-03 0.27444481E+03</pdfrwt>
<totfact> 0.13129677E+03</totfact>
</mgrwt>
</event>
<event>
 9    1  0.7944303E-001  0.2772610E+03  0.7818608E-02  0.1097194E+00
          1   -1    0    0  501    0  0.00000000000E+00  0.00000000000E+00  0.25687077078E+04  0.25687077078E+04  0.00000000000E+00 0. -1.
         -1   -1    0    0    0  501 -0.00000000000E+00 -0.00000000000E+00 -0.74817438735E+01  0.74817438735E+01  0.00000000000E+00 0. -1.
         35    2    1    2    0    0  0.00000000000E+00  0.00000000000E+00  0.25612259640E+04  0.25761894517E+04  0.27726098287E+03 0.  0.
         25    2    3    3    0    0  0.54210773707E+02  0.25909659537E+02  0.12682528031E+04  0.12757819774E+04  0.12467703396E+03 0.  0.
         25    2    3    3    0    0 -0.54210773707E+02 -0.25909659537E+02  0.12929731609E+04  0.13004074743E+04  0.12517941578E+03 0.  0.
          5    1    4    4  502    0  0.90126542579E+02 -0.55167682907E+01  0.81653167917E+03  0.82152255082E+03  0.47000000000E+01 0.  1.
         -5    1    4    4    0  502 -0.35915768872E+02  0.31426427828E+02  0.45172112392E+03  0.45425942655E+03  0.47000000000E+01 0.  1.
          5    1    5    5  503    0 -0.34319362032E+02 -0.23868520226E+01  0.12265116089E+04  0.12270029879E+04  0.47000000000E+01 0.  1.
         -5    1    5    5    0  503 -0.19891411675E+02 -0.23522807514E+02  0.66461552013E+02  0.73404486428E+02  0.47000000000E+01 0.  1.
<mgrwt>
<rscale>  0 0.27726098E+03</rscale>
<asrwt>0</asrwt>
<pdfrwt beam="1">  1        1 0.39518510E+00 0.27726098E+03</pdfrwt>
<pdfrwt beam="2">  1       -1 0.11510396E-02 0.27726098E+03</pdfrwt>
<totfact> 0.21885388E+03</totfact>
</mgrwt>
</event>
<event>
 9    1  0.7944303E-001  0.2747448E+03  0.7818608E-02  0.1098594E+00
          1   -1    0    0  501    0  0.00000000000E+00  0.00000000000E+00  0.87380663104E+02  0.87380663104E+02  0.00000000000E+00 0. -1.
         -1   -1    0    0    0  501 -0.00000000000E+00 -0.00000000000E+00 -0.21596520694E+03  0.21596520694E+03  0.00000000000E+00 0. -1.
         35    2    1    2    0    0 -0.71054273576E-14  0.71054273576E-14 -0.12858454384E+03  0.30334587005E+03  0.27474484883E+03 0.  0.
         25    2    3    3    0    0  0.37492613865E+02 -0.44819285093E+02 -0.84534661728E+02  0.15924561134E+03  0.12164946069E+03 0.  0.
         25    2    3    3    0    0 -0.37492613865E+02  0.44819285093E+02 -0.44049882112E+02  0.14410025871E+03  0.12413713399E+03 0.  0.
          5    1    4    4  502    0  0.56810450182E+02  0.89426259757E+01 -0.72156617907E+00  0.57706225547E+02  0.47000000000E+01 0. -1.
         -5    1    4    4    0  502 -0.19317836317E+02 -0.53761911069E+02 -0.83813095549E+02  0.10153938579E+03  0.47000000000E+01 0. -1.
          5    1    5    5  503    0 -0.66658390336E+02  0.70010254539E+02 -0.21289923373E+02  0.99096556853E+02  0.47000000000E+01 0. -1.
         -5    1    5    5    0  503  0.29165776471E+02 -0.25190969446E+02 -0.22759958738E+02  0.45003701854E+02  0.47000000000E+01 0. -1.
<mgrwt>
<rscale>  0 0.27474485E+03</rscale>
<asrwt>0</asrwt>
<pdfrwt beam="1">  1        1 0.13443179E-01 0.27474485E+03</pdfrwt>
<pdfrwt beam="2">  1       -1 0.33225416E-01 0.27474485E+03</pdfrwt>
<totfact> 0.36726125E+03</totfact>
</mgrwt>
</event>
<event>
 9    1  0.7944303E-001  0.2770725E+03  0.7818608E-02  0.1097299E+00
          1   -1    0    0  501    0  0.00000000000E+00  0.00000000000E+00  0.28652107040E+04  0.28652107040E+04  0.00000000000E+00 0. -1.
         -1   -1    0    0    0  501 -0.00000000000E+00 -0.00000000000E+00 -0.66983867684E+01  0.66983867684E+01  0.00000000000E+00 0. -1.
         35    2    1    2    0    0  0.00000000000E+00  0.71054273576E-14  0.28585123173E+04  0.28719090908E+04  0.27707247766E+03 0.  0.
         25    2    3    3    0    0 -0.44573064519E+02  0.33830270784E+02  0.17056002280E+04  0.17111488812E+04  0.12580584412E+03 0.  0.
         25    2    3    3    0    0  0.44573064519E+02 -0.33830270784E+02  0.11529120892E+04  0.11607602096E+04  0.12258357732E+03 0.  0.
          5    1    4    4  502    0 -0.29671748021E+02 -0.96575906729E+01  0.15035793499E+04  0.15039104472E+04  0.47000000000E+01 0.  1.
         -5    1    4    4    0  502 -0.14901316498E+02  0.43487861457E+02  0.20202087810E+03  0.20723843397E+03  0.47000000000E+01 0.  1.
          5    1    5    5  503    0  0.75165362219E+02 -0.11435785070E+01  0.94671636204E+03  0.94970790226E+03  0.47000000000E+01 0.  1.
         -5    1    5    5    0  503 -0.30592297701E+02 -0.32686692277E+02  0.20619572717E+03  0.21105230734E+03  0.47000000000E+01 0.  1.
<mgrwt>
<rscale>  0 0.27707248E+03</rscale>
<asrwt>0</asrwt>
<pdfrwt beam="1">  1        1 0.44080067E+00 0.27707248E+03</pdfrwt>
<pdfrwt beam="2">  1       -1 0.10305233E-02 0.27707248E+03</pdfrwt>
<totfact> 0.16166070E+03</totfact>
</mgrwt>
</event>
<event>
 9    1  0.7944303E-001  0.2737341E+03  0.7818608E-02  0.1099161E+00
         -1   -1    0    0    0  501 -0.00000000000E+00  0.00000000000E+00  0.13602655983E+02  0.13602655983E+02  0.00000000000E+00 0. -1.
          1   -1    0    0  501    0  0.00000000000E+00 -0.00000000000E+00 -0.13771275273E+04  0.13771275273E+04  0.00000000000E+00 0. -1.
         35    2    1    2    0    0  0.35527136788E-14  0.71054273576E-14 -0.13635248713E+04  0.13907301833E+04  0.27373411917E+03 0.  0.
         25    2    3    3    0    0  0.47393550288E+00 -0.47089151884E+02 -0.51517694822E+03  0.53194952475E+03  0.12387653557E+03 0.  0.
         25    2    3    3    0    0 -0.47393550288E+00  0.47089151884E+02 -0.84834792313E+03  0.85878065856E+03  0.12486956398E+03 0.  0.
          5    1    4    4  502    0 -0.34909538748E+01 -0.18895982925E+01  0.61099620715E+01  0.86705811327E+01  0.47000000000E+01 0. -1.
         -5    1    4    4    0  502  0.39648893777E+01 -0.45199553592E+02 -0.52128691029E+03  0.52327894362E+03  0.47000000000E+01 0. -1.
          5    1    5    5  503    0  0.46815515416E+02 -0.17005614834E+02 -0.42917246575E+03  0.43207867197E+03  0.47000000000E+01 0. -1.
         -5    1    5    5    0  503 -0.47289450919E+02  0.64094766718E+02 -0.41917545738E+03  0.42670198659E+03  0.47000000000E+01 0. -1.
<mgrwt>
<rscale>  0 0.27373412E+03</rscale>
<asrwt>0</asrwt>
<pdfrwt beam="1">  1        1 0.21186586E+00 0.27373412E+03</pdfrwt>
<pdfrwt beam="2">  1       -1 0.20927154E-02 0.27373412E+03</pdfrwt>
<totfact> 0.55480446E+03</totfact>
</mgrwt>
</event>
<event>
 9    1  0.7944303E-001  0.2710857E+03  0.7818608E-02  0.1100660E+00
          2   -1    0    0  501    0  0.00000000000E+00  0.00000000000E+00  0.13137560226E+04  0.13137560226E+04  0.00000000000E+00 0. -1.
         -2   -1    0    0    0  501 -0.00000000000E+00 -0.00000000000E+00 -0.13984224188E+02  0.13984224188E+02  0.00000000000E+00 0. -1.
         35    2    1    2    0    0  0.35527136788E-14  0.00000000000E+00  0.12997717984E+04  0.13277402468E+04  0.27108565989E+03 0.  0.
         25    2    3    3    0    0 -0.36991058484E+00 -0.18206057238E+02  0.40013167373E+03  0.41918735082E+03  0.12361667125E+03 0.  0.
         25    2    3    3    0    0  0.36991058484E+00  0.18206057238E+02  0.89964012469E+03  0.90855289598E+03  0.12563603576E+03 0.  0.
          5    1    4    4  502    0 -0.18942982612E+02 -0.59270663192E+02  0.32887617178E+03  0.33474389385E+03  0.47000000000E+01 0.  1.
         -5    1    4    4    0  502  0.18573072027E+02  0.41064605955E+02  0.71255501945E+02  0.84443456965E+02  0.47000000000E+01 0.  1.
          5    1    5    5  503    0 -0.53788143100E+02  0.79658937868E+01  0.22013253875E+03  0.22679736422E+03  0.47000000000E+01 0. -1.
         -5    1    5    5    0  503  0.54158053685E+02  0.10240163451E+02  0.67950758595E+03  0.68175553176E+03  0.47000000000E+01 0. -1.
<mgrwt>
<rscale>  0 0.27108566E+03</rscale>
<asrwt>0</asrwt>
<pdfrwt beam="1">  1        2 0.20211621E+00 0.27108566E+03</pdfrwt>
<pdfrwt beam="2">  1       -2 0.21514202E-02 0.27108566E+03</pdfrwt>
<totfact> 0.11952304E+04</totfact>
</mgrwt>
</event>
<event>
 9    1  0.7944303E-001  0.2769690E+03  0.7818608E-02  0.1097356E+00
         -4   -1    0    0    0  501 -0.00000000000E+00  0.00000000000E+00  0.17370784789E+03  0.17370784789E+03  0.00000000000E+00 0.  1.
          4   -1    0    0  501    0  0.00000000000E+00 -0.00000000000E+00 -0.11040349472E+03  0.11040349472E+03  0.00000000000E+00 0.  1.
         35    2    1    2    0    0  0.00000000000E+00  0.17763568394E-14  0.63304353178E+02  0.28411134261E+03  0.27696897636E+03 0.  0.
         25    2    3    3    0    0  0.39646310637E+02 -0.12087257771E+02 -0.14181591469E+02  0.13207604054E+03  0.12459948315E+03 0.  0.
         25    2    3    3    0    0 -0.39646310637E+02  0.12087257771E+02  0.77485944647E+02  0.15203530207E+03  0.12406744017E+03 0.  0.
          5    1    4    4  502    0  0.53381727005E+02  0.16916978081E+02 -0.55879404871E+02  0.79248916801E+02  0.47000000000E+01 0. -1.
         -5    1    4    4    0  502 -0.13735416368E+02 -0.29004235851E+02  0.41697813402E+02  0.52827123739E+02  0.47000000000E+01 0. -1.
          5    1    5    5  503    0  0.27016839201E+02 -0.75978745834E+01 -0.18122684853E+02  0.33736612232E+02  0.47000000000E+01 0. -1.
         -5    1    5    5    0  503 -0.66663149838E+02  0.19685132354E+02  0.95608629500E+02  0.11829868984E+03  0.47000000000E+01 0. -1.
<mgrwt>
<rscale>  0 0.27696898E+03</rscale>
<asrwt>0</asrwt>
<pdfrwt beam="1">  1        4 0.16985153E-01 0.27696898E+03</pdfrwt>
<pdfrwt beam="2">  1       -4 0.26724284E-01 0.27696898E+03</pdfrwt>
<totfact> 0.75123013E+02</totfact>
</mgrwt>
</event>
<event>
 9    1  0.7944303E-001  0.2789347E+03  0.7818608E-02  0.1096272E+00
          2   -1    0    0  501    0  0.00000000000E+00  0.00000000000E+00  0.50920016023E+03  0.50920016023E+03  0.00000000000E+00 0. -1.
         -2   -1    0    0    0  501 -0.00000000000E+00 -0.00000000000E+00 -0.38199402279E+02  0.38199402279E+02  0.00000000000E+00 0. -1.
         35    2    1    2    0    0  0.00000000000E+00 -0.71054273576E-14  0.47100075795E+03  0.54739956251E+03  0.27893470033E+03 0.  0.
         25    2    3    3    0    0 -0.12181423099E+01 -0.60887396911E+02  0.22243536887E+03  0.26239878815E+03  0.12516737484E+03 0.  0.
         25    2    3    3    0    0  0.12181423099E+01  0.60887396911E+02  0.24856538908E+03  0.28500077436E+03  0.12542698978E+03 0.  0.
          5    1    4    4  502    0 -0.13590190591E+02 -0.25928104223E+01 -0.12960343108E+02  0.19531421855E+02  0.47000000000E+01 0.  1.
         -5    1    4    4    0  502  0.12372048281E+02 -0.58294586489E+02  0.23539571198E+03  0.24286736629E+03  0.47000000000E+01 0.  1.
          5    1    5    5  503    0  0.15197743387E+02  0.97451145451E+02  0.15935860226E+03  0.18746986763E+03  0.47000000000E+01 0. -1.
         -5    1    5    5    0  503 -0.13979601077E+02 -0.36563748540E+02  0.89206786818E+02  0.97530906732E+02  0.47000000000E+01 0. -1.
<mgrwt>
<rscale>  0 0.27893470E+03</rscale>
<asrwt>0</asrwt>
<pdfrwt beam="1">  1        2 0.78338481E-01 0.27893470E+03</pdfrwt>
<pdfrwt beam="2">  1       -2 0.58768315E-02 0.27893470E+03</pdfrwt>
<totfact> 0.92727495E+03</totfact>
</mgrwt>
</event>
<event>
 9    1  0.7944303E-001  0.2544942E+03  0.7818608E-02  0.1110497E+00
         -3   -1    0    0    0  501 -0.00000000000E+00  0.00000000000E+00  0.51344809055E+02  0.51344809055E+02  0.00000000000E+00 0.  1.
          3   -1    0    0  501    0  0.00000000000E+00 -0.00000000000E+00 -0.31535472952E+03  0.31535472952E+03  0.00000000000E+00 0.  1.
         35    2    1    2    0    0  0.00000000000E+00  0.35527136788E-14 -0.26400992046E+03  0.36669953857E+03  0.25449423075E+03 0.  0.
         25    2    3    3    0    0 -0.52043488592E+01  0.57304550063E+00 -0.16596846484E+03  0.20794157402E+03  0.12516690161E+03 0.  0.
         25    2    3    3    0    0  0.52043488592E+01 -0.57304550063E+00 -0.98041455625E+02  0.15875796455E+03  0.12475796832E+03 0.  0.
          5    1    4    4  502    0 -0.27687786220E+02  0.54494942911E+02 -0.11477409419E+03  0.13012107825E+03  0.47000000000E+01 0.  1.
         -5    1    4    4    0  502  0.22483437360E+02 -0.53921897411E+02 -0.51194370648E+02  0.77820495770E+02  0.47000000000E+01 0.  1.
          5    1    5    5  503    0  0.47899544256E+02 -0.35874900232E+01  0.35747838839E+01  0.48395304570E+02  0.47000000000E+01 0. -1.
         -5    1    5    5    0  503 -0.42695195397E+02  0.30144445225E+01 -0.10161623951E+03  0.11036265998E+03  0.47000000000E+01 0. -1.
<mgrwt>
<rscale>  0 0.25449423E+03</rscale>
<asrwt>0</asrwt>
<pdfrwt beam="1">  1        3 0.48516112E-01 0.25449423E+03</pdfrwt>
<pdfrwt beam="2">  1       -3 0.78992014E-02 0.25449423E+03</pdfrwt>
<totfact> 0.11662847E+03</totfact>
</mgrwt>
</event>
<event>
 9    1  0.7944303E-001  0.2817939E+03  0.7818608E-02  0.1094713E+00
          1   -1    0    0  501    0  0.00000000000E+00  0.00000000000E+00  0.13146370525E+03  0.13146370525E+03  0.00000000000E+00 0.  1.
         -1   -1    0    0    0  501 -0.00000000000E+00 -0.00000000000E+00 -0.15100708733E+03  0.15100708733E+03  0.00000000000E+00 0.  1.
         35    2    1    2    0    0  0.00000000000E+00 -0.71054273576E-14 -0.19543382075E+02  0.28247079258E+03  0.28179390497E+03 0.  0.
         25    2    3    3    0    0  0.48689060941E+02 -0.21445935765E+02 -0.46206117278E+02  0.14414741033E+03  0.12574942471E+03 0.  0.
         25    2    3    3    0    0 -0.48689060941E+02  0.21445935765E+02  0.26662735203E+02  0.13832338226E+03  0.12486754508E+03 0.  0.
          5    1    4    4  502    0  0.22353945276E+01 -0.67185948468E+02 -0.65704444003E+01  0.67706789910E+02  0.47000000000E+01 0. -1.
         -5    1    4    4    0  502  0.46453666413E+02  0.45740012703E+02 -0.39635672878E+02  0.76440620418E+02  0.47000000000E+01 0. -1.
          5    1    5    5  503    0 -0.39235069775E+02  0.69643681639E+02 -0.41004952913E+01  0.80178158835E+02  0.47000000000E+01 0. -1.
         -5    1    5    5    0  503 -0.94539911660E+01 -0.48197745875E+02  0.30763230494E+02  0.58145223422E+02  0.47000000000E+01 0. -1.
<mgrwt>
<rscale>  0 0.28179390E+03</rscale>
<asrwt>0</asrwt>
<pdfrwt beam="1">  1        1 0.20225185E-01 0.28179390E+03</pdfrwt>
<pdfrwt beam="2">  1       -1 0.23231860E-01 0.28179390E+03</pdfrwt>
<totfact> 0.39427356E+03</totfact>
</mgrwt>
</event>
<event>
 9    1  0.7944303E-001  0.2819683E+03  0.7818608E-02  0.1094619E+00
         -3   -1    0    0    0  501 -0.00000000000E+00  0.00000000000E+00  0.12540944848E+03  0.12540944848E+03  0.00000000000E+00 0.  1.
          3   -1    0    0  501    0  0.00000000000E+00 -0.00000000000E+00 -0.15849307850E+03  0.15849307850E+03  0.00000000000E+00 0.  1.
         35    2    1    2    0    0 -0.35527136788E-14 -0.71054273576E-14 -0.33083630022E+02  0.28390252698E+03  0.28196829298E+03 0.  0.
         25    2    3    3    0    0 -0.31625658878E+02 -0.54197274582E+02 -0.28912489894E+02  0.14309547863E+03  0.12531104126E+03 0.  0.
         25    2    3    3    0    0  0.31625658878E+02  0.54197274582E+02 -0.41711401274E+01  0.14080704834E+03  0.12598293369E+03 0.  0.
          5    1    4    4  502    0 -0.60405062050E+02  0.15576382209E+02 -0.25012267129E+02  0.67372833627E+02  0.47000000000E+01 0.  1.
         -5    1    4    4    0  502  0.28779403171E+02 -0.69773656792E+02 -0.39002227650E+01  0.75722645005E+02  0.47000000000E+01 0.  1.
          5    1    5    5  503    0 -0.17327317195E+02  0.63757158063E+02 -0.41647702277E+02  0.78242138457E+02  0.47000000000E+01 0. -1.
         -5    1    5    5    0  503  0.48952976073E+02 -0.95598834805E+01  0.37476562149E+02  0.62564909887E+02  0.47000000000E+01 0. -1.
<mgrwt>
<rscale>  0 0.28196829E+03</rscale>
<asrwt>0</asrwt>
<pdfrwt beam="1">  1        3 0.24383550E-01 0.28196829E+03</pdfrwt>
<pdfrwt beam="2">  1       -3 0.19293761E-01 0.28196829E+03</pdfrwt>
<totfact> 0.95879441E+02</totfact>
</mgrwt>
</event>
<event>
 9    1  0.7944303E-001  0.2741272E+03  0.7818608E-02  0.1098940E+00
          1   -1    0    0  501    0  0.00000000000E+00  0.00000000000E+00  0.27925343889E+03  0.27925343889E+03  0.00000000000E+00 0. -1.
         -1   -1    0    0    0  501 -0.00000000000E+00 -0.00000000000E+00 -0.67273779576E+02  0.67273779576E+02  0.00000000000E+00 0. -1.
         35    2    1    2    0    0  0.00000000000E+00  0.00000000000E+00  0.21197965931E+03  0.34652721846E+03  0.27412722808E+03 0.  0.
         25    2    3    3    0    0 -0.26821863227E+02  0.48579713349E+02  0.11509915092E+03  0.17905432558E+03  0.12543219710E+03 0.  0.
         25    2    3    3    0    0  0.26821863227E+02 -0.48579713349E+02  0.96880508389E+02  0.16747289288E+03  0.12482762534E+03 0.  0.
          5    1    4    4  502    0  0.16599367265E+02 -0.37044915889E+02  0.30268811602E+02  0.50854259827E+02  0.47000000000E+01 0. -1.
         -5    1    4    4    0  502 -0.43421230492E+02  0.85624629238E+02  0.84830339320E+02  0.12820006575E+03  0.47000000000E+01 0. -1.
          5    1    5    5  503    0  0.11291658812E+02 -0.22872591716E+01 -0.29440401087E+02  0.31961857415E+02  0.47000000000E+01 0.  1.
         -5    1    5    5    0  503  0.15530204415E+02 -0.46292454178E+02  0.12632090948E+03  0.13551103547E+03  0.47000000000E+01 0.  1.
<mgrwt>
<rscale>  0 0.27412723E+03</rscale>
<asrwt>0</asrwt>
<pdfrwt beam="1">  1        1 0.42962067E-01 0.27412723E+03</pdfrwt>
<pdfrwt beam="2">  1       -1 0.10349812E-01 0.27412723E+03</pdfrwt>
<totfact> 0.55060745E+03</totfact>
</mgrwt>
</event>
<event>
 9    1  0.7944303E-001  0.2741386E+03  0.7818608E-02  0.1098934E+00
         -2   -1    0    0    0  501 -0.00000000000E+00  0.00000000000E+00  0.60057663372E+02  0.60057663372E+02  0.00000000000E+00 0. -1.
          2   -1    0    0  501    0  0.00000000000E+00 -0.00000000000E+00 -0.31283254409E+03  0.31283254409E+03  0.00000000000E+00 0. -1.
         35    2    1    2    0    0  0.14210854715E-13  0.00000000000E+00 -0.25277488072E+03  0.37289020746E+03  0.27413858995E+03 0.  0.
         25    2    3    3    0    0 -0.37065937924E+02  0.35417591720E+02 -0.15074789834E+03  0.20001819251E+03  0.12105395046E+03 0.  0.
         25    2    3    3    0    0  0.37065937924E+02 -0.35417591720E+02 -0.10202698237E+03  0.17287201495E+03  0.12979575827E+03 0.  0.
          5    1    4    4  502    0 -0.32279797717E+02  0.13490303783E+02 -0.16778071699E+03  0.17145387902E+03  0.47000000000E+01 0. -1.
         -5    1    4    4    0  502 -0.47861402073E+01  0.21927287937E+02  0.17032818643E+02  0.28564313492E+02  0.47000000000E+01 0. -1.
          5    1    5    5  503    0  0.68576634277E+02 -0.51981453821E+02 -0.28030938589E+02  0.90623671456E+02  0.47000000000E+01 0. -1.
         -5    1    5    5    0  503 -0.31510696353E+02  0.16563862101E+02 -0.73996043784E+02  0.82248343497E+02  0.47000000000E+01 0. -1.
<mgrwt>
<rscale>  0 0.27413859E+03</rscale>
<asrwt>0</asrwt>
<pdfrwt beam="1">  1        2 0.48128084E-01 0.27413859E+03</pdfrwt>
<pdfrwt beam="2">  1       -2 0.92396405E-02 0.27413859E+03</pdfrwt>
<totfact> 0.78047172E+03</totfact>
</mgrwt>
</event>
<event>
 9    1  0.7944303E-001  0.2858204E+03  0.7818608E-02  0.1092552E+00
         -1   -1    0    0    0  501 -0.00000000000E+00  0.00000000000E+00  0.16513994886E+03  0.16513994886E+03  0.00000000000E+00 0. -1.
          1   -1    0    0  501    0  0.00000000000E+00 -0.00000000000E+00 -0.12367278971E+03  0.12367278971E+03  0.00000000000E+00 0. -1.
         35    2    1    2    0    0 -0.71054273576E-14  0.35527136788E-14  0.41467159150E+02  0.28881273857E+03  0.28582035035E+03 0.  0.
         25    2    3    3    0    0  0.36687914935E+02 -0.28307145374E+02 -0.30385625177E+02  0.13634994457E+03  0.12458219610E+03 0.  0.
         25    2    3    3    0    0 -0.36687914935E+02  0.28307145374E+02  0.71852784328E+02  0.15246279401E+03  0.12623305177E+03 0.  0.
          5    1    4    4  502    0 -0.22883220981E+02 -0.43599631032E+02 -0.51257850597E+02  0.71232203927E+02  0.47000000000E+01 0.  1.
         -5    1    4    4    0  502  0.59571135916E+02  0.15292485658E+02  0.20872225419E+02  0.65117740639E+02  0.47000000000E+01 0.  1.
          5    1    5    5  503    0  0.28167260573E+02  0.56066071928E+02  0.25329617444E+02  0.67826827358E+02  0.47000000000E+01 0. -1.
         -5    1    5    5    0  503 -0.64855175508E+02 -0.27758926554E+02  0.46523166884E+02  0.84635966648E+02  0.47000000000E+01 0. -1.
<mgrwt>
<rscale>  0 0.28582035E+03</rscale>
<asrwt>0</asrwt>
<pdfrwt beam="1">  1        1 0.19026583E-01 0.28582035E+03</pdfrwt>
<pdfrwt beam="2">  1       -1 0.25406146E-01 0.28582035E+03</pdfrwt>
<totfact> 0.36790513E+03</totfact>
</mgrwt>
</event>
<event>
 9    1  0.7944303E-001  0.2725528E+03  0.7818608E-02  0.1099827E+00
         -1   -1    0    0    0  501 -0.00000000000E+00  0.00000000000E+00  0.15325409307E+03  0.15325409307E+03  0.00000000000E+00 0.  1.
          1   -1    0    0  501    0  0.00000000000E+00 -0.00000000000E+00 -0.12117954966E+03  0.12117954966E+03  0.00000000000E+00 0.  1.
         35    2    1    2    0    0 -0.71054273576E-14  0.00000000000E+00  0.32074543407E+02  0.27443364273E+03  0.27255283511E+03 0.  0.
         25    2    3    3    0    0 -0.47075969207E+02 -0.27368387837E+02  0.34018038352E+01  0.13592920260E+03  0.12449899727E+03 0.  0.
         25    2    3    3    0    0  0.47075969207E+02  0.27368387837E+02  0.28672739571E+02  0.13850444012E+03  0.12408133788E+03 0.  0.
          5    1    4    4  502    0  0.34145488626E+02  0.28361159336E+01  0.29339723720E+02  0.45352699314E+02  0.47000000000E+01 0.  1.
         -5    1    4    4    0  502 -0.81221457833E+02 -0.30204503770E+02 -0.25937919885E+02  0.90576503291E+02  0.47000000000E+01 0.  1.
          5    1    5    5  503    0  0.22666199302E+02  0.57920528592E+02  0.61228180632E+02  0.87404372469E+02  0.47000000000E+01 0.  1.
         -5    1    5    5    0  503  0.24409769906E+02 -0.30552140756E+02 -0.32555441060E+02  0.51100067654E+02  0.47000000000E+01 0.  1.
<mgrwt>
<rscale>  0 0.27255284E+03</rscale>
<asrwt>0</asrwt>
<pdfrwt beam="1">  1        1 0.18643008E-01 0.27255284E+03</pdfrwt>
<pdfrwt beam="2">  1       -1 0.23577553E-01 0.27255284E+03</pdfrwt>
<totfact> 0.42702273E+03</totfact>
</mgrwt>
</event>
<event>
 9    1  0.7944303E-001  0.2773182E+03  0.7818608E-02  0.1097163E+00
         -1   -1    0    0    0  501 -0.00000000000E+00  0.00000000000E+00  0.60509815295E+02  0.60509815295E+02  0.00000000000E+00 0.  1.
          1   -1    0    0  501    0  0.00000000000E+00 -0.00000000000E+00 -0.31773929347E+03  0.31773929347E+03  0.00000000000E+00 0.  1.
         35    2    1    2    0    0  0.35527136788E-14  0.00000000000E+00 -0.25722947818E+03  0.37824910877E+03  0.27731819962E+03 0.  0.
         25    2    3    3    0    0  0.23389681827E+02  0.66463066808E+01 -0.20642797050E+03  0.24211200580E+03  0.12415500691E+03 0.  0.
         25    2    3    3    0    0 -0.23389681827E+02 -0.66463066808E+01 -0.50801507681E+02  0.13613710297E+03  0.12394057856E+03 0.  0.
          5    1    4    4  502    0 -0.10150634375E+02 -0.29980010230E+02 -0.18512239980E+03  0.18786758448E+03  0.47000000000E+01 0. -1.
         -5    1    4    4    0  502  0.33540316202E+02  0.36626316911E+02 -0.21305570695E+02  0.54244421317E+02  0.47000000000E+01 0. -1.
          5    1    5    5  503    0 -0.70920147439E+02 -0.16996674576E+02 -0.47488780126E+02  0.87154050378E+02  0.47000000000E+01 0.  1.
         -5    1    5    5    0  503  0.47530465612E+02  0.10350367895E+02 -0.33127275548E+01  0.48983052587E+02  0.47000000000E+01 0.  1.
<mgrwt>
<rscale>  0 0.27731820E+03</rscale>
<asrwt>0</asrwt>
<pdfrwt beam="1">  1        1 0.48882968E-01 0.27731820E+03</pdfrwt>
<pdfrwt beam="2">  1       -1 0.93092024E-02 0.27731820E+03</pdfrwt>
<totfact> 0.55149210E+03</totfact>
</mgrwt>
</event>
<event>
 9    1  0.7944303E-001  0.2768531E+03  0.7818608E-02  0.1097420E+00
          4   -1    0    0  501    0  0.00000000000E+00  0.00000000000E+00  0.10888647824E+02  0.10888647824E+02  0.00000000000E+00 0. -1.
         -4   -1    0    0    0  501 -0.00000000000E+00 -0.00000000000E+00 -0.17598059749E+04  0.17598059749E+04  0.00000000000E+00 0. -1.
         35    2    1    2    0    0 -0.17763568394E-14 -0.14210854715E-13 -0.17489173271E+04  0.17706946227E+04  0.27685308377E+03 0.  0.
         25    2    3    3    0    0 -0.69666441207E+01  0.60315943985E+02 -0.87047080443E+03  0.88131618874E+03  0.12374270058E+03 0.  0.
         25    2    3    3    0    0  0.69666441207E+01 -0.60315943985E+02 -0.87844652265E+03  0.88937843398E+03  0.12505662098E+03 0.  0.
          5    1    4    4  502    0  0.14548220317E+02 -0.26758322997E+02 -0.46485123708E+03  0.46587167887E+03  0.47000000000E+01 0. -1.
         -5    1    4    4    0  502 -0.21514864437E+02  0.87074266981E+02 -0.40561956735E+03  0.41544450987E+03  0.47000000000E+01 0. -1.
          5    1    5    5  503    0 -0.15158333035E+02  0.32373590093E+02 -0.13113686241E+03  0.13600290834E+03  0.47000000000E+01 0. -1.
         -5    1    5    5    0  503  0.22124977156E+02 -0.92689534077E+02 -0.74730966024E+03  0.75337552564E+03  0.47000000000E+01 0. -1.
<mgrwt>
<rscale>  0 0.27685308E+03</rscale>
<asrwt>0</asrwt>
<pdfrwt beam="1">  1        4 0.16751768E-02 0.27685308E+03</pdfrwt>
<pdfrwt beam="2">  1       -4 0.27073935E+00 0.27685308E+03</pdfrwt>
<totfact> 0.13486558E+02</totfact>
</mgrwt>
</event>
<event>
 9    1  0.7944303E-001  0.2749453E+03  0.7818608E-02  0.1098482E+00
         -1   -1    0    0    0  501 -0.00000000000E+00  0.00000000000E+00  0.24915790274E+02  0.24915790274E+02  0.00000000000E+00 0.  1.
          1   -1    0    0  501    0  0.00000000000E+00 -0.00000000000E+00 -0.75850419846E+03  0.75850419846E+03  0.00000000000E+00 0.  1.
         35    2    1    2    0    0  0.00000000000E+00 -0.17763568394E-14 -0.73358840819E+03  0.78341998874E+03  0.27494531479E+03 0.  0.
         25    2    3    3    0    0 -0.46657209303E+02 -0.10570192616E+02 -0.46147589940E+03  0.48036248324E+03  0.12449692937E+03 0.  0.
         25    2    3    3    0    0  0.46657209303E+02  0.10570192616E+02 -0.27211250879E+03  0.30305750550E+03  0.12453919082E+03 0.  0.
          5    1    4    4  502    0 -0.52324712436E+02  0.12662488563E+02 -0.71493690163E+02  0.89619483826E+02  0.47000000000E+01 0. -1.
         -5    1    4    4    0  502  0.56675031330E+01 -0.23232681178E+02 -0.38998220924E+03  0.39074299941E+03  0.47000000000E+01 0. -1.
          5    1    5    5  503    0  0.25959194276E+02  0.52301297144E+01  0.30129115391E+01  0.27062920394E+02  0.47000000000E+01 0. -1.
         -5    1    5    5    0  503  0.20698015027E+02  0.53400629014E+01 -0.27512542033E+03  0.27599458511E+03  0.47000000000E+01 0. -1.
<mgrwt>
<rscale>  0 0.27494531E+03</rscale>
<asrwt>0</asrwt>
<pdfrwt beam="1">  1        1 0.11669296E+00 0.27494531E+03</pdfrwt>
<pdfrwt beam="2">  1       -1 0.38331983E-02 0.27494531E+03</pdfrwt>
<totfact> 0.65379812E+03</totfact>
</mgrwt>
</event>
<event>
 9    1  0.7944303E-001  0.2752122E+03  0.7818608E-02  0.1098333E+00
         -2   -1    0    0    0  501 -0.00000000000E+00  0.00000000000E+00  0.59911943197E+03  0.59911943197E+03  0.00000000000E+00 0. -1.
          2   -1    0    0  501    0  0.00000000000E+00 -0.00000000000E+00 -0.31605445027E+02  0.31605445027E+02  0.00000000000E+00 0. -1.
         35    2    1    2    0    0 -0.71054273576E-14  0.00000000000E+00  0.56751398694E+03  0.63072487699E+03  0.27521218194E+03 0.  0.
         25    2    3    3    0    0  0.41043351061E+02  0.19758298272E+02  0.36984602680E+03  0.39285567688E+03  0.12439675359E+03 0.  0.
         25    2    3    3    0    0 -0.41043351061E+02 -0.19758298272E+02  0.19766796014E+03  0.23786920011E+03  0.12423440296E+03 0.  0.
          5    1    4    4  502    0  0.60001093083E+02  0.22623648781E+02  0.81379067177E+02  0.10371404548E+03  0.47000000000E+01 0.  1.
         -5    1    4    4    0  502 -0.18957742022E+02 -0.28653505093E+01  0.28846695962E+03  0.28914163140E+03  0.47000000000E+01 0.  1.
          5    1    5    5  503    0  0.37927968004E+02 -0.83311251949E+01  0.22016911564E+02  0.44886220589E+02  0.47000000000E+01 0.  1.
         -5    1    5    5    0  503 -0.78971319065E+02 -0.11427173077E+02  0.17565104858E+03  0.19298297952E+03  0.47000000000E+01 0.  1.
<mgrwt>
<rscale>  0 0.27521218E+03</rscale>
<asrwt>0</asrwt>
<pdfrwt beam="1">  1        2 0.48623766E-02 0.27521218E+03</pdfrwt>
<pdfrwt beam="2">  1       -2 0.92172212E-01 0.27521218E+03</pdfrwt>
<totfact> 0.16872402E+03</totfact>
</mgrwt>
</event>
<event>
 9    1  0.7944303E-001  0.2614247E+03  0.7818608E-02  0.1106290E+00
         -2   -1    0    0    0  501 -0.00000000000E+00  0.00000000000E+00  0.26352609447E+02  0.26352609447E+02  0.00000000000E+00 0. -1.
          2   -1    0    0  501    0  0.00000000000E+00 -0.00000000000E+00 -0.64834998454E+03  0.64834998454E+03  0.00000000000E+00 0. -1.
         35    2    1    2    0    0 -0.14210854715E-13 -0.71054273576E-14 -0.62199737509E+03  0.67470259399E+03  0.26142466546E+03 0.  0.
         25    2    3    3    0    0  0.20172056794E+02  0.23645489642E+02 -0.24662412996E+03  0.27799525035E+03  0.12446636767E+03 0.  0.
         25    2    3    3    0    0 -0.20172056794E+02 -0.23645489642E+02 -0.37537324513E+03  0.39670734364E+03  0.12452157355E+03 0.  0.
          5    1    4    4  502    0 -0.38314182192E+02 -0.29911557774E+02 -0.92055288757E+02  0.10420625717E+03  0.47000000000E+01 0. -1.
         -5    1    4    4    0  502  0.58486238987E+02  0.53557047416E+02 -0.15456884121E+03  0.17378899318E+03  0.47000000000E+01 0. -1.
          5    1    5    5  503    0  0.21807833812E+02 -0.61431252463E+02 -0.26104367585E+03  0.26910085674E+03  0.47000000000E+01 0.  1.
         -5    1    5    5    0  503 -0.41979890607E+02  0.37785762821E+02 -0.11432956928E+03  0.12760648690E+03  0.47000000000E+01 0.  1.
<mgrwt>
<rscale>  0 0.26142467E+03</rscale>
<asrwt>0</asrwt>
<pdfrwt beam="1">  1        2 0.99746151E-01 0.26142467E+03</pdfrwt>
<pdfrwt beam="2">  1       -2 0.40542476E-02 0.26142467E+03</pdfrwt>
<totfact> 0.12304960E+04</totfact>
</mgrwt>
</event>
<event>
 9    1  0.7944303E-001  0.2739969E+03  0.7818608E-02  0.1099014E+00
         -3   -1    0    0    0  501 -0.00000000000E+00  0.00000000000E+00  0.10882231852E+04  0.10882231852E+04  0.00000000000E+00 0. -1.
          3   -1    0    0  501    0  0.00000000000E+00 -0.00000000000E+00 -0.17246991586E+02  0.17246991586E+02  0.00000000000E+00 0. -1.
         35    2    1    2    0    0  0.35527136788E-14 -0.71054273576E-14  0.10709761936E+04  0.11054701768E+04  0.27399690596E+03 0.  0.
         25    2    3    3    0    0  0.17450446023E+02 -0.35806294832E+02  0.70536970205E+03  0.71712504926E+03  0.12302565132E+03 0.  0.
         25    2    3    3    0    0 -0.17450446023E+02  0.35806294832E+02  0.36560649156E+03  0.38834512752E+03  0.12472859571E+03 0.  0.
          5    1    4    4  502    0  0.66788872032E+02  0.18834380863E+01  0.35391340534E+03  0.36019590398E+03  0.47000000000E+01 0.  1.
         -5    1    4    4    0  502 -0.49338426009E+02 -0.37689732918E+02  0.35145629671E+03  0.35692914528E+03  0.47000000000E+01 0.  1.
          5    1    5    5  503    0 -0.22608561014E+02 -0.44601233827E+02  0.13998699786E+03  0.14872412938E+03  0.47000000000E+01 0. -1.
         -5    1    5    5    0  503  0.51581149911E+01  0.80407528658E+02  0.22561949370E+03  0.23962099815E+03  0.47000000000E+01 0. -1.
<mgrwt>
<rscale>  0 0.27399691E+03</rscale>
<asrwt>0</asrwt>
<pdfrwt beam="1">  1        3 0.26533842E-02 0.27399691E+03</pdfrwt>
<pdfrwt beam="2">  1       -3 0.16741890E+00 0.27399691E+03</pdfrwt>
<totfact> 0.40276111E+02</totfact>
</mgrwt>
</event>
<event>
 9    1  0.7944303E-001  0.2691313E+03  0.7818608E-02  0.1101778E+00
          1   -1    0    0  501    0  0.00000000000E+00  0.00000000000E+00  0.29579920446E+03  0.29579920446E+03  0.00000000000E+00 0.  1.
         -1   -1    0    0    0  501 -0.00000000000E+00 -0.00000000000E+00 -0.61216892806E+02  0.61216892806E+02  0.00000000000E+00 0.  1.
         35    2    1    2    0    0 -0.71054273576E-14  0.00000000000E+00  0.23458231165E+03  0.35701609726E+03  0.26913125565E+03 0.  0.
         25    2    3    3    0    0 -0.23680839518E+02 -0.22864619986E+02  0.72238474153E+02  0.14917004174E+03  0.12629224519E+03 0.  0.
         25    2    3    3    0    0  0.23680839518E+02  0.22864619986E+02  0.16234383750E+03  0.20784605553E+03  0.12554237618E+03 0.  0.
          5    1    4    4  502    0  0.43121440164E+02 -0.98099180889E+01 -0.65431309256E+01  0.44951036218E+02  0.47000000000E+01 0.  1.
         -5    1    4    4    0  502 -0.66802279682E+02 -0.13054701897E+02  0.78781605079E+02  0.10421900552E+03  0.47000000000E+01 0.  1.
          5    1    5    5  503    0 -0.21967983733E+02 -0.16670980161E+02  0.14080710313E+03  0.14355920096E+03  0.47000000000E+01 0. -1.
         -5    1    5    5    0  503  0.45648823251E+02  0.39535600146E+02  0.21536734372E+02  0.64286854570E+02  0.47000000000E+01 0. -1.
<mgrwt>
<rscale>  0 0.26913126E+03</rscale>
<asrwt>0</asrwt>
<pdfrwt beam="1">  1        1 0.45507569E-01 0.26913126E+03</pdfrwt>
<pdfrwt beam="2">  1       -1 0.94179837E-02 0.26913126E+03</pdfrwt>
<totfact> 0.59217019E+03</totfact>
</mgrwt>
</event>
<event>
 9    1  0.7944303E-001  0.2739319E+03  0.7818608E-02  0.1099050E+00
         -1   -1    0    0    0  501 -0.00000000000E+00  0.00000000000E+00  0.13185992550E+02  0.13185992550E+02  0.00000000000E+00 0.  1.
          1   -1    0    0  501    0  0.00000000000E+00 -0.00000000000E+00 -0.14226964487E+04  0.14226964487E+04  0.00000000000E+00 0.  1.
         35    2    1    2    0    0  0.00000000000E+00  0.71054273576E-14 -0.14095104561E+04  0.14358824412E+04  0.27393185118E+03 0.  0.
         25    2    3    3    0    0  0.18017551810E+01  0.61573787028E+02 -0.68604026379E+03  0.69958367394E+03  0.12235806365E+03 0.  0.
         25    2    3    3    0    0 -0.18017551810E+01 -0.61573787028E+02 -0.72347019234E+03  0.73629876728E+03  0.12219729100E+03 0.  0.
          5    1    4    4  502    0 -0.59385150048E+02  0.38465338841E+02 -0.38632369597E+03  0.39277762971E+03  0.47000000000E+01 0. -1.
         -5    1    4    4    0  502  0.61186905229E+02  0.23108448187E+02 -0.29971656782E+03  0.30680604423E+03  0.47000000000E+01 0. -1.
          5    1    5    5  503    0  0.20800918290E+02 -0.51024730800E+01 -0.18486411309E+02  0.28680147076E+02  0.47000000000E+01 0.  1.
         -5    1    5    5    0  503 -0.22602673471E+02 -0.56471313948E+02 -0.70498378103E+03  0.70761862020E+03  0.47000000000E+01 0.  1.
<mgrwt>
<rscale>  0 0.27393185E+03</rscale>
<asrwt>0</asrwt>
<pdfrwt beam="1">  1        1 0.21887637E+00 0.27393185E+03</pdfrwt>
<pdfrwt beam="2">  1       -1 0.20286143E-02 0.27393185E+03</pdfrwt>
<totfact> 0.54113235E+03</totfact>
</mgrwt>
</event>
<event>
 9    1  0.7944303E-001  0.2768467E+03  0.7818608E-02  0.1097424E+00
          1   -1    0    0  501    0  0.00000000000E+00  0.00000000000E+00  0.41118985457E+03  0.41118985457E+03  0.00000000000E+00 0.  1.
         -1   -1    0    0    0  501 -0.00000000000E+00 -0.00000000000E+00 -0.46598974702E+02  0.46598974702E+02  0.00000000000E+00 0.  1.
         35    2    1    2    0    0  0.14210854715E-13 -0.35527136788E-14  0.36459087986E+03  0.45778882927E+03  0.27684671304E+03 0.  0.
         25    2    3    3    0    0 -0.58189493550E+02  0.15792355589E+02  0.20903604376E+03  0.24935194687E+03  0.12183969043E+03 0.  0.
         25    2    3    3    0    0  0.58189493550E+02 -0.15792355589E+02  0.15555483611E+03  0.20843688240E+03  0.12495283611E+03 0.  0.
          5    1    4    4  502    0 -0.79631232994E+02 -0.24926511199E+02  0.96379512875E+02  0.12756788283E+03  0.47000000000E+01 0. -1.
         -5    1    4    4    0  502  0.21441739444E+02  0.40718866788E+02  0.11265653088E+03  0.12178406404E+03  0.47000000000E+01 0. -1.
          5    1    5    5  503    0 -0.13205548544E+02  0.39088354704E+02  0.82586092311E+02  0.92438296334E+02  0.47000000000E+01 0. -1.
         -5    1    5    5    0  503  0.71395042094E+02 -0.54880710293E+02  0.72968743797E+02  0.11599858607E+03  0.47000000000E+01 0. -1.
<mgrwt>
<rscale>  0 0.27684671E+03</rscale>
<asrwt>0</asrwt>
<pdfrwt beam="1">  1        1 0.63259975E-01 0.27684671E+03</pdfrwt>
<pdfrwt beam="2">  1       -1 0.71690733E-02 0.27684671E+03</pdfrwt>
<totfact> 0.59235221E+03</totfact>
</mgrwt>
</event>
<event>
 9    1  0.7944303E-001  0.2728091E+03  0.7818608E-02  0.1099683E+00
          3   -1    0    0  501    0  0.00000000000E+00  0.00000000000E+00  0.28419311732E+03  0.28419311732E+03  0.00000000000E+00 0. -1.
         -3   -1    0    0    0  501 -0.00000000000E+00 -0.00000000000E+00 -0.65470257286E+02  0.65470257286E+02  0.00000000000E+00 0. -1.
         35    2    1    2    0    0  0.17763568394E-14  0.00000000000E+00  0.21872286004E+03  0.34966337461E+03  0.27280906517E+03 0.  0.
         25    2    3    3    0    0 -0.86991473774E+01  0.47727720987E+02  0.79027514903E+02  0.15613806629E+03  0.12561901575E+03 0.  0.
         25    2    3    3    0    0  0.86991473774E+01 -0.47727720987E+02  0.13969534513E+03  0.19352530832E+03  0.12483447037E+03 0.  0.
          5    1    4    4  502    0 -0.27558618838E+02  0.40366792883E+02  0.10906656057E+03  0.11961003334E+03  0.47000000000E+01 0.  1.
         -5    1    4    4    0  502  0.18859471461E+02  0.73609281043E+01 -0.30039045671E+02  0.36528032950E+02  0.47000000000E+01 0.  1.
          5    1    5    5  503    0  0.20540942365E+02 -0.30383025701E+02 -0.13096059572E+02  0.39225697449E+02  0.47000000000E+01 0. -1.
         -5    1    5    5    0  503 -0.11841794988E+02 -0.17344695286E+02  0.15279140471E+03  0.15429961087E+03  0.47000000000E+01 0. -1.
<mgrwt>
<rscale>  0 0.27280907E+03</rscale>
<asrwt>0</asrwt>
<pdfrwt beam="1">  1        3 0.43722017E-01 0.27280907E+03</pdfrwt>
<pdfrwt beam="2">  1       -3 0.10072347E-01 0.27280907E+03</pdfrwt>
<totfact> 0.96678707E+02</totfact>
</mgrwt>
</event>
<event>
 9    1  0.7944303E-001  0.2765347E+03  0.7818608E-02  0.1097597E+00
          3   -1    0    0  501    0  0.00000000000E+00  0.00000000000E+00  0.83562022719E+02  0.83562022719E+02  0.00000000000E+00 0. -1.
         -3   -1    0    0    0  501 -0.00000000000E+00 -0.00000000000E+00 -0.22878655001E+03  0.22878655001E+03  0.00000000000E+00 0. -1.
         35    2    1    2    0    0  0.00000000000E+00 -0.71054273576E-14 -0.14522452729E+03  0.31234857273E+03  0.27653474928E+03 0.  0.
         25    2    3    3    0    0 -0.14952268719E+02 -0.50008803594E+02 -0.37358666248E+02  0.13963571233E+03  0.12400811037E+03 0.  0.
         25    2    3    3    0    0  0.14952268719E+02  0.50008803594E+02 -0.10786586105E+03  0.17271286041E+03  0.12437940904E+03 0.  0.
          5    1    4    4  502    0 -0.52654174755E+02  0.13226516633E+02  0.47374647142E+01  0.54698596265E+02  0.47000000000E+01 0. -1.
         -5    1    4    4    0  502  0.37701906036E+02 -0.63235320226E+02 -0.42096130962E+02  0.84937116062E+02  0.47000000000E+01 0. -1.
          5    1    5    5  503    0  0.48364517863E+02 -0.22265547921E+02 -0.30238556570E+02  0.61411249098E+02  0.47000000000E+01 0. -1.
         -5    1    5    5    0  503 -0.33412249144E+02  0.72274351515E+02 -0.77627304476E+02  0.11130161131E+03  0.47000000000E+01 0. -1.
<mgrwt>
<rscale>  0 0.27653475E+03</rscale>
<asrwt>0</asrwt>
<pdfrwt beam="1">  1        3 0.12855696E-01 0.27653475E+03</pdfrwt>
<pdfrwt beam="2">  1       -3 0.35197931E-01 0.27653475E+03</pdfrwt>
<totfact> 0.97703159E+02</totfact>
</mgrwt>
</event>
<event>
 9    1  0.7944303E-001  0.2722377E+03  0.7818608E-02  0.1100006E+00
          1   -1    0    0  501    0  0.00000000000E+00  0.00000000000E+00  0.16796992976E+03  0.16796992976E+03  0.00000000000E+00 0.  1.
         -1   -1    0    0    0  501 -0.00000000000E+00 -0.00000000000E+00 -0.11030752206E+03  0.11030752206E+03  0.00000000000E+00 0.  1.
         35    2    1    2    0    0  0.14210854715E-13  0.00000000000E+00  0.57662407699E+02  0.27827745182E+03  0.27223773972E+03 0.  0.
         25    2    3    3    0    0 -0.40594788849E+02  0.55244040918E+01  0.65541657341E+02  0.14623191288E+03  0.12413544045E+03 0.  0.
         25    2    3    3    0    0  0.40594788849E+02 -0.55244040918E+01 -0.78792496422E+01  0.13204553894E+03  0.12528162617E+03 0.  0.
          5    1    4    4  502    0  0.20504018641E+02 -0.24252176797E+02  0.70961566984E+02  0.77885922019E+02  0.47000000000E+01 0. -1.
         -5    1    4    4    0  502 -0.61098807490E+02  0.29776580889E+02 -0.54199096432E+01  0.68345990860E+02  0.47000000000E+01 0. -1.
          5    1    5    5  503    0 -0.20020462490E+02 -0.41527995831E+02  0.26590607391E+02  0.53427930500E+02  0.47000000000E+01 0. -1.
         -5    1    5    5    0  503  0.60615251339E+02  0.36003591740E+02 -0.34469857033E+02  0.78617608440E+02  0.47000000000E+01 0. -1.
<mgrwt>
<rscale>  0 0.27223774E+03</rscale>
<asrwt>0</asrwt>
<pdfrwt beam="1">  1        1 0.25841528E-01 0.27223774E+03</pdfrwt>
<pdfrwt beam="2">  1       -1 0.16970388E-01 0.27223774E+03</pdfrwt>
<totfact> 0.47961701E+03</totfact>
</mgrwt>
</event>
<event>
 9    1  0.7944303E-001  0.2760619E+03  0.7818608E-02  0.1097859E+00
         -1   -1    0    0    0  501 -0.00000000000E+00  0.00000000000E+00  0.96230553178E+01  0.96230553178E+01  0.00000000000E+00 0.  1.
          1   -1    0    0  501    0  0.00000000000E+00 -0.00000000000E+00 -0.19798852402E+04  0.19798852402E+04  0.00000000000E+00 0.  1.
         35    2    1    2    0    0 -0.88817841970E-15  0.71054273576E-14 -0.19702621849E+04  0.19895082956E+04  0.27606191472E+03 0.  0.
         25    2    3    3    0    0  0.26147577584E+01  0.29092191952E+02 -0.62371264356E+03  0.63668057930E+03  0.12446487748E+03 0.  0.
         25    2    3    3    0    0 -0.26147577584E+01 -0.29092191952E+02 -0.13465495414E+04  0.13528277163E+04  0.12686201145E+03 0.  0.
          5    1    4    4  502    0  0.10475501441E+02 -0.47421851797E+02 -0.29859773796E+03  0.30255787426E+03  0.47000000000E+01 0. -1.
         -5    1    4    4    0  502 -0.78607436824E+01  0.76514043749E+02 -0.32511490560E+03  0.33412270504E+03  0.47000000000E+01 0. -1.
          5    1    5    5  503    0 -0.56389256203E+02 -0.21124556908E+01 -0.95275441453E+03  0.95443557933E+03  0.47000000000E+01 0. -1.
         -5    1    5    5    0  503  0.53774498444E+02 -0.26979736261E+02 -0.39379512683E+03  0.39839213693E+03  0.47000000000E+01 0. -1.
<mgrwt>
<rscale>  0 0.27606191E+03</rscale>
<asrwt>0</asrwt>
<pdfrwt beam="1">  1        1 0.30459755E+00 0.27606191E+03</pdfrwt>
<pdfrwt beam="2">  1       -1 0.14804709E-02 0.27606191E+03</pdfrwt>
<totfact> 0.36987576E+03</totfact>
</mgrwt>
</event>
<event>
 9    1  0.7944303E-001  0.2712244E+03  0.7818608E-02  0.1100581E+00
         -2   -1    0    0    0  501 -0.00000000000E+00  0.00000000000E+00  0.61203753684E+02  0.61203753684E+02  0.00000000000E+00 0. -1.
          2   -1    0    0  501    0  0.00000000000E+00 -0.00000000000E+00 -0.30048266622E+03  0.30048266622E+03  0.00000000000E+00 0. -1.
         35    2    1    2    0    0  0.00000000000E+00 -0.71054273576E-14 -0.23927891254E+03  0.36168641991E+03  0.27122438747E+03 0.  0.
         25    2    3    3    0    0 -0.53310878694E+02  0.33162809931E+01 -0.12209210308E+03  0.18233621132E+03  0.12444663441E+03 0.  0.
         25    2    3    3    0    0  0.53310878694E+02 -0.33162809931E+01 -0.11718680946E+03  0.17935020859E+03  0.12482268024E+03 0.  0.
          5    1    4    4  502    0 -0.27297165984E+02 -0.60008053182E+02 -0.50574462581E+02  0.83222400727E+02  0.47000000000E+01 0.  1.
         -5    1    4    4    0  502 -0.26013712710E+02  0.63324334175E+02 -0.71517640494E+02  0.99113810589E+02  0.47000000000E+01 0.  1.
          5    1    5    5  503    0  0.61535203785E+02  0.49747047542E+02 -0.52170749469E+02  0.94895875275E+02  0.47000000000E+01 0.  1.
         -5    1    5    5    0  503 -0.82243250912E+01 -0.53063328535E+02 -0.65016059994E+02  0.84454333315E+02  0.47000000000E+01 0.  1.
<mgrwt>
<rscale>  0 0.27122439E+03</rscale>
<asrwt>0</asrwt>
<pdfrwt beam="1">  1        2 0.46228102E-01 0.27122439E+03</pdfrwt>
<pdfrwt beam="2">  1       -2 0.94159622E-02 0.27122439E+03</pdfrwt>
<totfact> 0.79070002E+03</totfact>
</mgrwt>
</event>
<event>
 9    1  0.7944303E-001  0.2694114E+03  0.7818608E-02  0.1101617E+00
         -2   -1    0    0    0  501 -0.00000000000E+00  0.00000000000E+00  0.21970238778E+03  0.21970238778E+03  0.00000000000E+00 0.  1.
          2   -1    0    0  501    0  0.00000000000E+00 -0.00000000000E+00 -0.82591842415E+02  0.82591842415E+02  0.00000000000E+00 0.  1.
         35    2    1    2    0    0  0.71054273576E-14  0.35527136788E-14  0.13711054537E+03  0.30229423020E+03  0.26941139538E+03 0.  0.
         25    2    3    3    0    0 -0.22144623220E+01  0.16455950660E+02  0.21757843322E+02  0.12747475673E+03  0.12450183815E+03 0.  0.
         25    2    3    3    0    0  0.22144623220E+01 -0.16455950660E+02  0.11535270205E+03  0.17481947347E+03  0.13030694639E+03 0.  0.
          5    1    4    4  502    0 -0.61927305654E+02  0.16551691748E+02  0.20849490457E+02  0.67570266668E+02  0.47000000000E+01 0.  1.
         -5    1    4    4    0  502  0.59712843332E+02 -0.95741088058E-01  0.90835286531E+00  0.59904490066E+02  0.47000000000E+01 0.  1.
          5    1    5    5  503    0  0.57526973132E+02 -0.40081234525E+02  0.71377573927E+02  0.10016339680E+03  0.47000000000E+01 0. -1.
         -5    1    5    5    0  503 -0.55312510810E+02  0.23625283865E+02  0.43975128121E+02  0.74656076665E+02  0.47000000000E+01 0. -1.
<mgrwt>
<rscale>  0 0.26941140E+03</rscale>
<asrwt>0</asrwt>
<pdfrwt beam="1">  1        2 0.12706437E-01 0.26941140E+03</pdfrwt>
<pdfrwt beam="2">  1       -2 0.33800367E-01 0.26941140E+03</pdfrwt>
<totfact> 0.38818884E+03</totfact>
</mgrwt>
</event>
<event>
 9    1  0.7944303E-001  0.2702659E+03  0.7818608E-02  0.1101128E+00
          3   -1    0    0  501    0  0.00000000000E+00  0.00000000000E+00  0.53017148564E+02  0.53017148564E+02  0.00000000000E+00 0.  1.
         -3   -1    0    0    0  501 -0.00000000000E+00 -0.00000000000E+00 -0.34443405104E+03  0.34443405104E+03  0.00000000000E+00 0.  1.
         35    2    1    2    0    0  0.17763568394E-14  0.00000000000E+00 -0.29141690247E+03  0.39745119960E+03  0.27026587838E+03 0.  0.
         25    2    3    3    0    0  0.11018397849E+02 -0.33136715772E+01 -0.22164539050E+03  0.25394971678E+03  0.12341553393E+03 0.  0.
         25    2    3    3    0    0 -0.11018397849E+02  0.33136715772E+01 -0.69771511974E+02  0.14350148282E+03  0.12486883589E+03 0.  0.
          5    1    4    4  502    0  0.65597144216E+02 -0.15986351545E+02 -0.11773509422E+03  0.13580202935E+03  0.47000000000E+01 0. -1.
         -5    1    4    4    0  502 -0.54578746367E+02  0.12672679967E+02 -0.10391029628E+03  0.11814768743E+03  0.47000000000E+01 0. -1.
          5    1    5    5  503    0 -0.26899140642E+02  0.45631289899E+02  0.76535031705E+01  0.53725640954E+02  0.47000000000E+01 0.  1.
         -5    1    5    5    0  503  0.15880742793E+02 -0.42317618322E+02 -0.77425015145E+02  0.89775841863E+02  0.47000000000E+01 0.  1.
<mgrwt>
<rscale>  0 0.27026588E+03</rscale>
<asrwt>0</asrwt>
<pdfrwt beam="1">  1        3 0.81564845E-02 0.27026588E+03</pdfrwt>
<pdfrwt beam="2">  1       -3 0.52989853E-01 0.27026588E+03</pdfrwt>
<totfact> 0.93157103E+02</totfact>
</mgrwt>
</event>
<event>
 9    1  0.7944303E-001  0.2732672E+03  0.7818608E-02  0.1099424E+00
          2   -1    0    0  501    0  0.00000000000E+00  0.00000000000E+00  0.23896424268E+04  0.23896424268E+04  0.00000000000E+00 0. -1.
         -2   -1    0    0    0  501 -0.00000000000E+00 -0.00000000000E+00 -0.78123557023E+01  0.78123557023E+01  0.00000000000E+00 0. -1.
         35    2    1    2    0    0 -0.35527136788E-14  0.00000000000E+00  0.23818300711E+04  0.23974547825E+04  0.27326717066E+03 0.  0.
         25    2    3    3    0    0  0.30831506764E+02  0.35546911596E+02  0.93678197704E+03  0.94623980003E+03  0.12488043054E+03 0.  0.
         25    2    3    3    0    0 -0.30831506764E+02 -0.35546911596E+02  0.14450480941E+04  0.14512149825E+04  0.12508703555E+03 0.  0.
          5    1    4    4  502    0  0.48401735408E+02  0.43199112060E+01  0.85993697062E+03  0.86132170126E+03  0.47000000000E+01 0.  1.
         -5    1    4    4    0  502 -0.17570228644E+02  0.31227000390E+02  0.76845006420E+02  0.84918098776E+02  0.47000000000E+01 0.  1.
          5    1    5    5  503    0  0.36631573383E+01  0.16638219640E+01  0.12370659048E+04  0.12370813756E+04  0.47000000000E+01 0.  1.
         -5    1    5    5    0  503 -0.34494664102E+02 -0.37210733560E+02  0.20798218928E+03  0.21413360689E+03  0.47000000000E+01 0.  1.
<mgrwt>
<rscale>  0 0.27326717E+03</rscale>
<asrwt>0</asrwt>
<pdfrwt beam="1">  1        2 0.36763671E+00 0.27326717E+03</pdfrwt>
<pdfrwt beam="2">  1       -2 0.12019028E-02 0.27326717E+03</pdfrwt>
<totfact> 0.75131759E+03</totfact>
</mgrwt>
</event>
<event>
 9    1  0.7944303E-001  0.2736540E+03  0.7818608E-02  0.1099206E+00
          1   -1    0    0  501    0  0.00000000000E+00  0.00000000000E+00  0.49442054769E+03  0.49442054769E+03  0.00000000000E+00 0. -1.
         -1   -1    0    0    0  501 -0.00000000000E+00 -0.00000000000E+00 -0.37865792057E+02  0.37865792057E+02  0.00000000000E+00 0. -1.
         35    2    1    2    0    0  0.00000000000E+00 -0.71054273576E-14  0.45655475563E+03  0.53228633975E+03  0.27365398333E+03 0.  0.
         25    2    3    3    0    0  0.35722152607E+02  0.50013352968E+02  0.26405803509E+03  0.29481049540E+03  0.11579799066E+03 0.  0.
         25    2    3    3    0    0 -0.35722152607E+02 -0.50013352968E+02  0.19249672054E+03  0.23747584434E+03  0.12474927481E+03 0.  0.
          5    1    4    4  502    0  0.22035174311E+02 -0.10018767996E+02  0.21372952957E+03  0.21514722036E+03  0.47000000000E+01 0.  1.
         -5    1    4    4    0  502  0.13686978296E+02  0.60032120963E+02  0.50328505522E+02  0.79663275041E+02  0.47000000000E+01 0.  1.
          5    1    5    5  503    0 -0.47317696944E+02 -0.71526815554E+02  0.65372501038E+02  0.10793842541E+03  0.47000000000E+01 0. -1.
         -5    1    5    5    0  503  0.11595544337E+02  0.21513462586E+02  0.12712421950E+03  0.12953741893E+03  0.47000000000E+01 0. -1.
<mgrwt>
<rscale>  0 0.27365398E+03</rscale>
<asrwt>0</asrwt>
<pdfrwt beam="1">  1        1 0.76064695E-01 0.27365398E+03</pdfrwt>
<pdfrwt beam="2">  1       -1 0.58255068E-02 0.27365398E+03</pdfrwt>
<totfact> 0.63728663E+03</totfact>
</mgrwt>
</event>
<event>
 9    1  0.7944303E-001  0.2746443E+03  0.7818608E-02  0.1098651E+00
         -4   -1    0    0    0  501 -0.00000000000E+00  0.00000000000E+00  0.36859338101E+04  0.36859338101E+04  0.00000000000E+00 0.  1.
          4   -1    0    0  501    0  0.00000000000E+00 -0.00000000000E+00 -0.51160367467E+01  0.51160367467E+01  0.00000000000E+00 0.  1.
         35    2    1    2    0    0  0.71054273576E-14  0.00000000000E+00  0.36808177734E+04  0.36910498469E+04  0.27464429955E+03 0.  0.
         25    2    3    3    0    0  0.31808258001E+02 -0.94397258582E+01  0.14083753447E+04  0.14148957115E+04  0.13155945041E+03 0.  0.
         25    2    3    3    0    0 -0.31808258001E+02  0.94397258582E+01  0.22724424286E+04  0.22761541354E+04  0.12562715822E+03 0.  0.
          5    1    4    4  502    0  0.32931136284E+02  0.48899285458E+02  0.35479809190E+03  0.35969344708E+03  0.47000000000E+01 0.  1.
         -5    1    4    4    0  502 -0.11228782825E+01 -0.58339011316E+02  0.10535772528E+04  0.10552022644E+04  0.47000000000E+01 0.  1.
          5    1    5    5  503    0 -0.35590515164E+02 -0.37893942764E+02  0.43923394266E+03  0.44232474728E+03  0.47000000000E+01 0.  1.
         -5    1    5    5    0  503  0.37822571628E+01  0.47333668622E+02  0.18332084860E+04  0.18338293881E+04  0.47000000000E+01 0.  1.
<mgrwt>
<rscale>  0 0.27464430E+03</rscale>
<asrwt>0</asrwt>
<pdfrwt beam="1">  1        4 0.78708552E-03 0.27464430E+03</pdfrwt>
<pdfrwt beam="2">  1       -4 0.56706462E+00 0.27464430E+03</pdfrwt>
<totfact> 0.35842801E+00</totfact>
</mgrwt>
</event>
<event>
 9    1  0.7944303E-001  0.2614222E+03  0.7818608E-02  0.1106292E+00
          1   -1    0    0  501    0  0.00000000000E+00  0.00000000000E+00  0.12648575083E+02  0.12648575083E+02  0.00000000000E+00 0. -1.
         -1   -1    0    0    0  501 -0.00000000000E+00 -0.00000000000E+00 -0.13507757042E+04  0.13507757042E+04  0.00000000000E+00 0. -1.
         35    2    1    2    0    0  0.71054273576E-14  0.00000000000E+00 -0.13381271292E+04  0.13634242793E+04  0.26142217133E+03 0.  0.
         25    2    3    3    0    0  0.16828779846E+02  0.23038757398E+02 -0.52893430781E+03  0.54417227525E+03  0.12465139791E+03 0.  0.
         25    2    3    3    0    0 -0.16828779846E+02 -0.23038757398E+02 -0.80919282135E+03  0.81925200407E+03  0.12476711057E+03 0.  0.
          5    1    4    4  502    0  0.69486804571E+02  0.10890708944E+02 -0.23782523517E+03  0.24805232520E+03  0.47000000000E+01 0.  1.
         -5    1    4    4    0  502 -0.52658024725E+02  0.12148048455E+02 -0.29110907263E+03  0.29611995005E+03  0.47000000000E+01 0.  1.
          5    1    5    5  503    0  0.54248272762E+02 -0.98492605503E+01 -0.32739005533E+03  0.33203346422E+03  0.47000000000E+01 0.  1.
         -5    1    5    5    0  503 -0.71077052608E+02 -0.13189496848E+02 -0.48180276602E+03  0.48721853985E+03  0.47000000000E+01 0.  1.
<mgrwt>
<rscale>  0 0.26142217E+03</rscale>
<asrwt>0</asrwt>
<pdfrwt beam="1">  1        1 0.19459335E-02 0.26142217E+03</pdfrwt>
<pdfrwt beam="2">  1       -1 0.20781177E+00 0.26142217E+03</pdfrwt>
<totfact> 0.93106587E+02</totfact>
</mgrwt>
</event>
<event>
 9    1  0.7944303E-001  0.2741988E+03  0.7818608E-02  0.1098900E+00
         -1   -1    0    0    0  501 -0.00000000000E+00  0.00000000000E+00  0.43438635349E+03  0.43438635349E+03  0.00000000000E+00 0.  1.
          1   -1    0    0  501    0  0.00000000000E+00 -0.00000000000E+00 -0.43270815725E+02  0.43270815725E+02  0.00000000000E+00 0.  1.
         35    2    1    2    0    0  0.00000000000E+00 -0.35527136788E-14  0.39111553776E+03  0.47765716921E+03  0.27419884650E+03 0.  0.
         25    2    3    3    0    0 -0.46216341411E+02  0.90774730701E+01  0.24763558079E+03  0.28160452307E+03  0.12553635255E+03 0.  0.
         25    2    3    3    0    0  0.46216341411E+02 -0.90774730701E+01  0.14347995697E+03  0.19605264614E+03  0.12502716215E+03 0.  0.
          5    1    4    4  502    0 -0.85997341505E+02  0.15618074588E+02  0.12634518559E+03  0.15370316497E+03  0.47000000000E+01 0. -1.
         -5    1    4    4    0  502  0.39781000094E+02 -0.65406015176E+01  0.12129039520E+03  0.12790135810E+03  0.47000000000E+01 0. -1.
          5    1    5    5  503    0  0.41553293884E+02 -0.25753964831E+02  0.16258631309E+03  0.16984210945E+03  0.47000000000E+01 0. -1.
         -5    1    5    5    0  503  0.46630475272E+01  0.16676491761E+02 -0.19106356117E+02  0.26210536694E+02  0.47000000000E+01 0. -1.
<mgrwt>
<rscale>  0 0.27419885E+03</rscale>
<asrwt>0</asrwt>
<pdfrwt beam="1">  1        1 0.66570489E-02 0.27419885E+03</pdfrwt>
<pdfrwt beam="2">  1       -1 0.66828667E-01 0.27419885E+03</pdfrwt>
<totfact> 0.26257579E+03</totfact>
</mgrwt>
</event>
<event>
 9    1  0.7944303E-001  0.2737168E+03  0.7818608E-02  0.1099171E+00
         -2   -1    0    0    0  501 -0.00000000000E+00  0.00000000000E+00  0.75832976934E+02  0.75832976934E+02  0.00000000000E+00 0.  1.
          2   -1    0    0  501    0  0.00000000000E+00 -0.00000000000E+00 -0.24699301274E+03  0.24699301274E+03  0.00000000000E+00 0.  1.
         35    2    1    2    0    0  0.00000000000E+00  0.00000000000E+00 -0.17116003580E+03  0.32282598967E+03  0.27371675460E+03 0.  0.
         25    2    3    3    0    0 -0.33480140548E+01  0.26553158744E+02 -0.14277640234E+03  0.19156086747E+03  0.12487668095E+03 0.  0.
         25    2    3    3    0    0  0.33480140548E+01 -0.26553158744E+02 -0.28383633468E+02  0.13126512220E+03  0.12533404254E+03 0.  0.
          5    1    4    4  502    0  0.41791710869E+02  0.10321146463E+02 -0.26585309849E+01  0.43384685646E+02  0.47000000000E+01 0. -1.
         -5    1    4    4    0  502 -0.45139724923E+02  0.16232012281E+02 -0.14011787135E+03  0.14817618183E+03  0.47000000000E+01 0. -1.
          5    1    5    5  503    0 -0.59089344379E+02 -0.24171131176E+02 -0.24304107922E+02  0.68473161628E+02  0.47000000000E+01 0.  1.
         -5    1    5    5    0  503  0.62437358434E+02 -0.23820275684E+01 -0.40795255453E+01  0.62791960570E+02  0.47000000000E+01 0.  1.
<mgrwt>
<rscale>  0 0.27371675E+03</rscale>
<asrwt>0</asrwt>
<pdfrwt beam="1">  1        2 0.37998925E-01 0.27371675E+03</pdfrwt>
<pdfrwt beam="2">  1       -2 0.11666612E-01 0.27371675E+03</pdfrwt>
<totfact> 0.69394762E+03</totfact>
</mgrwt>
</event>
<event>
 9    1  0.7944303E-001  0.2739745E+03  0.7818608E-02  0.1099026E+00
         -1   -1    0    0    0  501 -0.00000000000E+00  0.00000000000E+00  0.25493182272E+04  0.25493182272E+04  0.00000000000E+00 0. -1.
          1   -1    0    0  501    0  0.00000000000E+00 -0.00000000000E+00 -0.73609924724E+01  0.73609924724E+01  0.00000000000E+00 0. -1.
         35    2    1    2    0    0  0.00000000000E+00 -0.71054273576E-14  0.25419572347E+04  0.25566792197E+04  0.27397454101E+03 0.  0.
         25    2    3    3    0    0 -0.90692841500E+01 -0.49816072330E+02  0.11656064078E+04  0.11736105782E+04  0.12712040966E+03 0.  0.
         25    2    3    3    0    0  0.90692841500E+01  0.49816072330E+02  0.13763508270E+04  0.13830686414E+04  0.12638581827E+03 0.  0.
          5    1    4    4  502    0 -0.43029246765E+02 -0.72563451786E+02  0.53181875123E+03  0.53848885296E+03  0.47000000000E+01 0.  1.
         -5    1    4    4    0  502  0.33959962615E+02  0.22747379455E+02  0.63378765653E+03  0.63512172527E+03  0.47000000000E+01 0.  1.
          5    1    5    5  503    0  0.62178382905E+02  0.42103419877E+02  0.57380966812E+03  0.57872141355E+03  0.47000000000E+01 0. -1.
         -5    1    5    5    0  503 -0.53109098755E+02  0.77126524534E+01  0.80254115884E+03  0.80434722789E+03  0.47000000000E+01 0. -1.
<mgrwt>
<rscale>  0 0.27397454E+03</rscale>
<asrwt>0</asrwt>
<pdfrwt beam="1">  1        1 0.11324624E-02 0.27397454E+03</pdfrwt>
<pdfrwt beam="2">  1       -1 0.39220210E+00 0.27397454E+03</pdfrwt>
<totfact> 0.13434854E+02</totfact>
</mgrwt>
</event>
<event>
 9    1  0.7944303E-001  0.2679203E+03  0.7818608E-02  0.1102476E+00
          3   -1    0    0  501    0  0.00000000000E+00  0.00000000000E+00  0.62871620343E+03  0.62871620343E+03  0.00000000000E+00 0.  1.
         -3   -1    0    0    0  501 -0.00000000000E+00 -0.00000000000E+00 -0.28542798719E+02  0.28542798719E+02  0.00000000000E+00 0.  1.
         35    2    1    2    0    0 -0.71054273576E-14  0.00000000000E+00  0.60017340471E+03  0.65725900215E+03  0.26792028700E+03 0.  0.
         25    2    3    3    0    0  0.76641596938E+01 -0.30103126491E+02  0.39327170675E+03  0.41380588030E+03  0.12493091561E+03 0.  0.
         25    2    3    3    0    0 -0.76641596938E+01  0.30103126491E+02  0.20690169796E+03  0.24345312185E+03  0.12448362282E+03 0.  0.
          5    1    4    4  502    0 -0.58070245755E+02 -0.18279862407E+02  0.16585629909E+03  0.17673909799E+03  0.47000000000E+01 0. -1.
         -5    1    4    4    0  502  0.65734405449E+02 -0.11823264084E+02  0.22741540766E+03  0.23706678231E+03  0.47000000000E+01 0. -1.
          5    1    5    5  503    0  0.45503638630E+02 -0.17623429570E+02  0.12716180539E+03  0.13628419258E+03  0.47000000000E+01 0. -1.
         -5    1    5    5    0  503 -0.53167798324E+02  0.47726556061E+02  0.79739892575E+02  0.10716892927E+03  0.47000000000E+01 0. -1.
<mgrwt>
<rscale>  0 0.26792029E+03</rscale>
<asrwt>0</asrwt>
<pdfrwt beam="1">  1        3 0.96725559E-01 0.26792029E+03</pdfrwt>
<pdfrwt beam="2">  1       -3 0.43912003E-02 0.26792029E+03</pdfrwt>
<totfact> 0.69401233E+02</totfact>
</mgrwt>
</event>
<event>
 9    1  0.7944303E-001  0.2924589E+03  0.7818608E-02  0.1089072E+00
          4   -1    0    0  501    0  0.00000000000E+00  0.00000000000E+00  0.22921358366E+03  0.22921358366E+03  0.00000000000E+00 0.  1.
         -4   -1    0    0    0  501 -0.00000000000E+00 -0.00000000000E+00 -0.93288763817E+02  0.93288763817E+02  0.00000000000E+00 0.  1.
         35    2    1    2    0    0  0.00000000000E+00  0.35527136788E-14  0.13592481984E+03  0.32250234748E+03  0.29245889879E+03 0.  0.
         25    2    3    3    0    0  0.75340162024E+02 -0.34477360691E+01  0.50733584066E+02  0.15403109666E+03  0.12435294644E+03 0.  0.
         25    2    3    3    0    0 -0.75340162024E+02  0.34477360691E+01  0.85191235778E+02  0.16847125082E+03  0.12424567920E+03 0.  0.
          5    1    4    4  502    0 -0.16407628056E+02 -0.80376797774E+01 -0.27451789718E+02  0.33309237658E+02  0.47000000000E+01 0. -1.
         -5    1    4    4    0  502  0.91747790080E+02  0.45899437083E+01  0.78185373784E+02  0.12072185900E+03  0.47000000000E+01 0. -1.
          5    1    5    5  503    0 -0.12946641348E+02  0.55176313898E+02  0.61799989924E+02  0.83984343137E+02  0.47000000000E+01 0. -1.
         -5    1    5    5    0  503 -0.62393520676E+02 -0.51728577829E+02  0.23391245854E+02  0.84486907679E+02  0.47000000000E+01 0. -1.
<mgrwt>
<rscale>  0 0.29245890E+03</rscale>
<asrwt>0</asrwt>
<pdfrwt beam="1">  1        4 0.35263628E-01 0.29245890E+03</pdfrwt>
<pdfrwt beam="2">  1       -4 0.14352118E-01 0.29245890E+03</pdfrwt>
<totfact> 0.59943863E+02</totfact>
</mgrwt>
</event>
<event>
 9    1  0.7944303E-001  0.2785696E+03  0.7818608E-02  0.1096473E+00
         -3   -1    0    0    0  501 -0.00000000000E+00  0.00000000000E+00  0.66118784076E+03  0.66118784076E+03  0.00000000000E+00 0.  1.
          3   -1    0    0  501    0  0.00000000000E+00 -0.00000000000E+00 -0.29341522381E+02  0.29341522381E+02  0.00000000000E+00 0.  1.
         35    2    1    2    0    0  0.00000000000E+00  0.00000000000E+00  0.63184631837E+03  0.69052936314E+03  0.27856961663E+03 0.  0.
         25    2    3    3    0    0 -0.44873802079E+02 -0.10295532231E+01  0.21122966517E+03  0.24971372386E+03  0.12539638887E+03 0.  0.
         25    2    3    3    0    0  0.44873802079E+02  0.10295532231E+01  0.42061665320E+03  0.44081563928E+03  0.12403765876E+03 0.  0.
          5    1    4    4  502    0  0.15208797102E+02 -0.35431830078E+02  0.15109701730E+02  0.41678713732E+02  0.47000000000E+01 0.  1.
         -5    1    4    4    0  502 -0.60082599181E+02  0.34402276854E+02  0.19611996344E+03  0.20803501012E+03  0.47000000000E+01 0.  1.
          5    1    5    5  503    0  0.22195016317E+02  0.91274430514E+01  0.56168727175E+01  0.25091198159E+02  0.47000000000E+01 0.  1.
         -5    1    5    5    0  503  0.22678785762E+02 -0.80978898283E+01  0.41499978049E+03  0.41572444112E+03  0.47000000000E+01 0.  1.
<mgrwt>
<rscale>  0 0.27856962E+03</rscale>
<asrwt>0</asrwt>
<pdfrwt beam="1">  1        3 0.45140809E-02 0.27856962E+03</pdfrwt>
<pdfrwt beam="2">  1       -3 0.10172120E+00 0.27856962E+03</pdfrwt>
<totfact> 0.59290696E+02</totfact>
</mgrwt>
</event>
<event>
 9    1  0.7944303E-001  0.2753903E+03  0.7818608E-02  0.1098234E+00
         -3   -1    0    0    0  501 -0.00000000000E+00  0.00000000000E+00  0.42051958293E+03  0.42051958293E+03  0.00000000000E+00 0. -1.
          3   -1    0    0  501    0  0.00000000000E+00 -0.00000000000E+00 -0.45086976445E+02  0.45086976445E+02  0.00000000000E+00 0. -1.
         35    2    1    2    0    0  0.71054273576E-14 -0.17763568394E-14  0.37543260648E+03  0.46560655937E+03  0.27539031595E+03 0.  0.
         25    2    3    3    0    0  0.41375837007E+02  0.13441881105E+02  0.12269355917E+03  0.18038938641E+03  0.12487584719E+03 0.  0.
         25    2    3    3    0    0 -0.41375837007E+02 -0.13441881105E+02  0.25273904731E+03  0.28521717297E+03  0.12481652800E+03 0.  0.
          5    1    4    4  502    0  0.54381404478E+01 -0.54636093016E+02  0.50326549880E+02  0.74629268082E+02  0.47000000000E+01 0. -1.
         -5    1    4    4    0  502  0.35937696559E+02  0.68077974121E+02  0.72367009289E+02  0.10576011832E+03  0.47000000000E+01 0. -1.
          5    1    5    5  503    0  0.32236849524E+02 -0.20560008981E+02  0.16927231458E+03  0.17360050380E+03  0.47000000000E+01 0.  1.
         -5    1    5    5    0  503 -0.73612686530E+02  0.71181278762E+01  0.83466732735E+02  0.11161666917E+03  0.47000000000E+01 0.  1.
<mgrwt>
<rscale>  0 0.27539032E+03</rscale>
<asrwt>0</asrwt>
<pdfrwt beam="1">  1        3 0.69364582E-02 0.27539032E+03</pdfrwt>
<pdfrwt beam="2">  1       -3 0.64695318E-01 0.27539032E+03</pdfrwt>
<totfact> 0.80459007E+02</totfact>
</mgrwt>
</event>
<event>
 9    1  0.7944303E-001  0.2729549E+03  0.7818608E-02  0.1099600E+00
          2   -1    0    0  501    0  0.00000000000E+00  0.00000000000E+00  0.12897776566E+04  0.12897776566E+04  0.00000000000E+00 0. -1.
         -2   -1    0    0    0  501 -0.00000000000E+00 -0.00000000000E+00 -0.14441322464E+02  0.14441322464E+02  0.00000000000E+00 0. -1.
         35    2    1    2    0    0  0.00000000000E+00 -0.17763568394E-14  0.12753363341E+04  0.13042189790E+04  0.27295490503E+03 0.  0.
         25    2    3    3    0    0 -0.50263497591E+02 -0.31059052315E+01  0.53095734952E+03  0.54804169724E+03  0.12608699010E+03 0.  0.
         25    2    3    3    0    0  0.50263497591E+02  0.31059052315E+01  0.74437898457E+03  0.75617728178E+03  0.12315820299E+03 0.  0.
          5    1    4    4  502    0 -0.38432651098E+02  0.41600169184E+02  0.10360022623E+03  0.11816403692E+03  0.47000000000E+01 0. -1.
         -5    1    4    4    0  502 -0.11830846493E+02 -0.44706074416E+02  0.42735712328E+03  0.42987766032E+03  0.47000000000E+01 0. -1.
          5    1    5    5  503    0  0.77568240987E+02 -0.81471873700E+01  0.68740956434E+03  0.69183611341E+03  0.47000000000E+01 0.  1.
         -5    1    5    5    0  503 -0.27304743396E+02  0.11253092602E+02  0.56969420228E+02  0.64341168361E+02  0.47000000000E+01 0.  1.
<mgrwt>
<rscale>  0 0.27295491E+03</rscale>
<asrwt>0</asrwt>
<pdfrwt beam="1">  1        2 0.19842724E+00 0.27295491E+03</pdfrwt>
<pdfrwt beam="2">  1       -2 0.22217429E-02 0.27295491E+03</pdfrwt>
<totfact> 0.11754559E+04</totfact>
</mgrwt>
</event>
<event>
 9    1  0.7944303E-001  0.2955969E+03  0.7818608E-02  0.1087463E+00
          1   -1    0    0  501    0  0.00000000000E+00  0.00000000000E+00  0.63951587532E+02  0.63951587532E+02  0.00000000000E+00 0. -1.
         -1   -1    0    0    0  501 -0.00000000000E+00 -0.00000000000E+00 -0.34157690871E+03  0.34157690871E+03  0.00000000000E+00 0. -1.
         35    2    1    2    0    0 -0.71054273576E-14  0.00000000000E+00 -0.27762532118E+03  0.40552849624E+03  0.29559692540E+03 0.  0.
         25    2    3    3    0    0  0.39446536028E+02  0.67583888730E+02 -0.14537028615E+03  0.20742045257E+03  0.12556716461E+03 0.  0.
         25    2    3    3    0    0 -0.39446536028E+02 -0.67583888730E+02 -0.13225503503E+03  0.19810804367E+03  0.12502716288E+03 0.  0.
          5    1    4    4  502    0  0.83111425713E+02  0.25715637953E+02 -0.90299976396E+02  0.12547899767E+03  0.47000000000E+01 0.  1.
         -5    1    4    4    0  502 -0.43664889685E+02  0.41868250777E+02 -0.55070309752E+02  0.81941454896E+02  0.47000000000E+01 0.  1.
          5    1    5    5  503    0 -0.79855835844E+02 -0.21232310217E+02 -0.95256243553E+02  0.12618877704E+03  0.47000000000E+01 0.  1.
         -5    1    5    5    0  503  0.40409299816E+02 -0.46351578513E+02 -0.36998791476E+02  0.71919266632E+02  0.47000000000E+01 0.  1.
<mgrwt>
<rscale>  0 0.29559693E+03</rscale>
<asrwt>0</asrwt>
<pdfrwt beam="1">  1        1 0.98387061E-02 0.29559693E+03</pdfrwt>
<pdfrwt beam="2">  1       -1 0.52550292E-01 0.29559693E+03</pdfrwt>
<totfact> 0.24533055E+03</totfact>
</mgrwt>
</event>
<event>
 9    1  0.7944303E-001  0.2713714E+03  0.7818608E-02  0.1100497E+00
          2   -1    0    0  501    0  0.00000000000E+00  0.00000000000E+00  0.38729275244E+04  0.38729275244E+04  0.00000000000E+00 0. -1.
         -2   -1    0    0    0  501 -0.00000000000E+00 -0.00000000000E+00 -0.47536660704E+01  0.47536660704E+01  0.00000000000E+00 0. -1.
         35    2    1    2    0    0  0.00000000000E+00  0.00000000000E+00  0.38681738583E+04  0.38776811904E+04  0.27137136301E+03 0.  0.
         25    2    3    3    0    0 -0.16439512694E+02 -0.16553795808E+02  0.12563534247E+04  0.12627538005E+04  0.12481565273E+03 0.  0.
         25    2    3    3    0    0  0.16439512694E+02  0.16553795808E+02  0.26118204336E+04  0.26149273899E+04  0.12527965359E+03 0.  0.
          5    1    4    4  502    0 -0.60575633389E+02 -0.14840933118E+02  0.36695339079E+03  0.37224527085E+03  0.47000000000E+01 0.  1.
         -5    1    4    4    0  502  0.44136120696E+02 -0.17128626898E+01  0.88940003395E+03  0.89050852968E+03  0.47000000000E+01 0.  1.
          5    1    5    5  503    0  0.39992105803E+02  0.63100672243E+02  0.14635389418E+04  0.14654519397E+04  0.47000000000E+01 0.  1.
         -5    1    5    5    0  503 -0.23552593110E+02 -0.46546876434E+02  0.11482814918E+04  0.11494754502E+04  0.47000000000E+01 0.  1.
<mgrwt>
<rscale>  0 0.27137136E+03</rscale>
<asrwt>0</asrwt>
<pdfrwt beam="1">  1        2 0.59583248E+00 0.27137136E+03</pdfrwt>
<pdfrwt beam="2">  1       -2 0.73133634E-03 0.27137136E+03</pdfrwt>
<totfact> 0.18713556E+03</totfact>
</mgrwt>
</event>
<event>
 9    1  0.7944303E-001  0.2721905E+03  0.7818608E-02  0.1100032E+00
          4   -1    0    0  501    0  0.00000000000E+00  0.00000000000E+00  0.83427871492E+02  0.83427871492E+02  0.00000000000E+00 0. -1.
         -4   -1    0    0    0  501 -0.00000000000E+00 -0.00000000000E+00 -0.22201117015E+03  0.22201117015E+03  0.00000000000E+00 0. -1.
         35    2    1    2    0    0  0.00000000000E+00  0.00000000000E+00 -0.13858329865E+03  0.30543904164E+03  0.27219051690E+03 0.  0.
         25    2    3    3    0    0  0.75725237824E+01  0.99429326039E+01 -0.12802024787E+03  0.17966824298E+03  0.12544037885E+03 0.  0.
         25    2    3    3    0    0 -0.75725237824E+01 -0.99429326039E+01 -0.10563050785E+02  0.12577079866E+03  0.12470168695E+03 0.  0.
          5    1    4    4  502    0  0.31642236375E+02  0.34127836140E+02 -0.13641890137E+03  0.14421562666E+03  0.47000000000E+01 0. -1.
         -5    1    4    4    0  502 -0.24069712593E+02 -0.24184903536E+02  0.83986534984E+01  0.35452616320E+02  0.47000000000E+01 0. -1.
          5    1    5    5  503    0 -0.63725642794E+02  0.11687174765E+02 -0.62450386798E+01  0.65258241714E+02  0.47000000000E+01 0. -1.
         -5    1    5    5    0  503  0.56153119011E+02 -0.21630107369E+02 -0.43180121056E+01  0.60512556945E+02  0.47000000000E+01 0. -1.
<mgrwt>
<rscale>  0 0.27219052E+03</rscale>
<asrwt>0</asrwt>
<pdfrwt beam="1">  1        4 0.12835057E-01 0.27219052E+03</pdfrwt>
<pdfrwt beam="2">  1       -4 0.34155565E-01 0.27219052E+03</pdfrwt>
<totfact> 0.76788150E+02</totfact>
</mgrwt>
</event>
<event>
 9    1  0.7944303E-001  0.2795949E+03  0.7818608E-02  0.1095910E+00
         -1   -1    0    0    0  501 -0.00000000000E+00  0.00000000000E+00  0.83245479133E+02  0.83245479133E+02  0.00000000000E+00 0.  1.
          1   -1    0    0  501    0  0.00000000000E+00 -0.00000000000E+00 -0.23476740550E+03  0.23476740550E+03  0.00000000000E+00 0.  1.
         35    2    1    2    0    0  0.10658141036E-13  0.00000000000E+00 -0.15152192636E+03  0.31801288463E+03  0.27959488661E+03 0.  0.
         25    2    3    3    0    0 -0.31690787684E+02 -0.14359794517E+02 -0.20304689652E+02  0.13104805709E+03  0.12470285932E+03 0.  0.
         25    2    3    3    0    0  0.31690787684E+02  0.14359794517E+02 -0.13121723671E+03  0.18696482754E+03  0.12855883402E+03 0.  0.
          5    1    4    4  502    0 -0.50398971760E+02 -0.49099069537E+02  0.21153159807E+02  0.73622830383E+02  0.47000000000E+01 0.  1.
         -5    1    4    4    0  502  0.18708184076E+02  0.34739275020E+02 -0.41457849459E+02  0.57425226705E+02  0.47000000000E+01 0.  1.
          5    1    5    5  503    0  0.54899752125E+02 -0.42932730357E+02 -0.56244726138E+02  0.89681443664E+02  0.47000000000E+01 0. -1.
         -5    1    5    5    0  503 -0.23208964441E+02  0.57292524873E+02 -0.74972510573E+02  0.97283383876E+02  0.47000000000E+01 0. -1.
<mgrwt>
<rscale>  0 0.27959489E+03</rscale>
<asrwt>0</asrwt>
<pdfrwt beam="1">  1        1 0.36118062E-01 0.27959489E+03</pdfrwt>
<pdfrwt beam="2">  1       -1 0.12806997E-01 0.27959489E+03</pdfrwt>
<totfact> 0.49151640E+03</totfact>
</mgrwt>
</event>
<event>
 9    1  0.7944303E-001  0.2719329E+03  0.7818608E-02  0.1100178E+00
          3   -1    0    0  501    0  0.00000000000E+00  0.00000000000E+00  0.20569012339E+03  0.20569012339E+03  0.00000000000E+00 0.  1.
         -3   -1    0    0    0  501 -0.00000000000E+00 -0.00000000000E+00 -0.89877305976E+02  0.89877305976E+02  0.00000000000E+00 0.  1.
         35    2    1    2    0    0  0.71054273576E-14  0.00000000000E+00  0.11581281741E+03  0.29556742936E+03  0.27193288993E+03 0.  0.
         25    2    3    3    0    0  0.31081876608E+02 -0.33455726500E+02  0.86941351423E+02  0.16008048618E+03  0.12641833245E+03 0.  0.
         25    2    3    3    0    0 -0.31081876608E+02  0.33455726500E+02  0.28871465989E+02  0.13548694318E+03  0.12424886935E+03 0.  0.
          5    1    4    4  502    0 -0.18341803042E+00 -0.95238954444E+00  0.10938213514E+03  0.10948736080E+03  0.47000000000E+01 0. -1.
         -5    1    4    4    0  502  0.31265294638E+02 -0.32503336955E+02 -0.22440783714E+02  0.50593125380E+02  0.47000000000E+01 0. -1.
          5    1    5    5  503    0  0.39260819977E+02  0.11887296364E+02  0.43877904854E+02  0.60250148004E+02  0.47000000000E+01 0. -1.
         -5    1    5    5    0  503 -0.70342696585E+02  0.21568430135E+02 -0.15006438865E+02  0.75236795179E+02  0.47000000000E+01 0. -1.
<mgrwt>
<rscale>  0 0.27193289E+03</rscale>
<asrwt>0</asrwt>
<pdfrwt beam="1">  1        3 0.31644634E-01 0.27193289E+03</pdfrwt>
<pdfrwt beam="2">  1       -3 0.13827278E-01 0.27193289E+03</pdfrwt>
<totfact> 0.10537456E+03</totfact>
</mgrwt>
</event>
<event>
 9    1  0.7944303E-001  0.2731949E+03  0.7818608E-02  0.1099465E+00
         -3   -1    0    0    0  501 -0.00000000000E+00  0.00000000000E+00  0.24171807424E+02  0.24171807424E+02  0.00000000000E+00 0.  1.
          3   -1    0    0  501    0  0.00000000000E+00 -0.00000000000E+00 -0.77192651224E+03  0.77192651224E+03  0.00000000000E+00 0.  1.
         35    2    1    2    0    0  0.71054273576E-14  0.00000000000E+00 -0.74775470482E+03  0.79609831966E+03  0.27319486818E+03 0.  0.
         25    2    3    3    0    0 -0.55990993302E+02 -0.12876564032E+02 -0.38412518517E+03  0.40822100554E+03  0.12566397357E+03 0.  0.
         25    2    3    3    0    0  0.55990993302E+02  0.12876564032E+02 -0.36362951965E+03  0.38787731412E+03  0.12215394394E+03 0.  0.
          5    1    4    4  502    0  0.17837688539E+02  0.75168638556E+01 -0.38594237627E+01  0.20289690151E+02  0.47000000000E+01 0.  1.
         -5    1    4    4    0  502 -0.73828681841E+02 -0.20393427888E+02 -0.38026576141E+03  0.38793131539E+03  0.47000000000E+01 0.  1.
          5    1    5    5  503    0 -0.34018889338E+02 -0.66560580036E+01 -0.50379108472E+02  0.61332964305E+02  0.47000000000E+01 0. -1.
         -5    1    5    5    0  503  0.90009882640E+02  0.19532622036E+02 -0.31325041117E+03  0.32654434982E+03  0.47000000000E+01 0. -1.
<mgrwt>
<rscale>  0 0.27319487E+03</rscale>
<asrwt>0</asrwt>
<pdfrwt beam="1">  1        3 0.11875794E+00 0.27319487E+03</pdfrwt>
<pdfrwt beam="2">  1       -3 0.37187392E-02 0.27319487E+03</pdfrwt>
<totfact> 0.56091587E+02</totfact>
</mgrwt>
</event>
<event>
 9    1  0.7944303E-001  0.2752942E+03  0.7818608E-02  0.1098287E+00
          1   -1    0    0  501    0  0.00000000000E+00  0.00000000000E+00  0.81497190820E+02  0.81497190820E+02  0.00000000000E+00 0. -1.
         -1   -1    0    0    0  501 -0.00000000000E+00 -0.00000000000E+00 -0.23248317516E+03  0.23248317516E+03  0.00000000000E+00 0. -1.
         35    2    1    2    0    0  0.00000000000E+00  0.35527136788E-14 -0.15098598434E+03  0.31398036599E+03  0.27529421126E+03 0.  0.
         25    2    3    3    0    0  0.42665482284E+02  0.12655100775E+02 -0.33864136560E+02  0.13674073933E+03  0.12478283172E+03 0.  0.
         25    2    3    3    0    0 -0.42665482284E+02 -0.12655100775E+02 -0.11712184778E+03  0.17723962666E+03  0.12536292544E+03 0.  0.
          5    1    4    4  502    0  0.33006966593E+01  0.50397487870E+02  0.24837610823E+02  0.56478299315E+02  0.47000000000E+01 0.  1.
         -5    1    4    4    0  502  0.39364785625E+02 -0.37742387096E+02 -0.58701747383E+02  0.80262440012E+02  0.47000000000E+01 0.  1.
          5    1    5    5  503    0 -0.41221684508E+02  0.18914455129E+02  0.95621935006E+01  0.46588726438E+02  0.47000000000E+01 0.  1.
         -5    1    5    5    0  503 -0.14437977755E+01 -0.31569555904E+02 -0.12668404129E+03  0.13065090022E+03  0.47000000000E+01 0.  1.
<mgrwt>
<rscale>  0 0.27529421E+03</rscale>
<asrwt>0</asrwt>
<pdfrwt beam="1">  1        1 0.12538030E-01 0.27529421E+03</pdfrwt>
<pdfrwt beam="2">  1       -1 0.35766642E-01 0.27529421E+03</pdfrwt>
<totfact> 0.35446591E+03</totfact>
</mgrwt>
</event>
<event>
 9    1  0.7944303E-001  0.2751512E+03  0.7818608E-02  0.1098367E+00
          2   -1    0    0  501    0  0.00000000000E+00  0.00000000000E+00  0.80133843721E+03  0.80133843721E+03  0.00000000000E+00 0. -1.
         -2   -1    0    0    0  501 -0.00000000000E+00 -0.00000000000E+00 -0.23619286615E+02  0.23619286615E+02  0.00000000000E+00 0. -1.
         35    2    1    2    0    0  0.35527136788E-14 -0.88817841970E-14  0.77771915060E+03  0.82495772383E+03  0.27515117462E+03 0.  0.
         25    2    3    3    0    0  0.27777779244E+02  0.14777517353E+02  0.52837572316E+03  0.54380594416E+03  0.12471575698E+03 0.  0.
         25    2    3    3    0    0 -0.27777779244E+02 -0.14777517353E+02  0.24934342743E+03  0.28115177967E+03  0.12603252900E+03 0.  0.
          5    1    4    4  502    0  0.39071599441E+02 -0.39973440033E+02  0.39714069737E+03  0.40108264647E+03  0.47000000000E+01 0. -1.
         -5    1    4    4    0  502 -0.11293820197E+02  0.54750957386E+02  0.13123502579E+03  0.14272329769E+03  0.47000000000E+01 0. -1.
          5    1    5    5  503    0 -0.38692663060E+02  0.94490801748E+01  0.25093574663E+03  0.25412053484E+03  0.47000000000E+01 0.  1.
         -5    1    5    5    0  503  0.10914883816E+02 -0.24226597528E+02 -0.15923191945E+01  0.27031244827E+02  0.47000000000E+01 0.  1.
<mgrwt>
<rscale>  0 0.27515117E+03</rscale>
<asrwt>0</asrwt>
<pdfrwt beam="1">  1        2 0.12328282E+00 0.27515117E+03</pdfrwt>
<pdfrwt beam="2">  1       -2 0.36337370E-02 0.27515117E+03</pdfrwt>
<totfact> 0.11208142E+04</totfact>
</mgrwt>
</event>
<event>
 9    1  0.7944303E-001  0.2751506E+03  0.7818608E-02  0.1098367E+00
          1   -1    0    0  501    0  0.00000000000E+00  0.00000000000E+00  0.94186313973E+03  0.94186313973E+03  0.00000000000E+00 0.  1.
         -1   -1    0    0    0  501 -0.00000000000E+00 -0.00000000000E+00 -0.20095238412E+02  0.20095238412E+02  0.00000000000E+00 0.  1.
         35    2    1    2    0    0  0.35527136788E-14 -0.71054273576E-14  0.92176790132E+03  0.96195837815E+03  0.27515060854E+03 0.  0.
         25    2    3    3    0    0  0.24022689766E+02  0.38580234360E+02  0.33215217461E+03  0.35765623024E+03  0.12460893959E+03 0.  0.
         25    2    3    3    0    0 -0.24022689766E+02 -0.38580234360E+02  0.58961572671E+03  0.60430214790E+03  0.12437385846E+03 0.  0.
          5    1    4    4  502    0  0.52351040371E+02 -0.23171449631E+02  0.21095676848E+03  0.21863758980E+03  0.47000000000E+01 0. -1.
         -5    1    4    4    0  502 -0.28328350605E+02  0.61751683991E+02  0.12119540613E+03  0.13901864044E+03  0.47000000000E+01 0. -1.
          5    1    5    5  503    0 -0.10332470271E+02  0.57083004158E+01 -0.14222128314E+00  0.12706488989E+02  0.47000000000E+01 0. -1.
         -5    1    5    5    0  503 -0.13690219494E+02 -0.44288534776E+02  0.58975794799E+03  0.59159565891E+03  0.47000000000E+01 0. -1.
<mgrwt>
<rscale>  0 0.27515061E+03</rscale>
<asrwt>0</asrwt>
<pdfrwt beam="1">  1        1 0.14490199E+00 0.27515061E+03</pdfrwt>
<pdfrwt beam="2">  1       -1 0.30915759E-02 0.27515061E+03</pdfrwt>
<totfact> 0.63832830E+03</totfact>
</mgrwt>
</event>
<event>
 9    1  0.7944303E-001  0.2688401E+03  0.7818608E-02  0.1101945E+00
          2   -1    0    0  501    0  0.00000000000E+00  0.00000000000E+00  0.28978318143E+03  0.28978318143E+03  0.00000000000E+00 0.  1.
         -2   -1    0    0    0  501 -0.00000000000E+00 -0.00000000000E+00 -0.62352670618E+02  0.62352670618E+02  0.00000000000E+00 0.  1.
         35    2    1    2    0    0  0.00000000000E+00  0.71054273576E-14  0.22743051081E+03  0.35213585205E+03  0.26884014032E+03 0.  0.
         25    2    3    3    0    0 -0.27653954786E+02 -0.19450160668E+02  0.16413440303E+03  0.20876234372E+03  0.12449322846E+03 0.  0.
         25    2    3    3    0    0  0.27653954786E+02  0.19450160668E+02  0.63296107781E+02  0.14337350833E+03  0.12412298604E+03 0.  0.
          5    1    4    4  502    0  0.85836883915E+01 -0.67174537666E+02  0.99997951144E+02  0.12086264291E+03  0.47000000000E+01 0. -1.
         -5    1    4    4    0  502 -0.36237643178E+02  0.47724376998E+02  0.64136451885E+02  0.87899700815E+02  0.47000000000E+01 0. -1.
          5    1    5    5  503    0 -0.86640703429E+01 -0.41119326199E+02  0.58834922843E+02  0.72453455735E+02  0.47000000000E+01 0.  1.
         -5    1    5    5    0  503  0.36318025129E+02  0.60569486866E+02  0.44611849378E+01  0.70920052591E+02  0.47000000000E+01 0.  1.
<mgrwt>
<rscale>  0 0.26884014E+03</rscale>
<asrwt>0</asrwt>
<pdfrwt beam="1">  1        2 0.44582027E-01 0.26884014E+03</pdfrwt>
<pdfrwt beam="2">  1       -2 0.95927188E-02 0.26884014E+03</pdfrwt>
<totfact> 0.79800115E+03</totfact>
</mgrwt>
</event>
<event>
 9    1  0.7944303E-001  0.2735684E+03  0.7818608E-02  0.1099255E+00
         -2   -1    0    0    0  501 -0.00000000000E+00  0.00000000000E+00  0.11420825262E+03  0.11420825262E+03  0.00000000000E+00 0.  1.
          2   -1    0    0  501    0  0.00000000000E+00 -0.00000000000E+00 -0.16382282898E+03  0.16382282898E+03  0.00000000000E+00 0.  1.
         35    2    1    2    0    0  0.00000000000E+00  0.00000000000E+00 -0.49614576350E+02  0.27803108160E+03  0.27356841219E+03 0.  0.
         25    2    3    3    0    0  0.24785752578E+02 -0.49016779363E+02 -0.32295952836E+02  0.14040589248E+03  0.12511517847E+03 0.  0.
         25    2    3    3    0    0 -0.24785752578E+02  0.49016779363E+02 -0.17318623514E+02  0.13762518912E+03  0.12499511899E+03 0.  0.
          5    1    4    4  502    0 -0.87722893820E+01 -0.83597628167E+02 -0.36599569227E+02  0.91799427906E+02  0.47000000000E+01 0.  1.
         -5    1    4    4    0  502  0.33558041961E+02  0.34580848804E+02  0.43036163912E+01  0.48606464573E+02  0.47000000000E+01 0.  1.
          5    1    5    5  503    0 -0.55879710147E+02  0.48453062822E+02 -0.52206830954E+02  0.90652548234E+02  0.47000000000E+01 0. -1.
         -5    1    5    5    0  503  0.31093957569E+02  0.56371654059E+00  0.34888207440E+02  0.46972640888E+02  0.47000000000E+01 0. -1.
<mgrwt>
<rscale>  0 0.27356841E+03</rscale>
<asrwt>0</asrwt>
<pdfrwt beam="1">  1        2 0.25203512E-01 0.27356841E+03</pdfrwt>
<pdfrwt beam="2">  1       -2 0.17570500E-01 0.27356841E+03</pdfrwt>
<totfact> 0.55502241E+03</totfact>
</mgrwt>
</event>
<event>
 9    1  0.7944303E-001  0.2763172E+03  0.7818608E-02  0.1097718E+00
         -2   -1    0    0    0  501 -0.00000000000E+00  0.00000000000E+00  0.56309736082E+02  0.56309736082E+02  0.00000000000E+00 0.  1.
          2   -1    0    0  501    0  0.00000000000E+00 -0.00000000000E+00 -0.33897866831E+03  0.33897866831E+03  0.00000000000E+00 0.  1.
         35    2    1    2    0    0  0.00000000000E+00  0.35527136788E-14 -0.28266893223E+03  0.39528840439E+03  0.27631720431E+03 0.  0.
         25    2    3    3    0    0  0.56909610665E+02  0.17363953786E+02 -0.13715216919E+03  0.19475522418E+03  0.12481453903E+03 0.  0.
         25    2    3    3    0    0 -0.56909610665E+02 -0.17363953786E+02 -0.14551676304E+03  0.20053318022E+03  0.12449183654E+03 0.  0.
          5    1    4    4  502    0  0.98955581494E+01 -0.24775139378E+02 -0.12794293498E+03  0.13077925758E+03  0.47000000000E+01 0.  1.
         -5    1    4    4    0  502  0.47014052516E+02  0.42139093163E+02 -0.92092342065E+01  0.63975966591E+02  0.47000000000E+01 0.  1.
          5    1    5    5  503    0  0.62444816079E+01  0.55121799612E+01  0.19822406445E+02  0.22008986250E+02  0.47000000000E+01 0. -1.
         -5    1    5    5    0  503 -0.63154092273E+02 -0.22876133747E+02 -0.16533916948E+03  0.17852419397E+03  0.47000000000E+01 0. -1.
<mgrwt>
<rscale>  0 0.27631720E+03</rscale>
<asrwt>0</asrwt>
<pdfrwt beam="1">  1        2 0.52150565E-01 0.27631720E+03</pdfrwt>
<pdfrwt beam="2">  1       -2 0.86630362E-02 0.27631720E+03</pdfrwt>
<totfact> 0.79257244E+03</totfact>
</mgrwt>
</event>
<event>
 9    1  0.7944303E-001  0.2870950E+03  0.7818608E-02  0.1091876E+00
         -1   -1    0    0    0  501 -0.00000000000E+00  0.00000000000E+00  0.17112265740E+02  0.17112265740E+02  0.00000000000E+00 0. -1.
          1   -1    0    0  501    0  0.00000000000E+00 -0.00000000000E+00 -0.12041587283E+04  0.12041587283E+04  0.00000000000E+00 0. -1.
         35    2    1    2    0    0  0.00000000000E+00 -0.17763568394E-14 -0.11870464626E+04  0.12212709941E+04  0.28709499579E+03 0.  0.
         25    2    3    3    0    0  0.67295656347E+02  0.11430450693E+02 -0.55157864098E+03  0.56958357821E+03  0.12460776384E+03 0.  0.
         25    2    3    3    0    0 -0.67295656347E+02 -0.11430450693E+02 -0.63546782161E+03  0.65168741586E+03  0.12734902877E+03 0.  0.
          5    1    4    4  502    0  0.11217198426E+02  0.61741313695E+02 -0.18801952328E+03  0.19827063951E+03  0.47000000000E+01 0. -1.
         -5    1    4    4    0  502  0.56078457921E+02 -0.50310863002E+02 -0.36355911771E+03  0.37131293870E+03  0.47000000000E+01 0. -1.
          5    1    5    5  503    0 -0.30140194329E+02  0.14827063398E+02 -0.57434501386E+03  0.57534559881E+03  0.47000000000E+01 0.  1.
         -5    1    5    5    0  503 -0.37155462018E+02 -0.26257514091E+02 -0.61122807741E+02  0.76341817048E+02  0.47000000000E+01 0.  1.
<mgrwt>
<rscale>  0 0.28709500E+03</rscale>
<asrwt>0</asrwt>
<pdfrwt beam="1">  1        1 0.18525516E+00 0.28709500E+03</pdfrwt>
<pdfrwt beam="2">  1       -1 0.26326567E-02 0.28709500E+03</pdfrwt>
<totfact> 0.52086653E+03</totfact>
</mgrwt>
</event>
<event>
 9    1  0.7944303E-001  0.2707044E+03  0.7818608E-02  0.1100877E+00
         -1   -1    0    0    0  501 -0.00000000000E+00  0.00000000000E+00  0.87376373590E+01  0.87376373590E+01  0.00000000000E+00 0. -1.
          1   -1    0    0  501    0  0.00000000000E+00 -0.00000000000E+00 -0.20967020620E+04  0.20967020620E+04  0.00000000000E+00 0. -1.
         35    2    1    2    0    0 -0.17763568394E-14  0.14210854715E-13 -0.20879644247E+04  0.21054396994E+04  0.27070443120E+03 0.  0.
         25    2    3    3    0    0  0.85721947501E+01 -0.42240660222E+02 -0.82918965767E+03  0.83970656706E+03  0.12527519496E+03 0.  0.
         25    2    3    3    0    0 -0.85721947501E+01  0.42240660222E+02 -0.12587747670E+04  0.12657331323E+04  0.12533432230E+03 0.  0.
          5    1    4    4  502    0 -0.46798271152E+02  0.17892709936E+02 -0.28944000677E+03  0.29378195107E+03  0.47000000000E+01 0. -1.
         -5    1    4    4    0  502  0.55370465902E+02 -0.60133370158E+02 -0.53974965090E+03  0.54592461599E+03  0.47000000000E+01 0. -1.
          5    1    5    5  503    0 -0.12406978900E+02 -0.37606884668E+02 -0.71307643332E+03  0.71419066128E+03  0.47000000000E+01 0. -1.
         -5    1    5    5    0  503  0.38347841496E+01  0.79847544890E+02 -0.54569833366E+03  0.55154247103E+03  0.47000000000E+01 0. -1.
<mgrwt>
<rscale>  0 0.27070443E+03</rscale>
<asrwt>0</asrwt>
<pdfrwt beam="1">  1        1 0.32256984E+00 0.27070443E+03</pdfrwt>
<pdfrwt beam="2">  1       -1 0.13442507E-02 0.27070443E+03</pdfrwt>
<totfact> 0.35739364E+03</totfact>
</mgrwt>
</event>
<event>
 9    1  0.7944303E-001  0.2723226E+03  0.7818608E-02  0.1099958E+00
         -2   -1    0    0    0  501 -0.00000000000E+00  0.00000000000E+00  0.78033052288E+01  0.78033052288E+01  0.00000000000E+00 0.  1.
          2   -1    0    0  501    0  0.00000000000E+00 -0.00000000000E+00 -0.23759026708E+04  0.23759026708E+04  0.00000000000E+00 0.  1.
         35    2    1    2    0    0  0.00000000000E+00  0.00000000000E+00 -0.23680993656E+04  0.23837059761E+04  0.27232255679E+03 0.  0.
         25    2    3    3    0    0  0.35318681929E+01 -0.29075528374E+02 -0.15742686943E+04  0.15794633251E+04  0.12459780557E+03 0.  0.
         25    2    3    3    0    0 -0.35318681929E+01  0.29075528374E+02 -0.79383067134E+03  0.80424265097E+03  0.12562343102E+03 0.  0.
          5    1    4    4  502    0 -0.20705811788E+02  0.33796691379E+01 -0.14115160203E+04  0.14116797506E+04  0.47000000000E+01 0.  1.
         -5    1    4    4    0  502  0.24237679981E+02 -0.32455197512E+02 -0.16275267400E+03  0.16778357450E+03  0.47000000000E+01 0.  1.
          5    1    5    5  503    0  0.31653837859E+02  0.20349296859E+02 -0.72764891532E+03  0.72863646168E+03  0.47000000000E+01 0. -1.
         -5    1    5    5    0  503 -0.35185706052E+02  0.87262315146E+01 -0.66181756029E+02  0.75606189283E+02  0.47000000000E+01 0. -1.
<mgrwt>
<rscale>  0 0.27232256E+03</rscale>
<asrwt>0</asrwt>
<pdfrwt beam="1">  1        2 0.36552374E+00 0.27232256E+03</pdfrwt>
<pdfrwt beam="2">  1       -2 0.12005077E-02 0.27232256E+03</pdfrwt>
<totfact> 0.76556956E+03</totfact>
</mgrwt>
</event>
<event>
 9    1  0.7944303E-001  0.2715596E+03  0.7818608E-02  0.1100390E+00
         -2   -1    0    0    0  501 -0.00000000000E+00  0.00000000000E+00  0.19254078639E+02  0.19254078639E+02  0.00000000000E+00 0.  1.
          2   -1    0    0  501    0  0.00000000000E+00 -0.00000000000E+00 -0.95751973505E+03  0.95751973505E+03  0.00000000000E+00 0.  1.
         35    2    1    2    0    0  0.00000000000E+00  0.00000000000E+00 -0.93826565642E+03  0.97677381369E+03  0.27155964558E+03 0.  0.
         25    2    3    3    0    0  0.48401636307E+02  0.23681580673E+02 -0.45879368028E+03  0.47852288796E+03  0.12485582717E+03 0.  0.
         25    2    3    3    0    0 -0.48401636307E+02 -0.23681580673E+02 -0.47947197614E+03  0.49825092573E+03  0.12432647921E+03 0.  0.
          5    1    4    4  502    0 -0.20402973310E+02  0.28318908125E+02 -0.36917859369E+02  0.51022154185E+02  0.47000000000E+01 0.  1.
         -5    1    4    4    0  502  0.68804609618E+02 -0.46373274525E+01 -0.42187582091E+03  0.42750073378E+03  0.47000000000E+01 0.  1.
          5    1    5    5  503    0  0.37434817944E+02 -0.28669618534E+02 -0.21316531309E+03  0.21836861799E+03  0.47000000000E+01 0. -1.
         -5    1    5    5    0  503 -0.85836454251E+02  0.49880378610E+01 -0.26630666305E+03  0.27988230774E+03  0.47000000000E+01 0. -1.
<mgrwt>
<rscale>  0 0.27155965E+03</rscale>
<asrwt>0</asrwt>
<pdfrwt beam="1">  1        2 0.14731070E+00 0.27155965E+03</pdfrwt>
<pdfrwt beam="2">  1       -2 0.29621665E-02 0.27155965E+03</pdfrwt>
<totfact> 0.12007889E+04</totfact>
</mgrwt>
</event>
<event>
 9    1  0.7944303E-001  0.2765575E+03  0.7818608E-02  0.1097584E+00
         -2   -1    0    0    0  501 -0.00000000000E+00  0.00000000000E+00  0.58303663816E+01  0.58303663816E+01  0.00000000000E+00 0.  1.
          2   -1    0    0  501    0  0.00000000000E+00 -0.00000000000E+00 -0.32795563684E+04  0.32795563684E+04  0.00000000000E+00 0.  1.
         35    2    1    2    0    0  0.00000000000E+00  0.00000000000E+00 -0.32737260021E+04  0.32853867348E+04  0.27655751805E+03 0.  0.
         25    2    3    3    0    0  0.39865177603E+02 -0.43883696864E+02 -0.15789579995E+04  0.15849960598E+04  0.12485645443E+03 0.  0.
         25    2    3    3    0    0 -0.39865177603E+02  0.43883696864E+02 -0.16947680025E+04  0.17003906750E+04  0.12479925446E+03 0.  0.
          5    1    4    4  502    0 -0.25355555934E+02 -0.14765287812E+02 -0.11280947772E+04  0.11284860807E+04  0.47000000000E+01 0.  1.
         -5    1    4    4    0  502  0.65220733537E+02 -0.29118409052E+02 -0.45086322228E+03  0.45650997912E+03  0.47000000000E+01 0.  1.
          5    1    5    5  503    0 -0.49013897657E+02  0.70226811112E+02 -0.70201781115E+03  0.70723777072E+03  0.47000000000E+01 0.  1.
         -5    1    5    5    0  503  0.91487200536E+01 -0.26343114248E+02 -0.99275019138E+03  0.99315290426E+03  0.47000000000E+01 0.  1.
<mgrwt>
<rscale>  0 0.27655752E+03</rscale>
<asrwt>0</asrwt>
<pdfrwt beam="1">  1        2 0.50454649E+00 0.27655752E+03</pdfrwt>
<pdfrwt beam="2">  1       -2 0.89698059E-03 0.27655752E+03</pdfrwt>
<totfact> 0.35123108E+03</totfact>
</mgrwt>
</event>
<event>
 9    1  0.7944303E-001  0.2742634E+03  0.7818608E-02  0.1098864E+00
         -1   -1    0    0    0  501 -0.00000000000E+00  0.00000000000E+00  0.90609232459E+01  0.90609232459E+01  0.00000000000E+00 0.  1.
          1   -1    0    0  501    0  0.00000000000E+00 -0.00000000000E+00 -0.20754075584E+04  0.20754075584E+04  0.00000000000E+00 0.  1.
         35    2    1    2    0    0 -0.71054273576E-14  0.00000000000E+00 -0.20663466351E+04  0.20844684816E+04  0.27426343971E+03 0.  0.
         25    2    3    3    0    0 -0.24146584252E+02  0.12496531284E+01 -0.14197522617E+04  0.14254410666E+04  0.12490448642E+03 0.  0.
         25    2    3    3    0    0  0.24146584252E+02 -0.12496531284E+01 -0.64659437345E+03  0.65902741499E+03  0.12509288856E+03 0.  0.
          5    1    4    4  502    0 -0.66110498920E+02  0.33186949537E+02 -0.79294642956E+03  0.79640322817E+03  0.47000000000E+01 0.  1.
         -5    1    4    4    0  502  0.41963914668E+02 -0.31937296408E+02 -0.62680583213E+03  0.62903783847E+03  0.47000000000E+01 0.  1.
          5    1    5    5  503    0  0.12965406588E+02  0.27861973456E+02 -0.60969520999E+03  0.61048728932E+03  0.47000000000E+01 0. -1.
         -5    1    5    5    0  503  0.11181177664E+02 -0.29111626585E+02 -0.36899163457E+02  0.48540125672E+02  0.47000000000E+01 0. -1.
<mgrwt>
<rscale>  0 0.27426344E+03</rscale>
<asrwt>0</asrwt>
<pdfrwt beam="1">  1        1 0.31929375E+00 0.27426344E+03</pdfrwt>
<pdfrwt beam="2">  1       -1 0.13939870E-02 0.27426344E+03</pdfrwt>
<totfact> 0.34997397E+03</totfact>
</mgrwt>
</event>
<event>
 9    1  0.7944303E-001  0.2822986E+03  0.7818608E-02  0.1094440E+00
         -1   -1    0    0    0  501 -0.00000000000E+00  0.00000000000E+00  0.24212024907E+02  0.24212024907E+02  0.00000000000E+00 0.  1.
          1   -1    0    0  501    0  0.00000000000E+00 -0.00000000000E+00 -0.82286070999E+03  0.82286070999E+03  0.00000000000E+00 0.  1.
         35    2    1    2    0    0  0.00000000000E+00 -0.71054273576E-14 -0.79864868509E+03  0.84707273490E+03  0.28229859373E+03 0.  0.
         25    2    3    3    0    0 -0.58015188661E+02  0.18719321765E+02 -0.32135087263E+03  0.35002074578E+03  0.12462730044E+03 0.  0.
         25    2    3    3    0    0  0.58015188661E+02 -0.18719321765E+02 -0.47729781246E+03  0.49705198912E+03  0.12462464840E+03 0.  0.
          5    1    4    4  502    0 -0.40200068992E+02 -0.42932475854E+02 -0.75121776813E+02  0.95522847432E+02  0.47000000000E+01 0. -1.
         -5    1    4    4    0  502 -0.17815119669E+02  0.61651797619E+02 -0.24622909581E+03  0.25449789835E+03  0.47000000000E+01 0. -1.
          5    1    5    5  503    0  0.18695417736E+02  0.52922527349E+02 -0.17310362135E+03  0.18203644215E+03  0.47000000000E+01 0. -1.
         -5    1    5    5    0  503  0.39319770925E+02 -0.71641849114E+02 -0.30419419111E+03  0.31501554697E+03  0.47000000000E+01 0. -1.
<mgrwt>
<rscale>  0 0.28229859E+03</rscale>
<asrwt>0</asrwt>
<pdfrwt beam="1">  1        1 0.12659395E+00 0.28229859E+03</pdfrwt>
<pdfrwt beam="2">  1       -1 0.37249272E-02 0.28229859E+03</pdfrwt>
<totfact> 0.60255978E+03</totfact>
</mgrwt>
</event>
<event>
 9    1  0.7944303E-001  0.2785439E+03  0.7818608E-02  0.1096487E+00
         -2   -1    0    0    0  501 -0.00000000000E+00  0.00000000000E+00  0.12081078700E+02  0.12081078700E+02  0.00000000000E+00 0.  1.
          2   -1    0    0  501    0  0.00000000000E+00 -0.00000000000E+00 -0.16055418700E+04  0.16055418700E+04  0.00000000000E+00 0.  1.
         35    2    1    2    0    0 -0.71054273576E-14  0.35527136788E-14 -0.15934607913E+04  0.16176229487E+04  0.27854391171E+03 0.  0.
         25    2    3    3    0    0 -0.58901104018E+02 -0.21146550896E+02 -0.84392217532E+03  0.85533691541E+03  0.12441898653E+03 0.  0.
         25    2    3    3    0    0  0.58901104018E+02  0.21146550896E+02 -0.74953861600E+03  0.76228603330E+03  0.12391667775E+03 0.  0.
          5    1    4    4  502    0 -0.78365488287E+02 -0.51972262884E+02 -0.71839886973E+03  0.72454212568E+03  0.47000000000E+01 0.  1.
         -5    1    4    4    0  502  0.19464384269E+02  0.30825711988E+02 -0.12552330559E+03  0.13079478973E+03  0.47000000000E+01 0.  1.
          5    1    5    5  503    0  0.72057660988E+02  0.62005071125E+02 -0.54351871524E+03  0.55178946997E+03  0.47000000000E+01 0. -1.
         -5    1    5    5    0  503 -0.13156556970E+02 -0.40858520228E+02 -0.20601990076E+03  0.21049656333E+03  0.47000000000E+01 0. -1.
<mgrwt>
<rscale>  0 0.27854391E+03</rscale>
<asrwt>0</asrwt>
<pdfrwt beam="1">  1        2 0.24700650E+00 0.27854391E+03</pdfrwt>
<pdfrwt beam="2">  1       -2 0.18586271E-02 0.27854391E+03</pdfrwt>
<totfact> 0.10325298E+04</totfact>
</mgrwt>
</event>
<event>
 9    1  0.7944303E-001  0.2754225E+03  0.7818608E-02  0.1098216E+00
         -2   -1    0    0    0  501 -0.00000000000E+00  0.00000000000E+00  0.30159788676E+02  0.30159788676E+02  0.00000000000E+00 0. -1.
          2   -1    0    0  501    0  0.00000000000E+00 -0.00000000000E+00 -0.62879715262E+03  0.62879715262E+03  0.00000000000E+00 0. -1.
         35    2    1    2    0    0 -0.71054273576E-14  0.00000000000E+00 -0.59863736394E+03  0.65895694130E+03  0.27542250629E+03 0.  0.
         25    2    3    3    0    0 -0.29321527001E+02  0.38973694772E+02 -0.21808398161E+03  0.25530239844E+03  0.12345035758E+03 0.  0.
         25    2    3    3    0    0  0.29321527001E+02 -0.38973694772E+02 -0.38055338234E+03  0.40365454286E+03  0.12544884348E+03 0.  0.
          5    1    4    4  502    0 -0.66383813491E+02 -0.65135216263E+01 -0.74425245272E+02  0.10005220533E+03  0.47000000000E+01 0.  1.
         -5    1    4    4    0  502  0.37062286490E+02  0.45487216398E+02 -0.14365873633E+03  0.15525019311E+03  0.47000000000E+01 0.  1.
          5    1    5    5  503    0  0.51663766369E+02 -0.52677855048E+02 -0.36583124889E+03  0.37322740230E+03  0.47000000000E+01 0. -1.
         -5    1    5    5    0  503 -0.22342239368E+02  0.13704160276E+02 -0.14722133450E+02  0.30427140552E+02  0.47000000000E+01 0. -1.
<mgrwt>
<rscale>  0 0.27542251E+03</rscale>
<asrwt>0</asrwt>
<pdfrwt beam="1">  1        2 0.96738017E-01 0.27542251E+03</pdfrwt>
<pdfrwt beam="2">  1       -2 0.46399678E-02 0.27542251E+03</pdfrwt>
<totfact> 0.10428838E+04</totfact>
</mgrwt>
</event>
<event>
 9    1  0.7944303E-001  0.2856390E+03  0.7818608E-02  0.1092648E+00
          1   -1    0    0  501    0  0.00000000000E+00  0.00000000000E+00  0.17465904073E+04  0.17465904073E+04  0.00000000000E+00 0.  1.
         -1   -1    0    0    0  501 -0.00000000000E+00 -0.00000000000E+00 -0.11678418175E+02  0.11678418175E+02  0.00000000000E+00 0.  1.
         35    2    1    2    0    0 -0.35527136788E-14 -0.14210854715E-13  0.17349119891E+04  0.17582688255E+04  0.28563902505E+03 0.  0.
         25    2    3    3    0    0 -0.40193467871E+01  0.63222047419E+02  0.10377615109E+04  0.10472253594E+04  0.12537470875E+03 0.  0.
         25    2    3    3    0    0  0.40193467871E+01 -0.63222047419E+02  0.69715047827E+03  0.71104346604E+03  0.12470300247E+03 0.  0.
          5    1    4    4  502    0 -0.64574046126E+01  0.90415073290E+02  0.96674199852E+03  0.97099369991E+03  0.47000000000E+01 0. -1.
         -5    1    4    4    0  502  0.24380578255E+01 -0.27193025870E+02  0.71019512347E+02  0.76231659538E+02  0.47000000000E+01 0. -1.
          5    1    5    5  503    0  0.47692412445E+02 -0.38982602688E+02  0.15931213952E+03  0.17087029383E+03  0.47000000000E+01 0.  1.
         -5    1    5    5    0  503 -0.43673065658E+02 -0.24239444732E+02  0.53783833875E+03  0.54017317221E+03  0.47000000000E+01 0.  1.
<mgrwt>
<rscale>  0 0.28563903E+03</rscale>
<asrwt>0</asrwt>
<pdfrwt beam="1">  1        1 0.26870601E+00 0.28563903E+03</pdfrwt>
<pdfrwt beam="2">  1       -1 0.17966811E-02 0.28563903E+03</pdfrwt>
<totfact> 0.39544225E+03</totfact>
</mgrwt>
</event>
<event>
 9    1  0.7944303E-001  0.2653507E+03  0.7818608E-02  0.1103970E+00
          4   -1    0    0  501    0  0.00000000000E+00  0.00000000000E+00  0.12283128400E+02  0.12283128400E+02  0.00000000000E+00 0.  1.
         -4   -1    0    0    0  501 -0.00000000000E+00 -0.00000000000E+00 -0.14330838522E+04  0.14330838522E+04  0.00000000000E+00 0.  1.
         35    2    1    2    0    0  0.17763568394E-14  0.00000000000E+00 -0.14208007238E+04  0.14453669806E+04  0.26535073367E+03 0.  0.
         25    2    3    3    0    0  0.31217055444E+01  0.22864094883E+01 -0.93656137837E+03  0.94542833315E+03  0.12912220936E+03 0.  0.
         25    2    3    3    0    0 -0.31217055444E+01 -0.22864094883E+01 -0.48423934543E+03  0.49993864745E+03  0.12424143769E+03 0.  0.
          5    1    4    4  502    0  0.48975641786E+02 -0.16723189776E+02 -0.18344194167E+03  0.19066020699E+03  0.47000000000E+01 0. -1.
         -5    1    4    4    0  502 -0.45853936242E+02  0.19009599264E+02 -0.75311943670E+03  0.75476812616E+03  0.47000000000E+01 0. -1.
          5    1    5    5  503    0 -0.68795969183E+01  0.22863822803E+02 -0.12254745463E+02  0.27246137952E+02  0.47000000000E+01 0. -1.
         -5    1    5    5    0  503  0.37578913738E+01 -0.25150232292E+02 -0.47198459996E+03  0.47269250950E+03  0.47000000000E+01 0. -1.
<mgrwt>
<rscale>  0 0.26535073E+03</rscale>
<asrwt>0</asrwt>
<pdfrwt beam="1">  1        4 0.18897120E-02 0.26535073E+03</pdfrwt>
<pdfrwt beam="2">  1       -4 0.22047444E+00 0.26535073E+03</pdfrwt>
<totfact> 0.22219285E+02</totfact>
</mgrwt>
</event>
<event>
 9    1  0.7944303E-001  0.2842970E+03  0.7818608E-02  0.1093365E+00
          1   -1    0    0  501    0  0.00000000000E+00  0.00000000000E+00  0.13162412362E+03  0.13162412362E+03  0.00000000000E+00 0. -1.
         -1   -1    0    0    0  501 -0.00000000000E+00 -0.00000000000E+00 -0.15351439371E+03  0.15351439371E+03  0.00000000000E+00 0. -1.
         35    2    1    2    0    0 -0.53290705182E-14  0.88817841970E-15 -0.21890270091E+02  0.28513851732E+03  0.28429701042E+03 0.  0.
         25    2    3    3    0    0  0.14031114601E+02 -0.14260771708E+01  0.54027023316E+02  0.13765423008E+03  0.12582075320E+03 0.  0.
         25    2    3    3    0    0 -0.14031114601E+02  0.14260771708E+01 -0.75917293408E+02  0.14748428724E+03  0.12565537662E+03 0.  0.
          5    1    4    4  502    0  0.65595063309E+02  0.67991073528E+01  0.53782552264E+02  0.85226715995E+02  0.47000000000E+01 0.  1.
         -5    1    4    4    0  502 -0.51563948708E+02 -0.82251845236E+01  0.24447105249E+00  0.52427514083E+02  0.47000000000E+01 0.  1.
          5    1    5    5  503    0  0.10829469131E+02  0.25196190556E+02 -0.10093087119E+03  0.10469601797E+03  0.47000000000E+01 0.  1.
         -5    1    5    5    0  503 -0.24860583732E+02 -0.23770113385E+02  0.25013577782E+02  0.42788269272E+02  0.47000000000E+01 0.  1.
<mgrwt>
<rscale>  0 0.28429701E+03</rscale>
<asrwt>0</asrwt>
<pdfrwt beam="1">  1        1 0.20249865E-01 0.28429701E+03</pdfrwt>
<pdfrwt beam="2">  1       -1 0.23617599E-01 0.28429701E+03</pdfrwt>
<totfact> 0.38317145E+03</totfact>
</mgrwt>
</event>
<event>
 9    1  0.7944303E-001  0.2747833E+03  0.7818608E-02  0.1098573E+00
         -1   -1    0    0    0  501 -0.00000000000E+00  0.00000000000E+00  0.41317394855E+02  0.41317394855E+02  0.00000000000E+00 0. -1.
          1   -1    0    0  501    0  0.00000000000E+00 -0.00000000000E+00 -0.45686494220E+03  0.45686494220E+03  0.00000000000E+00 0. -1.
         35    2    1    2    0    0 -0.53290705182E-14  0.00000000000E+00 -0.41554754734E+03  0.49818233705E+03  0.27478332710E+03 0.  0.
         25    2    3    3    0    0 -0.94603606982E+01  0.35578843176E+02 -0.28435983168E+03  0.31267692932E+03  0.12470363168E+03 0.  0.
         25    2    3    3    0    0  0.94603606982E+01 -0.35578843176E+02 -0.13118771567E+03  0.18550540773E+03  0.12588362503E+03 0.  0.
          5    1    4    4  502    0 -0.63573395320E+02  0.30452689759E+02 -0.20096547350E+03  0.21302148823E+03  0.47000000000E+01 0. -1.
         -5    1    4    4    0  502  0.54113034622E+02  0.51261534168E+01 -0.83394358176E+02  0.99655441098E+02  0.47000000000E+01 0. -1.
          5    1    5    5  503    0 -0.42614941898E+01  0.72417313101E+01 -0.13924942749E+03  0.13958186150E+03  0.47000000000E+01 0.  1.
         -5    1    5    5    0  503  0.13721854888E+02 -0.42820574486E+02  0.80617118192E+01  0.45923546230E+02  0.47000000000E+01 0.  1.
<mgrwt>
<rscale>  0 0.27478333E+03</rscale>
<asrwt>0</asrwt>
<pdfrwt beam="1">  1        1 0.70286919E-01 0.27478333E+03</pdfrwt>
<pdfrwt beam="2">  1       -1 0.63565218E-02 0.27478333E+03</pdfrwt>
<totfact> 0.61995715E+03</totfact>
</mgrwt>
</event>
<event>
 9    1  0.7944303E-001  0.2808452E+03  0.7818608E-02  0.1095228E+00
         -2   -1    0    0    0  501 -0.00000000000E+00  0.00000000000E+00  0.10834294344E+03  0.10834294344E+03  0.00000000000E+00 0.  1.
          2   -1    0    0  501    0  0.00000000000E+00 -0.00000000000E+00 -0.18200083550E+03  0.18200083550E+03  0.00000000000E+00 0.  1.
         35    2    1    2    0    0 -0.71054273576E-14  0.71054273576E-14 -0.73657892056E+02  0.29034377894E+03  0.28084519741E+03 0.  0.
         25    2    3    3    0    0  0.32073680824E+02 -0.31371943717E+02  0.14561386979E+02  0.12851578419E+03  0.11954644679E+03 0.  0.
         25    2    3    3    0    0 -0.32073680824E+02  0.31371943717E+02 -0.88219279036E+02  0.16182799475E+03  0.12803413154E+03 0.  0.
          5    1    4    4  502    0 -0.20144851692E+02  0.23545942535E+02 -0.27518393640E+02  0.41708253956E+02  0.47000000000E+01 0. -1.
         -5    1    4    4    0  502  0.52218532516E+02 -0.54917886251E+02  0.42079780619E+02  0.86807530234E+02  0.47000000000E+01 0. -1.
          5    1    5    5  503    0 -0.79630535846E+02  0.33923232477E+02 -0.66605655969E+02  0.10931702222E+03  0.47000000000E+01 0.  1.
         -5    1    5    5    0  503  0.47556855022E+02 -0.25512887601E+01 -0.21613623066E+02  0.52510972529E+02  0.47000000000E+01 0.  1.
<mgrwt>
<rscale>  0 0.28084520E+03</rscale>
<asrwt>0</asrwt>
<pdfrwt beam="1">  1        2 0.28000129E-01 0.28084520E+03</pdfrwt>
<pdfrwt beam="2">  1       -2 0.16668145E-01 0.28084520E+03</pdfrwt>
<totfact> 0.53995247E+03</totfact>
</mgrwt>
</event>
<event>
 9    1  0.7944303E-001  0.3047999E+03  0.7818608E-02  0.1082866E+00
         -1   -1    0    0    0  501 -0.00000000000E+00  0.00000000000E+00  0.36917850444E+03  0.36917850444E+03  0.00000000000E+00 0. -1.
          1   -1    0    0  501    0  0.00000000000E+00 -0.00000000000E+00 -0.62911952687E+02  0.62911952687E+02  0.00000000000E+00 0. -1.
         35    2    1    2    0    0  0.35527136788E-14 -0.71054273576E-14  0.30626655176E+03  0.43209045713E+03  0.30479987273E+03 0.  0.
         25    2    3    3    0    0 -0.20100674927E+02 -0.58189646871E+02  0.62576740266E+02  0.15261046325E+03  0.12483602419E+03 0.  0.
         25    2    3    3    0    0  0.20100674927E+02  0.58189646871E+02  0.24368981149E+03  0.27947999388E+03  0.12220585345E+03 0.  0.
          5    1    4    4  502    0  0.50797753430E+02 -0.67242146906E+01  0.22985598587E+02  0.56356495270E+02  0.47000000000E+01 0.  1.
         -5    1    4    4    0  502 -0.70898428357E+02 -0.51465432181E+02  0.39591141679E+02  0.96253967983E+02  0.47000000000E+01 0.  1.
          5    1    5    5  503    0 -0.81821555458E+01 -0.17956541636E+01 -0.11952494388E+02  0.15333759009E+02  0.47000000000E+01 0. -1.
         -5    1    5    5    0  503  0.28282830472E+02  0.59985301035E+02  0.25564230588E+03  0.26414623487E+03  0.47000000000E+01 0. -1.
<mgrwt>
<rscale>  0 0.30479987E+03</rscale>
<asrwt>0</asrwt>
<pdfrwt beam="1">  1        1 0.96787621E-02 0.30479987E+03</pdfrwt>
<pdfrwt beam="2">  1       -1 0.56796692E-01 0.30479987E+03</pdfrwt>
<totfact> 0.21672592E+03</totfact>
</mgrwt>
</event>
<event>
 9    1  0.7944303E-001  0.2754606E+03  0.7818608E-02  0.1098194E+00
          1   -1    0    0  501    0  0.00000000000E+00  0.00000000000E+00  0.19252214383E+04  0.19252214383E+04  0.00000000000E+00 0.  1.
         -1   -1    0    0    0  501 -0.00000000000E+00 -0.00000000000E+00 -0.98532213888E+01  0.98532213888E+01  0.00000000000E+00 0.  1.
         35    2    1    2    0    0 -0.71054273576E-14 -0.71054273576E-14  0.19153682169E+04  0.19350746597E+04  0.27546058196E+03 0.  0.
         25    2    3    3    0    0 -0.23867016920E+02 -0.16562793842E+02  0.12940865891E+04  0.13003981032E+04  0.12462409933E+03 0.  0.
         25    2    3    3    0    0  0.23867016920E+02  0.16562793842E+02  0.62128162780E+03  0.63467655646E+03  0.12641008519E+03 0.  0.
          5    1    4    4  502    0 -0.32986551000E+02 -0.53253208590E+02  0.11378822799E+04  0.11396149305E+04  0.47000000000E+01 0.  1.
         -5    1    4    4    0  502  0.91195340801E+01  0.36690414748E+02  0.15620430916E+03  0.16078317274E+03  0.47000000000E+01 0.  1.
          5    1    5    5  503    0  0.70263161020E+02 -0.64578271951E+01  0.25138800879E+03  0.26114485692E+03  0.47000000000E+01 0.  1.
         -5    1    5    5    0  503 -0.46396144100E+02  0.23020621038E+02  0.36989361901E+03  0.37353169954E+03  0.47000000000E+01 0.  1.
<mgrwt>
<rscale>  0 0.27546058E+03</rscale>
<asrwt>0</asrwt>
<pdfrwt beam="1">  1        1 0.29618762E+00 0.27546058E+03</pdfrwt>
<pdfrwt beam="2">  1       -1 0.15158817E-02 0.27546058E+03</pdfrwt>
<totfact> 0.38779478E+03</totfact>
</mgrwt>
</event>
<event>
 9    1  0.7944303E-001  0.2682397E+03  0.7818608E-02  0.1102291E+00
          1   -1    0    0  501    0  0.00000000000E+00  0.00000000000E+00  0.18490316818E+03  0.18490316818E+03  0.00000000000E+00 0.  1.
         -1   -1    0    0    0  501 -0.00000000000E+00 -0.00000000000E+00 -0.97284054189E+02  0.97284054189E+02  0.00000000000E+00 0.  1.
         35    2    1    2    0    0 -0.35527136788E-14  0.71054273576E-14  0.87619113990E+02  0.28218722237E+03  0.26823966771E+03 0.  0.
         25    2    3    3    0    0 -0.16057057842E+02 -0.27010759555E+02  0.55092352534E+01  0.12927605722E+03  0.12527783946E+03 0.  0.
         25    2    3    3    0    0  0.16057057842E+02  0.27010759555E+02  0.82109878736E+02  0.15291116515E+03  0.12510948007E+03 0.  0.
          5    1    4    4  502    0  0.13367505877E+02  0.44964149894E+02 -0.13601671052E+02  0.49066897644E+02  0.47000000000E+01 0.  1.
         -5    1    4    4    0  502 -0.29424563718E+02 -0.71974909449E+02  0.19110906305E+02  0.80209159576E+02  0.47000000000E+01 0.  1.
          5    1    5    5  503    0  0.59943988570E+02  0.13043066958E+02  0.34302858105E+01  0.61621913490E+02  0.47000000000E+01 0.  1.
         -5    1    5    5    0  503 -0.43886930729E+02  0.13967692597E+02  0.78679592926E+02  0.91289251658E+02  0.47000000000E+01 0.  1.
<mgrwt>
<rscale>  0 0.26823967E+03</rscale>
<asrwt>0</asrwt>
<pdfrwt beam="1">  1        1 0.28446641E-01 0.26823967E+03</pdfrwt>
<pdfrwt beam="2">  1       -1 0.14966778E-01 0.26823967E+03</pdfrwt>
<totfact> 0.51853878E+03</totfact>
</mgrwt>
</event>
<event>
 9    1  0.7944303E-001  0.2789171E+03  0.7818608E-02  0.1096282E+00
         -2   -1    0    0    0  501 -0.00000000000E+00  0.00000000000E+00  0.13922603143E+02  0.13922603143E+02  0.00000000000E+00 0. -1.
          2   -1    0    0  501    0  0.00000000000E+00 -0.00000000000E+00 -0.13969148243E+04  0.13969148243E+04  0.00000000000E+00 0. -1.
         35    2    1    2    0    0  0.00000000000E+00  0.00000000000E+00 -0.13829922212E+04  0.14108374275E+04  0.27891712550E+03 0.  0.
         25    2    3    3    0    0 -0.24565577489E+02 -0.31668436285E+02 -0.44785382260E+03  0.46659112769E+03  0.12461090070E+03 0.  0.
         25    2    3    3    0    0  0.24565577489E+02  0.31668436285E+02 -0.93513839860E+03  0.94424629979E+03  0.12454273435E+03 0.  0.
          5    1    4    4  502    0  0.34402038784E+02 -0.33564930716E+00 -0.32355772717E+03  0.32541558927E+03  0.47000000000E+01 0. -1.
         -5    1    4    4    0  502 -0.58967616273E+02 -0.31332786978E+02 -0.12429609543E+03  0.14117553842E+03  0.47000000000E+01 0. -1.
          5    1    5    5  503    0  0.24870652263E+02  0.76774118546E+02 -0.46990571270E+03  0.47680843475E+03  0.47000000000E+01 0.  1.
         -5    1    5    5    0  503 -0.30507477414E+00 -0.45105682261E+02 -0.46523268590E+03  0.46743786504E+03  0.47000000000E+01 0.  1.
<mgrwt>
<rscale>  0 0.27891713E+03</rscale>
<asrwt>0</asrwt>
<pdfrwt beam="1">  1        2 0.21490997E+00 0.27891713E+03</pdfrwt>
<pdfrwt beam="2">  1       -2 0.21419390E-02 0.27891713E+03</pdfrwt>
<totfact> 0.10840346E+04</totfact>
</mgrwt>
</event>
<event>
 9    1  0.7944303E-001  0.2755021E+03  0.7818608E-02  0.1098171E+00
          1   -1    0    0  501    0  0.00000000000E+00  0.00000000000E+00  0.14559548612E+03  0.14559548612E+03  0.00000000000E+00 0.  1.
         -1   -1    0    0    0  501 -0.00000000000E+00 -0.00000000000E+00 -0.13032926283E+03  0.13032926283E+03  0.00000000000E+00 0.  1.
         35    2    1    2    0    0  0.35527136788E-14  0.00000000000E+00  0.15266223287E+02  0.27592474895E+03  0.27550210437E+03 0.  0.
         25    2    3    3    0    0  0.10493001183E+02  0.31548301635E+02  0.55672293329E+02  0.14059294840E+03  0.12474603995E+03 0.  0.
         25    2    3    3    0    0 -0.10493001183E+02 -0.31548301635E+02 -0.40406070042E+02  0.13533180056E+03  0.12480643948E+03 0.  0.
          5    1    4    4  502    0 -0.38729758476E+02  0.55435419165E+02  0.52222049301E+02  0.85570510825E+02  0.47000000000E+01 0.  1.
         -5    1    4    4    0  502  0.49222759659E+02 -0.23887117531E+02  0.34502440284E+01  0.55022437571E+02  0.47000000000E+01 0.  1.
          5    1    5    5  503    0 -0.11998978794E+02 -0.56884162862E+02 -0.73201642501E+02  0.93596762452E+02  0.47000000000E+01 0. -1.
         -5    1    5    5    0  503  0.15059776107E+01  0.25335861228E+02  0.32795572459E+02  0.41735038105E+02  0.47000000000E+01 0. -1.
<mgrwt>
<rscale>  0 0.27550210E+03</rscale>
<asrwt>0</asrwt>
<pdfrwt beam="1">  1        1 0.22399306E-01 0.27550210E+03</pdfrwt>
<pdfrwt beam="2">  1       -1 0.20050656E-01 0.27550210E+03</pdfrwt>
<totfact> 0.43988798E+03</totfact>
</mgrwt>
</event>
<event>
 9    1  0.7944303E-001  0.2760450E+03  0.7818608E-02  0.1097869E+00
          1   -1    0    0  501    0  0.00000000000E+00  0.00000000000E+00  0.32741888194E+03  0.32741888194E+03  0.00000000000E+00 0.  1.
         -1   -1    0    0    0  501 -0.00000000000E+00 -0.00000000000E+00 -0.58182973703E+02  0.58182973703E+02  0.00000000000E+00 0.  1.
         35    2    1    2    0    0  0.71054273576E-14 -0.71054273576E-14  0.26923590823E+03  0.38560185564E+03  0.27604495429E+03 0.  0.
         25    2    3    3    0    0  0.19826232164E+02 -0.46375879476E+02  0.11695775488E+03  0.17881891132E+03  0.12551209081E+03 0.  0.
         25    2    3    3    0    0 -0.19826232164E+02  0.46375879476E+02  0.15227815335E+03  0.20678294432E+03  0.13048658319E+03 0.  0.
          5    1    4    4  502    0 -0.77131062910E+01 -0.60550216274E+02  0.13091552292E+03  0.14452261014E+03  0.47000000000E+01 0.  1.
         -5    1    4    4    0  502  0.27539338455E+02  0.14174336798E+02 -0.13957768038E+02  0.34296301183E+02  0.47000000000E+01 0.  1.
          5    1    5    5  503    0 -0.65511855922E+02  0.36986679391E+02  0.40491783878E+02  0.85565719072E+02  0.47000000000E+01 0. -1.
         -5    1    5    5    0  503  0.45685623758E+02  0.93892000851E+01  0.11178636947E+03  0.12121722524E+03  0.47000000000E+01 0. -1.
<mgrwt>
<rscale>  0 0.27604495E+03</rscale>
<asrwt>0</asrwt>
<pdfrwt beam="1">  1        1 0.50372135E-01 0.27604495E+03</pdfrwt>
<pdfrwt beam="2">  1       -1 0.89512269E-02 0.27604495E+03</pdfrwt>
<totfact> 0.56392642E+03</totfact>
</mgrwt>
</event>
<event>
 9    1  0.7944303E-001  0.2738128E+03  0.7818608E-02  0.1099117E+00
          2   -1    0    0  501    0  0.00000000000E+00  0.00000000000E+00  0.11629688293E+03  0.11629688293E+03  0.00000000000E+00 0.  1.
         -2   -1    0    0    0  501 -0.00000000000E+00 -0.00000000000E+00 -0.16116824195E+03  0.16116824195E+03  0.00000000000E+00 0.  1.
         35    2    1    2    0    0 -0.71054273576E-14 -0.35527136788E-14 -0.44871359019E+02  0.27746512489E+03  0.27381281319E+03 0.  0.
         25    2    3    3    0    0  0.45912402387E+02  0.23367376607E+01 -0.54648795549E+02  0.14392563324E+03  0.12495874525E+03 0.  0.
         25    2    3    3    0    0 -0.45912402387E+02 -0.23367376607E+01  0.97774365304E+01  0.13353949164E+03  0.12499515402E+03 0.  0.
          5    1    4    4  502    0  0.67683667414E+02  0.22898352284E+02  0.10211974180E+02  0.72331098351E+02  0.47000000000E+01 0. -1.
         -5    1    4    4    0  502 -0.21771265027E+02 -0.20561614623E+02 -0.64860769729E+02  0.71594534894E+02  0.47000000000E+01 0. -1.
          5    1    5    5  503    0 -0.15363219690E+02 -0.62686043010E+02 -0.18863088430E+01  0.64739606645E+02  0.47000000000E+01 0. -1.
         -5    1    5    5    0  503 -0.30549182697E+02  0.60349305350E+02  0.11663745373E+02  0.68799884998E+02  0.47000000000E+01 0. -1.
<mgrwt>
<rscale>  0 0.27381281E+03</rscale>
<asrwt>0</asrwt>
<pdfrwt beam="1">  1        2 0.17891828E-01 0.27381281E+03</pdfrwt>
<pdfrwt beam="2">  1       -2 0.24795114E-01 0.27381281E+03</pdfrwt>
<totfact> 0.45312029E+03</totfact>
</mgrwt>
</event>
<event>
 9    1  0.7944303E-001  0.2725884E+03  0.7818608E-02  0.1099807E+00
         -1   -1    0    0    0  501 -0.00000000000E+00  0.00000000000E+00  0.74697810507E+02  0.74697810507E+02  0.00000000000E+00 0. -1.
          1   -1    0    0  501    0  0.00000000000E+00 -0.00000000000E+00 -0.24868343445E+03  0.24868343445E+03  0.00000000000E+00 0. -1.
         35    2    1    2    0    0  0.00000000000E+00  0.00000000000E+00 -0.17398562394E+03  0.32338124495E+03  0.27258839346E+03 0.  0.
         25    2    3    3    0    0  0.69091260866E+01 -0.88997122697E+01 -0.22488218971E+02  0.12660710435E+03  0.12408343152E+03 0.  0.
         25    2    3    3    0    0 -0.69091260866E+01  0.88997122697E+01 -0.15149740497E+03  0.19677414060E+03  0.12506661344E+03 0.  0.
          5    1    4    4  502    0  0.61214450874E+02 -0.21101011947E+02  0.34711451221E+01  0.65012310753E+02  0.47000000000E+01 0.  1.
         -5    1    4    4    0  502 -0.54305324788E+02  0.12201299678E+02 -0.25959364093E+02  0.61594793597E+02  0.47000000000E+01 0.  1.
          5    1    5    5  503    0  0.33507716137E+02  0.54670282153E+02 -0.79991674279E+02  0.10262730994E+03  0.47000000000E+01 0. -1.
         -5    1    5    5    0  503 -0.40416842224E+02 -0.45770569883E+02 -0.71505730689E+02  0.94146830665E+02  0.47000000000E+01 0. -1.
<mgrwt>
<rscale>  0 0.27258839E+03</rscale>
<asrwt>0</asrwt>
<pdfrwt beam="1">  1        1 0.38258991E-01 0.27258839E+03</pdfrwt>
<pdfrwt beam="2">  1       -1 0.11491971E-01 0.27258839E+03</pdfrwt>
<totfact> 0.54117162E+03</totfact>
</mgrwt>
</event>
<event>
 9    1  0.7944303E-001  0.2645588E+03  0.7818608E-02  0.1104435E+00
          2   -1    0    0  501    0  0.00000000000E+00  0.00000000000E+00  0.10787417310E+03  0.10787417310E+03  0.00000000000E+00 0.  1.
         -2   -1    0    0    0  501 -0.00000000000E+00 -0.00000000000E+00 -0.16220599868E+03  0.16220599868E+03  0.00000000000E+00 0.  1.
         35    2    1    2    0    0  0.00000000000E+00  0.10658141036E-13 -0.54331825579E+02  0.27008017177E+03  0.26455878726E+03 0.  0.
         25    2    3    3    0    0 -0.27235256712E+02 -0.29927652541E+02 -0.83580754496E+01  0.13139754628E+03  0.12473184898E+03 0.  0.
         25    2    3    3    0    0  0.27235256712E+02  0.29927652541E+02 -0.45973750129E+02  0.13868262549E+03  0.12442612795E+03 0.  0.
          5    1    4    4  502    0 -0.56528695508E+02 -0.60602597013E+02 -0.23244486317E+02  0.86200721138E+02  0.47000000000E+01 0. -1.
         -5    1    4    4    0  502  0.29293438796E+02  0.30674944472E+02  0.14886410867E+02  0.45196825147E+02  0.47000000000E+01 0. -1.
          5    1    5    5  503    0  0.76326553810E+02  0.28058541921E+02 -0.27109516329E+02  0.85848939812E+02  0.47000000000E+01 0.  1.
         -5    1    5    5    0  503 -0.49091297098E+02  0.18691106200E+01 -0.18864233800E+02  0.52833685676E+02  0.47000000000E+01 0.  1.
<mgrwt>
<rscale>  0 0.26455879E+03</rscale>
<asrwt>0</asrwt>
<pdfrwt beam="1">  1        2 0.16596027E-01 0.26455879E+03</pdfrwt>
<pdfrwt beam="2">  1       -2 0.24954769E-01 0.26455879E+03</pdfrwt>
<totfact> 0.48846252E+03</totfact>
</mgrwt>
</event>
<event>
 9    1  0.7944303E-001  0.2754171E+03  0.7818608E-02  0.1098219E+00
          1   -1    0    0  501    0  0.00000000000E+00  0.00000000000E+00  0.27441601476E+03  0.27441601476E+03  0.00000000000E+00 0. -1.
         -1   -1    0    0    0  501 -0.00000000000E+00 -0.00000000000E+00 -0.69105461630E+02  0.69105461630E+02  0.00000000000E+00 0. -1.
         35    2    1    2    0    0 -0.35527136788E-14  0.17763568394E-14  0.20531055313E+03  0.34352147639E+03  0.27541710461E+03 0.  0.
         25    2    3    3    0    0 -0.52669138141E+01  0.10232319322E+01  0.17290889543E+03  0.21257192402E+03  0.12353359615E+03 0.  0.
         25    2    3    3    0    0  0.52669138141E+01 -0.10232319322E+01  0.32401657694E+02  0.13094955236E+03  0.12676407401E+03 0.  0.
          5    1    4    4  502    0 -0.14665800684E+02 -0.59018110030E+02  0.68909810832E+02  0.92026491024E+02  0.47000000000E+01 0.  1.
         -5    1    4    4    0  502  0.93988868703E+01  0.60041341962E+02  0.10399908460E+03  0.12054543300E+03  0.47000000000E+01 0.  1.
          5    1    5    5  503    0  0.61620714657E+02 -0.16515123653E+02  0.18954909443E-01  0.63968368304E+02  0.47000000000E+01 0. -1.
         -5    1    5    5    0  503 -0.56353800843E+02  0.15491891721E+02  0.32382702785E+02  0.66981184061E+02  0.47000000000E+01 0. -1.
<mgrwt>
<rscale>  0 0.27541710E+03</rscale>
<asrwt>0</asrwt>
<pdfrwt beam="1">  1        1 0.42217848E-01 0.27541710E+03</pdfrwt>
<pdfrwt beam="2">  1       -1 0.10631610E-01 0.27541710E+03</pdfrwt>
<totfact> 0.53995198E+03</totfact>
</mgrwt>
</event>
<event>
 9    1  0.7944303E-001  0.2714500E+03  0.7818608E-02  0.1100453E+00
          2   -1    0    0  501    0  0.00000000000E+00  0.00000000000E+00  0.11473433724E+03  0.11473433724E+03  0.00000000000E+00 0.  1.
         -2   -1    0    0    0  501 -0.00000000000E+00 -0.00000000000E+00 -0.16055588234E+03  0.16055588234E+03  0.00000000000E+00 0.  1.
         35    2    1    2    0    0  0.00000000000E+00 -0.35527136788E-14 -0.45821545100E+02  0.27529021958E+03  0.27144997882E+03 0.  0.
         25    2    3    3    0    0  0.33338307992E+02  0.21133434948E+02 -0.58733061805E+02  0.14400150951E+03  0.12541450211E+03 0.  0.
         25    2    3    3    0    0 -0.33338307992E+02 -0.21133434948E+02  0.12911516705E+02  0.13128871007E+03  0.12454699224E+03 0.  0.
          5    1    4    4  502    0 -0.12944324428E+02  0.90975442786E+01  0.34984775461E+02  0.38682623500E+02  0.47000000000E+01 0. -1.
         -5    1    4    4    0  502  0.46282632420E+02  0.12035890669E+02 -0.93717837266E+02  0.10531888601E+03  0.47000000000E+01 0. -1.
          5    1    5    5  503    0  0.43774138659E+01 -0.16244782035E+02  0.64613833930E+02  0.66933491099E+02  0.47000000000E+01 0. -1.
         -5    1    5    5    0  503 -0.37715721858E+02 -0.48886529132E+01 -0.51702317225E+02  0.64355218973E+02  0.47000000000E+01 0. -1.
<mgrwt>
<rscale>  0 0.27144998E+03</rscale>
<asrwt>0</asrwt>
<pdfrwt beam="1">  1        2 0.17651436E-01 0.27144998E+03</pdfrwt>
<pdfrwt beam="2">  1       -2 0.24700905E-01 0.27144998E+03</pdfrwt>
<totfact> 0.46325545E+03</totfact>
</mgrwt>
</event>
<event>
 9    1  0.7944303E-001  0.2667140E+03  0.7818608E-02  0.1103175E+00
         -1   -1    0    0    0  501 -0.00000000000E+00  0.00000000000E+00  0.12575478433E+03  0.12575478433E+03  0.00000000000E+00 0.  1.
          1   -1    0    0  501    0  0.00000000000E+00 -0.00000000000E+00 -0.14141884270E+03  0.14141884270E+03  0.00000000000E+00 0.  1.
         35    2    1    2    0    0 -0.71054273576E-14  0.00000000000E+00 -0.15664058374E+02  0.26717362702E+03  0.26671404960E+03 0.  0.
         25    2    3    3    0    0 -0.24705901799E+02  0.40815315148E+02  0.26342845780E+01  0.13260729471E+03  0.12369916581E+03 0.  0.
         25    2    3    3    0    0  0.24705901799E+02 -0.40815315148E+02 -0.18298342952E+02  0.13456633231E+03  0.12448693467E+03 0.  0.
          5    1    4    4  502    0 -0.65941837664E+02  0.55785622416E+02 -0.90298043332E+01  0.86971196319E+02  0.47000000000E+01 0. -1.
         -5    1    4    4    0  502  0.41235935865E+02 -0.14970307268E+02  0.11664088911E+02  0.45636098392E+02  0.47000000000E+01 0. -1.
          5    1    5    5  503    0 -0.37940138234E+02 -0.48452918716E+02 -0.32433857483E+02  0.69722195408E+02  0.47000000000E+01 0. -1.
         -5    1    5    5    0  503  0.62646040033E+02  0.76376035672E+01  0.14135514531E+02  0.64844136906E+02  0.47000000000E+01 0. -1.
<mgrwt>
<rscale>  0 0.26671405E+03</rscale>
<asrwt>0</asrwt>
<pdfrwt beam="1">  1        1 0.21756745E-01 0.26671405E+03</pdfrwt>
<pdfrwt beam="2">  1       -1 0.19346890E-01 0.26671405E+03</pdfrwt>
<totfact> 0.48335413E+03</totfact>
</mgrwt>
</event>
<event>
 9    1  0.7944303E-001  0.2778281E+03  0.7818608E-02  0.1096881E+00
         -2   -1    0    0    0  501 -0.00000000000E+00  0.00000000000E+00  0.23458088873E+02  0.23458088873E+02  0.00000000000E+00 0. -1.
          2   -1    0    0  501    0  0.00000000000E+00 -0.00000000000E+00 -0.82262067168E+03  0.82262067168E+03  0.00000000000E+00 0. -1.
         35    2    1    2    0    0 -0.17763568394E-14  0.00000000000E+00 -0.79916258281E+03  0.84607876056E+03  0.27782806788E+03 0.  0.
         25    2    3    3    0    0 -0.65797176048E+01  0.61376579666E+02 -0.39485838967E+03  0.41867530487E+03  0.12476171607E+03 0.  0.
         25    2    3    3    0    0  0.65797176048E+01 -0.61376579666E+02 -0.40430419314E+03  0.42740345569E+03  0.12410260324E+03 0.  0.
          5    1    4    4  502    0  0.45626393530E+02  0.32816753195E+02 -0.78061710700E+02  0.96303830424E+02  0.47000000000E+01 0.  1.
         -5    1    4    4    0  502 -0.52206111135E+02  0.28559826471E+02 -0.31679667897E+03  0.32237147444E+03  0.47000000000E+01 0.  1.
          5    1    5    5  503    0 -0.92776177159E+01 -0.47102373485E+02 -0.40261149168E+03  0.40549082728E+03  0.47000000000E+01 0. -1.
         -5    1    5    5    0  503  0.15857335321E+02 -0.14274206181E+02 -0.16927014635E+01  0.21912628410E+02  0.47000000000E+01 0. -1.
<mgrwt>
<rscale>  0 0.27782807E+03</rscale>
<asrwt>0</asrwt>
<pdfrwt beam="1">  1        2 0.12655703E+00 0.27782807E+03</pdfrwt>
<pdfrwt beam="2">  1       -2 0.36089366E-02 0.27782807E+03</pdfrwt>
<totfact> 0.10953568E+04</totfact>
</mgrwt>
</event>
<event>
 9    1  0.7944303E-001  0.2751420E+03  0.7818608E-02  0.1098372E+00
         -2   -1    0    0    0  501 -0.00000000000E+00  0.00000000000E+00  0.95232319042E+01  0.95232319042E+01  0.00000000000E+00 0. -1.
          2   -1    0    0  501    0  0.00000000000E+00 -0.00000000000E+00 -0.19873271280E+04  0.19873271280E+04  0.00000000000E+00 0. -1.
         35    2    1    2    0    0  0.00000000000E+00 -0.14210854715E-13 -0.19778038961E+04  0.19968503599E+04  0.27514197869E+03 0.  0.
         25    2    3    3    0    0 -0.36178183010E+02 -0.41330626733E+02 -0.85920630193E+03  0.87000585536E+03  0.12513048174E+03 0.  0.
         25    2    3    3    0    0  0.36178183010E+02  0.41330626733E+02 -0.11185975941E+04  0.11268445045E+04  0.12450252248E+03 0.  0.
          5    1    4    4  502    0 -0.46899299908E+01 -0.64085342834E+02 -0.76878209026E+03  0.77147710201E+03  0.47000000000E+01 0. -1.
         -5    1    4    4    0  502 -0.31488253019E+02  0.22754716101E+02 -0.90424211665E+02  0.98528753358E+02  0.47000000000E+01 0. -1.
          5    1    5    5  503    0 -0.52280103840E+01 -0.19656775882E+02 -0.78019589278E+03  0.78047513864E+03  0.47000000000E+01 0. -1.
         -5    1    5    5    0  503  0.41406193394E+02  0.60987402615E+02 -0.33840170134E+03  0.34636936585E+03  0.47000000000E+01 0. -1.
<mgrwt>
<rscale>  0 0.27514198E+03</rscale>
<asrwt>0</asrwt>
<pdfrwt beam="1">  1        2 0.30574251E+00 0.27514198E+03</pdfrwt>
<pdfrwt beam="2">  1       -2 0.14651132E-02 0.27514198E+03</pdfrwt>
<totfact> 0.92130119E+03</totfact>
</mgrwt>
</event>
<event>
 9    1  0.7944303E-001  0.2799970E+03  0.7818608E-02  0.1095691E+00
         -2   -1    0    0    0  501 -0.00000000000E+00  0.00000000000E+00  0.58566986872E+02  0.58566986872E+02  0.00000000000E+00 0.  1.
          2   -1    0    0  501    0  0.00000000000E+00 -0.00000000000E+00 -0.33465233171E+03  0.33465233171E+03  0.00000000000E+00 0.  1.
         35    2    1    2    0    0  0.00000000000E+00  0.00000000000E+00 -0.27608534484E+03  0.39321931859E+03  0.27999699083E+03 0.  0.
         25    2    3    3    0    0 -0.50119864220E+02 -0.25187303018E+02 -0.18647136319E+03  0.23119366585E+03  0.12462961453E+03 0.  0.
         25    2    3    3    0    0  0.50119864220E+02  0.25187303018E+02 -0.89613981651E+02  0.16202565273E+03  0.12278129097E+03 0.  0.
          5    1    4    4  502    0  0.37121484647E+02  0.18435933271E+01 -0.93753825598E+02  0.10096174163E+03  0.47000000000E+01 0. -1.
         -5    1    4    4    0  502 -0.87241348867E+02 -0.27030896345E+02 -0.92717537593E+02  0.13023192422E+03  0.47000000000E+01 0. -1.
          5    1    5    5  503    0  0.67161625807E+02  0.39987129759E+02 -0.97615709970E+01  0.78911550458E+02  0.47000000000E+01 0. -1.
         -5    1    5    5    0  503 -0.17041761587E+02 -0.14799826742E+02 -0.79852410654E+02  0.83114102274E+02  0.47000000000E+01 0. -1.
<mgrwt>
<rscale>  0 0.27999699E+03</rscale>
<asrwt>0</asrwt>
<pdfrwt beam="1">  1        2 0.51484974E-01 0.27999699E+03</pdfrwt>
<pdfrwt beam="2">  1       -2 0.90103057E-02 0.27999699E+03</pdfrwt>
<totfact> 0.75579115E+03</totfact>
</mgrwt>
</event>
<event>
 9    1  0.7944303E-001  0.2757282E+03  0.7818608E-02  0.1098045E+00
          2   -1    0    0  501    0  0.00000000000E+00  0.00000000000E+00  0.11476398611E+04  0.11476398611E+04  0.00000000000E+00 0. -1.
         -2   -1    0    0    0  501 -0.00000000000E+00 -0.00000000000E+00 -0.16561390440E+02  0.16561390440E+02  0.00000000000E+00 0. -1.
         35    2    1    2    0    0  0.35527136788E-14  0.35527136788E-14  0.11310784706E+04  0.11642012515E+04  0.27572821273E+03 0.  0.
         25    2    3    3    0    0 -0.23145752311E+02  0.22442254221E+02  0.77132999932E+03  0.78187985971E+03  0.12388206706E+03 0.  0.
         25    2    3    3    0    0  0.23145752311E+02 -0.22442254221E+02  0.35974847130E+03  0.38232139179E+03  0.12534473821E+03 0.  0.
          5    1    4    4  502    0  0.81225818594E+01  0.62385664328E+02  0.24142558144E+03  0.24953226009E+03  0.47000000000E+01 0.  1.
         -5    1    4    4    0  502 -0.31268334170E+02 -0.39943410107E+02  0.52990441788E+03  0.53234759962E+03  0.47000000000E+01 0.  1.
          5    1    5    5  503    0 -0.51362244814E+02 -0.12912671041E+02  0.17270327962E+03  0.18070232444E+03  0.47000000000E+01 0. -1.
         -5    1    5    5    0  503  0.74507997125E+02 -0.95295831798E+01  0.18704519168E+03  0.20161906735E+03  0.47000000000E+01 0. -1.
<mgrwt>
<rscale>  0 0.27572821E+03</rscale>
<asrwt>0</asrwt>
<pdfrwt beam="1">  1        2 0.17655992E+00 0.27572821E+03</pdfrwt>
<pdfrwt beam="2">  1       -2 0.25479071E-02 0.27572821E+03</pdfrwt>
<totfact> 0.11555764E+04</totfact>
</mgrwt>
</event>
<event>
 9    1  0.7944303E-001  0.2786871E+03  0.7818608E-02  0.1096408E+00
         -3   -1    0    0    0  501 -0.00000000000E+00  0.00000000000E+00  0.20529548604E+03  0.20529548604E+03  0.00000000000E+00 0.  1.
          3   -1    0    0  501    0  0.00000000000E+00 -0.00000000000E+00 -0.94578950797E+02  0.94578950797E+02  0.00000000000E+00 0.  1.
         35    2    1    2    0    0  0.35527136788E-14  0.00000000000E+00  0.11071653525E+03  0.29987443684E+03  0.27868714842E+03 0.  0.
         25    2    3    3    0    0  0.27715360822E+02  0.47276565674E+02  0.85064125013E+02  0.16066426936E+03  0.12479538131E+03 0.  0.
         25    2    3    3    0    0 -0.27715360822E+02 -0.47276565674E+02  0.25652410234E+02  0.13921016749E+03  0.12537228439E+03 0.  0.
          5    1    4    4  502    0  0.14045899369E+02 -0.41233072992E+02  0.13250141282E+02  0.45772369847E+02  0.47000000000E+01 0. -1.
         -5    1    4    4    0  502  0.13669461453E+02  0.88509638666E+02  0.71813983732E+02  0.11489189951E+03  0.47000000000E+01 0. -1.
          5    1    5    5  503    0 -0.42288445195E+02 -0.38852640883E+02  0.70515990378E+02  0.91062809091E+02  0.47000000000E+01 0. -1.
         -5    1    5    5    0  503  0.14573084373E+02 -0.84239247907E+01 -0.44863580144E+02  0.48147358394E+02  0.47000000000E+01 0. -1.
<mgrwt>
<rscale>  0 0.27868715E+03</rscale>
<asrwt>0</asrwt>
<pdfrwt beam="1">  1        3 0.14550608E-01 0.27868715E+03</pdfrwt>
<pdfrwt beam="2">  1       -3 0.31583921E-01 0.27868715E+03</pdfrwt>
<totfact> 0.97120657E+02</totfact>
</mgrwt>
</event>
<event>
 9    1  0.7944303E-001  0.2525485E+03  0.7818608E-02  0.1111705E+00
          2   -1    0    0  501    0  0.00000000000E+00  0.00000000000E+00  0.19568340427E+04  0.19568340427E+04  0.00000000000E+00 0.  1.
         -2   -1    0    0    0  501 -0.00000000000E+00 -0.00000000000E+00 -0.81484606056E+01  0.81484606056E+01  0.00000000000E+00 0.  1.
         35    2    1    2    0    0  0.00000000000E+00  0.00000000000E+00  0.19486855821E+04  0.19649825033E+04  0.25254849125E+03 0.  0.
         25    2    3    3    0    0 -0.17243908925E+02 -0.75285794293E+01  0.93050745886E+03  0.93893758009E+03  0.12411936356E+03 0.  0.
         25    2    3    3    0    0  0.17243908925E+02  0.75285794293E+01  0.10181781232E+04  0.10260449232E+04  0.12540917797E+03 0.  0.
          5    1    4    4  502    0 -0.17025393146E+02 -0.52162059619E+02  0.77843477920E+03  0.78038038157E+03  0.47000000000E+01 0. -1.
         -5    1    4    4    0  502 -0.21851577858E+00  0.44633480190E+02  0.15207267966E+03  0.15855719852E+03  0.47000000000E+01 0. -1.
          5    1    5    5  503    0  0.41752303370E+01 -0.57725569422E+02  0.56614349428E+03  0.56911353878E+03  0.47000000000E+01 0.  1.
         -5    1    5    5    0  503  0.13068678588E+02  0.65254148851E+02  0.45203462895E+03  0.45693138442E+03  0.47000000000E+01 0.  1.
<mgrwt>
<rscale>  0 0.25254849E+03</rscale>
<asrwt>0</asrwt>
<pdfrwt beam="1">  1        2 0.30105102E+00 0.25254849E+03</pdfrwt>
<pdfrwt beam="2">  1       -2 0.12536109E-02 0.25254849E+03</pdfrwt>
<totfact> 0.11984973E+04</totfact>
</mgrwt>
</event>
<event>
 9    1  0.7944303E-001  0.2807853E+03  0.7818608E-02  0.1095261E+00
          2   -1    0    0  501    0  0.00000000000E+00  0.00000000000E+00  0.20755300533E+02  0.20755300533E+02  0.00000000000E+00 0.  1.
         -2   -1    0    0    0  501 -0.00000000000E+00 -0.00000000000E+00 -0.94964184764E+03  0.94964184764E+03  0.00000000000E+00 0.  1.
         35    2    1    2    0    0  0.00000000000E+00  0.00000000000E+00 -0.92888654710E+03  0.97039714817E+03  0.28078534112E+03 0.  0.
         25    2    3    3    0    0  0.28154369441E+02  0.96665408000E+01 -0.66209400178E+03  0.67447224023E+03  0.12513282986E+03 0.  0.
         25    2    3    3    0    0 -0.28154369441E+02 -0.96665408000E+01 -0.26679254532E+03  0.29592490794E+03  0.12452782168E+03 0.  0.
          5    1    4    4  502    0 -0.32702482998E+02 -0.37792491510E+02 -0.30505425763E+03  0.30915678046E+03  0.47000000000E+01 0.  1.
         -5    1    4    4    0  502  0.60856852439E+02  0.47459032310E+02 -0.35703974416E+03  0.36531545976E+03  0.47000000000E+01 0.  1.
          5    1    5    5  503    0  0.12990996934E+02 -0.59877258750E+02 -0.10707782961E+03  0.12345770009E+03  0.47000000000E+01 0. -1.
         -5    1    5    5    0  503 -0.41145366375E+02  0.50210717950E+02 -0.15971471571E+03  0.17246720786E+03  0.47000000000E+01 0. -1.
<mgrwt>
<rscale>  0 0.28078534E+03</rscale>
<asrwt>0</asrwt>
<pdfrwt beam="1">  1        2 0.31931239E-02 0.28078534E+03</pdfrwt>
<pdfrwt beam="2">  1       -2 0.14609871E+00 0.28078534E+03</pdfrwt>
<totfact> 0.97740877E+02</totfact>
</mgrwt>
</event>
<event>
 9    1  0.7944303E-001  0.2677141E+03  0.7818608E-02  0.1102595E+00
          2   -1    0    0  501    0  0.00000000000E+00  0.00000000000E+00  0.11285847826E+04  0.11285847826E+04  0.00000000000E+00 0. -1.
         -2   -1    0    0    0  501 -0.00000000000E+00 -0.00000000000E+00 -0.15876265963E+02  0.15876265963E+02  0.00000000000E+00 0. -1.
         35    2    1    2    0    0 -0.35527136788E-14  0.00000000000E+00  0.11127085166E+04  0.11444610486E+04  0.26771411745E+03 0.  0.
         25    2    3    3    0    0 -0.25157655691E+02  0.38461120050E+02  0.48601795320E+03  0.50395025241E+03  0.12506094785E+03 0.  0.
         25    2    3    3    0    0  0.25157655691E+02 -0.38461120050E+02  0.62669056344E+03  0.64051079616E+03  0.12410017039E+03 0.  0.
          5    1    4    4  502    0  0.11025506060E+02 -0.34495359238E+02  0.27999460183E+03  0.28236600122E+03  0.47000000000E+01 0.  1.
         -5    1    4    4    0  502 -0.36183161751E+02  0.72956479289E+02  0.20602335137E+03  0.22158425119E+03  0.47000000000E+01 0.  1.
          5    1    5    5  503    0  0.43357437022E+02 -0.70994325982E+02  0.53454115853E+03  0.54099575029E+03  0.47000000000E+01 0. -1.
         -5    1    5    5    0  503 -0.18199781330E+02  0.32533205932E+02  0.92149404910E+02  0.99515045868E+02  0.47000000000E+01 0. -1.
<mgrwt>
<rscale>  0 0.26771412E+03</rscale>
<asrwt>0</asrwt>
<pdfrwt beam="1">  1        2 0.17362837E+00 0.26771412E+03</pdfrwt>
<pdfrwt beam="2">  1       -2 0.24425033E-02 0.26771412E+03</pdfrwt>
<totfact> 0.12606544E+04</totfact>
</mgrwt>
</event>
<event>
 9    1  0.7944303E-001  0.2758358E+03  0.7818608E-02  0.1097985E+00
          3   -1    0    0  501    0  0.00000000000E+00  0.00000000000E+00  0.29065339783E+03  0.29065339783E+03  0.00000000000E+00 0. -1.
         -3   -1    0    0    0  501 -0.00000000000E+00 -0.00000000000E+00 -0.65443389375E+02  0.65443389375E+02  0.00000000000E+00 0. -1.
         35    2    1    2    0    0  0.00000000000E+00 -0.35527136788E-14  0.22521000846E+03  0.35609678721E+03  0.27583577352E+03 0.  0.
         25    2    3    3    0    0  0.42528093149E+02 -0.10985243173E+02  0.63336518163E+02  0.14707773027E+03  0.12526384129E+03 0.  0.
         25    2    3    3    0    0 -0.42528093149E+02  0.10985243173E+02  0.16187349030E+03  0.20901905694E+03  0.12472620025E+03 0.  0.
          5    1    4    4  502    0 -0.36707913782E+02  0.15549518359E+00 -0.10108683764E+02  0.38363662500E+02  0.47000000000E+01 0.  1.
         -5    1    4    4    0  502  0.79236006931E+02 -0.11140738356E+02  0.73445201927E+02  0.10871406777E+03  0.47000000000E+01 0.  1.
          5    1    5    5  503    0 -0.59668343101E+01 -0.45816149593E+02  0.17635398538E+02  0.49677157294E+02  0.47000000000E+01 0. -1.
         -5    1    5    5    0  503 -0.36561258839E+02  0.56801392766E+02  0.14423809176E+03  0.15934189964E+03  0.47000000000E+01 0. -1.
<mgrwt>
<rscale>  0 0.27583577E+03</rscale>
<asrwt>0</asrwt>
<pdfrwt beam="1">  1        3 0.44715907E-01 0.27583577E+03</pdfrwt>
<pdfrwt beam="2">  1       -3 0.10068214E-01 0.27583577E+03</pdfrwt>
<totfact> 0.92650805E+02</totfact>
</mgrwt>
</event>
<event>
 9    1  0.7944303E-001  0.2746648E+03  0.7818608E-02  0.1098639E+00
          2   -1    0    0  501    0  0.00000000000E+00  0.00000000000E+00  0.26846425136E+04  0.26846425136E+04  0.00000000000E+00 0.  1.
         -2   -1    0    0    0  501 -0.00000000000E+00 -0.00000000000E+00 -0.70252125445E+01  0.70252125445E+01  0.00000000000E+00 0.  1.
         35    2    1    2    0    0 -0.17763568394E-14  0.14210854715E-13  0.26776173011E+04  0.26916677262E+04  0.27466477215E+03 0.  0.
         25    2    3    3    0    0  0.15815471025E+02  0.46396359691E+02  0.10943091884E+04  0.11024534559E+04  0.12445188345E+03 0.  0.
         25    2    3    3    0    0 -0.15815471025E+02 -0.46396359691E+02  0.15833081127E+04  0.15892142703E+04  0.12780714311E+03 0.  0.
          5    1    4    4  502    0  0.21752564710E+02  0.50040461102E+02  0.10924817153E+04  0.10938535597E+04  0.47000000000E+01 0.  1.
         -5    1    4    4    0  502 -0.59370936847E+01 -0.36441014109E+01  0.18274730925E+01  0.85998961865E+01  0.47000000000E+01 0.  1.
          5    1    5    5  503    0  0.35993416566E+01 -0.10749861142E+02  0.14436233223E+04  0.14436754835E+04  0.47000000000E+01 0. -1.
         -5    1    5    5    0  503 -0.19414812682E+02 -0.35646498549E+02  0.13968479039E+03  0.14553878685E+03  0.47000000000E+01 0. -1.
<mgrwt>
<rscale>  0 0.27466477E+03</rscale>
<asrwt>0</asrwt>
<pdfrwt beam="1">  1        2 0.41302110E+00 0.27466477E+03</pdfrwt>
<pdfrwt beam="2">  1       -2 0.10808041E-02 0.27466477E+03</pdfrwt>
<totfact> 0.60317054E+03</totfact>
</mgrwt>
</event>
<event>
 9    1  0.7944303E-001  0.2754291E+03  0.7818608E-02  0.1098212E+00
          2   -1    0    0  501    0  0.00000000000E+00  0.00000000000E+00  0.51450689442E+03  0.51450689442E+03  0.00000000000E+00 0.  1.
         -2   -1    0    0    0  501 -0.00000000000E+00 -0.00000000000E+00 -0.36861115772E+02  0.36861115772E+02  0.00000000000E+00 0.  1.
         35    2    1    2    0    0  0.00000000000E+00 -0.17763568394E-14  0.47764577865E+03  0.55136801019E+03  0.27542910667E+03 0.  0.
         25    2    3    3    0    0  0.54435717152E+02  0.82021083180E+01  0.23004226880E+03  0.26770284791E+03  0.12535887468E+03 0.  0.
         25    2    3    3    0    0 -0.54435717152E+02 -0.82021083180E+01  0.24760350985E+03  0.28366516228E+03  0.12699568623E+03 0.  0.
          5    1    4    4  502    0 -0.86981799964E+01  0.42273176166E+02  0.16546014452E+03  0.17106089320E+03  0.47000000000E+01 0.  1.
         -5    1    4    4    0  502  0.63133897148E+02 -0.34071067848E+02  0.64582124284E+02  0.96641954711E+02  0.47000000000E+01 0.  1.
          5    1    5    5  503    0 -0.73524198208E+02  0.42248969292E+01  0.61353579578E+02  0.95968792861E+02  0.47000000000E+01 0.  1.
         -5    1    5    5    0  503  0.19088481056E+02 -0.12427005247E+02  0.18624993027E+03  0.18769636942E+03  0.47000000000E+01 0.  1.
<mgrwt>
<rscale>  0 0.27542911E+03</rscale>
<asrwt>0</asrwt>
<pdfrwt beam="1">  1        2 0.79154902E-01 0.27542911E+03</pdfrwt>
<pdfrwt beam="2">  1       -2 0.56709413E-02 0.27542911E+03</pdfrwt>
<totfact> 0.96750937E+03</totfact>
</mgrwt>
</event>
<event>
 9    1  0.7944303E-001  0.2744888E+03  0.7818608E-02  0.1098738E+00
         -1   -1    0    0    0  501 -0.00000000000E+00  0.00000000000E+00  0.10710500482E+04  0.10710500482E+04  0.00000000000E+00 0.  1.
          1   -1    0    0  501    0  0.00000000000E+00 -0.00000000000E+00 -0.17586503909E+02  0.17586503909E+02  0.00000000000E+00 0.  1.
         35    2    1    2    0    0 -0.35527136788E-14  0.35527136788E-14  0.10534635443E+04  0.10886365521E+04  0.27448880385E+03 0.  0.
         25    2    3    3    0    0  0.15832022962E+02 -0.20071132542E+02  0.32383696104E+03  0.34751768671E+03  0.12346927524E+03 0.  0.
         25    2    3    3    0    0 -0.15832022962E+02  0.20071132542E+02  0.72962658324E+03  0.74111886539E+03  0.12747046071E+03 0.  0.
          5    1    4    4  502    0  0.20130604609E+01  0.41378982806E+02  0.23408951166E+03  0.23777355214E+03  0.47000000000E+01 0. -1.
         -5    1    4    4    0  502  0.13818962502E+02 -0.61450115349E+02  0.89747449383E+02  0.10974413457E+03  0.47000000000E+01 0. -1.
          5    1    5    5  503    0 -0.52028551138E+02 -0.18904103825E+02  0.16774000601E+03  0.17670069295E+03  0.47000000000E+01 0.  1.
         -5    1    5    5    0  503  0.36196528176E+02  0.38975236367E+02  0.56188657723E+03  0.56441817243E+03  0.47000000000E+01 0.  1.
<mgrwt>
<rscale>  0 0.27448880E+03</rscale>
<asrwt>0</asrwt>
<pdfrwt beam="1">  1        1 0.27056168E-02 0.27448880E+03</pdfrwt>
<pdfrwt beam="2">  1       -1 0.16477688E+00 0.27448880E+03</pdfrwt>
<totfact> 0.11572501E+03</totfact>
</mgrwt>
</event>
<event>
 9    1  0.7944303E-001  0.2723361E+03  0.7818608E-02  0.1099950E+00
         -2   -1    0    0    0  501 -0.00000000000E+00  0.00000000000E+00  0.67163046039E+02  0.67163046039E+02  0.00000000000E+00 0. -1.
          2   -1    0    0  501    0  0.00000000000E+00 -0.00000000000E+00 -0.27607046705E+03  0.27607046705E+03  0.00000000000E+00 0. -1.
         35    2    1    2    0    0  0.71054273576E-14  0.17763568394E-14 -0.20890742101E+03  0.34323351309E+03  0.27233606804E+03 0.  0.
         25    2    3    3    0    0  0.42358832115E+02  0.80499456695E+01 -0.64540854779E+02  0.14695360643E+03  0.12478288434E+03 0.  0.
         25    2    3    3    0    0 -0.42358832115E+02 -0.80499456695E+01 -0.14436656623E+03  0.19627990666E+03  0.12579755177E+03 0.  0.
          5    1    4    4  502    0 -0.25505755581E+02 -0.36778419280E+02 -0.34723713710E+01  0.45136936708E+02  0.47000000000E+01 0.  1.
         -5    1    4    4    0  502  0.67864587696E+02  0.44828364949E+02 -0.61068483408E+02  0.10181666972E+03  0.47000000000E+01 0.  1.
          5    1    5    5  503    0 -0.53589140641E+02  0.10237335289E+02 -0.47726714512E+01  0.54967876266E+02  0.47000000000E+01 0. -1.
         -5    1    5    5    0  503  0.11230308525E+02 -0.18287280959E+02 -0.13959389478E+03  0.14131203040E+03  0.47000000000E+01 0. -1.
<mgrwt>
<rscale>  0 0.27233607E+03</rscale>
<asrwt>0</asrwt>
<pdfrwt beam="1">  1        2 0.42472380E-01 0.27233607E+03</pdfrwt>
<pdfrwt beam="2">  1       -2 0.10332776E-01 0.27233607E+03</pdfrwt>
<totfact> 0.74747433E+03</totfact>
</mgrwt>
</event>
<event>
 9    1  0.7944303E-001  0.2757618E+03  0.7818608E-02  0.1098027E+00
         -1   -1    0    0    0  501 -0.00000000000E+00  0.00000000000E+00  0.14088941963E+03  0.14088941963E+03  0.00000000000E+00 0. -1.
          1   -1    0    0  501    0  0.00000000000E+00 -0.00000000000E+00 -0.13493658125E+03  0.13493658125E+03  0.00000000000E+00 0. -1.
         35    2    1    2    0    0  0.71054273576E-14  0.00000000000E+00  0.59528383813E+01  0.27582600089E+03  0.27576175674E+03 0.  0.
         25    2    3    3    0    0  0.51551356869E+02 -0.15705597866E+02 -0.10946322487E+02  0.13672279240E+03  0.12517624290E+03 0.  0.
         25    2    3    3    0    0 -0.51551356869E+02  0.15705597866E+02  0.16899160868E+02  0.13910320849E+03  0.12712164558E+03 0.  0.
          5    1    4    4  502    0  0.22140167161E+02  0.50369529434E+02  0.18863497650E+02  0.58354074758E+02  0.47000000000E+01 0.  1.
         -5    1    4    4    0  502  0.29411189708E+02 -0.66075127300E+02 -0.29809820137E+02  0.78368717639E+02  0.47000000000E+01 0.  1.
          5    1    5    5  503    0 -0.85052445378E+02  0.39706012132E+02  0.24057227568E+02  0.97011989272E+02  0.47000000000E+01 0.  1.
         -5    1    5    5    0  503  0.33501088509E+02 -0.24000414266E+02 -0.71580667004E+01  0.42091219216E+02  0.47000000000E+01 0.  1.
<mgrwt>
<rscale>  0 0.27576176E+03</rscale>
<asrwt>0</asrwt>
<pdfrwt beam="1">  1        1 0.20759474E-01 0.27576176E+03</pdfrwt>
<pdfrwt beam="2">  1       -1 0.21675295E-01 0.27576176E+03</pdfrwt>
<totfact> 0.42705615E+03</totfact>
</mgrwt>
</event>
<event>
 9    1  0.7944303E-001  0.3023705E+03  0.7818608E-02  0.1084062E+00
          2   -1    0    0  501    0  0.00000000000E+00  0.00000000000E+00  0.74085176382E+03  0.74085176382E+03  0.00000000000E+00 0. -1.
         -2   -1    0    0    0  501 -0.00000000000E+00 -0.00000000000E+00 -0.30852293488E+02  0.30852293488E+02  0.00000000000E+00 0. -1.
         35    2    1    2    0    0  0.00000000000E+00  0.14210854715E-13  0.70999947033E+03  0.77170405731E+03  0.30237047507E+03 0.  0.
         25    2    3    3    0    0  0.11418901749E+02 -0.33705309951E+02  0.55480582009E+03  0.56989456430E+03  0.12531511151E+03 0.  0.
         25    2    3    3    0    0 -0.11418901749E+02  0.33705309951E+02  0.15519365024E+03  0.20180949301E+03  0.12399823853E+03 0.  0.
          5    1    4    4  502    0  0.81282028538E+01  0.38529634452E+02  0.35768816876E+03  0.35987986396E+03  0.47000000000E+01 0. -1.
         -5    1    4    4    0  502  0.32906988954E+01 -0.72234944403E+02  0.19711765133E+03  0.21001470033E+03  0.47000000000E+01 0. -1.
          5    1    5    5  503    0  0.37863614493E+02  0.55957860255E+01  0.22658522606E+01  0.38628877930E+02  0.47000000000E+01 0. -1.
         -5    1    5    5    0  503 -0.49282516242E+02  0.28109523926E+02  0.15292779798E+03  0.16318061508E+03  0.47000000000E+01 0. -1.
<mgrwt>
<rscale>  0 0.30237048E+03</rscale>
<asrwt>0</asrwt>
<pdfrwt beam="1">  1        2 0.11397718E+00 0.30237048E+03</pdfrwt>
<pdfrwt beam="2">  1       -2 0.47465072E-02 0.30237048E+03</pdfrwt>
<totfact> 0.82909872E+03</totfact>
</mgrwt>
</event>
<event>
 9    1  0.7944303E-001  0.2793405E+03  0.7818608E-02  0.1096050E+00
          4   -1    0    0  501    0  0.00000000000E+00  0.00000000000E+00  0.92873069063E+03  0.92873069063E+03  0.00000000000E+00 0. -1.
         -4   -1    0    0    0  501 -0.00000000000E+00 -0.00000000000E+00 -0.21004780077E+02  0.21004780077E+02  0.00000000000E+00 0. -1.
         35    2    1    2    0    0  0.00000000000E+00  0.00000000000E+00  0.90772591056E+03  0.94973547071E+03  0.27934053703E+03 0.  0.
         25    2    3    3    0    0  0.50209535235E+02  0.19877997927E+02  0.56136050498E+03  0.57759714064E+03  0.12480668290E+03 0.  0.
         25    2    3    3    0    0 -0.50209535235E+02 -0.19877997927E+02  0.34636540558E+03  0.37213833007E+03  0.12490720674E+03 0.  0.
          5    1    4    4  502    0 -0.16410163377E+01 -0.47887033104E+02  0.25683566170E+03  0.26130921912E+03  0.47000000000E+01 0.  1.
         -5    1    4    4    0  502  0.51850551573E+02  0.67765031031E+02  0.30452484328E+03  0.31628792152E+03  0.47000000000E+01 0.  1.
          5    1    5    5  503    0 -0.30522882580E+02 -0.53096078011E+02  0.70335186728E+02  0.93380770789E+02  0.47000000000E+01 0. -1.
         -5    1    5    5    0  503 -0.19686652656E+02  0.33218080083E+02  0.27603021885E+03  0.27875755928E+03  0.47000000000E+01 0. -1.
<mgrwt>
<rscale>  0 0.27934054E+03</rscale>
<asrwt>0</asrwt>
<pdfrwt beam="1">  1        4 0.14288161E+00 0.27934054E+03</pdfrwt>
<pdfrwt beam="2">  1       -4 0.32315053E-02 0.27934054E+03</pdfrwt>
<totfact> 0.32229273E+02</totfact>
</mgrwt>
</event>
<event>
 9    1  0.7944303E-001  0.2773311E+03  0.7818608E-02  0.1097156E+00
         -2   -1    0    0    0  501 -0.00000000000E+00  0.00000000000E+00  0.64536971766E+02  0.64536971766E+02  0.00000000000E+00 0.  1.
          2   -1    0    0  501    0  0.00000000000E+00 -0.00000000000E+00 -0.29793982613E+03  0.29793982613E+03  0.00000000000E+00 0.  1.
         35    2    1    2    0    0  0.00000000000E+00  0.14210854715E-13 -0.23340285437E+03  0.36247679790E+03  0.27733109560E+03 0.  0.
         25    2    3    3    0    0 -0.46523991336E+02  0.41018759724E+02 -0.11268014304E+03  0.17946161418E+03  0.12515045310E+03 0.  0.
         25    2    3    3    0    0  0.46523991336E+02 -0.41018759724E+02 -0.12072271132E+03  0.18301518372E+03  0.12277444368E+03 0.  0.
          5    1    4    4  502    0 -0.16934940897E+02  0.82092365395E+02 -0.46376934860E+02  0.95910681190E+02  0.47000000000E+01 0. -1.
         -5    1    4    4    0  502 -0.29589050439E+02 -0.41073605671E+02 -0.66303208182E+02  0.83550932992E+02  0.47000000000E+01 0. -1.
          5    1    5    5  503    0  0.72983051268E+02  0.79206723971E+01 -0.36894028594E+02  0.82295335041E+02  0.47000000000E+01 0.  1.
         -5    1    5    5    0  503 -0.26459059932E+02 -0.48939432121E+02 -0.83828682730E+02  0.10071984867E+03  0.47000000000E+01 0.  1.
<mgrwt>
<rscale>  0 0.27733110E+03</rscale>
<asrwt>0</asrwt>
<pdfrwt beam="1">  1        2 0.45836896E-01 0.27733110E+03</pdfrwt>
<pdfrwt beam="2">  1       -2 0.99287649E-02 0.27733110E+03</pdfrwt>
<totfact> 0.73425860E+03</totfact>
</mgrwt>
</event>
<event>
 9    1  0.7944303E-001  0.2694972E+03  0.7818608E-02  0.1101568E+00
         -1   -1    0    0    0  501 -0.00000000000E+00  0.00000000000E+00  0.45565106226E+02  0.45565106226E+02  0.00000000000E+00 0. -1.
          1   -1    0    0  501    0  0.00000000000E+00 -0.00000000000E+00 -0.39848894907E+03  0.39848894907E+03  0.00000000000E+00 0. -1.
         35    2    1    2    0    0 -0.71054273576E-14  0.00000000000E+00 -0.35292384284E+03  0.44405405529E+03  0.26949724521E+03 0.  0.
         25    2    3    3    0    0 -0.44845086280E+02  0.61061275513E+01 -0.15192962022E+03  0.20153034229E+03  0.12443272402E+03 0.  0.
         25    2    3    3    0    0  0.44845086280E+02 -0.61061275513E+01 -0.20099422262E+03  0.24252371300E+03  0.12794806479E+03 0.  0.
          5    1    4    4  502    0  0.17358712263E+02 -0.11665132011E+02 -0.13192115204E+03  0.13365133951E+03  0.47000000000E+01 0.  1.
         -5    1    4    4    0  502 -0.62203798543E+02  0.17771259562E+02 -0.20008468176E+02  0.67879002780E+02  0.47000000000E+01 0.  1.
          5    1    5    5  503    0 -0.10309331017E+02  0.52558309513E+02 -0.64401080803E+02  0.83894263294E+02  0.47000000000E+01 0. -1.
         -5    1    5    5    0  503  0.55154417297E+02 -0.58664437065E+02 -0.13659314182E+03  0.15862944971E+03  0.47000000000E+01 0. -1.
<mgrwt>
<rscale>  0 0.26949725E+03</rscale>
<asrwt>0</asrwt>
<pdfrwt beam="1">  1        1 0.61305991E-01 0.26949725E+03</pdfrwt>
<pdfrwt beam="2">  1       -1 0.70100165E-02 0.26949725E+03</pdfrwt>
<totfact> 0.63753306E+03</totfact>
</mgrwt>
</event>
<event>
 9    1  0.7944303E-001  0.2771481E+03  0.7818608E-02  0.1097257E+00
         -1   -1    0    0    0  501 -0.00000000000E+00  0.00000000000E+00  0.50525424984E+02  0.50525424984E+02  0.00000000000E+00 0.  1.
          1   -1    0    0  501    0  0.00000000000E+00 -0.00000000000E+00 -0.38006139406E+03  0.38006139406E+03  0.00000000000E+00 0.  1.
         35    2    1    2    0    0 -0.71054273576E-14 -0.14210854715E-13 -0.32953596908E+03  0.43058681905E+03  0.27714807201E+03 0.  0.
         25    2    3    3    0    0  0.29883805238E+02 -0.41821078357E+02 -0.20026057293E+03  0.24187354492E+03  0.12552477942E+03 0.  0.
         25    2    3    3    0    0 -0.29883805238E+02  0.41821078357E+02 -0.12927539615E+03  0.18871327413E+03  0.12750893056E+03 0.  0.
          5    1    4    4  502    0 -0.13640063648E+02 -0.28223729646E+00 -0.17638477371E+03  0.17697403592E+03  0.47000000000E+01 0.  1.
         -5    1    4    4    0  502  0.43523868886E+02 -0.41538841061E+02 -0.23875799225E+02  0.64899508998E+02  0.47000000000E+01 0.  1.
          5    1    5    5  503    0  0.28806555015E+02 -0.31782365653E+02 -0.43468586404E+02  0.61249852100E+02  0.47000000000E+01 0.  1.
         -5    1    5    5    0  503 -0.58690360254E+02  0.73603444010E+02 -0.85806809741E+02  0.12746342203E+03  0.47000000000E+01 0.  1.
<mgrwt>
<rscale>  0 0.27714807E+03</rscale>
<asrwt>0</asrwt>
<pdfrwt beam="1">  1        1 0.58470983E-01 0.27714807E+03</pdfrwt>
<pdfrwt beam="2">  1       -1 0.77731424E-02 0.27714807E+03</pdfrwt>
<totfact> 0.57930556E+03</totfact>
</mgrwt>
</event>
<event>
 9    1  0.7944303E-001  0.2737043E+03  0.7818608E-02  0.1099178E+00
         -2   -1    0    0    0  501 -0.00000000000E+00  0.00000000000E+00  0.45088144276E+02  0.45088144276E+02  0.00000000000E+00 0. -1.
          2   -1    0    0  501    0  0.00000000000E+00 -0.00000000000E+00 -0.41537559462E+03  0.41537559462E+03  0.00000000000E+00 0. -1.
         35    2    1    2    0    0  0.00000000000E+00  0.71054273576E-14 -0.37028745034E+03  0.46046373889E+03  0.27370432762E+03 0.  0.
         25    2    3    3    0    0 -0.49053685197E+02 -0.25621086130E+02 -0.19892329410E+03  0.24147515403E+03  0.12520810275E+03 0.  0.
         25    2    3    3    0    0  0.49053685197E+02  0.25621086130E+02 -0.17136415624E+03  0.21898858486E+03  0.12460987990E+03 0.  0.
          5    1    4    4  502    0 -0.13723763538E+02 -0.23400418195E+02  0.10173048390E+02  0.29351357224E+02  0.47000000000E+01 0.  1.
         -5    1    4    4    0  502 -0.35329921660E+02 -0.22206679357E+01 -0.20909634249E+03  0.21212379681E+03  0.47000000000E+01 0.  1.
          5    1    5    5  503    0 -0.38761990187E+02  0.27756532437E+02 -0.69303176600E+02  0.84249256750E+02  0.47000000000E+01 0. -1.
         -5    1    5    5    0  503  0.87815675384E+02 -0.21354463062E+01 -0.10206097964E+03  0.13473932811E+03  0.47000000000E+01 0. -1.
<mgrwt>
<rscale>  0 0.27370433E+03</rscale>
<asrwt>0</asrwt>
<pdfrwt beam="1">  1        2 0.63903933E-01 0.27370433E+03</pdfrwt>
<pdfrwt beam="2">  1       -2 0.69366380E-02 0.27370433E+03</pdfrwt>
<totfact> 0.89899583E+03</totfact>
</mgrwt>
</event>
<event>
 9    1  0.7944303E-001  0.2750804E+03  0.7818608E-02  0.1098407E+00
          2   -1    0    0  501    0  0.00000000000E+00  0.00000000000E+00  0.56038610156E+03  0.56038610156E+03  0.00000000000E+00 0.  1.
         -2   -1    0    0    0  501 -0.00000000000E+00 -0.00000000000E+00 -0.33757641580E+02  0.33757641580E+02  0.00000000000E+00 0.  1.
         35    2    1    2    0    0  0.35527136788E-14  0.00000000000E+00  0.52662845998E+03  0.59414374313E+03  0.27508044760E+03 0.  0.
         25    2    3    3    0    0  0.12162784136E+01  0.37179215308E+01  0.13821233009E+03  0.18621147957E+03  0.12472676001E+03 0.  0.
         25    2    3    3    0    0 -0.12162784136E+01 -0.37179215308E+01  0.38841612988E+03  0.40793226356E+03  0.12460473277E+03 0.  0.
          5    1    4    4  502    0 -0.41318247095E+02  0.31255065508E+02  0.12228372991E+03  0.13288896592E+03  0.47000000000E+01 0.  1.
         -5    1    4    4    0  502  0.42534525509E+02 -0.27537143977E+02  0.15928600187E+02  0.53322513656E+02  0.47000000000E+01 0.  1.
          5    1    5    5  503    0 -0.27335812358E+02  0.31000699030E+02  0.34069528146E+03  0.34322537026E+03  0.47000000000E+01 0.  1.
         -5    1    5    5    0  503  0.26119533945E+02 -0.34718620561E+02  0.47720848419E+02  0.64706893303E+02  0.47000000000E+01 0.  1.
<mgrwt>
<rscale>  0 0.27508045E+03</rscale>
<asrwt>0</asrwt>
<pdfrwt beam="1">  1        2 0.86213239E-01 0.27508045E+03</pdfrwt>
<pdfrwt beam="2">  1       -2 0.51934837E-02 0.27508045E+03</pdfrwt>
<totfact> 0.10043148E+04</totfact>
</mgrwt>
</event>
<event>
 9    1  0.7944303E-001  0.2796895E+03  0.7818608E-02  0.1095859E+00
         -1   -1    0    0    0  501 -0.00000000000E+00  0.00000000000E+00  0.66853164775E+02  0.66853164775E+02  0.00000000000E+00 0.  1.
          1   -1    0    0  501    0  0.00000000000E+00 -0.00000000000E+00 -0.29252997101E+03  0.29252997101E+03  0.00000000000E+00 0.  1.
         35    2    1    2    0    0  0.71054273576E-14  0.00000000000E+00 -0.22567680623E+03  0.35938313579E+03  0.27968950180E+03 0.  0.
         25    2    3    3    0    0  0.24750444459E+01 -0.36502074105E+02 -0.47060364083E+02  0.13889532767E+03  0.12545400321E+03 0.  0.
         25    2    3    3    0    0 -0.24750444459E+01  0.36502074105E+02 -0.17861644215E+03  0.22048780812E+03  0.12398593816E+03 0.  0.
          5    1    4    4  502    0  0.46858067044E+02 -0.12389280682E+02 -0.68315135067E+02  0.83894102308E+02  0.47000000000E+01 0.  1.
         -5    1    4    4    0  502 -0.44383022598E+02 -0.24112793423E+02  0.21254770984E+02  0.55001225360E+02  0.47000000000E+01 0.  1.
          5    1    5    5  503    0  0.18706675100E+02 -0.24533077747E+02 -0.14340091454E+03  0.14675736400E+03  0.47000000000E+01 0. -1.
         -5    1    5    5    0  503 -0.21181719546E+02  0.61035151852E+02 -0.35215527609E+02  0.73730444115E+02  0.47000000000E+01 0. -1.
<mgrwt>
<rscale>  0 0.27968950E+03</rscale>
<asrwt>0</asrwt>
<pdfrwt beam="1">  1        1 0.45004611E-01 0.27968950E+03</pdfrwt>
<pdfrwt beam="2">  1       -1 0.10285102E-01 0.27968950E+03</pdfrwt>
<totfact> 0.52480976E+03</totfact>
</mgrwt>
</event>
<event>
 9    1  0.7944303E-001  0.2777168E+03  0.7818608E-02  0.1096943E+00
         -2   -1    0    0    0  501 -0.00000000000E+00  0.00000000000E+00  0.95476715400E+01  0.95476715400E+01  0.00000000000E+00 0.  1.
          2   -1    0    0  501    0  0.00000000000E+00 -0.00000000000E+00 -0.20195140930E+04  0.20195140930E+04  0.00000000000E+00 0.  1.
         35    2    1    2    0    0  0.00000000000E+00 -0.35527136788E-14 -0.20099664215E+04  0.20290617646E+04  0.27771681426E+03 0.  0.
         25    2    3    3    0    0 -0.59605352480E+02  0.25417595879E+02 -0.12189826414E+04  0.12256499991E+04  0.11000176447E+03 0.  0.
         25    2    3    3    0    0  0.59605352480E+02 -0.25417595879E+02 -0.79098378012E+03  0.80341176544E+03  0.12496508395E+03 0.  0.
          5    1    4    4  502    0 -0.26059266888E+02  0.96014485238E+01 -0.11114032897E+04  0.11117601520E+04  0.47000000000E+01 0. -1.
         -5    1    4    4    0  502 -0.33546085592E+02  0.15816147355E+02 -0.10757935168E+03  0.11388984715E+03  0.47000000000E+01 0. -1.
          5    1    5    5  503    0 -0.86605852016E+01 -0.90853410670E+01 -0.59556687032E+03  0.59571766482E+03  0.47000000000E+01 0.  1.
         -5    1    5    5    0  503  0.68265937682E+02 -0.16332254812E+02 -0.19541690980E+03  0.20769410062E+03  0.47000000000E+01 0.  1.
<mgrwt>
<rscale>  0 0.27771681E+03</rscale>
<asrwt>0</asrwt>
<pdfrwt beam="1">  1        2 0.31069493E+00 0.27771681E+03</pdfrwt>
<pdfrwt beam="2">  1       -2 0.14688704E-02 0.27771681E+03</pdfrwt>
<totfact> 0.88281178E+03</totfact>
</mgrwt>
</event>
<event>
 9    1  0.7944303E-001  0.2728049E+03  0.7818608E-02  0.1099685E+00
         -1   -1    0    0    0  501 -0.00000000000E+00  0.00000000000E+00  0.28793730872E+02  0.28793730872E+02  0.00000000000E+00 0. -1.
          1   -1    0    0  501    0  0.00000000000E+00 -0.00000000000E+00 -0.64616949042E+03  0.64616949042E+03  0.00000000000E+00 0. -1.
         35    2    1    2    0    0 -0.14210854715E-13  0.00000000000E+00 -0.61737575955E+03  0.67496322129E+03  0.27280491495E+03 0.  0.
         25    2    3    3    0    0  0.28362853919E+02  0.46692839252E+02 -0.28852938538E+03  0.31922884831E+03  0.12519256625E+03 0.  0.
         25    2    3    3    0    0 -0.28362853919E+02 -0.46692839252E+02 -0.32884637417E+03  0.35573437299E+03  0.12418668850E+03 0.  0.
          5    1    4    4  502    0  0.72510992934E+02  0.51341634671E+02 -0.15868840096E+03  0.18192829947E+03  0.47000000000E+01 0. -1.
         -5    1    4    4    0  502 -0.44148139015E+02 -0.46487954191E+01 -0.12984098442E+03  0.13730054884E+03  0.47000000000E+01 0. -1.
          5    1    5    5  503    0 -0.21020135774E+02 -0.23888062333E+02 -0.69419208176E+01  0.32905408289E+02  0.47000000000E+01 0. -1.
         -5    1    5    5    0  503 -0.73427181446E+01 -0.22804776919E+02 -0.32190445335E+03  0.32282896470E+03  0.47000000000E+01 0. -1.
<mgrwt>
<rscale>  0 0.27280491E+03</rscale>
<asrwt>0</asrwt>
<pdfrwt beam="1">  1        1 0.99410697E-01 0.27280491E+03</pdfrwt>
<pdfrwt beam="2">  1       -1 0.44298045E-02 0.27280491E+03</pdfrwt>
<totfact> 0.66604556E+03</totfact>
</mgrwt>
</event>
<event>
 9    1  0.7944303E-001  0.2765873E+03  0.7818608E-02  0.1097568E+00
          2   -1    0    0  501    0  0.00000000000E+00  0.00000000000E+00  0.27741500167E+03  0.27741500167E+03  0.00000000000E+00 0. -1.
         -2   -1    0    0    0  501 -0.00000000000E+00 -0.00000000000E+00 -0.68940495420E+02  0.68940495420E+02  0.00000000000E+00 0. -1.
         35    2    1    2    0    0 -0.35527136788E-14  0.00000000000E+00  0.20847450625E+03  0.34635549709E+03  0.27658725677E+03 0.  0.
         25    2    3    3    0    0 -0.31325190866E+02  0.32958354182E+02  0.15126980491E+03  0.20148194487E+03  0.12507957282E+03 0.  0.
         25    2    3    3    0    0  0.31325190866E+02 -0.32958354182E+02  0.57204701342E+02  0.14487355222E+03  0.12509375518E+03 0.  0.
          5    1    4    4  502    0 -0.11453335036E+02  0.75303449838E+02  0.54124466653E+02  0.93559266411E+02  0.47000000000E+01 0.  1.
         -5    1    4    4    0  502 -0.19871855831E+02 -0.42345095656E+02  0.97145338258E+02  0.10792267846E+03  0.47000000000E+01 0.  1.
          5    1    5    5  503    0  0.30124157233E+02 -0.20310069205E+02 -0.35601745160E+02  0.51083637484E+02  0.47000000000E+01 0.  1.
         -5    1    5    5    0  503  0.12010336334E+01 -0.12648284976E+02  0.92806446503E+02  0.93789914741E+02  0.47000000000E+01 0.  1.
<mgrwt>
<rscale>  0 0.27658726E+03</rscale>
<asrwt>0</asrwt>
<pdfrwt beam="1">  1        2 0.42679231E-01 0.27658726E+03</pdfrwt>
<pdfrwt beam="2">  1       -2 0.10606230E-01 0.27658726E+03</pdfrwt>
<totfact> 0.71364966E+03</totfact>
</mgrwt>
</event>
<event>
 9    1  0.7944303E-001  0.2736863E+03  0.7818608E-02  0.1099188E+00
          2   -1    0    0  501    0  0.00000000000E+00  0.00000000000E+00  0.21535872035E+04  0.21535872035E+04  0.00000000000E+00 0. -1.
         -2   -1    0    0    0  501 -0.00000000000E+00 -0.00000000000E+00 -0.86952826518E+01  0.86952826518E+01  0.00000000000E+00 0. -1.
         35    2    1    2    0    0  0.00000000000E+00  0.00000000000E+00  0.21448919208E+04  0.21622824861E+04  0.27368631277E+03 0.  0.
         25    2    3    3    0    0 -0.34196033661E+02  0.51287452531E+02  0.10606169586E+04  0.10694476829E+04  0.12251629304E+03 0.  0.
         25    2    3    3    0    0  0.34196033661E+02 -0.51287452531E+02  0.10842749622E+04  0.10928348032E+04  0.12180288157E+03 0.  0.
          5    1    4    4  502    0 -0.23498169445E+01  0.72172718308E+02  0.33079101442E+03  0.33861365615E+03  0.47000000000E+01 0.  1.
         -5    1    4    4    0  502 -0.31846216716E+02 -0.20885265778E+02  0.72982594419E+03  0.73083402676E+03  0.47000000000E+01 0.  1.
          5    1    5    5  503    0 -0.10742432168E+01 -0.17676238821E+02  0.18853854229E+02  0.26289945542E+02  0.47000000000E+01 0.  1.
         -5    1    5    5    0  503  0.35270276877E+02 -0.33611213710E+02  0.10654211080E+04  0.10665448577E+04  0.47000000000E+01 0.  1.
<mgrwt>
<rscale>  0 0.27368631E+03</rscale>
<asrwt>0</asrwt>
<pdfrwt beam="1">  1        2 0.33132068E+00 0.27368631E+03</pdfrwt>
<pdfrwt beam="2">  1       -2 0.13377375E-02 0.27368631E+03</pdfrwt>
<totfact> 0.85969256E+03</totfact>
</mgrwt>
</event>
<event>
 9    1  0.7944303E-001  0.2771887E+03  0.7818608E-02  0.1097234E+00
         -2   -1    0    0    0  501 -0.00000000000E+00  0.00000000000E+00  0.63563998357E+02  0.63563998357E+02  0.00000000000E+00 0. -1.
          2   -1    0    0  501    0  0.00000000000E+00 -0.00000000000E+00 -0.30218972857E+03  0.30218972857E+03  0.00000000000E+00 0. -1.
         35    2    1    2    0    0  0.00000000000E+00  0.71054273576E-14 -0.23862573021E+03  0.36575372693E+03  0.27718865352E+03 0.  0.
         25    2    3    3    0    0  0.44856013676E+02 -0.15157523276E+02 -0.16914741808E+03  0.21501937871E+03  0.12401883608E+03 0.  0.
         25    2    3    3    0    0 -0.44856013676E+02  0.15157523276E+02 -0.69478312131E+02  0.15073434822E+03  0.12510713569E+03 0.  0.
          5    1    4    4  502    0  0.31702670532E+02 -0.57160721034E+02 -0.15542638485E+03  0.16867678695E+03  0.47000000000E+01 0.  1.
         -5    1    4    4    0  502  0.13153343144E+02  0.42003197758E+02 -0.13721033228E+02  0.46342591756E+02  0.47000000000E+01 0.  1.
          5    1    5    5  503    0 -0.20944710912E+02  0.70274302120E+02 -0.36755224288E+02  0.82159570143E+02  0.47000000000E+01 0.  1.
         -5    1    5    5    0  503 -0.23911302765E+02 -0.55116778844E+02 -0.32723087843E+02  0.68574778075E+02  0.47000000000E+01 0.  1.
<mgrwt>
<rscale>  0 0.27718865E+03</rscale>
<asrwt>0</asrwt>
<pdfrwt beam="1">  1        2 0.46490727E-01 0.27718865E+03</pdfrwt>
<pdfrwt beam="2">  1       -2 0.97790767E-02 0.27718865E+03</pdfrwt>
<totfact> 0.74079748E+03</totfact>
</mgrwt>
</event>
<event>
 9    1  0.7944303E-001  0.2724107E+03  0.7818608E-02  0.1099908E+00
          1   -1    0    0  501    0  0.00000000000E+00  0.00000000000E+00  0.82183029783E+03  0.82183029783E+03  0.00000000000E+00 0.  1.
         -1   -1    0    0    0  501 -0.00000000000E+00 -0.00000000000E+00 -0.22573877450E+02  0.22573877450E+02  0.00000000000E+00 0.  1.
         35    2    1    2    0    0  0.71054273576E-14  0.00000000000E+00  0.79925642038E+03  0.84440417528E+03  0.27241069309E+03 0.  0.
         25    2    3    3    0    0 -0.16258292033E+02 -0.32780314539E+02  0.52097167625E+03  0.53704347189E+03  0.12516118474E+03 0.  0.
         25    2    3    3    0    0  0.16258292033E+02  0.32780314539E+02  0.27828474414E+03  0.30736070340E+03  0.12525702412E+03 0.  0.
          5    1    4    4  502    0  0.26439814704E+02 -0.40379831812E+02  0.77434394195E+02  0.91366131707E+02  0.47000000000E+01 0.  1.
         -5    1    4    4    0  502 -0.42698106737E+02  0.75995172729E+01  0.44353728205E+03  0.44567734018E+03  0.47000000000E+01 0.  1.
          5    1    5    5  503    0  0.36717900415E+02  0.74657788435E+02  0.16768290062E+03  0.18724752266E+03  0.47000000000E+01 0.  1.
         -5    1    5    5    0  503 -0.20459608382E+02 -0.41877473896E+02  0.11060184352E+03  0.12011318073E+03  0.47000000000E+01 0.  1.
<mgrwt>
<rscale>  0 0.27241069E+03</rscale>
<asrwt>0</asrwt>
<pdfrwt beam="1">  1        1 0.12643541E+00 0.27241069E+03</pdfrwt>
<pdfrwt beam="2">  1       -1 0.34729049E-02 0.27241069E+03</pdfrwt>
<totfact> 0.66926042E+03</totfact>
</mgrwt>
</event>
<event>
 9    1  0.7944303E-001  0.2931532E+03  0.7818608E-02  0.1088714E+00
         -2   -1    0    0    0  501 -0.00000000000E+00  0.00000000000E+00  0.17616978141E+03  0.17616978141E+03  0.00000000000E+00 0.  1.
          2   -1    0    0  501    0  0.00000000000E+00 -0.00000000000E+00 -0.12195453136E+03  0.12195453136E+03  0.00000000000E+00 0.  1.
         35    2    1    2    0    0  0.00000000000E+00 -0.14210854715E-13  0.54215250045E+02  0.29812431277E+03  0.29315322364E+03 0.  0.
         25    2    3    3    0    0  0.54489234377E+02  0.34750633261E+02  0.67597622189E+02  0.15589215582E+03  0.12472466695E+03 0.  0.
         25    2    3    3    0    0 -0.54489234377E+02 -0.34750633261E+02 -0.13382372144E+02  0.14223215696E+03  0.12599291811E+03 0.  0.
          5    1    4    4  502    0  0.93935176305E+02  0.27499170364E+02  0.35199799332E+02  0.10412078367E+03  0.47000000000E+01 0.  1.
         -5    1    4    4    0  502 -0.39445941928E+02  0.72514628976E+01  0.32397822857E+02  0.51771372153E+02  0.47000000000E+01 0.  1.
          5    1    5    5  503    0 -0.63758085503E+02 -0.70648165027E+01 -0.59386328132E+02  0.87543309671E+02  0.47000000000E+01 0. -1.
         -5    1    5    5    0  503  0.92688511263E+01 -0.27685816758E+02  0.46003955988E+02  0.54688847285E+02  0.47000000000E+01 0. -1.
<mgrwt>
<rscale>  0 0.29315322E+03</rscale>
<asrwt>0</asrwt>
<pdfrwt beam="1">  1        2 0.18762236E-01 0.29315322E+03</pdfrwt>
<pdfrwt beam="2">  1       -2 0.27103043E-01 0.29315322E+03</pdfrwt>
<totfact> 0.36693230E+03</totfact>
</mgrwt>
</event>
<event>
 9    1  0.7944303E-001  0.2764259E+03  0.7818608E-02  0.1097657E+00
         -1   -1    0    0    0  501 -0.00000000000E+00  0.00000000000E+00  0.29854308330E+02  0.29854308330E+02  0.00000000000E+00 0. -1.
          1   -1    0    0  501    0  0.00000000000E+00 -0.00000000000E+00 -0.63986809012E+03  0.63986809012E+03  0.00000000000E+00 0. -1.
         35    2    1    2    0    0  0.00000000000E+00 -0.14210854715E-13 -0.61001378179E+03  0.66972239845E+03  0.27642589787E+03 0.  0.
         25    2    3    3    0    0 -0.20006891019E+02  0.16551351357E+02 -0.43108241256E+03  0.44966806926E+03  0.12528009888E+03 0.  0.
         25    2    3    3    0    0  0.20006891019E+02 -0.16551351357E+02 -0.17893136924E+03  0.22005432920E+03  0.12543225256E+03 0.  0.
          5    1    4    4  502    0 -0.36309075250E+02  0.65746099821E+02 -0.23216419005E+03  0.24405573079E+03  0.47000000000E+01 0.  1.
         -5    1    4    4    0  502  0.16302184231E+02 -0.49194748464E+02 -0.19891822251E+03  0.20561233847E+03  0.47000000000E+01 0.  1.
          5    1    5    5  503    0 -0.17192072376E+02 -0.17029106912E+02 -0.18083587181E+03  0.18250824740E+03  0.47000000000E+01 0. -1.
         -5    1    5    5    0  503  0.37198963395E+02  0.47775555490E+00  0.19045025779E+01  0.37546081794E+02  0.47000000000E+01 0. -1.
<mgrwt>
<rscale>  0 0.27642590E+03</rscale>
<asrwt>0</asrwt>
<pdfrwt beam="1">  1        1 0.98441238E-01 0.27642590E+03</pdfrwt>
<pdfrwt beam="2">  1       -1 0.45929708E-02 0.27642590E+03</pdfrwt>
<totfact> 0.64009981E+03</totfact>
</mgrwt>
</event>
<event>
 9    1  0.7944303E-001  0.2828390E+03  0.7818608E-02  0.1094148E+00
         -2   -1    0    0    0  501 -0.00000000000E+00  0.00000000000E+00  0.94619666878E+02  0.94619666878E+02  0.00000000000E+00 0.  1.
          2   -1    0    0  501    0  0.00000000000E+00 -0.00000000000E+00 -0.21136701161E+03  0.21136701161E+03  0.00000000000E+00 0.  1.
         35    2    1    2    0    0  0.00000000000E+00  0.00000000000E+00 -0.11674734473E+03  0.30598667848E+03  0.28283900882E+03 0.  0.
         25    2    3    3    0    0 -0.46271894179E+02  0.39493867010E+02 -0.30437845795E+02  0.14221575662E+03  0.12489197433E+03 0.  0.
         25    2    3    3    0    0  0.46271894179E+02 -0.39493867010E+02 -0.86309498934E+02  0.16377092186E+03  0.12518279242E+03 0.  0.
          5    1    4    4  502    0 -0.43725862678E+02 -0.37887495792E+02  0.21387114476E+01  0.58086809957E+02  0.47000000000E+01 0. -1.
         -5    1    4    4    0  502 -0.25460315013E+01  0.77381362802E+02 -0.32576557242E+02  0.84128946667E+02  0.47000000000E+01 0. -1.
          5    1    5    5  503    0  0.83596087117E+02 -0.44043018098E+02 -0.37000310547E+02  0.10158349376E+03  0.47000000000E+01 0. -1.
         -5    1    5    5    0  503 -0.37324192938E+02  0.45491510876E+01 -0.49309188387E+02  0.62187428098E+02  0.47000000000E+01 0. -1.
<mgrwt>
<rscale>  0 0.28283901E+03</rscale>
<asrwt>0</asrwt>
<pdfrwt beam="1">  1        2 0.32518001E-01 0.28283901E+03</pdfrwt>
<pdfrwt beam="2">  1       -2 0.14556872E-01 0.28283901E+03</pdfrwt>
<totfact> 0.57380582E+03</totfact>
</mgrwt>
</event>
<event>
 9    1  0.7944303E-001  0.2733997E+03  0.7818608E-02  0.1099349E+00
         -1   -1    0    0    0  501 -0.00000000000E+00  0.00000000000E+00  0.47335672914E+03  0.47335672914E+03  0.00000000000E+00 0.  1.
          1   -1    0    0  501    0  0.00000000000E+00 -0.00000000000E+00 -0.39477314273E+02  0.39477314273E+02  0.00000000000E+00 0.  1.
         35    2    1    2    0    0  0.00000000000E+00  0.00000000000E+00  0.43387941486E+03  0.51283404341E+03  0.27339972465E+03 0.  0.
         25    2    3    3    0    0 -0.49551575053E+02  0.27286806827E+02  0.20436687406E+03  0.24515504366E+03  0.12302539494E+03 0.  0.
         25    2    3    3    0    0  0.49551575053E+02 -0.27286806827E+02  0.22951254080E+03  0.26767899975E+03  0.12560299401E+03 0.  0.
          5    1    4    4  502    0 -0.18610215669E+02  0.63468116596E+02  0.17925562451E+03  0.19112616480E+03  0.47000000000E+01 0.  1.
         -5    1    4    4    0  502 -0.30941359385E+02 -0.36181309769E+02  0.25111249553E+02  0.54028878863E+02  0.47000000000E+01 0.  1.
          5    1    5    5  503    0  0.77045201103E+02  0.23825452270E+01  0.20746515338E+03  0.22137190292E+03  0.47000000000E+01 0.  1.
         -5    1    5    5    0  503 -0.27493626050E+02 -0.29669352054E+02  0.22047387418E+02  0.46307096828E+02  0.47000000000E+01 0.  1.
<mgrwt>
<rscale>  0 0.27339972E+03</rscale>
<asrwt>0</asrwt>
<pdfrwt beam="1">  1        1 0.60734333E-02 0.27339972E+03</pdfrwt>
<pdfrwt beam="2">  1       -1 0.72824108E-01 0.27339972E+03</pdfrwt>
<totfact> 0.25086850E+03</totfact>
</mgrwt>
</event>
<event>
 9    1  0.7944303E-001  0.2734597E+03  0.7818608E-02  0.1099316E+00
         -1   -1    0    0    0  501 -0.00000000000E+00  0.00000000000E+00  0.38667832408E+02  0.38667832408E+02  0.00000000000E+00 0. -1.
          1   -1    0    0  501    0  0.00000000000E+00 -0.00000000000E+00 -0.48347826146E+03  0.48347826146E+03  0.00000000000E+00 0. -1.
         35    2    1    2    0    0  0.00000000000E+00  0.00000000000E+00 -0.44481042905E+03  0.52214609387E+03  0.27345973296E+03 0.  0.
         25    2    3    3    0    0  0.53271202499E+02  0.13062368723E+02 -0.22326919052E+03  0.26172956000E+03  0.12507911356E+03 0.  0.
         25    2    3    3    0    0 -0.53271202499E+02 -0.13062368723E+02 -0.22154123853E+03  0.26041653387E+03  0.12541054282E+03 0.  0.
          5    1    4    4  502    0 -0.55805555157E+01 -0.49012107063E+02 -0.64658581076E+02  0.81462576349E+02  0.47000000000E+01 0. -1.
         -5    1    4    4    0  502  0.58851758015E+02  0.62074475786E+02 -0.15861060945E+03  0.18026698365E+03  0.47000000000E+01 0. -1.
          5    1    5    5  503    0  0.15233851877E+01 -0.56941811002E+02 -0.53696320181E+02  0.78422416079E+02  0.47000000000E+01 0.  1.
         -5    1    5    5    0  503 -0.54794587687E+02  0.43879442279E+02 -0.16784491835E+03  0.18199411779E+03  0.47000000000E+01 0.  1.
<mgrwt>
<rscale>  0 0.27345973E+03</rscale>
<asrwt>0</asrwt>
<pdfrwt beam="1">  1        1 0.74381270E-01 0.27345973E+03</pdfrwt>
<pdfrwt beam="2">  1       -1 0.59488974E-02 0.27345973E+03</pdfrwt>
<totfact> 0.63600816E+03</totfact>
</mgrwt>
</event>
<event>
 9    1  0.7944303E-001  0.2812703E+03  0.7818608E-02  0.1094997E+00
          2   -1    0    0  501    0  0.00000000000E+00  0.00000000000E+00  0.69396908171E+03  0.69396908171E+03  0.00000000000E+00 0. -1.
         -2   -1    0    0    0  501 -0.00000000000E+00 -0.00000000000E+00 -0.28500186409E+02  0.28500186409E+02  0.00000000000E+00 0. -1.
         35    2    1    2    0    0  0.17763568394E-14 -0.14210854715E-13  0.66546889530E+03  0.72246926812E+03  0.28127031973E+03 0.  0.
         25    2    3    3    0    0 -0.11720355139E+02  0.55085591791E+02  0.25701554632E+03  0.29134741122E+03  0.12511807954E+03 0.  0.
         25    2    3    3    0    0  0.11720355139E+02 -0.55085591791E+02  0.40845334899E+03  0.43112185690E+03  0.12593700033E+03 0.  0.
          5    1    4    4  502    0  0.26126088582E+02 -0.20365603139E+02  0.18368911512E+02  0.38168536859E+02  0.47000000000E+01 0.  1.
         -5    1    4    4    0  502 -0.37846443721E+02  0.75451194930E+02  0.23864663481E+03  0.25317887436E+03  0.47000000000E+01 0.  1.
          5    1    5    5  503    0  0.48937329397E+00  0.51072976659E+01 -0.77482523791E+01  0.10413903716E+02  0.47000000000E+01 0. -1.
         -5    1    5    5    0  503  0.11230981845E+02 -0.60192889457E+02  0.41620160136E+03  0.42070795318E+03  0.47000000000E+01 0. -1.
<mgrwt>
<rscale>  0 0.28127032E+03</rscale>
<asrwt>0</asrwt>
<pdfrwt beam="1">  1        2 0.10676446E+00 0.28127032E+03</pdfrwt>
<pdfrwt beam="2">  1       -2 0.43846446E-02 0.28127032E+03</pdfrwt>
<totfact> 0.10107754E+04</totfact>
</mgrwt>
</event>
<event>
 9    1  0.7944303E-001  0.2751394E+03  0.7818608E-02  0.1098374E+00
          1   -1    0    0  501    0  0.00000000000E+00  0.00000000000E+00  0.47287597141E+03  0.47287597141E+03  0.00000000000E+00 0. -1.
         -1   -1    0    0    0  501 -0.00000000000E+00 -0.00000000000E+00 -0.40021946692E+02  0.40021946692E+02  0.00000000000E+00 0. -1.
         35    2    1    2    0    0 -0.71054273576E-14  0.00000000000E+00  0.43285402472E+03  0.51289791811E+03  0.27513936047E+03 0.  0.
         25    2    3    3    0    0 -0.56962114025E+02 -0.16771883523E+02  0.16988548628E+03  0.21593020584E+03  0.11932642973E+03 0.  0.
         25    2    3    3    0    0  0.56962114025E+02  0.16771883523E+02  0.26296853844E+03  0.29696771227E+03  0.12454473658E+03 0.  0.
          5    1    4    4  502    0 -0.36693951961E+02  0.35749587801E+02  0.14563219595E+03  0.15445162879E+03  0.47000000000E+01 0.  1.
         -5    1    4    4    0  502 -0.20268162064E+02 -0.52521471324E+02  0.24253290331E+02  0.61478577044E+02  0.47000000000E+01 0.  1.
          5    1    5    5  503    0  0.66095842529E+02  0.15229162050E+01  0.49539006455E+02  0.82747705913E+02  0.47000000000E+01 0. -1.
         -5    1    5    5    0  503 -0.91337285036E+01  0.15248967318E+02  0.21342953198E+03  0.21422000636E+03  0.47000000000E+01 0. -1.
<mgrwt>
<rscale>  0 0.27513936E+03</rscale>
<asrwt>0</asrwt>
<pdfrwt beam="1">  1        1 0.72750146E-01 0.27513936E+03</pdfrwt>
<pdfrwt beam="2">  1       -1 0.61572229E-02 0.27513936E+03</pdfrwt>
<totfact> 0.62183735E+03</totfact>
</mgrwt>
</event>
<event>
 9    1  0.7944303E-001  0.2792603E+03  0.7818608E-02  0.1096094E+00
          1   -1    0    0  501    0  0.00000000000E+00  0.00000000000E+00  0.33350403488E+03  0.33350403488E+03  0.00000000000E+00 0. -1.
         -1   -1    0    0    0  501 -0.00000000000E+00 -0.00000000000E+00 -0.58459805222E+02  0.58459805222E+02  0.00000000000E+00 0. -1.
         35    2    1    2    0    0  0.00000000000E+00  0.35527136788E-14  0.27504422965E+03  0.39196384010E+03  0.27926031526E+03 0.  0.
         25    2    3    3    0    0  0.28988881043E+02 -0.22576107390E+02  0.68328149552E+02  0.14758849090E+03  0.12555313925E+03 0.  0.
         25    2    3    3    0    0 -0.28988881043E+02  0.22576107390E+02  0.20671608010E+03  0.24437534920E+03  0.12505094031E+03 0.  0.
          5    1    4    4  502    0  0.44299717437E+02 -0.67534812463E+02  0.29681638263E+02  0.86177175107E+02  0.47000000000E+01 0. -1.
         -5    1    4    4    0  502 -0.15310836394E+02  0.44958705073E+02  0.38646511289E+02  0.61411315796E+02  0.47000000000E+01 0. -1.
          5    1    5    5  503    0 -0.52497751084E+02  0.80105333299E-01  0.22602628405E+02  0.57349708775E+02  0.47000000000E+01 0.  1.
         -5    1    5    5    0  503  0.23508870041E+02  0.22496002056E+02  0.18411345170E+03  0.18702564042E+03  0.47000000000E+01 0.  1.
<mgrwt>
<rscale>  0 0.27926032E+03</rscale>
<asrwt>0</asrwt>
<pdfrwt beam="1">  1        1 0.51308312E-01 0.27926032E+03</pdfrwt>
<pdfrwt beam="2">  1       -1 0.89938163E-02 0.27926032E+03</pdfrwt>
<totfact> 0.54715227E+03</totfact>
</mgrwt>
</event>
<event>
 9    1  0.7944303E-001  0.2695032E+03  0.7818608E-02  0.1101564E+00
          1   -1    0    0  501    0  0.00000000000E+00  0.00000000000E+00  0.56816074401E+03  0.56816074401E+03  0.00000000000E+00 0. -1.
         -1   -1    0    0    0  501 -0.00000000000E+00 -0.00000000000E+00 -0.31959256102E+02  0.31959256102E+02  0.00000000000E+00 0. -1.
         35    2    1    2    0    0 -0.71054273576E-14 -0.35527136788E-14  0.53620148791E+03  0.60012000012E+03  0.26950320759E+03 0.  0.
         25    2    3    3    0    0  0.37452929381E+02 -0.27395694566E+02  0.31334794602E+03  0.34051940446E+03  0.12495312535E+03 0.  0.
         25    2    3    3    0    0 -0.37452929381E+02  0.27395694566E+02  0.22285354189E+03  0.25960059566E+03  0.12480193161E+03 0.  0.
          5    1    4    4  502    0  0.52062259537E+00  0.48242557045E+02  0.10034579405E+03  0.11144049417E+03  0.47000000000E+01 0. -1.
         -5    1    4    4    0  502  0.36932306786E+02 -0.75638251612E+02  0.21300215197E+03  0.22907891028E+03  0.47000000000E+01 0. -1.
          5    1    5    5  503    0  0.45362724576E+02  0.84024698119E+01  0.99100344250E+02  0.10941364865E+03  0.47000000000E+01 0.  1.
         -5    1    5    5    0  503 -0.82815653957E+02  0.18993224754E+02  0.12375319764E+03  0.15018694701E+03  0.47000000000E+01 0.  1.
<mgrwt>
<rscale>  0 0.26950321E+03</rscale>
<asrwt>0</asrwt>
<pdfrwt beam="1">  1        1 0.87409338E-01 0.26950321E+03</pdfrwt>
<pdfrwt beam="2">  1       -1 0.49168091E-02 0.26950321E+03</pdfrwt>
<totfact> 0.68150922E+03</totfact>
</mgrwt>
</event>
<event>
 9    1  0.7944303E-001  0.2791251E+03  0.7818608E-02  0.1096168E+00
         -2   -1    0    0    0  501 -0.00000000000E+00  0.00000000000E+00  0.55582146463E+02  0.55582146463E+02  0.00000000000E+00 0.  1.
          2   -1    0    0  501    0  0.00000000000E+00 -0.00000000000E+00 -0.35043108993E+03  0.35043108993E+03  0.00000000000E+00 0.  1.
         35    2    1    2    0    0  0.14210854715E-13  0.00000000000E+00 -0.29484894346E+03  0.40601323639E+03  0.27912514874E+03 0.  0.
         25    2    3    3    0    0 -0.40180508596E+02  0.16661882975E+01 -0.82186153790E+02  0.15460123490E+03  0.12461833133E+03 0.  0.
         25    2    3    3    0    0  0.40180508596E+02 -0.16661882975E+01 -0.21266278967E+03  0.25141200149E+03  0.12792686554E+03 0.  0.
          5    1    4    4  502    0 -0.60030180937E+02  0.41592588989E+02 -0.16413138500E+02  0.75000314650E+02  0.47000000000E+01 0.  1.
         -5    1    4    4    0  502  0.19849672341E+02 -0.39926400692E+02 -0.65773015290E+02  0.79600920249E+02  0.47000000000E+01 0.  1.
          5    1    5    5  503    0 -0.13937007809E+01  0.58432833480E+02 -0.72248452429E+02  0.93049810902E+02  0.47000000000E+01 0. -1.
         -5    1    5    5    0  503  0.41574209377E+02 -0.60099021778E+02 -0.14041433724E+03  0.15836219059E+03  0.47000000000E+01 0. -1.
<mgrwt>
<rscale>  0 0.27912515E+03</rscale>
<asrwt>0</asrwt>
<pdfrwt beam="1">  1        2 0.53912475E-01 0.27912515E+03</pdfrwt>
<pdfrwt beam="2">  1       -2 0.85510995E-02 0.27912515E+03</pdfrwt>
<totfact> 0.78074039E+03</totfact>
</mgrwt>
</event>
<event>
 9    1  0.7944303E-001  0.2882354E+03  0.7818608E-02  0.1091274E+00
         -3   -1    0    0    0  501 -0.00000000000E+00  0.00000000000E+00  0.46251617790E+02  0.46251617790E+02  0.00000000000E+00 0. -1.
          3   -1    0    0  501    0  0.00000000000E+00 -0.00000000000E+00 -0.44906354736E+03  0.44906354736E+03  0.00000000000E+00 0. -1.
         35    2    1    2    0    0  0.00000000000E+00  0.00000000000E+00 -0.40281192957E+03  0.49531516515E+03  0.28823542847E+03 0.  0.
         25    2    3    3    0    0  0.27554869345E+02 -0.64126777357E+02 -0.17861661784E+03  0.22928485954E+03  0.12568268077E+03 0.  0.
         25    2    3    3    0    0 -0.27554869345E+02  0.64126777357E+02 -0.22419531174E+03  0.26603030562E+03  0.12504827589E+03 0.  0.
          5    1    4    4  502    0  0.35757472357E+02 -0.91426086351E+02 -0.17426476470E+03  0.20006904886E+03  0.47000000000E+01 0. -1.
         -5    1    4    4    0  502 -0.82026030128E+01  0.27299308993E+02 -0.43518531310E+01  0.29215810675E+02  0.47000000000E+01 0. -1.
          5    1    5    5  503    0  0.15171260316E+02 -0.33175863827E+02 -0.54495349119E+02  0.65746772969E+02  0.47000000000E+01 0.  1.
         -5    1    5    5    0  503 -0.42726129661E+02  0.97302641185E+02 -0.16969996262E+03  0.20028353265E+03  0.47000000000E+01 0.  1.
<mgrwt>
<rscale>  0 0.28823543E+03</rscale>
<asrwt>0</asrwt>
<pdfrwt beam="1">  1        3 0.69086698E-01 0.28823543E+03</pdfrwt>
<pdfrwt beam="2">  1       -3 0.71156337E-02 0.28823543E+03</pdfrwt>
<totfact> 0.67510639E+02</totfact>
</mgrwt>
</event>
<event>
 9    1  0.7944303E-001  0.2753500E+03  0.7818608E-02  0.1098256E+00
          1   -1    0    0  501    0  0.00000000000E+00  0.00000000000E+00  0.44850480777E+03  0.44850480777E+03  0.00000000000E+00 0.  1.
         -1   -1    0    0    0  501 -0.00000000000E+00 -0.00000000000E+00 -0.42261327581E+02  0.42261327581E+02  0.00000000000E+00 0.  1.
         35    2    1    2    0    0  0.71054273576E-14 -0.17763568394E-14  0.40624348019E+03  0.49076613535E+03  0.27535002163E+03 0.  0.
         25    2    3    3    0    0 -0.55467766629E+02  0.77876751294E+01  0.22734064203E+03  0.26547823522E+03  0.12513035139E+03 0.  0.
         25    2    3    3    0    0  0.55467766629E+02 -0.77876751294E+01  0.17890283815E+03  0.22528790013E+03  0.12494435331E+03 0.  0.
          5    1    4    4  502    0 -0.29833457405E+02 -0.55309993770E+02  0.14770130202E+03  0.16058329680E+03  0.47000000000E+01 0.  1.
         -5    1    4    4    0  502 -0.25634309224E+02  0.63097668899E+02  0.79639340013E+02  0.10489493843E+03  0.47000000000E+01 0.  1.
          5    1    5    5  503    0 -0.24433908054E+02  0.94865885805E+01 -0.20127113567E+01  0.26704910273E+02  0.47000000000E+01 0.  1.
         -5    1    5    5    0  503  0.79901674683E+02 -0.17274263710E+02  0.18091554951E+03  0.19858298985E+03  0.47000000000E+01 0.  1.
<mgrwt>
<rscale>  0 0.27535002E+03</rscale>
<asrwt>0</asrwt>
<pdfrwt beam="1">  1        1 0.69000737E-01 0.27535002E+03</pdfrwt>
<pdfrwt beam="2">  1       -1 0.65017430E-02 0.27535002E+03</pdfrwt>
<totfact> 0.61378442E+03</totfact>
</mgrwt>
</event>
