<event>
 9    1  0.8285222E-001  0.2737008E+03  0.7818608E-02  0.1099180E+00
         -1   -1    0    0    0  501 -0.00000000000E+00  0.00000000000E+00  0.87815340887E+02  0.87815340887E+02  0.00000000000E+00 0.  1.
          1   -1    0    0  501    0  0.00000000000E+00 -0.00000000000E+00 -0.21326609871E+03  0.21326609871E+03  0.00000000000E+00 0.  1.
         35    2    1    2    0    0  0.24424906542E-14  0.00000000000E+00 -0.12545075782E+03  0.30108143960E+03  0.27370082322E+03 0.  0.
         25    2    3    3    0    0 -0.13181713947E+01  0.54063751818E+02 -0.69458673057E+02  0.15346015866E+03  0.12570157596E+03 0.  0.
         25    2    3    3    0    0  0.13181713947E+01 -0.54063751818E+02 -0.55992084767E+02  0.14762128093E+03  0.12542847441E+03 0.  0.
          5    1    4    4  502    0  0.50262206912E+02  0.26254678374E+02  0.66533924275E+01  0.57288351442E+02  0.47000000000E+01 0.  1.
         -5    1    4    4    0  502 -0.51580378306E+02  0.27809073444E+02 -0.76112065485E+02  0.96171807222E+02  0.47000000000E+01 0.  1.
          5    1    5    5  503    0 -0.11861256747E+01 -0.91769361802E+02 -0.17639243638E+02  0.93574866154E+02  0.47000000000E+01 0.  1.
         -5    1    5    5    0  503  0.25042970694E+01  0.37705609983E+02 -0.38352841129E+02  0.54046414781E+02  0.47000000000E+01 0.  1.
<mgrwt>
<rscale>  0 0.27370082E+03</rscale>
<asrwt>0</asrwt>
<pdfrwt beam="1">  1        1 0.32810169E-01 0.27370082E+03</pdfrwt>
<pdfrwt beam="2">  1       -1 0.13510053E-01 0.27370082E+03</pdfrwt>
<totfact> 0.50957283E+03</totfact>
</mgrwt>
</event>
<event>
 9    1  0.8285222E-001  0.2755332E+03  0.7818608E-02  0.1098154E+00
         -3   -1    0    0    0  501 -0.00000000000E+00  0.00000000000E+00  0.50754620416E+02  0.50754620416E+02  0.00000000000E+00 0.  1.
          3   -1    0    0  501    0  0.00000000000E+00 -0.00000000000E+00 -0.37394891680E+03  0.37394891680E+03  0.00000000000E+00 0.  1.
         35    2    1    2    0    0  0.00000000000E+00  0.00000000000E+00 -0.32319429638E+03  0.42470353721E+03  0.27553319457E+03 0.  0.
         25    2    3    3    0    0 -0.31660011965E+02  0.72563245823E+01 -0.23557719437E+03  0.26877944686E+03  0.12526278755E+03 0.  0.
         25    2    3    3    0    0  0.31660011965E+02 -0.72563245823E+01 -0.87617102008E+02  0.15592409035E+03  0.12482209253E+03 0.  0.
          5    1    4    4  502    0 -0.57135836498E+02  0.44444654644E+02 -0.19459703112E+03  0.20767745582E+03  0.47000000000E+01 0. -1.
         -5    1    4    4    0  502  0.25475824533E+02 -0.37188330062E+02 -0.40980163256E+02  0.61101991039E+02  0.47000000000E+01 0. -1.
          5    1    5    5  503    0  0.77165125387E+02 -0.13700120900E+02 -0.35166835976E+02  0.86028752410E+02  0.47000000000E+01 0. -1.
         -5    1    5    5    0  503 -0.45505113422E+02  0.64437963181E+01 -0.52450266033E+02  0.69895337938E+02  0.47000000000E+01 0. -1.
<mgrwt>
<rscale>  0 0.27553319E+03</rscale>
<asrwt>0</asrwt>
<pdfrwt beam="1">  1        3 0.57530606E-01 0.27553319E+03</pdfrwt>
<pdfrwt beam="2">  1       -3 0.78084027E-02 0.27553319E+03</pdfrwt>
<totfact> 0.84781982E+02</totfact>
</mgrwt>
</event>
<event>
 9    1  0.8285222E-001  0.2751627E+03  0.7818608E-02  0.1098361E+00
         -1   -1    0    0    0  501 -0.00000000000E+00  0.00000000000E+00  0.40157341879E+02  0.40157341879E+02  0.00000000000E+00 0. -1.
          1   -1    0    0  501    0  0.00000000000E+00 -0.00000000000E+00 -0.47136168357E+03  0.47136168357E+03  0.00000000000E+00 0. -1.
         35    2    1    2    0    0 -0.88817841970E-15 -0.71054273576E-14 -0.43120434169E+03  0.51151902545E+03  0.27516273204E+03 0.  0.
         25    2    3    3    0    0 -0.54825702031E+01  0.49654331288E+02 -0.26128444558E+03  0.29413572888E+03  0.12550161078E+03 0.  0.
         25    2    3    3    0    0  0.54825702031E+01 -0.49654331288E+02 -0.16991989611E+03  0.21738329657E+03  0.12604410078E+03 0.  0.
          5    1    4    4  502    0  0.53049577010E+02 -0.60967778480E+01 -0.11668614836E+03  0.12841018472E+03  0.47000000000E+01 0.  1.
         -5    1    4    4    0  502 -0.58532147213E+02  0.55751109136E+02 -0.14459829722E+03  0.16572554415E+03  0.47000000000E+01 0.  1.
          5    1    5    5  503    0  0.10569229799E+01 -0.95665541556E+01  0.20260001428E+02  0.22917105019E+02  0.47000000000E+01 0. -1.
         -5    1    5    5    0  503  0.44256472232E+01 -0.40087777132E+02 -0.19017989754E+03  0.19446619155E+03  0.47000000000E+01 0. -1.
<mgrwt>
<rscale>  0 0.27516273E+03</rscale>
<asrwt>0</asrwt>
<pdfrwt beam="1">  1        1 0.72517185E-01 0.27516273E+03</pdfrwt>
<pdfrwt beam="2">  1       -1 0.61780523E-02 0.27516273E+03</pdfrwt>
<totfact> 0.62128894E+03</totfact>
</mgrwt>
</event>
<event>
 9    1  0.8285222E-001  0.2701913E+03  0.7818608E-02  0.1101170E+00
         -2   -1    0    0    0  501 -0.00000000000E+00  0.00000000000E+00  0.11779229398E+03  0.11779229398E+03  0.00000000000E+00 0.  1.
          2   -1    0    0  501    0  0.00000000000E+00 -0.00000000000E+00 -0.15494076752E+03  0.15494076752E+03  0.00000000000E+00 0.  1.
         35    2    1    2    0    0  0.14210854715E-13 -0.35527136788E-14 -0.37148473540E+02  0.27273306150E+03  0.27019125402E+03 0.  0.
         25    2    3    3    0    0 -0.37685846863E+02 -0.20947026471E+02 -0.44316727137E+02  0.13963742041E+03  0.12520237978E+03 0.  0.
         25    2    3    3    0    0  0.37685846863E+02  0.20947026471E+02  0.71682535974E+01  0.13309564109E+03  0.12571421895E+03 0.  0.
          5    1    4    4  502    0  0.66807648998E+01 -0.34123362721E+02  0.33799243477E+02  0.48718737285E+02  0.47000000000E+01 0. -1.
         -5    1    4    4    0  502 -0.44366611763E+02  0.13176336250E+02 -0.78115970614E+02  0.90918683125E+02  0.47000000000E+01 0. -1.
          5    1    5    5  503    0  0.80355734105E+02  0.11332418066E+02 -0.16790684253E+02  0.83002920313E+02  0.47000000000E+01 0. -1.
         -5    1    5    5    0  503 -0.42669887242E+02  0.96146084055E+01  0.23958937851E+02  0.50092720778E+02  0.47000000000E+01 0. -1.
<mgrwt>
<rscale>  0 0.27019125E+03</rscale>
<asrwt>0</asrwt>
<pdfrwt beam="1">  1        2 0.23837041E-01 0.27019125E+03</pdfrwt>
<pdfrwt beam="2">  1       -2 0.18121891E-01 0.27019125E+03</pdfrwt>
<totfact> 0.56053789E+03</totfact>
</mgrwt>
</event>
<event>
 9    1  0.8285222E-001  0.2929697E+03  0.7818608E-02  0.1088809E+00
          1   -1    0    0  501    0  0.00000000000E+00  0.00000000000E+00  0.28043570888E+02  0.28043570888E+02  0.00000000000E+00 0.  1.
         -1   -1    0    0    0  501 -0.00000000000E+00 -0.00000000000E+00 -0.76515971448E+03  0.76515971448E+03  0.00000000000E+00 0.  1.
         35    2    1    2    0    0  0.71054273576E-14  0.00000000000E+00 -0.73711614359E+03  0.79320328537E+03  0.29296969600E+03 0.  0.
         25    2    3    3    0    0  0.63159963690E+02  0.10164499170E+02 -0.25518158543E+03  0.29132831722E+03  0.12514810753E+03 0.  0.
         25    2    3    3    0    0 -0.63159963690E+02 -0.10164499170E+02 -0.48193455817E+03  0.50187496815E+03  0.12459962777E+03 0.  0.
          5    1    4    4  502    0  0.35738802919E+02  0.57916356338E+02 -0.20719769626E+03  0.21813881291E+03  0.47000000000E+01 0.  1.
         -5    1    4    4    0  502  0.27421160771E+02 -0.47751857169E+02 -0.47983889171E+02  0.73189504309E+02  0.47000000000E+01 0.  1.
          5    1    5    5  503    0 -0.27252758421E+02  0.56567939699E+02 -0.18661148794E+03  0.19694817104E+03  0.47000000000E+01 0.  1.
         -5    1    5    5    0  503 -0.35907205269E+02 -0.66732438869E+02 -0.29532307023E+03  0.30492679711E+03  0.47000000000E+01 0.  1.
<mgrwt>
<rscale>  0 0.29296970E+03</rscale>
<asrwt>0</asrwt>
<pdfrwt beam="1">  1        1 0.43143965E-02 0.29296970E+03</pdfrwt>
<pdfrwt beam="2">  1       -1 0.11771685E+00 0.29296970E+03</pdfrwt>
<totfact> 0.14173194E+03</totfact>
</mgrwt>
</event>
<event>
 9    1  0.8285222E-001  0.2745504E+03  0.7818608E-02  0.1098703E+00
         -1   -1    0    0    0  501 -0.00000000000E+00  0.00000000000E+00  0.12688523377E+02  0.12688523377E+02  0.00000000000E+00 0.  1.
          1   -1    0    0  501    0  0.00000000000E+00 -0.00000000000E+00 -0.14851592567E+04  0.14851592567E+04  0.00000000000E+00 0.  1.
         35    2    1    2    0    0  0.00000000000E+00  0.00000000000E+00 -0.14724707334E+04  0.14978477801E+04  0.27455038116E+03 0.  0.
         25    2    3    3    0    0  0.21766337421E+02  0.47993791096E+02 -0.83775980204E+03  0.84866120533E+03  0.12492869205E+03 0.  0.
         25    2    3    3    0    0 -0.21766337421E+02 -0.47993791096E+02 -0.63471093131E+03  0.64918657478E+03  0.12573012809E+03 0.  0.
          5    1    4    4  502    0  0.52151829303E+02  0.39565152046E+02 -0.77942243715E+03  0.78218069529E+03  0.47000000000E+01 0. -1.
         -5    1    4    4    0  502 -0.30385491881E+02  0.84286390495E+01 -0.58337364889E+02  0.66480510041E+02  0.47000000000E+01 0. -1.
          5    1    5    5  503    0  0.22700345181E+02 -0.75863103681E+02 -0.45684481020E+03  0.46368069486E+03  0.47000000000E+01 0.  1.
         -5    1    5    5    0  503 -0.44466682602E+02  0.27869312585E+02 -0.17786612111E+03  0.18550587992E+03  0.47000000000E+01 0.  1.
<mgrwt>
<rscale>  0 0.27455038E+03</rscale>
<asrwt>0</asrwt>
<pdfrwt beam="1">  1        1 0.22848619E+00 0.27455038E+03</pdfrwt>
<pdfrwt beam="2">  1       -1 0.19520792E-02 0.27455038E+03</pdfrwt>
<totfact> 0.52010394E+03</totfact>
</mgrwt>
</event>
<event>
 9    1  0.8285222E-001  0.2756327E+03  0.7818608E-02  0.1098098E+00
          2   -1    0    0  501    0  0.00000000000E+00  0.00000000000E+00  0.55554166984E+02  0.55554166984E+02  0.00000000000E+00 0. -1.
         -2   -1    0    0    0  501 -0.00000000000E+00 -0.00000000000E+00 -0.34188888084E+03  0.34188888084E+03  0.00000000000E+00 0. -1.
         35    2    1    2    0    0  0.00000000000E+00 -0.14210854715E-13 -0.28633471385E+03  0.39744304782E+03  0.27563274099E+03 0.  0.
         25    2    3    3    0    0 -0.16882382843E+02 -0.62587582807E+02 -0.14145688489E+03  0.19538548781E+03  0.11816606193E+03 0.  0.
         25    2    3    3    0    0  0.16882382843E+02  0.62587582807E+02 -0.14487782896E+03  0.20205756001E+03  0.12504180045E+03 0.  0.
          5    1    4    4  502    0 -0.57701217008E+02 -0.69440193548E+02 -0.11398823656E+03  0.14548807167E+03  0.47000000000E+01 0. -1.
         -5    1    4    4    0  502  0.40818834164E+02  0.68526107407E+01 -0.27468648330E+02  0.49897416141E+02  0.47000000000E+01 0. -1.
          5    1    5    5  503    0 -0.28065685900E+02 -0.26316050474E+02 -0.58191711620E+02  0.69918399144E+02  0.47000000000E+01 0. -1.
         -5    1    5    5    0  503  0.44948068743E+02  0.88903633281E+02 -0.86686117339E+02  0.13213916086E+03  0.47000000000E+01 0. -1.
<mgrwt>
<rscale>  0 0.27563274E+03</rscale>
<asrwt>0</asrwt>
<pdfrwt beam="1">  1        2 0.85467948E-02 0.27563274E+03</pdfrwt>
<pdfrwt beam="2">  1       -2 0.52598290E-01 0.27563274E+03</pdfrwt>
<totfact> 0.27008614E+03</totfact>
</mgrwt>
</event>
<event>
 9    1  0.8285222E-001  0.2873842E+03  0.7818608E-02  0.1091723E+00
          2   -1    0    0  501    0  0.00000000000E+00  0.00000000000E+00  0.19591729768E+04  0.19591729768E+04  0.00000000000E+00 0.  1.
         -2   -1    0    0    0  501 -0.00000000000E+00 -0.00000000000E+00 -0.10538845294E+02  0.10538845294E+02  0.00000000000E+00 0.  1.
         35    2    1    2    0    0  0.21316282073E-13  0.00000000000E+00  0.19486341315E+04  0.19697118220E+04  0.28738420907E+03 0.  0.
         25    2    3    3    0    0 -0.62208160688E+02 -0.13257547935E+02  0.11947713269E+04  0.12030071448E+04  0.12530781758E+03 0.  0.
         25    2    3    3    0    0  0.62208160688E+02  0.13257547935E+02  0.75386280459E+03  0.76670467722E+03  0.12442393702E+03 0.  0.
          5    1    4    4  502    0 -0.57839674038E+02  0.49790384574E+02  0.59349381719E+03  0.59839912377E+03  0.47000000000E+01 0. -1.
         -5    1    4    4    0  502 -0.43684866500E+01 -0.63047932509E+02  0.60127750968E+03  0.60460802105E+03  0.47000000000E+01 0. -1.
          5    1    5    5  503    0 -0.19625357643E+02  0.40346058748E+02  0.14800350427E+03  0.15472584269E+03  0.47000000000E+01 0. -1.
         -5    1    5    5    0  503  0.81833518331E+02 -0.27088510812E+02  0.60585930031E+03  0.61197883453E+03  0.47000000000E+01 0. -1.
<mgrwt>
<rscale>  0 0.28738421E+03</rscale>
<asrwt>0</asrwt>
<pdfrwt beam="1">  1        2 0.30141094E+00 0.28738421E+03</pdfrwt>
<pdfrwt beam="2">  1       -2 0.16213624E-02 0.28738421E+03</pdfrwt>
<totfact> 0.82210024E+03</totfact>
</mgrwt>
</event>
<event>
 9    1  0.8285222E-001  0.2775344E+03  0.7818608E-02  0.1097043E+00
          1   -1    0    0  501    0  0.00000000000E+00  0.00000000000E+00  0.10695925111E+03  0.10695925111E+03  0.00000000000E+00 0. -1.
         -1   -1    0    0    0  501 -0.00000000000E+00 -0.00000000000E+00 -0.18003431573E+03  0.18003431573E+03  0.00000000000E+00 0. -1.
         35    2    1    2    0    0  0.00000000000E+00  0.71054273576E-14 -0.73075064616E+02  0.28699356685E+03  0.27753439848E+03 0.  0.
         25    2    3    3    0    0  0.13910930434E+02  0.49812014671E+02 -0.39410475710E+01  0.13487765365E+03  0.12450581837E+03 0.  0.
         25    2    3    3    0    0 -0.13910930434E+02 -0.49812014671E+02 -0.69134017045E+02  0.15211591319E+03  0.12523972191E+03 0.  0.
          5    1    4    4  502    0 -0.30211002353E+02  0.59456015057E+02 -0.39098853278E+02  0.77450195076E+02  0.47000000000E+01 0.  1.
         -5    1    4    4    0  502  0.44121932787E+02 -0.96440003863E+01  0.35157805707E+02  0.57427458576E+02  0.47000000000E+01 0.  1.
          5    1    5    5  503    0 -0.50480712863E+02 -0.11580709707E+02 -0.82337463607E+02  0.97385641250E+02  0.47000000000E+01 0.  1.
         -5    1    5    5    0  503  0.36569782428E+02 -0.38231304964E+02  0.13203446561E+02  0.54730271945E+02  0.47000000000E+01 0.  1.
<mgrwt>
<rscale>  0 0.27753440E+03</rscale>
<asrwt>0</asrwt>
<pdfrwt beam="1">  1        1 0.16455269E-01 0.27753440E+03</pdfrwt>
<pdfrwt beam="2">  1       -1 0.27697587E-01 0.27753440E+03</pdfrwt>
<totfact> 0.38414124E+03</totfact>
</mgrwt>
</event>
<event>
 9    1  0.8285222E-001  0.2775214E+03  0.7818608E-02  0.1097050E+00
         -1   -1    0    0    0  501 -0.00000000000E+00  0.00000000000E+00  0.18606028707E+02  0.18606028707E+02  0.00000000000E+00 0.  1.
          1   -1    0    0  501    0  0.00000000000E+00 -0.00000000000E+00 -0.10348541025E+04  0.10348541025E+04  0.00000000000E+00 0.  1.
         35    2    1    2    0    0  0.71054273576E-14  0.35527136788E-14 -0.10162480738E+04  0.10534601312E+04  0.27752135153E+03 0.  0.
         25    2    3    3    0    0 -0.52570884636E+02  0.14369216650E+02 -0.59935457237E+03  0.61487418093E+03  0.12599278810E+03 0.  0.
         25    2    3    3    0    0  0.52570884636E+02 -0.14369216650E+02 -0.41689350144E+03  0.43858595030E+03  0.12484899662E+03 0.  0.
          5    1    4    4  502    0  0.13585557672E+02 -0.19483735259E+02 -0.21929696534E+02  0.32667796176E+02  0.47000000000E+01 0.  1.
         -5    1    4    4    0  502 -0.66156442308E+02  0.33852951909E+02 -0.57742487583E+03  0.58220638475E+03  0.47000000000E+01 0.  1.
          5    1    5    5  503    0 -0.27865623980E+02 -0.30510625116E+02 -0.64548429748E+02  0.76785291740E+02  0.47000000000E+01 0. -1.
         -5    1    5    5    0  503  0.80436508616E+02  0.16141408466E+02 -0.35234507169E+03  0.36180065856E+03  0.47000000000E+01 0. -1.
<mgrwt>
<rscale>  0 0.27752135E+03</rscale>
<asrwt>0</asrwt>
<pdfrwt beam="1">  1        1 0.15920835E+00 0.27752135E+03</pdfrwt>
<pdfrwt beam="2">  1       -1 0.28624654E-02 0.27752135E+03</pdfrwt>
<totfact> 0.60876608E+03</totfact>
</mgrwt>
</event>
<event>
 9    1  0.8285222E-001  0.2791816E+03  0.7818608E-02  0.1096137E+00
         -2   -1    0    0    0  501 -0.00000000000E+00  0.00000000000E+00  0.21842285584E+02  0.21842285584E+02  0.00000000000E+00 0.  1.
          2   -1    0    0  501    0  0.00000000000E+00 -0.00000000000E+00 -0.89210403813E+03  0.89210403813E+03  0.00000000000E+00 0.  1.
         35    2    1    2    0    0  0.00000000000E+00  0.00000000000E+00 -0.87026175255E+03  0.91394632372E+03  0.27918159804E+03 0.  0.
         25    2    3    3    0    0  0.43698553240E+02 -0.23090810850E+02 -0.56802820592E+03  0.58413134128E+03  0.12692766458E+03 0.  0.
         25    2    3    3    0    0 -0.43698553240E+02  0.23090810850E+02 -0.30223354662E+03  0.32981498244E+03  0.12243388761E+03 0.  0.
          5    1    4    4  502    0 -0.30523338178E+02  0.27529007569E+02 -0.11397113560E+03  0.12124780485E+03  0.47000000000E+01 0. -1.
         -5    1    4    4    0  502  0.74221891419E+02 -0.50619818419E+02 -0.45405707032E+03  0.46288353642E+03  0.47000000000E+01 0. -1.
          5    1    5    5  503    0 -0.77766091233E+02  0.30702364990E+02 -0.13461322564E+03  0.15853394172E+03  0.47000000000E+01 0.  1.
         -5    1    5    5    0  503  0.34067537993E+02 -0.76115541396E+01 -0.16762032099E+03  0.17128104072E+03  0.47000000000E+01 0.  1.
<mgrwt>
<rscale>  0 0.27918160E+03</rscale>
<asrwt>0</asrwt>
<pdfrwt beam="1">  1        2 0.13724677E+00 0.27918160E+03</pdfrwt>
<pdfrwt beam="2">  1       -2 0.33603517E-02 0.27918160E+03</pdfrwt>
<totfact> 0.10961371E+04</totfact>
</mgrwt>
</event>
<event>
 9    1  0.8285222E-001  0.2700329E+03  0.7818608E-02  0.1101261E+00
          2   -1    0    0  501    0  0.00000000000E+00  0.00000000000E+00  0.10719047103E+04  0.10719047103E+04  0.00000000000E+00 0. -1.
         -2   -1    0    0    0  501 -0.00000000000E+00 -0.00000000000E+00 -0.17006587306E+02  0.17006587306E+02  0.00000000000E+00 0. -1.
         35    2    1    2    0    0 -0.71054273576E-14  0.00000000000E+00  0.10548981230E+04  0.10889112976E+04  0.27003289458E+03 0.  0.
         25    2    3    3    0    0 -0.18407654466E+02  0.50730727474E+02  0.61192704508E+03  0.62684516676E+03  0.12477061407E+03 0.  0.
         25    2    3    3    0    0  0.18407654466E+02 -0.50730727474E+02  0.44297107789E+03  0.46206613082E+03  0.11987195232E+03 0.  0.
          5    1    4    4  502    0  0.20674314775E+02 -0.33508586132E+02  0.12565599366E+03  0.13176407469E+03  0.47000000000E+01 0.  1.
         -5    1    4    4    0  502 -0.39081969240E+02  0.84239313606E+02  0.48627105143E+03  0.49508109208E+03  0.47000000000E+01 0.  1.
          5    1    5    5  503    0  0.40065174245E+02  0.24366689834E+02  0.23859025624E+03  0.24320023465E+03  0.47000000000E+01 0.  1.
         -5    1    5    5    0  503 -0.21657519780E+02 -0.75097417309E+02  0.20438082164E+03  0.21886589617E+03  0.47000000000E+01 0.  1.
<mgrwt>
<rscale>  0 0.27003289E+03</rscale>
<asrwt>0</asrwt>
<pdfrwt beam="1">  1        2 0.16490836E+00 0.27003289E+03</pdfrwt>
<pdfrwt beam="2">  1       -2 0.26163989E-02 0.27003289E+03</pdfrwt>
<totfact> 0.12296657E+04</totfact>
</mgrwt>
</event>
<event>
 9    1  0.8285222E-001  0.2774922E+03  0.7818608E-02  0.1097067E+00
         -2   -1    0    0    0  501 -0.00000000000E+00  0.00000000000E+00  0.39933679973E+02  0.39933679973E+02  0.00000000000E+00 0. -1.
          2   -1    0    0  501    0  0.00000000000E+00 -0.00000000000E+00 -0.48206132881E+03  0.48206132881E+03  0.00000000000E+00 0. -1.
         35    2    1    2    0    0  0.00000000000E+00  0.14210854715E-13 -0.44212764884E+03  0.52199500879E+03  0.27749221850E+03 0.  0.
         25    2    3    3    0    0  0.38078926392E+02 -0.35104947062E+02 -0.27813467025E+03  0.30931106585E+03  0.12502831166E+03 0.  0.
         25    2    3    3    0    0 -0.38078926392E+02  0.35104947062E+02 -0.16399297858E+03  0.21268394294E+03  0.12513353113E+03 0.  0.
          5    1    4    4  502    0 -0.75088994070E+01  0.41158758465E+02 -0.12850828583E+03  0.13522905196E+03  0.47000000000E+01 0.  1.
         -5    1    4    4    0  502  0.45587825799E+02 -0.76263705526E+02 -0.14962638443E+03  0.17408201389E+03  0.47000000000E+01 0.  1.
          5    1    5    5  503    0  0.57879581832E+01 -0.15721701540E+02 -0.14023505476E+03  0.14131041342E+03  0.47000000000E+01 0. -1.
         -5    1    5    5    0  503 -0.43866884576E+02  0.50826648602E+02 -0.23757923829E+02  0.71373529513E+02  0.47000000000E+01 0. -1.
<mgrwt>
<rscale>  0 0.27749222E+03</rscale>
<asrwt>0</asrwt>
<pdfrwt beam="1">  1        2 0.74163283E-01 0.27749222E+03</pdfrwt>
<pdfrwt beam="2">  1       -2 0.61436429E-02 0.27749222E+03</pdfrwt>
<totfact> 0.92069082E+03</totfact>
</mgrwt>
</event>
<event>
 9    1  0.8285222E-001  0.2733750E+03  0.7818608E-02  0.1099363E+00
          1   -1    0    0  501    0  0.00000000000E+00  0.00000000000E+00  0.15311953111E+04  0.15311953111E+04  0.00000000000E+00 0.  1.
         -1   -1    0    0    0  501 -0.00000000000E+00 -0.00000000000E+00 -0.12201889978E+02  0.12201889978E+02  0.00000000000E+00 0.  1.
         35    2    1    2    0    0  0.00000000000E+00  0.14210854715E-13  0.15189934212E+04  0.15433972011E+04  0.27337502974E+03 0.  0.
         25    2    3    3    0    0  0.67616946368E+01 -0.48333242412E+02  0.97396759426E+03  0.98319179124E+03  0.12518546585E+03 0.  0.
         25    2    3    3    0    0 -0.67616946368E+01  0.48333242412E+02  0.54502582690E+03  0.56020540987E+03  0.11997969173E+03 0.  0.
          5    1    4    4  502    0  0.32850275375E+02 -0.30481326485E+02  0.91509677088E+03  0.91620545836E+03  0.47000000000E+01 0. -1.
         -5    1    4    4    0  502 -0.26088580738E+02 -0.17851915927E+02  0.58870823378E+02  0.66986332878E+02  0.47000000000E+01 0. -1.
          5    1    5    5  503    0 -0.56136287367E+02  0.39591641741E+02  0.41671056529E+03  0.42236070612E+03  0.47000000000E+01 0. -1.
         -5    1    5    5    0  503  0.49374592730E+02  0.87416006710E+01  0.12831526161E+03  0.13784470375E+03  0.47000000000E+01 0. -1.
<mgrwt>
<rscale>  0 0.27337503E+03</rscale>
<asrwt>0</asrwt>
<pdfrwt beam="1">  1        1 0.23556836E+00 0.27337503E+03</pdfrwt>
<pdfrwt beam="2">  1       -1 0.18772151E-02 0.27337503E+03</pdfrwt>
<totfact> 0.51333194E+03</totfact>
</mgrwt>
</event>
<event>
 9    1  0.8285222E-001  0.2782124E+03  0.7818608E-02  0.1096669E+00
          2   -1    0    0  501    0  0.00000000000E+00  0.00000000000E+00  0.90584232145E+03  0.90584232145E+03  0.00000000000E+00 0.  1.
         -2   -1    0    0    0  501 -0.00000000000E+00 -0.00000000000E+00 -0.21361921094E+02  0.21361921094E+02  0.00000000000E+00 0.  1.
         35    2    1    2    0    0  0.00000000000E+00  0.00000000000E+00  0.88448040036E+03  0.92720424255E+03  0.27821238070E+03 0.  0.
         25    2    3    3    0    0 -0.19248736367E+02  0.42602239623E+02  0.31195717780E+03  0.33937224066E+03  0.12518295523E+03 0.  0.
         25    2    3    3    0    0  0.19248736367E+02 -0.42602239623E+02  0.57252322256E+03  0.58783200188E+03  0.12481248894E+03 0.  0.
          5    1    4    4  502    0  0.14868307370E+02  0.36249222629E+02  0.18062382887E+02  0.43398299285E+02  0.47000000000E+01 0.  1.
         -5    1    4    4    0  502 -0.34117043738E+02  0.63530169938E+01  0.29389479491E+03  0.29597394138E+03  0.47000000000E+01 0.  1.
          5    1    5    5  503    0 -0.15365425818E+02  0.34355395496E+02  0.85563272707E+02  0.93592484455E+02  0.47000000000E+01 0.  1.
         -5    1    5    5    0  503  0.34614162185E+02 -0.76957635119E+02  0.48695994985E+03  0.49423951743E+03  0.47000000000E+01 0.  1.
<mgrwt>
<rscale>  0 0.27821238E+03</rscale>
<asrwt>0</asrwt>
<pdfrwt beam="1">  1        2 0.13936033E+00 0.27821238E+03</pdfrwt>
<pdfrwt beam="2">  1       -2 0.32864501E-02 0.27821238E+03</pdfrwt>
<totfact> 0.11100942E+04</totfact>
</mgrwt>
</event>
<event>
 9    1  0.8285222E-001  0.2761420E+03  0.7818608E-02  0.1097815E+00
          2   -1    0    0  501    0  0.00000000000E+00  0.00000000000E+00  0.30591868652E+02  0.30591868652E+02  0.00000000000E+00 0.  1.
         -2   -1    0    0    0  501 -0.00000000000E+00 -0.00000000000E+00 -0.62315920380E+03  0.62315920380E+03  0.00000000000E+00 0.  1.
         35    2    1    2    0    0  0.71054273576E-14 -0.71054273576E-14 -0.59256733515E+03  0.65375107245E+03  0.27614202514E+03 0.  0.
         25    2    3    3    0    0 -0.27487475029E+02  0.44849214753E+02 -0.21893552355E+03  0.25646328921E+03  0.12277476082E+03 0.  0.
         25    2    3    3    0    0  0.27487475029E+02 -0.44849214753E+02 -0.37363181160E+03  0.39728778324E+03  0.12437780640E+03 0.  0.
          5    1    4    4  502    0  0.15125810461E+02  0.34462416751E+01 -0.18913438192E+03  0.18982774072E+03  0.47000000000E+01 0. -1.
         -5    1    4    4    0  502 -0.42613285490E+02  0.41402973078E+02 -0.29801141631E+02  0.66635548489E+02  0.47000000000E+01 0. -1.
          5    1    5    5  503    0  0.12551911759E+02 -0.86027583981E+02 -0.28964774699E+03  0.30245033151E+03  0.47000000000E+01 0. -1.
         -5    1    5    5    0  503  0.14935563270E+02  0.41178369228E+02 -0.83984064614E+02  0.94837451735E+02  0.47000000000E+01 0. -1.
<mgrwt>
<rscale>  0 0.27614203E+03</rscale>
<asrwt>0</asrwt>
<pdfrwt beam="1">  1        2 0.47064419E-02 0.27614203E+03</pdfrwt>
<pdfrwt beam="2">  1       -2 0.95870636E-01 0.27614203E+03</pdfrwt>
<totfact> 0.16103511E+03</totfact>
</mgrwt>
</event>
<event>
 9    1  0.8285222E-001  0.2797591E+03  0.7818608E-02  0.1095821E+00
          1   -1    0    0  501    0  0.00000000000E+00  0.00000000000E+00  0.17735962273E+03  0.17735962273E+03  0.00000000000E+00 0. -1.
         -1   -1    0    0    0  501 -0.00000000000E+00 -0.00000000000E+00 -0.11031982526E+03  0.11031982526E+03  0.00000000000E+00 0. -1.
         35    2    1    2    0    0  0.35527136788E-14  0.88817841970E-15  0.67039797477E+02  0.28767944799E+03  0.27975905767E+03 0.  0.
         25    2    3    3    0    0 -0.10866998026E+00  0.54295189005E+01  0.97354429185E+02  0.15926981091E+03  0.12593449210E+03 0.  0.
         25    2    3    3    0    0  0.10866998026E+00 -0.54295189005E+01 -0.30314631708E+02  0.12840963708E+03  0.12466180857E+03 0.  0.
          5    1    4    4  502    0  0.41095151284E+01 -0.59996956943E+02  0.46517647192E+02  0.76174171852E+02  0.47000000000E+01 0.  1.
         -5    1    4    4    0  502 -0.42181851087E+01  0.65426475844E+02  0.50836781993E+02  0.83095639057E+02  0.47000000000E+01 0.  1.
          5    1    5    5  503    0  0.60853538270E+02  0.17784059529E+01 -0.26736815191E+01  0.61119182100E+02  0.47000000000E+01 0.  1.
         -5    1    5    5    0  503 -0.60744868290E+02 -0.72079248535E+01 -0.27640950189E+02  0.67290454981E+02  0.47000000000E+01 0.  1.
<mgrwt>
<rscale>  0 0.27975906E+03</rscale>
<asrwt>0</asrwt>
<pdfrwt beam="1">  1        1 0.27286096E-01 0.27975906E+03</pdfrwt>
<pdfrwt beam="2">  1       -1 0.16972281E-01 0.27975906E+03</pdfrwt>
<totfact> 0.44792615E+03</totfact>
</mgrwt>
</event>
<event>
 9    1  0.8285222E-001  0.2734852E+03  0.7818608E-02  0.1099301E+00
         -1   -1    0    0    0  501 -0.00000000000E+00  0.00000000000E+00  0.47185246840E+02  0.47185246840E+02  0.00000000000E+00 0. -1.
          1   -1    0    0  501    0  0.00000000000E+00 -0.00000000000E+00 -0.39627928960E+03  0.39627928960E+03  0.00000000000E+00 0. -1.
         35    2    1    2    0    0  0.00000000000E+00  0.35527136788E-14 -0.34909404276E+03  0.44346453644E+03  0.27348518130E+03 0.  0.
         25    2    3    3    0    0  0.50586227364E+02  0.25203764458E+02 -0.19669221899E+03  0.23909708630E+03  0.12363410342E+03 0.  0.
         25    2    3    3    0    0 -0.50586227364E+02 -0.25203764458E+02 -0.15240182378E+03  0.20436745014E+03  0.12387712720E+03 0.  0.
          5    1    4    4  502    0  0.81031546964E+02  0.23017611354E+02 -0.18943391689E+03  0.20737217968E+03  0.47000000000E+01 0. -1.
         -5    1    4    4    0  502 -0.30445319600E+02  0.21861531039E+01 -0.72583020906E+01  0.31724906622E+02  0.47000000000E+01 0. -1.
          5    1    5    5  503    0 -0.19830864439E+02 -0.11004100765E+02 -0.16596733895E+03  0.16757565759E+03  0.47000000000E+01 0.  1.
         -5    1    5    5    0  503 -0.30755362925E+02 -0.14199663693E+02  0.13565515168E+02  0.36791792555E+02  0.47000000000E+01 0.  1.
<mgrwt>
<rscale>  0 0.27348518E+03</rscale>
<asrwt>0</asrwt>
<pdfrwt beam="1">  1        1 0.60966043E-01 0.27348518E+03</pdfrwt>
<pdfrwt beam="2">  1       -1 0.72592690E-02 0.27348518E+03</pdfrwt>
<totfact> 0.60919691E+03</totfact>
</mgrwt>
</event>
<event>
 9    1  0.8285222E-001  0.2762817E+03  0.7818608E-02  0.1097737E+00
         -1   -1    0    0    0  501 -0.00000000000E+00  0.00000000000E+00  0.40396808563E+03  0.40396808563E+03  0.00000000000E+00 0. -1.
          1   -1    0    0  501    0  0.00000000000E+00 -0.00000000000E+00 -0.47238629078E+02  0.47238629078E+02  0.00000000000E+00 0. -1.
         35    2    1    2    0    0  0.35527136788E-14  0.00000000000E+00  0.35672945655E+03  0.45120671471E+03  0.27628172981E+03 0.  0.
         25    2    3    3    0    0 -0.86405748430E+01 -0.18555765103E+02  0.25808202246E+03  0.29113295539E+03  0.13316565415E+03 0.  0.
         25    2    3    3    0    0  0.86405748430E+01  0.18555765103E+02  0.98647434091E+02  0.16007375932E+03  0.12439178517E+03 0.  0.
          5    1    4    4  502    0 -0.29738225538E+02 -0.96629393396E+01 -0.37405133913E+00  0.31622213224E+02  0.47000000000E+01 0. -1.
         -5    1    4    4    0  502  0.21097650695E+02 -0.88928257635E+01  0.25845607380E+03  0.25951074217E+03  0.47000000000E+01 0. -1.
          5    1    5    5  503    0  0.35929469873E+01  0.12455984126E+02 -0.28991133115E+02  0.32103529524E+02  0.47000000000E+01 0.  1.
         -5    1    5    5    0  503  0.50476278557E+01  0.60997809768E+01  0.12763856721E+03  0.12797022979E+03  0.47000000000E+01 0.  1.
<mgrwt>
<rscale>  0 0.27628173E+03</rscale>
<asrwt>0</asrwt>
<pdfrwt beam="1">  1        1 0.72674816E-02 0.27628173E+03</pdfrwt>
<pdfrwt beam="2">  1       -1 0.62148934E-01 0.27628173E+03</pdfrwt>
<totfact> 0.26848192E+03</totfact>
</mgrwt>
</event>
<event>
 9    1  0.8285222E-001  0.2758121E+03  0.7818608E-02  0.1097999E+00
          1   -1    0    0  501    0  0.00000000000E+00  0.00000000000E+00  0.10558082408E+04  0.10558082408E+04  0.00000000000E+00 0. -1.
         -1   -1    0    0    0  501 -0.00000000000E+00 -0.00000000000E+00 -0.18012810690E+02  0.18012810690E+02  0.00000000000E+00 0. -1.
         35    2    1    2    0    0  0.00000000000E+00 -0.35527136788E-14  0.10377954301E+04  0.10738210515E+04  0.27581206621E+03 0.  0.
         25    2    3    3    0    0  0.32151591547E+02  0.28211594320E+02  0.67149326867E+03  0.68445397333E+03  0.12547674229E+03 0.  0.
         25    2    3    3    0    0 -0.32151591547E+02 -0.28211594320E+02  0.36630216146E+03  0.38936707817E+03  0.12489927615E+03 0.  0.
          5    1    4    4  502    0 -0.39854828078E+02  0.29874413739E+02  0.41478900064E+03  0.41779527638E+03  0.47000000000E+01 0. -1.
         -5    1    4    4    0  502  0.72006419626E+02 -0.16628194197E+01  0.25670426803E+03  0.26665869695E+03  0.47000000000E+01 0. -1.
          5    1    5    5  503    0 -0.16864203588E+02 -0.12640974087E+01 -0.37847433635E+01  0.17955878904E+02  0.47000000000E+01 0.  1.
         -5    1    5    5    0  503 -0.15287387960E+02 -0.26947496911E+02  0.37008690482E+03  0.37141119927E+03  0.47000000000E+01 0.  1.
<mgrwt>
<rscale>  0 0.27581207E+03</rscale>
<asrwt>0</asrwt>
<pdfrwt beam="1">  1        1 0.16243199E+00 0.27581207E+03</pdfrwt>
<pdfrwt beam="2">  1       -1 0.27712025E-02 0.27581207E+03</pdfrwt>
<totfact> 0.61620455E+03</totfact>
</mgrwt>
</event>
<event>
 9    1  0.8285222E-001  0.2870816E+03  0.7818608E-02  0.1091883E+00
         -1   -1    0    0    0  501 -0.00000000000E+00  0.00000000000E+00  0.53673139421E+03  0.53673139421E+03  0.00000000000E+00 0. -1.
          1   -1    0    0  501    0  0.00000000000E+00 -0.00000000000E+00 -0.38387838166E+02  0.38387838166E+02  0.00000000000E+00 0. -1.
         35    2    1    2    0    0  0.00000000000E+00  0.00000000000E+00  0.49834355604E+03  0.57511923237E+03  0.28708157656E+03 0.  0.
         25    2    3    3    0    0  0.46784110225E+02 -0.44069673576E-01  0.14920071245E+03  0.20103136320E+03  0.12634872964E+03 0.  0.
         25    2    3    3    0    0 -0.46784110225E+02  0.44069673576E-01  0.34914284359E+03  0.37408786917E+03  0.12590573348E+03 0.  0.
          5    1    4    4  502    0  0.13813605283E+02 -0.53570662526E+02  0.11860512048E+03  0.13095761215E+03  0.47000000000E+01 0. -1.
         -5    1    4    4    0  502  0.32970504941E+02  0.53526592853E+02  0.30595591969E+02  0.70073751051E+02  0.47000000000E+01 0. -1.
          5    1    5    5  503    0 -0.56857613235E+02  0.38581100359E+02  0.31170136651E+03  0.31921955042E+03  0.47000000000E+01 0.  1.
         -5    1    5    5    0  503  0.10073503010E+02 -0.38537030686E+02  0.37441477084E+02  0.54868318757E+02  0.47000000000E+01 0.  1.
<mgrwt>
<rscale>  0 0.28708158E+03</rscale>
<asrwt>0</asrwt>
<pdfrwt beam="1">  1        1 0.59058216E-02 0.28708158E+03</pdfrwt>
<pdfrwt beam="2">  1       -1 0.82574056E-01 0.28708158E+03</pdfrwt>
<totfact> 0.20156805E+03</totfact>
</mgrwt>
</event>
<event>
 9    1  0.8285222E-001  0.2775614E+03  0.7818608E-02  0.1097028E+00
          4   -1    0    0  501    0  0.00000000000E+00  0.00000000000E+00  0.32657544972E+03  0.32657544972E+03  0.00000000000E+00 0. -1.
         -4   -1    0    0    0  501 -0.00000000000E+00 -0.00000000000E+00 -0.58975886690E+02  0.58975886690E+02  0.00000000000E+00 0. -1.
         35    2    1    2    0    0 -0.71054273576E-14 -0.71054273576E-14  0.26759956303E+03  0.38555133641E+03  0.27756135695E+03 0.  0.
         25    2    3    3    0    0  0.60152022301E+02  0.50762751344E+00  0.14555062787E+03  0.20090588168E+03  0.12473838442E+03 0.  0.
         25    2    3    3    0    0 -0.60152022301E+02 -0.50762751344E+00  0.12204893516E+03  0.18464545473E+03  0.12481777881E+03 0.  0.
          5    1    4    4  502    0  0.52674091835E+02 -0.56421530185E+02  0.60522140992E+02  0.98198617960E+02  0.47000000000E+01 0. -1.
         -5    1    4    4    0  502  0.74779304656E+01  0.56929157698E+02  0.85028486878E+02  0.10270726372E+03  0.47000000000E+01 0. -1.
          5    1    5    5  503    0 -0.71237531149E+02 -0.18909388687E+02  0.15001281103E+02  0.75362319892E+02  0.47000000000E+01 0.  1.
         -5    1    5    5    0  503  0.11085508848E+02  0.18401761173E+02  0.10704765406E+03  0.10928313484E+03  0.47000000000E+01 0.  1.
<mgrwt>
<rscale>  0 0.27756136E+03</rscale>
<asrwt>0</asrwt>
<pdfrwt beam="1">  1        4 0.50242376E-01 0.27756136E+03</pdfrwt>
<pdfrwt beam="2">  1       -4 0.90732135E-02 0.27756136E+03</pdfrwt>
<totfact> 0.64455750E+02</totfact>
</mgrwt>
</event>
<event>
 9    1  0.8285222E-001  0.2835893E+03  0.7818608E-02  0.1093745E+00
         -2   -1    0    0    0  501 -0.00000000000E+00  0.00000000000E+00  0.21069949946E+03  0.21069949946E+03  0.00000000000E+00 0. -1.
          2   -1    0    0  501    0  0.00000000000E+00 -0.00000000000E+00 -0.95423665886E+02  0.95423665886E+02  0.00000000000E+00 0. -1.
         35    2    1    2    0    0  0.00000000000E+00  0.00000000000E+00  0.11527583357E+03  0.30612316534E+03  0.28358927087E+03 0.  0.
         25    2    3    3    0    0  0.24089127783E+02 -0.55326724624E+02  0.88504125815E+02  0.16473350683E+03  0.12515117040E+03 0.  0.
         25    2    3    3    0    0 -0.24089127783E+02  0.55326724624E+02  0.26771707756E+02  0.14138965851E+03  0.12503191058E+03 0.  0.
          5    1    4    4  502    0 -0.47727481691E+02 -0.40562694042E+02  0.24934432935E+02  0.67580031092E+02  0.47000000000E+01 0.  1.
         -5    1    4    4    0  502  0.71816609475E+02 -0.14764030582E+02  0.63569692880E+02  0.97153475739E+02  0.47000000000E+01 0.  1.
          5    1    5    5  503    0 -0.14706514310E+02  0.10594622574E+02 -0.49178703796E+02  0.52622832475E+02  0.47000000000E+01 0.  1.
         -5    1    5    5    0  503 -0.93826134730E+01  0.44732102050E+02  0.75950411553E+02  0.88766826036E+02  0.47000000000E+01 0.  1.
<mgrwt>
<rscale>  0 0.28358927E+03</rscale>
<asrwt>0</asrwt>
<pdfrwt beam="1">  1        2 0.14680564E-01 0.28358927E+03</pdfrwt>
<pdfrwt beam="2">  1       -2 0.32415307E-01 0.28358927E+03</pdfrwt>
<totfact> 0.35325895E+03</totfact>
</mgrwt>
</event>
<event>
 9    1  0.8285222E-001  0.2821074E+03  0.7818608E-02  0.1094543E+00
          2   -1    0    0  501    0  0.00000000000E+00  0.00000000000E+00  0.86889723048E+03  0.86889723048E+03  0.00000000000E+00 0. -1.
         -2   -1    0    0    0  501 -0.00000000000E+00 -0.00000000000E+00 -0.22898162548E+02  0.22898162548E+02  0.00000000000E+00 0. -1.
         35    2    1    2    0    0  0.17763568394E-14  0.14210854715E-13  0.84599906793E+03  0.89179539303E+03  0.28210742650E+03 0.  0.
         25    2    3    3    0    0  0.15004665114E+02  0.62867888485E+02  0.41205075504E+03  0.43548615384E+03  0.12523918749E+03 0.  0.
         25    2    3    3    0    0 -0.15004665114E+02 -0.62867888485E+02  0.43394831289E+03  0.45630923919E+03  0.12541719231E+03 0.  0.
          5    1    4    4  502    0 -0.49437932009E+00  0.10011295976E+03  0.30036506143E+03  0.31664508404E+03  0.47000000000E+01 0. -1.
         -5    1    4    4    0  502  0.15499044434E+02 -0.37245071280E+02  0.11168569362E+03  0.11884106980E+03  0.47000000000E+01 0. -1.
          5    1    5    5  503    0 -0.60867539178E+02 -0.70609070527E+02  0.31374153074E+03  0.32733214978E+03  0.47000000000E+01 0.  1.
         -5    1    5    5    0  503  0.45862874065E+02  0.77411820420E+01  0.12020678215E+03  0.12897708940E+03  0.47000000000E+01 0.  1.
<mgrwt>
<rscale>  0 0.28210743E+03</rscale>
<asrwt>0</asrwt>
<pdfrwt beam="1">  1        2 0.13367647E+00 0.28210743E+03</pdfrwt>
<pdfrwt beam="2">  1       -2 0.35227949E-02 0.28210743E+03</pdfrwt>
<totfact> 0.10580749E+04</totfact>
</mgrwt>
</event>
<event>
 9    1  0.8285222E-001  0.2791492E+03  0.7818608E-02  0.1096155E+00
         -2   -1    0    0    0  501 -0.00000000000E+00  0.00000000000E+00  0.15006785641E+02  0.15006785641E+02  0.00000000000E+00 0. -1.
          2   -1    0    0  501    0  0.00000000000E+00 -0.00000000000E+00 -0.12981503376E+04  0.12981503376E+04  0.00000000000E+00 0. -1.
         35    2    1    2    0    0 -0.71054273576E-14  0.17763568394E-14 -0.12831435520E+04  0.13131571233E+04  0.27914916333E+03 0.  0.
         25    2    3    3    0    0 -0.54374385559E+02  0.23064259076E+01 -0.66395457984E+03  0.67763664049E+03  0.12407191076E+03 0.  0.
         25    2    3    3    0    0  0.54374385559E+02 -0.23064259076E+01 -0.61918897214E+03  0.63552048278E+03  0.13239866841E+03 0.  0.
          5    1    4    4  502    0 -0.45523408004E+02 -0.38513680011E+02 -0.58624001968E+03  0.58928357766E+03  0.47000000000E+01 0.  1.
         -5    1    4    4    0  502 -0.88509775548E+01  0.40820105918E+02 -0.77714560162E+02  0.88353062833E+02  0.47000000000E+01 0.  1.
          5    1    5    5  503    0 -0.43021736139E+02 -0.10429860515E+02 -0.22570172892E+03  0.23005002110E+03  0.47000000000E+01 0.  1.
         -5    1    5    5    0  503  0.97396121698E+02  0.81234346074E+01 -0.39348724323E+03  0.40547046168E+03  0.47000000000E+01 0.  1.
<mgrwt>
<rscale>  0 0.27914916E+03</rscale>
<asrwt>0</asrwt>
<pdfrwt beam="1">  1        2 0.19971549E+00 0.27914916E+03</pdfrwt>
<pdfrwt beam="2">  1       -2 0.23087357E-02 0.27914916E+03</pdfrwt>
<totfact> 0.10994768E+04</totfact>
</mgrwt>
</event>
<event>
 9    1  0.8285222E-001  0.2740254E+03  0.7818608E-02  0.1098998E+00
         -1   -1    0    0    0  501 -0.00000000000E+00  0.00000000000E+00  0.24923778550E+03  0.24923778550E+03  0.00000000000E+00 0. -1.
          1   -1    0    0  501    0  0.00000000000E+00 -0.00000000000E+00 -0.75319581624E+02  0.75319581624E+02  0.00000000000E+00 0. -1.
         35    2    1    2    0    0  0.00000000000E+00  0.26645352591E-14  0.17391820388E+03  0.32455736712E+03  0.27402544209E+03 0.  0.
         25    2    3    3    0    0 -0.54873759058E+02 -0.20847903701E+01  0.11717933342E+03  0.18009165185E+03  0.12524588258E+03 0.  0.
         25    2    3    3    0    0  0.54873759058E+02  0.20847903701E+01  0.56738870455E+02  0.14446571527E+03  0.12097755033E+03 0.  0.
          5    1    4    4  502    0 -0.29914241994E+02  0.56173859056E+02  0.91476944842E+02  0.11153692551E+03  0.47000000000E+01 0. -1.
         -5    1    4    4    0  502 -0.24959517064E+02 -0.58258649426E+02  0.25702388580E+02  0.68554726341E+02  0.47000000000E+01 0. -1.
          5    1    5    5  503    0  0.90063127688E+02 -0.36720098628E+01  0.59952248755E+02  0.10835687683E+03  0.47000000000E+01 0.  1.
         -5    1    5    5    0  503 -0.35189368630E+02  0.57568002329E+01 -0.32133783001E+01  0.36108838442E+02  0.47000000000E+01 0.  1.
<mgrwt>
<rscale>  0 0.27402544E+03</rscale>
<asrwt>0</asrwt>
<pdfrwt beam="1">  1        1 0.11587628E-01 0.27402544E+03</pdfrwt>
<pdfrwt beam="2">  1       -1 0.38344274E-01 0.27402544E+03</pdfrwt>
<totfact> 0.34839537E+03</totfact>
</mgrwt>
</event>
<event>
 9    1  0.8285222E-001  0.2779198E+03  0.7818608E-02  0.1096831E+00
         -2   -1    0    0    0  501 -0.00000000000E+00  0.00000000000E+00  0.87671561449E+02  0.87671561449E+02  0.00000000000E+00 0.  1.
          2   -1    0    0  501    0  0.00000000000E+00 -0.00000000000E+00 -0.22025214471E+03  0.22025214471E+03  0.00000000000E+00 0.  1.
         35    2    1    2    0    0  0.00000000000E+00  0.00000000000E+00 -0.13258058326E+03  0.30792370616E+03  0.27791976856E+03 0.  0.
         25    2    3    3    0    0  0.23829654467E+01  0.43432480428E+02 -0.29959907101E+02  0.13561876929E+03  0.12491115110E+03 0.  0.
         25    2    3    3    0    0 -0.23829654467E+01 -0.43432480428E+02 -0.10262067616E+03  0.17230493687E+03  0.13139988285E+03 0.  0.
          5    1    4    4  502    0 -0.41487815547E+02  0.69054167086E+02 -0.24350584585E+02  0.84289725355E+02  0.47000000000E+01 0. -1.
         -5    1    4    4    0  502  0.43870780994E+02 -0.25621686658E+02 -0.56093225165E+01  0.51329043935E+02  0.47000000000E+01 0. -1.
          5    1    5    5  503    0  0.34732434537E+02 -0.13200965935E+02  0.18653176683E+02  0.41840632295E+02  0.47000000000E+01 0.  1.
         -5    1    5    5    0  503 -0.37115399984E+02 -0.30231514493E+02 -0.12127385284E+03  0.13046430458E+03  0.47000000000E+01 0.  1.
<mgrwt>
<rscale>  0 0.27791977E+03</rscale>
<asrwt>0</asrwt>
<pdfrwt beam="1">  1        2 0.33884945E-01 0.27791977E+03</pdfrwt>
<pdfrwt beam="2">  1       -2 0.13487933E-01 0.27791977E+03</pdfrwt>
<totfact> 0.62138732E+03</totfact>
</mgrwt>
</event>
<event>
 9    1  0.8285222E-001  0.2834545E+03  0.7818608E-02  0.1093817E+00
         -1   -1    0    0    0  501 -0.00000000000E+00  0.00000000000E+00  0.16995565155E+02  0.16995565155E+02  0.00000000000E+00 0. -1.
          1   -1    0    0  501    0  0.00000000000E+00 -0.00000000000E+00 -0.11818739614E+04  0.11818739614E+04  0.00000000000E+00 0. -1.
         35    2    1    2    0    0 -0.14210854715E-13 -0.35527136788E-14 -0.11648783963E+04  0.11988695266E+04  0.28345451781E+03 0.  0.
         25    2    3    3    0    0 -0.67541013387E+02 -0.26521148745E+01 -0.61215041639E+03  0.62822398162E+03  0.12396941797E+03 0.  0.
         25    2    3    3    0    0  0.67541013387E+02  0.26521148745E+01 -0.55272797990E+03  0.57064554498E+03  0.12473690729E+03 0.  0.
          5    1    4    4  502    0 -0.14854614908E+02 -0.60443813895E+02 -0.24717005021E+03  0.25492986868E+03  0.47000000000E+01 0. -1.
         -5    1    4    4    0  502 -0.52686398479E+02  0.57791699021E+02 -0.36498036618E+03  0.37329411294E+03  0.47000000000E+01 0. -1.
          5    1    5    5  503    0 -0.23899089510E+02 -0.30809384417E+02 -0.23630589487E+03  0.23954738696E+03  0.47000000000E+01 0. -1.
         -5    1    5    5    0  503  0.91440102897E+02  0.33461499291E+02 -0.31642208502E+03  0.33109815802E+03  0.47000000000E+01 0. -1.
<mgrwt>
<rscale>  0 0.28345452E+03</rscale>
<asrwt>0</asrwt>
<pdfrwt beam="1">  1        1 0.18182679E+00 0.28345452E+03</pdfrwt>
<pdfrwt beam="2">  1       -1 0.26147020E-02 0.28345452E+03</pdfrwt>
<totfact> 0.54534534E+03</totfact>
</mgrwt>
</event>
<event>
 9    1  0.8285222E-001  0.2767221E+03  0.7818608E-02  0.1097493E+00
          1   -1    0    0  501    0  0.00000000000E+00  0.00000000000E+00  0.18642523490E+03  0.18642523490E+03  0.00000000000E+00 0. -1.
         -1   -1    0    0    0  501 -0.00000000000E+00 -0.00000000000E+00 -0.10268880063E+03  0.10268880063E+03  0.00000000000E+00 0. -1.
         35    2    1    2    0    0  0.00000000000E+00  0.71054273576E-14  0.83736434276E+02  0.28911403553E+03  0.27672212617E+03 0.  0.
         25    2    3    3    0    0 -0.70703790929E+01 -0.35952827818E+02  0.91920992572E+02  0.15818090582E+03  0.12340637748E+03 0.  0.
         25    2    3    3    0    0  0.70703790929E+01  0.35952827818E+02 -0.81845582966E+01  0.13093312970E+03  0.12543484911E+03 0.  0.
          5    1    4    4  502    0  0.94762685812E+01 -0.53237934862E+02 -0.84123877131E+01  0.54926638725E+02  0.47000000000E+01 0. -1.
         -5    1    4    4    0  502 -0.16546647674E+02  0.17285107044E+02  0.10033338029E+03  0.10325426710E+03  0.47000000000E+01 0. -1.
          5    1    5    5  503    0 -0.47184021088E+02  0.55327124427E+02 -0.37863242430E+01  0.72964709241E+02  0.47000000000E+01 0. -1.
         -5    1    5    5    0  503  0.54254400181E+02 -0.19374296609E+02 -0.43982340536E+01  0.57968420462E+02  0.47000000000E+01 0. -1.
<mgrwt>
<rscale>  0 0.27672213E+03</rscale>
<asrwt>0</asrwt>
<pdfrwt beam="1">  1        1 0.28680805E-01 0.27672213E+03</pdfrwt>
<pdfrwt beam="2">  1       -1 0.15798277E-01 0.27672213E+03</pdfrwt>
<totfact> 0.47141386E+03</totfact>
</mgrwt>
</event>
<event>
 9    1  0.8285222E-001  0.2766147E+03  0.7818608E-02  0.1097552E+00
          1   -1    0    0  501    0  0.00000000000E+00  0.00000000000E+00  0.45133732664E+03  0.45133732664E+03  0.00000000000E+00 0. -1.
         -1   -1    0    0    0  501 -0.00000000000E+00 -0.00000000000E+00 -0.42382748948E+02  0.42382748948E+02  0.00000000000E+00 0. -1.
         35    2    1    2    0    0  0.00000000000E+00  0.71054273576E-14  0.40895457769E+03  0.49372007558E+03  0.27661465331E+03 0.  0.
         25    2    3    3    0    0  0.45718797762E+02 -0.25987569669E+02  0.25807127177E+03  0.29152700036E+03  0.12498659280E+03 0.  0.
         25    2    3    3    0    0 -0.45718797762E+02  0.25987569669E+02  0.15088330592E+03  0.20219307522E+03  0.12389796373E+03 0.  0.
          5    1    4    4  502    0  0.95487434900E+01 -0.50630110964E+02  0.23726289062E+03  0.24283812696E+03  0.47000000000E+01 0. -1.
         -5    1    4    4    0  502  0.36170054272E+02  0.24642541295E+02  0.20808381153E+02  0.48688873408E+02  0.47000000000E+01 0. -1.
          5    1    5    5  503    0 -0.36427610738E+02  0.74549609297E+02  0.77862782966E+02  0.11388291374E+03  0.47000000000E+01 0.  1.
         -5    1    5    5    0  503 -0.92911870239E+01 -0.48562039628E+02  0.73020522951E+02  0.88310161483E+02  0.47000000000E+01 0.  1.
<mgrwt>
<rscale>  0 0.27661465E+03</rscale>
<asrwt>0</asrwt>
<pdfrwt beam="1">  1        1 0.69436509E-01 0.27661465E+03</pdfrwt>
<pdfrwt beam="2">  1       -1 0.65204232E-02 0.27661465E+03</pdfrwt>
<totfact> 0.60621529E+03</totfact>
</mgrwt>
</event>
<event>
 9    1  0.8285222E-001  0.2823327E+03  0.7818608E-02  0.1094422E+00
          2   -1    0    0  501    0  0.00000000000E+00  0.00000000000E+00  0.94443305611E+03  0.94443305611E+03  0.00000000000E+00 0.  1.
         -2   -1    0    0    0  501 -0.00000000000E+00 -0.00000000000E+00 -0.21100428413E+02  0.21100428413E+02  0.00000000000E+00 0.  1.
         35    2    1    2    0    0  0.71054273576E-14  0.00000000000E+00  0.92333262769E+03  0.96553348452E+03  0.28233272634E+03 0.  0.
         25    2    3    3    0    0 -0.61502061169E+02 -0.23429176300E+02  0.45051645267E+03  0.47207687084E+03  0.12474000171E+03 0.  0.
         25    2    3    3    0    0  0.61502061169E+02  0.23429176300E+02  0.47281617502E+03  0.49345661368E+03  0.12495144812E+03 0.  0.
          5    1    4    4  502    0 -0.49445385844E+02  0.39685283860E+02  0.12491928092E+03  0.14016663184E+03  0.47000000000E+01 0.  1.
         -5    1    4    4    0  502 -0.12056675325E+02 -0.63114460159E+02  0.32559717175E+03  0.33191023900E+03  0.47000000000E+01 0.  1.
          5    1    5    5  503    0  0.40096472382E+02  0.24151487067E+02  0.45071323303E+02  0.65150100608E+02  0.47000000000E+01 0. -1.
         -5    1    5    5    0  503  0.21405588787E+02 -0.72231076777E+00  0.42774485172E+03  0.42830651307E+03  0.47000000000E+01 0. -1.
<mgrwt>
<rscale>  0 0.28233273E+03</rscale>
<asrwt>0</asrwt>
<pdfrwt beam="1">  1        2 0.14529736E+00 0.28233273E+03</pdfrwt>
<pdfrwt beam="2">  1       -2 0.32462205E-02 0.28233273E+03</pdfrwt>
<totfact> 0.10689445E+04</totfact>
</mgrwt>
</event>
<event>
 9    1  0.8285222E-001  0.2740538E+03  0.7818608E-02  0.1098982E+00
         -2   -1    0    0    0  501 -0.00000000000E+00  0.00000000000E+00  0.68951162113E+02  0.68951162113E+02  0.00000000000E+00 0. -1.
          2   -1    0    0  501    0  0.00000000000E+00 -0.00000000000E+00 -0.27231406642E+03  0.27231406642E+03  0.00000000000E+00 0. -1.
         35    2    1    2    0    0  0.71054273576E-14  0.00000000000E+00 -0.20336290430E+03  0.34126522853E+03  0.27405380011E+03 0.  0.
         25    2    3    3    0    0 -0.25546434933E+02 -0.41889282953E+02 -0.68168208448E+02  0.15065939053E+03  0.12507603666E+03 0.  0.
         25    2    3    3    0    0  0.25546434933E+02  0.41889282953E+02 -0.13519469585E+03  0.19060583800E+03  0.12508256205E+03 0.  0.
          5    1    4    4  502    0 -0.42909039072E+02 -0.13673467388E+02  0.24959090773E+02  0.51702955009E+02  0.47000000000E+01 0.  1.
         -5    1    4    4    0  502  0.17362604140E+02 -0.28215815565E+02 -0.93127299220E+02  0.98956435519E+02  0.47000000000E+01 0.  1.
          5    1    5    5  503    0  0.53763254320E+02 -0.26547223734E+02 -0.62932124702E+02  0.87050473419E+02  0.47000000000E+01 0.  1.
         -5    1    5    5    0  503 -0.28216819387E+02  0.68436506687E+02 -0.72262571153E+02  0.10355536458E+03  0.47000000000E+01 0.  1.
<mgrwt>
<rscale>  0 0.27405380E+03</rscale>
<asrwt>0</asrwt>
<pdfrwt beam="1">  1        2 0.41894471E-01 0.27405380E+03</pdfrwt>
<pdfrwt beam="2">  1       -2 0.10607871E-01 0.27405380E+03</pdfrwt>
<totfact> 0.72761141E+03</totfact>
</mgrwt>
</event>
<event>
 9    1  0.8285222E-001  0.2753516E+03  0.7818608E-02  0.1098255E+00
         -2   -1    0    0    0  501 -0.00000000000E+00  0.00000000000E+00  0.36389815941E+02  0.36389815941E+02  0.00000000000E+00 0. -1.
          2   -1    0    0  501    0  0.00000000000E+00 -0.00000000000E+00 -0.52087725758E+03  0.52087725758E+03  0.00000000000E+00 0. -1.
         35    2    1    2    0    0  0.00000000000E+00  0.00000000000E+00 -0.48448744164E+03  0.55726707352E+03  0.27535161181E+03 0.  0.
         25    2    3    3    0    0 -0.16030770327E+02  0.45605747377E+02 -0.17792343062E+03  0.22274778673E+03  0.12499183788E+03 0.  0.
         25    2    3    3    0    0  0.16030770327E+02 -0.45605747377E+02 -0.30656401101E+03  0.33451928679E+03  0.12483905877E+03 0.  0.
          5    1    4    4  502    0  0.47487017809E+02  0.51121371789E+02 -0.87637884425E+02  0.11212002631E+03  0.47000000000E+01 0.  1.
         -5    1    4    4    0  502 -0.63517788136E+02 -0.55156244116E+01 -0.90285546198E+02  0.11062776042E+03  0.47000000000E+01 0.  1.
          5    1    5    5  503    0  0.46564574090E+02  0.16322356889E+02 -0.56996544008E+02  0.75533932265E+02  0.47000000000E+01 0.  1.
         -5    1    5    5    0  503 -0.30533803763E+02 -0.61928104267E+02 -0.24956746700E+03  0.25898535452E+03  0.47000000000E+01 0.  1.
<mgrwt>
<rscale>  0 0.27535161E+03</rscale>
<asrwt>0</asrwt>
<pdfrwt beam="1">  1        2 0.80134962E-01 0.27535161E+03</pdfrwt>
<pdfrwt beam="2">  1       -2 0.55984332E-02 0.27535161E+03</pdfrwt>
<totfact> 0.97314761E+03</totfact>
</mgrwt>
</event>
<event>
 9    1  0.8285222E-001  0.2765932E+03  0.7818608E-02  0.1097564E+00
         -2   -1    0    0    0  501 -0.00000000000E+00  0.00000000000E+00  0.58317967746E+03  0.58317967746E+03  0.00000000000E+00 0.  1.
          2   -1    0    0  501    0  0.00000000000E+00 -0.00000000000E+00 -0.32795978346E+02  0.32795978346E+02  0.00000000000E+00 0.  1.
         35    2    1    2    0    0  0.71054273576E-14  0.00000000000E+00  0.55038369912E+03  0.61597565581E+03  0.27659318917E+03 0.  0.
         25    2    3    3    0    0 -0.55977730565E+02 -0.71338457099E+01  0.27191651844E+03  0.30439127497E+03  0.12462366228E+03 0.  0.
         25    2    3    3    0    0  0.55977730565E+02  0.71338457099E+01  0.27846718068E+03  0.31158438084E+03  0.12789236724E+03 0.  0.
          5    1    4    4  502    0 -0.24602849288E+02 -0.65633776388E+02  0.13833756406E+03  0.15515303550E+03  0.47000000000E+01 0.  1.
         -5    1    4    4    0  502 -0.31374881276E+02  0.58499930678E+02  0.13357895438E+03  0.14923823947E+03  0.47000000000E+01 0.  1.
          5    1    5    5  503    0  0.83090781213E+01 -0.36507862160E+02  0.15574004592E+02  0.40822841618E+02  0.47000000000E+01 0. -1.
         -5    1    5    5    0  503  0.47668652443E+02  0.43641707870E+02  0.26289317608E+03  0.27076153922E+03  0.47000000000E+01 0. -1.
<mgrwt>
<rscale>  0 0.27659319E+03</rscale>
<asrwt>0</asrwt>
<pdfrwt beam="1">  1        2 0.50455355E-02 0.27659319E+03</pdfrwt>
<pdfrwt beam="2">  1       -2 0.89719943E-01 0.27659319E+03</pdfrwt>
<totfact> 0.17082883E+03</totfact>
</mgrwt>
</event>
<event>
 9    1  0.8285222E-001  0.2764103E+03  0.7818608E-02  0.1097666E+00
          2   -1    0    0  501    0  0.00000000000E+00  0.00000000000E+00  0.13495832694E+03  0.13495832694E+03  0.00000000000E+00 0.  1.
         -2   -1    0    0    0  501 -0.00000000000E+00 -0.00000000000E+00 -0.14153009310E+03  0.14153009310E+03  0.00000000000E+00 0.  1.
         35    2    1    2    0    0  0.00000000000E+00  0.00000000000E+00 -0.65717661560E+01  0.27648842004E+03  0.27641030789E+03 0.  0.
         25    2    3    3    0    0 -0.11629874388E+02 -0.51127060049E+02  0.25049928697E+02  0.13766150599E+03  0.12479567723E+03 0.  0.
         25    2    3    3    0    0  0.11629874388E+02  0.51127060049E+02 -0.31621694853E+02  0.13882691405E+03  0.12459434270E+03 0.  0.
          5    1    4    4  502    0  0.28832575422E+02 -0.56466415791E+02 -0.28911517267E+02  0.69840814345E+02  0.47000000000E+01 0.  1.
         -5    1    4    4    0  502 -0.40462449811E+02  0.53393557416E+01  0.53961445964E+02  0.67820691643E+02  0.47000000000E+01 0.  1.
          5    1    5    5  503    0  0.58693699989E+02  0.15416305291E+02 -0.47801317130E+02  0.77392950626E+02  0.47000000000E+01 0.  1.
         -5    1    5    5    0  503 -0.47063825600E+02  0.35710754758E+02  0.16179622277E+02  0.61433963429E+02  0.47000000000E+01 0.  1.
<mgrwt>
<rscale>  0 0.27641031E+03</rscale>
<asrwt>0</asrwt>
<pdfrwt beam="1">  1        2 0.20762819E-01 0.27641031E+03</pdfrwt>
<pdfrwt beam="2">  1       -2 0.21773861E-01 0.27641031E+03</pdfrwt>
<totfact> 0.47922159E+03</totfact>
</mgrwt>
</event>
<event>
 9    1  0.8285222E-001  0.2729409E+03  0.7818608E-02  0.1099608E+00
          1   -1    0    0  501    0  0.00000000000E+00  0.00000000000E+00  0.37744398917E+03  0.37744398917E+03  0.00000000000E+00 0. -1.
         -1   -1    0    0    0  501 -0.00000000000E+00 -0.00000000000E+00 -0.49342890228E+02  0.49342890228E+02  0.00000000000E+00 0. -1.
         35    2    1    2    0    0 -0.35527136788E-14  0.71054273576E-14  0.32810109894E+03  0.42678687940E+03  0.27294085312E+03 0.  0.
         25    2    3    3    0    0 -0.97611903614E+01 -0.18431095957E+02  0.81906951386E+02  0.14992819082E+03  0.12383346713E+03 0.  0.
         25    2    3    3    0    0  0.97611903614E+01  0.18431095957E+02  0.24619414756E+03  0.27685868858E+03  0.12491672832E+03 0.  0.
          5    1    4    4  502    0 -0.32788129076E+01  0.38067167865E+02  0.84448357863E+02  0.92808809006E+02  0.47000000000E+01 0. -1.
         -5    1    4    4    0  502 -0.64823774538E+01 -0.56498263821E+02 -0.25414064772E+01  0.57119381817E+02  0.47000000000E+01 0. -1.
          5    1    5    5  503    0  0.37241725312E+02 -0.13456345040E+02  0.22678998545E+03  0.23026898798E+03  0.47000000000E+01 0.  1.
         -5    1    5    5    0  503 -0.27480534951E+02  0.31887440997E+02  0.19404162111E+02  0.46589700597E+02  0.47000000000E+01 0.  1.
<mgrwt>
<rscale>  0 0.27294085E+03</rscale>
<asrwt>0</asrwt>
<pdfrwt beam="1">  1        1 0.58068304E-01 0.27294085E+03</pdfrwt>
<pdfrwt beam="2">  1       -1 0.75912141E-02 0.27294085E+03</pdfrwt>
<totfact> 0.60562363E+03</totfact>
</mgrwt>
</event>
<event>
 9    1  0.8285222E-001  0.2722060E+03  0.7818608E-02  0.1100024E+00
         -2   -1    0    0    0  501 -0.00000000000E+00  0.00000000000E+00  0.11649081947E+03  0.11649081947E+03  0.00000000000E+00 0. -1.
          2   -1    0    0  501    0  0.00000000000E+00 -0.00000000000E+00 -0.15901701844E+03  0.15901701844E+03  0.00000000000E+00 0. -1.
         35    2    1    2    0    0 -0.71054273576E-14  0.00000000000E+00 -0.42526198968E+02  0.27550783790E+03  0.27220597192E+03 0.  0.
         25    2    3    3    0    0 -0.27173481197E+02 -0.51161000750E+02 -0.13915816400E+02  0.13419668452E+03  0.12024663867E+03 0.  0.
         25    2    3    3    0    0  0.27173481197E+02  0.51161000750E+02 -0.28610382568E+02  0.14131115338E+03  0.12567594042E+03 0.  0.
          5    1    4    4  502    0  0.34232024218E+02  0.92149668098E-02 -0.37238280662E+02  0.50799715685E+02  0.47000000000E+01 0.  1.
         -5    1    4    4    0  502 -0.61405505414E+02 -0.51170215717E+02  0.23322464262E+02  0.83396968836E+02  0.47000000000E+01 0.  1.
          5    1    5    5  503    0  0.59719290663E+02  0.34409691928E+02  0.27331177348E+02  0.74293363305E+02  0.47000000000E+01 0. -1.
         -5    1    5    5    0  503 -0.32545809467E+02  0.16751308823E+02 -0.55941559916E+02  0.67017790078E+02  0.47000000000E+01 0. -1.
<mgrwt>
<rscale>  0 0.27220597E+03</rscale>
<asrwt>0</asrwt>
<pdfrwt beam="1">  1        2 0.24464157E-01 0.27220597E+03</pdfrwt>
<pdfrwt beam="2">  1       -2 0.17921665E-01 0.27220597E+03</pdfrwt>
<totfact> 0.55490419E+03</totfact>
</mgrwt>
</event>
<event>
 9    1  0.8285222E-001  0.2756825E+03  0.7818608E-02  0.1098071E+00
         -1   -1    0    0    0  501 -0.00000000000E+00  0.00000000000E+00  0.90214066278E+02  0.90214066278E+02  0.00000000000E+00 0.  1.
          1   -1    0    0  501    0  0.00000000000E+00 -0.00000000000E+00 -0.21061254232E+03  0.21061254232E+03  0.00000000000E+00 0.  1.
         35    2    1    2    0    0  0.00000000000E+00  0.00000000000E+00 -0.12039847604E+03  0.30082660860E+03  0.27568252648E+03 0.  0.
         25    2    3    3    0    0  0.12674839100E+02 -0.50789332002E+02 -0.77593762322E+02  0.15755351875E+03  0.12673638597E+03 0.  0.
         25    2    3    3    0    0 -0.12674839100E+02  0.50789332002E+02 -0.42804713719E+02  0.14327308984E+03  0.12631202225E+03 0.  0.
          5    1    4    4  502    0 -0.79440268574E+01 -0.89459916314E+02 -0.35752621516E+02  0.96780804579E+02  0.47000000000E+01 0.  1.
         -5    1    4    4    0  502  0.20618865957E+02  0.38670584312E+02 -0.41841140806E+02  0.60772714176E+02  0.47000000000E+01 0.  1.
          5    1    5    5  503    0  0.61806409524E+01  0.89660988377E+02 -0.13859088347E+02  0.91057440603E+02  0.47000000000E+01 0. -1.
         -5    1    5    5    0  503 -0.18855480052E+02 -0.38871656375E+02 -0.28945625372E+02  0.52215649240E+02  0.47000000000E+01 0. -1.
<mgrwt>
<rscale>  0 0.27568253E+03</rscale>
<asrwt>0</asrwt>
<pdfrwt beam="1">  1        1 0.32401929E-01 0.27568253E+03</pdfrwt>
<pdfrwt beam="2">  1       -1 0.13879087E-01 0.27568253E+03</pdfrwt>
<totfact> 0.49625263E+03</totfact>
</mgrwt>
</event>
<event>
 9    1  0.8285222E-001  0.2750373E+03  0.7818608E-02  0.1098431E+00
         -2   -1    0    0    0  501 -0.00000000000E+00  0.00000000000E+00  0.31211942389E+02  0.31211942389E+02  0.00000000000E+00 0.  1.
          2   -1    0    0  501    0  0.00000000000E+00 -0.00000000000E+00 -0.60590221504E+03  0.60590221504E+03  0.00000000000E+00 0.  1.
         35    2    1    2    0    0  0.00000000000E+00  0.00000000000E+00 -0.57469027265E+03  0.63711415743E+03  0.27503734313E+03 0.  0.
         25    2    3    3    0    0  0.58814678683E+01  0.50486235543E+02 -0.22391182033E+03  0.26125276616E+03  0.12463166892E+03 0.  0.
         25    2    3    3    0    0 -0.58814678683E+01 -0.50486235543E+02 -0.35077845233E+03  0.37586139127E+03  0.12507122447E+03 0.  0.
          5    1    4    4  502    0  0.24830490849E+02  0.75202859542E+02 -0.21400050203E+03  0.22823305683E+03  0.47000000000E+01 0. -1.
         -5    1    4    4    0  502 -0.18949022980E+02 -0.24716623999E+02 -0.99113182953E+01  0.33019709329E+02  0.47000000000E+01 0. -1.
          5    1    5    5  503    0 -0.22312391397E+02 -0.46344292595E+02 -0.35420075529E+03  0.35794678559E+03  0.47000000000E+01 0. -1.
         -5    1    5    5    0  503  0.16430923528E+02 -0.41419429481E+01  0.34223029604E+01  0.17914605687E+02  0.47000000000E+01 0. -1.
<mgrwt>
<rscale>  0 0.27503734E+03</rscale>
<asrwt>0</asrwt>
<pdfrwt beam="1">  1        2 0.93215718E-01 0.27503734E+03</pdfrwt>
<pdfrwt beam="2">  1       -2 0.48018377E-02 0.27503734E+03</pdfrwt>
<totfact> 0.10339281E+04</totfact>
</mgrwt>
</event>
<event>
 9    1  0.8285222E-001  0.2746812E+03  0.7818608E-02  0.1098630E+00
         -4   -1    0    0    0  501 -0.00000000000E+00  0.00000000000E+00  0.10926668299E+02  0.10926668299E+02  0.00000000000E+00 0. -1.
          4   -1    0    0  501    0  0.00000000000E+00 -0.00000000000E+00 -0.17262754630E+04  0.17262754630E+04  0.00000000000E+00 0. -1.
         35    2    1    2    0    0  0.00000000000E+00  0.00000000000E+00 -0.17153487947E+04  0.17372021313E+04  0.27468119249E+03 0.  0.
         25    2    3    3    0    0 -0.49853934328E+02  0.17937558564E+02 -0.66118184618E+03  0.67502803095E+03  0.12527664616E+03 0.  0.
         25    2    3    3    0    0  0.49853934328E+02 -0.17937558564E+02 -0.10541669485E+04  0.10621741003E+04  0.11890623755E+03 0.  0.
          5    1    4    4  502    0  0.31418510281E+01  0.62806836408E+02 -0.38957477448E+03  0.39464561931E+03  0.47000000000E+01 0. -1.
         -5    1    4    4    0  502 -0.52995785356E+02 -0.44869277844E+02 -0.27160707170E+03  0.28038241164E+03  0.47000000000E+01 0. -1.
          5    1    5    5  503    0  0.51967792131E+02 -0.60726121807E+02 -0.50380934559E+03  0.51013161046E+03  0.47000000000E+01 0.  1.
         -5    1    5    5    0  503 -0.21138578035E+01  0.42788563243E+02 -0.55035760289E+03  0.55204248985E+03  0.47000000000E+01 0.  1.
<mgrwt>
<rscale>  0 0.27468119E+03</rscale>
<asrwt>0</asrwt>
<pdfrwt beam="1">  1        4 0.26558093E+00 0.27468119E+03</pdfrwt>
<pdfrwt beam="2">  1       -4 0.16810253E-02 0.27468119E+03</pdfrwt>
<totfact> 0.14377968E+02</totfact>
</mgrwt>
</event>
<event>
 9    1  0.8285222E-001  0.2725516E+03  0.7818608E-02  0.1099828E+00
         -1   -1    0    0    0  501 -0.00000000000E+00  0.00000000000E+00  0.19942777081E+02  0.19942777081E+02  0.00000000000E+00 0. -1.
          1   -1    0    0  501    0  0.00000000000E+00 -0.00000000000E+00 -0.93121895494E+03  0.93121895494E+03  0.00000000000E+00 0. -1.
         35    2    1    2    0    0 -0.14210854715E-13 -0.71054273576E-14 -0.91127617786E+03  0.95116173202E+03  0.27255158801E+03 0.  0.
         25    2    3    3    0    0  0.48166125056E+02  0.18227166752E+02 -0.50889506541E+03  0.52671497174E+03  0.12570707475E+03 0.  0.
         25    2    3    3    0    0 -0.48166125056E+02 -0.18227166752E+02 -0.40238111245E+03  0.42444676028E+03  0.12486908124E+03 0.  0.
          5    1    4    4  502    0  0.25940008049E+02  0.72264692463E+02 -0.27116336689E+03  0.28186296553E+03  0.47000000000E+01 0. -1.
         -5    1    4    4    0  502  0.22226117008E+02 -0.54037525712E+02 -0.23773169852E+03  0.24485200621E+03  0.47000000000E+01 0. -1.
          5    1    5    5  503    0 -0.24295773412E+02 -0.61507419106E+02 -0.11444846294E+03  0.13226483992E+03  0.47000000000E+01 0. -1.
         -5    1    5    5    0  503 -0.23870351644E+02  0.43280252354E+02 -0.28793264951E+03  0.29218192036E+03  0.47000000000E+01 0. -1.
<mgrwt>
<rscale>  0 0.27255159E+03</rscale>
<asrwt>0</asrwt>
<pdfrwt beam="1">  1        1 0.14326447E+00 0.27255159E+03</pdfrwt>
<pdfrwt beam="2">  1       -1 0.30681191E-02 0.27255159E+03</pdfrwt>
<totfact> 0.65771608E+03</totfact>
</mgrwt>
</event>
<event>
 9    1  0.8285222E-001  0.2871473E+03  0.7818608E-02  0.1091848E+00
          3   -1    0    0  501    0  0.00000000000E+00  0.00000000000E+00  0.54875748159E+03  0.54875748159E+03  0.00000000000E+00 0.  1.
         -3   -1    0    0    0  501 -0.00000000000E+00 -0.00000000000E+00 -0.37563769589E+02  0.37563769589E+02  0.00000000000E+00 0.  1.
         35    2    1    2    0    0  0.00000000000E+00 -0.71054273576E-14  0.51119371200E+03  0.58632125118E+03  0.28714734614E+03 0.  0.
         25    2    3    3    0    0  0.23344022328E+02  0.46048655066E+02  0.15783357397E+03  0.20798533993E+03  0.12522396953E+03 0.  0.
         25    2    3    3    0    0 -0.23344022328E+02 -0.46048655066E+02  0.35336013804E+03  0.37833591125E+03  0.12493699442E+03 0.  0.
          5    1    4    4  502    0 -0.95432911556E+01  0.84187657279E+02  0.10027448376E+03  0.13136094601E+03  0.47000000000E+01 0. -1.
         -5    1    4    4    0  502  0.32887313484E+02 -0.38139002213E+02  0.57559090206E+02  0.76624393918E+02  0.47000000000E+01 0. -1.
          5    1    5    5  503    0  0.15276540209E+02 -0.75503165418E+02  0.14414433060E+03  0.16350467489E+03  0.47000000000E+01 0.  1.
         -5    1    5    5    0  503 -0.38620562537E+02  0.29454510352E+02  0.20921580744E+03  0.21483123636E+03  0.47000000000E+01 0.  1.
<mgrwt>
<rscale>  0 0.28714735E+03</rscale>
<asrwt>0</asrwt>
<pdfrwt beam="1">  1        3 0.84424222E-01 0.28714735E+03</pdfrwt>
<pdfrwt beam="2">  1       -3 0.57790419E-02 0.28714735E+03</pdfrwt>
<totfact> 0.61135385E+02</totfact>
</mgrwt>
</event>
<event>
 9    1  0.8285222E-001  0.2607660E+03  0.7818608E-02  0.1106684E+00
         -2   -1    0    0    0  501 -0.00000000000E+00  0.00000000000E+00  0.55180853049E+02  0.55180853049E+02  0.00000000000E+00 0. -1.
          2   -1    0    0  501    0  0.00000000000E+00 -0.00000000000E+00 -0.30807297006E+03  0.30807297006E+03  0.00000000000E+00 0. -1.
         35    2    1    2    0    0  0.71054273576E-14  0.35527136788E-14 -0.25289211701E+03  0.36325382310E+03  0.26076601994E+03 0.  0.
         25    2    3    3    0    0 -0.19277242109E+02 -0.30550758993E+02 -0.11669635766E+03  0.17488021581E+03  0.12514027750E+03 0.  0.
         25    2    3    3    0    0  0.19277242109E+02  0.30550758993E+02 -0.13619575935E+03  0.18837360729E+03  0.12502147864E+03 0.  0.
          5    1    4    4  502    0  0.50940077874E+02 -0.31107382219E+02 -0.54040142417E+02  0.80653504294E+02  0.47000000000E+01 0. -1.
         -5    1    4    4    0  502 -0.70217319983E+02  0.55662322609E+00 -0.62656215242E+02  0.94226711518E+02  0.47000000000E+01 0. -1.
          5    1    5    5  503    0  0.33522894288E+02  0.50095440182E+02 -0.14886136552E+03  0.16067088633E+03  0.47000000000E+01 0.  1.
         -5    1    5    5    0  503 -0.14245652179E+02 -0.19544681189E+02  0.12665606178E+02  0.27702720961E+02  0.47000000000E+01 0.  1.
<mgrwt>
<rscale>  0 0.26076602E+03</rscale>
<asrwt>0</asrwt>
<pdfrwt beam="1">  1        2 0.47395842E-01 0.26076602E+03</pdfrwt>
<pdfrwt beam="2">  1       -2 0.84893619E-02 0.26076602E+03</pdfrwt>
<totfact> 0.90467839E+03</totfact>
</mgrwt>
</event>
<event>
 9    1  0.8285222E-001  0.2768467E+03  0.7818608E-02  0.1097424E+00
         -2   -1    0    0    0  501 -0.00000000000E+00  0.00000000000E+00  0.18367607947E+03  0.18367607947E+03  0.00000000000E+00 0. -1.
          2   -1    0    0  501    0  0.00000000000E+00 -0.00000000000E+00 -0.10431962397E+03  0.10431962397E+03  0.00000000000E+00 0. -1.
         35    2    1    2    0    0  0.00000000000E+00  0.17763568394E-14  0.79356455502E+02  0.28799570345E+03  0.27684666907E+03 0.  0.
         25    2    3    3    0    0  0.57045215095E+02  0.13347545989E+02  0.40126890300E+02  0.14417403176E+03  0.12547378435E+03 0.  0.
         25    2    3    3    0    0 -0.57045215095E+02 -0.13347545989E+02  0.39229565202E+02  0.14382167169E+03  0.12535310491E+03 0.  0.
          5    1    4    4  502    0  0.96417055735E+02  0.91889181853E+01  0.38317560212E+02  0.10426413705E+03  0.47000000000E+01 0. -1.
         -5    1    4    4    0  502 -0.39371840640E+02  0.41586278034E+01  0.18093300879E+01  0.39909894712E+02  0.47000000000E+01 0. -1.
          5    1    5    5  503    0 -0.30251992482E+02 -0.50867560320E+02 -0.25166281898E+02  0.64483513293E+02  0.47000000000E+01 0. -1.
         -5    1    5    5    0  503 -0.26793222614E+02  0.37520014331E+02  0.64395847100E+02  0.79338158393E+02  0.47000000000E+01 0. -1.
<mgrwt>
<rscale>  0 0.27684667E+03</rscale>
<asrwt>0</asrwt>
<pdfrwt beam="1">  1        2 0.16049173E-01 0.27684667E+03</pdfrwt>
<pdfrwt beam="2">  1       -2 0.28257858E-01 0.27684667E+03</pdfrwt>
<totfact> 0.40781465E+03</totfact>
</mgrwt>
</event>
<event>
 9    1  0.8285222E-001  0.2763407E+03  0.7818608E-02  0.1097705E+00
          1   -1    0    0  501    0  0.00000000000E+00  0.00000000000E+00  0.44914376147E+02  0.44914376147E+02  0.00000000000E+00 0. -1.
         -1   -1    0    0    0  501 -0.00000000000E+00 -0.00000000000E+00 -0.42505414140E+03  0.42505414140E+03  0.00000000000E+00 0. -1.
         35    2    1    2    0    0 -0.35527136788E-14  0.00000000000E+00 -0.38013976526E+03  0.46996851755E+03  0.27634067084E+03 0.  0.
         25    2    3    3    0    0 -0.31653218067E+02  0.18878033711E+02 -0.24474839050E+03  0.27699095195E+03  0.12435395627E+03 0.  0.
         25    2    3    3    0    0  0.31653218067E+02 -0.18878033711E+02 -0.13539137476E+03  0.19297756560E+03  0.13248098012E+03 0.  0.
          5    1    4    4  502    0 -0.25807984107E+02 -0.39123782108E+02 -0.19375040295E+03  0.19939415993E+03  0.47000000000E+01 0. -1.
         -5    1    4    4    0  502 -0.58452339591E+01  0.58001815819E+02 -0.50997987546E+02  0.77596792022E+02  0.47000000000E+01 0. -1.
          5    1    5    5  503    0 -0.16865520132E+02  0.49696294173E+02 -0.42913816625E+02  0.67954787037E+02  0.47000000000E+01 0.  1.
         -5    1    5    5    0  503  0.48518738199E+02 -0.68574327884E+02 -0.92477558130E+02  0.12502277856E+03  0.47000000000E+01 0.  1.
<mgrwt>
<rscale>  0 0.27634067E+03</rscale>
<asrwt>0</asrwt>
<pdfrwt beam="1">  1        1 0.69099041E-02 0.27634067E+03</pdfrwt>
<pdfrwt beam="2">  1       -1 0.65392944E-01 0.27634067E+03</pdfrwt>
<totfact> 0.26045672E+03</totfact>
</mgrwt>
</event>
<event>
 9    1  0.8285222E-001  0.2959562E+03  0.7818608E-02  0.1087280E+00
         -1   -1    0    0    0  501 -0.00000000000E+00  0.00000000000E+00  0.12594006667E+02  0.12594006667E+02  0.00000000000E+00 0.  1.
          1   -1    0    0  501    0  0.00000000000E+00 -0.00000000000E+00 -0.17387249941E+04  0.17387249941E+04  0.00000000000E+00 0.  1.
         35    2    1    2    0    0 -0.88817841970E-15  0.00000000000E+00 -0.17261309874E+04  0.17513190008E+04  0.29595617357E+03 0.  0.
         25    2    3    3    0    0  0.75257105507E+01 -0.76974668769E+02 -0.96540015095E+03  0.97657737145E+03  0.12539607260E+03 0.  0.
         25    2    3    3    0    0 -0.75257105507E+01  0.76974668769E+02 -0.76073083648E+03  0.77474162931E+03  0.12462524090E+03 0.  0.
          5    1    4    4  502    0  0.10363080683E+02 -0.76096428422E+02 -0.25977337990E+03  0.27092869683E+03  0.47000000000E+01 0. -1.
         -5    1    4    4    0  502 -0.28373701321E+01 -0.87824034651E+00 -0.70562677105E+03  0.70564867462E+03  0.47000000000E+01 0. -1.
          5    1    5    5  503    0  0.36962739955E+02  0.15318761029E+02 -0.78144975434E+02  0.87918347175E+02  0.47000000000E+01 0.  1.
         -5    1    5    5    0  503 -0.44488450506E+02  0.61655907740E+02 -0.68258586104E+03  0.68682328214E+03  0.47000000000E+01 0.  1.
<mgrwt>
<rscale>  0 0.29595617E+03</rscale>
<asrwt>0</asrwt>
<pdfrwt beam="1">  1        1 0.26749608E+00 0.29595617E+03</pdfrwt>
<pdfrwt beam="2">  1       -1 0.19375400E-02 0.29595617E+03</pdfrwt>
<totfact> 0.35830241E+03</totfact>
</mgrwt>
</event>
<event>
 9    1  0.8285222E-001  0.2737112E+03  0.7818608E-02  0.1099174E+00
          1   -1    0    0  501    0  0.00000000000E+00  0.00000000000E+00  0.97738707175E+03  0.97738707175E+03  0.00000000000E+00 0. -1.
         -1   -1    0    0    0  501 -0.00000000000E+00 -0.00000000000E+00 -0.19162779170E+02  0.19162779170E+02  0.00000000000E+00 0. -1.
         35    2    1    2    0    0  0.00000000000E+00  0.35527136788E-14  0.95822429258E+03  0.99654985092E+03  0.27371118077E+03 0.  0.
         25    2    3    3    0    0 -0.54394807511E+02 -0.12986707674E+02  0.57661122731E+03  0.59182791162E+03  0.12104676722E+03 0.  0.
         25    2    3    3    0    0  0.54394807511E+02  0.12986707674E+02  0.38161306527E+03  0.40472193930E+03  0.12265344228E+03 0.  0.
          5    1    4    4  502    0 -0.15031751188E+02 -0.57446887840E+02  0.42121592896E+03  0.42540691964E+03  0.47000000000E+01 0. -1.
         -5    1    4    4    0  502 -0.39363056323E+02  0.44460180166E+02  0.15539529834E+03  0.16642099197E+03  0.47000000000E+01 0. -1.
          5    1    5    5  503    0 -0.37200398335E+02  0.19814423287E+02  0.13575402835E+03  0.14222421460E+03  0.47000000000E+01 0.  1.
         -5    1    5    5    0  503  0.91595205846E+02 -0.68277156127E+01  0.24585903692E+03  0.26249772470E+03  0.47000000000E+01 0.  1.
<mgrwt>
<rscale>  0 0.27371118E+03</rscale>
<asrwt>0</asrwt>
<pdfrwt beam="1">  1        1 0.15036720E+00 0.27371118E+03</pdfrwt>
<pdfrwt beam="2">  1       -1 0.29481206E-02 0.27371118E+03</pdfrwt>
<totfact> 0.64323121E+03</totfact>
</mgrwt>
</event>
<event>
 9    1  0.8285222E-001  0.2610443E+03  0.7818608E-02  0.1106517E+00
          2   -1    0    0  501    0  0.00000000000E+00  0.00000000000E+00  0.66504212262E+03  0.66504212262E+03  0.00000000000E+00 0. -1.
         -2   -1    0    0    0  501 -0.00000000000E+00 -0.00000000000E+00 -0.25616477625E+02  0.25616477625E+02  0.00000000000E+00 0. -1.
         35    2    1    2    0    0  0.00000000000E+00 -0.35527136788E-14  0.63942564499E+03  0.69065860024E+03  0.26104433841E+03 0.  0.
         25    2    3    3    0    0  0.18723119784E+02  0.27705617296E+02  0.37299779964E+03  0.39450689395E+03  0.12405714164E+03 0.  0.
         25    2    3    3    0    0 -0.18723119784E+02 -0.27705617296E+02  0.26642784535E+03  0.29615170629E+03  0.12491549110E+03 0.  0.
          5    1    4    4  502    0  0.36430540187E+02 -0.33113016609E+02  0.26194229929E+03  0.26656990506E+03  0.47000000000E+01 0. -1.
         -5    1    4    4    0  502 -0.17707420403E+02  0.60818633905E+02  0.11105550035E+03  0.12793698889E+03  0.47000000000E+01 0. -1.
          5    1    5    5  503    0 -0.29027425085E+02 -0.10116510395E+02  0.22840643150E+01  0.31180797608E+02  0.47000000000E+01 0.  1.
         -5    1    5    5    0  503  0.10304305301E+02 -0.17589106901E+02  0.26414378104E+03  0.26497090869E+03  0.47000000000E+01 0.  1.
<mgrwt>
<rscale>  0 0.26104434E+03</rscale>
<asrwt>0</asrwt>
<pdfrwt beam="1">  1        2 0.10231416E+00 0.26104434E+03</pdfrwt>
<pdfrwt beam="2">  1       -2 0.39409971E-02 0.26104434E+03</pdfrwt>
<totfact> 0.12457321E+04</totfact>
</mgrwt>
</event>
<event>
 9    1  0.8285222E-001  0.2734867E+03  0.7818608E-02  0.1099301E+00
          2   -1    0    0  501    0  0.00000000000E+00  0.00000000000E+00  0.26473437746E+03  0.26473437746E+03  0.00000000000E+00 0.  1.
         -2   -1    0    0    0  501 -0.00000000000E+00 -0.00000000000E+00 -0.70632082370E+02  0.70632082370E+02  0.00000000000E+00 0.  1.
         35    2    1    2    0    0  0.00000000000E+00  0.00000000000E+00  0.19410229509E+03  0.33536645983E+03  0.27348667503E+03 0.  0.
         25    2    3    3    0    0  0.51746594460E+02 -0.54259114176E+01  0.64762676932E+02  0.15042220074E+03  0.12540129027E+03 0.  0.
         25    2    3    3    0    0 -0.51746594460E+02  0.54259114176E+01  0.12933961816E+03  0.18494425909E+03  0.12152568285E+03 0.  0.
          5    1    4    4  502    0 -0.81437434675E+01 -0.53766592214E+01  0.86018792943E+02  0.86698049352E+02  0.47000000000E+01 0.  1.
         -5    1    4    4    0  502  0.59890337927E+02 -0.49252196211E-01 -0.21256116011E+02  0.63724151393E+02  0.47000000000E+01 0.  1.
          5    1    5    5  503    0 -0.59438452186E+02  0.42392270999E+02  0.12731925983E+03  0.14684113240E+03  0.47000000000E+01 0.  1.
         -5    1    5    5    0  503  0.76918577259E+01 -0.36966359581E+02  0.20203583267E+01  0.38103126693E+02  0.47000000000E+01 0.  1.
<mgrwt>
<rscale>  0 0.27348668E+03</rscale>
<asrwt>0</asrwt>
<pdfrwt beam="1">  1        2 0.40728365E-01 0.27348668E+03</pdfrwt>
<pdfrwt beam="2">  1       -2 0.10866474E-01 0.27348668E+03</pdfrwt>
<totfact> 0.72167136E+03</totfact>
</mgrwt>
</event>
<event>
 9    1  0.8285222E-001  0.2735485E+03  0.7818608E-02  0.1099266E+00
          1   -1    0    0  501    0  0.00000000000E+00  0.00000000000E+00  0.13041819815E+03  0.13041819815E+03  0.00000000000E+00 0. -1.
         -1   -1    0    0    0  501 -0.00000000000E+00 -0.00000000000E+00 -0.14344004468E+03  0.14344004468E+03  0.00000000000E+00 0. -1.
         35    2    1    2    0    0  0.00000000000E+00  0.00000000000E+00 -0.13021846534E+02  0.27385824284E+03  0.27354847593E+03 0.  0.
         25    2    3    3    0    0 -0.14407561791E+02 -0.49983152127E+02  0.14134097258E+02  0.13576445224E+03  0.12460465662E+03 0.  0.
         25    2    3    3    0    0  0.14407561791E+02  0.49983152127E+02 -0.27155943791E+02  0.13809379060E+03  0.12500622539E+03 0.  0.
          5    1    4    4  502    0 -0.38403755895E+01 -0.74663118920E+02  0.50482733701E+02  0.90332309909E+02  0.47000000000E+01 0.  1.
         -5    1    4    4    0  502 -0.10567186201E+02  0.24679966793E+02 -0.36348636443E+02  0.45432142327E+02  0.47000000000E+01 0.  1.
          5    1    5    5  503    0 -0.31975918584E+02  0.55970294256E+02  0.23702877851E+02  0.68840755565E+02  0.47000000000E+01 0.  1.
         -5    1    5    5    0  503  0.46383480375E+02 -0.59871421285E+01 -0.50858821643E+02  0.69253035034E+02  0.47000000000E+01 0.  1.
<mgrwt>
<rscale>  0 0.27354848E+03</rscale>
<asrwt>0</asrwt>
<pdfrwt beam="1">  1        1 0.20064338E-01 0.27354848E+03</pdfrwt>
<pdfrwt beam="2">  1       -1 0.22067699E-01 0.27354848E+03</pdfrwt>
<totfact> 0.43314781E+03</totfact>
</mgrwt>
</event>
<event>
 9    1  0.8285222E-001  0.2688144E+03  0.7818608E-02  0.1101960E+00
         -1   -1    0    0    0  501 -0.00000000000E+00  0.00000000000E+00  0.21025872811E+02  0.21025872811E+02  0.00000000000E+00 0. -1.
          1   -1    0    0  501    0  0.00000000000E+00 -0.00000000000E+00 -0.85919381778E+03  0.85919381778E+03  0.00000000000E+00 0. -1.
         35    2    1    2    0    0  0.35527136788E-14 -0.71054273576E-14 -0.83816794497E+03  0.88021969059E+03  0.26881443363E+03 0.  0.
         25    2    3    3    0    0  0.27954396799E+02  0.24981613677E+02 -0.51372373290E+03  0.53056990983E+03  0.12722745829E+03 0.  0.
         25    2    3    3    0    0 -0.27954396799E+02 -0.24981613677E+02 -0.32444421207E+03  0.34964978077E+03  0.12484147197E+03 0.  0.
          5    1    4    4  502    0  0.15047664601E+02  0.23893117151E+01  0.22036153909E+00  0.15946146231E+02  0.47000000000E+01 0. -1.
         -5    1    4    4    0  502  0.12906732198E+02  0.22592301962E+02 -0.51394409444E+03  0.51462376359E+03  0.47000000000E+01 0. -1.
          5    1    5    5  503    0  0.28545487361E+02  0.33129555677E+01 -0.25085821451E+03  0.25254257921E+03  0.47000000000E+01 0. -1.
         -5    1    5    5    0  503 -0.56499884160E+02 -0.28294569245E+02 -0.73585997553E+02  0.97107201559E+02  0.47000000000E+01 0. -1.
<mgrwt>
<rscale>  0 0.26881443E+03</rscale>
<asrwt>0</asrwt>
<pdfrwt beam="1">  1        1 0.13218367E+00 0.26881443E+03</pdfrwt>
<pdfrwt beam="2">  1       -1 0.32347496E-02 0.26881443E+03</pdfrwt>
<totfact> 0.69294330E+03</totfact>
</mgrwt>
</event>
<event>
 9    1  0.8285222E-001  0.2754251E+03  0.7818608E-02  0.1098214E+00
         -1   -1    0    0    0  501 -0.00000000000E+00  0.00000000000E+00  0.41142932797E+03  0.41142932797E+03  0.00000000000E+00 0. -1.
          1   -1    0    0  501    0  0.00000000000E+00 -0.00000000000E+00 -0.46094799118E+02  0.46094799118E+02  0.00000000000E+00 0. -1.
         35    2    1    2    0    0 -0.35527136788E-14 -0.35527136788E-14  0.36533452885E+03  0.45752412709E+03  0.27542514209E+03 0.  0.
         25    2    3    3    0    0  0.26470632804E+02  0.25501175090E+02  0.10874408367E+03  0.16946571565E+03  0.12466895650E+03 0.  0.
         25    2    3    3    0    0 -0.26470632804E+02 -0.25501175090E+02  0.25659044518E+03  0.28805841144E+03  0.12565025870E+03 0.  0.
          5    1    4    4  502    0  0.50368783102E+01  0.12763586641E+02  0.13334131645E+03  0.13412783439E+03  0.47000000000E+01 0. -1.
         -5    1    4    4    0  502  0.21433754494E+02  0.12737588448E+02 -0.24597232779E+02  0.35337881255E+02  0.47000000000E+01 0. -1.
          5    1    5    5  503    0  0.24193594774E+01  0.17636472641E+02 -0.67483087498E+01  0.19609389039E+02  0.47000000000E+01 0. -1.
         -5    1    5    5    0  503 -0.28889992281E+02 -0.43137647730E+02  0.26333875393E+03  0.26844902240E+03  0.47000000000E+01 0. -1.
<mgrwt>
<rscale>  0 0.27542514E+03</rscale>
<asrwt>0</asrwt>
<pdfrwt beam="1">  1        1 0.70915078E-02 0.27542514E+03</pdfrwt>
<pdfrwt beam="2">  1       -1 0.63296817E-01 0.27542514E+03</pdfrwt>
<totfact> 0.26789994E+03</totfact>
</mgrwt>
</event>
<event>
 9    1  0.8285222E-001  0.2668069E+03  0.7818608E-02  0.1103121E+00
         -2   -1    0    0    0  501 -0.00000000000E+00  0.00000000000E+00  0.19622916990E+03  0.19622916990E+03  0.00000000000E+00 0.  1.
          2   -1    0    0  501    0  0.00000000000E+00 -0.00000000000E+00 -0.90692321434E+02  0.90692321434E+02  0.00000000000E+00 0.  1.
         35    2    1    2    0    0  0.71054273576E-14 -0.35527136788E-14  0.10553684847E+03  0.28692149134E+03  0.26680688860E+03 0.  0.
         25    2    3    3    0    0 -0.40726987134E+02 -0.58747952124E+01  0.28042958132E+02  0.13430596595E+03  0.12473365340E+03 0.  0.
         25    2    3    3    0    0  0.40726987134E+02  0.58747952124E+01  0.77493890337E+02  0.15261552538E+03  0.12487191377E+03 0.  0.
          5    1    4    4  502    0 -0.63102024328E+02 -0.14917957464E+02  0.63684479284E+02  0.91006669156E+02  0.47000000000E+01 0.  1.
         -5    1    4    4    0  502  0.22375037195E+02  0.90431622513E+01 -0.35641521152E+02  0.43299296795E+02  0.47000000000E+01 0.  1.
          5    1    5    5  503    0  0.68854659657E+02  0.44050246537E+02  0.61329194993E+02  0.10229735351E+03  0.47000000000E+01 0. -1.
         -5    1    5    5    0  503 -0.28127672523E+02 -0.38175451324E+02  0.16164695344E+02  0.50318171876E+02  0.47000000000E+01 0. -1.
<mgrwt>
<rscale>  0 0.26680689E+03</rscale>
<asrwt>0</asrwt>
<pdfrwt beam="1">  1        2 0.13952665E-01 0.26680689E+03</pdfrwt>
<pdfrwt beam="2">  1       -2 0.30189103E-01 0.26680689E+03</pdfrwt>
<totfact> 0.42666907E+03</totfact>
</mgrwt>
</event>
<event>
 9    1  0.8285222E-001  0.2779010E+03  0.7818608E-02  0.1096841E+00
          2   -1    0    0  501    0  0.00000000000E+00  0.00000000000E+00  0.14307535030E+03  0.14307535030E+03  0.00000000000E+00 0. -1.
         -2   -1    0    0    0  501 -0.00000000000E+00 -0.00000000000E+00 -0.13494461693E+03  0.13494461693E+03  0.00000000000E+00 0. -1.
         35    2    1    2    0    0 -0.14210854715E-13 -0.17763568394E-14  0.81307333643E+01  0.27801996723E+03  0.27790104957E+03 0.  0.
         25    2    3    3    0    0 -0.38752863931E+02 -0.82281174231E+01 -0.42860796145E+02  0.13799388419E+03  0.12504310396E+03 0.  0.
         25    2    3    3    0    0  0.38752863931E+02  0.82281174231E+01  0.50991529509E+02  0.14002608303E+03  0.12424846667E+03 0.  0.
          5    1    4    4  502    0  0.40514991868E+02 -0.31808958950E+01  0.10442545172E+02  0.42222262071E+02  0.47000000000E+01 0. -1.
         -5    1    4    4    0  502 -0.79267855799E+02 -0.50472215281E+01 -0.53303341316E+02  0.95771622121E+02  0.47000000000E+01 0. -1.
          5    1    5    5  503    0 -0.31768395784E+02 -0.30213233448E+02 -0.12279240644E+01  0.44109729580E+02  0.47000000000E+01 0.  1.
         -5    1    5    5    0  503  0.70521259715E+02  0.38441350871E+02  0.52219453573E+02  0.95916353455E+02  0.47000000000E+01 0.  1.
<mgrwt>
<rscale>  0 0.27790105E+03</rscale>
<asrwt>0</asrwt>
<pdfrwt beam="1">  1        2 0.22011592E-01 0.27790105E+03</pdfrwt>
<pdfrwt beam="2">  1       -2 0.20760710E-01 0.27790105E+03</pdfrwt>
<totfact> 0.48694267E+03</totfact>
</mgrwt>
</event>
<event>
 9    1  0.8285222E-001  0.2777813E+03  0.7818608E-02  0.1096907E+00
         -2   -1    0    0    0  501 -0.00000000000E+00  0.00000000000E+00  0.71626602916E+02  0.71626602916E+02  0.00000000000E+00 0.  1.
          2   -1    0    0  501    0  0.00000000000E+00 -0.00000000000E+00 -0.26932186295E+03  0.26932186295E+03  0.00000000000E+00 0.  1.
         35    2    1    2    0    0 -0.35527136788E-14  0.00000000000E+00 -0.19769526003E+03  0.34094846586E+03  0.27778128183E+03 0.  0.
         25    2    3    3    0    0  0.27435766004E+02  0.85651479670E+01 -0.33456601234E+02  0.13281318003E+03  0.12527535116E+03 0.  0.
         25    2    3    3    0    0 -0.27435766004E+02 -0.85651479670E+01 -0.16423865880E+03  0.20813528583E+03  0.12457879895E+03 0.  0.
          5    1    4    4  502    0  0.31042957877E+02 -0.23813988117E+02  0.37622453109E+02  0.54482201146E+02  0.47000000000E+01 0. -1.
         -5    1    4    4    0  502 -0.36071918733E+01  0.32379136084E+02 -0.71079054343E+02  0.78330978885E+02  0.47000000000E+01 0. -1.
          5    1    5    5  503    0 -0.16726511454E+02  0.43912323097E+02 -0.15066298326E+02  0.49569664619E+02  0.47000000000E+01 0.  1.
         -5    1    5    5    0  503 -0.10709254549E+02 -0.52477471064E+02 -0.14917236047E+03  0.15856562121E+03  0.47000000000E+01 0.  1.
<mgrwt>
<rscale>  0 0.27778128E+03</rscale>
<asrwt>0</asrwt>
<pdfrwt beam="1">  1        2 0.41434133E-01 0.27778128E+03</pdfrwt>
<pdfrwt beam="2">  1       -2 0.11019477E-01 0.27778128E+03</pdfrwt>
<totfact> 0.69316231E+03</totfact>
</mgrwt>
</event>
<event>
 9    1  0.8285222E-001  0.2795699E+03  0.7818608E-02  0.1095924E+00
         -2   -1    0    0    0  501 -0.00000000000E+00  0.00000000000E+00  0.13389293329E+03  0.13389293329E+03  0.00000000000E+00 0. -1.
          2   -1    0    0  501    0  0.00000000000E+00 -0.00000000000E+00 -0.14593624892E+03  0.14593624892E+03  0.00000000000E+00 0. -1.
         35    2    1    2    0    0  0.71054273576E-14  0.17763568394E-14 -0.12043315626E+02  0.27982918221E+03  0.27956990140E+03 0.  0.
         25    2    3    3    0    0 -0.45297182105E+02  0.75256435104E+01 -0.43770821782E+02  0.14382988968E+03  0.12908401260E+03 0.  0.
         25    2    3    3    0    0  0.45297182105E+02 -0.75256435104E+01  0.31727506156E+02  0.13599929253E+03  0.12401896188E+03 0.  0.
          5    1    4    4  502    0 -0.36357279142E+01 -0.11987947379E+02  0.43256696297E+02  0.45278705529E+02  0.47000000000E+01 0.  1.
         -5    1    4    4    0  502 -0.41661454191E+02  0.19513590890E+02 -0.87027518079E+02  0.98551184151E+02  0.47000000000E+01 0.  1.
          5    1    5    5  503    0  0.15288063040E+02 -0.37201985569E+02  0.68665449995E+02  0.79716664662E+02  0.47000000000E+01 0.  1.
         -5    1    5    5    0  503  0.30009119065E+02  0.29676342058E+02 -0.36937943839E+02  0.56282627871E+02  0.47000000000E+01 0.  1.
<mgrwt>
<rscale>  0 0.27956990E+03</rscale>
<asrwt>0</asrwt>
<pdfrwt beam="1">  1        2 0.22451731E-01 0.27956990E+03</pdfrwt>
<pdfrwt beam="2">  1       -2 0.20598913E-01 0.27956990E+03</pdfrwt>
<totfact> 0.48269599E+03</totfact>
</mgrwt>
</event>
<event>
 9    1  0.8285222E-001  0.2752784E+03  0.7818608E-02  0.1098296E+00
          1   -1    0    0  501    0  0.00000000000E+00  0.00000000000E+00  0.15641027392E+03  0.15641027392E+03  0.00000000000E+00 0. -1.
         -1   -1    0    0    0  501 -0.00000000000E+00 -0.00000000000E+00 -0.12112086019E+03  0.12112086019E+03  0.00000000000E+00 0. -1.
         35    2    1    2    0    0 -0.71054273576E-14 -0.14210854715E-13  0.35289413737E+02  0.27753113411E+03  0.27527838215E+03 0.  0.
         25    2    3    3    0    0  0.24844533916E+02  0.34379612215E+02  0.58363129371E+02  0.14409767110E+03  0.12473441924E+03 0.  0.
         25    2    3    3    0    0 -0.24844533916E+02 -0.34379612215E+02 -0.23073715634E+02  0.13343346301E+03  0.12439004822E+03 0.  0.
          5    1    4    4  502    0  0.12103745292E+01  0.12412510211E+02  0.94493753885E+02  0.95429004708E+02  0.47000000000E+01 0. -1.
         -5    1    4    4    0  502  0.23634159387E+02  0.21967102004E+02 -0.36130624514E+02  0.48668666390E+02  0.47000000000E+01 0. -1.
          5    1    5    5  503    0 -0.39061677001E+02 -0.65349696527E+02  0.19467545225E+02  0.78724029136E+02  0.47000000000E+01 0.  1.
         -5    1    5    5    0  503  0.14217143086E+02  0.30970084312E+02 -0.42541260859E+02  0.54709433879E+02  0.47000000000E+01 0.  1.
<mgrwt>
<rscale>  0 0.27527838E+03</rscale>
<asrwt>0</asrwt>
<pdfrwt beam="1">  1        1 0.24063119E-01 0.27527838E+03</pdfrwt>
<pdfrwt beam="2">  1       -1 0.18633978E-01 0.27527838E+03</pdfrwt>
<totfact> 0.45200892E+03</totfact>
</mgrwt>
</event>
<event>
 9    1  0.8285222E-001  0.2844533E+03  0.7818608E-02  0.1093281E+00
         -2   -1    0    0    0  501 -0.00000000000E+00  0.00000000000E+00  0.22786340120E+02  0.22786340120E+02  0.00000000000E+00 0. -1.
          2   -1    0    0  501    0  0.00000000000E+00 -0.00000000000E+00 -0.88774329895E+03  0.88774329895E+03  0.00000000000E+00 0. -1.
         35    2    1    2    0    0 -0.17763568394E-14  0.71054273576E-14 -0.86495695883E+03  0.91052963907E+03  0.28445330548E+03 0.  0.
         25    2    3    3    0    0 -0.74984819481E+01 -0.59862526313E+02 -0.52996141706E+03  0.54782053013E+03  0.12493390404E+03 0.  0.
         25    2    3    3    0    0  0.74984819481E+01  0.59862526313E+02 -0.33499554178E+03  0.36270910894E+03  0.12528421852E+03 0.  0.
          5    1    4    4  502    0  0.41817119711E+02 -0.75773783188E+02 -0.32542239917E+03  0.33676722762E+03  0.47000000000E+01 0.  1.
         -5    1    4    4    0  502 -0.49315601659E+02  0.15911256875E+02 -0.20453901789E+03  0.21105330251E+03  0.47000000000E+01 0.  1.
          5    1    5    5  503    0 -0.18531215645E+01  0.81914511373E+02 -0.11454651916E+03  0.14091279674E+03  0.47000000000E+01 0.  1.
         -5    1    5    5    0  503  0.93516035126E+01 -0.22051985059E+02 -0.22044902262E+03  0.22179631220E+03  0.47000000000E+01 0.  1.
<mgrwt>
<rscale>  0 0.28445331E+03</rscale>
<asrwt>0</asrwt>
<pdfrwt beam="1">  1        2 0.13657591E+00 0.28445331E+03</pdfrwt>
<pdfrwt beam="2">  1       -2 0.35055904E-02 0.28445331E+03</pdfrwt>
<totfact> 0.10362291E+04</totfact>
</mgrwt>
</event>
<event>
 9    1  0.8285222E-001  0.2578037E+03  0.7818608E-02  0.1108470E+00
          3   -1    0    0  501    0  0.00000000000E+00  0.00000000000E+00  0.71242102888E+03  0.71242102888E+03  0.00000000000E+00 0. -1.
         -3   -1    0    0    0  501 -0.00000000000E+00 -0.00000000000E+00 -0.23322840044E+02  0.23322840044E+02  0.00000000000E+00 0. -1.
         35    2    1    2    0    0 -0.35527136788E-14  0.00000000000E+00  0.68909818884E+03  0.73574386892E+03  0.25780365940E+03 0.  0.
         25    2    3    3    0    0  0.23338345745E+01 -0.23359939570E+02  0.38220043574E+03  0.40294442816E+03  0.12544283775E+03 0.  0.
         25    2    3    3    0    0 -0.23338345745E+01  0.23359939570E+02  0.30689775310E+03  0.33279944077E+03  0.12656264598E+03 0.  0.
          5    1    4    4  502    0 -0.17572108284E+02 -0.60205116644E+01  0.37457842241E+03  0.37506814059E+03  0.47000000000E+01 0.  1.
         -5    1    4    4    0  502  0.19905942858E+02 -0.17339427905E+02  0.76220133232E+01  0.27876287562E+02  0.47000000000E+01 0.  1.
          5    1    5    5  503    0  0.19329804530E+02 -0.39865455779E+02  0.48502885612E+02  0.65859819467E+02  0.47000000000E+01 0.  1.
         -5    1    5    5    0  503 -0.21663639105E+02  0.63225395348E+02  0.25839486749E+03  0.26693962130E+03  0.47000000000E+01 0.  1.
<mgrwt>
<rscale>  0 0.25780366E+03</rscale>
<asrwt>0</asrwt>
<pdfrwt beam="1">  1        3 0.10960322E+00 0.25780366E+03</pdfrwt>
<pdfrwt beam="2">  1       -3 0.35881298E-02 0.25780366E+03</pdfrwt>
<totfact> 0.71245890E+02</totfact>
</mgrwt>
</event>
<event>
 9    1  0.8285222E-001  0.2682842E+03  0.7818608E-02  0.1102266E+00
          2   -1    0    0  501    0  0.00000000000E+00  0.00000000000E+00  0.20681455550E+04  0.20681455550E+04  0.00000000000E+00 0. -1.
         -2   -1    0    0    0  501 -0.00000000000E+00 -0.00000000000E+00 -0.87005960902E+01  0.87005960902E+01  0.00000000000E+00 0. -1.
         35    2    1    2    0    0  0.00000000000E+00  0.00000000000E+00  0.20594449589E+04  0.20768461511E+04  0.26828417120E+03 0.  0.
         25    2    3    3    0    0  0.67289468518E+01  0.20023231908E+02  0.68587038950E+03  0.69745484787E+03  0.12481532389E+03 0.  0.
         25    2    3    3    0    0 -0.67289468518E+01 -0.20023231908E+02  0.13735745694E+04  0.13793913032E+04  0.12476802931E+03 0.  0.
          5    1    4    4  502    0 -0.12145635182E+02  0.32940672326E+02  0.66557753845E+03  0.66651943260E+03  0.47000000000E+01 0.  1.
         -5    1    4    4    0  502  0.18874582034E+02 -0.12917440418E+02  0.20292851054E+02  0.30935415268E+02  0.47000000000E+01 0.  1.
          5    1    5    5  503    0 -0.35906460960E+02 -0.69343741235E+01  0.12773719465E+04  0.12779039632E+04  0.47000000000E+01 0. -1.
         -5    1    5    5    0  503  0.29177514108E+02 -0.13088857785E+02  0.96202622846E+02  0.10148733995E+03  0.47000000000E+01 0. -1.
<mgrwt>
<rscale>  0 0.26828417E+03</rscale>
<asrwt>0</asrwt>
<pdfrwt beam="1">  1        2 0.31817585E+00 0.26828417E+03</pdfrwt>
<pdfrwt beam="2">  1       -2 0.13385549E-02 0.26828417E+03</pdfrwt>
<totfact> 0.95290825E+03</totfact>
</mgrwt>
</event>
<event>
 9    1  0.8285222E-001  0.2749109E+03  0.7818608E-02  0.1098501E+00
         -2   -1    0    0    0  501 -0.00000000000E+00  0.00000000000E+00  0.10053527807E+02  0.10053527807E+02  0.00000000000E+00 0. -1.
          2   -1    0    0  501    0  0.00000000000E+00 -0.00000000000E+00 -0.18793409222E+04  0.18793409222E+04  0.00000000000E+00 0. -1.
         35    2    1    2    0    0  0.35527136788E-14  0.71054273576E-14 -0.18692873944E+04  0.18893944501E+04  0.27491093990E+03 0.  0.
         25    2    3    3    0    0  0.13368202669E+02 -0.34276897921E+02 -0.63905284649E+03  0.65220174532E+03  0.12499984565E+03 0.  0.
         25    2    3    3    0    0 -0.13368202669E+02  0.34276897921E+02 -0.12302345479E+04  0.12371927047E+04  0.12575822483E+03 0.  0.
          5    1    4    4  502    0 -0.26261784067E+01 -0.80540501177E+02 -0.42159992907E+03  0.42925780055E+03  0.47000000000E+01 0. -1.
         -5    1    4    4    0  502  0.15994381075E+02  0.46263603256E+02 -0.21745291742E+03  0.22294394477E+03  0.47000000000E+01 0. -1.
          5    1    5    5  503    0 -0.33654054190E+02  0.47902492630E+02 -0.25640891061E+03  0.26304916575E+03  0.47000000000E+01 0.  1.
         -5    1    5    5    0  503  0.20285851521E+02 -0.13625594709E+02 -0.97382563734E+03  0.97414353898E+03  0.47000000000E+01 0.  1.
<mgrwt>
<rscale>  0 0.27491094E+03</rscale>
<asrwt>0</asrwt>
<pdfrwt beam="1">  1        2 0.28912948E+00 0.27491094E+03</pdfrwt>
<pdfrwt beam="2">  1       -2 0.15466960E-02 0.27491094E+03</pdfrwt>
<totfact> 0.96981728E+03</totfact>
</mgrwt>
</event>
<event>
 9    1  0.8285222E-001  0.2758732E+03  0.7818608E-02  0.1097964E+00
          1   -1    0    0  501    0  0.00000000000E+00  0.00000000000E+00  0.10610674287E+04  0.10610674287E+04  0.00000000000E+00 0.  1.
         -1   -1    0    0    0  501 -0.00000000000E+00 -0.00000000000E+00 -0.17931477976E+02  0.17931477976E+02  0.00000000000E+00 0.  1.
         35    2    1    2    0    0  0.17763568394E-14  0.71054273576E-14  0.10431359507E+04  0.10789989067E+04  0.27587321166E+03 0.  0.
         25    2    3    3    0    0  0.22517981903E+01 -0.55933883607E+02  0.45852526812E+03  0.47858143648E+03  0.12514431635E+03 0.  0.
         25    2    3    3    0    0 -0.22517981903E+01  0.55933883607E+02  0.58461068262E+03  0.60041747021E+03  0.12489122613E+03 0.  0.
          5    1    4    4  502    0  0.16669984978E+02 -0.80219289239E+02  0.17142385325E+03  0.19005591343E+03  0.47000000000E+01 0.  1.
         -5    1    4    4    0  502 -0.14418186788E+02  0.24285405632E+02  0.28710141486E+03  0.28852552305E+03  0.47000000000E+01 0.  1.
          5    1    5    5  503    0  0.30950566171E+02  0.39550131799E+02  0.53957306644E+03  0.54192558023E+03  0.47000000000E+01 0.  1.
         -5    1    5    5    0  503 -0.33202364361E+02  0.16383751808E+02  0.45037616177E+02  0.58491889979E+02  0.47000000000E+01 0.  1.
<mgrwt>
<rscale>  0 0.27587321E+03</rscale>
<asrwt>0</asrwt>
<pdfrwt beam="1">  1        1 0.16324109E+00 0.27587321E+03</pdfrwt>
<pdfrwt beam="2">  1       -1 0.27586898E-02 0.27587321E+03</pdfrwt>
<totfact> 0.61485639E+03</totfact>
</mgrwt>
</event>
<event>
 9    1  0.8285222E-001  0.2778462E+03  0.7818608E-02  0.1096871E+00
          2   -1    0    0  501    0  0.00000000000E+00  0.00000000000E+00  0.22889598972E+02  0.22889598972E+02  0.00000000000E+00 0.  1.
         -2   -1    0    0    0  501 -0.00000000000E+00 -0.00000000000E+00 -0.84316128295E+03  0.84316128295E+03  0.00000000000E+00 0.  1.
         35    2    1    2    0    0 -0.71054273576E-14  0.00000000000E+00 -0.82027168398E+03  0.86605088192E+03  0.27784617065E+03 0.  0.
         25    2    3    3    0    0 -0.46742581393E+02  0.35496651070E+02 -0.44357069318E+03  0.46481743402E+03  0.12591825112E+03 0.  0.
         25    2    3    3    0    0  0.46742581393E+02 -0.35496651070E+02 -0.37670099080E+03  0.40123344790E+03  0.12505903445E+03 0.  0.
          5    1    4    4  502    0 -0.14507196964E+02  0.16636024107E+02 -0.41956626936E+03  0.42017277452E+03  0.47000000000E+01 0.  1.
         -5    1    4    4    0  502 -0.32235384429E+02  0.18860626963E+02 -0.24004423815E+02  0.44644659495E+02  0.47000000000E+01 0.  1.
          5    1    5    5  503    0  0.30831191860E+02 -0.68284967144E+02 -0.34383050102E+03  0.35193025241E+03  0.47000000000E+01 0. -1.
         -5    1    5    5    0  503  0.15911389533E+02  0.32788316075E+02 -0.32870489781E+02  0.49303195498E+02  0.47000000000E+01 0. -1.
<mgrwt>
<rscale>  0 0.27784617E+03</rscale>
<asrwt>0</asrwt>
<pdfrwt beam="1">  1        2 0.35214772E-02 0.27784617E+03</pdfrwt>
<pdfrwt beam="2">  1       -2 0.12971710E+00 0.27784617E+03</pdfrwt>
<totfact> 0.11548889E+03</totfact>
</mgrwt>
</event>
<event>
 9    1  0.8285222E-001  0.2748979E+03  0.7818608E-02  0.1098509E+00
          2   -1    0    0  501    0  0.00000000000E+00  0.00000000000E+00  0.38351249253E+03  0.38351249253E+03  0.00000000000E+00 0. -1.
         -2   -1    0    0    0  501 -0.00000000000E+00 -0.00000000000E+00 -0.49260998126E+02  0.49260998126E+02  0.00000000000E+00 0. -1.
         35    2    1    2    0    0  0.14210854715E-13 -0.35527136788E-14  0.33425149440E+03  0.43277349065E+03  0.27489785867E+03 0.  0.
         25    2    3    3    0    0 -0.53472136662E+02  0.16620864683E+02  0.14187041183E+03  0.19657745068E+03  0.12401595792E+03 0.  0.
         25    2    3    3    0    0  0.53472136662E+02 -0.16620864683E+02  0.19238108257E+03  0.23619603998E+03  0.12507024357E+03 0.  0.
          5    1    4    4  502    0  0.28712426405E+02 -0.21033023896E+02  0.11185055290E+02  0.37603018311E+02  0.47000000000E+01 0. -1.
         -5    1    4    4    0  502 -0.82184563067E+02  0.37653888579E+02  0.13068535654E+03  0.15897443237E+03  0.47000000000E+01 0. -1.
          5    1    5    5  503    0 -0.12396983852E+02  0.38096823797E+01 -0.13329272781E+02  0.19182241822E+02  0.47000000000E+01 0. -1.
         -5    1    5    5    0  503  0.65869120514E+02 -0.20430547063E+02  0.20571035535E+03  0.21701379815E+03  0.47000000000E+01 0. -1.
<mgrwt>
<rscale>  0 0.27489786E+03</rscale>
<asrwt>0</asrwt>
<pdfrwt beam="1">  1        2 0.59001920E-01 0.27489786E+03</pdfrwt>
<pdfrwt beam="2">  1       -2 0.75786153E-02 0.27489786E+03</pdfrwt>
<totfact> 0.85475386E+03</totfact>
</mgrwt>
</event>
<event>
 9    1  0.8285222E-001  0.2680253E+03  0.7818608E-02  0.1102415E+00
          2   -1    0    0  501    0  0.00000000000E+00  0.00000000000E+00  0.99491418396E+03  0.99491418396E+03  0.00000000000E+00 0. -1.
         -2   -1    0    0    0  501 -0.00000000000E+00 -0.00000000000E+00 -0.18051200059E+02  0.18051200059E+02  0.00000000000E+00 0. -1.
         35    2    1    2    0    0  0.35527136788E-14  0.71054273576E-14  0.97686298390E+03  0.10129653840E+04  0.26802533445E+03 0.  0.
         25    2    3    3    0    0 -0.25828856085E+02 -0.27463664898E+02  0.37066674105E+03  0.39283012156E+03  0.12450015576E+03 0.  0.
         25    2    3    3    0    0  0.25828856085E+02  0.27463664898E+02  0.60619624285E+03  0.62013526246E+03  0.12518976080E+03 0.  0.
          5    1    4    4  502    0  0.29617584794E+02  0.25612455505E+02  0.53442604948E+02  0.66418380210E+02  0.47000000000E+01 0.  1.
         -5    1    4    4    0  502 -0.55446440878E+02 -0.53076120403E+02  0.31722413611E+03  0.32641174135E+03  0.47000000000E+01 0.  1.
          5    1    5    5  503    0  0.23003377315E+02  0.73773288497E+02  0.46598423419E+03  0.47237172859E+03  0.47000000000E+01 0.  1.
         -5    1    5    5    0  503  0.28254787692E+01 -0.46309623599E+02  0.14021200866E+03  0.14776353387E+03  0.47000000000E+01 0.  1.
<mgrwt>
<rscale>  0 0.26802533E+03</rscale>
<asrwt>0</asrwt>
<pdfrwt beam="1">  1        2 0.15306368E+00 0.26802533E+03</pdfrwt>
<pdfrwt beam="2">  1       -2 0.27771085E-02 0.26802533E+03</pdfrwt>
<totfact> 0.12523687E+04</totfact>
</mgrwt>
</event>
<event>
 9    1  0.8285222E-001  0.2706915E+03  0.7818608E-02  0.1100885E+00
         -2   -1    0    0    0  501 -0.00000000000E+00  0.00000000000E+00  0.88228100494E+01  0.88228100494E+01  0.00000000000E+00 0. -1.
          2   -1    0    0  501    0  0.00000000000E+00 -0.00000000000E+00 -0.20762622203E+04  0.20762622203E+04  0.00000000000E+00 0. -1.
         35    2    1    2    0    0  0.71054273576E-14  0.00000000000E+00 -0.20674394102E+04  0.20850850303E+04  0.27069146409E+03 0.  0.
         25    2    3    3    0    0 -0.38250288115E+02  0.11149538057E+02 -0.77685648453E+03  0.78793497718E+03  0.12549156931E+03 0.  0.
         25    2    3    3    0    0  0.38250288115E+02 -0.11149538057E+02 -0.12905829257E+04  0.12971500532E+04  0.12412322722E+03 0.  0.
          5    1    4    4  502    0  0.44150561945E+01 -0.39584856977E+02 -0.98807433804E+02  0.10663701326E+03  0.47000000000E+01 0.  1.
         -5    1    4    4    0  502 -0.42665344310E+02  0.50734395035E+02 -0.67804905073E+03  0.68129796392E+03  0.47000000000E+01 0.  1.
          5    1    5    5  503    0  0.64670716160E+02  0.22246042093E+02 -0.42374695091E+03  0.42925604984E+03  0.47000000000E+01 0.  1.
         -5    1    5    5    0  503 -0.26420428045E+02 -0.33395580151E+02 -0.86683597480E+03  0.86789400332E+03  0.47000000000E+01 0.  1.
<mgrwt>
<rscale>  0 0.27069146E+03</rscale>
<asrwt>0</asrwt>
<pdfrwt beam="1">  1        2 0.31942494E+00 0.27069146E+03</pdfrwt>
<pdfrwt beam="2">  1       -2 0.13573555E-02 0.27069146E+03</pdfrwt>
<totfact> 0.92462786E+03</totfact>
</mgrwt>
</event>
<event>
 9    1  0.8285222E-001  0.2679719E+03  0.7818608E-02  0.1102446E+00
          1   -1    0    0  501    0  0.00000000000E+00  0.00000000000E+00  0.16414631103E+04  0.16414631103E+04  0.00000000000E+00 0. -1.
         -1   -1    0    0    0  501 -0.00000000000E+00 -0.00000000000E+00 -0.10936723867E+02  0.10936723867E+02  0.00000000000E+00 0. -1.
         35    2    1    2    0    0  0.00000000000E+00  0.00000000000E+00  0.16305263864E+04  0.16523998341E+04  0.26797185505E+03 0.  0.
         25    2    3    3    0    0  0.44671831986E+00  0.37187690024E+02  0.99503088330E+03  0.10036824570E+04  0.12613045601E+03 0.  0.
         25    2    3    3    0    0 -0.44671831986E+00 -0.37187690024E+02  0.63549550309E+03  0.64871737712E+03  0.12488625657E+03 0.  0.
          5    1    4    4  502    0 -0.33845462377E+02  0.63772947495E+02  0.36261640578E+03  0.36976377851E+03  0.47000000000E+01 0.  1.
         -5    1    4    4    0  502  0.34292180697E+02 -0.26585257471E+02  0.63241447752E+03  0.63391867850E+03  0.47000000000E+01 0.  1.
          5    1    5    5  503    0 -0.19497140082E+02  0.13964271749E+01  0.11378061518E+02  0.23100622592E+02  0.47000000000E+01 0. -1.
         -5    1    5    5    0  503  0.19050421762E+02 -0.38584117199E+02  0.62411744157E+03  0.62561675453E+03  0.47000000000E+01 0. -1.
<mgrwt>
<rscale>  0 0.26797186E+03</rscale>
<asrwt>0</asrwt>
<pdfrwt beam="1">  1        1 0.25253259E+00 0.26797186E+03</pdfrwt>
<pdfrwt beam="2">  1       -1 0.16825742E-02 0.26797186E+03</pdfrwt>
<totfact> 0.50957488E+03</totfact>
</mgrwt>
</event>
<event>
 9    1  0.8285222E-001  0.2780153E+03  0.7818608E-02  0.1096778E+00
          1   -1    0    0  501    0  0.00000000000E+00  0.00000000000E+00  0.64130988473E+03  0.64130988473E+03  0.00000000000E+00 0.  1.
         -1   -1    0    0    0  501 -0.00000000000E+00 -0.00000000000E+00 -0.30130723121E+02  0.30130723121E+02  0.00000000000E+00 0.  1.
         35    2    1    2    0    0  0.00000000000E+00 -0.35527136788E-14  0.61117916160E+03  0.67144060785E+03  0.27801532743E+03 0.  0.
         25    2    3    3    0    0 -0.36308011130E+02  0.42781827398E+01  0.42298318884E+03  0.44264761292E+03  0.12524199240E+03 0.  0.
         25    2    3    3    0    0  0.36308011130E+02 -0.42781827398E+01  0.18819597277E+03  0.22879299493E+03  0.12486767333E+03 0.  0.
          5    1    4    4  502    0  0.10717621947E+00 -0.15706529750E+02 -0.11724870316E+01  0.16436888068E+02  0.47000000000E+01 0. -1.
         -5    1    4    4    0  502 -0.36415187349E+02  0.19984712490E+02  0.42415567587E+03  0.42621072485E+03  0.47000000000E+01 0. -1.
          5    1    5    5  503    0  0.34654205522E+00 -0.34996483215E+02  0.17629586148E+03  0.17979764933E+03  0.47000000000E+01 0.  1.
         -5    1    5    5    0  503  0.35961469074E+02  0.30718300475E+02  0.11900111286E+02  0.48995345602E+02  0.47000000000E+01 0.  1.
<mgrwt>
<rscale>  0 0.27801533E+03</rscale>
<asrwt>0</asrwt>
<pdfrwt beam="1">  1        1 0.98663049E-01 0.27801533E+03</pdfrwt>
<pdfrwt beam="2">  1       -1 0.46354963E-02 0.27801533E+03</pdfrwt>
<totfact> 0.62943464E+03</totfact>
</mgrwt>
</event>
<event>
 9    1  0.8285222E-001  0.2745717E+03  0.7818608E-02  0.1098691E+00
          3   -1    0    0  501    0  0.00000000000E+00  0.00000000000E+00  0.28557070830E+02  0.28557070830E+02  0.00000000000E+00 0.  1.
         -3   -1    0    0    0  501 -0.00000000000E+00 -0.00000000000E+00 -0.65999099346E+03  0.65999099346E+03  0.00000000000E+00 0.  1.
         35    2    1    2    0    0  0.71054273576E-14 -0.71054273576E-14 -0.63143392263E+03  0.68854806429E+03  0.27457173596E+03 0.  0.
         25    2    3    3    0    0 -0.45766862906E+02  0.26160172739E+02 -0.33789964887E+03  0.36495370142E+03  0.12742084245E+03 0.  0.
         25    2    3    3    0    0  0.45766862906E+02 -0.26160172739E+02 -0.29353427376E+03  0.32359436288E+03  0.12558654958E+03 0.  0.
          5    1    4    4  502    0  0.11236798854E+02  0.66095536414E+02 -0.18696959229E+03  0.19868216835E+03  0.47000000000E+01 0.  1.
         -5    1    4    4    0  502 -0.57003661759E+02 -0.39935363674E+02 -0.15093005659E+03  0.16627153306E+03  0.47000000000E+01 0.  1.
          5    1    5    5  503    0  0.10132338489E+02 -0.54333270673E+02 -0.46521937600E+02  0.72395782082E+02  0.47000000000E+01 0.  1.
         -5    1    5    5    0  503  0.35634524416E+02  0.28173097934E+02 -0.24701233616E+03  0.25119858079E+03  0.47000000000E+01 0.  1.
<mgrwt>
<rscale>  0 0.27457174E+03</rscale>
<asrwt>0</asrwt>
<pdfrwt beam="1">  1        3 0.43933954E-02 0.27457174E+03</pdfrwt>
<pdfrwt beam="2">  1       -3 0.10153708E+00 0.27457174E+03</pdfrwt>
<totfact> 0.62070641E+02</totfact>
</mgrwt>
</event>
<event>
 9    1  0.8285222E-001  0.2737176E+03  0.7818608E-02  0.1099171E+00
          2   -1    0    0  501    0  0.00000000000E+00  0.00000000000E+00  0.73441677137E+03  0.73441677137E+03  0.00000000000E+00 0.  1.
         -2   -1    0    0    0  501 -0.00000000000E+00 -0.00000000000E+00 -0.25503684695E+02  0.25503684695E+02  0.00000000000E+00 0.  1.
         35    2    1    2    0    0  0.71054273576E-14  0.00000000000E+00  0.70891308668E+03  0.75992045607E+03  0.27371761925E+03 0.  0.
         25    2    3    3    0    0 -0.35191620442E+02 -0.31219388316E+02  0.29515611300E+03  0.32579053420E+03  0.12965045614E+03 0.  0.
         25    2    3    3    0    0  0.35191620442E+02  0.31219388316E+02  0.41375697368E+03  0.43412992187E+03  0.12272267695E+03 0.  0.
          5    1    4    4  502    0  0.34378426904E+02 -0.15016033250E+02  0.22727254657E+02  0.44113213386E+02  0.47000000000E+01 0. -1.
         -5    1    4    4    0  502 -0.69570047347E+02 -0.16203355065E+02  0.27242885834E+03  0.28167732081E+03  0.47000000000E+01 0. -1.
          5    1    5    5  503    0 -0.11669526926E+02  0.85404282421E+01 -0.17878934954E+01  0.15310236327E+02  0.47000000000E+01 0.  1.
         -5    1    5    5    0  503  0.46861147368E+02  0.22678960074E+02  0.41554486718E+03  0.41881968554E+03  0.47000000000E+01 0.  1.
<mgrwt>
<rscale>  0 0.27371762E+03</rscale>
<asrwt>0</asrwt>
<pdfrwt beam="1">  1        2 0.11298718E+00 0.27371762E+03</pdfrwt>
<pdfrwt beam="2">  1       -2 0.39236444E-02 0.27371762E+03</pdfrwt>
<totfact> 0.11139697E+04</totfact>
</mgrwt>
</event>
<event>
 8    1  0.8285222E-001  0.3502776E+03  0.7818608E-02  0.1062501E+00
         -1   -1    0    0    0  501 -0.00000000000E+00  0.00000000000E+00  0.33209772894E+02  0.33209772894E+02  0.00000000000E+00 0.  1.
          1   -1    0    0  501    0  0.00000000000E+00 -0.00000000000E+00 -0.92363153393E+03  0.92363153393E+03  0.00000000000E+00 0.  1.
         25    2    1    2    0    0 -0.45814116656E+02  0.79851941408E+02 -0.22446574600E+03  0.27322804746E+03  0.12567190998E+03 0.  0.
         25    2    1    2    0    0  0.45814116656E+02 -0.79851941408E+02 -0.66595601503E+03  0.68361325936E+03  0.12391290727E+03 0.  0.
          5    1    3    3  502    0  0.42089424551E+02  0.10335046347E+02 -0.64898468806E+02  0.78180778298E+02  0.47000000000E+01 0.  1.
         -5    1    3    3    0  502 -0.87903541206E+02  0.69516895061E+02 -0.15956727720E+03  0.19504726916E+03  0.47000000000E+01 0.  1.
          5    1    4    4  503    0  0.50465444110E+02 -0.16866471830E+02 -0.53996182887E+03  0.54259755395E+03  0.47000000000E+01 0.  1.
         -5    1    4    4    0  503 -0.46513274547E+01 -0.62985469578E+02 -0.12599418617E+03  0.14101570541E+03  0.47000000000E+01 0.  1.
<mgrwt>
<rscale>  0 0.35027757E+03</rscale>
<asrwt>0</asrwt>
<pdfrwt beam="1">  1        1 0.14209717E+00 0.35027757E+03</pdfrwt>
<pdfrwt beam="2">  1       -1 0.51091955E-02 0.35027757E+03</pdfrwt>
<totfact> 0.31259806E+03</totfact>
</mgrwt>
</event>
<event>
 9    1  0.8285222E-001  0.2738035E+03  0.7818608E-02  0.1099122E+00
          3   -1    0    0  501    0  0.00000000000E+00  0.00000000000E+00  0.15099218005E+03  0.15099218005E+03  0.00000000000E+00 0.  1.
         -3   -1    0    0    0  501 -0.00000000000E+00 -0.00000000000E+00 -0.12412623992E+03  0.12412623992E+03  0.00000000000E+00 0.  1.
         35    2    1    2    0    0  0.35527136788E-14 -0.26645352591E-14  0.26865940131E+02  0.27511841996E+03  0.27380351763E+03 0.  0.
         25    2    3    3    0    0 -0.30956056694E+02 -0.67995712576E+00  0.57643463548E+02  0.14250882196E+03  0.12659879802E+03 0.  0.
         25    2    3    3    0    0  0.30956056694E+02  0.67995712576E+00 -0.30777523417E+02  0.13260959800E+03  0.12521705054E+03 0.  0.
          5    1    4    4  502    0 -0.43435491292E+02 -0.53801378787E+02  0.53554906622E+02  0.87586804294E+02  0.47000000000E+01 0. -1.
         -5    1    4    4    0  502  0.12479434598E+02  0.53121421661E+02  0.40885569259E+01  0.54922017670E+02  0.47000000000E+01 0. -1.
          5    1    5    5  503    0  0.59221849539E+02 -0.33961570178E+01 -0.64776910959E+02  0.87959647218E+02  0.47000000000E+01 0. -1.
         -5    1    5    5    0  503 -0.28265792844E+02  0.40761141435E+01  0.33999387542E+02  0.44649950783E+02  0.47000000000E+01 0. -1.
<mgrwt>
<rscale>  0 0.27380352E+03</rscale>
<asrwt>0</asrwt>
<pdfrwt beam="1">  1        3 0.23229566E-01 0.27380352E+03</pdfrwt>
<pdfrwt beam="2">  1       -3 0.19096345E-01 0.27380352E+03</pdfrwt>
<totfact> 0.10628796E+03</totfact>
</mgrwt>
</event>
<event>
 9    1  0.8285222E-001  0.2765313E+03  0.7818608E-02  0.1097599E+00
          1   -1    0    0  501    0  0.00000000000E+00  0.00000000000E+00  0.19790118507E+03  0.19790118507E+03  0.00000000000E+00 0.  1.
         -1   -1    0    0    0  501 -0.00000000000E+00 -0.00000000000E+00 -0.96600669435E+02  0.96600669435E+02  0.00000000000E+00 0.  1.
         35    2    1    2    0    0  0.00000000000E+00 -0.71054273576E-14  0.10130051563E+03  0.29450185450E+03  0.27653127823E+03 0.  0.
         25    2    3    3    0    0  0.43520437525E+02  0.30875351983E+02  0.78981983777E+02  0.15682759662E+03  0.12453684377E+03 0.  0.
         25    2    3    3    0    0 -0.43520437525E+02 -0.30875351983E+02  0.22318531856E+02  0.13767425789E+03  0.12493505744E+03 0.  0.
          5    1    4    4  502    0  0.77718619672E+02  0.47976684563E+02  0.74664695719E+02  0.11806291921E+03  0.47000000000E+01 0.  1.
         -5    1    4    4    0  502 -0.34198182148E+02 -0.17101332580E+02  0.43172880576E+01  0.38764677406E+02  0.47000000000E+01 0.  1.
          5    1    5    5  503    0 -0.43024020924E+02 -0.77525551324E+02  0.17927169573E+02  0.90580080003E+02  0.47000000000E+01 0.  1.
         -5    1    5    5    0  503 -0.49641660102E+00  0.46650199340E+02  0.43913622825E+01  0.47094177885E+02  0.47000000000E+01 0.  1.
<mgrwt>
<rscale>  0 0.27653128E+03</rscale>
<asrwt>0</asrwt>
<pdfrwt beam="1">  1        1 0.30446336E-01 0.27653128E+03</pdfrwt>
<pdfrwt beam="2">  1       -1 0.14861642E-01 0.27653128E+03</pdfrwt>
<totfact> 0.48175158E+03</totfact>
</mgrwt>
</event>
<event>
 9    1  0.8285222E-001  0.2897871E+03  0.7818608E-02  0.1090460E+00
         -2   -1    0    0    0  501 -0.00000000000E+00  0.00000000000E+00  0.17735405928E+02  0.17735405928E+02  0.00000000000E+00 0. -1.
          2   -1    0    0  501    0  0.00000000000E+00 -0.00000000000E+00 -0.11837418765E+04  0.11837418765E+04  0.00000000000E+00 0. -1.
         35    2    1    2    0    0 -0.35527136788E-14 -0.71054273576E-14 -0.11660064706E+04  0.12014772825E+04  0.28978711286E+03 0.  0.
         25    2    3    3    0    0  0.12054799963E+02 -0.28300705545E+02 -0.30504117492E+03  0.33092812432E+03  0.12456747945E+03 0.  0.
         25    2    3    3    0    0 -0.12054799963E+02  0.28300705545E+02 -0.86096529569E+03  0.87054915814E+03  0.12509335803E+03 0.  0.
          5    1    4    4  502    0  0.34269490974E+02  0.32862073821E+02 -0.21193373875E+03  0.21723791917E+03  0.47000000000E+01 0.  1.
         -5    1    4    4    0  502 -0.22214691011E+02 -0.61162779366E+02 -0.93107436171E+02  0.11369020515E+03  0.47000000000E+01 0.  1.
          5    1    5    5  503    0 -0.28278372618E+02  0.56137514999E+02 -0.22255607938E+03  0.23131014983E+03  0.47000000000E+01 0.  1.
         -5    1    5    5    0  503  0.16223572655E+02 -0.27836809454E+02 -0.63840921631E+03  0.63923900831E+03  0.47000000000E+01 0.  1.
<mgrwt>
<rscale>  0 0.28978711E+03</rscale>
<asrwt>0</asrwt>
<pdfrwt beam="1">  1        2 0.18211419E+00 0.28978711E+03</pdfrwt>
<pdfrwt beam="2">  1       -2 0.27285231E-02 0.28978711E+03</pdfrwt>
<totfact> 0.99650225E+03</totfact>
</mgrwt>
</event>
<event>
 9    1  0.8285222E-001  0.2775446E+03  0.7818608E-02  0.1097038E+00
          2   -1    0    0  501    0  0.00000000000E+00  0.00000000000E+00  0.27746124407E+03  0.27746124407E+03  0.00000000000E+00 0.  1.
         -2   -1    0    0    0  501 -0.00000000000E+00 -0.00000000000E+00 -0.69407002408E+02  0.69407002408E+02  0.00000000000E+00 0.  1.
         35    2    1    2    0    0  0.71054273576E-14 -0.71054273576E-14  0.20805424166E+03  0.34686824648E+03  0.27754461433E+03 0.  0.
         25    2    3    3    0    0 -0.54663500355E+02 -0.23250366673E+02  0.93180533067E+02  0.16708780362E+03  0.12532774854E+03 0.  0.
         25    2    3    3    0    0  0.54663500355E+02  0.23250366673E+02  0.11487370859E+03  0.17978044286E+03  0.12488539101E+03 0.  0.
          5    1    4    4  502    0 -0.72292581462E+02  0.20267803707E+02  0.93363754760E+02  0.11989946582E+03  0.47000000000E+01 0. -1.
         -5    1    4    4    0  502  0.17629081106E+02 -0.43518170380E+02 -0.18322169235E+00  0.47188337797E+02  0.47000000000E+01 0. -1.
          5    1    5    5  503    0 -0.36714648276E+02  0.19228749738E+02  0.15140368713E+02  0.44373764538E+02  0.47000000000E+01 0. -1.
         -5    1    5    5    0  503  0.91378148631E+02  0.40216169352E+01  0.99733339882E+02  0.13540667832E+03  0.47000000000E+01 0. -1.
<mgrwt>
<rscale>  0 0.27754461E+03</rscale>
<asrwt>0</asrwt>
<pdfrwt beam="1">  1        2 0.42686345E-01 0.27754461E+03</pdfrwt>
<pdfrwt beam="2">  1       -2 0.10678001E-01 0.27754461E+03</pdfrwt>
<totfact> 0.70596526E+03</totfact>
</mgrwt>
</event>
<event>
 9    1  0.8285222E-001  0.2857416E+03  0.7818608E-02  0.1092594E+00
         -2   -1    0    0    0  501 -0.00000000000E+00  0.00000000000E+00  0.12593448926E+02  0.12593448926E+02  0.00000000000E+00 0.  1.
          2   -1    0    0  501    0  0.00000000000E+00 -0.00000000000E+00 -0.16208476931E+04  0.16208476931E+04  0.00000000000E+00 0.  1.
         35    2    1    2    0    0 -0.14210854715E-13  0.00000000000E+00 -0.16082542441E+04  0.16334411420E+04  0.28574158003E+03 0.  0.
         25    2    3    3    0    0  0.59642961435E+02 -0.27033476545E+02 -0.71771011489E+03  0.73170960996E+03  0.12650317223E+03 0.  0.
         25    2    3    3    0    0 -0.59642961435E+02  0.27033476545E+02 -0.89054412925E+03  0.90173153204E+03  0.12555006182E+03 0.  0.
          5    1    4    4  502    0 -0.28432214706E+02  0.25533588941E+02 -0.24209276561E+03  0.24513537516E+03  0.47000000000E+01 0.  1.
         -5    1    4    4    0  502  0.88075176141E+02 -0.52567065487E+02 -0.47561734929E+03  0.48657423480E+03  0.47000000000E+01 0.  1.
          5    1    5    5  503    0 -0.87328601471E+02  0.53605827954E+02 -0.67455513302E+03  0.68230974411E+03  0.47000000000E+01 0.  1.
         -5    1    5    5    0  503  0.27685640035E+02 -0.26572351409E+02 -0.21598899624E+03  0.21942178793E+03  0.47000000000E+01 0.  1.
<mgrwt>
<rscale>  0 0.28574158E+03</rscale>
<asrwt>0</asrwt>
<pdfrwt beam="1">  1        2 0.24936131E+00 0.28574158E+03</pdfrwt>
<pdfrwt beam="2">  1       -2 0.19374527E-02 0.28574158E+03</pdfrwt>
<totfact> 0.95377430E+03</totfact>
</mgrwt>
</event>
<event>
 9    1  0.8285222E-001  0.2726562E+03  0.7818608E-02  0.1099769E+00
         -1   -1    0    0    0  501 -0.00000000000E+00  0.00000000000E+00  0.38086849015E+02  0.38086849015E+02  0.00000000000E+00 0. -1.
          1   -1    0    0  501    0  0.00000000000E+00 -0.00000000000E+00 -0.48797277304E+03  0.48797277304E+03  0.00000000000E+00 0. -1.
         35    2    1    2    0    0 -0.71054273576E-14  0.00000000000E+00 -0.44988592403E+03  0.52605962206E+03  0.27265615951E+03 0.  0.
         25    2    3    3    0    0  0.15274448123E+02  0.47301213082E+02 -0.18116014859E+03  0.22568441170E+03  0.12507494042E+03 0.  0.
         25    2    3    3    0    0 -0.15274448123E+02 -0.47301213082E+02 -0.26872577544E+03  0.30037521036E+03  0.12466359168E+03 0.  0.
          5    1    4    4  502    0  0.70424594575E+02  0.26804720291E+02 -0.10519840663E+03  0.12948710866E+03  0.47000000000E+01 0. -1.
         -5    1    4    4    0  502 -0.55150146453E+02  0.20496492791E+02 -0.75961741960E+02  0.96197303039E+02  0.47000000000E+01 0. -1.
          5    1    5    5  503    0  0.49272859234E+02  0.57858709980E+01 -0.11510499510E+03  0.12542942580E+03  0.47000000000E+01 0. -1.
         -5    1    5    5    0  503 -0.64547307356E+02 -0.53087084080E+02 -0.15362078034E+03  0.17494578456E+03  0.47000000000E+01 0. -1.
<mgrwt>
<rscale>  0 0.27265616E+03</rscale>
<asrwt>0</asrwt>
<pdfrwt beam="1">  1        1 0.75072732E-01 0.27265616E+03</pdfrwt>
<pdfrwt beam="2">  1       -1 0.58595154E-02 0.27265616E+03</pdfrwt>
<totfact> 0.64272201E+03</totfact>
</mgrwt>
</event>
<event>
 9    1  0.8285222E-001  0.2728093E+03  0.7818608E-02  0.1099682E+00
          1   -1    0    0  501    0  0.00000000000E+00  0.00000000000E+00  0.18730370458E+03  0.18730370458E+03  0.00000000000E+00 0. -1.
         -1   -1    0    0    0  501 -0.00000000000E+00 -0.00000000000E+00 -0.99337210284E+02  0.99337210284E+02  0.00000000000E+00 0. -1.
         35    2    1    2    0    0  0.00000000000E+00  0.00000000000E+00  0.87966494296E+02  0.28664091486E+03  0.27280929228E+03 0.  0.
         25    2    3    3    0    0  0.26885319232E+01 -0.19368816729E+02 -0.92005832197E+01  0.12616175537E+03  0.12429705757E+03 0.  0.
         25    2    3    3    0    0 -0.26885319232E+01  0.19368816729E+02  0.97167077515E+02  0.16047915949E+03  0.12621307544E+03 0.  0.
          5    1    4    4  502    0  0.44901767334E+02  0.33142437405E+02 -0.16092795825E+02  0.58272274234E+02  0.47000000000E+01 0. -1.
         -5    1    4    4    0  502 -0.42213235411E+02 -0.52511254135E+02  0.68922126049E+01  0.67889481138E+02  0.47000000000E+01 0. -1.
          5    1    5    5  503    0  0.40590481822E+02  0.54556873978E+02  0.71867718565E+02  0.99050990326E+02  0.47000000000E+01 0. -1.
         -5    1    5    5    0  503 -0.43279013745E+02 -0.35188057248E+02  0.25299358950E+02  0.61428169165E+02  0.47000000000E+01 0. -1.
<mgrwt>
<rscale>  0 0.27280929E+03</rscale>
<asrwt>0</asrwt>
<pdfrwt beam="1">  1        1 0.28815955E-01 0.27280929E+03</pdfrwt>
<pdfrwt beam="2">  1       -1 0.15282648E-01 0.27280929E+03</pdfrwt>
<totfact> 0.49379989E+03</totfact>
</mgrwt>
</event>
<event>
 8    1  0.8285222E-001  0.3603866E+03  0.7818608E-02  0.1058431E+00
          2   -1    0    0  501    0  0.00000000000E+00  0.00000000000E+00  0.17340149526E+03  0.17340149526E+03  0.00000000000E+00 0.  1.
         -2   -1    0    0    0  501 -0.00000000000E+00 -0.00000000000E+00 -0.18725109569E+03  0.18725109569E+03  0.00000000000E+00 0.  1.
         25    2    1    2    0    0 -0.40436100048E+02  0.58275016106E+02  0.10146862256E+03  0.17597538339E+03  0.12506157885E+03 0.  0.
         25    2    1    2    0    0  0.40436100048E+02 -0.58275016106E+02 -0.11531822299E+03  0.18467720756E+03  0.12560383255E+03 0.  0.
          5    1    3    3  502    0 -0.18919411765E+02  0.78717773713E+02  0.11683776853E+03  0.14222371882E+03  0.47000000000E+01 0. -1.
         -5    1    3    3    0  502 -0.21516688283E+02 -0.20442757607E+02 -0.15369145969E+02  0.33751664567E+02  0.47000000000E+01 0. -1.
          5    1    4    4  503    0 -0.18703580553E+02 -0.30757420671E+02  0.14677754625E+02  0.39158260082E+02  0.47000000000E+01 0.  1.
         -5    1    4    4    0  503  0.59139680601E+02 -0.27517595435E+02 -0.12999597761E+03  0.14551894748E+03  0.47000000000E+01 0.  1.
<mgrwt>
<rscale>  0 0.36038657E+03</rscale>
<asrwt>0</asrwt>
<pdfrwt beam="1">  1        2 0.26677153E-01 0.36038657E+03</pdfrwt>
<pdfrwt beam="2">  1       -2 0.28807861E-01 0.36038657E+03</pdfrwt>
<totfact> 0.22130300E+03</totfact>
</mgrwt>
</event>
<event>
 9    1  0.8285222E-001  0.2737532E+03  0.7818608E-02  0.1099151E+00
         -3   -1    0    0    0  501 -0.00000000000E+00  0.00000000000E+00  0.17138064695E+03  0.17138064695E+03  0.00000000000E+00 0.  1.
          3   -1    0    0  501    0  0.00000000000E+00 -0.00000000000E+00 -0.10931921793E+03  0.10931921793E+03  0.00000000000E+00 0.  1.
         35    2    1    2    0    0  0.71054273576E-14 -0.35527136788E-14  0.62061429024E+02  0.28069986488E+03  0.27375316102E+03 0.  0.
         25    2    3    3    0    0 -0.52208406964E+02  0.22860385051E+02  0.39307086777E+02  0.14120364601E+03  0.12306546068E+03 0.  0.
         25    2    3    3    0    0  0.52208406964E+02 -0.22860385051E+02  0.22754342247E+02  0.13949621887E+03  0.12527218376E+03 0.  0.
          5    1    4    4  502    0  0.21202118922E+01  0.37385089324E+02 -0.32549072373E+02  0.49836455678E+02  0.47000000000E+01 0. -1.
         -5    1    4    4    0  502 -0.54328618857E+02 -0.14524704272E+02  0.71856159150E+02  0.91367190330E+02  0.47000000000E+01 0. -1.
          5    1    5    5  503    0  0.48597369760E+01  0.30496162081E+02  0.53279820666E+02  0.61761332849E+02  0.47000000000E+01 0. -1.
         -5    1    5    5    0  503  0.47348669988E+02 -0.53356547133E+02 -0.30525478419E+02  0.77734886018E+02  0.47000000000E+01 0. -1.
<mgrwt>
<rscale>  0 0.27375316E+03</rscale>
<asrwt>0</asrwt>
<pdfrwt beam="1">  1        3 0.16818341E-01 0.27375316E+03</pdfrwt>
<pdfrwt beam="2">  1       -3 0.26366253E-01 0.27375316E+03</pdfrwt>
<totfact> 0.10547834E+03</totfact>
</mgrwt>
</event>
<event>
 9    1  0.8285222E-001  0.2705915E+03  0.7818608E-02  0.1100942E+00
          2   -1    0    0  501    0  0.00000000000E+00  0.00000000000E+00  0.11212893479E+04  0.11212893479E+04  0.00000000000E+00 0. -1.
         -2   -1    0    0    0  501 -0.00000000000E+00 -0.00000000000E+00 -0.16324901651E+02  0.16324901651E+02  0.00000000000E+00 0. -1.
         35    2    1    2    0    0 -0.35527136788E-14  0.00000000000E+00  0.11049644463E+04  0.11376142496E+04  0.27059148787E+03 0.  0.
         25    2    3    3    0    0 -0.31311551328E+02 -0.24328716595E+02  0.41724414075E+03  0.43744296097E+03  0.12526520435E+03 0.  0.
         25    2    3    3    0    0  0.31311551328E+02  0.24328716595E+02  0.68772030551E+03  0.70017128858E+03  0.12533281713E+03 0.  0.
          5    1    4    4  502    0  0.43102762221E+02 -0.21898437937E+02  0.24449452921E+03  0.24927305211E+03  0.47000000000E+01 0. -1.
         -5    1    4    4    0  502 -0.74414313549E+02 -0.24302786582E+01  0.17274961153E+03  0.18816990886E+03  0.47000000000E+01 0. -1.
          5    1    5    5  503    0 -0.20025457868E+02 -0.42317423234E+02  0.26250434069E+03  0.26668783653E+03  0.47000000000E+01 0.  1.
         -5    1    5    5    0  503  0.51337009196E+02  0.66646139829E+02  0.42521596482E+03  0.43348345206E+03  0.47000000000E+01 0.  1.
<mgrwt>
<rscale>  0 0.27059149E+03</rscale>
<asrwt>0</asrwt>
<pdfrwt beam="1">  1        2 0.17250599E+00 0.27059149E+03</pdfrwt>
<pdfrwt beam="2">  1       -2 0.25115242E-02 0.27059149E+03</pdfrwt>
<totfact> 0.12220446E+04</totfact>
</mgrwt>
</event>
<event>
 9    1  0.8285222E-001  0.2727459E+03  0.7818608E-02  0.1099718E+00
         -1   -1    0    0    0  501 -0.00000000000E+00  0.00000000000E+00  0.39082066328E+02  0.39082066328E+02  0.00000000000E+00 0.  1.
          1   -1    0    0  501    0  0.00000000000E+00 -0.00000000000E+00 -0.47585986248E+03  0.47585986248E+03  0.00000000000E+00 0.  1.
         35    2    1    2    0    0  0.71054273576E-14  0.00000000000E+00 -0.43677779615E+03  0.51494192881E+03  0.27274593825E+03 0.  0.
         25    2    3    3    0    0 -0.35263267952E+02  0.33515764466E+02 -0.17756212998E+03  0.22294922940E+03  0.12574277059E+03 0.  0.
         25    2    3    3    0    0  0.35263267952E+02 -0.33515764466E+02 -0.25921566618E+03  0.29199269941E+03  0.12530032075E+03 0.  0.
          5    1    4    4  502    0 -0.37670813094E+02  0.62842815855E+02 -0.17863178819E+03  0.19313134240E+03  0.47000000000E+01 0. -1.
         -5    1    4    4    0  502  0.24075451417E+01 -0.29327051389E+02  0.10696582153E+01  0.29817887006E+02  0.47000000000E+01 0. -1.
          5    1    5    5  503    0 -0.24959108635E+02 -0.33267027042E+02 -0.22152993389E+02  0.47355013548E+02  0.47000000000E+01 0. -1.
         -5    1    5    5    0  503  0.60222376586E+02 -0.24873742389E+00 -0.23706267279E+03  0.24463768586E+03  0.47000000000E+01 0. -1.
<mgrwt>
<rscale>  0 0.27274594E+03</rscale>
<asrwt>0</asrwt>
<pdfrwt beam="1">  1        1 0.73209212E-01 0.27274594E+03</pdfrwt>
<pdfrwt beam="2">  1       -1 0.60126254E-02 0.27274594E+03</pdfrwt>
<totfact> 0.63905611E+03</totfact>
</mgrwt>
</event>
<event>
 9    1  0.8285222E-001  0.2739712E+03  0.7818608E-02  0.1099028E+00
          2   -1    0    0  501    0  0.00000000000E+00  0.00000000000E+00  0.38100164161E+03  0.38100164161E+03  0.00000000000E+00 0. -1.
         -2   -1    0    0    0  501 -0.00000000000E+00 -0.00000000000E+00 -0.49251911539E+02  0.49251911539E+02  0.00000000000E+00 0. -1.
         35    2    1    2    0    0  0.00000000000E+00 -0.71054273576E-14  0.33174973007E+03  0.43025355315E+03  0.27397123315E+03 0.  0.
         25    2    3    3    0    0 -0.37074368063E+02 -0.30424405607E+02  0.21296121886E+03  0.25104451122E+03  0.12397867822E+03 0.  0.
         25    2    3    3    0    0  0.37074368063E+02  0.30424405607E+02  0.11878851121E+03  0.17920904193E+03  0.12531965963E+03 0.  0.
          5    1    4    4  502    0 -0.57051488587E+02 -0.68386823264E+02  0.13207026954E+03  0.15936209099E+03  0.47000000000E+01 0.  1.
         -5    1    4    4    0  502  0.19977120524E+02  0.37962417657E+02  0.80890949321E+02  0.91682420239E+02  0.47000000000E+01 0.  1.
          5    1    5    5  503    0 -0.40129043750E+02 -0.15243584130E+02  0.50039392354E+02  0.66096428016E+02  0.47000000000E+01 0. -1.
         -5    1    5    5    0  503  0.77203411812E+02  0.45667989737E+02  0.68749118856E+02  0.11311261391E+03  0.47000000000E+01 0. -1.
<mgrwt>
<rscale>  0 0.27397123E+03</rscale>
<asrwt>0</asrwt>
<pdfrwt beam="1">  1        2 0.58615635E-01 0.27397123E+03</pdfrwt>
<pdfrwt beam="2">  1       -2 0.75772174E-02 0.27397123E+03</pdfrwt>
<totfact> 0.86099016E+03</totfact>
</mgrwt>
</event>
<event>
 9    1  0.8285222E-001  0.2702859E+03  0.7818608E-02  0.1101116E+00
          1   -1    0    0  501    0  0.00000000000E+00  0.00000000000E+00  0.43635544955E+02  0.43635544955E+02  0.00000000000E+00 0.  1.
         -1   -1    0    0    0  501 -0.00000000000E+00 -0.00000000000E+00 -0.41854911251E+03  0.41854911251E+03  0.00000000000E+00 0.  1.
         35    2    1    2    0    0 -0.17763568394E-14  0.71054273576E-14 -0.37491356756E+03  0.46218465747E+03  0.27028591243E+03 0.  0.
         25    2    3    3    0    0 -0.44510742808E+01 -0.51635301458E+02 -0.19578769311E+03  0.23807453214E+03  0.12514250142E+03 0.  0.
         25    2    3    3    0    0  0.44510742808E+01  0.51635301458E+02 -0.17912587445E+03  0.22411012533E+03  0.12431111357E+03 0.  0.
          5    1    4    4  502    0 -0.50166683565E+02 -0.69273183458E+02 -0.11365282575E+03  0.14231839265E+03  0.47000000000E+01 0.  1.
         -5    1    4    4    0  502  0.45715609284E+02  0.17637882000E+02 -0.82134867361E+02  0.95756139490E+02  0.47000000000E+01 0.  1.
          5    1    5    5  503    0  0.12594552188E+02  0.54068317871E+02 -0.12369302514E+02  0.57070967986E+02  0.47000000000E+01 0. -1.
         -5    1    5    5    0  503 -0.81434779067E+01 -0.24330164135E+01 -0.16675657194E+03  0.16703915734E+03  0.47000000000E+01 0. -1.
<mgrwt>
<rscale>  0 0.27028591E+03</rscale>
<asrwt>0</asrwt>
<pdfrwt beam="1">  1        1 0.67131605E-02 0.27028591E+03</pdfrwt>
<pdfrwt beam="2">  1       -1 0.64392174E-01 0.27028591E+03</pdfrwt>
<totfact> 0.27912990E+03</totfact>
</mgrwt>
</event>
<event>
 9    1  0.8285222E-001  0.2731403E+03  0.7818608E-02  0.1099496E+00
          2   -1    0    0  501    0  0.00000000000E+00  0.00000000000E+00  0.29683080216E+03  0.29683080216E+03  0.00000000000E+00 0.  1.
         -2   -1    0    0    0  501 -0.00000000000E+00 -0.00000000000E+00 -0.62835144932E+02  0.62835144932E+02  0.00000000000E+00 0.  1.
         35    2    1    2    0    0  0.00000000000E+00  0.00000000000E+00  0.23399565722E+03  0.35966594709E+03  0.27314030441E+03 0.  0.
         25    2    3    3    0    0  0.20794935198E+01 -0.18296821341E+02  0.18568151613E+03  0.22475771482E+03  0.12529687534E+03 0.  0.
         25    2    3    3    0    0 -0.20794935198E+01  0.18296821341E+02  0.48314141090E+02  0.13490823227E+03  0.12460688962E+03 0.  0.
          5    1    4    4  502    0 -0.41160649158E+01 -0.58538369845E+02  0.17160413094E+03  0.18142147197E+03  0.47000000000E+01 0.  1.
         -5    1    4    4    0  502  0.61955584356E+01  0.40241548504E+02  0.14077385192E+02  0.43336242848E+02  0.47000000000E+01 0.  1.
          5    1    5    5  503    0  0.63484629582E+01  0.93258647379E+01  0.90187025778E+02  0.91011341896E+02  0.47000000000E+01 0. -1.
         -5    1    5    5    0  503 -0.84279564780E+01  0.89709566028E+01 -0.41872884688E+02  0.43896890378E+02  0.47000000000E+01 0. -1.
<mgrwt>
<rscale>  0 0.27314030E+03</rscale>
<asrwt>0</asrwt>
<pdfrwt beam="1">  1        2 0.45666277E-01 0.27314030E+03</pdfrwt>
<pdfrwt beam="2">  1       -2 0.96669455E-02 0.27314030E+03</pdfrwt>
<totfact> 0.76869531E+03</totfact>
</mgrwt>
</event>
<event>
 9    1  0.8285222E-001  0.2712188E+03  0.7818608E-02  0.1100584E+00
          2   -1    0    0  501    0  0.00000000000E+00  0.00000000000E+00  0.42624316628E+04  0.42624316628E+04  0.00000000000E+00 0. -1.
         -2   -1    0    0    0  501 -0.00000000000E+00 -0.00000000000E+00 -0.43144162609E+01  0.43144162609E+01  0.00000000000E+00 0. -1.
         35    2    1    2    0    0  0.00000000000E+00  0.71054273576E-14  0.42581172466E+04  0.42667460791E+04  0.27121876393E+03 0.  0.
         25    2    3    3    0    0 -0.32612756218E+01 -0.55165545404E+02  0.23147987239E+04  0.23188765752E+04  0.12586328270E+03 0.  0.
         25    2    3    3    0    0  0.32612756218E+01  0.55165545404E+02  0.19433185227E+04  0.19478695038E+04  0.12105721779E+03 0.  0.
          5    1    4    4  502    0 -0.46460486847E+01 -0.95127597595E+02  0.14417429209E+04  0.14448929322E+04  0.47000000000E+01 0. -1.
         -5    1    4    4    0  502  0.13847730629E+01  0.39962052190E+02  0.87305580299E+03  0.87398364306E+03  0.47000000000E+01 0. -1.
          5    1    5    5  503    0 -0.53112275278E+01 -0.17977809175E+01  0.54102306418E+01  0.90995466743E+01  0.47000000000E+01 0. -1.
         -5    1    5    5    0  503  0.85725031496E+01  0.56963326322E+02  0.19379082921E+04  0.19387699572E+04  0.47000000000E+01 0. -1.
<mgrwt>
<rscale>  0 0.27121876E+03</rscale>
<asrwt>0</asrwt>
<pdfrwt beam="1">  1        2 0.65575535E+00 0.27121876E+03</pdfrwt>
<pdfrwt beam="2">  1       -2 0.66375975E-03 0.27121876E+03</pdfrwt>
<totfact> 0.10640496E+03</totfact>
</mgrwt>
</event>
<event>
 9    1  0.8285222E-001  0.2764745E+03  0.7818608E-02  0.1097630E+00
          2   -1    0    0  501    0  0.00000000000E+00  0.00000000000E+00  0.84512176579E+03  0.84512176579E+03  0.00000000000E+00 0. -1.
         -2   -1    0    0    0  501 -0.00000000000E+00 -0.00000000000E+00 -0.22611583602E+02  0.22611583602E+02  0.00000000000E+00 0. -1.
         35    2    1    2    0    0  0.00000000000E+00  0.00000000000E+00  0.82251018218E+03  0.86773334939E+03  0.27647453019E+03 0.  0.
         25    2    3    3    0    0  0.47460842751E+02  0.77020224844E+01  0.30611545059E+03  0.33422894613E+03  0.12526159264E+03 0.  0.
         25    2    3    3    0    0 -0.47460842751E+02 -0.77020224844E+01  0.51639473159E+03  0.53350440326E+03  0.12510626179E+03 0.  0.
          5    1    4    4  502    0  0.49122270987E+02  0.58102523872E+02  0.23401603008E+03  0.24611885975E+03  0.47000000000E+01 0. -1.
         -5    1    4    4    0  502 -0.16614282364E+01 -0.50400501387E+02  0.72099420508E+02  0.88110086377E+02  0.47000000000E+01 0. -1.
          5    1    5    5  503    0  0.24770539491E+02 -0.43122125223E+02  0.14184145595E+03  0.15038013811E+03  0.47000000000E+01 0. -1.
         -5    1    5    5    0  503 -0.72231382242E+02  0.35420102739E+02  0.37455327564E+03  0.38312426515E+03  0.47000000000E+01 0. -1.
<mgrwt>
<rscale>  0 0.27647453E+03</rscale>
<asrwt>0</asrwt>
<pdfrwt beam="1">  1        2 0.13001871E+00 0.27647453E+03</pdfrwt>
<pdfrwt beam="2">  1       -2 0.34787058E-02 0.27647453E+03</pdfrwt>
<totfact> 0.11173980E+04</totfact>
</mgrwt>
</event>
<event>
 9    1  0.8285222E-001  0.2795678E+03  0.7818608E-02  0.1095925E+00
          2   -1    0    0  501    0  0.00000000000E+00  0.00000000000E+00  0.38993247389E+03  0.38993247389E+03  0.00000000000E+00 0.  1.
         -2   -1    0    0    0  501 -0.00000000000E+00 -0.00000000000E+00 -0.50110047402E+02  0.50110047402E+02  0.00000000000E+00 0.  1.
         35    2    1    2    0    0  0.00000000000E+00  0.71054273576E-14  0.33982242649E+03  0.44004252129E+03  0.27956777175E+03 0.  0.
         25    2    3    3    0    0 -0.25844056908E+02  0.27528020424E+02  0.24451032542E+03  0.27793034880E+03  0.12662650736E+03 0.  0.
         25    2    3    3    0    0  0.25844056908E+02 -0.27528020424E+02  0.95312101071E+02  0.16211217249E+03  0.12557966663E+03 0.  0.
          5    1    4    4  502    0 -0.34990147748E+02  0.73298501535E+02  0.12097304927E+03  0.14578597126E+03  0.47000000000E+01 0. -1.
         -5    1    4    4    0  502  0.91460908403E+01 -0.45770481111E+02  0.12353727614E+03  0.13214437754E+03  0.47000000000E+01 0. -1.
          5    1    5    5  503    0 -0.69836803767E+01  0.47211699970E+02  0.46956594579E+02  0.67117271846E+02  0.47000000000E+01 0.  1.
         -5    1    5    5    0  503  0.32827737284E+02 -0.74739720394E+02  0.48355506492E+02  0.94994900641E+02  0.47000000000E+01 0.  1.
<mgrwt>
<rscale>  0 0.27956777E+03</rscale>
<asrwt>0</asrwt>
<pdfrwt beam="1">  1        2 0.59989609E-01 0.27956777E+03</pdfrwt>
<pdfrwt beam="2">  1       -2 0.77092383E-02 0.27956777E+03</pdfrwt>
<totfact> 0.81797819E+03</totfact>
</mgrwt>
</event>
<event>
 9    1  0.8285222E-001  0.2766646E+03  0.7818608E-02  0.1097525E+00
         -2   -1    0    0    0  501 -0.00000000000E+00  0.00000000000E+00  0.20140104627E+02  0.20140104627E+02  0.00000000000E+00 0.  1.
          2   -1    0    0  501    0  0.00000000000E+00 -0.00000000000E+00 -0.95013536958E+03  0.95013536958E+03  0.00000000000E+00 0.  1.
         35    2    1    2    0    0  0.00000000000E+00 -0.71054273576E-14 -0.92999526495E+03  0.97027547420E+03  0.27666460383E+03 0.  0.
         25    2    3    3    0    0 -0.15960377333E+01  0.40314586164E+02 -0.61471430267E+03  0.62857115348E+03  0.12490079222E+03 0.  0.
         25    2    3    3    0    0  0.15960377333E+01 -0.40314586164E+02 -0.31528096228E+03  0.34170432072E+03  0.12542704822E+03 0.  0.
          5    1    4    4  502    0 -0.60435529024E+02  0.19194913599E+02 -0.39511433139E+03  0.40019785450E+03  0.47000000000E+01 0.  1.
         -5    1    4    4    0  502  0.58839491291E+02  0.21119672565E+02 -0.21959997128E+03  0.22837329898E+03  0.47000000000E+01 0.  1.
          5    1    5    5  503    0  0.42302281051E+02  0.12127815118E+02 -0.44106207104E+02  0.62482112534E+02  0.47000000000E+01 0. -1.
         -5    1    5    5    0  503 -0.40706243318E+02 -0.52442401282E+02 -0.27117475518E+03  0.27922220819E+03  0.47000000000E+01 0. -1.
<mgrwt>
<rscale>  0 0.27666460E+03</rscale>
<asrwt>0</asrwt>
<pdfrwt beam="1">  1        2 0.14617467E+00 0.27666460E+03</pdfrwt>
<pdfrwt beam="2">  1       -2 0.30984776E-02 0.27666460E+03</pdfrwt>
<totfact> 0.11357186E+04</totfact>
</mgrwt>
</event>
<event>
 9    1  0.8285222E-001  0.2793215E+03  0.7818608E-02  0.1096060E+00
         -2   -1    0    0    0  501 -0.00000000000E+00  0.00000000000E+00  0.12911841322E+04  0.12911841322E+04  0.00000000000E+00 0.  1.
          2   -1    0    0  501    0  0.00000000000E+00 -0.00000000000E+00 -0.15106385902E+02  0.15106385902E+02  0.00000000000E+00 0.  1.
         35    2    1    2    0    0  0.00000000000E+00  0.00000000000E+00  0.12760777463E+04  0.13062905181E+04  0.27932150488E+03 0.  0.
         25    2    3    3    0    0 -0.13922894776E+02  0.53704568436E+02  0.51462862087E+03  0.53241124174E+03  0.12466388908E+03 0.  0.
         25    2    3    3    0    0  0.13922894776E+02 -0.53704568436E+02  0.76144912541E+03  0.77387927634E+03  0.12651614956E+03 0.  0.
          5    1    4    4  502    0  0.37013941252E+02  0.70532990444E+02  0.25248303207E+03  0.26479181647E+03  0.47000000000E+01 0. -1.
         -5    1    4    4    0  502 -0.50936836028E+02 -0.16828422007E+02  0.26214558881E+03  0.26761942527E+03  0.47000000000E+01 0. -1.
          5    1    5    5  503    0  0.43116384353E+02  0.10538620518E+02  0.52975809267E+03  0.53163503634E+03  0.47000000000E+01 0. -1.
         -5    1    5    5    0  503 -0.29193489577E+02 -0.64243188954E+02  0.23169103274E+03  0.24224424000E+03  0.47000000000E+01 0. -1.
<mgrwt>
<rscale>  0 0.27932150E+03</rscale>
<asrwt>0</asrwt>
<pdfrwt beam="1">  1        2 0.23240604E-02 0.27932150E+03</pdfrwt>
<pdfrwt beam="2">  1       -2 0.19864363E+00 0.27932150E+03</pdfrwt>
<totfact> 0.65476388E+02</totfact>
</mgrwt>
</event>
<event>
 9    1  0.8285222E-001  0.2734377E+03  0.7818608E-02  0.1099328E+00
          3   -1    0    0  501    0  0.00000000000E+00  0.00000000000E+00  0.13785725424E+03  0.13785725424E+03  0.00000000000E+00 0. -1.
         -3   -1    0    0    0  501 -0.00000000000E+00 -0.00000000000E+00 -0.13558984578E+03  0.13558984578E+03  0.00000000000E+00 0. -1.
         35    2    1    2    0    0  0.13322676296E-14 -0.71054273576E-14  0.22674084536E+01  0.27344710002E+03  0.27343769924E+03 0.  0.
         25    2    3    3    0    0  0.19543670325E+01 -0.54594922140E+02 -0.36726728373E+01  0.13643312279E+03  0.12496432849E+03 0.  0.
         25    2    3    3    0    0 -0.19543670325E+01  0.54594922140E+02  0.59400812909E+01  0.13701397723E+03  0.12551143500E+03 0.  0.
          5    1    4    4  502    0  0.19394761406E+01 -0.77008665066E+02  0.40143926681E+02  0.86992648611E+02  0.47000000000E+01 0. -1.
         -5    1    4    4    0  502  0.14890891978E-01  0.22413742927E+02 -0.43816599518E+02  0.49440474179E+02  0.47000000000E+01 0. -1.
          5    1    5    5  503    0 -0.19950040498E+02 -0.37604828737E+02  0.20007305244E+01  0.42874470059E+02  0.47000000000E+01 0.  1.
         -5    1    5    5    0  503  0.17995673466E+02  0.92199750877E+02  0.39393507665E+01  0.94139507167E+02  0.47000000000E+01 0.  1.
<mgrwt>
<rscale>  0 0.27343770E+03</rscale>
<asrwt>0</asrwt>
<pdfrwt beam="1">  1        3 0.21208808E-01 0.27343770E+03</pdfrwt>
<pdfrwt beam="2">  1       -3 0.20859976E-01 0.27343770E+03</pdfrwt>
<totfact> 0.10698268E+03</totfact>
</mgrwt>
</event>
<event>
 9    1  0.8285222E-001  0.2678994E+03  0.7818608E-02  0.1102488E+00
         -1   -1    0    0    0  501 -0.00000000000E+00  0.00000000000E+00  0.24643566616E+02  0.24643566616E+02  0.00000000000E+00 0.  1.
          1   -1    0    0  501    0  0.00000000000E+00 -0.00000000000E+00 -0.72808128487E+03  0.72808128487E+03  0.00000000000E+00 0.  1.
         35    2    1    2    0    0  0.00000000000E+00  0.00000000000E+00 -0.70343771825E+03  0.75272485149E+03  0.26789938145E+03 0.  0.
         25    2    3    3    0    0 -0.24182825197E+02 -0.39384250254E+02 -0.38438738881E+03  0.40697224327E+03  0.12544645837E+03 0.  0.
         25    2    3    3    0    0  0.24182825197E+02  0.39384250254E+02 -0.31905032944E+03  0.34575260821E+03  0.12496329527E+03 0.  0.
          5    1    4    4  502    0 -0.33196384782E+02  0.17834580855E+02 -0.31124445920E+03  0.31355266801E+03  0.47000000000E+01 0.  1.
         -5    1    4    4    0  502  0.90135595847E+01 -0.57218831109E+02 -0.73142929609E+02  0.93419575260E+02  0.47000000000E+01 0.  1.
          5    1    5    5  503    0 -0.46393813106E+02 -0.74182701286E+01 -0.13715026003E+03  0.14505068236E+03  0.47000000000E+01 0.  1.
         -5    1    5    5    0  503  0.70576638303E+02  0.46802520383E+02 -0.18190006941E+03  0.20070192585E+03  0.47000000000E+01 0.  1.
<mgrwt>
<rscale>  0 0.26789938E+03</rscale>
<asrwt>0</asrwt>
<pdfrwt beam="1">  1        1 0.11201250E+00 0.26789938E+03</pdfrwt>
<pdfrwt beam="2">  1       -1 0.37913182E-02 0.26789938E+03</pdfrwt>
<totfact> 0.70589269E+03</totfact>
</mgrwt>
</event>
<event>
 9    1  0.8285222E-001  0.2789890E+03  0.7818608E-02  0.1096242E+00
          2   -1    0    0  501    0  0.00000000000E+00  0.00000000000E+00  0.78015960393E+03  0.78015960393E+03  0.00000000000E+00 0. -1.
         -2   -1    0    0    0  501 -0.00000000000E+00 -0.00000000000E+00 -0.24941966382E+02  0.24941966382E+02  0.00000000000E+00 0. -1.
         35    2    1    2    0    0  0.71054273576E-14 -0.71054273576E-14  0.75521763754E+03  0.80510157031E+03  0.27898899343E+03 0.  0.
         25    2    3    3    0    0  0.40982141214E+02  0.33371075557E+02  0.28892860865E+03  0.31907560112E+03  0.12464483041E+03 0.  0.
         25    2    3    3    0    0 -0.40982141214E+02 -0.33371075557E+02  0.46628902889E+03  0.48602596919E+03  0.12650146117E+03 0.  0.
          5    1    4    4  502    0  0.35457874393E+02  0.78407184939E+02  0.15178239191E+03  0.17454206370E+03  0.47000000000E+01 0.  1.
         -5    1    4    4    0  502  0.55242668211E+01 -0.45036109381E+02  0.13714621674E+03  0.14453353742E+03  0.47000000000E+01 0.  1.
          5    1    5    5  503    0 -0.62884104834E+02  0.30534367645E+01  0.41253569225E+03  0.41733861731E+03  0.47000000000E+01 0. -1.
         -5    1    5    5    0  503  0.21901963620E+02 -0.36424512322E+02  0.53753336644E+02  0.68687351883E+02  0.47000000000E+01 0. -1.
<mgrwt>
<rscale>  0 0.27898899E+03</rscale>
<asrwt>0</asrwt>
<pdfrwt beam="1">  1        2 0.12002454E+00 0.27898899E+03</pdfrwt>
<pdfrwt beam="2">  1       -2 0.38372262E-02 0.27898899E+03</pdfrwt>
<totfact> 0.10690135E+04</totfact>
</mgrwt>
</event>
<event>
 9    1  0.8285222E-001  0.2823914E+03  0.7818608E-02  0.1094390E+00
         -3   -1    0    0    0  501 -0.00000000000E+00  0.00000000000E+00  0.15436738927E+03  0.15436738927E+03  0.00000000000E+00 0. -1.
          3   -1    0    0  501    0  0.00000000000E+00 -0.00000000000E+00 -0.12914789073E+03  0.12914789073E+03  0.00000000000E+00 0. -1.
         35    2    1    2    0    0 -0.17763568394E-14  0.00000000000E+00  0.25219498541E+02  0.28351528001E+03  0.28239137892E+03 0.  0.
         25    2    3    3    0    0 -0.15777498444E+02 -0.25179812711E+01  0.76400427661E+02  0.14727646858E+03  0.12489220617E+03 0.  0.
         25    2    3    3    0    0  0.15777498444E+02  0.25179812711E+01 -0.51180929120E+02  0.13623881143E+03  0.12524478651E+03 0.  0.
          5    1    4    4  502    0  0.97701283522E+01  0.22248220017E+02 -0.27709946385E+02  0.37153328661E+02  0.47000000000E+01 0.  1.
         -5    1    4    4    0  502 -0.25547626796E+02 -0.24766201288E+02  0.10411037405E+03  0.11012313992E+03  0.47000000000E+01 0.  1.
          5    1    5    5  503    0  0.50952302182E+01  0.62770529076E+02 -0.14692585576E+02  0.64838744300E+02  0.47000000000E+01 0. -1.
         -5    1    5    5    0  503  0.10682268225E+02 -0.60252547805E+02 -0.36488343543E+02  0.71400067129E+02  0.47000000000E+01 0. -1.
<mgrwt>
<rscale>  0 0.28239138E+03</rscale>
<asrwt>0</asrwt>
<pdfrwt beam="1">  1        3 0.19868906E-01 0.28239138E+03</pdfrwt>
<pdfrwt beam="2">  1       -3 0.23748829E-01 0.28239138E+03</pdfrwt>
<totfact> 0.95485497E+02</totfact>
</mgrwt>
</event>
<event>
 9    1  0.8285222E-001  0.2760116E+03  0.7818608E-02  0.1097887E+00
         -2   -1    0    0    0  501 -0.00000000000E+00  0.00000000000E+00  0.41502371395E+02  0.41502371395E+02  0.00000000000E+00 0. -1.
          2   -1    0    0  501    0  0.00000000000E+00 -0.00000000000E+00 -0.45890403997E+03  0.45890403997E+03  0.00000000000E+00 0. -1.
         35    2    1    2    0    0  0.00000000000E+00  0.00000000000E+00 -0.41740166857E+03  0.50040641136E+03  0.27601163672E+03 0.  0.
         25    2    3    3    0    0  0.11841672740E+02  0.35400013258E+02 -0.29161341670E+03  0.31911011823E+03  0.12409470821E+03 0.  0.
         25    2    3    3    0    0 -0.11841672740E+02 -0.35400013258E+02 -0.12578825187E+03  0.18129629313E+03  0.12510905420E+03 0.  0.
          5    1    4    4  502    0  0.21811682940E+01  0.81794093837E+02 -0.18277076941E+03  0.20030545532E+03  0.47000000000E+01 0.  1.
         -5    1    4    4    0  502  0.96605044456E+01 -0.46394080579E+02 -0.10884264729E+03  0.11880466291E+03  0.47000000000E+01 0.  1.
          5    1    5    5  503    0  0.16617512235E+02 -0.28916355194E+02  0.15408241474E+02  0.37037834925E+02  0.47000000000E+01 0. -1.
         -5    1    5    5    0  503 -0.28459184975E+02 -0.64836580634E+01 -0.14119649335E+03  0.14425845821E+03  0.47000000000E+01 0. -1.
<mgrwt>
<rscale>  0 0.27601164E+03</rscale>
<asrwt>0</asrwt>
<pdfrwt beam="1">  1        2 0.70600621E-01 0.27601164E+03</pdfrwt>
<pdfrwt beam="2">  1       -2 0.63849803E-02 0.27601164E+03</pdfrwt>
<totfact> 0.91616822E+03</totfact>
</mgrwt>
</event>
<event>
 9    1  0.8285222E-001  0.2612404E+03  0.7818608E-02  0.1106400E+00
          1   -1    0    0  501    0  0.00000000000E+00  0.00000000000E+00  0.84003324390E+03  0.84003324390E+03  0.00000000000E+00 0. -1.
         -1   -1    0    0    0  501 -0.00000000000E+00 -0.00000000000E+00 -0.20310667267E+02  0.20310667267E+02  0.00000000000E+00 0. -1.
         35    2    1    2    0    0  0.71054273576E-14  0.00000000000E+00  0.81972257663E+03  0.86034391116E+03  0.26124039282E+03 0.  0.
         25    2    3    3    0    0  0.20281609231E+02 -0.11727730895E+02  0.50487459856E+03  0.52026582479E+03  0.12340698859E+03 0.  0.
         25    2    3    3    0    0 -0.20281609231E+02  0.11727730895E+02  0.31484797807E+03  0.34007808637E+03  0.12639213658E+03 0.  0.
          5    1    4    4  502    0  0.20757036259E+02  0.38587363831E+02  0.71743993128E+02  0.84196969967E+02  0.47000000000E+01 0. -1.
         -5    1    4    4    0  502 -0.47542702817E+00 -0.50315094726E+02  0.43313060543E+03  0.43606885483E+03  0.47000000000E+01 0. -1.
          5    1    5    5  503    0  0.36440342931E+02  0.33616618941E+02  0.59699993256E+02  0.77744162847E+02  0.47000000000E+01 0. -1.
         -5    1    5    5    0  503 -0.56721952162E+02 -0.21888888046E+02  0.25514798481E+03  0.26233392352E+03  0.47000000000E+01 0. -1.
<mgrwt>
<rscale>  0 0.26124039E+03</rscale>
<asrwt>0</asrwt>
<pdfrwt beam="1">  1        1 0.12923586E+00 0.26124039E+03</pdfrwt>
<pdfrwt beam="2">  1       -1 0.31247187E-02 0.26124039E+03</pdfrwt>
<totfact> 0.75514752E+03</totfact>
</mgrwt>
</event>
<event>
 9    1  0.8285222E-001  0.2782768E+03  0.7818608E-02  0.1096634E+00
         -1   -1    0    0    0  501 -0.00000000000E+00  0.00000000000E+00  0.57703635999E+02  0.57703635999E+02  0.00000000000E+00 0.  1.
          1   -1    0    0  501    0  0.00000000000E+00 -0.00000000000E+00 -0.33549861323E+03  0.33549861323E+03  0.00000000000E+00 0.  1.
         35    2    1    2    0    0  0.00000000000E+00  0.00000000000E+00 -0.27779497723E+03  0.39320224923E+03  0.27827676767E+03 0.  0.
         25    2    3    3    0    0  0.45914338021E+02  0.34076190812E+02 -0.11209529578E+03  0.17767073977E+03  0.12542815959E+03 0.  0.
         25    2    3    3    0    0 -0.45914338021E+02 -0.34076190812E+02 -0.16569968145E+03  0.21553150946E+03  0.12541185717E+03 0.  0.
          5    1    4    4  502    0  0.80939815364E+02  0.23418326705E+01 -0.37788004129E+02  0.89480507081E+02  0.47000000000E+01 0.  1.
         -5    1    4    4    0  502 -0.35025477343E+02  0.31734358141E+02 -0.74307291651E+02  0.88190232692E+02  0.47000000000E+01 0.  1.
          5    1    5    5  503    0  0.30104330052E+02 -0.40417561357E+02 -0.27492915528E+02  0.57600350330E+02  0.47000000000E+01 0. -1.
         -5    1    5    5    0  503 -0.76018668073E+02  0.63413705457E+01 -0.13820676592E+03  0.15793115913E+03  0.47000000000E+01 0. -1.
<mgrwt>
<rscale>  0 0.27827677E+03</rscale>
<asrwt>0</asrwt>
<pdfrwt beam="1">  1        1 0.51615171E-01 0.27827677E+03</pdfrwt>
<pdfrwt beam="2">  1       -1 0.88774825E-02 0.27827677E+03</pdfrwt>
<totfact> 0.55395252E+03</totfact>
</mgrwt>
</event>
<event>
 9    1  0.8285222E-001  0.2794022E+03  0.7818608E-02  0.1096016E+00
          1   -1    0    0  501    0  0.00000000000E+00  0.00000000000E+00  0.13774417387E+04  0.13774417387E+04  0.00000000000E+00 0.  1.
         -1   -1    0    0    0  501 -0.00000000000E+00 -0.00000000000E+00 -0.14168586059E+02  0.14168586059E+02  0.00000000000E+00 0.  1.
         35    2    1    2    0    0  0.00000000000E+00  0.00000000000E+00  0.13632731526E+04  0.13916103248E+04  0.27940223203E+03 0.  0.
         25    2    3    3    0    0  0.19138505905E+02  0.18924009174E+02  0.39003232372E+03  0.41008143930E+03  0.12376256617E+03 0.  0.
         25    2    3    3    0    0 -0.19138505905E+02 -0.18924009174E+02  0.97324082893E+03  0.98152888546E+03  0.12440595392E+03 0.  0.
          5    1    4    4  502    0 -0.36017960373E+02 -0.34119849059E+02  0.16357005356E+03  0.17099330394E+03  0.47000000000E+01 0. -1.
         -5    1    4    4    0  502  0.55156466278E+02  0.53043858233E+02  0.22646227016E+03  0.23908813537E+03  0.47000000000E+01 0. -1.
          5    1    5    5  503    0 -0.60168536248E+02 -0.23870678009E+02  0.82542487713E+03  0.82797245112E+03  0.47000000000E+01 0.  1.
         -5    1    5    5    0  503  0.41030030343E+02  0.49466688354E+01  0.14781595179E+03  0.15355643434E+03  0.47000000000E+01 0.  1.
<mgrwt>
<rscale>  0 0.27940223E+03</rscale>
<asrwt>0</asrwt>
<pdfrwt beam="1">  1        1 0.21191401E+00 0.27940223E+03</pdfrwt>
<pdfrwt beam="2">  1       -1 0.21797836E-02 0.27940223E+03</pdfrwt>
<totfact> 0.52251667E+03</totfact>
</mgrwt>
</event>
<event>
 9    1  0.8285222E-001  0.2742993E+03  0.7818608E-02  0.1098844E+00
          1   -1    0    0  501    0  0.00000000000E+00  0.00000000000E+00  0.25063632649E+03  0.25063632649E+03  0.00000000000E+00 0. -1.
         -1   -1    0    0    0  501 -0.00000000000E+00 -0.00000000000E+00 -0.75049062634E+02  0.75049062634E+02  0.00000000000E+00 0. -1.
         35    2    1    2    0    0 -0.71054273576E-14  0.00000000000E+00  0.17558726386E+03  0.32568538913E+03  0.27429926260E+03 0.  0.
         25    2    3    3    0    0 -0.18445540921E+02  0.52293961449E+02  0.72841876998E+02  0.15472384521E+03  0.12473424890E+03 0.  0.
         25    2    3    3    0    0  0.18445540921E+02 -0.52293961449E+02  0.10274538686E+03  0.17096154391E+03  0.12488530175E+03 0.  0.
          5    1    4    4  502    0  0.11089582746E+02  0.45537902793E+00 -0.31893863057E+02  0.34095376757E+02  0.47000000000E+01 0. -1.
         -5    1    4    4    0  502 -0.29535123667E+02  0.51838582421E+02  0.10473574005E+03  0.12062846846E+03  0.47000000000E+01 0. -1.
          5    1    5    5  503    0  0.70413415591E+01 -0.31080439225E+02 -0.25065711993E+02  0.40816101126E+02  0.47000000000E+01 0.  1.
         -5    1    5    5    0  503  0.11404199362E+02 -0.21213522224E+02  0.12781109885E+03  0.13014544279E+03  0.47000000000E+01 0.  1.
<mgrwt>
<rscale>  0 0.27429926E+03</rscale>
<asrwt>0</asrwt>
<pdfrwt beam="1">  1        1 0.38559434E-01 0.27429926E+03</pdfrwt>
<pdfrwt beam="2">  1       -1 0.11546010E-01 0.27429926E+03</pdfrwt>
<totfact> 0.53209059E+03</totfact>
</mgrwt>
</event>
<event>
 9    1  0.8285222E-001  0.2642844E+03  0.7818608E-02  0.1104596E+00
          1   -1    0    0  501    0  0.00000000000E+00  0.00000000000E+00  0.61602063209E+02  0.61602063209E+02  0.00000000000E+00 0.  1.
         -1   -1    0    0    0  501 -0.00000000000E+00 -0.00000000000E+00 -0.28345732425E+03  0.28345732425E+03  0.00000000000E+00 0.  1.
         35    2    1    2    0    0  0.00000000000E+00  0.00000000000E+00 -0.22185526104E+03  0.34505938746E+03  0.26428436205E+03 0.  0.
         25    2    3    3    0    0  0.32723321660E+02 -0.13279775987E+02 -0.79752339019E+02  0.15267340743E+03  0.12530588783E+03 0.  0.
         25    2    3    3    0    0 -0.32723321660E+02  0.13279775987E+02 -0.14210292203E+03  0.19238598004E+03  0.12478764617E+03 0.  0.
          5    1    4    4  502    0 -0.20529513307E+02 -0.52993898693E+02 -0.60962250895E+02  0.83476345449E+02  0.47000000000E+01 0. -1.
         -5    1    4    4    0  502  0.53252834967E+02  0.39714122707E+02 -0.18790088124E+02  0.69197061976E+02  0.47000000000E+01 0. -1.
          5    1    5    5  503    0  0.42313839687E+02 -0.13152586423E+02 -0.26086090200E+02  0.51633571061E+02  0.47000000000E+01 0. -1.
         -5    1    5    5    0  503 -0.75037161346E+02  0.26432362409E+02 -0.11601683183E+03  0.14075240898E+03  0.47000000000E+01 0. -1.
<mgrwt>
<rscale>  0 0.26428436E+03</rscale>
<asrwt>0</asrwt>
<pdfrwt beam="1">  1        1 0.94772406E-02 0.26428436E+03</pdfrwt>
<pdfrwt beam="2">  1       -1 0.43608819E-01 0.26428436E+03</pdfrwt>
<totfact> 0.36230007E+03</totfact>
</mgrwt>
</event>
<event>
 9    1  0.8285222E-001  0.2731672E+03  0.7818608E-02  0.1099480E+00
         -2   -1    0    0    0  501 -0.00000000000E+00  0.00000000000E+00  0.57138225648E+02  0.57138225648E+02  0.00000000000E+00 0.  1.
          2   -1    0    0  501    0  0.00000000000E+00 -0.00000000000E+00 -0.32649037543E+03  0.32649037543E+03  0.00000000000E+00 0.  1.
         35    2    1    2    0    0 -0.53290705182E-14  0.35527136788E-14 -0.26935214978E+03  0.38362860107E+03  0.27316720698E+03 0.  0.
         25    2    3    3    0    0  0.42880581543E+01  0.27844438905E+02 -0.69279359316E+02  0.14609874236E+03  0.12550503046E+03 0.  0.
         25    2    3    3    0    0 -0.42880581543E+01 -0.27844438905E+02 -0.20007279046E+03  0.23752985871E+03  0.12489040026E+03 0.  0.
          5    1    4    4  502    0 -0.45672008470E+02 -0.20448681371E+02 -0.55914338979E+02  0.75183669975E+02  0.47000000000E+01 0. -1.
         -5    1    4    4    0  502  0.49960066624E+02  0.48293120275E+02 -0.13365020337E+02  0.70915072387E+02  0.47000000000E+01 0. -1.
          5    1    5    5  503    0 -0.94701696607E-01  0.29894275238E+02 -0.11307679225E+01  0.30282755762E+02  0.47000000000E+01 0. -1.
         -5    1    5    5    0  503 -0.41933564577E+01 -0.57738714143E+02 -0.19894202254E+03  0.20724710295E+03  0.47000000000E+01 0. -1.
<mgrwt>
<rscale>  0 0.27316721E+03</rscale>
<asrwt>0</asrwt>
<pdfrwt beam="1">  1        2 0.50229288E-01 0.27316721E+03</pdfrwt>
<pdfrwt beam="2">  1       -2 0.87904964E-02 0.27316721E+03</pdfrwt>
<totfact> 0.80618954E+03</totfact>
</mgrwt>
</event>
<event>
 9    1  0.8285222E-001  0.2750465E+03  0.7818608E-02  0.1098426E+00
          2   -1    0    0  501    0  0.00000000000E+00  0.00000000000E+00  0.35046416855E+03  0.35046416855E+03  0.00000000000E+00 0.  1.
         -2   -1    0    0    0  501 -0.00000000000E+00 -0.00000000000E+00 -0.53964543446E+02  0.53964543446E+02  0.00000000000E+00 0.  1.
         35    2    1    2    0    0  0.14210854715E-13  0.35527136788E-14  0.29649962510E+03  0.40442871200E+03  0.27504646044E+03 0.  0.
         25    2    3    3    0    0 -0.46195381848E+02 -0.31931063841E+02  0.16620017963E+03  0.21523483631E+03  0.12469935409E+03 0.  0.
         25    2    3    3    0    0  0.46195381848E+02  0.31931063841E+02  0.13029944548E+03  0.18919387569E+03  0.12515099266E+03 0.  0.
          5    1    4    4  502    0  0.70708720171E+01  0.43213631303E+02  0.62464126767E+02  0.76428216611E+02  0.47000000000E+01 0. -1.
         -5    1    4    4    0  502 -0.53266253865E+02 -0.75144695144E+02  0.10373605286E+03  0.13880661970E+03  0.47000000000E+01 0. -1.
          5    1    5    5  503    0  0.88584826280E+02  0.10163535396E+02  0.84905403401E+02  0.12321358052E+03  0.47000000000E+01 0.  1.
         -5    1    5    5    0  503 -0.42389444433E+02  0.21767528444E+02  0.45394042075E+02  0.65980295163E+02  0.47000000000E+01 0.  1.
<mgrwt>
<rscale>  0 0.27504646E+03</rscale>
<asrwt>0</asrwt>
<pdfrwt beam="1">  1        2 0.53917563E-01 0.27504646E+03</pdfrwt>
<pdfrwt beam="2">  1       -2 0.83022377E-02 0.27504646E+03</pdfrwt>
<totfact> 0.81721269E+03</totfact>
</mgrwt>
</event>
<event>
 9    1  0.8285222E-001  0.2629419E+03  0.7818608E-02  0.1105388E+00
         -2   -1    0    0    0  501 -0.00000000000E+00  0.00000000000E+00  0.35668484635E+02  0.35668484635E+02  0.00000000000E+00 0. -1.
          2   -1    0    0  501    0  0.00000000000E+00 -0.00000000000E+00 -0.48459073046E+03  0.48459073046E+03  0.00000000000E+00 0. -1.
         35    2    1    2    0    0  0.00000000000E+00 -0.71054273576E-14 -0.44892224582E+03  0.52025921510E+03  0.26294194815E+03 0.  0.
         25    2    3    3    0    0  0.16766850897E+02  0.13852068904E+01 -0.29558985063E+03  0.32158515975E+03  0.12554126449E+03 0.  0.
         25    2    3    3    0    0 -0.16766850897E+02 -0.13852068904E+01 -0.15333239520E+03  0.19867405535E+03  0.12520986688E+03 0.  0.
          5    1    4    4  502    0  0.56810641078E+02  0.37560085767E+02 -0.20464051511E+03  0.21572677026E+03  0.47000000000E+01 0.  1.
         -5    1    4    4    0  502 -0.40043790181E+02 -0.36174878876E+02 -0.90949335515E+02  0.10585838948E+03  0.47000000000E+01 0.  1.
          5    1    5    5  503    0 -0.36310109984E+02  0.37317156488E+02 -0.14518250155E+03  0.15430827266E+03  0.47000000000E+01 0. -1.
         -5    1    5    5    0  503  0.19543259087E+02 -0.38702363378E+02 -0.81498936467E+01  0.44365782685E+02  0.47000000000E+01 0. -1.
<mgrwt>
<rscale>  0 0.26294195E+03</rscale>
<asrwt>0</asrwt>
<pdfrwt beam="1">  1        2 0.74552418E-01 0.26294195E+03</pdfrwt>
<pdfrwt beam="2">  1       -2 0.54874593E-02 0.26294195E+03</pdfrwt>
<totfact> 0.10857832E+04</totfact>
</mgrwt>
</event>
<event>
 9    1  0.8285222E-001  0.2732811E+03  0.7818608E-02  0.1099416E+00
          1   -1    0    0  501    0  0.00000000000E+00  0.00000000000E+00  0.18693179156E+03  0.18693179156E+03  0.00000000000E+00 0.  1.
         -1   -1    0    0    0  501 -0.00000000000E+00 -0.00000000000E+00 -0.99879444008E+02  0.99879444008E+02  0.00000000000E+00 0.  1.
         35    2    1    2    0    0 -0.35527136788E-14 -0.35527136788E-14  0.87052347552E+02  0.28681123557E+03  0.27328112564E+03 0.  0.
         25    2    3    3    0    0  0.48737965051E+01  0.18545269592E+01 -0.12587055794E+02  0.12616654157E+03  0.12542874102E+03 0.  0.
         25    2    3    3    0    0 -0.48737965051E+01 -0.18545269592E+01  0.99639403347E+02  0.16064469400E+03  0.12590279524E+03 0.  0.
          5    1    4    4  502    0  0.33135115677E+02 -0.52647316136E+02  0.36431587371E+01  0.62490306391E+02  0.47000000000E+01 0. -1.
         -5    1    4    4    0  502 -0.28261319172E+02  0.54501843096E+02 -0.16230214531E+02  0.63676235174E+02  0.47000000000E+01 0. -1.
          5    1    5    5  503    0 -0.63780348702E+02 -0.90599937906E+01  0.37951418204E+02  0.74916063109E+02  0.47000000000E+01 0. -1.
         -5    1    5    5    0  503  0.58906552197E+02  0.72054668314E+01  0.61687985142E+02  0.85728630894E+02  0.47000000000E+01 0. -1.
<mgrwt>
<rscale>  0 0.27328113E+03</rscale>
<asrwt>0</asrwt>
<pdfrwt beam="1">  1        1 0.28758737E-01 0.27328113E+03</pdfrwt>
<pdfrwt beam="2">  1       -1 0.15366068E-01 0.27328113E+03</pdfrwt>
<totfact> 0.49080545E+03</totfact>
</mgrwt>
</event>
<event>
 9    1  0.8285222E-001  0.2752576E+03  0.7818608E-02  0.1098308E+00
          2   -1    0    0  501    0  0.00000000000E+00  0.00000000000E+00  0.21925406236E+03  0.21925406236E+03  0.00000000000E+00 0.  1.
         -2   -1    0    0    0  501 -0.00000000000E+00 -0.00000000000E+00 -0.86391466959E+02  0.86391466959E+02  0.00000000000E+00 0.  1.
         35    2    1    2    0    0  0.00000000000E+00 -0.71054273576E-14  0.13286259541E+03  0.30564552932E+03  0.27525755273E+03 0.  0.
         25    2    3    3    0    0 -0.34320140684E+02  0.51874082489E+02  0.71342352205E+02  0.15586366117E+03  0.12383439411E+03 0.  0.
         25    2    3    3    0    0  0.34320140684E+02 -0.51874082489E+02  0.61520243200E+02  0.14978186815E+03  0.12157744533E+03 0.  0.
          5    1    4    4  502    0 -0.69137249098E+02  0.43120999238E+02  0.68524377353E+01  0.81904979647E+02  0.47000000000E+01 0.  1.
         -5    1    4    4    0  502  0.34817108414E+02  0.87530832506E+01  0.64489914470E+02  0.73958681526E+02  0.47000000000E+01 0.  1.
          5    1    5    5  503    0  0.11736449758E+02  0.26328255380E+02 -0.19277798340E+02  0.34994925248E+02  0.47000000000E+01 0.  1.
         -5    1    5    5    0  503  0.22583690926E+02 -0.78202337869E+02  0.80798041540E+02  0.11478694290E+03  0.47000000000E+01 0.  1.
<mgrwt>
<rscale>  0 0.27525755E+03</rscale>
<asrwt>0</asrwt>
<pdfrwt beam="1">  1        2 0.33731394E-01 0.27525755E+03</pdfrwt>
<pdfrwt beam="2">  1       -2 0.13290995E-01 0.27525755E+03</pdfrwt>
<totfact> 0.63942059E+03</totfact>
</mgrwt>
</event>
<event>
 9    1  0.8285222E-001  0.2716865E+03  0.7818608E-02  0.1100318E+00
          4   -1    0    0  501    0  0.00000000000E+00  0.00000000000E+00  0.18908228154E+02  0.18908228154E+02  0.00000000000E+00 0. -1.
         -4   -1    0    0    0  501 -0.00000000000E+00 -0.00000000000E+00 -0.97594499737E+03  0.97594499737E+03  0.00000000000E+00 0. -1.
         35    2    1    2    0    0  0.71054273576E-14 -0.14210854715E-13 -0.95703676922E+03  0.99485322552E+03  0.27168651550E+03 0.  0.
         25    2    3    3    0    0  0.40257331010E+02 -0.36244212309E+02 -0.44599115579E+03  0.46659010767E+03  0.12595206196E+03 0.  0.
         25    2    3    3    0    0 -0.40257331010E+02  0.36244212309E+02 -0.51104561343E+03  0.52826311785E+03  0.12231110763E+03 0.  0.
          5    1    4    4  502    0 -0.16067531281E+02 -0.67204323062E+02 -0.28225989788E+03  0.29063263160E+03  0.47000000000E+01 0. -1.
         -5    1    4    4    0  502  0.56324862291E+02  0.30960110753E+02 -0.16373125791E+03  0.17595747607E+03  0.47000000000E+01 0. -1.
          5    1    5    5  503    0 -0.45504585997E+01  0.28870323774E+02 -0.19731562490E+02  0.35575649349E+02  0.47000000000E+01 0. -1.
         -5    1    5    5    0  503 -0.35706872410E+02  0.73738885347E+01 -0.49131405094E+03  0.49268746850E+03  0.47000000000E+01 0. -1.
<mgrwt>
<rscale>  0 0.27168652E+03</rscale>
<asrwt>0</asrwt>
<pdfrwt beam="1">  1        4 0.29089571E-02 0.27168652E+03</pdfrwt>
<pdfrwt beam="2">  1       -4 0.15014544E+00 0.27168652E+03</pdfrwt>
<totfact> 0.33390110E+02</totfact>
</mgrwt>
</event>
<event>
 9    1  0.8285222E-001  0.2714324E+03  0.7818608E-02  0.1100463E+00
          1   -1    0    0  501    0  0.00000000000E+00  0.00000000000E+00  0.81998250501E+03  0.81998250501E+03  0.00000000000E+00 0.  1.
         -1   -1    0    0    0  501 -0.00000000000E+00 -0.00000000000E+00 -0.22462535238E+02  0.22462535238E+02  0.00000000000E+00 0.  1.
         35    2    1    2    0    0 -0.14210854715E-13 -0.17763568394E-14  0.79751996977E+03  0.84244504025E+03  0.27143239242E+03 0.  0.
         25    2    3    3    0    0 -0.47728349726E+02 -0.79973037099E+01  0.42965499878E+03  0.45011129782E+03  0.12511918402E+03 0.  0.
         25    2    3    3    0    0  0.47728349726E+02  0.79973037099E+01  0.36786497099E+03  0.39233374243E+03  0.12751147530E+03 0.  0.
          5    1    4    4  502    0  0.36361965857E+02  0.10447240643E+02  0.64577129682E+02  0.74990886620E+02  0.47000000000E+01 0. -1.
         -5    1    4    4    0  502 -0.84090315582E+02 -0.18444544353E+02  0.36507786910E+03  0.37512041120E+03  0.47000000000E+01 0. -1.
          5    1    5    5  503    0  0.55515367621E+02 -0.35533672803E+02  0.32098475276E+03  0.32771618734E+03  0.47000000000E+01 0. -1.
         -5    1    5    5    0  503 -0.77870178951E+01  0.43530976513E+02  0.46880218235E+02  0.64617555088E+02  0.47000000000E+01 0. -1.
<mgrwt>
<rscale>  0 0.27143239E+03</rscale>
<asrwt>0</asrwt>
<pdfrwt beam="1">  1        1 0.12615113E+00 0.27143239E+03</pdfrwt>
<pdfrwt beam="2">  1       -1 0.34557753E-02 0.27143239E+03</pdfrwt>
<totfact> 0.67648285E+03</totfact>
</mgrwt>
</event>
<event>
 9    1  0.8285222E-001  0.2813946E+03  0.7818608E-02  0.1094930E+00
          1   -1    0    0  501    0  0.00000000000E+00  0.00000000000E+00  0.50201812085E+03  0.50201812085E+03  0.00000000000E+00 0. -1.
         -1   -1    0    0    0  501 -0.00000000000E+00 -0.00000000000E+00 -0.39432309616E+02  0.39432309616E+02  0.00000000000E+00 0. -1.
         35    2    1    2    0    0  0.00000000000E+00  0.71054273576E-14  0.46258581123E+03  0.54145043046E+03  0.28139462663E+03 0.  0.
         25    2    3    3    0    0  0.47634620127E+02 -0.21226255147E+02  0.32305297586E+03  0.35041193070E+03  0.12532232454E+03 0.  0.
         25    2    3    3    0    0 -0.47634620127E+02  0.21226255147E+02  0.13953283538E+03  0.19103849976E+03  0.11961055681E+03 0.  0.
          5    1    4    4  502    0  0.17748875563E+02  0.52708274382E+02  0.12868154133E+03  0.14026479904E+03  0.47000000000E+01 0. -1.
         -5    1    4    4    0  502  0.29885744564E+02 -0.73934529528E+02  0.19437143453E+03  0.21014713166E+03  0.47000000000E+01 0. -1.
          5    1    5    5  503    0  0.32230575791E+01 -0.31036250403E+02  0.10607343079E+03  0.11066751853E+03  0.47000000000E+01 0.  1.
         -5    1    5    5    0  503 -0.50857677706E+02  0.52262505550E+02  0.33459404590E+02  0.80370981228E+02  0.47000000000E+01 0.  1.
<mgrwt>
<rscale>  0 0.28139463E+03</rscale>
<asrwt>0</asrwt>
<pdfrwt beam="1">  1        1 0.77233553E-01 0.28139463E+03</pdfrwt>
<pdfrwt beam="2">  1       -1 0.60665095E-02 0.28139463E+03</pdfrwt>
<totfact> 0.58796671E+03</totfact>
</mgrwt>
</event>
<event>
 9    1  0.8285222E-001  0.2771694E+03  0.7818608E-02  0.1097245E+00
         -2   -1    0    0    0  501 -0.00000000000E+00  0.00000000000E+00  0.27162475138E+02  0.27162475138E+02  0.00000000000E+00 0.  1.
          2   -1    0    0  501    0  0.00000000000E+00 -0.00000000000E+00 -0.70706796819E+03  0.70706796819E+03  0.00000000000E+00 0.  1.
         35    2    1    2    0    0  0.71054273576E-14 -0.71054273576E-14 -0.67990549305E+03  0.73423044332E+03  0.27716937859E+03 0.  0.
         25    2    3    3    0    0 -0.84704791153E+01  0.42186107932E+02 -0.23177058301E+03  0.26703066707E+03  0.12544463835E+03 0.  0.
         25    2    3    3    0    0  0.84704791153E+01 -0.42186107932E+02 -0.44813491004E+03  0.46719977625E+03  0.12489722421E+03 0.  0.
          5    1    4    4  502    0 -0.63214654484E+02  0.36922411442E+02 -0.98780402038E+02  0.12304070398E+03  0.47000000000E+01 0.  1.
         -5    1    4    4    0  502  0.54744175369E+02  0.52636964892E+01 -0.13299018097E+03  0.14398996309E+03  0.47000000000E+01 0.  1.
          5    1    5    5  503    0  0.47236783794E+02 -0.58268720435E+02 -0.16994365978E+03  0.18582113718E+03  0.47000000000E+01 0. -1.
         -5    1    5    5    0  503 -0.38766304678E+02  0.16082612503E+02 -0.27819125026E+03  0.28137863907E+03  0.47000000000E+01 0. -1.
<mgrwt>
<rscale>  0 0.27716938E+03</rscale>
<asrwt>0</asrwt>
<pdfrwt beam="1">  1        2 0.10877967E+00 0.27716938E+03</pdfrwt>
<pdfrwt beam="2">  1       -2 0.41788431E-02 0.27716938E+03</pdfrwt>
<totfact> 0.10618848E+04</totfact>
</mgrwt>
</event>
<event>
 9    1  0.8285222E-001  0.2755995E+03  0.7818608E-02  0.1098117E+00
         -1   -1    0    0    0  501 -0.00000000000E+00  0.00000000000E+00  0.67750069198E+03  0.67750069198E+03  0.00000000000E+00 0.  1.
          1   -1    0    0  501    0  0.00000000000E+00 -0.00000000000E+00 -0.28027675298E+02  0.28027675298E+02  0.00000000000E+00 0.  1.
         35    2    1    2    0    0 -0.71054273576E-14  0.35527136788E-14  0.64947301668E+03  0.70552836728E+03  0.27559948773E+03 0.  0.
         25    2    3    3    0    0 -0.52660050081E+02 -0.29798874030E+02  0.33701513460E+03  0.36369292610E+03  0.12260623874E+03 0.  0.
         25    2    3    3    0    0  0.52660050081E+02  0.29798874030E+02  0.31245788208E+03  0.34183544118E+03  0.12474168109E+03 0.  0.
          5    1    4    4  502    0 -0.35815114943E+02 -0.34867395242E+02  0.35167984409E+02  0.61297103005E+02  0.47000000000E+01 0.  1.
         -5    1    4    4    0  502 -0.16844935137E+02  0.50685212117E+01  0.30184715019E+03  0.30239582310E+03  0.47000000000E+01 0.  1.
          5    1    5    5  503    0  0.15818443035E+02 -0.19667231217E+02  0.25329370539E+01  0.25797846692E+02  0.47000000000E+01 0. -1.
         -5    1    5    5    0  503  0.36841607045E+02  0.49466105248E+02  0.30992494503E+03  0.31603759449E+03  0.47000000000E+01 0. -1.
<mgrwt>
<rscale>  0 0.27559949E+03</rscale>
<asrwt>0</asrwt>
<pdfrwt beam="1">  1        1 0.43119506E-02 0.27559949E+03</pdfrwt>
<pdfrwt beam="2">  1       -1 0.10423086E+00 0.27559949E+03</pdfrwt>
<totfact> 0.18772618E+03</totfact>
</mgrwt>
</event>
<event>
 9    1  0.8285222E-001  0.2751478E+03  0.7818608E-02  0.1098369E+00
         -2   -1    0    0    0  501 -0.00000000000E+00  0.00000000000E+00  0.59373660555E+01  0.59373660555E+01  0.00000000000E+00 0.  1.
          2   -1    0    0  501    0  0.00000000000E+00 -0.00000000000E+00 -0.31877064319E+04  0.31877064319E+04  0.00000000000E+00 0.  1.
         35    2    1    2    0    0  0.00000000000E+00  0.53290705182E-14 -0.31817690659E+04  0.31936437980E+04  0.27514781456E+03 0.  0.
         25    2    3    3    0    0  0.46188198576E+02  0.89285788158E+01 -0.12024434374E+04  0.12098618432E+04  0.12522935067E+03 0.  0.
         25    2    3    3    0    0 -0.46188198576E+02 -0.89285788158E+01 -0.19793256285E+04  0.19837819548E+04  0.12428930527E+03 0.  0.
          5    1    4    4  502    0  0.86732866637E+02 -0.50732482696E+01 -0.66104761361E+03  0.66674910233E+03  0.47000000000E+01 0.  1.
         -5    1    4    4    0  502 -0.40544668062E+02  0.14001827085E+02 -0.54139582378E+03  0.54311274085E+03  0.47000000000E+01 0.  1.
          5    1    5    5  503    0  0.18733618441E+02 -0.33567648781E+02 -0.13611230681E+04  0.13616739081E+04  0.47000000000E+01 0.  1.
         -5    1    5    5    0  503 -0.64921817017E+02  0.24639069966E+02 -0.61820256036E+03  0.62210804667E+03  0.47000000000E+01 0.  1.
<mgrwt>
<rscale>  0 0.27514781E+03</rscale>
<asrwt>0</asrwt>
<pdfrwt beam="1">  1        2 0.49041607E+00 0.27514781E+03</pdfrwt>
<pdfrwt beam="2">  1       -2 0.91344149E-03 0.27514781E+03</pdfrwt>
<totfact> 0.39024079E+03</totfact>
</mgrwt>
</event>
<event>
 9    1  0.8285222E-001  0.2766940E+03  0.7818608E-02  0.1097508E+00
          2   -1    0    0  501    0  0.00000000000E+00  0.00000000000E+00  0.20296888760E+04  0.20296888760E+04  0.00000000000E+00 0.  1.
         -2   -1    0    0    0  501 -0.00000000000E+00 -0.00000000000E+00 -0.94299616320E+01  0.94299616320E+01  0.00000000000E+00 0.  1.
         35    2    1    2    0    0  0.71054273576E-14  0.71054273576E-14  0.20202589144E+04  0.20391188376E+04  0.27669396976E+03 0.  0.
         25    2    3    3    0    0 -0.30341198616E+02 -0.40907874878E+02  0.80032031723E+03  0.81159971466E+03  0.12484968606E+03 0.  0.
         25    2    3    3    0    0  0.30341198616E+02  0.40907874878E+02  0.12199385971E+04  0.12275191230E+04  0.12632883245E+03 0.  0.
          5    1    4    4  502    0 -0.20603380670E+02 -0.18675479247E+02  0.31103046813E+02  0.41985263381E+02  0.47000000000E+01 0. -1.
         -5    1    4    4    0  502 -0.97378179464E+01 -0.22232395631E+02  0.76921727042E+03  0.76961445128E+03  0.47000000000E+01 0. -1.
          5    1    5    5  503    0  0.73529618165E+02  0.33511308527E+02  0.99612999629E+03  0.99941316384E+03  0.47000000000E+01 0. -1.
         -5    1    5    5    0  503 -0.43188419549E+02  0.73965663508E+01  0.22380860083E+03  0.22810595911E+03  0.47000000000E+01 0. -1.
<mgrwt>
<rscale>  0 0.27669397E+03</rscale>
<asrwt>0</asrwt>
<pdfrwt beam="1">  1        2 0.31225948E+00 0.27669397E+03</pdfrwt>
<pdfrwt beam="2">  1       -2 0.14507649E-02 0.27669397E+03</pdfrwt>
<totfact> 0.88792408E+03</totfact>
</mgrwt>
</event>
<event>
 9    1  0.8285222E-001  0.2798033E+03  0.7818608E-02  0.1095796E+00
         -2   -1    0    0    0  501 -0.00000000000E+00  0.00000000000E+00  0.24667884312E+03  0.24667884312E+03  0.00000000000E+00 0. -1.
          2   -1    0    0  501    0  0.00000000000E+00 -0.00000000000E+00 -0.79343965804E+02  0.79343965804E+02  0.00000000000E+00 0. -1.
         35    2    1    2    0    0  0.00000000000E+00 -0.71054273576E-14  0.16733487732E+03  0.32602280893E+03  0.27980334303E+03 0.  0.
         25    2    3    3    0    0 -0.34101499471E+02 -0.39540159518E+02  0.48950958353E+02  0.14642643199E+03  0.12774258170E+03 0.  0.
         25    2    3    3    0    0  0.34101499471E+02  0.39540159518E+02  0.11838391896E+03  0.17959637694E+03  0.12455428478E+03 0.  0.
          5    1    4    4  502    0  0.32601172564E+02 -0.43565721989E+02  0.57015579214E+02  0.78953624730E+02  0.47000000000E+01 0. -1.
         -5    1    4    4    0  502 -0.66702672035E+02  0.40255624715E+01 -0.80646208610E+01  0.67472807259E+02  0.47000000000E+01 0. -1.
          5    1    5    5  503    0 -0.47125392516E+02  0.10182072728E+02  0.46115805118E+02  0.66882245077E+02  0.47000000000E+01 0. -1.
         -5    1    5    5    0  503  0.81226891987E+02  0.29358086790E+02  0.72268113847E+02  0.11271413186E+03  0.47000000000E+01 0. -1.
<mgrwt>
<rscale>  0 0.27980334E+03</rscale>
<asrwt>0</asrwt>
<pdfrwt beam="1">  1        2 0.12206764E-01 0.27980334E+03</pdfrwt>
<pdfrwt beam="2">  1       -2 0.37950591E-01 0.27980334E+03</pdfrwt>
<totfact> 0.32849471E+03</totfact>
</mgrwt>
</event>
<event>
 9    1  0.8285222E-001  0.2750078E+03  0.7818608E-02  0.1098447E+00
          1   -1    0    0  501    0  0.00000000000E+00  0.00000000000E+00  0.19152666242E+04  0.19152666242E+04  0.00000000000E+00 0. -1.
         -1   -1    0    0    0  501 -0.00000000000E+00 -0.00000000000E+00 -0.98719016310E+01  0.98719016310E+01  0.00000000000E+00 0. -1.
         35    2    1    2    0    0 -0.71054273576E-14  0.14210854715E-13  0.19053947226E+04  0.19251385259E+04  0.27500780870E+03 0.  0.
         25    2    3    3    0    0  0.62578509449E+01 -0.54206845540E+02  0.10552496408E+04  0.10640342009E+04  0.12505772056E+03 0.  0.
         25    2    3    3    0    0 -0.62578509449E+01  0.54206845540E+02  0.85014508178E+03  0.86110432494E+03  0.12560436123E+03 0.  0.
          5    1    4    4  502    0 -0.89585529313E+01 -0.80234430534E+02  0.40099125805E+03  0.40906466304E+03  0.47000000000E+01 0. -1.
         -5    1    4    4    0  502  0.15216403876E+02  0.26027584994E+02  0.65425838276E+03  0.65496953787E+03  0.47000000000E+01 0. -1.
          5    1    5    5  503    0 -0.50679666710E+02  0.30225352522E+02  0.18982485546E+03  0.19884055498E+03  0.47000000000E+01 0.  1.
         -5    1    5    5    0  503  0.44421815765E+02  0.23981493018E+02  0.66032022632E+03  0.66226376997E+03  0.47000000000E+01 0.  1.
<mgrwt>
<rscale>  0 0.27500781E+03</rscale>
<asrwt>0</asrwt>
<pdfrwt beam="1">  1        1 0.29465611E+00 0.27500781E+03</pdfrwt>
<pdfrwt beam="2">  1       -1 0.15187556E-02 0.27500781E+03</pdfrwt>
<totfact> 0.39252497E+03</totfact>
</mgrwt>
</event>
<event>
 9    1  0.8285222E-001  0.2750320E+03  0.7818608E-02  0.1098434E+00
         -2   -1    0    0    0  501 -0.00000000000E+00  0.00000000000E+00  0.16335746054E+03  0.16335746054E+03  0.00000000000E+00 0. -1.
          2   -1    0    0  501    0  0.00000000000E+00 -0.00000000000E+00 -0.11576241601E+03  0.11576241601E+03  0.00000000000E+00 0. -1.
         35    2    1    2    0    0  0.00000000000E+00  0.00000000000E+00  0.47595044536E+02  0.27911987655E+03  0.27503202944E+03 0.  0.
         25    2    3    3    0    0  0.31807283311E+02 -0.36554414417E+02  0.51099757361E+02  0.14489200136E+03  0.12662771565E+03 0.  0.
         25    2    3    3    0    0 -0.31807283311E+02  0.36554414417E+02 -0.35047128251E+01  0.13422787519E+03  0.12512757882E+03 0.  0.
          5    1    4    4  502    0  0.31143511577E+02  0.14706184681E+02  0.79020484509E+02  0.86327962754E+02  0.47000000000E+01 0.  1.
         -5    1    4    4    0  502  0.66377173381E+00 -0.51260599099E+02 -0.27920727148E+02  0.58564038602E+02  0.47000000000E+01 0.  1.
          5    1    5    5  503    0 -0.72117545673E+02 -0.93724971681E+01 -0.29927691227E+01  0.72937169975E+02  0.47000000000E+01 0. -1.
         -5    1    5    5    0  503  0.40310262362E+02  0.45926911586E+02 -0.51194370244E+00  0.61290705216E+02  0.47000000000E+01 0. -1.
<mgrwt>
<rscale>  0 0.27503203E+03</rscale>
<asrwt>0</asrwt>
<pdfrwt beam="1">  1        2 0.17809603E-01 0.27503203E+03</pdfrwt>
<pdfrwt beam="2">  1       -2 0.25131917E-01 0.27503203E+03</pdfrwt>
<totfact> 0.44490319E+03</totfact>
</mgrwt>
</event>
<event>
 9    1  0.8285222E-001  0.2694008E+03  0.7818608E-02  0.1101623E+00
         -1   -1    0    0    0  501 -0.00000000000E+00  0.00000000000E+00  0.77878534342E+02  0.77878534342E+02  0.00000000000E+00 0. -1.
          1   -1    0    0  501    0  0.00000000000E+00 -0.00000000000E+00 -0.23298074077E+03  0.23298074077E+03  0.00000000000E+00 0. -1.
         35    2    1    2    0    0 -0.71054273576E-14 -0.35527136788E-14 -0.15510220642E+03  0.31085927511E+03  0.26940080639E+03 0.  0.
         25    2    3    3    0    0  0.20804417939E+02 -0.78661124626E+00 -0.25618742802E+02  0.12912482071E+03  0.12483371651E+03 0.  0.
         25    2    3    3    0    0 -0.20804417939E+02  0.78661124626E+00 -0.12948346362E+03  0.18173445440E+03  0.12580938757E+03 0.  0.
          5    1    4    4  502    0  0.45276493460E+02  0.42391860474E+02 -0.43782184901E+02  0.76065763713E+02  0.47000000000E+01 0. -1.
         -5    1    4    4    0  502 -0.24472075521E+02 -0.43178471720E+02  0.18163442099E+02  0.53059056996E+02  0.47000000000E+01 0. -1.
          5    1    5    5  503    0 -0.48487260144E+00 -0.29827781560E+02 -0.14000556804E+03  0.14322562877E+03  0.47000000000E+01 0.  1.
         -5    1    5    5    0  503 -0.20319545337E+02  0.30614392806E+02  0.10522104422E+02  0.38508825626E+02  0.47000000000E+01 0.  1.
<mgrwt>
<rscale>  0 0.26940081E+03</rscale>
<asrwt>0</asrwt>
<pdfrwt beam="1">  1        1 0.35843191E-01 0.26940081E+03</pdfrwt>
<pdfrwt beam="2">  1       -1 0.11981313E-01 0.26940081E+03</pdfrwt>
<totfact> 0.55015266E+03</totfact>
</mgrwt>
</event>
<event>
 9    1  0.8285222E-001  0.2742594E+03  0.7818608E-02  0.1098866E+00
          1   -1    0    0  501    0  0.00000000000E+00  0.00000000000E+00  0.96511742279E+03  0.96511742279E+03  0.00000000000E+00 0.  1.
         -1   -1    0    0    0  501 -0.00000000000E+00 -0.00000000000E+00 -0.19484212609E+02  0.19484212609E+02  0.00000000000E+00 0.  1.
         35    2    1    2    0    0  0.00000000000E+00  0.17763568394E-14  0.94563321018E+03  0.98460163540E+03  0.27425938860E+03 0.  0.
         25    2    3    3    0    0  0.43841551755E+02 -0.44656398597E+01  0.57302752291E+03  0.58795398295E+03  0.12404563862E+03 0.  0.
         25    2    3    3    0    0 -0.43841551755E+02  0.44656398597E+01  0.37260568727E+03  0.39664765244E+03  0.12865589144E+03 0.  0.
          5    1    4    4  502    0  0.59721655341E+02 -0.26029739171E+02  0.14463765481E+03  0.15870212547E+03  0.47000000000E+01 0. -1.
         -5    1    4    4    0  502 -0.15880103586E+02  0.21564099311E+02  0.42838986810E+03  0.42925185749E+03  0.47000000000E+01 0. -1.
          5    1    5    5  503    0  0.28311136222E+02 -0.13319639828E+02  0.25828655703E+03  0.26021715697E+03  0.47000000000E+01 0. -1.
         -5    1    5    5    0  503 -0.72152687978E+02  0.17785279688E+02  0.11431913024E+03  0.13643049547E+03  0.47000000000E+01 0. -1.
<mgrwt>
<rscale>  0 0.27425939E+03</rscale>
<asrwt>0</asrwt>
<pdfrwt beam="1">  1        1 0.14847957E+00 0.27425939E+03</pdfrwt>
<pdfrwt beam="2">  1       -1 0.29975719E-02 0.27425939E+03</pdfrwt>
<totfact> 0.64125414E+03</totfact>
</mgrwt>
</event>
<event>
 9    1  0.8285222E-001  0.2734657E+03  0.7818608E-02  0.1099312E+00
          4   -1    0    0  501    0  0.00000000000E+00  0.00000000000E+00  0.90661188672E+02  0.90661188672E+02  0.00000000000E+00 0. -1.
         -4   -1    0    0    0  501 -0.00000000000E+00 -0.00000000000E+00 -0.20621696983E+03  0.20621696983E+03  0.00000000000E+00 0. -1.
         35    2    1    2    0    0  0.00000000000E+00  0.35527136788E-14 -0.11555578116E+03  0.29687815850E+03  0.27346572443E+03 0.  0.
         25    2    3    3    0    0  0.26513820452E+02 -0.19133857036E+02 -0.68031743986E+01  0.12849878981E+03  0.12408291035E+03 0.  0.
         25    2    3    3    0    0 -0.26513820452E+02  0.19133857036E+02 -0.10875260676E+03  0.16837936869E+03  0.12431972958E+03 0.  0.
          5    1    4    4  502    0 -0.45643559406E+02 -0.29920795184E+02  0.22824022581E+01  0.54825977964E+02  0.47000000000E+01 0. -1.
         -5    1    4    4    0  502  0.72157379857E+02  0.10786938147E+02 -0.90855766567E+01  0.73672811848E+02  0.47000000000E+01 0. -1.
          5    1    5    5  503    0 -0.75505587159E+02  0.18730186366E+02 -0.78441932599E+02  0.11057640057E+03  0.47000000000E+01 0. -1.
         -5    1    5    5    0  503  0.48991766707E+02  0.40367067004E+00 -0.30310674159E+02  0.57802968117E+02  0.47000000000E+01 0. -1.
<mgrwt>
<rscale>  0 0.27346572E+03</rscale>
<asrwt>0</asrwt>
<pdfrwt beam="1">  1        4 0.13947875E-01 0.27346572E+03</pdfrwt>
<pdfrwt beam="2">  1       -4 0.31725687E-01 0.27346572E+03</pdfrwt>
<totfact> 0.76657038E+02</totfact>
</mgrwt>
</event>
<event>
 9    1  0.8285222E-001  0.2755369E+03  0.7818608E-02  0.1098152E+00
         -2   -1    0    0    0  501 -0.00000000000E+00  0.00000000000E+00  0.17905484934E+03  0.17905484934E+03  0.00000000000E+00 0.  1.
          2   -1    0    0  501    0  0.00000000000E+00 -0.00000000000E+00 -0.10600185262E+03  0.10600185262E+03  0.00000000000E+00 0.  1.
         35    2    1    2    0    0 -0.35527136788E-14  0.00000000000E+00  0.73052996719E+02  0.28505670196E+03  0.27553689953E+03 0.  0.
         25    2    3    3    0    0 -0.15432226828E+02 -0.42609075773E+02 -0.34832389748E+01  0.13193225189E+03  0.12385596139E+03 0.  0.
         25    2    3    3    0    0  0.15432226828E+02  0.42609075773E+02  0.76536235694E+02  0.15312445007E+03  0.12464194668E+03 0.  0.
          5    1    4    4  502    0  0.44626517084E+02 -0.16031488276E+02 -0.34813731017E+02  0.59013731543E+02  0.47000000000E+01 0.  1.
         -5    1    4    4    0  502 -0.60058743912E+02 -0.26577587497E+02  0.31330492042E+02  0.72918520343E+02  0.47000000000E+01 0.  1.
          5    1    5    5  503    0 -0.29931935649E+02 -0.29650675040E+02  0.45564869970E+02  0.62236088223E+02  0.47000000000E+01 0.  1.
         -5    1    5    5    0  503  0.45364162477E+02  0.72259750813E+02  0.30971365724E+02  0.90888361849E+02  0.47000000000E+01 0.  1.
<mgrwt>
<rscale>  0 0.27553690E+03</rscale>
<asrwt>0</asrwt>
<pdfrwt beam="1">  1        2 0.16307977E-01 0.27553690E+03</pdfrwt>
<pdfrwt beam="2">  1       -2 0.27546900E-01 0.27553690E+03</pdfrwt>
<totfact> 0.41889048E+03</totfact>
</mgrwt>
</event>
<event>
 9    1  0.8285222E-001  0.3250416E+03  0.7818608E-02  0.1073352E+00
          2   -1    0    0  501    0  0.00000000000E+00  0.00000000000E+00  0.22840394524E+03  0.22840394524E+03  0.00000000000E+00 0.  1.
         -2   -1    0    0    0  501 -0.00000000000E+00 -0.00000000000E+00 -0.11564166887E+03  0.11564166887E+03  0.00000000000E+00 0.  1.
         35    2    1    2    0    0  0.00000000000E+00  0.14210854715E-13  0.11276227637E+03  0.34404561411E+03  0.32504161829E+03 0.  0.
         25    2    3    3    0    0 -0.42039252989E+02 -0.84608778711E+02  0.10719658316E+03  0.18992609490E+03  0.12511942238E+03 0.  0.
         25    2    3    3    0    0  0.42039252989E+02  0.84608778711E+02  0.55656932037E+01  0.15411951921E+03  0.12163841924E+03 0.  0.
          5    1    4    4  502    0  0.33692882508E+02 -0.65943251071E+02  0.29853390879E+02  0.79981483111E+02  0.47000000000E+01 0.  1.
         -5    1    4    4    0  502 -0.75732135497E+02 -0.18665527640E+02  0.77343192283E+02  0.10994461179E+03  0.47000000000E+01 0.  1.
          5    1    5    5  503    0  0.55691929899E+02 -0.46673097765E+01  0.25345385280E+02  0.61545539167E+02  0.47000000000E+01 0.  1.
         -5    1    5    5    0  503 -0.13652676910E+02  0.89276088488E+02 -0.19779692076E+02  0.92573980043E+02  0.47000000000E+01 0.  1.
<mgrwt>
<rscale>  0 0.32504162E+03</rscale>
<asrwt>0</asrwt>
<pdfrwt beam="1">  1        2 0.35139068E-01 0.32504162E+03</pdfrwt>
<pdfrwt beam="2">  1       -2 0.17791026E-01 0.32504162E+03</pdfrwt>
<totfact> 0.37869269E+03</totfact>
</mgrwt>
</event>
<event>
 9    1  0.8285222E-001  0.2782553E+03  0.7818608E-02  0.1096646E+00
          2   -1    0    0  501    0  0.00000000000E+00  0.00000000000E+00  0.64552904775E+02  0.64552904775E+02  0.00000000000E+00 0.  1.
         -2   -1    0    0    0  501 -0.00000000000E+00 -0.00000000000E+00 -0.29985479811E+03  0.29985479811E+03  0.00000000000E+00 0.  1.
         35    2    1    2    0    0  0.71054273576E-14  0.00000000000E+00 -0.23530189334E+03  0.36440770289E+03  0.27825526574E+03 0.  0.
         25    2    3    3    0    0 -0.35084282429E+02  0.53560563986E+01 -0.18103186444E+03  0.22329095263E+03  0.12580428996E+03 0.  0.
         25    2    3    3    0    0  0.35084282429E+02 -0.53560563986E+01 -0.54270028899E+02  0.14111675025E+03  0.12533597629E+03 0.  0.
          5    1    4    4  502    0 -0.14129496922E+02 -0.17603116976E+02 -0.18936842907E+03  0.19076688481E+03  0.47000000000E+01 0.  1.
         -5    1    4    4    0  502 -0.20954785507E+02  0.22959173374E+02  0.83365646375E+01  0.32524067821E+02  0.47000000000E+01 0.  1.
          5    1    5    5  503    0  0.42312985573E+02  0.16117485260E+02 -0.88661616300E+02  0.99665110666E+02  0.47000000000E+01 0.  1.
         -5    1    5    5    0  503 -0.72287031434E+01 -0.21473541658E+02  0.34391587401E+02  0.41451639587E+02  0.47000000000E+01 0.  1.
<mgrwt>
<rscale>  0 0.27825527E+03</rscale>
<asrwt>0</asrwt>
<pdfrwt beam="1">  1        2 0.99312160E-02 0.27825527E+03</pdfrwt>
<pdfrwt beam="2">  1       -2 0.46131508E-01 0.27825527E+03</pdfrwt>
<totfact> 0.29056794E+03</totfact>
</mgrwt>
</event>
<event>
 9    1  0.8285222E-001  0.2769702E+03  0.7818608E-02  0.1097355E+00
          3   -1    0    0  501    0  0.00000000000E+00  0.00000000000E+00  0.16915018857E+03  0.16915018857E+03  0.00000000000E+00 0.  1.
         -3   -1    0    0    0  501 -0.00000000000E+00 -0.00000000000E+00 -0.11337926939E+03  0.11337926939E+03  0.00000000000E+00 0.  1.
         35    2    1    2    0    0  0.00000000000E+00 -0.17763568394E-14  0.55770919176E+02  0.28252945796E+03  0.27697021354E+03 0.  0.
         25    2    3    3    0    0  0.52432242688E+02 -0.65600891744E+01  0.58095720368E+02  0.14756936645E+03  0.12493770587E+03 0.  0.
         25    2    3    3    0    0 -0.52432242688E+02  0.65600891744E+01 -0.23248011922E+01  0.13496009151E+03  0.12416379003E+03 0.  0.
          5    1    4    4  502    0  0.43516747326E+02 -0.16719405819E+02 -0.31745188014E+02  0.56595872560E+02  0.47000000000E+01 0.  1.
         -5    1    4    4    0  502  0.89154953624E+01  0.10159316644E+02  0.89840908383E+02  0.90973493894E+02  0.47000000000E+01 0.  1.
          5    1    5    5  503    0 -0.41100560914E+02  0.60310086926E+02  0.19461146807E+02  0.75679514583E+02  0.47000000000E+01 0.  1.
         -5    1    5    5    0  503 -0.11331681774E+02 -0.53749997752E+02 -0.21785947999E+02  0.59280576924E+02  0.47000000000E+01 0.  1.
<mgrwt>
<rscale>  0 0.27697021E+03</rscale>
<asrwt>0</asrwt>
<pdfrwt beam="1">  1        3 0.26023106E-01 0.27697021E+03</pdfrwt>
<pdfrwt beam="2">  1       -3 0.17442965E-01 0.27697021E+03</pdfrwt>
<totfact> 0.10150256E+03</totfact>
</mgrwt>
</event>
<event>
 9    1  0.8285222E-001  0.2753330E+03  0.7818608E-02  0.1098266E+00
          1   -1    0    0  501    0  0.00000000000E+00  0.00000000000E+00  0.86115982775E+03  0.86115982775E+03  0.00000000000E+00 0. -1.
         -1   -1    0    0    0  501 -0.00000000000E+00 -0.00000000000E+00 -0.22007601810E+02  0.22007601810E+02  0.00000000000E+00 0. -1.
         35    2    1    2    0    0  0.00000000000E+00  0.00000000000E+00  0.83915222594E+03  0.88316742956E+03  0.27533298084E+03 0.  0.
         25    2    3    3    0    0  0.13314718106E+02  0.10125425013E+02  0.59489194841E+03  0.60815457415E+03  0.12520283472E+03 0.  0.
         25    2    3    3    0    0 -0.13314718106E+02 -0.10125425013E+02  0.24426027753E+03  0.27501285541E+03  0.12525646296E+03 0.  0.
          5    1    4    4  502    0 -0.12661308571E+02 -0.26207363949E+02  0.51995797375E+03  0.52079316348E+03  0.47000000000E+01 0. -1.
         -5    1    4    4    0  502  0.25976026677E+02  0.36332788962E+02  0.74933974662E+02  0.87361410671E+02  0.47000000000E+01 0. -1.
          5    1    5    5  503    0  0.40617729804E+02 -0.21104448480E+02  0.32932162262E+02  0.56584582983E+02  0.47000000000E+01 0.  1.
         -5    1    5    5    0  503 -0.53932447911E+02  0.10979023467E+02  0.21132811527E+03  0.21842827243E+03  0.47000000000E+01 0.  1.
<mgrwt>
<rscale>  0 0.27533298E+03</rscale>
<asrwt>0</asrwt>
<pdfrwt beam="1">  1        1 0.13248610E+00 0.27533298E+03</pdfrwt>
<pdfrwt beam="2">  1       -1 0.33857856E-02 0.27533298E+03</pdfrwt>
<totfact> 0.64575330E+03</totfact>
</mgrwt>
</event>
<event>
 9    1  0.8285222E-001  0.2737670E+03  0.7818608E-02  0.1099143E+00
         -2   -1    0    0    0  501 -0.00000000000E+00  0.00000000000E+00  0.15582448122E+03  0.15582448122E+03  0.00000000000E+00 0. -1.
          2   -1    0    0  501    0  0.00000000000E+00 -0.00000000000E+00 -0.12024485620E+03  0.12024485620E+03  0.00000000000E+00 0. -1.
         35    2    1    2    0    0  0.00000000000E+00 -0.17763568394E-14  0.35579625022E+02  0.27606933742E+03  0.27376699828E+03 0.  0.
         25    2    3    3    0    0  0.50658139835E+02  0.13501967341E+02  0.31951976795E+02  0.13915237926E+03  0.12487556038E+03 0.  0.
         25    2    3    3    0    0 -0.50658139835E+02 -0.13501967341E+02  0.36276482272E+01  0.13691695816E+03  0.12642999385E+03 0.  0.
          5    1    4    4  502    0  0.10880698731E+02 -0.36048335041E+02 -0.31436212278E+02  0.49276744074E+02  0.47000000000E+01 0. -1.
         -5    1    4    4    0  502  0.39777441104E+02  0.49550302382E+02  0.63388189072E+02  0.89875635190E+02  0.47000000000E+01 0. -1.
          5    1    5    5  503    0  0.13134565915E+02 -0.26284755364E+02  0.49091506988E+02  0.57406195177E+02  0.47000000000E+01 0. -1.
         -5    1    5    5    0  503 -0.63792705750E+02  0.12782788023E+02 -0.45463858761E+02  0.79510762982E+02  0.47000000000E+01 0. -1.
<mgrwt>
<rscale>  0 0.27376700E+03</rscale>
<asrwt>0</asrwt>
<pdfrwt beam="1">  1        2 0.18499209E-01 0.27376700E+03</pdfrwt>
<pdfrwt beam="2">  1       -2 0.23972997E-01 0.27376700E+03</pdfrwt>
<totfact> 0.46254743E+03</totfact>
</mgrwt>
</event>
<event>
 9    1  0.8285222E-001  0.2766554E+03  0.7818608E-02  0.1097530E+00
         -1   -1    0    0    0  501 -0.00000000000E+00  0.00000000000E+00  0.30748928274E+02  0.30748928274E+02  0.00000000000E+00 0. -1.
          1   -1    0    0  501    0  0.00000000000E+00 -0.00000000000E+00 -0.62228346289E+03  0.62228346289E+03  0.00000000000E+00 0. -1.
         35    2    1    2    0    0  0.14210854715E-13  0.00000000000E+00 -0.59153453461E+03  0.65303239116E+03  0.27665537816E+03 0.  0.
         25    2    3    3    0    0  0.35367409932E+02  0.49480828017E+02 -0.29177994267E+03  0.32301230535E+03  0.12450786496E+03 0.  0.
         25    2    3    3    0    0 -0.35367409932E+02 -0.49480828017E+02 -0.29975459194E+03  0.33002008581E+03  0.12394045192E+03 0.  0.
          5    1    4    4  502    0  0.47344611642E+02 -0.66944568089E+01 -0.24241410670E+03  0.24712955535E+03  0.47000000000E+01 0.  1.
         -5    1    4    4    0  502 -0.11977201710E+02  0.56175284826E+02 -0.49365835979E+02  0.75882750003E+02  0.47000000000E+01 0.  1.
          5    1    5    5  503    0 -0.76798104280E+02 -0.12139352272E+02 -0.13310516047E+03  0.15422187406E+03  0.47000000000E+01 0.  1.
         -5    1    5    5    0  503  0.41430694349E+02 -0.37341475744E+02 -0.16664943147E+03  0.17579821175E+03  0.47000000000E+01 0.  1.
<mgrwt>
<rscale>  0 0.27665538E+03</rscale>
<asrwt>0</asrwt>
<pdfrwt beam="1">  1        1 0.95735924E-01 0.27665538E+03</pdfrwt>
<pdfrwt beam="2">  1       -1 0.47306040E-02 0.27665538E+03</pdfrwt>
<totfact> 0.63701878E+03</totfact>
</mgrwt>
</event>
<event>
 9    1  0.8285222E-001  0.2964618E+03  0.7818608E-02  0.1087023E+00
          1   -1    0    0  501    0  0.00000000000E+00  0.00000000000E+00  0.57855145943E+02  0.57855145943E+02  0.00000000000E+00 0. -1.
         -1   -1    0    0    0  501 -0.00000000000E+00 -0.00000000000E+00 -0.37978310082E+03  0.37978310082E+03  0.00000000000E+00 0. -1.
         35    2    1    2    0    0 -0.10658141036E-13  0.71054273576E-14 -0.32192795488E+03  0.43763824676E+03  0.29646184729E+03 0.  0.
         25    2    3    3    0    0 -0.18005658490E+02  0.29017102209E+02 -0.54019107783E+02  0.13989314577E+03  0.12444208400E+03 0.  0.
         25    2    3    3    0    0  0.18005658490E+02 -0.29017102209E+02 -0.26790884709E+03  0.29774510099E+03  0.12534272558E+03 0.  0.
          5    1    4    4  502    0  0.49720175081E+02  0.15405638239E+02 -0.31096159435E+00  0.52264865797E+02  0.47000000000E+01 0. -1.
         -5    1    4    4    0  502 -0.67725833571E+02  0.13611463970E+02 -0.53708146189E+02  0.87628279974E+02  0.47000000000E+01 0. -1.
          5    1    5    5  503    0 -0.15641006792E+02  0.23464234020E+02 -0.69759664437E+01  0.29427291405E+02  0.47000000000E+01 0. -1.
         -5    1    5    5    0  503  0.33646665282E+02 -0.52481336229E+02 -0.26093288065E+03  0.26831780959E+03  0.47000000000E+01 0. -1.
<mgrwt>
<rscale>  0 0.29646185E+03</rscale>
<asrwt>0</asrwt>
<pdfrwt beam="1">  1        1 0.89007915E-02 0.29646185E+03</pdfrwt>
<pdfrwt beam="2">  1       -1 0.58428170E-01 0.29646185E+03</pdfrwt>
<totfact> 0.22984801E+03</totfact>
</mgrwt>
</event>
<event>
 9    1  0.8285222E-001  0.2833287E+03  0.7818608E-02  0.1093885E+00
         -2   -1    0    0    0  501 -0.00000000000E+00  0.00000000000E+00  0.22357851306E+02  0.22357851306E+02  0.00000000000E+00 0.  1.
          2   -1    0    0  501    0  0.00000000000E+00 -0.00000000000E+00 -0.89761680735E+03  0.89761680735E+03  0.00000000000E+00 0.  1.
         35    2    1    2    0    0 -0.71054273576E-14  0.00000000000E+00 -0.87525895604E+03  0.91997465865E+03  0.28332866504E+03 0.  0.
         25    2    3    3    0    0 -0.25637532218E+02  0.36194747736E+02 -0.27642049598E+03  0.30656311611E+03  0.12492121814E+03 0.  0.
         25    2    3    3    0    0  0.25637532218E+02 -0.36194747736E+02 -0.59883846006E+03  0.61341154254E+03  0.12529515733E+03 0.  0.
          5    1    4    4  502    0 -0.40084612695E+02  0.34563305933E+02 -0.28440272777E+03  0.28932403954E+03  0.47000000000E+01 0.  1.
         -5    1    4    4    0  502  0.14447080478E+02  0.16314418029E+01  0.79822317918E+01  0.17239076572E+02  0.47000000000E+01 0.  1.
          5    1    5    5  503    0 -0.24873965753E+02 -0.65721243735E+02 -0.25265999977E+03  0.26229213014E+03  0.47000000000E+01 0.  1.
         -5    1    5    5    0  503  0.50511497971E+02  0.29526496000E+02 -0.34617846029E+03  0.35111941240E+03  0.47000000000E+01 0.  1.
<mgrwt>
<rscale>  0 0.28332867E+03</rscale>
<asrwt>0</asrwt>
<pdfrwt beam="1">  1        2 0.13809490E+00 0.28332867E+03</pdfrwt>
<pdfrwt beam="2">  1       -2 0.34396692E-02 0.28332867E+03</pdfrwt>
<totfact> 0.10503488E+04</totfact>
</mgrwt>
</event>
<event>
 9    1  0.8285222E-001  0.2768509E+03  0.7818608E-02  0.1097421E+00
          1   -1    0    0  501    0  0.00000000000E+00  0.00000000000E+00  0.29737790307E+04  0.29737790307E+04  0.00000000000E+00 0.  1.
         -1   -1    0    0    0  501 -0.00000000000E+00 -0.00000000000E+00 -0.64435188846E+01  0.64435188846E+01  0.00000000000E+00 0.  1.
         35    2    1    2    0    0  0.00000000000E+00 -0.35527136788E-14  0.29673355118E+04  0.29802225496E+04  0.27685087208E+03 0.  0.
         25    2    3    3    0    0  0.48494623706E+02  0.89941003848E+00  0.12161734430E+04  0.12235162317E+04  0.12474609553E+03 0.  0.
         25    2    3    3    0    0 -0.48494623706E+02 -0.89941003848E+00  0.17511620688E+04  0.17567063179E+04  0.13075151438E+03 0.  0.
          5    1    4    4  502    0 -0.16793929870E+02  0.47788199731E+02  0.58957768842E+03  0.59176827289E+03  0.47000000000E+01 0. -1.
         -5    1    4    4    0  502  0.65288553576E+02 -0.46888789693E+02  0.62659575459E+03  0.63174795884E+03  0.47000000000E+01 0. -1.
          5    1    5    5  503    0  0.37513470167E+02  0.17975800702E+02  0.30515893334E+03  0.30801697104E+03  0.47000000000E+01 0. -1.
         -5    1    5    5    0  503 -0.86008093872E+02 -0.18875210741E+02  0.14460031355E+04  0.14486893468E+04  0.47000000000E+01 0. -1.
<mgrwt>
<rscale>  0 0.27685087E+03</rscale>
<asrwt>0</asrwt>
<pdfrwt beam="1">  1        1 0.45750337E+00 0.27685087E+03</pdfrwt>
<pdfrwt beam="2">  1       -1 0.99131297E-03 0.27685087E+03</pdfrwt>
<totfact> 0.14378906E+03</totfact>
</mgrwt>
</event>
<event>
 9    1  0.8285222E-001  0.2747499E+03  0.7818608E-02  0.1098591E+00
          2   -1    0    0  501    0  0.00000000000E+00  0.00000000000E+00  0.78356704750E+03  0.78356704750E+03  0.00000000000E+00 0. -1.
         -2   -1    0    0    0  501 -0.00000000000E+00 -0.00000000000E+00 -0.24084576364E+02  0.24084576364E+02  0.00000000000E+00 0. -1.
         35    2    1    2    0    0 -0.35527136788E-14  0.00000000000E+00  0.75948247113E+03  0.80765162386E+03  0.27474992551E+03 0.  0.
         25    2    3    3    0    0  0.27803229417E+02 -0.16382179486E+02  0.53063154937E+03  0.54613390910E+03  0.12510399717E+03 0.  0.
         25    2    3    3    0    0 -0.27803229417E+02  0.16382179486E+02  0.22885092176E+03  0.26151771476E+03  0.12238208763E+03 0.  0.
          5    1    4    4  502    0  0.43872392429E+02  0.16027949307E+02  0.48701942581E+03  0.48927670402E+03  0.47000000000E+01 0. -1.
         -5    1    4    4    0  502 -0.16069163011E+02 -0.32410128793E+02  0.43612123559E+02  0.56857205081E+02  0.47000000000E+01 0. -1.
          5    1    5    5  503    0 -0.43359224464E+02  0.48199125900E+02  0.21251408147E+03  0.22223299239E+03  0.47000000000E+01 0. -1.
         -5    1    5    5    0  503  0.15555995047E+02 -0.31816946414E+02  0.16336840289E+02  0.39284722369E+02  0.47000000000E+01 0. -1.
<mgrwt>
<rscale>  0 0.27474993E+03</rscale>
<asrwt>0</asrwt>
<pdfrwt beam="1">  1        2 0.12054876E+00 0.27474993E+03</pdfrwt>
<pdfrwt beam="2">  1       -2 0.37053200E-02 0.27474993E+03</pdfrwt>
<totfact> 0.11198593E+04</totfact>
</mgrwt>
</event>
<event>
 9    1  0.8285222E-001  0.2670355E+03  0.7818608E-02  0.1102988E+00
         -1   -1    0    0    0  501 -0.00000000000E+00  0.00000000000E+00  0.11985914526E+02  0.11985914526E+02  0.00000000000E+00 0.  1.
          1   -1    0    0  501    0  0.00000000000E+00 -0.00000000000E+00 -0.14873284935E+04  0.14873284935E+04  0.00000000000E+00 0.  1.
         35    2    1    2    0    0  0.00000000000E+00  0.71054273576E-14 -0.14753425790E+04  0.14993144080E+04  0.26703551970E+03 0.  0.
         25    2    3    3    0    0  0.33720373742E+02  0.32028111912E+02 -0.70064566309E+03  0.71323468899E+03  0.12504604277E+03 0.  0.
         25    2    3    3    0    0 -0.33720373742E+02 -0.32028111912E+02 -0.77469691590E+03  0.78607971905E+03  0.12491256800E+03 0.  0.
          5    1    4    4  502    0 -0.31351640005E+02 -0.13084962973E+02 -0.42560992396E+03  0.42698950685E+03  0.47000000000E+01 0.  1.
         -5    1    4    4    0  502  0.65072013747E+02  0.45113074884E+02 -0.27503573914E+03  0.28624518214E+03  0.47000000000E+01 0.  1.
          5    1    5    5  503    0 -0.78720850201E+02 -0.26475177090E+02 -0.39557502570E+03  0.40422716165E+03  0.47000000000E+01 0. -1.
         -5    1    5    5    0  503  0.45000476460E+02 -0.55529348217E+01 -0.37912189020E+03  0.38185255740E+03  0.47000000000E+01 0. -1.
<mgrwt>
<rscale>  0 0.26703552E+03</rscale>
<asrwt>0</asrwt>
<pdfrwt beam="1">  1        1 0.22881966E+00 0.26703552E+03</pdfrwt>
<pdfrwt beam="2">  1       -1 0.18439878E-02 0.26703552E+03</pdfrwt>
<totfact> 0.56319170E+03</totfact>
</mgrwt>
</event>
<event>
 9    1  0.8285222E-001  0.2537573E+03  0.7818608E-02  0.1110953E+00
         -1   -1    0    0    0  501 -0.00000000000E+00  0.00000000000E+00  0.20907899265E+03  0.20907899265E+03  0.00000000000E+00 0.  1.
          1   -1    0    0  501    0  0.00000000000E+00 -0.00000000000E+00 -0.76995725558E+02  0.76995725558E+02  0.00000000000E+00 0.  1.
         35    2    1    2    0    0 -0.17763568394E-14 -0.71054273576E-14  0.13208326709E+03  0.28607471821E+03  0.25375727566E+03 0.  0.
         25    2    3    3    0    0  0.13261986616E+02 -0.24657904358E+02  0.49332181753E+02  0.13329093959E+03  0.12061889522E+03 0.  0.
         25    2    3    3    0    0 -0.13261986616E+02  0.24657904358E+02  0.82751085336E+02  0.15278377862E+03  0.12534451862E+03 0.  0.
          5    1    4    4  502    0 -0.69034872829E+01 -0.13092643778E+02 -0.38921913813E+02  0.41905618151E+02  0.47000000000E+01 0.  1.
         -5    1    4    4    0  502  0.20165473899E+02 -0.11565260580E+02  0.88254095566E+02  0.91385321437E+02  0.47000000000E+01 0.  1.
          5    1    5    5  503    0  0.41812021528E+02 -0.14408836193E+02  0.71449385957E+02  0.84160349680E+02  0.47000000000E+01 0.  1.
         -5    1    5    5    0  503 -0.55074008144E+02  0.39066740551E+02  0.11301699380E+02  0.68623428938E+02  0.47000000000E+01 0.  1.
<mgrwt>
<rscale>  0 0.25375728E+03</rscale>
<asrwt>0</asrwt>
<pdfrwt beam="1">  1        1 0.11845496E-01 0.25375728E+03</pdfrwt>
<pdfrwt beam="2">  1       -1 0.32165999E-01 0.25375728E+03</pdfrwt>
<totfact> 0.45801073E+03</totfact>
</mgrwt>
</event>
<event>
 9    1  0.8285222E-001  0.2778896E+03  0.7818608E-02  0.1096847E+00
         -1   -1    0    0    0  501 -0.00000000000E+00  0.00000000000E+00  0.18181554329E+03  0.18181554329E+03  0.00000000000E+00 0. -1.
          1   -1    0    0  501    0  0.00000000000E+00 -0.00000000000E+00 -0.10618264339E+03  0.10618264339E+03  0.00000000000E+00 0. -1.
         35    2    1    2    0    0  0.00000000000E+00  0.00000000000E+00  0.75632899908E+02  0.28799818668E+03  0.27788958236E+03 0.  0.
         25    2    3    3    0    0 -0.14707669552E+01  0.65540262145E+02  0.63764526749E+02  0.15456796042E+03  0.12460999317E+03 0.  0.
         25    2    3    3    0    0  0.14707669552E+01 -0.65540262145E+02  0.11868373159E+02  0.13343022626E+03  0.11560743005E+03 0.  0.
          5    1    4    4  502    0 -0.56974957398E+02  0.61569377450E+02  0.29482711143E+02  0.89040744979E+02  0.47000000000E+01 0.  1.
         -5    1    4    4    0  502  0.55504190443E+02  0.39708846955E+01  0.34281815606E+02  0.65527215439E+02  0.47000000000E+01 0.  1.
          5    1    5    5  503    0  0.53344626968E+02 -0.55515896297E+02 -0.62288466110E+01  0.77385738339E+02  0.47000000000E+01 0. -1.
         -5    1    5    5    0  503 -0.51873860013E+02 -0.10024365848E+02  0.18097219770E+02  0.56044487925E+02  0.47000000000E+01 0. -1.
<mgrwt>
<rscale>  0 0.27788958E+03</rscale>
<asrwt>0</asrwt>
<pdfrwt beam="1">  1        1 0.16335791E-01 0.27788958E+03</pdfrwt>
<pdfrwt beam="2">  1       -1 0.27971622E-01 0.27788958E+03</pdfrwt>
<totfact> 0.38144431E+03</totfact>
</mgrwt>
</event>
<event>
 9    1  0.8285222E-001  0.2756427E+03  0.7818608E-02  0.1098093E+00
         -1   -1    0    0    0  501 -0.00000000000E+00  0.00000000000E+00  0.25951339415E+03  0.25951339415E+03  0.00000000000E+00 0. -1.
          1   -1    0    0  501    0  0.00000000000E+00 -0.00000000000E+00 -0.73193638371E+02  0.73193638371E+02  0.00000000000E+00 0. -1.
         35    2    1    2    0    0 -0.35527136788E-14  0.71054273576E-14  0.18631975578E+03  0.33270703252E+03  0.27564273634E+03 0.  0.
         25    2    3    3    0    0  0.34974504302E+01 -0.56755710804E+02  0.97459110047E+02  0.16874077053E+03  0.12546603779E+03 0.  0.
         25    2    3    3    0    0 -0.34974504302E+01  0.56755710804E+02  0.88860645735E+02  0.16396626200E+03  0.12552002965E+03 0.  0.
          5    1    4    4  502    0 -0.31387475546E+02  0.29990465239E+02  0.24638551433E+02  0.50137309891E+02  0.47000000000E+01 0.  1.
         -5    1    4    4    0  502  0.34884925976E+02 -0.86746176043E+02  0.72820558614E+02  0.11860346064E+03  0.47000000000E+01 0.  1.
          5    1    5    5  503    0 -0.33831534633E+02  0.65566856393E+02  0.48485352734E+01  0.74089025416E+02  0.47000000000E+01 0. -1.
         -5    1    5    5    0  503  0.30334084202E+02 -0.88111455887E+01  0.84012110462E+02  0.89877236580E+02  0.47000000000E+01 0. -1.
<mgrwt>
<rscale>  0 0.27564274E+03</rscale>
<asrwt>0</asrwt>
<pdfrwt beam="1">  1        1 0.11260560E-01 0.27564274E+03</pdfrwt>
<pdfrwt beam="2">  1       -1 0.39925137E-01 0.27564274E+03</pdfrwt>
<totfact> 0.33705721E+03</totfact>
</mgrwt>
</event>
<event>
 9    1  0.8285222E-001  0.2782656E+03  0.7818608E-02  0.1096640E+00
          4   -1    0    0  501    0  0.00000000000E+00  0.00000000000E+00  0.25165320347E+03  0.25165320347E+03  0.00000000000E+00 0. -1.
         -4   -1    0    0    0  501 -0.00000000000E+00 -0.00000000000E+00 -0.76923059502E+02  0.76923059502E+02  0.00000000000E+00 0. -1.
         35    2    1    2    0    0  0.35527136788E-14  0.00000000000E+00  0.17473014397E+03  0.32857626297E+03  0.27826558784E+03 0.  0.
         25    2    3    3    0    0  0.19471473913E+02  0.59347313779E+02  0.94743122410E+02  0.16875516959E+03  0.12490318679E+03 0.  0.
         25    2    3    3    0    0 -0.19471473913E+02 -0.59347313779E+02  0.79987021557E+02  0.15982109338E+03  0.12346504090E+03 0.  0.
          5    1    4    4  502    0  0.30379963299E+02 -0.33301335604E+02  0.40253612519E+02  0.60616536060E+02  0.47000000000E+01 0. -1.
         -5    1    4    4    0  502 -0.10908489386E+02  0.92648649383E+02  0.54489509891E+02  0.10813863353E+03  0.47000000000E+01 0. -1.
          5    1    5    5  503    0 -0.59592077120E+01 -0.94454535764E+02  0.76436706030E+02  0.12174494450E+03  0.47000000000E+01 0.  1.
         -5    1    5    5    0  503 -0.13512266201E+02  0.35107221985E+02  0.35503155269E+01  0.38076148883E+02  0.47000000000E+01 0.  1.
<mgrwt>
<rscale>  0 0.27826559E+03</rscale>
<asrwt>0</asrwt>
<pdfrwt beam="1">  1        4 0.38715877E-01 0.27826559E+03</pdfrwt>
<pdfrwt beam="2">  1       -4 0.11834317E-01 0.27826559E+03</pdfrwt>
<totfact> 0.69340708E+02</totfact>
</mgrwt>
</event>
<event>
 9    1  0.8285222E-001  0.2771429E+03  0.7818608E-02  0.1097260E+00
         -1   -1    0    0    0  501 -0.00000000000E+00  0.00000000000E+00  0.11317094595E+02  0.11317094595E+02  0.00000000000E+00 0.  1.
          1   -1    0    0  501    0  0.00000000000E+00 -0.00000000000E+00 -0.16967297839E+04  0.16967297839E+04  0.00000000000E+00 0.  1.
         35    2    1    2    0    0  0.00000000000E+00 -0.71054273576E-14 -0.16854126893E+04  0.17080468785E+04  0.27714293400E+03 0.  0.
         25    2    3    3    0    0  0.33844404888E+02  0.49212848621E+02 -0.87894149357E+03  0.88987122880E+03  0.12555997178E+03 0.  0.
         25    2    3    3    0    0 -0.33844404888E+02 -0.49212848621E+02 -0.80647119573E+03  0.81817564970E+03  0.12429101333E+03 0.  0.
          5    1    4    4  502    0  0.30395210701E+02 -0.30214952658E+02 -0.53915111068E+03  0.54087227914E+03  0.47000000000E+01 0.  1.
         -5    1    4    4    0  502  0.34491941868E+01  0.79427801279E+02 -0.33979038289E+03  0.34899894966E+03  0.47000000000E+01 0.  1.
          5    1    5    5  503    0 -0.61573678494E+02  0.15433443879E+02 -0.47834009865E+03  0.48255657601E+03  0.47000000000E+01 0.  1.
         -5    1    5    5    0  503  0.27729273606E+02 -0.64646292500E+02 -0.32813109708E+03  0.33561907369E+03  0.47000000000E+01 0.  1.
<mgrwt>
<rscale>  0 0.27714293E+03</rscale>
<asrwt>0</asrwt>
<pdfrwt beam="1">  1        1 0.26103511E+00 0.27714293E+03</pdfrwt>
<pdfrwt beam="2">  1       -1 0.17410931E-02 0.27714293E+03</pdfrwt>
<totfact> 0.44618842E+03</totfact>
</mgrwt>
</event>
<event>
 9    1  0.8285222E-001  0.2742336E+03  0.7818608E-02  0.1098881E+00
         -1   -1    0    0    0  501 -0.00000000000E+00  0.00000000000E+00  0.10389720795E+03  0.10389720795E+03  0.00000000000E+00 0.  1.
          1   -1    0    0  501    0  0.00000000000E+00 -0.00000000000E+00 -0.18095784350E+03  0.18095784350E+03  0.00000000000E+00 0.  1.
         35    2    1    2    0    0  0.00000000000E+00 -0.35527136788E-14 -0.77060635553E+02  0.28485505145E+03  0.27423358435E+03 0.  0.
         25    2    3    3    0    0  0.48861978430E+02  0.27190284485E+02 -0.36092689601E+02  0.14255169775E+03  0.12606149207E+03 0.  0.
         25    2    3    3    0    0 -0.48861978430E+02 -0.27190284485E+02 -0.40967945952E+02  0.14230335370E+03  0.12427818543E+03 0.  0.
          5    1    4    4  502    0 -0.41763182216E+02  0.18148883381E+02 -0.19956272336E+02  0.49938844223E+02  0.47000000000E+01 0.  1.
         -5    1    4    4    0  502  0.90625160646E+02  0.90414011044E+01 -0.16136417266E+02  0.92612853526E+02  0.47000000000E+01 0.  1.
          5    1    5    5  503    0 -0.62786971218E+02  0.18450508014E+02  0.16307858872E+02  0.67606665808E+02  0.47000000000E+01 0. -1.
         -5    1    5    5    0  503  0.13924992788E+02 -0.45640792499E+02 -0.57275804823E+02  0.74696687894E+02  0.47000000000E+01 0. -1.
<mgrwt>
<rscale>  0 0.27423358E+03</rscale>
<asrwt>0</asrwt>
<pdfrwt beam="1">  1        1 0.27839668E-01 0.27423358E+03</pdfrwt>
<pdfrwt beam="2">  1       -1 0.15984186E-01 0.27423358E+03</pdfrwt>
<totfact> 0.48031946E+03</totfact>
</mgrwt>
</event>
<event>
 9    1  0.8285222E-001  0.2738796E+03  0.7818608E-02  0.1099079E+00
          1   -1    0    0  501    0  0.00000000000E+00  0.00000000000E+00  0.48348445247E+03  0.48348445247E+03  0.00000000000E+00 0.  1.
         -1   -1    0    0    0  501 -0.00000000000E+00 -0.00000000000E+00 -0.38786177176E+02  0.38786177176E+02  0.00000000000E+00 0.  1.
         35    2    1    2    0    0  0.00000000000E+00 -0.71054273576E-14  0.44469827529E+03  0.52227062964E+03  0.27387963513E+03 0.  0.
         25    2    3    3    0    0 -0.49368408316E+02  0.25160846595E+02  0.20325875791E+03  0.24457381795E+03  0.12422528656E+03 0.  0.
         25    2    3    3    0    0  0.49368408316E+02 -0.25160846595E+02  0.24143951738E+03  0.27769681169E+03  0.12550765207E+03 0.  0.
          5    1    4    4  502    0 -0.42835834401E+02 -0.32901535025E+02  0.30644835101E+02  0.62278532691E+02  0.47000000000E+01 0.  1.
         -5    1    4    4    0  502 -0.65325739150E+01  0.58062381619E+02  0.17261392281E+03  0.18229528526E+03  0.47000000000E+01 0.  1.
          5    1    5    5  503    0  0.67534006410E+02  0.18685679362E+02  0.67761513024E+02  0.97589493709E+02  0.47000000000E+01 0.  1.
         -5    1    5    5    0  503 -0.18165598095E+02 -0.43846525957E+02  0.17367800436E+03  0.18010731798E+03  0.47000000000E+01 0.  1.
<mgrwt>
<rscale>  0 0.27387964E+03</rscale>
<asrwt>0</asrwt>
<pdfrwt beam="1">  1        1 0.74382219E-01 0.27387964E+03</pdfrwt>
<pdfrwt beam="2">  1       -1 0.59671045E-02 0.27387964E+03</pdfrwt>
<totfact> 0.63310430E+03</totfact>
</mgrwt>
</event>
<event>
 9    1  0.8285222E-001  0.2791048E+03  0.7818608E-02  0.1096179E+00
          2   -1    0    0  501    0  0.00000000000E+00  0.00000000000E+00  0.54977738815E+03  0.54977738815E+03  0.00000000000E+00 0. -1.
         -2   -1    0    0    0  501 -0.00000000000E+00 -0.00000000000E+00 -0.35423195332E+02  0.35423195332E+02  0.00000000000E+00 0. -1.
         35    2    1    2    0    0  0.00000000000E+00  0.35527136788E-14  0.51435419281E+03  0.58520058348E+03  0.27910479616E+03 0.  0.
         25    2    3    3    0    0  0.32374423629E+02  0.26809283705E+02  0.35478275472E+03  0.37854803459E+03  0.12514379908E+03 0.  0.
         25    2    3    3    0    0 -0.32374423629E+02 -0.26809283705E+02  0.15957143810E+03  0.20665254889E+03  0.12440012503E+03 0.  0.
          5    1    4    4  502    0  0.51526807409E+02  0.21923583366E+02  0.56892062747E+02  0.79965318688E+02  0.47000000000E+01 0. -1.
         -5    1    4    4    0  502 -0.19152383780E+02  0.48857003383E+01  0.29789069197E+03  0.29858271590E+03  0.47000000000E+01 0. -1.
          5    1    5    5  503    0  0.16592187109E+02  0.27198955706E+02  0.11806995134E+01  0.32226819823E+02  0.47000000000E+01 0.  1.
         -5    1    5    5    0  503 -0.48966610738E+02 -0.54008239410E+02  0.15839073858E+03  0.17442572907E+03  0.47000000000E+01 0.  1.
<mgrwt>
<rscale>  0 0.27910480E+03</rscale>
<asrwt>0</asrwt>
<pdfrwt beam="1">  1        2 0.84581130E-01 0.27910480E+03</pdfrwt>
<pdfrwt beam="2">  1       -2 0.54497228E-02 0.27910480E+03</pdfrwt>
<totfact> 0.95431274E+03</totfact>
</mgrwt>
</event>
<event>
 9    1  0.8285222E-001  0.2731474E+03  0.7818608E-02  0.1099492E+00
         -1   -1    0    0    0  501 -0.00000000000E+00  0.00000000000E+00  0.19484518856E+03  0.19484518856E+03  0.00000000000E+00 0. -1.
          1   -1    0    0  501    0  0.00000000000E+00 -0.00000000000E+00 -0.95729187803E+02  0.95729187803E+02  0.00000000000E+00 0. -1.
         35    2    1    2    0    0 -0.17763568394E-14  0.35527136788E-14  0.99116000753E+02  0.29057437636E+03  0.27314737156E+03 0.  0.
         25    2    3    3    0    0 -0.12724925559E+02 -0.23012017933E+02  0.24107110333E+01  0.13058611458E+03  0.12788840875E+03 0.  0.
         25    2    3    3    0    0  0.12724925559E+02  0.23012017933E+02  0.96705289719E+02  0.15998826178E+03  0.12471108270E+03 0.  0.
          5    1    4    4  502    0  0.18508076360E+02  0.48518491988E+02 -0.28264990923E+01  0.52217545446E+02  0.47000000000E+01 0.  1.
         -5    1    4    4    0  502 -0.31233001919E+02 -0.71530509921E+02  0.52372101257E+01  0.78368569135E+02  0.47000000000E+01 0.  1.
          5    1    5    5  503    0  0.98809954039E+01 -0.24079681256E+02  0.10804894139E+03  0.11123906174E+03  0.47000000000E+01 0.  1.
         -5    1    5    5    0  503  0.28439301549E+01  0.47091699189E+02 -0.11343651676E+02  0.48749200040E+02  0.47000000000E+01 0.  1.
<mgrwt>
<rscale>  0 0.27314737E+03</rscale>
<asrwt>0</asrwt>
<pdfrwt beam="1">  1        1 0.14727567E-01 0.27314737E+03</pdfrwt>
<pdfrwt beam="2">  1       -1 0.29976183E-01 0.27314737E+03</pdfrwt>
<totfact> 0.38836876E+03</totfact>
</mgrwt>
</event>
<event>
 9    1  0.8285222E-001  0.2761865E+03  0.7818608E-02  0.1097790E+00
         -2   -1    0    0    0  501 -0.00000000000E+00  0.00000000000E+00  0.25257186009E+02  0.25257186009E+02  0.00000000000E+00 0. -1.
          2   -1    0    0  501    0  0.00000000000E+00 -0.00000000000E+00 -0.75502237888E+03  0.75502237888E+03  0.00000000000E+00 0. -1.
         35    2    1    2    0    0  0.00000000000E+00  0.00000000000E+00 -0.72976519287E+03  0.78027956488E+03  0.27618646356E+03 0.  0.
         25    2    3    3    0    0  0.54979769860E+02 -0.12292408111E+02 -0.32677330606E+03  0.35463229888E+03  0.12573541850E+03 0.  0.
         25    2    3    3    0    0 -0.54979769860E+02  0.12292408111E+02 -0.40299188681E+03  0.42564726600E+03  0.12489698087E+03 0.  0.
          5    1    4    4  502    0  0.10826077848E+02 -0.66593330517E+02 -0.15899592064E+03  0.17278214147E+03  0.47000000000E+01 0. -1.
         -5    1    4    4    0  502  0.44153692012E+02  0.54300922406E+02 -0.16777738543E+03  0.18185015742E+03  0.47000000000E+01 0. -1.
          5    1    5    5  503    0 -0.41086714138E+02  0.60645196032E+02 -0.14243873201E+03  0.16023994588E+03  0.47000000000E+01 0.  1.
         -5    1    5    5    0  503 -0.13893055722E+02 -0.48352787921E+02 -0.26055315480E+03  0.26540732012E+03  0.47000000000E+01 0.  1.
<mgrwt>
<rscale>  0 0.27618646E+03</rscale>
<asrwt>0</asrwt>
<pdfrwt beam="1">  1        2 0.11615730E+00 0.27618646E+03</pdfrwt>
<pdfrwt beam="2">  1       -2 0.38857205E-02 0.27618646E+03</pdfrwt>
<totfact> 0.10926017E+04</totfact>
</mgrwt>
</event>
<event>
 9    1  0.8285222E-001  0.2727458E+03  0.7818608E-02  0.1099718E+00
         -2   -1    0    0    0  501 -0.00000000000E+00  0.00000000000E+00  0.63015714298E+02  0.63015714298E+02  0.00000000000E+00 0. -1.
          2   -1    0    0  501    0  0.00000000000E+00 -0.00000000000E+00 -0.29512579183E+03  0.29512579183E+03  0.00000000000E+00 0. -1.
         35    2    1    2    0    0 -0.17763568394E-14  0.00000000000E+00 -0.23211007753E+03  0.35814150613E+03  0.27274576132E+03 0.  0.
         25    2    3    3    0    0 -0.65620952582E+01 -0.19122994765E+02 -0.56724188843E+02  0.13903665948E+03  0.12531882962E+03 0.  0.
         25    2    3    3    0    0  0.65620952582E+01  0.19122994765E+02 -0.17538588869E+03  0.21910484664E+03  0.12976121858E+03 0.  0.
          5    1    4    4  502    0 -0.86742250370E+01  0.88323121301E+01 -0.92443293879E+02  0.93386854004E+02  0.47000000000E+01 0.  1.
         -5    1    4    4    0  502  0.21121297788E+01 -0.27955306895E+02  0.35719105036E+02  0.45649805480E+02  0.47000000000E+01 0.  1.
          5    1    5    5  503    0  0.34589887755E+02  0.39123007505E+01 -0.18270468860E+03  0.18605069113E+03  0.47000000000E+01 0. -1.
         -5    1    5    5    0  503 -0.28027792496E+02  0.15210694015E+02  0.73187999133E+01  0.33054155515E+02  0.47000000000E+01 0. -1.
<mgrwt>
<rscale>  0 0.27274576E+03</rscale>
<asrwt>0</asrwt>
<pdfrwt beam="1">  1        2 0.45403968E-01 0.27274576E+03</pdfrwt>
<pdfrwt beam="2">  1       -2 0.96947252E-02 0.27274576E+03</pdfrwt>
<totfact> 0.76991766E+03</totfact>
</mgrwt>
</event>
<event>
 9    1  0.8285222E-001  0.2677118E+03  0.7818608E-02  0.1102596E+00
          2   -1    0    0  501    0  0.00000000000E+00  0.00000000000E+00  0.55011933542E+03  0.55011933542E+03  0.00000000000E+00 0.  1.
         -2   -1    0    0    0  501 -0.00000000000E+00 -0.00000000000E+00 -0.32570034561E+02  0.32570034561E+02  0.00000000000E+00 0.  1.
         35    2    1    2    0    0  0.71054273576E-14  0.00000000000E+00  0.51754930086E+03  0.58268936998E+03  0.26771182841E+03 0.  0.
         25    2    3    3    0    0  0.86430443648E+01 -0.24229078270E+02  0.34896399194E+03  0.37166817930E+03  0.12529811404E+03 0.  0.
         25    2    3    3    0    0 -0.86430443648E+01  0.24229078270E+02  0.16858530892E+03  0.21102119068E+03  0.12428670920E+03 0.  0.
          5    1    4    4  502    0  0.62401313620E+02 -0.34171862818E+02  0.16629592817E+03  0.18093663498E+03  0.47000000000E+01 0. -1.
         -5    1    4    4    0  502 -0.53758269255E+02  0.99427845485E+01  0.18266806377E+03  0.19073154432E+03  0.47000000000E+01 0. -1.
          5    1    5    5  503    0  0.44416972289E+02 -0.24003748869E+02  0.97743189819E+02  0.11011298081E+03  0.47000000000E+01 0. -1.
         -5    1    5    5    0  503 -0.53060016654E+02  0.48232827139E+02  0.70842119096E+02  0.10090820987E+03  0.47000000000E+01 0. -1.
<mgrwt>
<rscale>  0 0.26771183E+03</rscale>
<asrwt>0</asrwt>
<pdfrwt beam="1">  1        2 0.84633737E-01 0.26771183E+03</pdfrwt>
<pdfrwt beam="2">  1       -2 0.50107749E-02 0.26771183E+03</pdfrwt>
<totfact> 0.10819750E+04</totfact>
</mgrwt>
</event>
<event>
 9    1  0.8285222E-001  0.2757515E+03  0.7818608E-02  0.1098032E+00
          1   -1    0    0  501    0  0.00000000000E+00  0.00000000000E+00  0.12723200364E+04  0.12723200364E+04  0.00000000000E+00 0.  1.
         -1   -1    0    0    0  501 -0.00000000000E+00 -0.00000000000E+00 -0.14940992044E+02  0.14940992044E+02  0.00000000000E+00 0.  1.
         35    2    1    2    0    0 -0.71054273576E-14  0.00000000000E+00  0.12573790444E+04  0.12872610285E+04  0.27575150801E+03 0.  0.
         25    2    3    3    0    0 -0.37935989600E+01 -0.25997173760E+02  0.39547970261E+03  0.41591254234E+03  0.12605079635E+03 0.  0.
         25    2    3    3    0    0  0.37935989600E+01  0.25997173760E+02  0.86189934178E+03  0.87134848614E+03  0.12524960879E+03 0.  0.
          5    1    4    4  502    0  0.58409434731E+02 -0.14067492618E+02  0.13565578702E+03  0.14843900757E+03  0.47000000000E+01 0.  1.
         -5    1    4    4    0  502 -0.62203033691E+02 -0.11929681142E+02  0.25982391559E+03  0.26747353477E+03  0.47000000000E+01 0.  1.
          5    1    5    5  503    0  0.50257035840E+02  0.32135486935E+02  0.22866065159E+03  0.23636040861E+03  0.47000000000E+01 0. -1.
         -5    1    5    5    0  503 -0.46463436880E+02 -0.61383131758E+01  0.63323869018E+03  0.63498807753E+03  0.47000000000E+01 0. -1.
<mgrwt>
<rscale>  0 0.27575151E+03</rscale>
<asrwt>0</asrwt>
<pdfrwt beam="1">  1        1 0.19574146E+00 0.27575151E+03</pdfrwt>
<pdfrwt beam="2">  1       -1 0.22986152E-02 0.27575151E+03</pdfrwt>
<totfact> 0.56990793E+03</totfact>
</mgrwt>
</event>
<event>
 9    1  0.8285222E-001  0.2760929E+03  0.7818608E-02  0.1097842E+00
          2   -1    0    0  501    0  0.00000000000E+00  0.00000000000E+00  0.12727683110E+04  0.12727683110E+04  0.00000000000E+00 0. -1.
         -2   -1    0    0    0  501 -0.00000000000E+00 -0.00000000000E+00 -0.14972735085E+02  0.14972735085E+02  0.00000000000E+00 0. -1.
         35    2    1    2    0    0  0.00000000000E+00 -0.71054273576E-14  0.12577955759E+04  0.12877410461E+04  0.27609290280E+03 0.  0.
         25    2    3    3    0    0  0.22341262695E+02 -0.54018646254E+02  0.60558202767E+03  0.62104415249E+03  0.12469603419E+03 0.  0.
         25    2    3    3    0    0 -0.22341262695E+02  0.54018646254E+02  0.65221354823E+03  0.66669689358E+03  0.12524012636E+03 0.  0.
          5    1    4    4  502    0 -0.17397655083E+02 -0.49114976583E+02  0.91631415119E+02  0.10551476467E+03  0.47000000000E+01 0.  1.
         -5    1    4    4    0  502  0.39738917778E+02 -0.49036696708E+01  0.51395061255E+03  0.51552938782E+03  0.47000000000E+01 0.  1.
          5    1    5    5  503    0 -0.62101043962E+02 -0.82332364585E+01  0.34671104841E+03  0.35235630679E+03  0.47000000000E+01 0.  1.
         -5    1    5    5    0  503  0.39759781267E+02  0.62251882713E+02  0.30550249981E+03  0.31434058678E+03  0.47000000000E+01 0.  1.
<mgrwt>
<rscale>  0 0.27609290E+03</rscale>
<asrwt>0</asrwt>
<pdfrwt beam="1">  1        2 0.19581042E+00 0.27609290E+03</pdfrwt>
<pdfrwt beam="2">  1       -2 0.23034987E-02 0.27609290E+03</pdfrwt>
<totfact> 0.11392875E+04</totfact>
</mgrwt>
</event>
<event>
 9    1  0.8285222E-001  0.2864016E+03  0.7818608E-02  0.1092243E+00
         -2   -1    0    0    0  501 -0.00000000000E+00  0.00000000000E+00  0.82496030355E+01  0.82496030355E+01  0.00000000000E+00 0.  1.
          2   -1    0    0  501    0  0.00000000000E+00 -0.00000000000E+00 -0.24857521719E+04  0.24857521719E+04  0.00000000000E+00 0.  1.
         35    2    1    2    0    0  0.71054273576E-14  0.17763568394E-14 -0.24775025689E+04  0.24940017749E+04  0.28640159680E+03 0.  0.
         25    2    3    3    0    0  0.58813603716E+02 -0.11799270778E+01 -0.15809414769E+04  0.15869658728E+04  0.12499718263E+03 0.  0.
         25    2    3    3    0    0 -0.58813603716E+02  0.11799270778E+01 -0.89656109194E+03  0.90703590217E+03  0.12422521494E+03 0.  0.
          5    1    4    4  502    0  0.39861953265E+01  0.39284267353E+02 -0.17909821353E+03  0.18345954187E+03  0.47000000000E+01 0. -1.
         -5    1    4    4    0  502  0.54827408389E+02 -0.40464194430E+02 -0.14018432634E+04  0.14035063309E+04  0.47000000000E+01 0. -1.
          5    1    5    5  503    0  0.35885931538E+02  0.63047108320E+00 -0.14201298742E+03  0.14655366311E+03  0.47000000000E+01 0. -1.
         -5    1    5    5    0  503 -0.94699535253E+02  0.54945599455E+00 -0.75454810452E+03  0.76048223905E+03  0.47000000000E+01 0. -1.
<mgrwt>
<rscale>  0 0.28640160E+03</rscale>
<asrwt>0</asrwt>
<pdfrwt beam="1">  1        2 0.38242328E+00 0.28640160E+03</pdfrwt>
<pdfrwt beam="2">  1       -2 0.12691701E-02 0.28640160E+03</pdfrwt>
<totfact> 0.61507748E+03</totfact>
</mgrwt>
</event>
<event>
 9    1  0.8285222E-001  0.2727796E+03  0.7818608E-02  0.1099699E+00
          1   -1    0    0  501    0  0.00000000000E+00  0.00000000000E+00  0.12288309492E+04  0.12288309492E+04  0.00000000000E+00 0.  1.
         -1   -1    0    0    0  501 -0.00000000000E+00 -0.00000000000E+00 -0.15138106545E+02  0.15138106545E+02  0.00000000000E+00 0.  1.
         35    2    1    2    0    0  0.00000000000E+00  0.71054273576E-14  0.12136928427E+04  0.12439690558E+04  0.27277957281E+03 0.  0.
         25    2    3    3    0    0 -0.15526403776E+02 -0.11441055279E+02  0.39833421432E+03  0.41888406429E+03  0.12814736071E+03 0.  0.
         25    2    3    3    0    0  0.15526403776E+02  0.11441055279E+02  0.81535862837E+03  0.82508499149E+03  0.12483422355E+03 0.  0.
          5    1    4    4  502    0 -0.59711396550E+02  0.28374500344E+02  0.15974939057E+03  0.17295236609E+03  0.47000000000E+01 0.  1.
         -5    1    4    4    0  502  0.44184992774E+02 -0.39815555623E+02  0.23858482375E+03  0.24593169820E+03  0.47000000000E+01 0.  1.
          5    1    5    5  503    0  0.42693139931E+02  0.57481859540E+02  0.51416155064E+03  0.51914454493E+03  0.47000000000E+01 0.  1.
         -5    1    5    5    0  503 -0.27166736155E+02 -0.46040804261E+02  0.30119707773E+03  0.30594044656E+03  0.47000000000E+01 0.  1.
<mgrwt>
<rscale>  0 0.27277957E+03</rscale>
<asrwt>0</asrwt>
<pdfrwt beam="1">  1        1 0.18905084E+00 0.27277957E+03</pdfrwt>
<pdfrwt beam="2">  1       -1 0.23289404E-02 0.27277957E+03</pdfrwt>
<totfact> 0.59901800E+03</totfact>
</mgrwt>
</event>
<event>
 9    1  0.8285222E-001  0.2778559E+03  0.7818608E-02  0.1096866E+00
          1   -1    0    0  501    0  0.00000000000E+00  0.00000000000E+00  0.55041625422E+02  0.55041625422E+02  0.00000000000E+00 0. -1.
         -1   -1    0    0    0  501 -0.00000000000E+00 -0.00000000000E+00 -0.35066134462E+03  0.35066134462E+03  0.00000000000E+00 0. -1.
         35    2    1    2    0    0  0.35527136788E-14  0.14210854715E-13 -0.29561971920E+03  0.40570297004E+03  0.27785586465E+03 0.  0.
         25    2    3    3    0    0  0.15240117555E+02  0.57280315061E+02 -0.18000041519E+03  0.22533536980E+03  0.12191219684E+03 0.  0.
         25    2    3    3    0    0 -0.15240117555E+02 -0.57280315061E+02 -0.11561930401E+03  0.18036760024E+03  0.12510536392E+03 0.  0.
          5    1    4    4  502    0  0.48795455725E+02 -0.16793394030E+02 -0.90753271553E+02  0.10450483663E+03  0.47000000000E+01 0.  1.
         -5    1    4    4    0  502 -0.33555338170E+02  0.74073709091E+02 -0.89247143635E+02  0.12083053317E+03  0.47000000000E+01 0.  1.
          5    1    5    5  503    0 -0.46546080374E+02  0.21167775118E+02 -0.27637432358E+02  0.58314063218E+02  0.47000000000E+01 0.  1.
         -5    1    5    5    0  503  0.31305962818E+02 -0.78448090179E+02 -0.87981871654E+02  0.12205353703E+03  0.47000000000E+01 0.  1.
<mgrwt>
<rscale>  0 0.27785586E+03</rscale>
<asrwt>0</asrwt>
<pdfrwt beam="1">  1        1 0.84679421E-02 0.27785586E+03</pdfrwt>
<pdfrwt beam="2">  1       -1 0.53947901E-01 0.27785586E+03</pdfrwt>
<totfact> 0.28570693E+03</totfact>
</mgrwt>
</event>
<event>
 9    1  0.8285222E-001  0.2758947E+03  0.7818608E-02  0.1097953E+00
         -2   -1    0    0    0  501 -0.00000000000E+00  0.00000000000E+00  0.62780241448E+01  0.62780241448E+01  0.00000000000E+00 0. -1.
          2   -1    0    0  501    0  0.00000000000E+00 -0.00000000000E+00 -0.30311236810E+04  0.30311236810E+04  0.00000000000E+00 0. -1.
         35    2    1    2    0    0  0.00000000000E+00  0.00000000000E+00 -0.30248456568E+04  0.30374017051E+04  0.27589467305E+03 0.  0.
         25    2    3    3    0    0  0.34533305907E+02  0.29972223164E+02 -0.18518962665E+04  0.18567299630E+04  0.12583914477E+03 0.  0.
         25    2    3    3    0    0 -0.34533305907E+02 -0.29972223164E+02 -0.11729493903E+04  0.11806717421E+04  0.12682510365E+03 0.  0.
          5    1    4    4  502    0  0.13392681479E+02 -0.14613939330E+02 -0.47891729642E+02  0.52044585771E+02  0.47000000000E+01 0. -1.
         -5    1    4    4    0  502  0.21140624428E+02  0.44586162494E+02 -0.18040045369E+04  0.18046853773E+04  0.47000000000E+01 0. -1.
          5    1    5    5  503    0 -0.44833517510E+02  0.28780243661E+01 -0.10873652996E+04  0.10883031343E+04  0.47000000000E+01 0.  1.
         -5    1    5    5    0  503  0.10300211603E+02 -0.32850247530E+02 -0.85584090713E+02  0.92368607790E+02  0.47000000000E+01 0.  1.
<mgrwt>
<rscale>  0 0.27589467E+03</rscale>
<asrwt>0</asrwt>
<pdfrwt beam="1">  1        2 0.46632628E+00 0.27589467E+03</pdfrwt>
<pdfrwt beam="2">  1       -2 0.96585078E-03 0.27589467E+03</pdfrwt>
<totfact> 0.44772458E+03</totfact>
</mgrwt>
</event>
<event>
 9    1  0.8285222E-001  0.2762471E+03  0.7818608E-02  0.1097757E+00
         -1   -1    0    0    0  501 -0.00000000000E+00  0.00000000000E+00  0.83640687677E+02  0.83640687677E+02  0.00000000000E+00 0. -1.
          1   -1    0    0  501    0  0.00000000000E+00 -0.00000000000E+00 -0.22809608304E+03  0.22809608304E+03  0.00000000000E+00 0. -1.
         35    2    1    2    0    0  0.17763568394E-14  0.00000000000E+00 -0.14445539537E+03  0.31173677072E+03  0.27624708681E+03 0.  0.
         25    2    3    3    0    0 -0.12450666164E+02 -0.84796555765E+01 -0.13752514832E+03  0.18651753277E+03  0.12509476393E+03 0.  0.
         25    2    3    3    0    0  0.12450666164E+02  0.84796555765E+01 -0.69302470433E+01  0.12521923795E+03  0.12411650004E+03 0.  0.
          5    1    4    4  502    0 -0.22611171811E+02  0.35446550504E+02 -0.62836079778E+00  0.42310848143E+02  0.47000000000E+01 0. -1.
         -5    1    4    4    0  502  0.10160505647E+02 -0.43926206080E+02 -0.13689678753E+03  0.14420668462E+03  0.47000000000E+01 0. -1.
          5    1    5    5  503    0  0.23210999420E+02  0.63715172636E+02  0.22338633120E+01  0.68010689332E+02  0.47000000000E+01 0.  1.
         -5    1    5    5    0  503 -0.10760333256E+02 -0.55235517060E+02 -0.91641103553E+01  0.57208548620E+02  0.47000000000E+01 0.  1.
<mgrwt>
<rscale>  0 0.27624709E+03</rscale>
<asrwt>0</asrwt>
<pdfrwt beam="1">  1        1 0.35091705E-01 0.27624709E+03</pdfrwt>
<pdfrwt beam="2">  1       -1 0.12867798E-01 0.27624709E+03</pdfrwt>
<totfact> 0.50568368E+03</totfact>
</mgrwt>
</event>
<event>
 9    1  0.8285222E-001  0.2770570E+03  0.7818608E-02  0.1097307E+00
         -2   -1    0    0    0  501 -0.00000000000E+00  0.00000000000E+00  0.17342404024E+02  0.17342404024E+02  0.00000000000E+00 0. -1.
          2   -1    0    0  501    0  0.00000000000E+00 -0.00000000000E+00 -0.11065445602E+04  0.11065445602E+04  0.00000000000E+00 0. -1.
         35    2    1    2    0    0  0.14210854715E-13  0.00000000000E+00 -0.10892021561E+04  0.11238869642E+04  0.27705698210E+03 0.  0.
         25    2    3    3    0    0  0.60011850712E+02 -0.57108384265E+01 -0.55563208573E+03  0.57254350289E+03  0.12427796306E+03 0.  0.
         25    2    3    3    0    0 -0.60011850712E+02  0.57108384265E+01 -0.53357007042E+03  0.55134346131E+03  0.12509419004E+03 0.  0.
          5    1    4    4  502    0 -0.38591722518E+01  0.28294882900E+02 -0.39779998335E+03  0.39885136375E+03  0.47000000000E+01 0. -1.
         -5    1    4    4    0  502  0.63871022964E+02 -0.34005721326E+02 -0.15783210238E+03  0.17369213914E+03  0.47000000000E+01 0. -1.
          5    1    5    5  503    0 -0.78273094241E+02  0.47162440803E+02 -0.39589805453E+03  0.40633524667E+03  0.47000000000E+01 0.  1.
         -5    1    5    5    0  503  0.18261243529E+02 -0.41451602376E+02 -0.13767201589E+03  0.14500821464E+03  0.47000000000E+01 0.  1.
<mgrwt>
<rscale>  0 0.27705698E+03</rscale>
<asrwt>0</asrwt>
<pdfrwt beam="1">  1        2 0.17023766E+00 0.27705698E+03</pdfrwt>
<pdfrwt beam="2">  1       -2 0.26680616E-02 0.27705698E+03</pdfrwt>
<totfact> 0.11405461E+04</totfact>
</mgrwt>
</event>
<event>
 9    1  0.8285222E-001  0.2748222E+03  0.7818608E-02  0.1098551E+00
          1   -1    0    0  501    0  0.00000000000E+00  0.00000000000E+00  0.25538848331E+03  0.25538848331E+03  0.00000000000E+00 0.  1.
         -1   -1    0    0    0  501 -0.00000000000E+00 -0.00000000000E+00 -0.73933661665E+02  0.73933661665E+02  0.00000000000E+00 0.  1.
         35    2    1    2    0    0 -0.71054273576E-14  0.71054273576E-14  0.18145482164E+03  0.32932214497E+03  0.27482216590E+03 0.  0.
         25    2    3    3    0    0 -0.32932033456E+02 -0.46896735107E+02  0.79532240581E+02  0.15845199245E+03  0.12449029693E+03 0.  0.
         25    2    3    3    0    0  0.32932033456E+02  0.46896735107E+02  0.10192258106E+03  0.17087015252E+03  0.12459764805E+03 0.  0.
          5    1    4    4  502    0 -0.65895114138E+02 -0.45448954573E+00  0.76710962332E+02  0.10123751464E+03  0.47000000000E+01 0.  1.
         -5    1    4    4    0  502  0.32963080682E+02 -0.46442245561E+02  0.28212782485E+01  0.57214477816E+02  0.47000000000E+01 0.  1.
          5    1    5    5  503    0  0.57871982772E+02  0.35768528507E+02  0.11982990210E+03  0.13787621064E+03  0.47000000000E+01 0.  1.
         -5    1    5    5    0  503 -0.24939949316E+02  0.11128206600E+02 -0.17907321042E+02  0.32993941882E+02  0.47000000000E+01 0.  1.
<mgrwt>
<rscale>  0 0.27482217E+03</rscale>
<asrwt>0</asrwt>
<pdfrwt beam="1">  1        1 0.39290535E-01 0.27482217E+03</pdfrwt>
<pdfrwt beam="2">  1       -1 0.11374410E-01 0.27482217E+03</pdfrwt>
<totfact> 0.53198628E+03</totfact>
</mgrwt>
</event>
<event>
 9    1  0.8285222E-001  0.2731172E+03  0.7818608E-02  0.1099509E+00
         -2   -1    0    0    0  501 -0.00000000000E+00  0.00000000000E+00  0.22316092958E+02  0.22316092958E+02  0.00000000000E+00 0. -1.
          2   -1    0    0  501    0  0.00000000000E+00 -0.00000000000E+00 -0.83564154058E+03  0.83564154058E+03  0.00000000000E+00 0. -1.
         35    2    1    2    0    0  0.00000000000E+00  0.00000000000E+00 -0.81332544762E+03  0.85795763354E+03  0.27311722245E+03 0.  0.
         25    2    3    3    0    0  0.24767959532E+02  0.55490318956E+02 -0.44519052348E+03  0.46581030802E+03  0.12284955655E+03 0.  0.
         25    2    3    3    0    0 -0.24767959532E+02 -0.55490318956E+02 -0.36813492414E+03  0.39214732552E+03  0.12067963879E+03 0.  0.
          5    1    4    4  502    0  0.29269502633E+02 -0.22732515690E+02 -0.47410960147E+02  0.60360253446E+02  0.47000000000E+01 0.  1.
         -5    1    4    4    0  502 -0.45015431008E+01  0.78222834646E+02 -0.39777956333E+03  0.40545005458E+03  0.47000000000E+01 0.  1.
          5    1    5    5  503    0  0.27655378901E+02 -0.71746026780E+02 -0.17280442221E+03  0.18919770262E+03  0.47000000000E+01 0. -1.
         -5    1    5    5    0  503 -0.52423338433E+02  0.16255707824E+02 -0.19533050193E+03  0.20294962290E+03  0.47000000000E+01 0. -1.
<mgrwt>
<rscale>  0 0.27311722E+03</rscale>
<asrwt>0</asrwt>
<pdfrwt beam="1">  1        2 0.12856024E+00 0.27311722E+03</pdfrwt>
<pdfrwt beam="2">  1       -2 0.34332450E-02 0.27311722E+03</pdfrwt>
<totfact> 0.11559318E+04</totfact>
</mgrwt>
</event>
<event>
 9    1  0.8285222E-001  0.2750478E+03  0.7818608E-02  0.1098425E+00
          2   -1    0    0  501    0  0.00000000000E+00  0.00000000000E+00  0.93573879928E+03  0.93573879928E+03  0.00000000000E+00 0.  1.
         -2   -1    0    0    0  501 -0.00000000000E+00 -0.00000000000E+00 -0.20211653297E+02  0.20211653297E+02  0.00000000000E+00 0.  1.
         35    2    1    2    0    0  0.71054273576E-14 -0.14210854715E-13  0.91552714598E+03  0.95595045258E+03  0.27504783720E+03 0.  0.
         25    2    3    3    0    0  0.24592457869E+02 -0.45216914278E+02  0.55162789561E+03  0.56776993485E+03  0.12417731429E+03 0.  0.
         25    2    3    3    0    0 -0.24592457869E+02  0.45216914278E+02  0.36389925038E+03  0.38818051773E+03  0.12494835573E+03 0.  0.
          5    1    4    4  502    0  0.62902407975E+02 -0.20700549151E+02  0.46593532177E+03  0.47064109440E+03  0.47000000000E+01 0. -1.
         -5    1    4    4    0  502 -0.38309950106E+02 -0.24516365127E+02  0.85692573839E+02  0.97128840451E+02  0.47000000000E+01 0. -1.
          5    1    5    5  503    0  0.46657760950E+02  0.41877140483E+02  0.19121584750E+03  0.20128644239E+03  0.47000000000E+01 0.  1.
         -5    1    5    5    0  503 -0.71250218819E+02  0.33397737956E+01  0.17268340288E+03  0.18689407535E+03  0.47000000000E+01 0.  1.
<mgrwt>
<rscale>  0 0.27504784E+03</rscale>
<asrwt>0</asrwt>
<pdfrwt beam="1">  1        2 0.14395978E+00 0.27504784E+03</pdfrwt>
<pdfrwt beam="2">  1       -2 0.31094858E-02 0.27504784E+03</pdfrwt>
<totfact> 0.11533766E+04</totfact>
</mgrwt>
</event>
<event>
 9    1  0.8285222E-001  0.2688655E+03  0.7818608E-02  0.1101931E+00
         -2   -1    0    0    0  501 -0.00000000000E+00  0.00000000000E+00  0.14864052281E+02  0.14864052281E+02  0.00000000000E+00 0. -1.
          2   -1    0    0  501    0  0.00000000000E+00 -0.00000000000E+00 -0.12158305825E+04  0.12158305825E+04  0.00000000000E+00 0. -1.
         35    2    1    2    0    0  0.14210854715E-13  0.00000000000E+00 -0.12009665302E+04  0.12306946348E+04  0.26886553772E+03 0.  0.
         25    2    3    3    0    0  0.44210445042E+02 -0.28353561520E+02 -0.59683809075E+03  0.61189584862E+03  0.12426719235E+03 0.  0.
         25    2    3    3    0    0 -0.44210445042E+02  0.28353561520E+02 -0.60412843946E+03  0.61879878614E+03  0.12321638881E+03 0.  0.
          5    1    4    4  502    0  0.31287714987E+01  0.44820643768E+02 -0.13189331367E+03  0.13941526283E+03  0.47000000000E+01 0.  1.
         -5    1    4    4    0  502  0.41081673544E+02 -0.73174205289E+02 -0.46494477707E+03  0.47248058579E+03  0.47000000000E+01 0.  1.
          5    1    5    5  503    0  0.18188856931E+02  0.32717483536E+01 -0.11333635321E+02  0.22182879509E+02  0.47000000000E+01 0.  1.
         -5    1    5    5    0  503 -0.62399301973E+02  0.25081813167E+02 -0.59279480413E+03  0.59661590663E+03  0.47000000000E+01 0.  1.
<mgrwt>
<rscale>  0 0.26886554E+03</rscale>
<asrwt>0</asrwt>
<pdfrwt beam="1">  1        2 0.18705087E+00 0.26886554E+03</pdfrwt>
<pdfrwt beam="2">  1       -2 0.22867772E-02 0.26886554E+03</pdfrwt>
<totfact> 0.12386303E+04</totfact>
</mgrwt>
</event>
<event>
 9    1  0.8285222E-001  0.2751378E+03  0.7818608E-02  0.1098375E+00
         -1   -1    0    0    0  501 -0.00000000000E+00  0.00000000000E+00  0.14878084580E+02  0.14878084580E+02  0.00000000000E+00 0. -1.
          1   -1    0    0  501    0  0.00000000000E+00 -0.00000000000E+00 -0.12720188232E+04  0.12720188232E+04  0.00000000000E+00 0. -1.
         35    2    1    2    0    0  0.00000000000E+00  0.00000000000E+00 -0.12571407387E+04  0.12868969078E+04  0.27513781012E+03 0.  0.
         25    2    3    3    0    0  0.20105780398E+02  0.46948994083E+02 -0.50183947670E+03  0.51965558819E+03  0.12486240232E+03 0.  0.
         25    2    3    3    0    0 -0.20105780398E+02 -0.46948994083E+02 -0.75530126195E+03  0.76724131962E+03  0.12478299474E+03 0.  0.
          5    1    4    4  502    0 -0.35856981086E+02 -0.11654200545E+02 -0.29538254797E+03  0.29781619017E+03  0.47000000000E+01 0.  1.
         -5    1    4    4    0  502  0.55962761484E+02  0.58603194628E+02 -0.20645692874E+03  0.22183939803E+03  0.47000000000E+01 0.  1.
          5    1    5    5  503    0 -0.20505282206E+02  0.16053826326E+02 -0.33551215214E+02  0.42731323176E+02  0.47000000000E+01 0. -1.
         -5    1    5    5    0  503  0.39950180783E+00 -0.63002820409E+02 -0.72175004674E+03  0.72450999644E+03  0.47000000000E+01 0. -1.
<mgrwt>
<rscale>  0 0.27513781E+03</rscale>
<asrwt>0</asrwt>
<pdfrwt beam="1">  1        1 0.19569533E+00 0.27513781E+03</pdfrwt>
<pdfrwt beam="2">  1       -1 0.22889346E-02 0.27513781E+03</pdfrwt>
<totfact> 0.57370048E+03</totfact>
</mgrwt>
</event>
<event>
 9    1  0.8285222E-001  0.2740044E+03  0.7818608E-02  0.1099009E+00
         -2   -1    0    0    0  501 -0.00000000000E+00  0.00000000000E+00  0.15447254260E+02  0.15447254260E+02  0.00000000000E+00 0.  1.
          2   -1    0    0  501    0  0.00000000000E+00 -0.00000000000E+00 -0.12150765230E+04  0.12150765230E+04  0.00000000000E+00 0.  1.
         35    2    1    2    0    0  0.00000000000E+00  0.00000000000E+00 -0.11996292687E+04  0.12305237772E+04  0.27400435030E+03 0.  0.
         25    2    3    3    0    0 -0.54605266730E+02  0.15869280020E+02 -0.58275442540E+03  0.59866087054E+03  0.12473391034E+03 0.  0.
         25    2    3    3    0    0  0.54605266730E+02 -0.15869280020E+02 -0.61687484332E+03  0.63186290670E+03  0.12442906147E+03 0.  0.
          5    1    4    4  502    0 -0.90403405810E+02  0.36430154877E+01 -0.49124184535E+03  0.49952646373E+03  0.47000000000E+01 0. -1.
         -5    1    4    4    0  502  0.35798139080E+02  0.12226264533E+02 -0.91512580054E+02  0.99134406813E+02  0.47000000000E+01 0. -1.
          5    1    5    5  503    0  0.18886562855E+02  0.52958275304E+02 -0.32313248339E+03  0.32802129962E+03  0.47000000000E+01 0.  1.
         -5    1    5    5    0  503  0.35718703875E+02 -0.68827555324E+02 -0.29374235993E+03  0.30384160708E+03  0.47000000000E+01 0.  1.
<mgrwt>
<rscale>  0 0.27400435E+03</rscale>
<asrwt>0</asrwt>
<pdfrwt beam="1">  1        2 0.18693494E+00 0.27400435E+03</pdfrwt>
<pdfrwt beam="2">  1       -2 0.23764995E-02 0.27400435E+03</pdfrwt>
<totfact> 0.11719831E+04</totfact>
</mgrwt>
</event>
<event>
 9    1  0.8285222E-001  0.2792065E+03  0.7818608E-02  0.1096123E+00
         -2   -1    0    0    0  501 -0.00000000000E+00  0.00000000000E+00  0.92132115150E+01  0.92132115150E+01  0.00000000000E+00 0.  1.
          2   -1    0    0  501    0  0.00000000000E+00 -0.00000000000E+00 -0.21153393064E+04  0.21153393064E+04  0.00000000000E+00 0.  1.
         35    2    1    2    0    0  0.00000000000E+00  0.35527136788E-14 -0.21061260949E+04  0.21245525179E+04  0.27920650749E+03 0.  0.
         25    2    3    3    0    0 -0.45968747918E+02  0.24037351205E+02 -0.77560615774E+03  0.78721760705E+03  0.12432107177E+03 0.  0.
         25    2    3    3    0    0  0.45968747918E+02 -0.24037351205E+02 -0.13305199372E+04  0.13373349109E+04  0.12446059875E+03 0.  0.
          5    1    4    4  502    0  0.33961336072E+02  0.34038298003E+02 -0.40857204117E+03  0.41141849849E+03  0.47000000000E+01 0. -1.
         -5    1    4    4    0  502 -0.79930083990E+02 -0.10000946798E+02 -0.36703411658E+03  0.37579910856E+03  0.47000000000E+01 0. -1.
          5    1    5    5  503    0 -0.16043010911E+02 -0.65942165268E+01 -0.10204965177E+04  0.10206547382E+04  0.47000000000E+01 0. -1.
         -5    1    5    5    0  503  0.62011758829E+02 -0.17443134678E+02 -0.31002341946E+03  0.31668017272E+03  0.47000000000E+01 0. -1.
<mgrwt>
<rscale>  0 0.27920651E+03</rscale>
<asrwt>0</asrwt>
<pdfrwt beam="1">  1        2 0.32543675E+00 0.27920651E+03</pdfrwt>
<pdfrwt beam="2">  1       -2 0.14174174E-02 0.27920651E+03</pdfrwt>
<totfact> 0.82783335E+03</totfact>
</mgrwt>
</event>
<event>
 9    1  0.8285222E-001  0.2724157E+03  0.7818608E-02  0.1099905E+00
         -2   -1    0    0    0  501 -0.00000000000E+00  0.00000000000E+00  0.86497104987E+02  0.86497104987E+02  0.00000000000E+00 0.  1.
          2   -1    0    0  501    0  0.00000000000E+00 -0.00000000000E+00 -0.21448782959E+03  0.21448782959E+03  0.00000000000E+00 0.  1.
         35    2    1    2    0    0  0.00000000000E+00  0.00000000000E+00 -0.12799072461E+03  0.30098493458E+03  0.27241568468E+03 0.  0.
         25    2    3    3    0    0 -0.19275235089E+02  0.46037028025E+02 -0.42409406631E+02  0.14103304264E+03  0.12490323738E+03 0.  0.
         25    2    3    3    0    0  0.19275235089E+02 -0.46037028025E+02 -0.85581317976E+02  0.15995189194E+03  0.12557668220E+03 0.  0.
          5    1    4    4  502    0 -0.58340416733E+01 -0.40672098631E+02 -0.32514020385E+02  0.52607101905E+02  0.47000000000E+01 0.  1.
         -5    1    4    4    0  502 -0.13441193415E+02  0.86709126655E+02 -0.98953862453E+01  0.88425940734E+02  0.47000000000E+01 0.  1.
          5    1    5    5  503    0 -0.14831317772E+02 -0.81949786212E+02 -0.66464490791E+02  0.10665530452E+03  0.47000000000E+01 0.  1.
         -5    1    5    5    0  503  0.34106552861E+02  0.35912758188E+02 -0.19116827185E+02  0.53296587417E+02  0.47000000000E+01 0.  1.
<mgrwt>
<rscale>  0 0.27241568E+03</rscale>
<asrwt>0</asrwt>
<pdfrwt beam="1">  1        2 0.32998127E-01 0.27241568E+03</pdfrwt>
<pdfrwt beam="2">  1       -2 0.13307247E-01 0.27241568E+03</pdfrwt>
<totfact> 0.65335125E+03</totfact>
</mgrwt>
</event>
<event>
 9    1  0.8285222E-001  0.2765269E+03  0.7818608E-02  0.1097601E+00
          2   -1    0    0  501    0  0.00000000000E+00  0.00000000000E+00  0.11633713422E+04  0.11633713422E+04  0.00000000000E+00 0.  1.
         -2   -1    0    0    0  501 -0.00000000000E+00 -0.00000000000E+00 -0.16432231029E+02  0.16432231029E+02  0.00000000000E+00 0.  1.
         35    2    1    2    0    0 -0.22204460493E-15  0.71054273576E-14  0.11469391111E+04  0.11798035732E+04  0.27652693660E+03 0.  0.
         25    2    3    3    0    0  0.62974900460E-01  0.57797204531E+02  0.51454536758E+03  0.53258039243E+03  0.12467725648E+03 0.  0.
         25    2    3    3    0    0 -0.62974900460E-01 -0.57797204531E+02  0.63239374355E+03  0.64722318076E+03  0.12504190503E+03 0.  0.
          5    1    4    4  502    0 -0.13040200848E+02  0.39633160511E+02  0.41681552131E+02  0.59163130734E+02  0.47000000000E+01 0.  1.
         -5    1    4    4    0  502  0.13103175749E+02  0.18164044021E+02  0.47286381545E+03  0.47341726170E+03  0.47000000000E+01 0.  1.
          5    1    5    5  503    0 -0.65130060903E+00  0.34372540941E+02  0.80410657757E+02  0.87577734865E+02  0.47000000000E+01 0.  1.
         -5    1    5    5    0  503  0.58832570857E+00 -0.92169745473E+02  0.55198308579E+03  0.55964544589E+03  0.47000000000E+01 0.  1.
<mgrwt>
<rscale>  0 0.27652694E+03</rscale>
<asrwt>0</asrwt>
<pdfrwt beam="1">  1        2 0.17898014E+00 0.27652694E+03</pdfrwt>
<pdfrwt beam="2">  1       -2 0.25280365E-02 0.27652694E+03</pdfrwt>
<totfact> 0.11449968E+04</totfact>
</mgrwt>
</event>
<event>
 9    1  0.8285222E-001  0.2767405E+03  0.7818608E-02  0.1097483E+00
         -3   -1    0    0    0  501 -0.00000000000E+00  0.00000000000E+00  0.13813385254E+03  0.13813385254E+03  0.00000000000E+00 0. -1.
          3   -1    0    0  501    0  0.00000000000E+00 -0.00000000000E+00 -0.13860701772E+03  0.13860701772E+03  0.00000000000E+00 0. -1.
         35    2    1    2    0    0  0.00000000000E+00  0.00000000000E+00 -0.47316518594E+00  0.27674087026E+03  0.27674046576E+03 0.  0.
         25    2    3    3    0    0 -0.33108570898E+02 -0.28930888746E+02  0.40587746309E+02  0.13886915890E+03  0.12531601794E+03 0.  0.
         25    2    3    3    0    0  0.33108570898E+02  0.28930888746E+02 -0.41060911495E+02  0.13787171136E+03  0.12405416781E+03 0.  0.
          5    1    4    4  502    0  0.24813546417E+02  0.52220917925E+01 -0.31144931722E+02  0.40436111342E+02  0.47000000000E+01 0. -1.
         -5    1    4    4    0  502 -0.57922117315E+02 -0.34152980539E+02  0.71732678031E+02  0.98433047558E+02  0.47000000000E+01 0. -1.
          5    1    5    5  503    0 -0.38472534393E+01  0.71550886392E+02 -0.78348303930E+01  0.72234377340E+02  0.47000000000E+01 0.  1.
         -5    1    5    5    0  503  0.36955824338E+02 -0.42619997645E+02 -0.33226081102E+02  0.65637334019E+02  0.47000000000E+01 0.  1.
<mgrwt>
<rscale>  0 0.27674047E+03</rscale>
<asrwt>0</asrwt>
<pdfrwt beam="1">  1        3 0.21324157E-01 0.27674047E+03</pdfrwt>
<pdfrwt beam="2">  1       -3 0.21251362E-01 0.27674047E+03</pdfrwt>
<totfact> 0.10261588E+03</totfact>
</mgrwt>
</event>
<event>
 9    1  0.8285222E-001  0.2745718E+03  0.7818608E-02  0.1098691E+00
         -1   -1    0    0    0  501 -0.00000000000E+00  0.00000000000E+00  0.40328640713E+02  0.40328640713E+02  0.00000000000E+00 0.  1.
          1   -1    0    0  501    0  0.00000000000E+00 -0.00000000000E+00 -0.46734574974E+03  0.46734574974E+03  0.00000000000E+00 0.  1.
         35    2    1    2    0    0  0.00000000000E+00 -0.71054273576E-14 -0.42701710903E+03  0.50767439045E+03  0.27457180358E+03 0.  0.
         25    2    3    3    0    0 -0.45271760341E+02  0.33396898805E+02 -0.22919509882E+03  0.26740575091E+03  0.12574003803E+03 0.  0.
         25    2    3    3    0    0  0.45271760341E+02 -0.33396898805E+02 -0.19782201020E+03  0.24026863954E+03  0.12421991101E+03 0.  0.
          5    1    4    4  502    0 -0.45788393113E+01  0.73833633320E+02 -0.16672888246E+03  0.18246364412E+03  0.47000000000E+01 0. -1.
         -5    1    4    4    0  502 -0.40692921030E+02 -0.40436734514E+02 -0.62466216358E+02  0.84942106792E+02  0.47000000000E+01 0. -1.
          5    1    5    5  503    0 -0.14569272237E+02 -0.65543464305E+02 -0.84070375431E+02  0.10769460261E+03  0.47000000000E+01 0. -1.
         -5    1    5    5    0  503  0.59841032579E+02  0.32146565500E+02 -0.11375163477E+03  0.13257403693E+03  0.47000000000E+01 0. -1.
<mgrwt>
<rscale>  0 0.27457180E+03</rscale>
<asrwt>0</asrwt>
<pdfrwt beam="1">  1        1 0.71899344E-01 0.27457180E+03</pdfrwt>
<pdfrwt beam="2">  1       -1 0.62044064E-02 0.27457180E+03</pdfrwt>
<totfact> 0.62423921E+03</totfact>
</mgrwt>
</event>
<event>
 9    1  0.8285222E-001  0.2737582E+03  0.7818608E-02  0.1099148E+00
         -2   -1    0    0    0  501 -0.00000000000E+00  0.00000000000E+00  0.13775498994E+03  0.13775498994E+03  0.00000000000E+00 0.  1.
          2   -1    0    0  501    0  0.00000000000E+00 -0.00000000000E+00 -0.13600881215E+03  0.13600881215E+03  0.00000000000E+00 0.  1.
         35    2    1    2    0    0  0.00000000000E+00  0.00000000000E+00  0.17461777888E+01  0.27376380209E+03  0.27375823311E+03 0.  0.
         25    2    3    3    0    0  0.48563020954E+02  0.43472117907E+02 -0.50198838747E+01  0.13326925574E+03  0.11613484943E+03 0.  0.
         25    2    3    3    0    0 -0.48563020954E+02 -0.43472117907E+02  0.67660616635E+01  0.14049454634E+03  0.12427689215E+03 0.  0.
          5    1    4    4  502    0  0.27830999381E+02  0.83254203601E+02 -0.64120726467E+01  0.88142110364E+02  0.47000000000E+01 0.  1.
         -5    1    4    4    0  502  0.20732021573E+02 -0.39782085694E+02  0.13921887721E+01  0.45127145381E+02  0.47000000000E+01 0.  1.
          5    1    5    5  503    0 -0.66731200938E+01  0.42016588856E+02 -0.93871534086E+01  0.43819321309E+02  0.47000000000E+01 0. -1.
         -5    1    5    5    0  503 -0.41889900860E+02 -0.85488706763E+02  0.16153215072E+02  0.96675225033E+02  0.47000000000E+01 0. -1.
<mgrwt>
<rscale>  0 0.27375823E+03</rscale>
<asrwt>0</asrwt>
<pdfrwt beam="1">  1        2 0.20924433E-01 0.27375823E+03</pdfrwt>
<pdfrwt beam="2">  1       -2 0.21193075E-01 0.27375823E+03</pdfrwt>
<totfact> 0.49754366E+03</totfact>
</mgrwt>
</event>
<event>
 9    1  0.8285222E-001  0.2756579E+03  0.7818608E-02  0.1098084E+00
          1   -1    0    0  501    0  0.00000000000E+00  0.00000000000E+00  0.41160098991E+02  0.41160098991E+02  0.00000000000E+00 0.  1.
         -1   -1    0    0    0  501 -0.00000000000E+00 -0.00000000000E+00 -0.46153489383E+03  0.46153489383E+03  0.00000000000E+00 0.  1.
         35    2    1    2    0    0  0.00000000000E+00  0.71054273576E-14 -0.42037479484E+03  0.50269499282E+03  0.27565791785E+03 0.  0.
         25    2    3    3    0    0  0.34628753030E+02 -0.47509152495E+02 -0.25520869846E+03  0.28733367796E+03  0.11820699054E+03 0.  0.
         25    2    3    3    0    0 -0.34628753030E+02  0.47509152495E+02 -0.16516609637E+03  0.21536131486E+03  0.12507752172E+03 0.  0.
          5    1    4    4  502    0  0.64669909408E+01  0.37407319678E+02 -0.11259778546E+03  0.11891795839E+03  0.47000000000E+01 0.  1.
         -5    1    4    4    0  502  0.28161762090E+02 -0.84916472173E+02 -0.14261091300E+03  0.16841571957E+03  0.47000000000E+01 0.  1.
          5    1    5    5  503    0 -0.32340447553E+02  0.81638211632E+02 -0.64829921115E+02  0.10925067880E+03  0.47000000000E+01 0. -1.
         -5    1    5    5    0  503 -0.22883054773E+01 -0.34129059137E+02 -0.10033617526E+03  0.10611063606E+03  0.47000000000E+01 0. -1.
<mgrwt>
<rscale>  0 0.27565792E+03</rscale>
<asrwt>0</asrwt>
<pdfrwt beam="1">  1        1 0.63323232E-02 0.27565792E+03</pdfrwt>
<pdfrwt beam="2">  1       -1 0.71005365E-01 0.27565792E+03</pdfrwt>
<totfact> 0.24929462E+03</totfact>
</mgrwt>
</event>
<event>
 9    1  0.8285222E-001  0.2741634E+03  0.7818608E-02  0.1098920E+00
          1   -1    0    0  501    0  0.00000000000E+00  0.00000000000E+00  0.92915361716E+03  0.92915361716E+03  0.00000000000E+00 0.  1.
         -1   -1    0    0    0  501 -0.00000000000E+00 -0.00000000000E+00 -0.20224196972E+02  0.20224196972E+02  0.00000000000E+00 0.  1.
         35    2    1    2    0    0  0.14210854715E-13  0.00000000000E+00  0.90892942019E+03  0.94937781413E+03  0.27416335109E+03 0.  0.
         25    2    3    3    0    0 -0.42370165590E+02 -0.34187451619E+01  0.32819899687E+03  0.35398582764E+03  0.12563624426E+03 0.  0.
         25    2    3    3    0    0  0.42370165590E+02  0.34187451619E+01  0.58073042332E+03  0.59539198649E+03  0.12424521827E+03 0.  0.
          5    1    4    4  502    0 -0.52618042251E+01  0.25920278481E+02  0.50189445140E+01  0.27328139788E+02  0.47000000000E+01 0. -1.
         -5    1    4    4    0  502 -0.37108361364E+02 -0.29339023643E+02  0.32318005236E+03  0.32665768785E+03  0.47000000000E+01 0. -1.
          5    1    5    5  503    0 -0.12918813319E+02  0.43828981101E+02  0.38979733275E+03  0.39249449161E+03  0.47000000000E+01 0. -1.
         -5    1    5    5    0  503  0.55288978909E+02 -0.40410235939E+02  0.19093309056E+03  0.20289749488E+03  0.47000000000E+01 0. -1.
<mgrwt>
<rscale>  0 0.27416335E+03</rscale>
<asrwt>0</asrwt>
<pdfrwt beam="1">  1        1 0.14294668E+00 0.27416335E+03</pdfrwt>
<pdfrwt beam="2">  1       -1 0.31114156E-02 0.27416335E+03</pdfrwt>
<totfact> 0.64670889E+03</totfact>
</mgrwt>
</event>
<event>
 9    1  0.8285222E-001  0.2683128E+03  0.7818608E-02  0.1102249E+00
         -4   -1    0    0    0  501 -0.00000000000E+00  0.00000000000E+00  0.54124899871E+03  0.54124899871E+03  0.00000000000E+00 0.  1.
          4   -1    0    0  501    0  0.00000000000E+00 -0.00000000000E+00 -0.33252607604E+02  0.33252607604E+02  0.00000000000E+00 0.  1.
         35    2    1    2    0    0  0.35527136788E-14  0.00000000000E+00  0.50799639110E+03  0.57450160631E+03  0.26831280677E+03 0.  0.
         25    2    3    3    0    0  0.26385559741E+02 -0.24755781098E+02  0.18339749864E+03  0.22484942719E+03  0.12495429541E+03 0.  0.
         25    2    3    3    0    0 -0.26385559741E+02  0.24755781098E+02  0.32459889246E+03  0.34965217912E+03  0.12483252346E+03 0.  0.
          5    1    4    4  502    0 -0.78885269864E+01 -0.67134950393E+02  0.13808357058E+03  0.15381317527E+03  0.47000000000E+01 0.  1.
         -5    1    4    4    0  502  0.34274086727E+02  0.42379169295E+02  0.45313928067E+02  0.71036251928E+02  0.47000000000E+01 0.  1.
          5    1    5    5  503    0  0.27725217656E+02  0.84382383599E-01  0.10624880869E+02  0.30061152804E+02  0.47000000000E+01 0. -1.
         -5    1    5    5    0  503 -0.54110777396E+02  0.24671398714E+02  0.31397401159E+03  0.31959102631E+03  0.47000000000E+01 0. -1.
<mgrwt>
<rscale>  0 0.26831281E+03</rscale>
<asrwt>0</asrwt>
<pdfrwt beam="1">  1        4 0.51157862E-02 0.26831281E+03</pdfrwt>
<pdfrwt beam="2">  1       -4 0.83269070E-01 0.26831281E+03</pdfrwt>
<totfact> 0.55801367E+02</totfact>
</mgrwt>
</event>
<event>
 9    1  0.8285222E-001  0.2736490E+03  0.7818608E-02  0.1099209E+00
          2   -1    0    0  501    0  0.00000000000E+00  0.00000000000E+00  0.15284372813E+03  0.15284372813E+03  0.00000000000E+00 0.  1.
         -2   -1    0    0    0  501 -0.00000000000E+00 -0.00000000000E+00 -0.12248424092E+03  0.12248424092E+03  0.00000000000E+00 0.  1.
         35    2    1    2    0    0  0.35527136788E-14  0.00000000000E+00  0.30359487211E+02  0.27532796906E+03  0.27364903084E+03 0.  0.
         25    2    3    3    0    0 -0.28802297807E+02 -0.56035468182E+01 -0.32080000525E+02  0.13233538768E+03  0.12499022483E+03 0.  0.
         25    2    3    3    0    0  0.28802297807E+02  0.56035468182E+01  0.62439487736E+02  0.14299258137E+03  0.12524861917E+03 0.  0.
          5    1    4    4  502    0 -0.70815987140E+02 -0.32643975858E+02 -0.17178167692E+02  0.79985702720E+02  0.47000000000E+01 0.  1.
         -5    1    4    4    0  502  0.42013689333E+02  0.27040429039E+02 -0.14901832833E+02  0.52349684963E+02  0.47000000000E+01 0.  1.
          5    1    5    5  503    0  0.40248067853E+01  0.61056722069E+02  0.53512208555E+02  0.81423392486E+02  0.47000000000E+01 0.  1.
         -5    1    5    5    0  503  0.24777491022E+02 -0.55453175251E+02  0.89272791810E+01  0.61569188888E+02  0.47000000000E+01 0.  1.
<mgrwt>
<rscale>  0 0.27364903E+03</rscale>
<asrwt>0</asrwt>
<pdfrwt beam="1">  1        2 0.23514420E-01 0.27364903E+03</pdfrwt>
<pdfrwt beam="2">  1       -2 0.18843729E-01 0.27364903E+03</pdfrwt>
<totfact> 0.53302353E+03</totfact>
</mgrwt>
</event>
<event>
 9    1  0.8285222E-001  0.2758317E+03  0.7818608E-02  0.1097988E+00
         -2   -1    0    0    0  501 -0.00000000000E+00  0.00000000000E+00  0.10130145662E+03  0.10130145662E+03  0.00000000000E+00 0. -1.
          2   -1    0    0  501    0  0.00000000000E+00 -0.00000000000E+00 -0.18776413115E+03  0.18776413115E+03  0.00000000000E+00 0. -1.
         35    2    1    2    0    0  0.00000000000E+00  0.00000000000E+00 -0.86462674537E+02  0.28906558777E+03  0.27583168771E+03 0.  0.
         25    2    3    3    0    0  0.33448938900E+02  0.15324237602E+02 -0.64664370064E+01  0.13553821976E+03  0.13028864277E+03 0.  0.
         25    2    3    3    0    0 -0.33448938900E+02 -0.15324237602E+02 -0.79996237530E+02  0.15352736801E+03  0.12576800443E+03 0.  0.
          5    1    4    4  502    0 -0.24634199990E+02 -0.40494645518E+02 -0.23427672734E+02  0.53081126349E+02  0.47000000000E+01 0.  1.
         -5    1    4    4    0  502  0.58083138890E+02  0.55818883119E+02  0.16961235728E+02  0.82457093409E+02  0.47000000000E+01 0.  1.
          5    1    5    5  503    0  0.13546392306E+02 -0.62594462127E+02 -0.39604998208E+02  0.75446784667E+02  0.47000000000E+01 0. -1.
         -5    1    5    5    0  503 -0.46995331207E+02  0.47270224525E+02 -0.40391239323E+02  0.78080583348E+02  0.47000000000E+01 0. -1.
<mgrwt>
<rscale>  0 0.27583169E+03</rscale>
<asrwt>0</asrwt>
<pdfrwt beam="1">  1        2 0.28886789E-01 0.27583169E+03</pdfrwt>
<pdfrwt beam="2">  1       -2 0.15584840E-01 0.27583169E+03</pdfrwt>
<totfact> 0.58312492E+03</totfact>
</mgrwt>
</event>
<event>
 9    1  0.8285222E-001  0.2719527E+03  0.7818608E-02  0.1100167E+00
          2   -1    0    0  501    0  0.00000000000E+00  0.00000000000E+00  0.48299933496E+02  0.48299933496E+02  0.00000000000E+00 0.  1.
         -2   -1    0    0    0  501 -0.00000000000E+00 -0.00000000000E+00 -0.38280734719E+03  0.38280734719E+03  0.00000000000E+00 0.  1.
         35    2    1    2    0    0  0.71054273576E-14  0.71054273576E-14 -0.33450741369E+03  0.43110728069E+03  0.27195271215E+03 0.  0.
         25    2    3    3    0    0  0.39020414924E+02  0.12192185332E+01 -0.10905031649E+03  0.17033108846E+03  0.12488646402E+03 0.  0.
         25    2    3    3    0    0 -0.39020414924E+02 -0.12192185332E+01 -0.22545709721E+03  0.26077619223E+03  0.12509692433E+03 0.  0.
          5    1    4    4  502    0  0.41230826614E+02  0.54401287207E+02 -0.91158837116E+02  0.11398028205E+03  0.47000000000E+01 0. -1.
         -5    1    4    4    0  502 -0.22104116894E+01 -0.53182068673E+02 -0.17891479373E+02  0.56350806404E+02  0.47000000000E+01 0. -1.
          5    1    5    5  503    0  0.71409897435E+01 -0.44018259576E+02 -0.26591843732E+02  0.52132687095E+02  0.47000000000E+01 0. -1.
         -5    1    5    5    0  503 -0.46161404668E+02  0.42799041043E+02 -0.19886525347E+03  0.20864350513E+03  0.47000000000E+01 0. -1.
<mgrwt>
<rscale>  0 0.27195271E+03</rscale>
<asrwt>0</asrwt>
<pdfrwt beam="1">  1        2 0.74307591E-02 0.27195271E+03</pdfrwt>
<pdfrwt beam="2">  1       -2 0.58893437E-01 0.27195271E+03</pdfrwt>
<totfact> 0.25614250E+03</totfact>
</mgrwt>
</event>
<event>
 9    1  0.8285222E-001  0.2755286E+03  0.7818608E-02  0.1098156E+00
         -1   -1    0    0    0  501 -0.00000000000E+00  0.00000000000E+00  0.10093791041E+04  0.10093791041E+04  0.00000000000E+00 0.  1.
          1   -1    0    0  501    0  0.00000000000E+00 -0.00000000000E+00 -0.18802655052E+02  0.18802655052E+02  0.00000000000E+00 0.  1.
         35    2    1    2    0    0  0.71054273576E-14  0.00000000000E+00  0.99057644906E+03  0.10281817592E+04  0.27552863453E+03 0.  0.
         25    2    3    3    0    0  0.25836522462E+02 -0.40539835914E+01  0.30090315016E+03  0.32685281759E+03  0.12492436879E+03 0.  0.
         25    2    3    3    0    0 -0.25836522462E+02  0.40539835914E+01  0.68967329890E+03  0.70132894157E+03  0.12461566672E+03 0.  0.
          5    1    4    4  502    0 -0.36787098730E+02  0.34424157381E+02  0.87244409516E+02  0.10085628506E+03  0.47000000000E+01 0. -1.
         -5    1    4    4    0  502  0.62623621192E+02 -0.38478140973E+02  0.21365874064E+03  0.22599653253E+03  0.47000000000E+01 0. -1.
          5    1    5    5  503    0 -0.70912242055E+01 -0.58009629171E+02  0.24429367063E+03  0.25123075060E+03  0.47000000000E+01 0.  1.
         -5    1    5    5    0  503 -0.18745298256E+02  0.62063612762E+02  0.44537962827E+03  0.45009819097E+03  0.47000000000E+01 0.  1.
<mgrwt>
<rscale>  0 0.27552863E+03</rscale>
<asrwt>0</asrwt>
<pdfrwt beam="1">  1        1 0.28927169E-02 0.27552863E+03</pdfrwt>
<pdfrwt beam="2">  1       -1 0.15528905E+00 0.27552863E+03</pdfrwt>
<totfact> 0.12372250E+03</totfact>
</mgrwt>
</event>
<event>
 9    1  0.8285222E-001  0.2791588E+03  0.7818608E-02  0.1096149E+00
         -2   -1    0    0    0  501 -0.00000000000E+00  0.00000000000E+00  0.73861273550E+01  0.73861273550E+01  0.00000000000E+00 0. -1.
          2   -1    0    0  501    0  0.00000000000E+00 -0.00000000000E+00 -0.26377023028E+04  0.26377023028E+04  0.00000000000E+00 0. -1.
         35    2    1    2    0    0  0.00000000000E+00  0.71054273576E-14 -0.26303161755E+04  0.26450884302E+04  0.27915877298E+03 0.  0.
         25    2    3    3    0    0 -0.17612055670E+02  0.60730602057E+02 -0.12063828026E+04  0.12145054035E+04  0.12516196776E+03 0.  0.
         25    2    3    3    0    0  0.17612055670E+02 -0.60730602057E+02 -0.14239333728E+04  0.14305830266E+04  0.12240569979E+03 0.  0.
          5    1    4    4  502    0 -0.39617336478E+02  0.89253486141E+02 -0.10155728898E+04  0.10202676623E+04  0.47000000000E+01 0.  1.
         -5    1    4    4    0  502  0.22005280808E+02 -0.28522884085E+02 -0.19080991281E+03  0.19423774125E+03  0.47000000000E+01 0.  1.
          5    1    5    5  503    0  0.11525379794E+01 -0.11680099240E+02 -0.12222704814E+04  0.12223358674E+04  0.47000000000E+01 0. -1.
         -5    1    5    5    0  503  0.16459517691E+02 -0.49050502817E+02 -0.20166289141E+03  0.20824715921E+03  0.47000000000E+01 0. -1.
<mgrwt>
<rscale>  0 0.27915877E+03</rscale>
<asrwt>0</asrwt>
<pdfrwt beam="1">  1        2 0.40580036E+00 0.27915877E+03</pdfrwt>
<pdfrwt beam="2">  1       -2 0.11363273E-02 0.27915877E+03</pdfrwt>
<totfact> 0.59565338E+03</totfact>
</mgrwt>
</event>
<event>
 9    1  0.8285222E-001  0.2708485E+03  0.7818608E-02  0.1100795E+00
          1   -1    0    0  501    0  0.00000000000E+00  0.00000000000E+00  0.11748658840E+04  0.11748658840E+04  0.00000000000E+00 0. -1.
         -1   -1    0    0    0  501 -0.00000000000E+00 -0.00000000000E+00 -0.15610056828E+02  0.15610056828E+02  0.00000000000E+00 0. -1.
         35    2    1    2    0    0 -0.35527136788E-14 -0.17763568394E-14  0.11592558272E+04  0.11904759409E+04  0.27084846845E+03 0.  0.
         25    2    3    3    0    0  0.31092466852E+02  0.74336088393E+01  0.39547705878E+03  0.41598864674E+03  0.12498980020E+03 0.  0.
         25    2    3    3    0    0 -0.31092466852E+02 -0.74336088393E+01  0.76377876841E+03  0.77448729412E+03  0.12430028815E+03 0.  0.
          5    1    4    4  502    0  0.33557512006E+02  0.35900833712E+02  0.53533121236E+02  0.72820749396E+02  0.47000000000E+01 0. -1.
         -5    1    4    4    0  502 -0.24650451539E+01 -0.28467224873E+02  0.34194393755E+03  0.34316789734E+03  0.47000000000E+01 0. -1.
          5    1    5    5  503    0 -0.48521599494E+02 -0.11257616600E+01  0.10877499286E+03  0.11920445474E+03  0.47000000000E+01 0. -1.
         -5    1    5    5    0  503  0.17429132642E+02 -0.63078471793E+01  0.65500377555E+03  0.65528283938E+03  0.47000000000E+01 0. -1.
<mgrwt>
<rscale>  0 0.27084847E+03</rscale>
<asrwt>0</asrwt>
<pdfrwt beam="1">  1        1 0.18074853E+00 0.27084847E+03</pdfrwt>
<pdfrwt beam="2">  1       -1 0.24015481E-02 0.27084847E+03</pdfrwt>
<totfact> 0.62453995E+03</totfact>
</mgrwt>
</event>
<event>
 9    1  0.8285222E-001  0.3099389E+03  0.7818608E-02  0.1080375E+00
          1   -1    0    0  501    0  0.00000000000E+00  0.00000000000E+00  0.86349827312E+02  0.86349827312E+02  0.00000000000E+00 0. -1.
         -1   -1    0    0    0  501 -0.00000000000E+00 -0.00000000000E+00 -0.27811911565E+03  0.27811911565E+03  0.00000000000E+00 0. -1.
         35    2    1    2    0    0  0.71054273576E-14 -0.71054273576E-14 -0.19176928834E+03  0.36446894296E+03  0.30993894630E+03 0.  0.
         25    2    3    3    0    0 -0.56893843680E+02  0.58294781352E+02 -0.48645354591E+02  0.15796914044E+03  0.12630395016E+03 0.  0.
         25    2    3    3    0    0  0.56893843680E+02 -0.58294781352E+02 -0.14312393375E+03  0.20649980252E+03  0.12458939381E+03 0.  0.
          5    1    4    4  502    0 -0.90672721806E+02  0.41376036398E+02 -0.62177319936E+02  0.11756542001E+03  0.47000000000E+01 0. -1.
         -5    1    4    4    0  502  0.33778878126E+02  0.16918744954E+02  0.13531965345E+02  0.40403720427E+02  0.47000000000E+01 0. -1.
          5    1    5    5  503    0  0.50227099891E+02 -0.55695041589E+02 -0.13201892486E+02  0.76295997184E+02  0.47000000000E+01 0. -1.
         -5    1    5    5    0  503  0.66667437888E+01 -0.25997397631E+01 -0.12992204126E+03  0.13020380534E+03  0.47000000000E+01 0. -1.
<mgrwt>
<rscale>  0 0.30993895E+03</rscale>
<asrwt>0</asrwt>
<pdfrwt beam="1">  1        1 0.13284589E-01 0.30993895E+03</pdfrwt>
<pdfrwt beam="2">  1       -1 0.42787557E-01 0.30993895E+03</pdfrwt>
<totfact> 0.23959768E+03</totfact>
</mgrwt>
</event>
<event>
 9    1  0.8285222E-001  0.2749240E+03  0.7818608E-02  0.1098494E+00
         -1   -1    0    0    0  501 -0.00000000000E+00  0.00000000000E+00  0.76696902368E+01  0.76696902368E+01  0.00000000000E+00 0.  1.
          1   -1    0    0  501    0  0.00000000000E+00 -0.00000000000E+00 -0.24636990046E+04  0.24636990046E+04  0.00000000000E+00 0.  1.
         35    2    1    2    0    0 -0.17763568394E-14 -0.71054273576E-14 -0.24560293144E+04  0.24713686949E+04  0.27492404916E+03 0.  0.
         25    2    3    3    0    0 -0.40555097177E+01 -0.39793175181E+02 -0.15717263065E+04  0.15774137951E+04  0.12771356458E+03 0.  0.
         25    2    3    3    0    0  0.40555097177E+01  0.39793175181E+02 -0.88430300788E+03  0.89395489972E+03  0.12475419448E+03 0.  0.
          5    1    4    4  502    0  0.53262325319E+01  0.25719243733E+02 -0.82441318487E+02  0.86651654601E+02  0.47000000000E+01 0.  1.
         -5    1    4    4    0  502 -0.93817422496E+01 -0.65512418914E+02 -0.14892849880E+04  0.14907621405E+04  0.47000000000E+01 0.  1.
          5    1    5    5  503    0 -0.22311598106E+02  0.15082638105E+02 -0.81668682799E+03  0.81714427025E+03  0.47000000000E+01 0.  1.
         -5    1    5    5    0  503  0.26367107824E+02  0.24710537076E+02 -0.67616179886E+02  0.76810629472E+02  0.47000000000E+01 0.  1.
<mgrwt>
<rscale>  0 0.27492405E+03</rscale>
<asrwt>0</asrwt>
<pdfrwt beam="1">  1        1 0.37903052E+00 0.27492405E+03</pdfrwt>
<pdfrwt beam="2">  1       -1 0.11799526E-02 0.27492405E+03</pdfrwt>
<totfact> 0.24804921E+03</totfact>
</mgrwt>
</event>
<event>
 8    1  0.8285222E-001  0.3401383E+03  0.7818608E-02  0.1066737E+00
          1   -1    0    0  501    0  0.00000000000E+00  0.00000000000E+00  0.48574948477E+03  0.48574948477E+03  0.00000000000E+00 0. -1.
         -1   -1    0    0    0  501 -0.00000000000E+00 -0.00000000000E+00 -0.59544083379E+02  0.59544083379E+02  0.00000000000E+00 0. -1.
         25    2    1    2    0    0 -0.56035700736E+02  0.10740870720E+02  0.52327732060E+02  0.14684658132E+03  0.12478125196E+03 0.  0.
         25    2    1    2    0    0  0.56035700736E+02 -0.10740870720E+02  0.37387766934E+03  0.39844698684E+03  0.12537991717E+03 0.  0.
          5    1    3    3  502    0 -0.84667778977E+01 -0.37315422641E+02  0.67181459934E+02  0.77456863180E+02  0.47000000000E+01 0.  1.
         -5    1    3    3    0  502 -0.47568922838E+02  0.48056293360E+02 -0.14853727874E+02  0.69389718138E+02  0.47000000000E+01 0.  1.
          5    1    4    4  503    0  0.10127059927E+02 -0.56442510894E+01 -0.72784683248E+01  0.14473458960E+02  0.47000000000E+01 0.  1.
         -5    1    4    4    0  503  0.45908640809E+02 -0.50966196302E+01  0.38115613766E+03  0.38397352787E+03  0.47000000000E+01 0.  1.
<mgrwt>
<rscale>  0 0.34013825E+03</rscale>
<asrwt>0</asrwt>
<pdfrwt beam="1">  1        1 0.74730687E-01 0.34013825E+03</pdfrwt>
<pdfrwt beam="2">  1       -1 0.91606286E-02 0.34013825E+03</pdfrwt>
<totfact> 0.32864680E+03</totfact>
</mgrwt>
</event>
<event>
 9    1  0.8285222E-001  0.2748782E+03  0.7818608E-02  0.1098520E+00
          2   -1    0    0  501    0  0.00000000000E+00  0.00000000000E+00  0.49899205089E+03  0.49899205089E+03  0.00000000000E+00 0.  1.
         -2   -1    0    0    0  501 -0.00000000000E+00 -0.00000000000E+00 -0.37855330728E+02  0.37855330728E+02  0.00000000000E+00 0.  1.
         35    2    1    2    0    0  0.00000000000E+00  0.00000000000E+00  0.46113672016E+03  0.53684738162E+03  0.27487822116E+03 0.  0.
         25    2    3    3    0    0 -0.40267099126E+02  0.30071521845E+02  0.27920627820E+03  0.30990074232E+03  0.12472605424E+03 0.  0.
         25    2    3    3    0    0  0.40267099126E+02 -0.30071521845E+02  0.18193044196E+03  0.22694663930E+03  0.12601728325E+03 0.  0.
          5    1    4    4  502    0 -0.75852918064E+02  0.52192368381E+02  0.19738315109E+03  0.21785294772E+03  0.47000000000E+01 0.  1.
         -5    1    4    4    0  502  0.35585818937E+02 -0.22120846536E+02  0.81823127106E+02  0.92047794598E+02  0.47000000000E+01 0.  1.
          5    1    5    5  503    0  0.11433820470E+01  0.15372335318E+02  0.16313554899E+03  0.16392959879E+03  0.47000000000E+01 0. -1.
         -5    1    5    5    0  503  0.39123717079E+02 -0.45443857163E+02  0.18794892969E+02  0.63017040502E+02  0.47000000000E+01 0. -1.
<mgrwt>
<rscale>  0 0.27487822E+03</rscale>
<asrwt>0</asrwt>
<pdfrwt beam="1">  1        2 0.76768003E-01 0.27487822E+03</pdfrwt>
<pdfrwt beam="2">  1       -2 0.58238974E-02 0.27487822E+03</pdfrwt>
<totfact> 0.96126563E+03</totfact>
</mgrwt>
</event>
<event>
 9    1  0.8285222E-001  0.2854526E+03  0.7818608E-02  0.1092748E+00
         -2   -1    0    0    0  501 -0.00000000000E+00  0.00000000000E+00  0.15745793262E+02  0.15745793262E+02  0.00000000000E+00 0. -1.
          2   -1    0    0  501    0  0.00000000000E+00 -0.00000000000E+00 -0.12937293806E+04  0.12937293806E+04  0.00000000000E+00 0. -1.
         35    2    1    2    0    0  0.00000000000E+00  0.00000000000E+00 -0.12779835873E+04  0.13094751738E+04  0.28545259056E+03 0.  0.
         25    2    3    3    0    0  0.64101524802E+02 -0.23764850189E+02 -0.73386768655E+03  0.74733440116E+03  0.12358459536E+03 0.  0.
         25    2    3    3    0    0 -0.64101524802E+02  0.23764850189E+02 -0.54411590077E+03  0.56214077269E+03  0.12355711739E+03 0.  0.
          5    1    4    4  502    0 -0.14071155589E+02 -0.66964729430E+01 -0.10129175111E+02  0.19171081293E+02  0.47000000000E+01 0.  1.
         -5    1    4    4    0  502  0.78172680391E+02 -0.17068377246E+02 -0.72373851144E+03  0.72816331986E+03  0.47000000000E+01 0.  1.
          5    1    5    5  503    0  0.23813417056E+02  0.18990715956E+02 -0.31725671594E+03  0.31875012147E+03  0.47000000000E+01 0. -1.
         -5    1    5    5    0  503 -0.87914941858E+02  0.47741342330E+01 -0.22685918483E+03  0.24339065122E+03  0.47000000000E+01 0. -1.
<mgrwt>
<rscale>  0 0.28545259E+03</rscale>
<asrwt>0</asrwt>
<pdfrwt beam="1">  1        2 0.19903531E+00 0.28545259E+03</pdfrwt>
<pdfrwt beam="2">  1       -2 0.24224295E-02 0.28545259E+03</pdfrwt>
<totfact> 0.10303672E+04</totfact>
</mgrwt>
</event>
<event>
 9    1  0.8285222E-001  0.2753485E+03  0.7818608E-02  0.1098257E+00
          2   -1    0    0  501    0  0.00000000000E+00  0.00000000000E+00  0.14895011422E+02  0.14895011422E+02  0.00000000000E+00 0.  1.
         -2   -1    0    0    0  501 -0.00000000000E+00 -0.00000000000E+00 -0.12725200334E+04  0.12725200334E+04  0.00000000000E+00 0.  1.
         35    2    1    2    0    0  0.17763568394E-14 -0.71054273576E-14 -0.12576250219E+04  0.12874150448E+04  0.27534850958E+03 0.  0.
         25    2    3    3    0    0 -0.22481469274E+01  0.49262797541E+02 -0.75861180064E+03  0.77038761303E+03  0.12479316027E+03 0.  0.
         25    2    3    3    0    0  0.22481469274E+01 -0.49262797541E+02 -0.49901322130E+03  0.51702743175E+03  0.12598131913E+03 0.  0.
          5    1    4    4  502    0 -0.22626438049E+02  0.42196616210E+02 -0.73986237973E+03  0.74142493960E+03  0.47000000000E+01 0. -1.
         -5    1    4    4    0  502  0.20378291122E+02  0.70661813310E+01 -0.18749420908E+02  0.28962673427E+02  0.47000000000E+01 0. -1.
          5    1    5    5  503    0  0.13912882804E+02  0.15353035214E+02 -0.38339011849E+03  0.38397832876E+03  0.47000000000E+01 0. -1.
         -5    1    5    5    0  503 -0.11664735877E+02 -0.64615832755E+02 -0.11562310280E+03  0.13304910299E+03  0.47000000000E+01 0. -1.
<mgrwt>
<rscale>  0 0.27534851E+03</rscale>
<asrwt>0</asrwt>
<pdfrwt beam="1">  1        2 0.22915391E-02 0.27534851E+03</pdfrwt>
<pdfrwt beam="2">  1       -2 0.19577241E+00 0.27534851E+03</pdfrwt>
<totfact> 0.69619821E+02</totfact>
</mgrwt>
</event>
<event>
 9    1  0.8285222E-001  0.2769538E+03  0.7818608E-02  0.1097364E+00
         -4   -1    0    0    0  501 -0.00000000000E+00  0.00000000000E+00  0.42057415474E+02  0.42057415474E+02  0.00000000000E+00 0. -1.
          4   -1    0    0  501    0  0.00000000000E+00 -0.00000000000E+00 -0.45594453733E+03  0.45594453733E+03  0.00000000000E+00 0. -1.
         35    2    1    2    0    0  0.00000000000E+00  0.00000000000E+00 -0.41388712185E+03  0.49800195280E+03  0.27695377838E+03 0.  0.
         25    2    3    3    0    0  0.31667139918E+02  0.44281314058E+02 -0.24529988108E+03  0.28091467573E+03  0.12560804455E+03 0.  0.
         25    2    3    3    0    0 -0.31667139918E+02 -0.44281314058E+02 -0.16858724077E+03  0.21708727707E+03  0.12546547569E+03 0.  0.
          5    1    4    4  502    0 -0.16963233590E+02  0.76334330062E+02 -0.13447136428E+03  0.15562557326E+03  0.47000000000E+01 0. -1.
         -5    1    4    4    0  502  0.48630373508E+02 -0.32053016004E+02 -0.11082851680E+03  0.12528910247E+03  0.47000000000E+01 0. -1.
          5    1    5    5  503    0 -0.62672212105E+02 -0.52746429043E+01 -0.15166296967E+03  0.16425399355E+03  0.47000000000E+01 0. -1.
         -5    1    5    5    0  503  0.31005072187E+02 -0.39006671153E+02 -0.16924271109E+02  0.52833283528E+02  0.47000000000E+01 0. -1.
<mgrwt>
<rscale>  0 0.27695378E+03</rscale>
<asrwt>0</asrwt>
<pdfrwt beam="1">  1        4 0.70145309E-01 0.27695378E+03</pdfrwt>
<pdfrwt beam="2">  1       -4 0.64703721E-02 0.27695378E+03</pdfrwt>
<totfact> 0.55820582E+02</totfact>
</mgrwt>
</event>
<event>
 9    1  0.8285222E-001  0.2734098E+03  0.7818608E-02  0.1099344E+00
          2   -1    0    0  501    0  0.00000000000E+00  0.00000000000E+00  0.70657881379E+03  0.70657881379E+03  0.00000000000E+00 0.  1.
         -2   -1    0    0    0  501 -0.00000000000E+00 -0.00000000000E+00 -0.26448895517E+02  0.26448895517E+02  0.00000000000E+00 0.  1.
         35    2    1    2    0    0  0.00000000000E+00  0.00000000000E+00  0.68012991827E+03  0.73302770930E+03  0.27340979661E+03 0.  0.
         25    2    3    3    0    0 -0.24622857079E+01  0.59984306149E+00  0.20677153986E+03  0.24411572973E+03  0.12973664534E+03 0.  0.
         25    2    3    3    0    0  0.24622857079E+01 -0.59984306149E+00  0.47335837841E+03  0.48891197957E+03  0.12231249606E+03 0.  0.
          5    1    4    4  502    0  0.37803762801E+02 -0.43668530686E+02  0.51061228300E+02  0.77236028444E+02  0.47000000000E+01 0.  1.
         -5    1    4    4    0  502 -0.40266048509E+02  0.44268373748E+02  0.15571031156E+03  0.16687970129E+03  0.47000000000E+01 0.  1.
          5    1    5    5  503    0 -0.34815722886E+02  0.37044760357E+02  0.10522819956E+03  0.11695944944E+03  0.47000000000E+01 0.  1.
         -5    1    5    5    0  503  0.37278008594E+02 -0.37644603419E+02  0.36813017885E+03  0.37195253013E+03  0.47000000000E+01 0.  1.
<mgrwt>
<rscale>  0 0.27340980E+03</rscale>
<asrwt>0</asrwt>
<pdfrwt beam="1">  1        2 0.10870442E+00 0.27340980E+03</pdfrwt>
<pdfrwt beam="2">  1       -2 0.40690614E-02 0.27340980E+03</pdfrwt>
<totfact> 0.11057092E+04</totfact>
</mgrwt>
</event>
<event>
 9    1  0.8285222E-001  0.2739025E+03  0.7818608E-02  0.1099067E+00
         -2   -1    0    0    0  501 -0.00000000000E+00  0.00000000000E+00  0.64623301777E+02  0.64623301777E+02  0.00000000000E+00 0.  1.
          2   -1    0    0  501    0  0.00000000000E+00 -0.00000000000E+00 -0.29023037107E+03  0.29023037107E+03  0.00000000000E+00 0.  1.
         35    2    1    2    0    0  0.35527136788E-14  0.00000000000E+00 -0.22560706930E+03  0.35485367285E+03  0.27390249984E+03 0.  0.
         25    2    3    3    0    0 -0.24448619254E+02  0.33752541362E+01 -0.51813956846E+02  0.13738656254E+03  0.12482489383E+03 0.  0.
         25    2    3    3    0    0  0.24448619254E+02 -0.33752541362E+01 -0.17379311245E+03  0.21746711031E+03  0.12836966467E+03 0.  0.
          5    1    4    4  502    0 -0.16070799700E+02 -0.59729555137E+02 -0.15464777546E+02  0.63930741466E+02  0.47000000000E+01 0.  1.
         -5    1    4    4    0  502 -0.83778195543E+01  0.63104809274E+02 -0.36349179300E+02  0.73455821075E+02  0.47000000000E+01 0.  1.
          5    1    5    5  503    0  0.33509370946E+02 -0.60309504172E+02 -0.11987795156E+03  0.13839410213E+03  0.47000000000E+01 0. -1.
         -5    1    5    5    0  503 -0.90607516914E+01  0.56934250036E+02 -0.53915160889E+02  0.79073008177E+02  0.47000000000E+01 0. -1.
<mgrwt>
<rscale>  0 0.27390250E+03</rscale>
<asrwt>0</asrwt>
<pdfrwt beam="1">  1        2 0.44650826E-01 0.27390250E+03</pdfrwt>
<pdfrwt beam="2">  1       -2 0.99420465E-02 0.27390250E+03</pdfrwt>
<totfact> 0.75329548E+03</totfact>
</mgrwt>
</event>
<event>
 9    1  0.8285222E-001  0.2691232E+03  0.7818608E-02  0.1101782E+00
         -1   -1    0    0    0  501 -0.00000000000E+00  0.00000000000E+00  0.41913657538E+02  0.41913657538E+02  0.00000000000E+00 0. -1.
          1   -1    0    0  501    0  0.00000000000E+00 -0.00000000000E+00 -0.43200297585E+03  0.43200297585E+03  0.00000000000E+00 0. -1.
         35    2    1    2    0    0 -0.14210854715E-13 -0.35527136788E-14 -0.39008931831E+03  0.47391663339E+03  0.26912320439E+03 0.  0.
         25    2    3    3    0    0 -0.30967262092E+02 -0.23863662549E+02 -0.20752551929E+03  0.24931903956E+03  0.13253187021E+03 0.  0.
         25    2    3    3    0    0  0.30967262092E+02  0.23863662549E+02 -0.18256379903E+03  0.22459759383E+03  0.12484427391E+03 0.  0.
          5    1    4    4  502    0  0.38590504909E+02  0.29477631720E+02 -0.56628370917E+02  0.74746372712E+02  0.47000000000E+01 0. -1.
         -5    1    4    4    0  502 -0.69557767001E+02 -0.53341294269E+02 -0.15089714837E+03  0.17457266685E+03  0.47000000000E+01 0. -1.
          5    1    5    5  503    0 -0.38972943031E+02 -0.17826798615E+02 -0.33192505774E+02  0.54410637534E+02  0.47000000000E+01 0. -1.
         -5    1    5    5    0  503  0.69940205123E+02  0.41690461164E+02 -0.14937129325E+03  0.17018695629E+03  0.47000000000E+01 0. -1.
<mgrwt>
<rscale>  0 0.26912320E+03</rscale>
<asrwt>0</asrwt>
<pdfrwt beam="1">  1        1 0.66461996E-01 0.26912320E+03</pdfrwt>
<pdfrwt beam="2">  1       -1 0.64482550E-02 0.26912320E+03</pdfrwt>
<totfact> 0.65203305E+03</totfact>
</mgrwt>
</event>
<event>
 9    1  0.8285222E-001  0.2760143E+03  0.7818608E-02  0.1097886E+00
          2   -1    0    0  501    0  0.00000000000E+00  0.00000000000E+00  0.15077166074E+04  0.15077166074E+04  0.00000000000E+00 0. -1.
         -2   -1    0    0    0  501 -0.00000000000E+00 -0.00000000000E+00 -0.12632329713E+02  0.12632329713E+02  0.00000000000E+00 0. -1.
         35    2    1    2    0    0  0.00000000000E+00  0.00000000000E+00  0.14950842777E+04  0.15203489371E+04  0.27601429889E+03 0.  0.
         25    2    3    3    0    0  0.28505695214E+02  0.34490262021E+02  0.53734855226E+03  0.55341566743E+03  0.12459246167E+03 0.  0.
         25    2    3    3    0    0 -0.28505695214E+02 -0.34490262021E+02  0.95773572546E+03  0.96693326972E+03  0.12529994185E+03 0.  0.
          5    1    4    4  502    0 -0.74051055293E+01 -0.32540505216E+02  0.50960346016E+02  0.61096374145E+02  0.47000000000E+01 0. -1.
         -5    1    4    4    0  502  0.35910800744E+02  0.67030767237E+02  0.48638820625E+03  0.49231929329E+03  0.47000000000E+01 0. -1.
          5    1    5    5  503    0 -0.57104662325E+02 -0.14908187683E+02  0.20481571552E+03  0.21320122852E+03  0.47000000000E+01 0.  1.
         -5    1    5    5    0  503  0.28598967111E+02 -0.19582074338E+02  0.75292000994E+03  0.75373204120E+03  0.47000000000E+01 0.  1.
<mgrwt>
<rscale>  0 0.27601430E+03</rscale>
<asrwt>0</asrwt>
<pdfrwt beam="1">  1        2 0.23195626E+00 0.27601430E+03</pdfrwt>
<pdfrwt beam="2">  1       -2 0.19434365E-02 0.27601430E+03</pdfrwt>
<totfact> 0.10899699E+04</totfact>
</mgrwt>
</event>
<event>
 9    1  0.8285222E-001  0.2770920E+03  0.7818608E-02  0.1097288E+00
          2   -1    0    0  501    0  0.00000000000E+00  0.00000000000E+00  0.17608890947E+04  0.17608890947E+04  0.00000000000E+00 0.  1.
         -2   -1    0    0    0  501 -0.00000000000E+00 -0.00000000000E+00 -0.10900740313E+02  0.10900740313E+02  0.00000000000E+00 0.  1.
         35    2    1    2    0    0 -0.71054273576E-14 -0.35527136788E-14  0.17499883544E+04  0.17717898350E+04  0.27709200451E+03 0.  0.
         25    2    3    3    0    0 -0.29350682259E+02 -0.20023985111E+02  0.57142134940E+03  0.58599632573E+03  0.12492762977E+03 0.  0.
         25    2    3    3    0    0  0.29350682259E+02  0.20023985111E+02  0.11785670050E+04  0.11857935093E+04  0.12579204626E+03 0.  0.
          5    1    4    4  502    0  0.42014049890E+02 -0.34134678557E+02  0.30396489353E+03  0.30878326244E+03  0.47000000000E+01 0. -1.
         -5    1    4    4    0  502 -0.71364732150E+02  0.14110693446E+02  0.26745645588E+03  0.27721306328E+03  0.47000000000E+01 0. -1.
          5    1    5    5  503    0 -0.11834903476E+02 -0.38308876500E+02  0.76623259643E+03  0.76729532566E+03  0.47000000000E+01 0. -1.
         -5    1    5    5    0  503  0.41185585735E+02  0.58332861611E+02  0.41233440856E+03  0.41849818363E+03  0.47000000000E+01 0. -1.
<mgrwt>
<rscale>  0 0.27709200E+03</rscale>
<asrwt>0</asrwt>
<pdfrwt beam="1">  1        2 0.27090579E+00 0.27709200E+03</pdfrwt>
<pdfrwt beam="2">  1       -2 0.16770384E-02 0.27709200E+03</pdfrwt>
<totfact> 0.99416903E+03</totfact>
</mgrwt>
</event>
<event>
 9    1  0.8285222E-001  0.2718447E+03  0.7818608E-02  0.1100228E+00
          2   -1    0    0  501    0  0.00000000000E+00  0.00000000000E+00  0.33157683817E+03  0.33157683817E+03  0.00000000000E+00 0.  1.
         -2   -1    0    0    0  501 -0.00000000000E+00 -0.00000000000E+00 -0.55718268683E+02  0.55718268683E+02  0.00000000000E+00 0.  1.
         35    2    1    2    0    0 -0.71054273576E-14  0.71054273576E-14  0.27585856949E+03  0.38729510686E+03  0.27184471566E+03 0.  0.
         25    2    3    3    0    0 -0.19228679691E+02  0.31476714051E+02  0.81507249692E+02  0.15388487866E+03  0.12520622380E+03 0.  0.
         25    2    3    3    0    0  0.19228679691E+02 -0.31476714051E+02  0.19435131980E+03  0.23341022819E+03  0.12388451666E+03 0.  0.
          5    1    4    4  502    0  0.14158046836E+02 -0.36406626720E+02  0.65514601808E+02  0.76420846694E+02  0.47000000000E+01 0. -1.
         -5    1    4    4    0  502 -0.33386726527E+02  0.67883340771E+02  0.15992647884E+02  0.77464031969E+02  0.47000000000E+01 0. -1.
          5    1    5    5  503    0 -0.27056296243E+02  0.30747239453E+02  0.28072128905E+02  0.49875548334E+02  0.47000000000E+01 0. -1.
         -5    1    5    5    0  503  0.46284975934E+02 -0.62223953504E+02  0.16627919090E+03  0.18353467986E+03  0.47000000000E+01 0. -1.
<mgrwt>
<rscale>  0 0.27184472E+03</rscale>
<asrwt>0</asrwt>
<pdfrwt beam="1">  1        2 0.51011820E-01 0.27184472E+03</pdfrwt>
<pdfrwt beam="2">  1       -2 0.85720415E-02 0.27184472E+03</pdfrwt>
<totfact> 0.82470229E+03</totfact>
</mgrwt>
</event>
<event>
 9    1  0.8285222E-001  0.2773084E+03  0.7818608E-02  0.1097168E+00
         -1   -1    0    0    0  501 -0.00000000000E+00  0.00000000000E+00  0.17962077130E+02  0.17962077130E+02  0.00000000000E+00 0.  1.
          1   -1    0    0  501    0  0.00000000000E+00 -0.00000000000E+00 -0.10703101044E+04  0.10703101044E+04  0.00000000000E+00 0.  1.
         35    2    1    2    0    0  0.00000000000E+00  0.00000000000E+00 -0.10523480273E+04  0.10882721815E+04  0.27730843945E+03 0.  0.
         25    2    3    3    0    0  0.11928989637E+02 -0.54682807146E+02 -0.60440451368E+03  0.61976451745E+03  0.12518278931E+03 0.  0.
         25    2    3    3    0    0 -0.11928989637E+02  0.54682807146E+02 -0.44794351360E+03  0.46850766410E+03  0.12535361880E+03 0.  0.
          5    1    4    4  502    0  0.53324458731E+02 -0.48895278465E+02 -0.52429575055E+03  0.52928477231E+03  0.47000000000E+01 0.  1.
         -5    1    4    4    0  502 -0.41395469093E+02 -0.57875286815E+01 -0.80108763130E+02  0.90479745136E+02  0.47000000000E+01 0.  1.
          5    1    5    5  503    0 -0.54700300521E+02  0.62879706751E+02 -0.19994283238E+03  0.21666842552E+03  0.47000000000E+01 0. -1.
         -5    1    5    5    0  503  0.42771310884E+02 -0.81968996050E+01 -0.24800068122E+03  0.25183923857E+03  0.47000000000E+01 0. -1.
<mgrwt>
<rscale>  0 0.27730844E+03</rscale>
<asrwt>0</asrwt>
<pdfrwt beam="1">  1        1 0.16466307E+00 0.27730844E+03</pdfrwt>
<pdfrwt beam="2">  1       -1 0.27633968E-02 0.27730844E+03</pdfrwt>
<totfact> 0.60392353E+03</totfact>
</mgrwt>
</event>
<event>
 9    1  0.8285222E-001  0.2789013E+03  0.7818608E-02  0.1096291E+00
          2   -1    0    0  501    0  0.00000000000E+00  0.00000000000E+00  0.27714085870E+04  0.27714085870E+04  0.00000000000E+00 0.  1.
         -2   -1    0    0    0  501 -0.00000000000E+00 -0.00000000000E+00 -0.70168248450E+01  0.70168248450E+01  0.00000000000E+00 0.  1.
         35    2    1    2    0    0  0.00000000000E+00  0.00000000000E+00  0.27643917622E+04  0.27784254119E+04  0.27890133473E+03 0.  0.
         25    2    3    3    0    0  0.82537659550E+01  0.42917955392E+02  0.92925068541E+03  0.93856752472E+03  0.12446721088E+03 0.  0.
         25    2    3    3    0    0 -0.82537659550E+01 -0.42917955392E+02  0.18351410768E+04  0.18398578872E+04  0.12419419350E+03 0.  0.
          5    1    4    4  502    0  0.21225903605E+02 -0.21787645924E+01  0.25470513562E+02  0.33557757078E+02  0.47000000000E+01 0. -1.
         -5    1    4    4    0  502 -0.12972137650E+02  0.45096719984E+02  0.90378017185E+03  0.90500976764E+03  0.47000000000E+01 0. -1.
          5    1    5    5  503    0 -0.16196109918E+01 -0.19996842986E+02  0.44364923724E+02  0.48916595612E+02  0.47000000000E+01 0.  1.
         -5    1    5    5    0  503 -0.66341549632E+01 -0.22921112406E+02  0.17907761531E+04  0.17909412916E+04  0.47000000000E+01 0.  1.
<mgrwt>
<rscale>  0 0.27890133E+03</rscale>
<asrwt>0</asrwt>
<pdfrwt beam="1">  1        2 0.42636968E+00 0.27890133E+03</pdfrwt>
<pdfrwt beam="2">  1       -2 0.10795137E-02 0.27890133E+03</pdfrwt>
<totfact> 0.53952431E+03</totfact>
</mgrwt>
</event>
<event>
 9    1  0.8285222E-001  0.2762197E+03  0.7818608E-02  0.1097772E+00
          2   -1    0    0  501    0  0.00000000000E+00  0.00000000000E+00  0.13900002009E+04  0.13900002009E+04  0.00000000000E+00 0.  1.
         -2   -1    0    0    0  501 -0.00000000000E+00 -0.00000000000E+00 -0.13722538783E+02  0.13722538783E+02  0.00000000000E+00 0.  1.
         35    2    1    2    0    0  0.71054273576E-14  0.00000000000E+00  0.13762776621E+04  0.14037227397E+04  0.27621970722E+03 0.  0.
         25    2    3    3    0    0  0.32135702306E+02 -0.94190376152E+01  0.93507422927E+03  0.94390223387E+03  0.12436314253E+03 0.  0.
         25    2    3    3    0    0 -0.32135702306E+02  0.94190376152E+01  0.44120343284E+03  0.45982050581E+03  0.12511197697E+03 0.  0.
          5    1    4    4  502    0  0.38908677484E+02  0.14476811407E+02  0.89833987527E+03  0.89931089438E+03  0.47000000000E+01 0. -1.
         -5    1    4    4    0  502 -0.67729751783E+01 -0.23895849023E+02  0.36734354000E+02  0.44591339485E+02  0.47000000000E+01 0. -1.
          5    1    5    5  503    0 -0.70055967374E+02  0.35557151018E+02  0.21559926069E+03  0.22951531705E+03  0.47000000000E+01 0.  1.
         -5    1    5    5    0  503  0.37920265068E+02 -0.26138113403E+02  0.22560417215E+03  0.23030518875E+03  0.47000000000E+01 0.  1.
<mgrwt>
<rscale>  0 0.27621971E+03</rscale>
<asrwt>0</asrwt>
<pdfrwt beam="1">  1        2 0.21384607E+00 0.27621971E+03</pdfrwt>
<pdfrwt beam="2">  1       -2 0.21111609E-02 0.27621971E+03</pdfrwt>
<totfact> 0.11167959E+04</totfact>
</mgrwt>
</event>
<event>
 9    1  0.8285222E-001  0.2748062E+03  0.7818608E-02  0.1098560E+00
          1   -1    0    0  501    0  0.00000000000E+00  0.00000000000E+00  0.24456200273E+02  0.24456200273E+02  0.00000000000E+00 0. -1.
         -1   -1    0    0    0  501 -0.00000000000E+00 -0.00000000000E+00 -0.77197636257E+03  0.77197636257E+03  0.00000000000E+00 0. -1.
         35    2    1    2    0    0 -0.13322676296E-14  0.00000000000E+00 -0.74752016229E+03  0.79643256284E+03  0.27480617554E+03 0.  0.
         25    2    3    3    0    0 -0.30160314249E+00 -0.34532343489E+02 -0.24001195643E+03  0.27297075698E+03  0.12535837118E+03 0.  0.
         25    2    3    3    0    0  0.30160314249E+00  0.34532343489E+02 -0.50750820586E+03  0.52346180586E+03  0.12351157624E+03 0.  0.
          5    1    4    4  502    0  0.24936774090E+01 -0.77278400088E+02 -0.19873400057E+03  0.21329665382E+03  0.47000000000E+01 0. -1.
         -5    1    4    4    0  502 -0.27952805515E+01  0.42746056599E+02 -0.41277955861E+02  0.59674103162E+02  0.47000000000E+01 0. -1.
          5    1    5    5  503    0  0.42335697236E+02  0.85495361156E+01 -0.42469097689E+03  0.42690739239E+03  0.47000000000E+01 0. -1.
         -5    1    5    5    0  503 -0.42034094093E+02  0.25982807373E+02 -0.82817228973E+02  0.96554413467E+02  0.47000000000E+01 0. -1.
<mgrwt>
<rscale>  0 0.27480618E+03</rscale>
<asrwt>0</asrwt>
<pdfrwt beam="1">  1        1 0.37624928E-02 0.27480618E+03</pdfrwt>
<pdfrwt beam="2">  1       -1 0.11876558E+00 0.27480618E+03</pdfrwt>
<totfact> 0.16785952E+03</totfact>
</mgrwt>
</event>
<event>
 9    1  0.8285222E-001  0.2751111E+03  0.7818608E-02  0.1098389E+00
          2   -1    0    0  501    0  0.00000000000E+00  0.00000000000E+00  0.17588030280E+03  0.17588030280E+03  0.00000000000E+00 0.  1.
         -2   -1    0    0    0  501 -0.00000000000E+00 -0.00000000000E+00 -0.10758188681E+03  0.10758188681E+03  0.00000000000E+00 0.  1.
         35    2    1    2    0    0  0.00000000000E+00  0.35527136788E-14  0.68298415994E+02  0.28346218961E+03  0.27511113993E+03 0.  0.
         25    2    3    3    0    0  0.48547683253E+02 -0.14188468052E+02  0.34775103431E+02  0.14010377758E+03  0.12594272706E+03 0.  0.
         25    2    3    3    0    0 -0.48547683253E+02  0.14188468052E+02  0.33523312563E+02  0.14335841203E+03  0.12988314609E+03 0.  0.
          5    1    4    4  502    0 -0.27220738707E+02 -0.37649520501E+02  0.38556758576E+02  0.60557151862E+02  0.47000000000E+01 0.  1.
         -5    1    4    4    0  502  0.75768421959E+02  0.23461052449E+02 -0.37816551448E+01  0.79546625723E+02  0.47000000000E+01 0.  1.
          5    1    5    5  503    0 -0.33529049870E+02  0.65490301701E+02  0.47757958447E+02  0.87841273881E+02  0.47000000000E+01 0.  1.
         -5    1    5    5    0  503 -0.15018633382E+02 -0.51301833648E+02 -0.14234645884E+02  0.55517138145E+02  0.47000000000E+01 0.  1.
<mgrwt>
<rscale>  0 0.27511114E+03</rscale>
<asrwt>0</asrwt>
<pdfrwt beam="1">  1        2 0.27058508E-01 0.27511114E+03</pdfrwt>
<pdfrwt beam="2">  1       -2 0.16551059E-01 0.27511114E+03</pdfrwt>
<totfact> 0.56701183E+03</totfact>
</mgrwt>
</event>
<event>
 9    1  0.8285222E-001  0.2746860E+03  0.7818608E-02  0.1098627E+00
          2   -1    0    0  501    0  0.00000000000E+00  0.00000000000E+00  0.14579492941E+04  0.14579492941E+04  0.00000000000E+00 0.  1.
         -2   -1    0    0    0  501 -0.00000000000E+00 -0.00000000000E+00 -0.12938101599E+02  0.12938101599E+02  0.00000000000E+00 0.  1.
         35    2    1    2    0    0  0.00000000000E+00  0.71054273576E-14  0.14450111925E+04  0.14708873957E+04  0.27468597412E+03 0.  0.
         25    2    3    3    0    0 -0.46302297327E+02 -0.15297902497E+01  0.54709154732E+03  0.56300405689E+03  0.12457192269E+03 0.  0.
         25    2    3    3    0    0  0.46302297327E+02  0.15297902497E+01  0.89791964522E+03  0.90788333885E+03  0.12588178860E+03 0.  0.
          5    1    4    4  502    0 -0.80971470144E+01  0.43410529713E+02  0.74568692362E+02  0.86790654798E+02  0.47000000000E+01 0. -1.
         -5    1    4    4    0  502 -0.38205150313E+02 -0.44940319962E+02  0.47252285496E+03  0.47621340209E+03  0.47000000000E+01 0. -1.
          5    1    5    5  503    0  0.34692173836E+02  0.56975110330E+02  0.30497642860E+03  0.31222175152E+03  0.47000000000E+01 0. -1.
         -5    1    5    5    0  503  0.11610123491E+02 -0.55445320080E+02  0.59294321661E+03  0.59566158733E+03  0.47000000000E+01 0. -1.
<mgrwt>
<rscale>  0 0.27468597E+03</rscale>
<asrwt>0</asrwt>
<pdfrwt beam="1">  1        2 0.22429976E+00 0.27468597E+03</pdfrwt>
<pdfrwt beam="2">  1       -2 0.19904783E-02 0.27468597E+03</pdfrwt>
<totfact> 0.11189070E+04</totfact>
</mgrwt>
</event>
<event>
 9    1  0.8285222E-001  0.2800884E+03  0.7818608E-02  0.1095641E+00
          3   -1    0    0  501    0  0.00000000000E+00  0.00000000000E+00  0.13889974897E+02  0.13889974897E+02  0.00000000000E+00 0. -1.
         -3   -1    0    0    0  501 -0.00000000000E+00 -0.00000000000E+00 -0.14119808457E+04  0.14119808457E+04  0.00000000000E+00 0. -1.
         35    2    1    2    0    0  0.00000000000E+00  0.00000000000E+00 -0.13980908708E+04  0.14258708206E+04  0.28008840391E+03 0.  0.
         25    2    3    3    0    0  0.29673328895E+02 -0.53337873288E+02 -0.59011655277E+03  0.60609991171E+03  0.12407305084E+03 0.  0.
         25    2    3    3    0    0 -0.29673328895E+02  0.53337873288E+02 -0.80797431801E+03  0.81977090887E+03  0.12440421730E+03 0.  0.
          5    1    4    4  502    0 -0.16164371974E+02 -0.11785251859E+02 -0.10324003439E+02  0.22996828688E+02  0.47000000000E+01 0. -1.
         -5    1    4    4    0  502  0.45837700869E+02 -0.41552621430E+02 -0.57979254933E+03  0.58310308302E+03  0.47000000000E+01 0. -1.
          5    1    5    5  503    0 -0.20974480681E+02 -0.66511573063E+01 -0.65167135723E+03  0.65205967101E+03  0.47000000000E+01 0. -1.
         -5    1    5    5    0  503 -0.86988482140E+01  0.59989030595E+02 -0.15630296079E+03  0.16771123785E+03  0.47000000000E+01 0. -1.
<mgrwt>
<rscale>  0 0.28008840E+03</rscale>
<asrwt>0</asrwt>
<pdfrwt beam="1">  1        3 0.21369195E-02 0.28008840E+03</pdfrwt>
<pdfrwt beam="2">  1       -3 0.21722779E+00 0.28008840E+03</pdfrwt>
<totfact> 0.27451920E+02</totfact>
</mgrwt>
</event>
<event>
 9    1  0.8285222E-001  0.2708902E+03  0.7818608E-02  0.1100771E+00
          2   -1    0    0  501    0  0.00000000000E+00  0.00000000000E+00  0.69698733770E+03  0.69698733770E+03  0.00000000000E+00 0.  1.
         -2   -1    0    0    0  501 -0.00000000000E+00 -0.00000000000E+00 -0.26320968050E+02  0.26320968050E+02  0.00000000000E+00 0.  1.
         35    2    1    2    0    0  0.35527136788E-14  0.71054273576E-14  0.67066636965E+03  0.72330830575E+03  0.27089024675E+03 0.  0.
         25    2    3    3    0    0  0.15397842033E+02 -0.32607933744E+02  0.23086315680E+03  0.26620324992E+03  0.12753823825E+03 0.  0.
         25    2    3    3    0    0 -0.15397842033E+02  0.32607933744E+02  0.43980321284E+03  0.45710505583E+03  0.11923839631E+03 0.  0.
          5    1    4    4  502    0  0.35799645047E+01 -0.58680720012E+02  0.35795258214E+02  0.68990097533E+02  0.47000000000E+01 0. -1.
         -5    1    4    4    0  502  0.11817877528E+02  0.26072786269E+02  0.19506789859E+03  0.19721315238E+03  0.47000000000E+01 0. -1.
          5    1    5    5  503    0 -0.62340597367E+02  0.43394632919E+02  0.27650920675E+03  0.28679064780E+03  0.47000000000E+01 0. -1.
         -5    1    5    5    0  503  0.46942755334E+02 -0.10786699176E+02  0.16329400609E+03  0.17031440803E+03  0.47000000000E+01 0. -1.
<mgrwt>
<rscale>  0 0.27089025E+03</rscale>
<asrwt>0</asrwt>
<pdfrwt beam="1">  1        2 0.10722881E+00 0.27089025E+03</pdfrwt>
<pdfrwt beam="2">  1       -2 0.40493802E-02 0.27089025E+03</pdfrwt>
<totfact> 0.11320499E+04</totfact>
</mgrwt>
</event>
<event>
 9    1  0.8285222E-001  0.2686564E+03  0.7818608E-02  0.1102051E+00
          3   -1    0    0  501    0  0.00000000000E+00  0.00000000000E+00  0.31363524185E+03  0.31363524185E+03  0.00000000000E+00 0.  1.
         -3   -1    0    0    0  501 -0.00000000000E+00 -0.00000000000E+00 -0.57531996751E+02  0.57531996751E+02  0.00000000000E+00 0.  1.
         35    2    1    2    0    0 -0.71054273576E-14 -0.17763568394E-14  0.25610324510E+03  0.37116723860E+03  0.26865637320E+03 0.  0.
         25    2    3    3    0    0  0.14359967839E+02  0.96739290127E+01  0.19243512136E+03  0.23026033948E+03  0.12525475809E+03 0.  0.
         25    2    3    3    0    0 -0.14359967839E+02 -0.96739290127E+01  0.63668123739E+02  0.14090689912E+03  0.12450433993E+03 0.  0.
          5    1    4    4  502    0 -0.33585458239E+02  0.25183614945E+02  0.16952086810E+03  0.17470435653E+03  0.47000000000E+01 0.  1.
         -5    1    4    4    0  502  0.47945426078E+02 -0.15509685932E+02  0.22914253259E+02  0.55555982954E+02  0.47000000000E+01 0.  1.
          5    1    5    5  503    0  0.41844967187E+02  0.19537023891E+02 -0.57973584845E+01  0.46780294428E+02  0.47000000000E+01 0.  1.
         -5    1    5    5    0  503 -0.56204935026E+02 -0.29210952904E+02  0.69465482224E+02  0.94126604695E+02  0.47000000000E+01 0.  1.
<mgrwt>
<rscale>  0 0.26865637E+03</rscale>
<asrwt>0</asrwt>
<pdfrwt beam="1">  1        3 0.48251575E-01 0.26865637E+03</pdfrwt>
<pdfrwt beam="2">  1       -3 0.88510766E-02 0.26865637E+03</pdfrwt>
<totfact> 0.98358116E+02</totfact>
</mgrwt>
</event>
<event>
 9    1  0.8285222E-001  0.2775683E+03  0.7818608E-02  0.1097025E+00
          1   -1    0    0  501    0  0.00000000000E+00  0.00000000000E+00  0.53528704504E+03  0.53528704504E+03  0.00000000000E+00 0. -1.
         -1   -1    0    0    0  501 -0.00000000000E+00 -0.00000000000E+00 -0.35982646118E+02  0.35982646118E+02  0.00000000000E+00 0. -1.
         35    2    1    2    0    0  0.71054273576E-14 -0.71054273576E-14  0.49930439892E+03  0.57126969116E+03  0.27756832898E+03 0.  0.
         25    2    3    3    0    0  0.22916011313E+02 -0.43757534431E+02  0.31373672506E+03  0.34190493138E+03  0.12660325454E+03 0.  0.
         25    2    3    3    0    0 -0.22916011313E+02  0.43757534431E+02  0.18556767387E+03  0.22936475978E+03  0.12543112073E+03 0.  0.
          5    1    4    4  502    0  0.40973186071E+02  0.25698749685E+02  0.55153228804E+02  0.73506437539E+02  0.47000000000E+01 0. -1.
         -5    1    4    4    0  502 -0.18057174758E+02 -0.69456284116E+02  0.25858349625E+03  0.26839849384E+03  0.47000000000E+01 0. -1.
          5    1    5    5  503    0 -0.62943477354E+02  0.43574288700E+01  0.44208957583E+02  0.77184133463E+02  0.47000000000E+01 0. -1.
         -5    1    5    5    0  503  0.40027466041E+02  0.39400105561E+02  0.14135871628E+03  0.15218062631E+03  0.47000000000E+01 0. -1.
<mgrwt>
<rscale>  0 0.27756833E+03</rscale>
<asrwt>0</asrwt>
<pdfrwt beam="1">  1        1 0.82351848E-01 0.27756833E+03</pdfrwt>
<pdfrwt beam="2">  1       -1 0.55357921E-02 0.27756833E+03</pdfrwt>
<totfact> 0.61909867E+03</totfact>
</mgrwt>
</event>
<event>
 9    1  0.8285222E-001  0.2694167E+03  0.7818608E-02  0.1101614E+00
          2   -1    0    0  501    0  0.00000000000E+00  0.00000000000E+00  0.54679684754E+02  0.54679684754E+02  0.00000000000E+00 0.  1.
         -2   -1    0    0    0  501 -0.00000000000E+00 -0.00000000000E+00 -0.33186631380E+03  0.33186631380E+03  0.00000000000E+00 0.  1.
         35    2    1    2    0    0  0.53290705182E-14  0.35527136788E-14 -0.27718662905E+03  0.38654599855E+03  0.26941674350E+03 0.  0.
         25    2    3    3    0    0 -0.27145964375E+01  0.29907971785E+02 -0.83251557193E+02  0.15373071976E+03  0.12569986720E+03 0.  0.
         25    2    3    3    0    0  0.27145964375E+01 -0.29907971785E+02 -0.19393507185E+03  0.23281527879E+03  0.12526087232E+03 0.  0.
          5    1    4    4  502    0  0.38124512874E+01 -0.42499390469E+02  0.23233138397E+00  0.42928742736E+02  0.47000000000E+01 0.  1.
         -5    1    4    4    0  502 -0.65270477249E+01  0.72407362254E+02 -0.83483888577E+02  0.11080197702E+03  0.47000000000E+01 0.  1.
          5    1    5    5  503    0  0.58723533182E+02 -0.19165975461E+02 -0.14440861794E+03  0.15713601402E+03  0.47000000000E+01 0. -1.
         -5    1    5    5    0  503 -0.56008936744E+02 -0.10741996324E+02 -0.49526453912E+02  0.75679264778E+02  0.47000000000E+01 0. -1.
<mgrwt>
<rscale>  0 0.26941674E+03</rscale>
<asrwt>0</asrwt>
<pdfrwt beam="1">  1        2 0.84122591E-02 0.26941674E+03</pdfrwt>
<pdfrwt beam="2">  1       -2 0.51056357E-01 0.26941674E+03</pdfrwt>
<totfact> 0.29233090E+03</totfact>
</mgrwt>
</event>
<event>
 9    1  0.8285222E-001  0.2739941E+03  0.7818608E-02  0.1099015E+00
          2   -1    0    0  501    0  0.00000000000E+00  0.00000000000E+00  0.15987037197E+04  0.15987037197E+04  0.00000000000E+00 0. -1.
         -2   -1    0    0    0  501 -0.00000000000E+00 -0.00000000000E+00 -0.11739633330E+02  0.11739633330E+02  0.00000000000E+00 0. -1.
         35    2    1    2    0    0  0.00000000000E+00 -0.35527136788E-14  0.15869640863E+04  0.16104433530E+04  0.27399412747E+03 0.  0.
         25    2    3    3    0    0 -0.43131284682E+02  0.10320317453E+02  0.54015324884E+03  0.55521907482E+03  0.12056480471E+03 0.  0.
         25    2    3    3    0    0  0.43131284682E+02 -0.10320317453E+02  0.10468108375E+04  0.10552242782E+04  0.12537356617E+03 0.  0.
          5    1    4    4  502    0 -0.72978595079E+02 -0.20375619823E+02  0.43519605267E+03  0.44176773929E+03  0.47000000000E+01 0.  1.
         -5    1    4    4    0  502  0.29847310396E+02  0.30695937276E+02  0.10495719618E+03  0.11345133553E+03  0.47000000000E+01 0.  1.
          5    1    5    5  503    0  0.46663340088E+02 -0.40480900162E+02  0.97684949110E+03  0.97881213154E+03  0.47000000000E+01 0. -1.
         -5    1    5    5    0  503 -0.35320554052E+01  0.30160582709E+02  0.69961346377E+02  0.76412146624E+02  0.47000000000E+01 0. -1.
<mgrwt>
<rscale>  0 0.27399413E+03</rscale>
<asrwt>0</asrwt>
<pdfrwt beam="1">  1        2 0.24595425E+00 0.27399413E+03</pdfrwt>
<pdfrwt beam="2">  1       -2 0.18060987E-02 0.27399413E+03</pdfrwt>
<totfact> 0.10856289E+04</totfact>
</mgrwt>
</event>
<event>
 9    1  0.8285222E-001  0.2721092E+03  0.7818608E-02  0.1100079E+00
         -1   -1    0    0    0  501 -0.00000000000E+00  0.00000000000E+00  0.98129043753E+02  0.98129043753E+02  0.00000000000E+00 0.  1.
          1   -1    0    0  501    0  0.00000000000E+00 -0.00000000000E+00 -0.18863783721E+03  0.18863783721E+03  0.00000000000E+00 0.  1.
         35    2    1    2    0    0 -0.35527136788E-14 -0.71054273576E-14 -0.90508793454E+02  0.28676688096E+03  0.27210917354E+03 0.  0.
         25    2    3    3    0    0 -0.95022296833E+01 -0.25040179307E+02  0.38229700801E+01  0.12747158204E+03  0.12456759682E+03 0.  0.
         25    2    3    3    0    0  0.95022296833E+01  0.25040179307E+02 -0.94331763534E+02  0.15929529892E+03  0.12553568297E+03 0.  0.
          5    1    4    4  502    0 -0.37580532536E+02 -0.25846880253E+02  0.53345605176E+02  0.70343451977E+02  0.47000000000E+01 0. -1.
         -5    1    4    4    0  502  0.28078302852E+02  0.80670094664E+00 -0.49522635096E+02  0.57128130061E+02  0.47000000000E+01 0. -1.
          5    1    5    5  503    0 -0.34624657377E+01  0.39278935284E+02 -0.12026652993E+03  0.12665287856E+03  0.47000000000E+01 0.  1.
         -5    1    5    5    0  503  0.12964695421E+02 -0.14238755978E+02  0.25934766395E+02  0.32642420362E+02  0.47000000000E+01 0.  1.
<mgrwt>
<rscale>  0 0.27210917E+03</rscale>
<asrwt>0</asrwt>
<pdfrwt beam="1">  1        1 0.29021206E-01 0.27210917E+03</pdfrwt>
<pdfrwt beam="2">  1       -1 0.15096776E-01 0.27210917E+03</pdfrwt>
<totfact> 0.49895262E+03</totfact>
</mgrwt>
</event>
<event>
 9    1  0.8285222E-001  0.2799645E+03  0.7818608E-02  0.1095708E+00
          2   -1    0    0  501    0  0.00000000000E+00  0.00000000000E+00  0.26526325825E+04  0.26526325825E+04  0.00000000000E+00 0.  1.
         -2   -1    0    0    0  501 -0.00000000000E+00 -0.00000000000E+00 -0.73870119829E+01  0.73870119829E+01  0.00000000000E+00 0.  1.
         35    2    1    2    0    0  0.00000000000E+00  0.00000000000E+00  0.26452455705E+04  0.26600195944E+04  0.27996448827E+03 0.  0.
         25    2    3    3    0    0  0.54847784904E+02  0.31662705185E+02  0.11453179058E+04  0.11535678451E+04  0.12229007077E+03 0.  0.
         25    2    3    3    0    0 -0.54847784904E+02 -0.31662705185E+02  0.14999276646E+04  0.15064517493E+04  0.12491223935E+03 0.  0.
          5    1    4    4  502    0 -0.23688123382E+02  0.50662151753E+02  0.41473071758E+03  0.41851097825E+03  0.47000000000E+01 0. -1.
         -5    1    4    4    0  502  0.78535908286E+02 -0.18999446568E+02  0.73058718826E+03  0.73505686686E+03  0.47000000000E+01 0. -1.
          5    1    5    5  503    0 -0.20658554942E+02 -0.17916968896E+02  0.60659353704E+02  0.66704129246E+02  0.47000000000E+01 0. -1.
         -5    1    5    5    0  503 -0.34189229962E+02 -0.13745736289E+02  0.14392683109E+04  0.14397476201E+04  0.47000000000E+01 0. -1.
<mgrwt>
<rscale>  0 0.27996449E+03</rscale>
<asrwt>0</asrwt>
<pdfrwt beam="1">  1        2 0.40809656E+00 0.27996449E+03</pdfrwt>
<pdfrwt beam="2">  1       -2 0.11364655E-02 0.27996449E+03</pdfrwt>
<totfact> 0.58419472E+03</totfact>
</mgrwt>
</event>
<event>
 9    1  0.8285222E-001  0.2656477E+03  0.7818608E-02  0.1103797E+00
          2   -1    0    0  501    0  0.00000000000E+00  0.00000000000E+00  0.14977977361E+04  0.14977977361E+04  0.00000000000E+00 0. -1.
         -2   -1    0    0    0  501 -0.00000000000E+00 -0.00000000000E+00 -0.11778747080E+02  0.11778747080E+02  0.00000000000E+00 0. -1.
         35    2    1    2    0    0  0.71054273576E-14  0.17763568394E-14  0.14860189890E+04  0.15095764832E+04  0.26564774202E+03 0.  0.
         25    2    3    3    0    0 -0.20860036301E+02 -0.32555499166E+01  0.52111102667E+03  0.53617281329E+03  0.12441400189E+03 0.  0.
         25    2    3    3    0    0  0.20860036301E+02  0.32555499166E+01  0.96490796234E+03  0.97340366988E+03  0.12657641581E+03 0.  0.
          5    1    4    4  502    0  0.32192326378E+02  0.30513132793E+02  0.89708857028E+02  0.10018565855E+03  0.47000000000E+01 0. -1.
         -5    1    4    4    0  502 -0.53052362679E+02 -0.33768682710E+02  0.43140216964E+03  0.43598715473E+03  0.47000000000E+01 0. -1.
          5    1    5    5  503    0  0.73540824138E+02  0.11240866574E+02  0.59381848368E+03  0.59847898164E+03  0.47000000000E+01 0. -1.
         -5    1    5    5    0  503 -0.52680787838E+02 -0.79853166572E+01  0.37108947865E+03  0.37492468825E+03  0.47000000000E+01 0. -1.
<mgrwt>
<rscale>  0 0.26564774E+03</rscale>
<asrwt>0</asrwt>
<pdfrwt beam="1">  1        2 0.23043027E+00 0.26564774E+03</pdfrwt>
<pdfrwt beam="2">  1       -2 0.18121161E-02 0.26564774E+03</pdfrwt>
<totfact> 0.12217104E+04</totfact>
</mgrwt>
</event>
<event>
 9    1  0.8285222E-001  0.2760076E+03  0.7818608E-02  0.1097890E+00
          2   -1    0    0  501    0  0.00000000000E+00  0.00000000000E+00  0.79952209321E+03  0.79952209321E+03  0.00000000000E+00 0.  1.
         -2   -1    0    0    0  501 -0.00000000000E+00 -0.00000000000E+00 -0.23820532833E+02  0.23820532833E+02  0.00000000000E+00 0.  1.
         35    2    1    2    0    0  0.00000000000E+00  0.14210854715E-13  0.77570156037E+03  0.82334262604E+03  0.27600755259E+03 0.  0.
         25    2    3    3    0    0  0.12412046031E+02  0.58411098068E+02  0.34072764686E+03  0.36703653656E+03  0.12269708460E+03 0.  0.
         25    2    3    3    0    0 -0.12412046031E+02 -0.58411098068E+02  0.43497391351E+03  0.45630608948E+03  0.12428606758E+03 0.  0.
          5    1    4    4  502    0  0.50881220161E+02  0.87652182332E-01  0.65685415089E+02  0.83220009634E+02  0.47000000000E+01 0. -1.
         -5    1    4    4    0  502 -0.38469174130E+02  0.58323445886E+02  0.27504223177E+03  0.28381652693E+03  0.47000000000E+01 0. -1.
          5    1    5    5  503    0 -0.30051266359E+02 -0.90749637682E+02  0.36183727976E+03  0.37428182213E+03  0.47000000000E+01 0. -1.
         -5    1    5    5    0  503  0.17639220328E+02  0.32338539615E+02  0.73136633746E+02  0.82024267347E+02  0.47000000000E+01 0. -1.
<mgrwt>
<rscale>  0 0.27600755E+03</rscale>
<asrwt>0</asrwt>
<pdfrwt beam="1">  1        2 0.12300338E+00 0.27600755E+03</pdfrwt>
<pdfrwt beam="2">  1       -2 0.36646980E-02 0.27600755E+03</pdfrwt>
<totfact> 0.11099745E+04</totfact>
</mgrwt>
</event>
<event>
 9    1  0.8285222E-001  0.2742349E+03  0.7818608E-02  0.1098880E+00
          2   -1    0    0  501    0  0.00000000000E+00  0.00000000000E+00  0.39500664719E+03  0.39500664719E+03  0.00000000000E+00 0.  1.
         -2   -1    0    0    0  501 -0.00000000000E+00 -0.00000000000E+00 -0.47597174996E+02  0.47597174996E+02  0.00000000000E+00 0.  1.
         35    2    1    2    0    0  0.17763568394E-14 -0.14210854715E-13  0.34740947220E+03  0.44260382219E+03  0.27423493950E+03 0.  0.
         25    2    3    3    0    0  0.10810158745E+02 -0.47027678163E+02  0.23094420567E+03  0.26483158401E+03  0.12029995723E+03 0.  0.
         25    2    3    3    0    0 -0.10810158745E+02  0.47027678163E+02  0.11646526653E+03  0.17777223818E+03  0.12534092833E+03 0.  0.
          5    1    4    4  502    0  0.79436813549E+01  0.35172475320E+02  0.28290702292E+02  0.46072322817E+02  0.47000000000E+01 0.  1.
         -5    1    4    4    0  502  0.28664773897E+01 -0.82200153483E+02  0.20265350338E+03  0.21875926119E+03  0.47000000000E+01 0.  1.
          5    1    5    5  503    0  0.42254750333E+01 -0.26103939343E+02  0.96750176970E+02  0.10040894896E+03  0.47000000000E+01 0.  1.
         -5    1    5    5    0  503 -0.15035633778E+02  0.73131617505E+02  0.19715089556E+02  0.77363289216E+02  0.47000000000E+01 0.  1.
<mgrwt>
<rscale>  0 0.27423494E+03</rscale>
<asrwt>0</asrwt>
<pdfrwt beam="1">  1        2 0.60770251E-01 0.27423494E+03</pdfrwt>
<pdfrwt beam="2">  1       -2 0.73226426E-02 0.27423494E+03</pdfrwt>
<totfact> 0.87315632E+03</totfact>
</mgrwt>
</event>
<event>
 9    1  0.8285222E-001  0.2755387E+03  0.7818608E-02  0.1098151E+00
         -2   -1    0    0    0  501 -0.00000000000E+00  0.00000000000E+00  0.11445959919E+02  0.11445959919E+02  0.00000000000E+00 0.  1.
          2   -1    0    0  501    0  0.00000000000E+00 -0.00000000000E+00 -0.16582620166E+04  0.16582620166E+04  0.00000000000E+00 0.  1.
         35    2    1    2    0    0 -0.35527136788E-14  0.71054273576E-14 -0.16468160567E+04  0.16697079766E+04  0.27553874920E+03 0.  0.
         25    2    3    3    0    0 -0.27336411914E+02 -0.44281323191E+02 -0.65742653172E+03  0.67110088016E+03  0.12433274610E+03 0.  0.
         25    2    3    3    0    0  0.27336411914E+02  0.44281323191E+02 -0.98938952500E+03  0.99860709639E+03  0.12496553837E+03 0.  0.
          5    1    4    4  502    0  0.18480584271E+02 -0.69776719001E+02 -0.24894919420E+03  0.25924527730E+03  0.47000000000E+01 0.  1.
         -5    1    4    4    0  502 -0.45816996185E+02  0.25495395810E+02 -0.40847733752E+03  0.41185560287E+03  0.47000000000E+01 0.  1.
          5    1    5    5  503    0  0.16463535514E+02  0.86859282402E+02 -0.56079536054E+03  0.56774035381E+03  0.47000000000E+01 0. -1.
         -5    1    5    5    0  503  0.10872876400E+02 -0.42577959210E+02 -0.42859416445E+03  0.43086674257E+03  0.47000000000E+01 0. -1.
<mgrwt>
<rscale>  0 0.27553875E+03</rscale>
<asrwt>0</asrwt>
<pdfrwt beam="1">  1        2 0.25511720E+00 0.27553875E+03</pdfrwt>
<pdfrwt beam="2">  1       -2 0.17609171E-02 0.27553875E+03</pdfrwt>
<totfact> 0.10480356E+04</totfact>
</mgrwt>
</event>
<event>
 9    1  0.8285222E-001  0.2714054E+03  0.7818608E-02  0.1100478E+00
         -1   -1    0    0    0  501 -0.00000000000E+00  0.00000000000E+00  0.96416547574E+02  0.96416547574E+02  0.00000000000E+00 0. -1.
          1   -1    0    0  501    0  0.00000000000E+00 -0.00000000000E+00 -0.19099647653E+03  0.19099647653E+03  0.00000000000E+00 0. -1.
         35    2    1    2    0    0  0.00000000000E+00  0.00000000000E+00 -0.94579928951E+02  0.28741302410E+03  0.27140538584E+03 0.  0.
         25    2    3    3    0    0  0.10686932502E+02  0.34042250407E+02 -0.87514460002E+02  0.15731046062E+03  0.12575657030E+03 0.  0.
         25    2    3    3    0    0 -0.10686932502E+02 -0.34042250407E+02 -0.70654689491E+01  0.13010256348E+03  0.12491465420E+03 0.  0.
          5    1    4    4  502    0  0.61806506596E+02  0.44508838705E+02 -0.65179152352E+02  0.10035682778E+03  0.47000000000E+01 0.  1.
         -5    1    4    4    0  502 -0.51119574094E+02 -0.10466588298E+02 -0.22335307650E+02  0.56953632843E+02  0.47000000000E+01 0.  1.
          5    1    5    5  503    0 -0.57713686674E+01 -0.26101168718E+02  0.58087655041E+02  0.64115874578E+02  0.47000000000E+01 0. -1.
         -5    1    5    5    0  503 -0.49155638349E+01 -0.79410816896E+01 -0.65153123990E+02  0.65986688899E+02  0.47000000000E+01 0. -1.
<mgrwt>
<rscale>  0 0.27140539E+03</rscale>
<asrwt>0</asrwt>
<pdfrwt beam="1">  1        1 0.29384073E-01 0.27140539E+03</pdfrwt>
<pdfrwt beam="2">  1       -1 0.14833315E-01 0.27140539E+03</pdfrwt>
<totfact> 0.50505062E+03</totfact>
</mgrwt>
</event>
<event>
 9    1  0.8285222E-001  0.2735065E+03  0.7818608E-02  0.1099289E+00
          1   -1    0    0  501    0  0.00000000000E+00  0.00000000000E+00  0.72942308029E+03  0.72942308029E+03  0.00000000000E+00 0. -1.
         -1   -1    0    0    0  501 -0.00000000000E+00 -0.00000000000E+00 -0.25638679949E+02  0.25638679949E+02  0.00000000000E+00 0. -1.
         35    2    1    2    0    0  0.71054273576E-14  0.00000000000E+00  0.70378440034E+03  0.75506176024E+03  0.27350645259E+03 0.  0.
         25    2    3    3    0    0  0.47543824421E+02  0.23716733830E+02  0.39681631861E+03  0.41932118368E+03  0.12467624341E+03 0.  0.
         25    2    3    3    0    0 -0.47543824421E+02 -0.23716733830E+02  0.30696808174E+03  0.33574057656E+03  0.12517760517E+03 0.  0.
          5    1    4    4  502    0 -0.15665128732E+02 -0.24371156051E+02  0.23437763482E+02  0.37560195188E+02  0.47000000000E+01 0. -1.
         -5    1    4    4    0  502  0.63208953153E+02  0.48087889881E+02  0.37337855512E+03  0.38176098850E+03  0.47000000000E+01 0. -1.
          5    1    5    5  503    0 -0.30766668647E+02 -0.65195212123E+02  0.26334609338E+03  0.27307555453E+03  0.47000000000E+01 0. -1.
         -5    1    5    5    0  503 -0.16777155774E+02  0.41478478293E+02  0.43621988360E+02  0.62665022029E+02  0.47000000000E+01 0. -1.
<mgrwt>
<rscale>  0 0.27350645E+03</rscale>
<asrwt>0</asrwt>
<pdfrwt beam="1">  1        1 0.11221892E+00 0.27350645E+03</pdfrwt>
<pdfrwt beam="2">  1       -1 0.39444128E-02 0.27350645E+03</pdfrwt>
<totfact> 0.66416235E+03</totfact>
</mgrwt>
</event>
<event>
 9    1  0.8285222E-001  0.2684001E+03  0.7818608E-02  0.1102199E+00
         -3   -1    0    0    0  501 -0.00000000000E+00  0.00000000000E+00  0.15208497916E+04  0.15208497916E+04  0.00000000000E+00 0. -1.
          3   -1    0    0  501    0  0.00000000000E+00 -0.00000000000E+00 -0.11841839152E+02  0.11841839152E+02  0.00000000000E+00 0. -1.
         35    2    1    2    0    0  0.00000000000E+00  0.00000000000E+00  0.15090079525E+04  0.15326916308E+04  0.26840013865E+03 0.  0.
         25    2    3    3    0    0 -0.38471540730E+02  0.26493502443E+02  0.83645577595E+03  0.84699899946E+03  0.12476808425E+03 0.  0.
         25    2    3    3    0    0  0.38471540730E+02 -0.26493502443E+02  0.67255217654E+03  0.68569263133E+03  0.12516385014E+03 0.  0.
          5    1    4    4  502    0  0.33565992216E+02  0.98645911226E+01  0.54957800729E+03  0.55071050661E+03  0.47000000000E+01 0.  1.
         -5    1    4    4    0  502 -0.72037532946E+02  0.16628911320E+02  0.28687776866E+03  0.29628849285E+03  0.47000000000E+01 0.  1.
          5    1    5    5  503    0 -0.21979424449E+01 -0.70402720613E+02  0.43390926180E+03  0.43961427581E+03  0.47000000000E+01 0.  1.
         -5    1    5    5    0  503  0.40669483175E+02  0.43909218170E+02  0.23864291473E+03  0.24607835552E+03  0.47000000000E+01 0.  1.
<mgrwt>
<rscale>  0 0.26840014E+03</rscale>
<asrwt>0</asrwt>
<pdfrwt beam="1">  1        3 0.18218226E-02 0.26840014E+03</pdfrwt>
<pdfrwt beam="2">  1       -3 0.23397674E+00 0.26840014E+03</pdfrwt>
<totfact> 0.28001493E+02</totfact>
</mgrwt>
</event>
<event>
 9    1  0.8285222E-001  0.2767429E+03  0.7818608E-02  0.1097481E+00
         -1   -1    0    0    0  501 -0.00000000000E+00  0.00000000000E+00  0.15651798538E+02  0.15651798538E+02  0.00000000000E+00 0. -1.
          1   -1    0    0  501    0  0.00000000000E+00 -0.00000000000E+00 -0.12232884049E+04  0.12232884049E+04  0.00000000000E+00 0. -1.
         35    2    1    2    0    0  0.00000000000E+00  0.71054273576E-14 -0.12076366063E+04  0.12389402034E+04  0.27674293969E+03 0.  0.
         25    2    3    3    0    0 -0.30997945500E+02  0.49044998918E+02 -0.51668811942E+03  0.53447803518E+03  0.12383001570E+03 0.  0.
         25    2    3    3    0    0  0.30997945500E+02 -0.49044998918E+02 -0.69094848690E+03  0.70446216822E+03  0.12446224473E+03 0.  0.
          5    1    4    4  502    0 -0.43583711553E+02  0.58904793367E+02 -0.51189999884E+03  0.51713925920E+03  0.47000000000E+01 0.  1.
         -5    1    4    4    0  502  0.12585766053E+02 -0.98597944492E+01 -0.47881205872E+01  0.17338775979E+02  0.47000000000E+01 0.  1.
          5    1    5    5  503    0  0.27745840001E+02  0.38151058299E+02 -0.18235520994E+03  0.18841668578E+03  0.47000000000E+01 0. -1.
         -5    1    5    5    0  503  0.32521054991E+01 -0.87196057217E+02 -0.50859327696E+03  0.51604548244E+03  0.47000000000E+01 0. -1.
<mgrwt>
<rscale>  0 0.27674294E+03</rscale>
<asrwt>0</asrwt>
<pdfrwt beam="1">  1        1 0.18819827E+00 0.27674294E+03</pdfrwt>
<pdfrwt beam="2">  1       -1 0.24079684E-02 0.27674294E+03</pdfrwt>
<totfact> 0.57560298E+03</totfact>
</mgrwt>
</event>
<event>
 9    1  0.8285222E-001  0.2768792E+03  0.7818608E-02  0.1097406E+00
          2   -1    0    0  501    0  0.00000000000E+00  0.00000000000E+00  0.14244457464E+03  0.14244457464E+03  0.00000000000E+00 0.  1.
         -2   -1    0    0    0  501 -0.00000000000E+00 -0.00000000000E+00 -0.13454719697E+03  0.13454719697E+03  0.00000000000E+00 0.  1.
         35    2    1    2    0    0 -0.14210854715E-13  0.17763568394E-14  0.78973776701E+01  0.27699177161E+03  0.27687916673E+03 0.  0.
         25    2    3    3    0    0  0.32705249255E+02 -0.83299941754E+01 -0.44887847985E+02  0.13743821294E+03  0.12544050919E+03 0.  0.
         25    2    3    3    0    0 -0.32705249255E+02  0.83299941754E+01  0.52785225655E+02  0.13955355868E+03  0.12469921235E+03 0.  0.
          5    1    4    4  502    0  0.58321366234E+02 -0.47102603107E+02 -0.37666924357E+01  0.75208476588E+02  0.47000000000E+01 0.  1.
         -5    1    4    4    0  502 -0.25616116979E+02  0.38772608931E+02 -0.41121155549E+02  0.62229736349E+02  0.47000000000E+01 0.  1.
          5    1    5    5  503    0 -0.74827263921E+02 -0.78725329156E+01  0.80180914844E+01  0.75812109794E+02  0.47000000000E+01 0.  1.
         -5    1    5    5    0  503  0.42122014666E+02  0.16202527091E+02  0.44767134170E+02  0.63741448881E+02  0.47000000000E+01 0.  1.
<mgrwt>
<rscale>  0 0.27687917E+03</rscale>
<asrwt>0</asrwt>
<pdfrwt beam="1">  1        2 0.21914550E-01 0.27687917E+03</pdfrwt>
<pdfrwt beam="2">  1       -2 0.20699569E-01 0.27687917E+03</pdfrwt>
<totfact> 0.49181243E+03</totfact>
</mgrwt>
</event>
<event>
 9    1  0.8285222E-001  0.2702979E+03  0.7818608E-02  0.1101109E+00
          1   -1    0    0  501    0  0.00000000000E+00  0.00000000000E+00  0.21678512935E+03  0.21678512935E+03  0.00000000000E+00 0.  1.
         -1   -1    0    0    0  501 -0.00000000000E+00 -0.00000000000E+00 -0.84255059281E+02  0.84255059281E+02  0.00000000000E+00 0.  1.
         35    2    1    2    0    0 -0.35527136788E-14  0.00000000000E+00  0.13253007007E+03  0.30104018863E+03  0.27029793876E+03 0.  0.
         25    2    3    3    0    0 -0.25584750935E+02  0.38363675175E+02  0.97739361538E+02  0.16508582377E+03  0.12479581469E+03 0.  0.
         25    2    3    3    0    0  0.25584750935E+02 -0.38363675175E+02  0.34790708530E+02  0.13595436486E+03  0.12307251875E+03 0.  0.
          5    1    4    4  502    0  0.40506427575E+02  0.48391537415E+02  0.30843977814E+02  0.70398526516E+02  0.47000000000E+01 0.  1.
         -5    1    4    4    0  502 -0.66091178510E+02 -0.10027862240E+02  0.66895383724E+02  0.94687297255E+02  0.47000000000E+01 0.  1.
          5    1    5    5  503    0  0.46010437867E+02 -0.12372058246E+02 -0.34518046034E+02  0.59022146013E+02  0.47000000000E+01 0.  1.
         -5    1    5    5    0  503 -0.20425686932E+02 -0.25991616929E+02  0.69308754564E+02  0.76932218846E+02  0.47000000000E+01 0.  1.
<mgrwt>
<rscale>  0 0.27029794E+03</rscale>
<asrwt>0</asrwt>
<pdfrwt beam="1">  1        1 0.33351558E-01 0.27029794E+03</pdfrwt>
<pdfrwt beam="2">  1       -1 0.12962317E-01 0.27029794E+03</pdfrwt>
<totfact> 0.53253199E+03</totfact>
</mgrwt>
</event>
<event>
 9    1  0.8285222E-001  0.2747031E+03  0.7818608E-02  0.1098618E+00
          2   -1    0    0  501    0  0.00000000000E+00  0.00000000000E+00  0.17284896339E+04  0.17284896339E+04  0.00000000000E+00 0. -1.
         -2   -1    0    0    0  501 -0.00000000000E+00 -0.00000000000E+00 -0.10914413798E+02  0.10914413798E+02  0.00000000000E+00 0. -1.
         35    2    1    2    0    0  0.00000000000E+00  0.71054273576E-14  0.17175752201E+04  0.17394040477E+04  0.27470312055E+03 0.  0.
         25    2    3    3    0    0  0.26390994382E+02  0.46914506527E+02  0.94140536855E+03  0.95130920165E+03  0.12588754384E+03 0.  0.
         25    2    3    3    0    0 -0.26390994382E+02 -0.46914506527E+02  0.77616985159E+03  0.78809484608E+03  0.12552446936E+03 0.  0.
          5    1    4    4  502    0 -0.29315548149E+02  0.47659279139E+02  0.74466299854E+03  0.74677699459E+03  0.47000000000E+01 0.  1.
         -5    1    4    4    0  502  0.55706542530E+02 -0.74477261151E+00  0.19674237001E+03  0.20453220706E+03  0.47000000000E+01 0.  1.
          5    1    5    5  503    0 -0.65918529914E+01 -0.47908188548E+02  0.95770457661E+02  0.10739049128E+03  0.47000000000E+01 0. -1.
         -5    1    5    5    0  503 -0.19799141390E+02  0.99368202147E+00  0.68039939392E+03  0.68070435481E+03  0.47000000000E+01 0. -1.
<mgrwt>
<rscale>  0 0.27470312E+03</rscale>
<asrwt>0</asrwt>
<pdfrwt beam="1">  1        2 0.26592127E+00 0.27470312E+03</pdfrwt>
<pdfrwt beam="2">  1       -2 0.16791420E-02 0.27470312E+03</pdfrwt>
<totfact> 0.10319066E+04</totfact>
</mgrwt>
</event>
<event>
 9    1  0.8285222E-001  0.2808978E+03  0.7818608E-02  0.1095200E+00
         -1   -1    0    0    0  501 -0.00000000000E+00  0.00000000000E+00  0.37787766549E+03  0.37787766549E+03  0.00000000000E+00 0.  1.
          1   -1    0    0  501    0  0.00000000000E+00 -0.00000000000E+00 -0.52201803309E+02  0.52201803309E+02  0.00000000000E+00 0.  1.
         35    2    1    2    0    0  0.00000000000E+00  0.71054273576E-14  0.32567586218E+03  0.43007946880E+03  0.28089781465E+03 0.  0.
         25    2    3    3    0    0  0.18922110383E+02  0.32298460631E+02  0.83775591866E+02  0.15510337075E+03  0.12504986608E+03 0.  0.
         25    2    3    3    0    0 -0.18922110383E+02 -0.32298460631E+02  0.24190027031E+03  0.27497609804E+03  0.12527919579E+03 0.  0.
          5    1    4    4  502    0 -0.28204179661E+02  0.54412660643E+02  0.82419994141E+02  0.10281711347E+03  0.47000000000E+01 0.  1.
         -5    1    4    4    0  502  0.47126290043E+02 -0.22114200011E+02  0.13555977245E+01  0.52286257282E+02  0.47000000000E+01 0.  1.
          5    1    5    5  503    0 -0.54827065096E+02 -0.62046838743E+02  0.17001571403E+03  0.18916461161E+03  0.47000000000E+01 0.  1.
         -5    1    5    5    0  503  0.35904954713E+02  0.29748378112E+02  0.71884556277E+02  0.85811486436E+02  0.47000000000E+01 0.  1.
<mgrwt>
<rscale>  0 0.28089781E+03</rscale>
<asrwt>0</asrwt>
<pdfrwt beam="1">  1        1 0.80310469E-02 0.28089781E+03</pdfrwt>
<pdfrwt beam="2">  1       -1 0.58135024E-01 0.28089781E+03</pdfrwt>
<totfact> 0.26655790E+03</totfact>
</mgrwt>
</event>
<event>
 9    1  0.8285222E-001  0.2805425E+03  0.7818608E-02  0.1095393E+00
          1   -1    0    0  501    0  0.00000000000E+00  0.00000000000E+00  0.16951573898E+04  0.16951573898E+04  0.00000000000E+00 0. -1.
         -1   -1    0    0    0  501 -0.00000000000E+00 -0.00000000000E+00 -0.11607197859E+02  0.11607197859E+02  0.00000000000E+00 0. -1.
         35    2    1    2    0    0  0.00000000000E+00  0.00000000000E+00  0.16835501919E+04  0.17067645876E+04  0.28054252602E+03 0.  0.
         25    2    3    3    0    0 -0.16908634257E+02  0.58488223598E+02  0.76432615119E+03  0.77695635104E+03  0.12553856704E+03 0.  0.
         25    2    3    3    0    0  0.16908634257E+02 -0.58488223598E+02  0.91922404073E+03  0.92980823660E+03  0.12595136197E+03 0.  0.
          5    1    4    4  502    0 -0.53671965826E+02  0.69883295946E+02  0.35518743296E+03  0.36598436784E+03  0.47000000000E+01 0. -1.
         -5    1    4    4    0  502  0.36763331570E+02 -0.11395072348E+02  0.40913871823E+03  0.41097198320E+03  0.47000000000E+01 0. -1.
          5    1    5    5  503    0 -0.16078907922E+02  0.15337263527E+02  0.60129766818E+03  0.60172646501E+03  0.47000000000E+01 0. -1.
         -5    1    5    5    0  503  0.32987542179E+02 -0.73825487126E+02  0.31792637254E+03  0.32808177159E+03  0.47000000000E+01 0. -1.
<mgrwt>
<rscale>  0 0.28054253E+03</rscale>
<asrwt>0</asrwt>
<pdfrwt beam="1">  1        1 0.26079325E+00 0.28054253E+03</pdfrwt>
<pdfrwt beam="2">  1       -1 0.17857241E-02 0.28054253E+03</pdfrwt>
<totfact> 0.43103484E+03</totfact>
</mgrwt>
</event>
<event>
 9    1  0.8285222E-001  0.2789031E+03  0.7818608E-02  0.1096290E+00
          2   -1    0    0  501    0  0.00000000000E+00  0.00000000000E+00  0.23756441171E+04  0.23756441171E+04  0.00000000000E+00 0. -1.
         -2   -1    0    0    0  501 -0.00000000000E+00 -0.00000000000E+00 -0.81858795357E+01  0.81858795357E+01  0.00000000000E+00 0. -1.
         35    2    1    2    0    0  0.71054273576E-14  0.00000000000E+00  0.23674582376E+04  0.23838299967E+04  0.27890311266E+03 0.  0.
         25    2    3    3    0    0 -0.26913187870E+01  0.44132931589E+02  0.82225244860E+03  0.83291064636E+03  0.12524414852E+03 0.  0.
         25    2    3    3    0    0  0.26913187870E+01 -0.44132931589E+02  0.15452057890E+04  0.15509193503E+04  0.12543899702E+03 0.  0.
          5    1    4    4  502    0  0.60192455736E+02  0.32933004106E+02  0.42586252877E+03  0.43137999246E+03  0.47000000000E+01 0.  1.
         -5    1    4    4    0  502 -0.62883774523E+02  0.11199927483E+02  0.39638991983E+03  0.40153065390E+03  0.47000000000E+01 0.  1.
          5    1    5    5  503    0  0.34789919335E+02  0.31174043743E+02  0.75856634953E+03  0.76001786567E+03  0.47000000000E+01 0.  1.
         -5    1    5    5    0  503 -0.32098600548E+02 -0.75306975331E+02  0.78663943945E+03  0.79090148463E+03  0.47000000000E+01 0.  1.
<mgrwt>
<rscale>  0 0.27890311E+03</rscale>
<asrwt>0</asrwt>
<pdfrwt beam="1">  1        2 0.36548316E+00 0.27890311E+03</pdfrwt>
<pdfrwt beam="2">  1       -2 0.12593680E-02 0.27890311E+03</pdfrwt>
<totfact> 0.71418306E+03</totfact>
</mgrwt>
</event>
<event>
 9    1  0.8285222E-001  0.2770933E+03  0.7818608E-02  0.1097287E+00
         -1   -1    0    0    0  501 -0.00000000000E+00  0.00000000000E+00  0.74489469294E+01  0.74489469294E+01  0.00000000000E+00 0.  1.
          1   -1    0    0  501    0  0.00000000000E+00 -0.00000000000E+00 -0.25768973030E+04  0.25768973030E+04  0.00000000000E+00 0.  1.
         35    2    1    2    0    0 -0.71054273576E-14 -0.35527136788E-14 -0.25694483561E+04  0.25843462499E+04  0.27709327854E+03 0.  0.
         25    2    3    3    0    0  0.31479291630E+02 -0.14719362397E+02 -0.85830796476E+03  0.86807083651E+03  0.12508720719E+03 0.  0.
         25    2    3    3    0    0 -0.31479291630E+02  0.14719362397E+02 -0.17111403913E+04  0.17162754134E+04  0.12803222444E+03 0.  0.
          5    1    4    4  502    0  0.47682080295E+02  0.34043139800E+02 -0.67749145949E+03  0.68003623714E+03  0.47000000000E+01 0. -1.
         -5    1    4    4    0  502 -0.16202788665E+02 -0.48762502197E+02 -0.18081650527E+03  0.18803459937E+03  0.47000000000E+01 0. -1.
          5    1    5    5  503    0  0.42230532727E+02  0.35971521786E+02 -0.75736169958E+03  0.75940516345E+03  0.47000000000E+01 0.  1.
         -5    1    5    5    0  503 -0.73709824357E+02 -0.21252159389E+02 -0.95377869173E+03  0.95687024997E+03  0.47000000000E+01 0.  1.
<mgrwt>
<rscale>  0 0.27709328E+03</rscale>
<asrwt>0</asrwt>
<pdfrwt beam="1">  1        1 0.39644590E+00 0.27709328E+03</pdfrwt>
<pdfrwt beam="2">  1       -1 0.11459914E-02 0.27709328E+03</pdfrwt>
<totfact> 0.21749207E+03</totfact>
</mgrwt>
</event>
<event>
 9    1  0.8285222E-001  0.2792356E+03  0.7818608E-02  0.1096107E+00
          2   -1    0    0  501    0  0.00000000000E+00  0.00000000000E+00  0.14242685735E+04  0.14242685735E+04  0.00000000000E+00 0.  1.
         -2   -1    0    0    0  501 -0.00000000000E+00 -0.00000000000E+00 -0.13686414406E+02  0.13686414406E+02  0.00000000000E+00 0.  1.
         35    2    1    2    0    0 -0.35527136788E-14 -0.14210854715E-13  0.14105821591E+04  0.14379549879E+04  0.27923559890E+03 0.  0.
         25    2    3    3    0    0  0.20202542862E+01 -0.44476988465E+02  0.48659478997E+03  0.50437760817E+03  0.12505997791E+03 0.  0.
         25    2    3    3    0    0 -0.20202542862E+01  0.44476988465E+02  0.92398736913E+03  0.93357737974E+03  0.12582440825E+03 0.  0.
          5    1    4    4  502    0  0.33101264672E+02  0.25343592894E+02  0.77002304540E+02  0.87689431109E+02  0.47000000000E+01 0. -1.
         -5    1    4    4    0  502 -0.31081010386E+02 -0.69820581358E+02  0.40959248543E+03  0.41668817707E+03  0.47000000000E+01 0. -1.
          5    1    5    5  503    0  0.33573183850E+02  0.49215558603E+02  0.83990042099E+03  0.84202383402E+03  0.47000000000E+01 0.  1.
         -5    1    5    5    0  503 -0.35593438136E+02 -0.47385701378E+01  0.84086948143E+02  0.91553545716E+02  0.47000000000E+01 0.  1.
<mgrwt>
<rscale>  0 0.27923560E+03</rscale>
<asrwt>0</asrwt>
<pdfrwt beam="1">  1        2 0.21911812E+00 0.27923560E+03</pdfrwt>
<pdfrwt beam="2">  1       -2 0.21056033E-02 0.27923560E+03</pdfrwt>
<totfact> 0.10744102E+04</totfact>
</mgrwt>
</event>
<event>
 9    1  0.8285222E-001  0.2891535E+03  0.7818608E-02  0.1090792E+00
         -1   -1    0    0    0  501 -0.00000000000E+00  0.00000000000E+00  0.17138581816E+02  0.17138581816E+02  0.00000000000E+00 0.  1.
          1   -1    0    0  501    0  0.00000000000E+00 -0.00000000000E+00 -0.12196130314E+04  0.12196130314E+04  0.00000000000E+00 0.  1.
         35    2    1    2    0    0  0.00000000000E+00  0.71054273576E-14 -0.12024744496E+04  0.12367516132E+04  0.28915350748E+03 0.  0.
         25    2    3    3    0    0 -0.39098035265E+02 -0.57007006198E+02 -0.69519925703E+03  0.70977335937E+03  0.12529070030E+03 0.  0.
         25    2    3    3    0    0  0.39098035265E+02  0.57007006198E+02 -0.50727519255E+03  0.52697825384E+03  0.12489797407E+03 0.  0.
          5    1    4    4  502    0 -0.92628444677E+01  0.18122163583E+02 -0.46991639359E+03  0.47038039932E+03  0.47000000000E+01 0.  1.
         -5    1    4    4    0  502 -0.29835190797E+02 -0.75129169781E+02 -0.22528286344E+03  0.23939296005E+03  0.47000000000E+01 0.  1.
          5    1    5    5  503    0  0.53529006203E+02  0.11583260957E+01 -0.83722670039E+02  0.99490058312E+02  0.47000000000E+01 0. -1.
         -5    1    5    5    0  503 -0.14430970938E+02  0.55848680103E+02 -0.42355252251E+03  0.42748819553E+03  0.47000000000E+01 0. -1.
<mgrwt>
<rscale>  0 0.28915351E+03</rscale>
<asrwt>0</asrwt>
<pdfrwt beam="1">  1        1 0.18763281E+00 0.28915351E+03</pdfrwt>
<pdfrwt beam="2">  1       -1 0.26367045E-02 0.28915351E+03</pdfrwt>
<totfact> 0.50696961E+03</totfact>
</mgrwt>
</event>
<event>
 9    1  0.8285222E-001  0.2762522E+03  0.7818608E-02  0.1097754E+00
          2   -1    0    0  501    0  0.00000000000E+00  0.00000000000E+00  0.40666688410E+03  0.40666688410E+03  0.00000000000E+00 0.  1.
         -2   -1    0    0    0  501 -0.00000000000E+00 -0.00000000000E+00 -0.46915110985E+02  0.46915110985E+02  0.00000000000E+00 0.  1.
         35    2    1    2    0    0  0.00000000000E+00  0.00000000000E+00  0.35975177312E+03  0.45358199509E+03  0.27625221810E+03 0.  0.
         25    2    3    3    0    0 -0.67902752528E+01  0.34243031668E+02  0.25688722649E+03  0.28793768206E+03  0.12529313054E+03 0.  0.
         25    2    3    3    0    0  0.67902752528E+01 -0.34243031668E+02  0.10286454663E+03  0.16564431303E+03  0.12505291052E+03 0.  0.
          5    1    4    4  502    0 -0.20339326016E+02  0.73936367728E+02  0.10379628501E+03  0.12913571712E+03  0.47000000000E+01 0. -1.
         -5    1    4    4    0  502  0.13549050763E+02 -0.39693336060E+02  0.15309094148E+03  0.15880196494E+03  0.47000000000E+01 0. -1.
          5    1    5    5  503    0  0.53890165320E+02 -0.54867074170E+02  0.50612300170E+02  0.92185902798E+02  0.47000000000E+01 0.  1.
         -5    1    5    5    0  503 -0.47099890067E+02  0.20624042502E+02  0.52252246457E+02  0.73458410228E+02  0.47000000000E+01 0.  1.
<mgrwt>
<rscale>  0 0.27625222E+03</rscale>
<asrwt>0</asrwt>
<pdfrwt beam="1">  1        2 0.62564134E-01 0.27625222E+03</pdfrwt>
<pdfrwt beam="2">  1       -2 0.72177097E-02 0.27625222E+03</pdfrwt>
<totfact> 0.86538508E+03</totfact>
</mgrwt>
</event>
<event>
 9    1  0.8285222E-001  0.2744438E+03  0.7818608E-02  0.1098763E+00
         -2   -1    0    0    0  501 -0.00000000000E+00  0.00000000000E+00  0.10267675923E+02  0.10267675923E+02  0.00000000000E+00 0.  1.
          2   -1    0    0  501    0  0.00000000000E+00 -0.00000000000E+00 -0.18338959832E+04  0.18338959832E+04  0.00000000000E+00 0.  1.
         35    2    1    2    0    0  0.00000000000E+00  0.00000000000E+00 -0.18236283073E+04  0.18441636592E+04  0.27444379849E+03 0.  0.
         25    2    3    3    0    0 -0.29939699705E+01  0.48249238698E+02 -0.71857612159E+03  0.73093515684E+03  0.12481028839E+03 0.  0.
         25    2    3    3    0    0  0.29939699705E+01 -0.48249238698E+02 -0.11050521857E+04  0.11132285023E+04  0.12569969102E+03 0.  0.
          5    1    4    4  502    0 -0.55168031006E+02  0.30447841008E+02 -0.54751505388E+03  0.55114916936E+03  0.47000000000E+01 0.  1.
         -5    1    4    4    0  502  0.52174061035E+02  0.17801397690E+02 -0.17106106772E+03  0.17978598748E+03  0.47000000000E+01 0.  1.
          5    1    5    5  503    0 -0.45908168056E+02  0.63028842971E+01 -0.70211685021E+03  0.70366003695E+03  0.47000000000E+01 0.  1.
         -5    1    5    5    0  503  0.48902138026E+02 -0.54552122995E+02 -0.40293533551E+03  0.40956846538E+03  0.47000000000E+01 0.  1.
<mgrwt>
<rscale>  0 0.27444380E+03</rscale>
<asrwt>0</asrwt>
<pdfrwt beam="1">  1        2 0.28213789E+00 0.27444380E+03</pdfrwt>
<pdfrwt beam="2">  1       -2 0.15796422E-02 0.27444380E+03</pdfrwt>
<totfact> 0.99341344E+03</totfact>
</mgrwt>
</event>
<event>
 9    1  0.8285222E-001  0.2742257E+03  0.7818608E-02  0.1098885E+00
          2   -1    0    0  501    0  0.00000000000E+00  0.00000000000E+00  0.87772403390E+03  0.87772403390E+03  0.00000000000E+00 0.  1.
         -2   -1    0    0    0  501 -0.00000000000E+00 -0.00000000000E+00 -0.21418955137E+02  0.21418955137E+02  0.00000000000E+00 0.  1.
         35    2    1    2    0    0  0.71054273576E-14 -0.17763568394E-14  0.85630507877E+03  0.89914298904E+03  0.27422568592E+03 0.  0.
         25    2    3    3    0    0  0.44245527699E+02 -0.42241320169E+01  0.36770829747E+03  0.39262989943E+03  0.13028175577E+03 0.  0.
         25    2    3    3    0    0 -0.44245527699E+02  0.42241320169E+01  0.48859678130E+03  0.50651308961E+03  0.12590943268E+03 0.  0.
          5    1    4    4  502    0  0.24948090673E+02  0.41505314091E+02  0.45588284224E+02  0.66674432765E+02  0.47000000000E+01 0.  1.
         -5    1    4    4    0  502  0.19297437026E+02 -0.45729446108E+02  0.32212001325E+03  0.32595546667E+03  0.47000000000E+01 0.  1.
          5    1    5    5  503    0 -0.67035191007E+02 -0.51563923415E+01  0.47116935287E+03  0.47596528687E+03  0.47000000000E+01 0.  1.
         -5    1    5    5    0  503  0.22789663308E+02  0.93805243584E+01  0.17427428425E+02  0.30547802743E+02  0.47000000000E+01 0.  1.
<mgrwt>
<rscale>  0 0.27422569E+03</rscale>
<asrwt>0</asrwt>
<pdfrwt beam="1">  1        2 0.13503444E+00 0.27422569E+03</pdfrwt>
<pdfrwt beam="2">  1       -2 0.32952245E-02 0.27422569E+03</pdfrwt>
<totfact> 0.11526087E+04</totfact>
</mgrwt>
</event>
<event>
 9    1  0.8285222E-001  0.2673728E+03  0.7818608E-02  0.1102793E+00
         -2   -1    0    0    0  501 -0.00000000000E+00  0.00000000000E+00  0.29648392019E+03  0.29648392019E+03  0.00000000000E+00 0.  1.
          2   -1    0    0  501    0  0.00000000000E+00 -0.00000000000E+00 -0.60280001912E+02  0.60280001912E+02  0.00000000000E+00 0.  1.
         35    2    1    2    0    0 -0.35527136788E-14  0.00000000000E+00  0.23620391828E+03  0.35676392210E+03  0.26737278303E+03 0.  0.
         25    2    3    3    0    0 -0.74661494467E+01  0.38610470871E+02  0.14020891250E+03  0.19406022071E+03  0.12827438664E+03 0.  0.
         25    2    3    3    0    0  0.74661494467E+01 -0.38610470871E+02  0.95995005776E+02  0.16270370139E+03  0.12534329446E+03 0.  0.
          5    1    4    4  502    0 -0.34654744115E+02  0.44775310612E+02  0.15286726911E+03  0.16308363405E+03  0.47000000000E+01 0. -1.
         -5    1    4    4    0  502  0.27188594668E+02 -0.61648397409E+01 -0.12658356607E+02  0.30976586659E+02  0.47000000000E+01 0. -1.
          5    1    5    5  503    0 -0.41100233162E+02 -0.58327831452E+02  0.28171915421E+02  0.76857738103E+02  0.47000000000E+01 0. -1.
         -5    1    5    5    0  503  0.48566382609E+02  0.19717360581E+02  0.67823090355E+02  0.85845963290E+02  0.47000000000E+01 0. -1.
<mgrwt>
<rscale>  0 0.26737278E+03</rscale>
<asrwt>0</asrwt>
<pdfrwt beam="1">  1        2 0.92738466E-02 0.26737278E+03</pdfrwt>
<pdfrwt beam="2">  1       -2 0.45612910E-01 0.26737278E+03</pdfrwt>
<totfact> 0.32318289E+03</totfact>
</mgrwt>
</event>
<event>
 9    1  0.8285222E-001  0.2771098E+03  0.7818608E-02  0.1097278E+00
         -2   -1    0    0    0  501 -0.00000000000E+00  0.00000000000E+00  0.10791005469E+02  0.10791005469E+02  0.00000000000E+00 0. -1.
          2   -1    0    0  501    0  0.00000000000E+00 -0.00000000000E+00 -0.17790237398E+04  0.17790237398E+04  0.00000000000E+00 0. -1.
         35    2    1    2    0    0  0.71054273576E-14  0.17763568394E-14 -0.17682327343E+04  0.17898147452E+04  0.27710976096E+03 0.  0.
         25    2    3    3    0    0  0.60272925448E+02 -0.46663264341E+01 -0.96909888875E+03  0.97902722161E+03  0.12524793143E+03 0.  0.
         25    2    3    3    0    0 -0.60272925448E+02  0.46663264341E+01 -0.79913384554E+03  0.81078752362E+03  0.12291015103E+03 0.  0.
          5    1    4    4  502    0  0.39561182645E+02  0.67269953372E+00 -0.77350137980E+02  0.87009617528E+02  0.47000000000E+01 0. -1.
         -5    1    4    4    0  502  0.20711742803E+02 -0.53390259678E+01 -0.89174875077E+03  0.89201760408E+03  0.47000000000E+01 0. -1.
          5    1    5    5  503    0  0.13495212432E+02  0.42480566130E+02 -0.15582117069E+03  0.16213897278E+03  0.47000000000E+01 0. -1.
         -5    1    5    5    0  503 -0.73768137880E+02 -0.37814239696E+02 -0.64331267485E+03  0.64864855084E+03  0.47000000000E+01 0. -1.
<mgrwt>
<rscale>  0 0.27710976E+03</rscale>
<asrwt>0</asrwt>
<pdfrwt beam="1">  1        2 0.27369642E+00 0.27710976E+03</pdfrwt>
<pdfrwt beam="2">  1       -2 0.16601519E-02 0.27710976E+03</pdfrwt>
<totfact> 0.98712365E+03</totfact>
</mgrwt>
</event>
<event>
 9    1  0.8285222E-001  0.2717717E+03  0.7818608E-02  0.1100270E+00
         -2   -1    0    0    0  501 -0.00000000000E+00  0.00000000000E+00  0.61543369091E+03  0.61543369091E+03  0.00000000000E+00 0. -1.
          2   -1    0    0  501    0  0.00000000000E+00 -0.00000000000E+00 -0.30003174474E+02  0.30003174474E+02  0.00000000000E+00 0. -1.
         35    2    1    2    0    0 -0.17763568394E-14  0.00000000000E+00  0.58543051644E+03  0.64543686539E+03  0.27177170129E+03 0.  0.
         25    2    3    3    0    0  0.14997077054E+02  0.25316985251E+02  0.36563280606E+03  0.38754949836E+03  0.12506559378E+03 0.  0.
         25    2    3    3    0    0 -0.14997077054E+02 -0.25316985251E+02  0.21979771038E+03  0.25788736703E+03  0.13163965407E+03 0.  0.
          5    1    4    4  502    0  0.19649718501E+02 -0.48911542160E+02  0.17655719765E+03  0.18431761835E+03  0.47000000000E+01 0. -1.
         -5    1    4    4    0  502 -0.46526414468E+01  0.74228527411E+02  0.18907560841E+03  0.20323188001E+03  0.47000000000E+01 0. -1.
          5    1    5    5  503    0  0.21244935551E+02 -0.55883146864E+02  0.40491913498E+02  0.72359922946E+02  0.47000000000E+01 0. -1.
         -5    1    5    5    0  503 -0.36242012605E+02  0.30566161613E+02  0.17930579688E+03  0.18552744408E+03  0.47000000000E+01 0. -1.
<mgrwt>
<rscale>  0 0.27177170E+03</rscale>
<asrwt>0</asrwt>
<pdfrwt beam="1">  1        2 0.46158734E-02 0.27177170E+03</pdfrwt>
<pdfrwt beam="2">  1       -2 0.94682097E-01 0.27177170E+03</pdfrwt>
<totfact> 0.16996839E+03</totfact>
</mgrwt>
</event>
<event>
 9    1  0.8285222E-001  0.2779089E+03  0.7818608E-02  0.1096837E+00
         -2   -1    0    0    0  501 -0.00000000000E+00  0.00000000000E+00  0.10743657456E+02  0.10743657456E+02  0.00000000000E+00 0. -1.
          2   -1    0    0  501    0  0.00000000000E+00 -0.00000000000E+00 -0.17971853894E+04  0.17971853894E+04  0.00000000000E+00 0. -1.
         35    2    1    2    0    0  0.71054273576E-14 -0.71054273576E-14 -0.17864417319E+04  0.18079290469E+04  0.27790893623E+03 0.  0.
         25    2    3    3    0    0  0.42672616260E+02 -0.32406169782E+02 -0.79953409572E+03  0.81110687454E+03  0.12557260724E+03 0.  0.
         25    2    3    3    0    0 -0.42672616260E+02  0.32406169782E+02 -0.98690763622E+03  0.99682217231E+03  0.12960188566E+03 0.  0.
          5    1    4    4  502    0  0.35758040434E+02  0.36100302996E+02 -0.16196850777E+03  0.16981683321E+03  0.47000000000E+01 0. -1.
         -5    1    4    4    0  502  0.69145758257E+01 -0.68506472778E+02 -0.63756558795E+03  0.64129004133E+03  0.47000000000E+01 0. -1.
          5    1    5    5  503    0 -0.83476075607E+02 -0.49099137674E+01 -0.65026466747E+03  0.65563601961E+03  0.47000000000E+01 0.  1.
         -5    1    5    5    0  503  0.40803459347E+02  0.37316083550E+02 -0.33664296875E+03  0.34118615270E+03  0.47000000000E+01 0.  1.
<mgrwt>
<rscale>  0 0.27790894E+03</rscale>
<asrwt>0</asrwt>
<pdfrwt beam="1">  1        2 0.27649002E+00 0.27790894E+03</pdfrwt>
<pdfrwt beam="2">  1       -2 0.16528706E-02 0.27790894E+03</pdfrwt>
<totfact> 0.97195785E+03</totfact>
</mgrwt>
</event>
<event>
 9    1  0.8285222E-001  0.2746424E+03  0.7818608E-02  0.1098652E+00
          3   -1    0    0  501    0  0.00000000000E+00  0.00000000000E+00  0.53553111168E+02  0.53553111168E+02  0.00000000000E+00 0.  1.
         -3   -1    0    0    0  501 -0.00000000000E+00 -0.00000000000E+00 -0.35211994330E+03  0.35211994330E+03  0.00000000000E+00 0.  1.
         35    2    1    2    0    0  0.00000000000E+00 -0.35527136788E-14 -0.29856683213E+03  0.40567305446E+03  0.27464244732E+03 0.  0.
         25    2    3    3    0    0  0.56119269125E+02  0.65598302172E+00 -0.15470800634E+03  0.20728464736E+03  0.12602600970E+03 0.  0.
         25    2    3    3    0    0 -0.56119269125E+02 -0.65598302172E+00 -0.14385882578E+03  0.19838840711E+03  0.12455037390E+03 0.  0.
          5    1    4    4  502    0 -0.12966461914E+02 -0.40475886269E+02 -0.10313194694E+03  0.11164548797E+03  0.47000000000E+01 0.  1.
         -5    1    4    4    0  502  0.69085731040E+02  0.41131869291E+02 -0.51576059404E+02  0.95639159387E+02  0.47000000000E+01 0.  1.
          5    1    5    5  503    0  0.26359815514E+02  0.21400467585E+02 -0.92491870399E+02  0.98639018530E+02  0.47000000000E+01 0. -1.
         -5    1    5    5    0  503 -0.82479084639E+02 -0.22056450607E+02 -0.51366955385E+02  0.99749388578E+02  0.47000000000E+01 0. -1.
<mgrwt>
<rscale>  0 0.27464245E+03</rscale>
<asrwt>0</asrwt>
<pdfrwt beam="1">  1        3 0.82389402E-02 0.27464245E+03</pdfrwt>
<pdfrwt beam="2">  1       -3 0.54172299E-01 0.27464245E+03</pdfrwt>
<totfact> 0.87743871E+02</totfact>
</mgrwt>
</event>
<event>
 9    1  0.8285222E-001  0.2730328E+03  0.7818608E-02  0.1099556E+00
          2   -1    0    0  501    0  0.00000000000E+00  0.00000000000E+00  0.17961626457E+03  0.17961626457E+03  0.00000000000E+00 0.  1.
         -2   -1    0    0    0  501 -0.00000000000E+00 -0.00000000000E+00 -0.10375857314E+03  0.10375857314E+03  0.00000000000E+00 0.  1.
         35    2    1    2    0    0  0.00000000000E+00 -0.71054273576E-14  0.75857691429E+02  0.28337483771E+03  0.27303279895E+03 0.  0.
         25    2    3    3    0    0  0.52366636019E+02  0.88449844433E+01  0.26112931689E+02  0.13829097794E+03  0.12498804367E+03 0.  0.
         25    2    3    3    0    0 -0.52366636019E+02 -0.88449844433E+01  0.49744759740E+02  0.14508385978E+03  0.12551608235E+03 0.  0.
          5    1    4    4  502    0  0.69785173496E+02  0.52421476172E+02  0.80149000120E+01  0.87774200231E+02  0.47000000000E+01 0. -1.
         -5    1    4    4    0  502 -0.17418537477E+02 -0.43576491729E+02  0.18098031677E+02  0.50516777706E+02  0.47000000000E+01 0. -1.
          5    1    5    5  503    0 -0.50075398933E+02  0.41611325780E+02  0.64992816939E+02  0.92115168486E+02  0.47000000000E+01 0.  1.
         -5    1    5    5    0  503 -0.22912370855E+01 -0.50456310223E+02 -0.15248057199E+02  0.52968691291E+02  0.47000000000E+01 0.  1.
<mgrwt>
<rscale>  0 0.27303280E+03</rscale>
<asrwt>0</asrwt>
<pdfrwt beam="1">  1        2 0.27633271E-01 0.27303280E+03</pdfrwt>
<pdfrwt beam="2">  1       -2 0.15962857E-01 0.27303280E+03</pdfrwt>
<totfact> 0.58825352E+03</totfact>
</mgrwt>
</event>
<event>
 9    1  0.8285222E-001  0.2739546E+03  0.7818608E-02  0.1099037E+00
         -1   -1    0    0    0  501 -0.00000000000E+00  0.00000000000E+00  0.81455575392E+01  0.81455575392E+01  0.00000000000E+00 0.  1.
          1   -1    0    0  501    0  0.00000000000E+00 -0.00000000000E+00 -0.23034379652E+04  0.23034379652E+04  0.00000000000E+00 0.  1.
         35    2    1    2    0    0  0.00000000000E+00  0.00000000000E+00 -0.22952924077E+04  0.23115835228E+04  0.27395464211E+03 0.  0.
         25    2    3    3    0    0 -0.17081499022E+02  0.35274786248E+02 -0.76414122090E+03  0.77524414982E+03  0.12472208386E+03 0.  0.
         25    2    3    3    0    0  0.17081499022E+02 -0.35274786248E+02 -0.15311511868E+04  0.15363393729E+04  0.11991089984E+03 0.  0.
          5    1    4    4  502    0 -0.45714011198E+02  0.52146368576E+02 -0.69414941927E+03  0.69762061384E+03  0.47000000000E+01 0.  1.
         -5    1    4    4    0  502  0.28632512176E+02 -0.16871582328E+02 -0.69991801626E+02  0.77623535984E+02  0.47000000000E+01 0.  1.
          5    1    5    5  503    0 -0.37179996690E+02 -0.43808231310E+01 -0.11018352467E+04  0.11024810859E+04  0.47000000000E+01 0. -1.
         -5    1    5    5    0  503  0.54261495712E+02 -0.30893963117E+02 -0.42931594007E+03  0.43385828708E+03  0.47000000000E+01 0. -1.
<mgrwt>
<rscale>  0 0.27395464E+03</rscale>
<asrwt>0</asrwt>
<pdfrwt beam="1">  1        1 0.35437574E+00 0.27395464E+03</pdfrwt>
<pdfrwt beam="2">  1       -1 0.12531603E-02 0.27395464E+03</pdfrwt>
<totfact> 0.28996328E+03</totfact>
</mgrwt>
</event>
<event>
 9    1  0.8285222E-001  0.2790423E+03  0.7818608E-02  0.1096213E+00
         -1   -1    0    0    0  501 -0.00000000000E+00  0.00000000000E+00  0.14049147711E+02  0.14049147711E+02  0.00000000000E+00 0. -1.
          1   -1    0    0  501    0  0.00000000000E+00 -0.00000000000E+00 -0.13855747545E+04  0.13855747545E+04  0.00000000000E+00 0. -1.
         35    2    1    2    0    0 -0.35527136788E-14  0.00000000000E+00 -0.13715256068E+04  0.13996239022E+04  0.27904225050E+03 0.  0.
         25    2    3    3    0    0  0.20195589440E+02 -0.43403956457E+02 -0.87382472305E+03  0.88386650296E+03  0.12392975092E+03 0.  0.
         25    2    3    3    0    0 -0.20195589440E+02  0.43403956457E+02 -0.49770088371E+03  0.51575739922E+03  0.12652177656E+03 0.  0.
          5    1    4    4  502    0  0.46797153914E+00 -0.63609023179E+02 -0.82352150795E+03  0.82598794839E+03  0.47000000000E+01 0. -1.
         -5    1    4    4    0  502  0.19727617901E+02  0.20205066722E+02 -0.50303215104E+02  0.57878554570E+02  0.47000000000E+01 0. -1.
          5    1    5    5  503    0 -0.73267095792E+02  0.15592484335E+02 -0.28709911419E+03  0.29674767777E+03  0.47000000000E+01 0.  1.
         -5    1    5    5    0  503  0.53071506351E+02  0.27811472123E+02 -0.21060176952E+03  0.21900972145E+03  0.47000000000E+01 0.  1.
<mgrwt>
<rscale>  0 0.27904225E+03</rscale>
<asrwt>0</asrwt>
<pdfrwt beam="1">  1        1 0.21316540E+00 0.27904225E+03</pdfrwt>
<pdfrwt beam="2">  1       -1 0.21614068E-02 0.27904225E+03</pdfrwt>
<totfact> 0.52239569E+03</totfact>
</mgrwt>
</event>
<event>
 9    1  0.8285222E-001  0.2762120E+03  0.7818608E-02  0.1097776E+00
         -2   -1    0    0    0  501 -0.00000000000E+00  0.00000000000E+00  0.35614896883E+02  0.35614896883E+02  0.00000000000E+00 0.  1.
          2   -1    0    0  501    0  0.00000000000E+00 -0.00000000000E+00 -0.53554194725E+03  0.53554194725E+03  0.00000000000E+00 0.  1.
         35    2    1    2    0    0 -0.35527136788E-14  0.00000000000E+00 -0.49992705036E+03  0.57115684413E+03  0.27621202890E+03 0.  0.
         25    2    3    3    0    0 -0.36533463571E+01  0.54283885318E+02 -0.26782628615E+03  0.30100538731E+03  0.12614767732E+03 0.  0.
         25    2    3    3    0    0  0.36533463571E+01 -0.54283885318E+02 -0.23210076421E+03  0.27015145682E+03  0.12708641834E+03 0.  0.
          5    1    4    4  502    0 -0.69776407008E+01  0.51731793795E+02 -0.28129566142E+03  0.28613668952E+03  0.47000000000E+01 0.  1.
         -5    1    4    4    0  502  0.33242943436E+01  0.25520915227E+01  0.13469375264E+02  0.14868697792E+02  0.47000000000E+01 0.  1.
          5    1    5    5  503    0  0.34922637852E+02 -0.13355319135E+01 -0.59734792787E+01  0.35765160907E+02  0.47000000000E+01 0.  1.
         -5    1    5    5    0  503 -0.31269291494E+02 -0.52948353404E+02 -0.22612728493E+03  0.23438629591E+03  0.47000000000E+01 0.  1.
<mgrwt>
<rscale>  0 0.27621203E+03</rscale>
<asrwt>0</asrwt>
<pdfrwt beam="1">  1        2 0.82391066E-01 0.27621203E+03</pdfrwt>
<pdfrwt beam="2">  1       -2 0.54792151E-02 0.27621203E+03</pdfrwt>
<totfact> 0.97472927E+03</totfact>
</mgrwt>
</event>
<event>
 9    1  0.8285222E-001  0.2743916E+03  0.7818608E-02  0.1098792E+00
         -2   -1    0    0    0  501 -0.00000000000E+00  0.00000000000E+00  0.19262050538E+02  0.19262050538E+02  0.00000000000E+00 0. -1.
          2   -1    0    0  501    0  0.00000000000E+00 -0.00000000000E+00 -0.97719054991E+03  0.97719054991E+03  0.00000000000E+00 0. -1.
         35    2    1    2    0    0  0.00000000000E+00  0.00000000000E+00 -0.95792849938E+03  0.99645260045E+03  0.27439164533E+03 0.  0.
         25    2    3    3    0    0 -0.49785595248E+02  0.86171916760E+01 -0.36855457184E+03  0.39256675763E+03  0.12539268432E+03 0.  0.
         25    2    3    3    0    0  0.49785595248E+02 -0.86171916760E+01 -0.58937392753E+03  0.60388584282E+03  0.12150565098E+03 0.  0.
          5    1    4    4  502    0 -0.75147376589E+02  0.46191243044E+02 -0.21644335881E+03  0.23377462804E+03  0.47000000000E+01 0. -1.
         -5    1    4    4    0  502  0.25361781340E+02 -0.37574051368E+02 -0.15211121303E+03  0.15879212958E+03  0.47000000000E+01 0. -1.
          5    1    5    5  503    0 -0.14795942007E+02  0.44490843856E+02 -0.18272417705E+03  0.18870233164E+03  0.47000000000E+01 0. -1.
         -5    1    5    5    0  503  0.64581537255E+02 -0.53108035532E+02 -0.40664975048E+03  0.41518351119E+03  0.47000000000E+01 0. -1.
<mgrwt>
<rscale>  0 0.27439165E+03</rscale>
<asrwt>0</asrwt>
<pdfrwt beam="1">  1        2 0.15033701E+00 0.27439165E+03</pdfrwt>
<pdfrwt beam="2">  1       -2 0.29633924E-02 0.27439165E+03</pdfrwt>
<totfact> 0.11670943E+04</totfact>
</mgrwt>
</event>
<event>
 9    1  0.8285222E-001  0.2746853E+03  0.7818608E-02  0.1098628E+00
         -1   -1    0    0    0  501 -0.00000000000E+00  0.00000000000E+00  0.39201650431E+03  0.39201650431E+03  0.00000000000E+00 0. -1.
          1   -1    0    0  501    0  0.00000000000E+00 -0.00000000000E+00 -0.48117878413E+02  0.48117878413E+02  0.00000000000E+00 0. -1.
         35    2    1    2    0    0 -0.14210854715E-13 -0.35527136788E-14  0.34389862590E+03  0.44013438273E+03  0.27468529258E+03 0.  0.
         25    2    3    3    0    0  0.36821668879E+02  0.28648943083E+02  0.22154053437E+03  0.25906710963E+03  0.12593236948E+03 0.  0.
         25    2    3    3    0    0 -0.36821668879E+02 -0.28648943083E+02  0.12235809153E+03  0.18106727310E+03  0.12504902073E+03 0.  0.
          5    1    4    4  502    0  0.27835554188E+01 -0.49032983781E+02  0.79355679782E+02  0.93441937013E+02  0.47000000000E+01 0.  1.
         -5    1    4    4    0  502  0.34038113460E+02  0.77681926863E+02  0.14218485459E+03  0.16562517262E+03  0.47000000000E+01 0.  1.
          5    1    5    5  503    0  0.30187764089E+02  0.16218835500E+02  0.16926127551E+00  0.34590032885E+02  0.47000000000E+01 0.  1.
         -5    1    5    5    0  503 -0.67009432967E+02 -0.44867778582E+02  0.12218883025E+03  0.14647724021E+03  0.47000000000E+01 0.  1.
<mgrwt>
<rscale>  0 0.27468529E+03</rscale>
<asrwt>0</asrwt>
<pdfrwt beam="1">  1        1 0.74027508E-02 0.27468529E+03</pdfrwt>
<pdfrwt beam="2">  1       -1 0.60310229E-01 0.27468529E+03</pdfrwt>
<totfact> 0.27741993E+03</totfact>
</mgrwt>
</event>
<event>
 9    1  0.8285222E-001  0.2726869E+03  0.7818608E-02  0.1099752E+00
          2   -1    0    0  501    0  0.00000000000E+00  0.00000000000E+00  0.78168573575E+03  0.78168573575E+03  0.00000000000E+00 0.  1.
         -2   -1    0    0    0  501 -0.00000000000E+00 -0.00000000000E+00 -0.23781335366E+02  0.23781335366E+02  0.00000000000E+00 0.  1.
         35    2    1    2    0    0  0.00000000000E+00  0.00000000000E+00  0.75790440039E+03  0.80546707112E+03  0.27268685801E+03 0.  0.
         25    2    3    3    0    0 -0.52110165501E+02 -0.29742867450E+01  0.43504490533E+03  0.45563694086E+03  0.12496654150E+03 0.  0.
         25    2    3    3    0    0  0.52110165501E+02  0.29742867450E+01  0.32285949506E+03  0.34983013026E+03  0.12417145709E+03 0.  0.
          5    1    4    4  502    0 -0.33735776941E+02 -0.50846047971E+02  0.10447506976E+03  0.12108077238E+03  0.47000000000E+01 0. -1.
         -5    1    4    4    0  502 -0.18374388561E+02  0.47871761226E+02  0.33056983557E+03  0.33455616848E+03  0.47000000000E+01 0. -1.
          5    1    5    5  503    0  0.32451325199E+02  0.56615187571E+02  0.24216842724E+03  0.25085056333E+03  0.47000000000E+01 0.  1.
         -5    1    5    5    0  503  0.19658840302E+02 -0.53640900826E+02  0.80691067816E+02  0.98979566926E+02  0.47000000000E+01 0.  1.
<mgrwt>
<rscale>  0 0.27268686E+03</rscale>
<asrwt>0</asrwt>
<pdfrwt beam="1">  1        2 0.12025932E+00 0.27268686E+03</pdfrwt>
<pdfrwt beam="2">  1       -2 0.36586676E-02 0.27268686E+03</pdfrwt>
<totfact> 0.11444928E+04</totfact>
</mgrwt>
</event>
<event>
 9    1  0.8285222E-001  0.2690061E+03  0.7818608E-02  0.1101850E+00
         -1   -1    0    0    0  501 -0.00000000000E+00  0.00000000000E+00  0.79213282030E+02  0.79213282030E+02  0.00000000000E+00 0.  1.
          1   -1    0    0  501    0  0.00000000000E+00 -0.00000000000E+00 -0.22838434704E+03  0.22838434704E+03  0.00000000000E+00 0.  1.
         35    2    1    2    0    0  0.35527136788E-14  0.00000000000E+00 -0.14917106501E+03  0.30759762907E+03  0.26900612404E+03 0.  0.
         25    2    3    3    0    0 -0.35673918656E+01  0.38222347474E+02 -0.40564221635E+02  0.13730221371E+03  0.12543033000E+03 0.  0.
         25    2    3    3    0    0  0.35673918656E+01 -0.38222347474E+02 -0.10860684337E+03  0.17029541535E+03  0.12542490953E+03 0.  0.
          5    1    4    4  502    0  0.44452507647E+02  0.19502575529E+02  0.24164130866E+02  0.54427668597E+02  0.47000000000E+01 0.  1.
         -5    1    4    4    0  502 -0.48019899513E+02  0.18719771945E+02 -0.64728352501E+02  0.82874545118E+02  0.47000000000E+01 0.  1.
          5    1    5    5  503    0  0.16874395762E+02 -0.68076241373E+02 -0.11675579928E+03  0.13628325846E+03  0.47000000000E+01 0.  1.
         -5    1    5    5    0  503 -0.13307003897E+02  0.29853893899E+02  0.81489559109E+01  0.34012156886E+02  0.47000000000E+01 0.  1.
<mgrwt>
<rscale>  0 0.26900612E+03</rscale>
<asrwt>0</asrwt>
<pdfrwt beam="1">  1        1 0.35136053E-01 0.26900612E+03</pdfrwt>
<pdfrwt beam="2">  1       -1 0.12186659E-01 0.26900612E+03</pdfrwt>
<totfact> 0.54928767E+03</totfact>
</mgrwt>
</event>
<event>
 9    1  0.8285222E-001  0.2672195E+03  0.7818608E-02  0.1102882E+00
         -1   -1    0    0    0  501 -0.00000000000E+00  0.00000000000E+00  0.49843048564E+03  0.49843048564E+03  0.00000000000E+00 0.  1.
          1   -1    0    0  501    0  0.00000000000E+00 -0.00000000000E+00 -0.35815565696E+02  0.35815565696E+02  0.00000000000E+00 0.  1.
         35    2    1    2    0    0 -0.71054273576E-14  0.14210854715E-13  0.46261491995E+03  0.53424605134E+03  0.26721953374E+03 0.  0.
         25    2    3    3    0    0 -0.12187174200E+02 -0.33774451948E+02  0.23454248692E+03  0.27164256753E+03  0.13225076749E+03 0.  0.
         25    2    3    3    0    0  0.12187174200E+02  0.33774451948E+02  0.22807243303E+03  0.26260348381E+03  0.12511720179E+03 0.  0.
          5    1    4    4  502    0 -0.55142315361E+02 -0.42632263488E+02  0.61519939211E+02  0.93085862267E+02  0.47000000000E+01 0. -1.
         -5    1    4    4    0  502  0.42955141161E+02  0.88578115400E+01  0.17302254771E+03  0.17855670526E+03  0.47000000000E+01 0. -1.
          5    1    5    5  503    0  0.61437627392E+02 -0.33001843347E+01  0.15533158205E+03  0.16713905485E+03  0.47000000000E+01 0. -1.
         -5    1    5    5    0  503 -0.49250453192E+02  0.37074636283E+02  0.72740850980E+02  0.95464428959E+02  0.47000000000E+01 0. -1.
<mgrwt>
<rscale>  0 0.26721953E+03</rscale>
<asrwt>0</asrwt>
<pdfrwt beam="1">  1        1 0.55100874E-02 0.26721953E+03</pdfrwt>
<pdfrwt beam="2">  1       -1 0.76681608E-01 0.26721953E+03</pdfrwt>
<totfact> 0.25815834E+03</totfact>
</mgrwt>
</event>
<event>
 9    1  0.8285222E-001  0.2747170E+03  0.7818608E-02  0.1098610E+00
          2   -1    0    0  501    0  0.00000000000E+00  0.00000000000E+00  0.49470383152E+03  0.49470383152E+03  0.00000000000E+00 0.  1.
         -2   -1    0    0    0  501 -0.00000000000E+00 -0.00000000000E+00 -0.38138693639E+02  0.38138693639E+02  0.00000000000E+00 0.  1.
         35    2    1    2    0    0 -0.14210854715E-13  0.00000000000E+00  0.45656513788E+03  0.53284252516E+03  0.27471700255E+03 0.  0.
         25    2    3    3    0    0  0.53752937493E+02  0.40654125252E+01  0.26641184574E+03  0.29904346410E+03  0.12468286170E+03 0.  0.
         25    2    3    3    0    0 -0.53752937493E+02 -0.40654125252E+01  0.19015329215E+03  0.23379906106E+03  0.12489123497E+03 0.  0.
          5    1    4    4  502    0 -0.29949093287E+02  0.28080504881E+02  0.45091202973E+02  0.61161830651E+02  0.47000000000E+01 0.  1.
         -5    1    4    4    0  502  0.83702030780E+02 -0.24015092355E+02  0.22132064276E+03  0.23788163345E+03  0.47000000000E+01 0.  1.
          5    1    5    5  503    0 -0.43395626122E+02 -0.53415296596E+02  0.16149135607E+03  0.17560729587E+03  0.47000000000E+01 0.  1.
         -5    1    5    5    0  503 -0.10357311370E+02  0.49349884071E+02  0.28661936073E+02  0.58191765191E+02  0.47000000000E+01 0.  1.
<mgrwt>
<rscale>  0 0.27471700E+03</rscale>
<asrwt>0</asrwt>
<pdfrwt beam="1">  1        2 0.76108277E-01 0.27471700E+03</pdfrwt>
<pdfrwt beam="2">  1       -2 0.58674917E-02 0.27471700E+03</pdfrwt>
<totfact> 0.95953597E+03</totfact>
</mgrwt>
</event>
<event>
 9    1  0.8285222E-001  0.2741717E+03  0.7818608E-02  0.1098915E+00
          1   -1    0    0  501    0  0.00000000000E+00  0.00000000000E+00  0.27763639076E+04  0.27763639076E+04  0.00000000000E+00 0. -1.
         -1   -1    0    0    0  501 -0.00000000000E+00 -0.00000000000E+00 -0.67687565477E+01  0.67687565477E+01  0.00000000000E+00 0. -1.
         35    2    1    2    0    0  0.71054273576E-14  0.00000000000E+00  0.27695951511E+04  0.27831326642E+04  0.27417170809E+03 0.  0.
         25    2    3    3    0    0 -0.16458473519E+02 -0.48696083006E+02  0.13327632887E+04  0.13395178633E+04  0.12412869340E+03 0.  0.
         25    2    3    3    0    0  0.16458473519E+02  0.48696083006E+02  0.14368318623E+04  0.14436148008E+04  0.12998347097E+03 0.  0.
          5    1    4    4  502    0  0.47034806403E+02 -0.30131703869E+02  0.89563371265E+03  0.89738622110E+03  0.47000000000E+01 0.  1.
         -5    1    4    4    0  502 -0.63493279922E+02 -0.18564379137E+02  0.43712957609E+03  0.44213164223E+03  0.47000000000E+01 0.  1.
          5    1    5    5  503    0 -0.35722465784E+02  0.46746801180E+02  0.11805890997E+04  0.11820634798E+04  0.47000000000E+01 0.  1.
         -5    1    5    5    0  503  0.52180939303E+02  0.19492818266E+01  0.25624276269E+03  0.26155132108E+03  0.47000000000E+01 0.  1.
<mgrwt>
<rscale>  0 0.27417171E+03</rscale>
<asrwt>0</asrwt>
<pdfrwt beam="1">  1        1 0.42713200E+00 0.27417171E+03</pdfrwt>
<pdfrwt beam="2">  1       -1 0.10413494E-02 0.27417171E+03</pdfrwt>
<totfact> 0.18325724E+03</totfact>
</mgrwt>
</event>
<event>
 9    1  0.8285222E-001  0.2717670E+03  0.7818608E-02  0.1100273E+00
         -2   -1    0    0    0  501 -0.00000000000E+00  0.00000000000E+00  0.20334575260E+02  0.20334575260E+02  0.00000000000E+00 0. -1.
          2   -1    0    0  501    0  0.00000000000E+00 -0.00000000000E+00 -0.90802640671E+03  0.90802640671E+03  0.00000000000E+00 0. -1.
         35    2    1    2    0    0  0.35527136788E-14  0.00000000000E+00 -0.88769183145E+03  0.92836098198E+03  0.27176704219E+03 0.  0.
         25    2    3    3    0    0  0.65303995491E+01 -0.44001472570E+02 -0.52682222103E+03  0.54394689664E+03  0.12789760780E+03 0.  0.
         25    2    3    3    0    0 -0.65303995491E+01  0.44001472570E+02 -0.36086961042E+03  0.38441408534E+03  0.12477394589E+03 0.  0.
          5    1    4    4  502    0  0.59253445933E+02 -0.49071702040E+02 -0.38133237873E+03  0.38904431092E+03  0.47000000000E+01 0. -1.
         -5    1    4    4    0  502 -0.52723046384E+02  0.50702294703E+01 -0.14548984231E+03  0.15490258571E+03  0.47000000000E+01 0. -1.
          5    1    5    5  503    0 -0.26713025323E+02 -0.25739606916E+02 -0.24328062170E+03  0.24613749000E+03  0.47000000000E+01 0. -1.
         -5    1    5    5    0  503  0.20182625774E+02  0.69741079485E+02 -0.11758898872E+03  0.13827659534E+03  0.47000000000E+01 0. -1.
<mgrwt>
<rscale>  0 0.27176704E+03</rscale>
<asrwt>0</asrwt>
<pdfrwt beam="1">  1        2 0.13969633E+00 0.27176704E+03</pdfrwt>
<pdfrwt beam="2">  1       -2 0.31283972E-02 0.27176704E+03</pdfrwt>
<totfact> 0.11899982E+04</totfact>
</mgrwt>
</event>
<event>
 9    1  0.8285222E-001  0.2740854E+03  0.7818608E-02  0.1098964E+00
          2   -1    0    0  501    0  0.00000000000E+00  0.00000000000E+00  0.63867325417E+03  0.63867325417E+03  0.00000000000E+00 0.  1.
         -2   -1    0    0    0  501 -0.00000000000E+00 -0.00000000000E+00 -0.29405802410E+02  0.29405802410E+02  0.00000000000E+00 0.  1.
         35    2    1    2    0    0  0.00000000000E+00 -0.17763568394E-14  0.60926745176E+03  0.66807905658E+03  0.27408538463E+03 0.  0.
         25    2    3    3    0    0 -0.44936574306E+02  0.14940637783E+02  0.23381998292E+03  0.26976693066E+03  0.12593607147E+03 0.  0.
         25    2    3    3    0    0  0.44936574306E+02 -0.14940637783E+02  0.37544746884E+03  0.39831212592E+03  0.12429492922E+03 0.  0.
          5    1    4    4  502    0 -0.44090804798E+02  0.68052023833E+01  0.24839068138E+03  0.25240905381E+03  0.47000000000E+01 0. -1.
         -5    1    4    4    0  502 -0.84576950779E+00  0.81354353995E+01 -0.14570698460E+02  0.17357876852E+02  0.47000000000E+01 0. -1.
          5    1    5    5  503    0 -0.16014577770E+02 -0.54510675456E+02  0.12295479698E+03  0.13552805075E+03  0.47000000000E+01 0. -1.
         -5    1    5    5    0  503  0.60951152075E+02  0.39570037673E+02  0.25249267185E+03  0.26278407517E+03  0.47000000000E+01 0. -1.
<mgrwt>
<rscale>  0 0.27408538E+03</rscale>
<asrwt>0</asrwt>
<pdfrwt beam="1">  1        2 0.98257414E-01 0.27408538E+03</pdfrwt>
<pdfrwt beam="2">  1       -2 0.45239701E-02 0.27408538E+03</pdfrwt>
<totfact> 0.10637075E+04</totfact>
</mgrwt>
</event>
<event>
 9    1  0.8285222E-001  0.2759456E+03  0.7818608E-02  0.1097924E+00
          1   -1    0    0  501    0  0.00000000000E+00  0.00000000000E+00  0.11500257554E+04  0.11500257554E+04  0.00000000000E+00 0.  1.
         -1   -1    0    0    0  501 -0.00000000000E+00 -0.00000000000E+00 -0.16553106498E+02  0.16553106498E+02  0.00000000000E+00 0.  1.
         35    2    1    2    0    0  0.00000000000E+00  0.00000000000E+00  0.11334726489E+04  0.11665788619E+04  0.27594563816E+03 0.  0.
         25    2    3    3    0    0  0.50547691972E+02 -0.30147492345E+02  0.64277273386E+03  0.65737838834E+03  0.12460183627E+03 0.  0.
         25    2    3    3    0    0 -0.50547691972E+02  0.30147492345E+02  0.49069991507E+03  0.50920047359E+03  0.12261637409E+03 0.  0.
          5    1    4    4  502    0 -0.45717137958E+00 -0.37185670629E+02  0.50697668346E+02  0.63050191764E+02  0.47000000000E+01 0. -1.
         -5    1    4    4    0  502  0.51004863352E+02  0.70381782841E+01  0.59207506551E+03  0.59432819657E+03  0.47000000000E+01 0. -1.
          5    1    5    5  503    0 -0.88631889680E+02  0.30075094752E+02  0.39775676561E+03  0.40864735137E+03  0.47000000000E+01 0. -1.
         -5    1    5    5    0  503  0.38084197708E+02  0.72397592262E-01  0.92943149461E+02  0.10055312222E+03  0.47000000000E+01 0. -1.
<mgrwt>
<rscale>  0 0.27594564E+03</rscale>
<asrwt>0</asrwt>
<pdfrwt beam="1">  1        1 0.17692698E+00 0.27594564E+03</pdfrwt>
<pdfrwt beam="2">  1       -1 0.25466327E-02 0.27594564E+03</pdfrwt>
<totfact> 0.59682686E+03</totfact>
</mgrwt>
</event>
<event>
 9    1  0.8285222E-001  0.2827755E+03  0.7818608E-02  0.1094183E+00
          2   -1    0    0  501    0  0.00000000000E+00  0.00000000000E+00  0.18859578394E+02  0.18859578394E+02  0.00000000000E+00 0. -1.
         -2   -1    0    0    0  501 -0.00000000000E+00 -0.00000000000E+00 -0.10599652772E+04  0.10599652772E+04  0.00000000000E+00 0. -1.
         35    2    1    2    0    0 -0.35527136788E-14  0.00000000000E+00 -0.10411056988E+04  0.10788248556E+04  0.28277551690E+03 0.  0.
         25    2    3    3    0    0 -0.29639477690E+02  0.58074945916E+02 -0.50818147109E+03  0.52766319388E+03  0.12620951090E+03 0.  0.
         25    2    3    3    0    0  0.29639477690E+02 -0.58074945916E+02 -0.53292422771E+03  0.55116166170E+03  0.12457827608E+03 0.  0.
          5    1    4    4  502    0 -0.49542756120E+02 -0.16602033783E+02 -0.31843603559E+03  0.32272854069E+03  0.47000000000E+01 0. -1.
         -5    1    4    4    0  502  0.19903278430E+02  0.74676979699E+02 -0.18974543549E+03  0.20493465319E+03  0.47000000000E+01 0. -1.
          5    1    5    5  503    0 -0.22031224943E+01 -0.37470052553E+02 -0.34263564942E+02  0.51038617434E+02  0.47000000000E+01 0. -1.
         -5    1    5    5    0  503  0.31842600184E+02 -0.20604893363E+02 -0.49866066277E+03  0.50012304427E+03  0.47000000000E+01 0. -1.
<mgrwt>
<rscale>  0 0.28277552E+03</rscale>
<asrwt>0</asrwt>
<pdfrwt beam="1">  1        2 0.29014738E-02 0.28277552E+03</pdfrwt>
<pdfrwt beam="2">  1       -2 0.16307157E+00 0.28277552E+03</pdfrwt>
<totfact> 0.83564477E+02</totfact>
</mgrwt>
</event>
<event>
 9    1  0.8285222E-001  0.2791373E+03  0.7818608E-02  0.1096161E+00
          2   -1    0    0  501    0  0.00000000000E+00  0.00000000000E+00  0.23152707168E+04  0.23152707168E+04  0.00000000000E+00 0. -1.
         -2   -1    0    0    0  501 -0.00000000000E+00 -0.00000000000E+00 -0.84134473197E+01  0.84134473197E+01  0.00000000000E+00 0. -1.
         35    2    1    2    0    0  0.00000000000E+00  0.71054273576E-14  0.23068572695E+04  0.23236841641E+04  0.27913730103E+03 0.  0.
         25    2    3    3    0    0  0.16763875856E+02  0.56981129708E+02  0.94998398421E+03  0.95967351044E+03  0.12237565001E+03 0.  0.
         25    2    3    3    0    0 -0.16763875856E+02 -0.56981129708E+02  0.13568732853E+04  0.13640106537E+04  0.12606377110E+03 0.  0.
          5    1    4    4  502    0  0.28748921639E+02  0.84441922511E+02  0.45054519616E+03  0.45931470971E+03  0.47000000000E+01 0.  1.
         -5    1    4    4    0  502 -0.11985045784E+02 -0.27460792803E+02  0.49943878805E+03  0.50035880073E+03  0.47000000000E+01 0.  1.
          5    1    5    5  503    0 -0.47337418571E+02  0.19501210953E+02  0.34901639512E+03  0.35278274120E+03  0.47000000000E+01 0. -1.
         -5    1    5    5    0  503  0.30573542716E+02 -0.76482340660E+02  0.10078568902E+04  0.10112279125E+04  0.47000000000E+01 0. -1.
<mgrwt>
<rscale>  0 0.27913730E+03</rscale>
<asrwt>0</asrwt>
<pdfrwt beam="1">  1        2 0.35619499E+00 0.27913730E+03</pdfrwt>
<pdfrwt beam="2">  1       -2 0.12943783E-02 0.27913730E+03</pdfrwt>
<totfact> 0.73956412E+03</totfact>
</mgrwt>
</event>
<event>
 9    1  0.8285222E-001  0.2576067E+03  0.7818608E-02  0.1108590E+00
          1   -1    0    0  501    0  0.00000000000E+00  0.00000000000E+00  0.16723799875E+04  0.16723799875E+04  0.00000000000E+00 0. -1.
         -1   -1    0    0    0  501 -0.00000000000E+00 -0.00000000000E+00 -0.99201733818E+01  0.99201733818E+01  0.00000000000E+00 0. -1.
         35    2    1    2    0    0 -0.17763568394E-14 -0.35527136788E-14  0.16624598141E+04  0.16823001609E+04  0.25760667256E+03 0.  0.
         25    2    3    3    0    0 -0.12254825394E+02  0.26383600941E+02  0.83030941249E+03  0.84005977485E+03  0.12425952564E+03 0.  0.
         25    2    3    3    0    0  0.12254825394E+02 -0.26383600941E+02  0.83215040166E+03  0.84224038606E+03  0.12668189209E+03 0.  0.
          5    1    4    4  502    0 -0.15047159809E+02  0.64052038187E+02  0.72656515359E+03  0.72955335174E+03  0.47000000000E+01 0. -1.
         -5    1    4    4    0  502  0.27923344148E+01 -0.37668437246E+02  0.10374425889E+03  0.11050642311E+03  0.47000000000E+01 0. -1.
          5    1    5    5  503    0  0.60164561627E+02  0.11305984555E+02  0.27640130922E+03  0.28313843523E+03  0.47000000000E+01 0. -1.
         -5    1    5    5    0  503 -0.47909736233E+02 -0.37689585496E+02  0.55574909243E+03  0.55910195083E+03  0.47000000000E+01 0. -1.
<mgrwt>
<rscale>  0 0.25760667E+03</rscale>
<asrwt>0</asrwt>
<pdfrwt beam="1">  1        1 0.25728901E+00 0.25760667E+03</pdfrwt>
<pdfrwt beam="2">  1       -1 0.15261818E-02 0.25760667E+03</pdfrwt>
<totfact> 0.56042633E+03</totfact>
</mgrwt>
</event>
<event>
 9    1  0.8285222E-001  0.2734639E+03  0.7818608E-02  0.1099313E+00
         -2   -1    0    0    0  501 -0.00000000000E+00  0.00000000000E+00  0.14980374455E+02  0.14980374455E+02  0.00000000000E+00 0. -1.
          2   -1    0    0  501    0  0.00000000000E+00 -0.00000000000E+00 -0.12480081345E+04  0.12480081345E+04  0.00000000000E+00 0. -1.
         35    2    1    2    0    0  0.35527136788E-14 -0.71054273576E-14 -0.12330277600E+04  0.12629885089E+04  0.27346392214E+03 0.  0.
         25    2    3    3    0    0  0.30706992795E+02  0.29346722269E+02 -0.51195537678E+03  0.53024182138E+03  0.13135422267E+03 0.  0.
         25    2    3    3    0    0 -0.30706992795E+02 -0.29346722269E+02 -0.72107238325E+03  0.73274668756E+03  0.12315915203E+03 0.  0.
          5    1    4    4  502    0  0.23503523286E+02 -0.51302564972E+02 -0.19296824610E+03  0.20110495465E+03  0.47000000000E+01 0. -1.
         -5    1    4    4    0  502  0.72034695083E+01  0.80649287242E+02 -0.31898713068E+03  0.32913686674E+03  0.47000000000E+01 0. -1.
          5    1    5    5  503    0 -0.15194860132E+02  0.17100010207E+02 -0.61897905288E+03  0.61941944757E+03  0.47000000000E+01 0. -1.
         -5    1    5    5    0  503 -0.15512132663E+02 -0.46446732477E+02 -0.10209333036E+03  0.11332723998E+03  0.47000000000E+01 0. -1.
<mgrwt>
<rscale>  0 0.27346392E+03</rscale>
<asrwt>0</asrwt>
<pdfrwt beam="1">  1        2 0.19200126E+00 0.27346392E+03</pdfrwt>
<pdfrwt beam="2">  1       -2 0.23046728E-02 0.27346392E+03</pdfrwt>
<totfact> 0.11750009E+04</totfact>
</mgrwt>
</event>
<event>
 9    1  0.8285222E-001  0.2763208E+03  0.7818608E-02  0.1097716E+00
         -2   -1    0    0    0  501 -0.00000000000E+00  0.00000000000E+00  0.19499407673E+02  0.19499407673E+02  0.00000000000E+00 0. -1.
          2   -1    0    0  501    0  0.00000000000E+00 -0.00000000000E+00 -0.97891667763E+03  0.97891667763E+03  0.00000000000E+00 0. -1.
         35    2    1    2    0    0 -0.71054273576E-14  0.71054273576E-14 -0.95941726996E+03  0.99841608530E+03  0.27632079455E+03 0.  0.
         25    2    3    3    0    0  0.43388181680E+02  0.46262257400E+02 -0.43315792224E+03  0.45391410648E+03  0.11995624075E+03 0.  0.
         25    2    3    3    0    0 -0.43388181680E+02 -0.46262257400E+02 -0.52625934772E+03  0.54450197882E+03  0.12454225431E+03 0.  0.
          5    1    4    4  502    0  0.13325523682E+02  0.12692077814E+02 -0.61357653917E+00  0.19003286474E+02  0.47000000000E+01 0. -1.
         -5    1    4    4    0  502  0.30062657998E+02  0.33570179585E+02 -0.43254434570E+03  0.43491082000E+03  0.47000000000E+01 0. -1.
          5    1    5    5  503    0 -0.27487536296E+02  0.41219442160E+02 -0.22021722150E+03  0.22577050672E+03  0.47000000000E+01 0. -1.
         -5    1    5    5    0  503 -0.15900645384E+02 -0.87481699560E+02 -0.30604212623E+03  0.31873147210E+03  0.47000000000E+01 0. -1.
<mgrwt>
<rscale>  0 0.27632079E+03</rscale>
<asrwt>0</asrwt>
<pdfrwt beam="1">  1        2 0.15060259E+00 0.27632079E+03</pdfrwt>
<pdfrwt beam="2">  1       -2 0.29999084E-02 0.27632079E+03</pdfrwt>
<totfact> 0.11434550E+04</totfact>
</mgrwt>
</event>
<event>
 9    1  0.8285222E-001  0.2768441E+03  0.7818608E-02  0.1097425E+00
          2   -1    0    0  501    0  0.00000000000E+00  0.00000000000E+00  0.95018629344E+03  0.95018629344E+03  0.00000000000E+00 0.  1.
         -2   -1    0    0    0  501 -0.00000000000E+00 -0.00000000000E+00 -0.20165160919E+02  0.20165160919E+02  0.00000000000E+00 0.  1.
         35    2    1    2    0    0  0.00000000000E+00  0.35527136788E-14  0.93002113253E+03  0.97035145436E+03  0.27684406810E+03 0.  0.
         25    2    3    3    0    0 -0.25142809536E+02 -0.17803296839E+02  0.27041603798E+03  0.29862586573E+03  0.12289611807E+03 0.  0.
         25    2    3    3    0    0  0.25142809536E+02  0.17803296839E+02  0.65960509455E+03  0.67172558864E+03  0.12323663184E+03 0.  0.
          5    1    4    4  502    0 -0.18954044612E+02 -0.32598920323E+01  0.27922837206E+03  0.27992937764E+03  0.47000000000E+01 0. -1.
         -5    1    4    4    0  502 -0.61887649249E+01 -0.14543404807E+02 -0.88123340845E+01  0.18696488084E+02  0.47000000000E+01 0. -1.
          5    1    5    5  503    0  0.52499645077E+02  0.56216194129E+02  0.47068880143E+03  0.47695546019E+03  0.47000000000E+01 0. -1.
         -5    1    5    5    0  503 -0.27356835540E+02 -0.38412897290E+02  0.18891629312E+03  0.19477012845E+03  0.47000000000E+01 0. -1.
<mgrwt>
<rscale>  0 0.27684407E+03</rscale>
<asrwt>0</asrwt>
<pdfrwt beam="1">  1        2 0.14618247E+00 0.27684407E+03</pdfrwt>
<pdfrwt beam="2">  1       -2 0.31023332E-02 0.27684407E+03</pdfrwt>
<totfact> 0.11335563E+04</totfact>
</mgrwt>
</event>
<event>
 9    1  0.8285222E-001  0.2681424E+03  0.7818608E-02  0.1102347E+00
          1   -1    0    0  501    0  0.00000000000E+00  0.00000000000E+00  0.17962923352E+04  0.17962923352E+04  0.00000000000E+00 0. -1.
         -1   -1    0    0    0  501 -0.00000000000E+00 -0.00000000000E+00 -0.10006773024E+02  0.10006773024E+02  0.00000000000E+00 0. -1.
         35    2    1    2    0    0  0.00000000000E+00 -0.17763568394E-14  0.17862855622E+04  0.18062991083E+04  0.26814242248E+03 0.  0.
         25    2    3    3    0    0 -0.63096914150E+00  0.63470623837E+01  0.12362420855E+04  0.12425375954E+04  0.12475776016E+03 0.  0.
         25    2    3    3    0    0  0.63096914150E+00 -0.63470623837E+01  0.55004347671E+03  0.56376151285E+03  0.12344445624E+03 0.  0.
          5    1    4    4  502    0 -0.54287651865E+02 -0.15290725842E+02  0.36475577635E+03  0.36912033516E+03  0.47000000000E+01 0.  1.
         -5    1    4    4    0  502  0.53656682724E+02  0.21637788225E+02  0.87148630915E+03  0.87341726026E+03  0.47000000000E+01 0.  1.
          5    1    5    5  503    0 -0.43904471317E+02 -0.30557354715E+02  0.13013609556E+03  0.14077942995E+03  0.47000000000E+01 0. -1.
         -5    1    5    5    0  503  0.44535440459E+02  0.24210292331E+02  0.41990738115E+03  0.42298208290E+03  0.47000000000E+01 0. -1.
<mgrwt>
<rscale>  0 0.26814242E+03</rscale>
<asrwt>0</asrwt>
<pdfrwt beam="1">  1        1 0.27635241E+00 0.26814242E+03</pdfrwt>
<pdfrwt beam="2">  1       -1 0.15395050E-02 0.26814242E+03</pdfrwt>
<totfact> 0.45974604E+03</totfact>
</mgrwt>
</event>
<event>
 9    1  0.8285222E-001  0.2909423E+03  0.7818608E-02  0.1089858E+00
         -2   -1    0    0    0  501 -0.00000000000E+00  0.00000000000E+00  0.21343623368E+02  0.21343623368E+02  0.00000000000E+00 0.  1.
          2   -1    0    0  501    0  0.00000000000E+00 -0.00000000000E+00 -0.99148395169E+03  0.99148395169E+03  0.00000000000E+00 0.  1.
         35    2    1    2    0    0  0.00000000000E+00  0.35527136788E-14 -0.97014032832E+03  0.10128275751E+04  0.29094233133E+03 0.  0.
         25    2    3    3    0    0 -0.26658580437E+02 -0.12216505197E+02 -0.71480736909E+03  0.72620116169E+03  0.12473423520E+03 0.  0.
         25    2    3    3    0    0  0.26658580437E+02  0.12216505197E+02 -0.25533295923E+03  0.28662641336E+03  0.12688521528E+03 0.  0.
          5    1    4    4  502    0 -0.32311870905E+02  0.12908668250E+02 -0.51227170436E+02  0.62104780076E+02  0.47000000000E+01 0.  1.
         -5    1    4    4    0  502  0.56532904682E+01 -0.25125173447E+02 -0.66358019865E+03  0.66409638162E+03  0.47000000000E+01 0.  1.
          5    1    5    5  503    0  0.65491517777E+02  0.43891433809E+02 -0.13898133881E+03  0.15985461958E+03  0.47000000000E+01 0.  1.
         -5    1    5    5    0  503 -0.38832937340E+02 -0.31674928612E+02 -0.11635162042E+03  0.12677179379E+03  0.47000000000E+01 0.  1.
<mgrwt>
<rscale>  0 0.29094233E+03</rscale>
<asrwt>0</asrwt>
<pdfrwt beam="1">  1        2 0.15253597E+00 0.29094233E+03</pdfrwt>
<pdfrwt beam="2">  1       -2 0.32836348E-02 0.29094233E+03</pdfrwt>
<totfact> 0.98298697E+03</totfact>
</mgrwt>
</event>
<event>
 9    1  0.8285222E-001  0.2752633E+03  0.7818608E-02  0.1098305E+00
         -1   -1    0    0    0  501 -0.00000000000E+00  0.00000000000E+00  0.18310634977E+03  0.18310634977E+03  0.00000000000E+00 0.  1.
          1   -1    0    0  501    0  0.00000000000E+00 -0.00000000000E+00 -0.10345062686E+03  0.10345062686E+03  0.00000000000E+00 0.  1.
         35    2    1    2    0    0  0.35527136788E-14  0.35527136788E-14  0.79655722910E+02  0.28655697663E+03  0.27526326792E+03 0.  0.
         25    2    3    3    0    0 -0.22917505210E+02 -0.30953534716E+02  0.85627935801E+02  0.15674460499E+03  0.12551252706E+03 0.  0.
         25    2    3    3    0    0  0.22917505210E+02  0.30953534716E+02 -0.59722128903E+01  0.12981237164E+03  0.12382346768E+03 0.  0.
          5    1    4    4  502    0 -0.59503801474E+02  0.23820774317E+02  0.32659620811E+02  0.72089337009E+02  0.47000000000E+01 0. -1.
         -5    1    4    4    0  502  0.36586296263E+02 -0.54774309033E+02  0.52968314989E+02  0.84655267982E+02  0.47000000000E+01 0. -1.
          5    1    5    5  503    0  0.51792907129E+02  0.63146168316E+02 -0.19801083436E+02  0.84167194958E+02  0.47000000000E+01 0.  1.
         -5    1    5    5    0  503 -0.28875401918E+02 -0.32192633600E+02  0.13828870545E+02  0.45645176685E+02  0.47000000000E+01 0.  1.
<mgrwt>
<rscale>  0 0.27526327E+03</rscale>
<asrwt>0</asrwt>
<pdfrwt beam="1">  1        1 0.15915481E-01 0.27526327E+03</pdfrwt>
<pdfrwt beam="2">  1       -1 0.28170208E-01 0.27526327E+03</pdfrwt>
<totfact> 0.38986744E+03</totfact>
</mgrwt>
</event>
<event>
 9    1  0.8285222E-001  0.2763506E+03  0.7818608E-02  0.1097699E+00
         -4   -1    0    0    0  501 -0.00000000000E+00  0.00000000000E+00  0.19698575043E+03  0.19698575043E+03  0.00000000000E+00 0.  1.
          4   -1    0    0  501    0  0.00000000000E+00 -0.00000000000E+00 -0.96922808003E+02  0.96922808003E+02  0.00000000000E+00 0.  1.
         35    2    1    2    0    0  0.00000000000E+00 -0.35527136788E-14  0.10006294243E+03  0.29390855843E+03  0.27635058942E+03 0.  0.
         25    2    3    3    0    0  0.10490590704E+02 -0.18302549446E+02  0.10741584600E+03  0.16675709951E+03  0.12579638490E+03 0.  0.
         25    2    3    3    0    0 -0.10490590704E+02  0.18302549446E+02 -0.73529035768E+01  0.12715145893E+03  0.12517344969E+03 0.  0.
          5    1    4    4  502    0 -0.99497484968E+01 -0.60713453524E+01  0.13176988934E+03  0.13236786795E+03  0.47000000000E+01 0. -1.
         -5    1    4    4    0  502  0.20440339201E+02 -0.12231204094E+02 -0.24354043335E+02  0.34389231556E+02  0.47000000000E+01 0. -1.
          5    1    5    5  503    0 -0.17306980976E+02 -0.23767320730E+02 -0.55314259737E+02  0.62818583679E+02  0.47000000000E+01 0.  1.
         -5    1    5    5    0  503  0.68163902713E+01  0.42069870176E+02  0.47961356160E+02  0.64332875248E+02  0.47000000000E+01 0.  1.
<mgrwt>
<rscale>  0 0.27635059E+03</rscale>
<asrwt>0</asrwt>
<pdfrwt beam="1">  1        4 0.14911201E-01 0.27635059E+03</pdfrwt>
<pdfrwt beam="2">  1       -4 0.30305500E-01 0.27635059E+03</pdfrwt>
<totfact> 0.74540351E+02</totfact>
</mgrwt>
</event>
<event>
 9    1  0.8285222E-001  0.2742818E+03  0.7818608E-02  0.1098854E+00
         -2   -1    0    0    0  501 -0.00000000000E+00  0.00000000000E+00  0.24710825491E+02  0.24710825491E+02  0.00000000000E+00 0.  1.
          2   -1    0    0  501    0  0.00000000000E+00 -0.00000000000E+00 -0.76110859752E+03  0.76110859752E+03  0.00000000000E+00 0.  1.
         35    2    1    2    0    0  0.00000000000E+00  0.00000000000E+00 -0.73639777203E+03  0.78581942301E+03  0.27428176558E+03 0.  0.
         25    2    3    3    0    0  0.39000068588E+02 -0.36165356981E+02 -0.32326008968E+03  0.35082049555E+03  0.12549500438E+03 0.  0.
         25    2    3    3    0    0 -0.39000068588E+02  0.36165356981E+02 -0.41313768234E+03  0.43499892745E+03  0.12534904834E+03 0.  0.
          5    1    4    4  502    0  0.32532421040E+02  0.16350804678E+02 -0.17844119914E+02  0.40819233798E+02  0.47000000000E+01 0. -1.
         -5    1    4    4    0  502  0.64676475476E+01 -0.52516161659E+02 -0.30541596977E+03  0.31000126176E+03  0.47000000000E+01 0. -1.
          5    1    5    5  503    0  0.66767243598E+01 -0.20229576381E+02 -0.77673388928E+01  0.23156769253E+02  0.47000000000E+01 0. -1.
         -5    1    5    5    0  503 -0.45676792947E+02  0.56394933363E+02 -0.40537034345E+03  0.41184215820E+03  0.47000000000E+01 0. -1.
<mgrwt>
<rscale>  0 0.27428177E+03</rscale>
<asrwt>0</asrwt>
<pdfrwt beam="1">  1        2 0.11709361E+00 0.27428177E+03</pdfrwt>
<pdfrwt beam="2">  1       -2 0.38016663E-02 0.27428177E+03</pdfrwt>
<totfact> 0.11175579E+04</totfact>
</mgrwt>
</event>
<event>
 9    1  0.8285222E-001  0.2771986E+03  0.7818608E-02  0.1097229E+00
          1   -1    0    0  501    0  0.00000000000E+00  0.00000000000E+00  0.12626996243E+04  0.12626996243E+04  0.00000000000E+00 0.  1.
         -1   -1    0    0    0  501 -0.00000000000E+00 -0.00000000000E+00 -0.15213247036E+02  0.15213247036E+02  0.00000000000E+00 0.  1.
         35    2    1    2    0    0  0.35527136788E-14  0.00000000000E+00  0.12474863773E+04  0.12779128714E+04  0.27719856650E+03 0.  0.
         25    2    3    3    0    0  0.23059860699E+02  0.54289023305E+02  0.68025372268E+03  0.69409835266E+03  0.12469298589E+03 0.  0.
         25    2    3    3    0    0 -0.23059860699E+02 -0.54289023305E+02  0.56723265461E+03  0.58381451869E+03  0.12492979051E+03 0.  0.
          5    1    4    4  502    0 -0.43521810640E+02  0.49377124428E+02  0.24507931250E+03  0.25380742273E+03  0.47000000000E+01 0.  1.
         -5    1    4    4    0  502  0.66581671339E+02  0.49118988778E+01  0.43517441017E+03  0.44029092993E+03  0.47000000000E+01 0.  1.
          5    1    5    5  503    0 -0.46667707152E+02 -0.85868965520E+02  0.37774835337E+03  0.39021438031E+03  0.47000000000E+01 0.  1.
         -5    1    5    5    0  503  0.23607846453E+02  0.31579942215E+02  0.18948430124E+03  0.19360013838E+03  0.47000000000E+01 0.  1.
<mgrwt>
<rscale>  0 0.27719857E+03</rscale>
<asrwt>0</asrwt>
<pdfrwt beam="1">  1        1 0.19426140E+00 0.27719857E+03</pdfrwt>
<pdfrwt beam="2">  1       -1 0.23405005E-02 0.27719857E+03</pdfrwt>
<totfact> 0.56358060E+03</totfact>
</mgrwt>
</event>
<event>
 9    1  0.8285222E-001  0.2716123E+03  0.7818608E-02  0.1100360E+00
         -1   -1    0    0    0  501 -0.00000000000E+00  0.00000000000E+00  0.48300849713E+02  0.48300849713E+02  0.00000000000E+00 0. -1.
          1   -1    0    0  501    0  0.00000000000E+00 -0.00000000000E+00 -0.38184245041E+03  0.38184245041E+03  0.00000000000E+00 0. -1.
         35    2    1    2    0    0 -0.71054273576E-14  0.35527136788E-14 -0.33354160069E+03  0.43014330012E+03  0.27161233264E+03 0.  0.
         25    2    3    3    0    0 -0.21658354727E+02  0.10895697145E+02 -0.24248842509E+03  0.27374074379E+03  0.12468182691E+03 0.  0.
         25    2    3    3    0    0  0.21658354727E+02 -0.10895697145E+02 -0.91053175603E+02  0.15640255633E+03  0.12483300162E+03 0.  0.
          5    1    4    4  502    0 -0.67003121954E+02 -0.11908700136E+02 -0.18355852432E+03  0.19582404690E+03  0.47000000000E+01 0.  1.
         -5    1    4    4    0  502  0.45344767227E+02  0.22804397281E+02 -0.58929900767E+02  0.77916696893E+02  0.47000000000E+01 0.  1.
          5    1    5    5  503    0 -0.30759401143E+02 -0.12940873376E+02 -0.97670249930E+02  0.10332073695E+03  0.47000000000E+01 0. -1.
         -5    1    5    5    0  503  0.52417755870E+02  0.20451762307E+01  0.66170743274E+01  0.53081819382E+02  0.47000000000E+01 0. -1.
<mgrwt>
<rscale>  0 0.27161233E+03</rscale>
<asrwt>0</asrwt>
<pdfrwt beam="1">  1        1 0.58744992E-01 0.27161233E+03</pdfrwt>
<pdfrwt beam="2">  1       -1 0.74309000E-02 0.27161233E+03</pdfrwt>
<totfact> 0.61635414E+03</totfact>
</mgrwt>
</event>
<event>
 9    1  0.8285222E-001  0.2751887E+03  0.7818608E-02  0.1098346E+00
         -3   -1    0    0    0  501 -0.00000000000E+00  0.00000000000E+00  0.53505033538E+03  0.53505033538E+03  0.00000000000E+00 0. -1.
          3   -1    0    0  501    0  0.00000000000E+00 -0.00000000000E+00 -0.35383965614E+02  0.35383965614E+02  0.00000000000E+00 0. -1.
         35    2    1    2    0    0  0.71054273576E-14 -0.71054273576E-14  0.49966636977E+03  0.57043430100E+03  0.27518868195E+03 0.  0.
         25    2    3    3    0    0 -0.20359111602E+02  0.26475185468E+02  0.38946000701E+03  0.41029631138E+03  0.12469377370E+03 0.  0.
         25    2    3    3    0    0  0.20359111602E+02 -0.26475185468E+02  0.11020636276E+03  0.16013798962E+03  0.11128029680E+03 0.  0.
          5    1    4    4  502    0  0.44438611814E+02  0.13490636994E+01  0.25474140530E+03  0.25863465307E+03  0.47000000000E+01 0.  1.
         -5    1    4    4    0  502 -0.64797723417E+02  0.25126121768E+02  0.13471860171E+03  0.15166165831E+03  0.47000000000E+01 0.  1.
          5    1    5    5  503    0 -0.27199624712E+01  0.34423697388E+02  0.81833830925E+02  0.88945236082E+02  0.47000000000E+01 0.  1.
         -5    1    5    5    0  503  0.23079074073E+02 -0.60898882856E+02  0.28372531832E+02  0.71192753534E+02  0.47000000000E+01 0.  1.
<mgrwt>
<rscale>  0 0.27518868E+03</rscale>
<asrwt>0</asrwt>
<pdfrwt beam="1">  1        3 0.54436874E-02 0.27518868E+03</pdfrwt>
<pdfrwt beam="2">  1       -3 0.82315430E-01 0.27518868E+03</pdfrwt>
<totfact> 0.70778417E+02</totfact>
</mgrwt>
</event>
<event>
 8    1  0.8285222E-001  0.3393534E+03  0.7818608E-02  0.1067072E+00
         -2   -1    0    0    0  501 -0.00000000000E+00  0.00000000000E+00  0.77338051190E+02  0.77338051190E+02  0.00000000000E+00 0.  1.
          2   -1    0    0  501    0  0.00000000000E+00 -0.00000000000E+00 -0.37226405152E+03  0.37226405152E+03  0.00000000000E+00 0.  1.
         25    2    1    2    0    0  0.70490156561E+01 -0.10235764291E+03 -0.21536410461E+03  0.26924483928E+03  0.12483713487E+03 0.  0.
         25    2    1    2    0    0 -0.70490156561E+01  0.10235764291E+03 -0.79561895723E+02  0.18035726343E+03  0.12518734575E+03 0.  0.
          5    1    3    3  502    0  0.63892747907E+02 -0.67512373885E+02 -0.10588476897E+03  0.14097474300E+03  0.47000000000E+01 0.  1.
         -5    1    3    3    0  502 -0.56843732251E+02 -0.34845269027E+02 -0.10947933563E+03  0.12827009628E+03  0.47000000000E+01 0.  1.
          5    1    4    4  503    0 -0.16522885210E+02 -0.25036123269E+02 -0.11338583104E+01  0.30384022754E+02  0.47000000000E+01 0. -1.
         -5    1    4    4    0  503  0.94738695542E+01  0.12739376618E+03 -0.78428037413E+02  0.14997324068E+03  0.47000000000E+01 0. -1.
<mgrwt>
<rscale>  0 0.33935336E+03</rscale>
<asrwt>0</asrwt>
<pdfrwt beam="1">  1        2 0.57271392E-01 0.33935336E+03</pdfrwt>
<pdfrwt beam="2">  1       -2 0.11898162E-01 0.33935336E+03</pdfrwt>
<totfact> 0.43414390E+03</totfact>
</mgrwt>
</event>
<event>
 9    1  0.8285222E-001  0.2727573E+03  0.7818608E-02  0.1099712E+00
         -1   -1    0    0    0  501 -0.00000000000E+00  0.00000000000E+00  0.54486825473E+02  0.54486825473E+02  0.00000000000E+00 0.  1.
          1   -1    0    0  501    0  0.00000000000E+00 -0.00000000000E+00 -0.34135095932E+03  0.34135095932E+03  0.00000000000E+00 0.  1.
         35    2    1    2    0    0  0.00000000000E+00 -0.71054273576E-14 -0.28686413385E+03  0.39583778480E+03  0.27275725578E+03 0.  0.
         25    2    3    3    0    0 -0.87106707744E+01  0.10242659814E+02 -0.67237300683E+02  0.14267519034E+03  0.12511821398E+03 0.  0.
         25    2    3    3    0    0  0.87106707744E+01 -0.10242659814E+02 -0.21962683317E+03  0.25316259446E+03  0.12519810510E+03 0.  0.
          5    1    4    4  502    0  0.38881712304E+02  0.24551259682E+02 -0.78871726576E+02  0.91418768077E+02  0.47000000000E+01 0.  1.
         -5    1    4    4    0  502 -0.47592383078E+02 -0.14308599869E+02  0.11634425893E+02  0.51256422262E+02  0.47000000000E+01 0.  1.
          5    1    5    5  503    0  0.19370925407E+02 -0.46460927870E+02 -0.27993573682E+02  0.57789105696E+02  0.47000000000E+01 0.  1.
         -5    1    5    5    0  503 -0.10660254633E+02  0.36218268056E+02 -0.19163325949E+03  0.19537348876E+03  0.47000000000E+01 0.  1.
<mgrwt>
<rscale>  0 0.27275726E+03</rscale>
<asrwt>0</asrwt>
<pdfrwt beam="1">  1        1 0.52515532E-01 0.27275726E+03</pdfrwt>
<pdfrwt beam="2">  1       -1 0.83825885E-02 0.27275726E+03</pdfrwt>
<totfact> 0.59140105E+03</totfact>
</mgrwt>
</event>
<event>
 9    1  0.8285222E-001  0.2676768E+03  0.7818608E-02  0.1102617E+00
          2   -1    0    0  501    0  0.00000000000E+00  0.00000000000E+00  0.87446033209E+03  0.87446033209E+03  0.00000000000E+00 0. -1.
         -2   -1    0    0    0  501 -0.00000000000E+00 -0.00000000000E+00 -0.20484316088E+02  0.20484316088E+02  0.00000000000E+00 0. -1.
         35    2    1    2    0    0  0.71054273576E-14 -0.71054273576E-14  0.85397601600E+03  0.89494464818E+03  0.26767683388E+03 0.  0.
         25    2    3    3    0    0  0.38075671954E+02  0.24963416150E+02  0.48132795751E+03  0.49931302603E+03  0.12475562652E+03 0.  0.
         25    2    3    3    0    0 -0.38075671954E+02 -0.24963416150E+02  0.37264805850E+03  0.39563162215E+03  0.12483940083E+03 0.  0.
          5    1    4    4  502    0  0.59698454785E+02 -0.96244695268E+01  0.10908656843E+03  0.12481388276E+03  0.47000000000E+01 0. -1.
         -5    1    4    4    0  502 -0.21622782831E+02  0.34587885676E+02  0.37224138907E+03  0.37449914327E+03  0.47000000000E+01 0. -1.
          5    1    5    5  503    0 -0.30117152533E+02 -0.66185467473E+02  0.31968200216E+03  0.32788142900E+03  0.47000000000E+01 0. -1.
         -5    1    5    5    0  503 -0.79585194214E+01  0.41222051324E+02  0.52966056340E+02  0.67750193143E+02  0.47000000000E+01 0. -1.
<mgrwt>
<rscale>  0 0.26767683E+03</rscale>
<asrwt>0</asrwt>
<pdfrwt beam="1">  1        2 0.13453233E+00 0.26767683E+03</pdfrwt>
<pdfrwt beam="2">  1       -2 0.31514339E-02 0.26767683E+03</pdfrwt>
<totfact> 0.12369508E+04</totfact>
</mgrwt>
</event>
<event>
 9    1  0.8285222E-001  0.2825266E+03  0.7818608E-02  0.1094317E+00
          1   -1    0    0  501    0  0.00000000000E+00  0.00000000000E+00  0.17494472043E+03  0.17494472043E+03  0.00000000000E+00 0.  1.
         -1   -1    0    0    0  501 -0.00000000000E+00 -0.00000000000E+00 -0.11406640719E+03  0.11406640719E+03  0.00000000000E+00 0.  1.
         35    2    1    2    0    0 -0.17763568394E-14  0.00000000000E+00  0.60878313242E+02  0.28901112762E+03  0.28252657019E+03 0.  0.
         25    2    3    3    0    0  0.12446478011E+02 -0.42155704707E+01  0.10024075824E+03  0.16104320457E+03  0.12535556739E+03 0.  0.
         25    2    3    3    0    0 -0.12446478011E+02  0.42155704707E+01 -0.39362444996E+02  0.12796792305E+03  0.12105247376E+03 0.  0.
          5    1    4    4  502    0  0.15290470098E+02  0.25056416282E+02 -0.20871552278E+02  0.36322639871E+02  0.47000000000E+01 0. -1.
         -5    1    4    4    0  502 -0.28439920872E+01 -0.29271986752E+02  0.12111231052E+03  0.12472056470E+03  0.47000000000E+01 0. -1.
          5    1    5    5  503    0 -0.96182868935E+01 -0.25406160940E+02  0.36847570657E+02  0.46019755756E+02  0.47000000000E+01 0. -1.
         -5    1    5    5    0  503 -0.28281911175E+01  0.29621731411E+02 -0.76210015653E+02  0.81948167293E+02  0.47000000000E+01 0. -1.
<mgrwt>
<rscale>  0 0.28252657E+03</rscale>
<asrwt>0</asrwt>
<pdfrwt beam="1">  1        1 0.26914572E-01 0.28252657E+03</pdfrwt>
<pdfrwt beam="2">  1       -1 0.17548678E-01 0.28252657E+03</pdfrwt>
<totfact> 0.43211568E+03</totfact>
</mgrwt>
</event>
<event>
 9    1  0.8285222E-001  0.2741799E+03  0.7818608E-02  0.1098911E+00
         -2   -1    0    0    0  501 -0.00000000000E+00  0.00000000000E+00  0.40326249902E+03  0.40326249902E+03  0.00000000000E+00 0. -1.
          2   -1    0    0  501    0  0.00000000000E+00 -0.00000000000E+00 -0.46604019089E+02  0.46604019089E+02  0.00000000000E+00 0. -1.
         35    2    1    2    0    0  0.17763568394E-14  0.00000000000E+00  0.35665847993E+03  0.44986651811E+03  0.27417989133E+03 0.  0.
         25    2    3    3    0    0  0.16909950954E+01  0.37833696657E+02  0.11340769900E+03  0.17381667396E+03  0.12616133278E+03 0.  0.
         25    2    3    3    0    0 -0.16909950954E+01 -0.37833696657E+02  0.24325078093E+03  0.27604984415E+03  0.12489325827E+03 0.  0.
          5    1    4    4  502    0 -0.94187525951E+01 -0.34266067566E+02 -0.34134386540E+01  0.36008580232E+02  0.47000000000E+01 0.  1.
         -5    1    4    4    0  502  0.11109747690E+02  0.72099764224E+02  0.11682113765E+03  0.13780809373E+03  0.47000000000E+01 0.  1.
          5    1    5    5  503    0 -0.55746471109E+02  0.99736138605E+01  0.12712111343E+03  0.13924442357E+03  0.47000000000E+01 0.  1.
         -5    1    5    5    0  503  0.54055476014E+02 -0.47807310518E+02  0.11612966750E+03  0.13680542058E+03  0.47000000000E+01 0.  1.
<mgrwt>
<rscale>  0 0.27417989E+03</rscale>
<asrwt>0</asrwt>
<pdfrwt beam="1">  1        2 0.71698494E-02 0.27417989E+03</pdfrwt>
<pdfrwt beam="2">  1       -2 0.62040382E-01 0.27417989E+03</pdfrwt>
<totfact> 0.24076794E+03</totfact>
</mgrwt>
</event>
<event>
 9    1  0.8285222E-001  0.2773182E+03  0.7818608E-02  0.1097163E+00
          1   -1    0    0  501    0  0.00000000000E+00  0.00000000000E+00  0.27553165130E+03  0.27553165130E+03  0.00000000000E+00 0.  1.
         -1   -1    0    0    0  501 -0.00000000000E+00 -0.00000000000E+00 -0.69779066090E+02  0.69779066090E+02  0.00000000000E+00 0.  1.
         35    2    1    2    0    0  0.00000000000E+00  0.14210854715E-13  0.20575258521E+03  0.34531071739E+03  0.27731816605E+03 0.  0.
         25    2    3    3    0    0 -0.32929215239E+02 -0.50498317644E+02  0.10608820836E+03  0.17433109317E+03  0.12450786638E+03 0.  0.
         25    2    3    3    0    0  0.32929215239E+02  0.50498317644E+02  0.99664376850E+02  0.17097962422E+03  0.12516641157E+03 0.  0.
          5    1    4    4  502    0 -0.23475890293E+02 -0.92167300100E+02  0.69648464312E+02  0.11797850319E+03  0.47000000000E+01 0.  1.
         -5    1    4    4    0  502 -0.94533249460E+01  0.41668982456E+02  0.36439744047E+02  0.56352589982E+02  0.47000000000E+01 0.  1.
          5    1    5    5  503    0 -0.29237144131E+02  0.54277227461E+02  0.87829351505E+02  0.10741002283E+03  0.47000000000E+01 0.  1.
         -5    1    5    5    0  503  0.62166359370E+02 -0.37789098176E+01  0.11835025345E+02  0.63569601396E+02  0.47000000000E+01 0.  1.
<mgrwt>
<rscale>  0 0.27731817E+03</rscale>
<asrwt>0</asrwt>
<pdfrwt beam="1">  1        1 0.42389484E-01 0.27731817E+03</pdfrwt>
<pdfrwt beam="2">  1       -1 0.10735241E-01 0.27731817E+03</pdfrwt>
<totfact> 0.52930309E+03</totfact>
</mgrwt>
</event>
<event>
 9    1  0.8285222E-001  0.2780120E+03  0.7818608E-02  0.1096780E+00
         -1   -1    0    0    0  501 -0.00000000000E+00  0.00000000000E+00  0.75667522460E+02  0.75667522460E+02  0.00000000000E+00 0.  1.
          1   -1    0    0  501    0  0.00000000000E+00 -0.00000000000E+00 -0.25536282244E+03  0.25536282244E+03  0.00000000000E+00 0.  1.
         35    2    1    2    0    0  0.00000000000E+00 -0.88817841970E-15 -0.17969529998E+03  0.33103034490E+03  0.27801202925E+03 0.  0.
         25    2    3    3    0    0 -0.22580381114E+02  0.65953468654E+01 -0.20352353334E+02  0.12729302210E+03  0.12343388100E+03 0.  0.
         25    2    3    3    0    0  0.22580381114E+02 -0.65953468654E+01 -0.15934294665E+03  0.20373732280E+03  0.12476117122E+03 0.  0.
          5    1    4    4  502    0  0.80759047459E+01  0.44979050981E+02  0.31507848579E+02  0.55706101880E+02  0.47000000000E+01 0. -1.
         -5    1    4    4    0  502 -0.30656285860E+02 -0.38383704116E+02 -0.51860201913E+02  0.71586920222E+02  0.47000000000E+01 0. -1.
          5    1    5    5  503    0 -0.39769928053E+02 -0.19673618625E+01 -0.12701948497E+03  0.13319743711E+03  0.47000000000E+01 0.  1.
         -5    1    5    5    0  503  0.62350309167E+02 -0.46279850028E+01 -0.32323461675E+02  0.70539885690E+02  0.47000000000E+01 0.  1.
<mgrwt>
<rscale>  0 0.27801203E+03</rscale>
<asrwt>0</asrwt>
<pdfrwt beam="1">  1        1 0.39286588E-01 0.27801203E+03</pdfrwt>
<pdfrwt beam="2">  1       -1 0.11641157E-01 0.27801203E+03</pdfrwt>
<totfact> 0.51336840E+03</totfact>
</mgrwt>
</event>
<event>
 9    1  0.8285222E-001  0.2686596E+03  0.7818608E-02  0.1102049E+00
          2   -1    0    0  501    0  0.00000000000E+00  0.00000000000E+00  0.16891606812E+03  0.16891606812E+03  0.00000000000E+00 0. -1.
         -2   -1    0    0    0  501 -0.00000000000E+00 -0.00000000000E+00 -0.10682519436E+03  0.10682519436E+03  0.00000000000E+00 0. -1.
         35    2    1    2    0    0  0.00000000000E+00  0.00000000000E+00  0.62090873760E+02  0.27574126248E+03  0.26865957498E+03 0.  0.
         25    2    3    3    0    0  0.33759022052E+02  0.93803373826E+01 -0.49958795361E+01  0.12963527805E+03  0.12471040134E+03 0.  0.
         25    2    3    3    0    0 -0.33759022052E+02 -0.93803373826E+01  0.67086753296E+02  0.14610598443E+03  0.12497465310E+03 0.  0.
          5    1    4    4  502    0  0.61765377475E+02  0.64253832200E+01 -0.47575409618E+02  0.78369362665E+02  0.47000000000E+01 0. -1.
         -5    1    4    4    0  502 -0.28006355424E+02  0.29549541626E+01  0.42579530082E+02  0.51265915385E+02  0.47000000000E+01 0. -1.
          5    1    5    5  503    0 -0.71338912236E+02 -0.38153258399E+02  0.51664798995E+02  0.96105426385E+02  0.47000000000E+01 0. -1.
         -5    1    5    5    0  503  0.37579890184E+02  0.28772921017E+02  0.15421954301E+02  0.50000558042E+02  0.47000000000E+01 0. -1.
<mgrwt>
<rscale>  0 0.26865957E+03</rscale>
<asrwt>0</asrwt>
<pdfrwt beam="1">  1        2 0.25987087E-01 0.26865957E+03</pdfrwt>
<pdfrwt beam="2">  1       -2 0.16434645E-01 0.26865957E+03</pdfrwt>
<totfact> 0.59954167E+03</totfact>
</mgrwt>
</event>
<event>
 9    1  0.8285222E-001  0.2719013E+03  0.7818608E-02  0.1100196E+00
         -2   -1    0    0    0  501 -0.00000000000E+00  0.00000000000E+00  0.62132633427E+02  0.62132633427E+02  0.00000000000E+00 0.  1.
          2   -1    0    0  501    0  0.00000000000E+00 -0.00000000000E+00 -0.29746981717E+03  0.29746981717E+03  0.00000000000E+00 0.  1.
         35    2    1    2    0    0  0.00000000000E+00  0.00000000000E+00 -0.23533718374E+03  0.35960245060E+03  0.27190132847E+03 0.  0.
         25    2    3    3    0    0  0.26466375618E+02 -0.20043489553E+02 -0.16964310021E+03  0.21356027930E+03  0.12540734004E+03 0.  0.
         25    2    3    3    0    0 -0.26466375618E+02  0.20043489553E+02 -0.65694083532E+02  0.14604217129E+03  0.12613640503E+03 0.  0.
          5    1    4    4  502    0 -0.16183421366E+02 -0.18677691855E+02  0.11311835469E+02  0.27582728687E+02  0.47000000000E+01 0.  1.
         -5    1    4    4    0  502  0.42649796984E+02 -0.13657976983E+01 -0.18095493568E+03  0.18597755062E+03  0.47000000000E+01 0.  1.
          5    1    5    5  503    0  0.48321355943E+02  0.88733513563E+01 -0.62611703322E+01  0.49749191536E+02  0.47000000000E+01 0.  1.
         -5    1    5    5    0  503 -0.74787731561E+02  0.11170138197E+02 -0.59432913200E+02  0.96292979759E+02  0.47000000000E+01 0.  1.
<mgrwt>
<rscale>  0 0.27190133E+03</rscale>
<asrwt>0</asrwt>
<pdfrwt beam="1">  1        2 0.45764588E-01 0.27190133E+03</pdfrwt>
<pdfrwt beam="2">  1       -2 0.95588665E-02 0.27190133E+03</pdfrwt>
<totfact> 0.78056307E+03</totfact>
</mgrwt>
</event>
<event>
 9    1  0.8285222E-001  0.2883784E+03  0.7818608E-02  0.1091199E+00
          2   -1    0    0  501    0  0.00000000000E+00  0.00000000000E+00  0.26961260841E+03  0.26961260841E+03  0.00000000000E+00 0.  1.
         -2   -1    0    0    0  501 -0.00000000000E+00 -0.00000000000E+00 -0.77112568319E+02  0.77112568319E+02  0.00000000000E+00 0.  1.
         35    2    1    2    0    0 -0.71054273576E-14  0.00000000000E+00  0.19250004010E+03  0.34672517673E+03  0.28837836733E+03 0.  0.
         25    2    3    3    0    0  0.29376187825E+02  0.29951400808E+02  0.25893376574E+02  0.13466801748E+03  0.12531943649E+03 0.  0.
         25    2    3    3    0    0 -0.29376187825E+02 -0.29951400808E+02  0.16660666352E+03  0.21205715925E+03  0.12429968478E+03 0.  0.
          5    1    4    4  502    0  0.36742869258E+02 -0.43995832957E+02  0.14776117912E+02  0.59380934815E+02  0.47000000000E+01 0.  1.
         -5    1    4    4    0  502 -0.73666814333E+01  0.73947233765E+02  0.11117258662E+02  0.75287082670E+02  0.47000000000E+01 0.  1.
          5    1    5    5  503    0 -0.31865146494E+02 -0.75076641155E+02  0.13075822394E+03  0.15418071454E+03  0.47000000000E+01 0. -1.
         -5    1    5    5    0  503  0.24889586689E+01  0.45125240346E+02  0.35848439582E+02  0.57876444708E+02  0.47000000000E+01 0. -1.
<mgrwt>
<rscale>  0 0.28837837E+03</rscale>
<asrwt>0</asrwt>
<pdfrwt beam="1">  1        2 0.41478862E-01 0.28837837E+03</pdfrwt>
<pdfrwt beam="2">  1       -2 0.11863472E-01 0.28837837E+03</pdfrwt>
<totfact> 0.61563140E+03</totfact>
</mgrwt>
</event>
<event>
 9    1  0.8285222E-001  0.2745169E+03  0.7818608E-02  0.1098722E+00
         -1   -1    0    0    0  501 -0.00000000000E+00  0.00000000000E+00  0.98966904276E+02  0.98966904276E+02  0.00000000000E+00 0. -1.
          1   -1    0    0  501    0  0.00000000000E+00 -0.00000000000E+00 -0.19036548121E+03  0.19036548121E+03  0.00000000000E+00 0. -1.
         35    2    1    2    0    0  0.00000000000E+00  0.35527136788E-14 -0.91398576933E+02  0.28933238548E+03  0.27451690189E+03 0.  0.
         25    2    3    3    0    0 -0.51785352963E+02  0.22212243159E+02 -0.36908104421E+02  0.14265041132E+03  0.12574508002E+03 0.  0.
         25    2    3    3    0    0  0.51785352963E+02 -0.22212243159E+02 -0.54490472511E+02  0.14668197417E+03  0.12398098009E+03 0.  0.
          5    1    4    4  502    0  0.19356278685E+02  0.50831334946E+02 -0.36772585901E+02  0.65824032167E+02  0.47000000000E+01 0. -1.
         -5    1    4    4    0  502 -0.71141631648E+02 -0.28619091787E+02 -0.13551851984E+00  0.76826379151E+02  0.47000000000E+01 0. -1.
          5    1    5    5  503    0  0.73474082092E+02  0.29935490184E+02 -0.33428059663E+02  0.86221224096E+02  0.47000000000E+01 0.  1.
         -5    1    5    5    0  503 -0.21688729129E+02 -0.52147733343E+02 -0.21062412848E+02  0.60460750070E+02  0.47000000000E+01 0.  1.
<mgrwt>
<rscale>  0 0.27451690E+03</rscale>
<asrwt>0</asrwt>
<pdfrwt beam="1">  1        1 0.29286997E-01 0.27451690E+03</pdfrwt>
<pdfrwt beam="2">  1       -1 0.15225678E-01 0.27451690E+03</pdfrwt>
<totfact> 0.48676613E+03</totfact>
</mgrwt>
</event>
<event>
 9    1  0.8285222E-001  0.2659434E+03  0.7818608E-02  0.1103624E+00
         -1   -1    0    0    0  501 -0.00000000000E+00  0.00000000000E+00  0.25605532465E+02  0.25605532465E+02  0.00000000000E+00 0. -1.
          1   -1    0    0  501    0  0.00000000000E+00 -0.00000000000E+00 -0.69053334094E+03  0.69053334094E+03  0.00000000000E+00 0. -1.
         35    2    1    2    0    0  0.00000000000E+00  0.00000000000E+00 -0.66492780848E+03  0.71613887341E+03  0.26594340661E+03 0.  0.
         25    2    3    3    0    0 -0.35047122404E+02  0.10241236844E+02 -0.24940308442E+03  0.28079502298E+03  0.12373666672E+03 0.  0.
         25    2    3    3    0    0  0.35047122404E+02 -0.10241236844E+02 -0.41552472406E+03  0.43534385043E+03  0.12462057647E+03 0.  0.
          5    1    4    4  502    0  0.39362117573E+02 -0.22140538978E+02 -0.65184055739E+02  0.79439479408E+02  0.47000000000E+01 0.  1.
         -5    1    4    4    0  502 -0.74409239976E+02  0.32381775821E+02 -0.18421902868E+03  0.20135554357E+03  0.47000000000E+01 0.  1.
          5    1    5    5  503    0  0.38611386893E+02  0.18050473845E+01 -0.41953977510E+03  0.42134286547E+03  0.47000000000E+01 0.  1.
         -5    1    5    5    0  503 -0.35642644891E+01 -0.12046284228E+02  0.40150510355E+01  0.14000984961E+02  0.47000000000E+01 0.  1.
<mgrwt>
<rscale>  0 0.26594341E+03</rscale>
<asrwt>0</asrwt>
<pdfrwt beam="1">  1        1 0.10623590E+00 0.26594341E+03</pdfrwt>
<pdfrwt beam="2">  1       -1 0.39393126E-02 0.26594341E+03</pdfrwt>
<totfact> 0.72051591E+03</totfact>
</mgrwt>
</event>
<event>
 9    1  0.8285222E-001  0.2768852E+03  0.7818608E-02  0.1097402E+00
          1   -1    0    0  501    0  0.00000000000E+00  0.00000000000E+00  0.20673550661E+04  0.20673550661E+04  0.00000000000E+00 0. -1.
         -1   -1    0    0    0  501 -0.00000000000E+00 -0.00000000000E+00 -0.92709570185E+01  0.92709570185E+01  0.00000000000E+00 0. -1.
         35    2    1    2    0    0  0.00000000000E+00  0.17763568394E-14  0.20580841091E+04  0.20766260231E+04  0.27688524670E+03 0.  0.
         25    2    3    3    0    0  0.11745990127E+02 -0.14135502155E+02  0.14465503758E+04  0.14519308020E+04  0.12352037653E+03 0.  0.
         25    2    3    3    0    0 -0.11745990127E+02  0.14135502155E+02  0.61153373332E+03  0.62469522114E+03  0.12622532083E+03 0.  0.
          5    1    4    4  502    0 -0.35509428585E+02 -0.18222976296E+02  0.17779436509E+03  0.18227979220E+03  0.47000000000E+01 0.  1.
         -5    1    4    4    0  502  0.47255418713E+02  0.40874741409E+01  0.12687560107E+04  0.12696510098E+04  0.47000000000E+01 0.  1.
          5    1    5    5  503    0  0.41599322639E+02  0.41021664508E+02  0.41822343657E+03  0.42231056522E+03  0.47000000000E+01 0.  1.
         -5    1    5    5    0  503 -0.53345312767E+02 -0.26886162353E+02  0.19331029675E+03  0.20238465592E+03  0.47000000000E+01 0.  1.
<mgrwt>
<rscale>  0 0.27688525E+03</rscale>
<asrwt>0</asrwt>
<pdfrwt beam="1">  1        1 0.31805426E+00 0.27688525E+03</pdfrwt>
<pdfrwt beam="2">  1       -1 0.14263027E-02 0.27688525E+03</pdfrwt>
<totfact> 0.34259005E+03</totfact>
</mgrwt>
</event>
<event>
 9    1  0.8285222E-001  0.2728945E+03  0.7818608E-02  0.1099634E+00
          1   -1    0    0  501    0  0.00000000000E+00  0.00000000000E+00  0.13683180173E+03  0.13683180173E+03  0.00000000000E+00 0.  1.
         -1   -1    0    0    0  501 -0.00000000000E+00 -0.00000000000E+00 -0.13606382592E+03  0.13606382592E+03  0.00000000000E+00 0.  1.
         35    2    1    2    0    0 -0.14210854715E-13  0.00000000000E+00  0.76797580851E+00  0.27289562764E+03  0.27289454703E+03 0.  0.
         25    2    3    3    0    0  0.37929056595E+02 -0.22291315157E+02  0.33202396115E+02  0.13704305940E+03  0.12547065377E+03 0.  0.
         25    2    3    3    0    0 -0.37929056595E+02  0.22291315157E+02 -0.32434420306E+02  0.13585256824E+03  0.12437207328E+03 0.  0.
          5    1    4    4  502    0  0.71892593794E+02  0.22101433441E+02  0.87970177779E+01  0.75871575207E+02  0.47000000000E+01 0. -1.
         -5    1    4    4    0  502 -0.33963537199E+02 -0.44392748598E+02  0.24405378337E+02  0.61171484197E+02  0.47000000000E+01 0. -1.
          5    1    5    5  503    0 -0.50551464899E+02  0.47683057189E+02 -0.62985224092E+02  0.93906086066E+02  0.47000000000E+01 0. -1.
         -5    1    5    5    0  503  0.12622408304E+02 -0.25391742032E+02  0.30550803786E+02  0.41946482174E+02  0.47000000000E+01 0. -1.
<mgrwt>
<rscale>  0 0.27289455E+03</rscale>
<asrwt>0</asrwt>
<pdfrwt beam="1">  1        1 0.21051047E-01 0.27289455E+03</pdfrwt>
<pdfrwt beam="2">  1       -1 0.20932896E-01 0.27289455E+03</pdfrwt>
<totfact> 0.44393129E+03</totfact>
</mgrwt>
</event>
<event>
 9    1  0.8285222E-001  0.2736558E+03  0.7818608E-02  0.1099205E+00
         -2   -1    0    0    0  501 -0.00000000000E+00  0.00000000000E+00  0.62906144401E+01  0.62906144401E+01  0.00000000000E+00 0. -1.
          2   -1    0    0  501    0  0.00000000000E+00 -0.00000000000E+00 -0.29761606523E+04  0.29761606523E+04  0.00000000000E+00 0. -1.
         35    2    1    2    0    0  0.00000000000E+00 -0.71054273576E-14 -0.29698700378E+04  0.29824512667E+04  0.27365583623E+03 0.  0.
         25    2    3    3    0    0 -0.48162298813E+02 -0.21174524495E+02 -0.12914967047E+04  0.12983258725E+04  0.12214076105E+03 0.  0.
         25    2    3    3    0    0  0.48162298813E+02  0.21174524495E+02 -0.16783733331E+04  0.16841253942E+04  0.12873744775E+03 0.  0.
          5    1    4    4  502    0 -0.65708245162E+02 -0.56707324437E+02 -0.10461556391E+04  0.10497604514E+04  0.47000000000E+01 0. -1.
         -5    1    4    4    0  502  0.17545946349E+02  0.35532799942E+02 -0.24534106561E+03  0.24856542113E+03  0.47000000000E+01 0. -1.
          5    1    5    5  503    0  0.21736568067E+02  0.47370299808E+02 -0.25783282909E+03  0.26308987334E+03  0.47000000000E+01 0. -1.
         -5    1    5    5    0  503  0.26425730746E+02 -0.26195775313E+02 -0.14205405041E+04  0.14210355209E+04  0.47000000000E+01 0. -1.
<mgrwt>
<rscale>  0 0.27365584E+03</rscale>
<asrwt>0</asrwt>
<pdfrwt beam="1">  1        2 0.45787020E+00 0.27365584E+03</pdfrwt>
<pdfrwt beam="2">  1       -2 0.96778824E-03 0.27365584E+03</pdfrwt>
<totfact> 0.48131799E+03</totfact>
</mgrwt>
</event>
<event>
 9    1  0.8285222E-001  0.2582887E+03  0.7818608E-02  0.1108176E+00
          1   -1    0    0  501    0  0.00000000000E+00  0.00000000000E+00  0.16032886283E+03  0.16032886283E+03  0.00000000000E+00 0.  1.
         -1   -1    0    0    0  501 -0.00000000000E+00 -0.00000000000E+00 -0.10402531030E+03  0.10402531030E+03  0.00000000000E+00 0.  1.
         35    2    1    2    0    0  0.00000000000E+00  0.00000000000E+00  0.56303552528E+02  0.26435417313E+03  0.25828867344E+03 0.  0.
         25    2    3    3    0    0  0.11699566996E+02  0.26642646283E+02  0.43210392724E+02  0.13529671051E+03  0.12486533293E+03 0.  0.
         25    2    3    3    0    0 -0.11699566996E+02 -0.26642646283E+02  0.13093159804E+02  0.12905746262E+03  0.12505073912E+03 0.  0.
          5    1    4    4  502    0  0.17488810152E+02  0.74360042994E+02  0.41292150662E+02  0.86962096231E+02  0.47000000000E+01 0. -1.
         -5    1    4    4    0  502 -0.57892431556E+01 -0.47717396711E+02  0.19182420628E+01  0.48334614282E+02  0.47000000000E+01 0. -1.
          5    1    5    5  503    0 -0.21353308432E+02  0.10340717792E+02 -0.49770274460E+02  0.55335923641E+02  0.47000000000E+01 0.  1.
         -5    1    5    5    0  503  0.96537414359E+01 -0.36983364075E+02  0.62863434264E+02  0.73721538979E+02  0.47000000000E+01 0.  1.
<mgrwt>
<rscale>  0 0.25828867E+03</rscale>
<asrwt>0</asrwt>
<pdfrwt beam="1">  1        1 0.24665979E-01 0.25828867E+03</pdfrwt>
<pdfrwt beam="2">  1       -1 0.16003894E-01 0.25828867E+03</pdfrwt>
<totfact> 0.55780388E+03</totfact>
</mgrwt>
</event>
<event>
 8    1  0.8285222E-001  0.3690582E+03  0.7818608E-02  0.1055054E+00
         -1   -1    0    0    0  501 -0.00000000000E+00  0.00000000000E+00  0.22684859162E+02  0.22684859162E+02  0.00000000000E+00 0. -1.
          1   -1    0    0  501    0  0.00000000000E+00 -0.00000000000E+00 -0.15010446396E+04  0.15010446396E+04  0.00000000000E+00 0. -1.
         25    2    1    2    0    0  0.11013923147E+03 -0.14224091073E+02 -0.41787309335E+03  0.45008945869E+03  0.12501849301E+03 0.  0.
         25    2    1    2    0    0 -0.11013923147E+03  0.14224091073E+02 -0.10604866871E+04  0.10736400401E+04  0.12545097487E+03 0.  0.
          5    1    3    3  502    0  0.13233797365E+03  0.10511397641E+02 -0.35023299804E+03  0.37457852537E+03  0.47000000000E+01 0. -1.
         -5    1    3    3    0  502 -0.22198742181E+02 -0.24735488714E+02 -0.67640095315E+02  0.75510933318E+02  0.47000000000E+01 0. -1.
          5    1    4    4  503    0 -0.42860045465E+02 -0.23443986775E+02 -0.81062410623E+03  0.81210845064E+03  0.47000000000E+01 0. -1.
         -5    1    4    4    0  503 -0.67279186008E+02  0.37668077848E+02 -0.24986258090E+03  0.26153158947E+03  0.47000000000E+01 0. -1.
<mgrwt>
<rscale>  0 0.36905819E+03</rscale>
<asrwt>0</asrwt>
<pdfrwt beam="1">  1        1 0.23092988E+00 0.36905819E+03</pdfrwt>
<pdfrwt beam="2">  1       -1 0.34899793E-02 0.36905819E+03</pdfrwt>
<totfact> 0.21509649E+03</totfact>
</mgrwt>
</event>
<event>
 9    1  0.8285222E-001  0.2752718E+03  0.7818608E-02  0.1098300E+00
          3   -1    0    0  501    0  0.00000000000E+00  0.00000000000E+00  0.26592810045E+03  0.26592810045E+03  0.00000000000E+00 0. -1.
         -3   -1    0    0    0  501 -0.00000000000E+00 -0.00000000000E+00 -0.71235975907E+02  0.71235975907E+02  0.00000000000E+00 0. -1.
         35    2    1    2    0    0  0.00000000000E+00  0.00000000000E+00  0.19469212455E+03  0.33716407636E+03  0.27527184932E+03 0.  0.
         25    2    3    3    0    0  0.47281187707E+02  0.90470290058E+01  0.55766705727E+02  0.14542020611E+03  0.12537843288E+03 0.  0.
         25    2    3    3    0    0 -0.47281187707E+02 -0.90470290058E+01  0.13892541882E+03  0.19174387025E+03  0.12307753792E+03 0.  0.
          5    1    4    4  502    0  0.61457831631E+02 -0.14290390952E+01  0.88551923644E+02  0.10790106766E+03  0.47000000000E+01 0. -1.
         -5    1    4    4    0  502 -0.14176643925E+02  0.10476068101E+02 -0.32785217917E+02  0.37519138445E+02  0.47000000000E+01 0. -1.
          5    1    5    5  503    0  0.61762646551E+01  0.40636517521E+01  0.13615065779E+03  0.13643222173E+03  0.47000000000E+01 0.  1.
         -5    1    5    5    0  503 -0.53457452362E+02 -0.13110680758E+02  0.27747610277E+01  0.55311648517E+02  0.47000000000E+01 0.  1.
<mgrwt>
<rscale>  0 0.27527185E+03</rscale>
<asrwt>0</asrwt>
<pdfrwt beam="1">  1        3 0.40912015E-01 0.27527185E+03</pdfrwt>
<pdfrwt beam="2">  1       -3 0.10959381E-01 0.27527185E+03</pdfrwt>
<totfact> 0.95707323E+02</totfact>
</mgrwt>
</event>
<event>
 9    1  0.8285222E-001  0.2750644E+03  0.7818608E-02  0.1098416E+00
         -2   -1    0    0    0  501 -0.00000000000E+00  0.00000000000E+00  0.88600313169E+02  0.88600313169E+02  0.00000000000E+00 0.  1.
          2   -1    0    0  501    0  0.00000000000E+00 -0.00000000000E+00 -0.21348805916E+03  0.21348805916E+03  0.00000000000E+00 0.  1.
         35    2    1    2    0    0 -0.71054273576E-14 -0.17763568394E-14 -0.12488774599E+03  0.30208837233E+03  0.27506442082E+03 0.  0.
         25    2    3    3    0    0  0.53444045719E+02  0.12029840026E+02 -0.44491209882E+02  0.14366267528E+03  0.12513398195E+03 0.  0.
         25    2    3    3    0    0 -0.53444045719E+02 -0.12029840026E+02 -0.80396536111E+02  0.15842569705E+03  0.12503645626E+03 0.  0.
          5    1    4    4  502    0 -0.21787417282E+02 -0.38645617797E+02 -0.23568187473E+02  0.50455176023E+02  0.47000000000E+01 0.  1.
         -5    1    4    4    0  502  0.75231463001E+02  0.50675457822E+02 -0.20923022409E+02  0.93207499256E+02  0.47000000000E+01 0.  1.
          5    1    5    5  503    0 -0.72732699646E+02 -0.58591651419E+01 -0.10389805582E+03  0.12704830348E+03  0.47000000000E+01 0. -1.
         -5    1    5    5    0  503  0.19288653927E+02 -0.61706748837E+01  0.23501519709E+02  0.31377393573E+02  0.47000000000E+01 0. -1.
<mgrwt>
<rscale>  0 0.27506442E+03</rscale>
<asrwt>0</asrwt>
<pdfrwt beam="1">  1        2 0.32844317E-01 0.27506442E+03</pdfrwt>
<pdfrwt beam="2">  1       -2 0.13630817E-01 0.27506442E+03</pdfrwt>
<totfact> 0.63164254E+03</totfact>
</mgrwt>
</event>
<event>
 9    1  0.8285222E-001  0.2760707E+03  0.7818608E-02  0.1097855E+00
          1   -1    0    0  501    0  0.00000000000E+00  0.00000000000E+00  0.16553827806E+04  0.16553827806E+04  0.00000000000E+00 0. -1.
         -1   -1    0    0    0  501 -0.00000000000E+00 -0.00000000000E+00 -0.11510181009E+02  0.11510181009E+02  0.00000000000E+00 0. -1.
         35    2    1    2    0    0 -0.71054273576E-14  0.00000000000E+00  0.16438725996E+04  0.16668929616E+04  0.27607068257E+03 0.  0.
         25    2    3    3    0    0  0.58041568266E+02  0.10306642920E+02  0.81132168254E+03  0.82293893936E+03  0.12454145821E+03 0.  0.
         25    2    3    3    0    0 -0.58041568266E+02 -0.10306642920E+02  0.83255091705E+03  0.84395402225E+03  0.12506922747E+03 0.  0.
          5    1    4    4  502    0  0.62443883657E+02  0.52175695480E+02  0.68205866504E+03  0.68691167872E+03  0.47000000000E+01 0.  1.
         -5    1    4    4    0  502 -0.44023153902E+01 -0.41869052559E+02  0.12926301750E+03  0.13602726064E+03  0.47000000000E+01 0.  1.
          5    1    5    5  503    0  0.23841855063E+02 -0.43409601474E+02  0.28689507185E+03  0.29117640667E+03  0.47000000000E+01 0.  1.
         -5    1    5    5    0  503 -0.81883423329E+02  0.33102958554E+02  0.54565584520E+03  0.55277761558E+03  0.47000000000E+01 0.  1.
<mgrwt>
<rscale>  0 0.27607068E+03</rscale>
<asrwt>0</asrwt>
<pdfrwt beam="1">  1        1 0.25467409E+00 0.27607068E+03</pdfrwt>
<pdfrwt beam="2">  1       -1 0.17707984E-02 0.27607068E+03</pdfrwt>
<totfact> 0.46324595E+03</totfact>
</mgrwt>
</event>
<event>
 9    1  0.8285222E-001  0.2743375E+03  0.7818608E-02  0.1098823E+00
         -2   -1    0    0    0  501 -0.00000000000E+00  0.00000000000E+00  0.39175828684E+03  0.39175828684E+03  0.00000000000E+00 0. -1.
          2   -1    0    0  501    0  0.00000000000E+00 -0.00000000000E+00 -0.48027728855E+02  0.48027728855E+02  0.00000000000E+00 0. -1.
         35    2    1    2    0    0  0.00000000000E+00 -0.35527136788E-14  0.34373055799E+03  0.43978601570E+03  0.27433746210E+03 0.  0.
         25    2    3    3    0    0 -0.47798100872E+02  0.29680135037E+02  0.19926271165E+03  0.24147315704E+03  0.12425010445E+03 0.  0.
         25    2    3    3    0    0  0.47798100872E+02 -0.29680135037E+02  0.14446784634E+03  0.19831285865E+03  0.12365865283E+03 0.  0.
          5    1    4    4  502    0 -0.62921905794E+02  0.41772473214E+02  0.20676850992E+03  0.22018040885E+03  0.47000000000E+01 0. -1.
         -5    1    4    4    0  502  0.15123804923E+02 -0.12092338177E+02 -0.75057982722E+01  0.21292748193E+02  0.47000000000E+01 0. -1.
          5    1    5    5  503    0  0.84160119997E+02  0.57987241057E+01  0.96841035987E+02  0.12851780908E+03  0.47000000000E+01 0. -1.
         -5    1    5    5    0  503 -0.36362019125E+02 -0.35478859143E+02  0.47626810352E+02  0.69795049575E+02  0.47000000000E+01 0. -1.
<mgrwt>
<rscale>  0 0.27433746E+03</rscale>
<asrwt>0</asrwt>
<pdfrwt beam="1">  1        2 0.73888816E-02 0.27433746E+03</pdfrwt>
<pdfrwt beam="2">  1       -2 0.60270504E-01 0.27433746E+03</pdfrwt>
<totfact> 0.24602612E+03</totfact>
</mgrwt>
</event>
<event>
 9    1  0.8285222E-001  0.2755900E+03  0.7818608E-02  0.1098122E+00
         -4   -1    0    0    0  501 -0.00000000000E+00  0.00000000000E+00  0.33246552971E+03  0.33246552971E+03  0.00000000000E+00 0.  1.
          4   -1    0    0  501    0  0.00000000000E+00 -0.00000000000E+00 -0.57111073113E+02  0.57111073113E+02  0.00000000000E+00 0.  1.
         35    2    1    2    0    0  0.00000000000E+00  0.00000000000E+00  0.27535445660E+03  0.38957660282E+03  0.27559000834E+03 0.  0.
         25    2    3    3    0    0  0.11975326893E+02 -0.48408288522E+02  0.16519853528E+03  0.21543542296E+03  0.12897710865E+03 0.  0.
         25    2    3    3    0    0 -0.11975326893E+02  0.48408288522E+02  0.11015592132E+03  0.17414117986E+03  0.12531581173E+03 0.  0.
          5    1    4    4  502    0 -0.51263992501E+02 -0.53880300840E+02  0.84750024547E+02  0.11285273770E+03  0.47000000000E+01 0. -1.
         -5    1    4    4    0  502  0.63239319394E+02  0.54720123176E+01  0.80448510729E+02  0.10258268526E+03  0.47000000000E+01 0. -1.
          5    1    5    5  503    0 -0.44091794423E+02  0.34950694150E+02  0.12409838356E+03  0.13633831508E+03  0.47000000000E+01 0.  1.
         -5    1    5    5    0  503  0.32116467529E+02  0.13457594372E+02 -0.13942462236E+02  0.37802864786E+02  0.47000000000E+01 0.  1.
<mgrwt>
<rscale>  0 0.27559001E+03</rscale>
<asrwt>0</asrwt>
<pdfrwt beam="1">  1        4 0.87863191E-02 0.27559001E+03</pdfrwt>
<pdfrwt beam="2">  1       -4 0.51148542E-01 0.27559001E+03</pdfrwt>
<totfact> 0.65515273E+02</totfact>
</mgrwt>
</event>
<event>
 9    1  0.8285222E-001  0.2743173E+03  0.7818608E-02  0.1098834E+00
          1   -1    0    0  501    0  0.00000000000E+00  0.00000000000E+00  0.22028590462E+04  0.22028590462E+04  0.00000000000E+00 0.  1.
         -1   -1    0    0    0  501 -0.00000000000E+00 -0.00000000000E+00 -0.85400331878E+01  0.85400331878E+01  0.00000000000E+00 0.  1.
         35    2    1    2    0    0 -0.71054273576E-14  0.17763568394E-14  0.21943190130E+04  0.22113990794E+04  0.27431725693E+03 0.  0.
         25    2    3    3    0    0  0.26059559040E+01 -0.10699016036E+02  0.15467996443E+04  0.15517730785E+04  0.12364985927E+03 0.  0.
         25    2    3    3    0    0 -0.26059559040E+01  0.10699016036E+02  0.64751936874E+03  0.65962600088E+03  0.12531507570E+03 0.  0.
          5    1    4    4  502    0 -0.57607405549E+02  0.12729431192E+02  0.77958282853E+03  0.78182614956E+03  0.47000000000E+01 0.  1.
         -5    1    4    4    0  502  0.60213361453E+02 -0.23428447228E+02  0.76721681576E+03  0.76994692897E+03  0.47000000000E+01 0.  1.
          5    1    5    5  503    0  0.53431580899E+02  0.74425106516E+01  0.47654182759E+03  0.47960872411E+03  0.47000000000E+01 0.  1.
         -5    1    5    5    0  503 -0.56037536804E+02  0.32565053847E+01  0.17097754114E+03  0.18001727677E+03  0.47000000000E+01 0.  1.
<mgrwt>
<rscale>  0 0.27431726E+03</rscale>
<asrwt>0</asrwt>
<pdfrwt beam="1">  1        1 0.33890094E+00 0.27431726E+03</pdfrwt>
<pdfrwt beam="2">  1       -1 0.13138530E-02 0.27431726E+03</pdfrwt>
<totfact> 0.31503689E+03</totfact>
</mgrwt>
</event>
<event>
 9    1  0.8285222E-001  0.2750569E+03  0.7818608E-02  0.1098420E+00
         -2   -1    0    0    0  501 -0.00000000000E+00  0.00000000000E+00  0.23913813726E+02  0.23913813726E+02  0.00000000000E+00 0. -1.
          2   -1    0    0  501    0  0.00000000000E+00 -0.00000000000E+00 -0.79092648362E+03  0.79092648362E+03  0.00000000000E+00 0. -1.
         35    2    1    2    0    0  0.00000000000E+00 -0.71054273576E-14 -0.76701266989E+03  0.81484029734E+03  0.27505685667E+03 0.  0.
         25    2    3    3    0    0  0.41465895468E+02 -0.18267070835E+02 -0.28084222467E+03  0.31073992809E+03  0.12503536056E+03 0.  0.
         25    2    3    3    0    0 -0.41465895468E+02  0.18267070835E+02 -0.48617044522E+03  0.50410036925E+03  0.12530911422E+03 0.  0.
          5    1    4    4  502    0  0.59098468460E+02  0.37962947354E+02 -0.11685244116E+03  0.13641993018E+03  0.47000000000E+01 0.  1.
         -5    1    4    4    0  502 -0.17632572992E+02 -0.56230018189E+02 -0.16398978351E+03  0.17431999791E+03  0.47000000000E+01 0.  1.
          5    1    5    5  503    0 -0.22434848730E+02  0.65191675115E+02 -0.38175626040E+03  0.38796031923E+03  0.47000000000E+01 0. -1.
         -5    1    5    5    0  503 -0.19031046738E+02 -0.46924604280E+02 -0.10441418483E+03  0.11614005003E+03  0.47000000000E+01 0. -1.
<mgrwt>
<rscale>  0 0.27505686E+03</rscale>
<asrwt>0</asrwt>
<pdfrwt beam="1">  1        2 0.12168098E+00 0.27505686E+03</pdfrwt>
<pdfrwt beam="2">  1       -2 0.36790488E-02 0.27505686E+03</pdfrwt>
<totfact> 0.11186084E+04</totfact>
</mgrwt>
</event>
<event>
 9    1  0.8285222E-001  0.2750618E+03  0.7818608E-02  0.1098417E+00
         -2   -1    0    0    0  501 -0.00000000000E+00  0.00000000000E+00  0.18933728798E+02  0.18933728798E+02  0.00000000000E+00 0.  1.
          2   -1    0    0  501    0  0.00000000000E+00 -0.00000000000E+00 -0.99899753700E+03  0.99899753700E+03  0.00000000000E+00 0.  1.
         35    2    1    2    0    0 -0.35527136788E-14  0.00000000000E+00 -0.98006380820E+03  0.10179312658E+04  0.27506179986E+03 0.  0.
         25    2    3    3    0    0  0.10961731652E+02 -0.10246714959E+02 -0.68288280832E+03  0.69442620889E+03  0.12519454847E+03 0.  0.
         25    2    3    3    0    0 -0.10961731652E+02  0.10246714959E+02 -0.29718099988E+03  0.32350505691E+03  0.12694022383E+03 0.  0.
          5    1    4    4  502    0 -0.78741607343E+01  0.48319360136E+02 -0.14713460990E+03  0.15513686346E+03  0.47000000000E+01 0.  1.
         -5    1    4    4    0  502  0.18835892387E+02 -0.58566075095E+02 -0.53574819841E+03  0.53928934543E+03  0.47000000000E+01 0.  1.
          5    1    5    5  503    0 -0.49817841260E+02 -0.23867145922E+02 -0.64270383006E+02  0.84877736150E+02  0.47000000000E+01 0.  1.
         -5    1    5    5    0  503  0.38856109607E+02  0.34113860881E+02 -0.23291061688E+03  0.23862732076E+03  0.47000000000E+01 0.  1.
<mgrwt>
<rscale>  0 0.27506180E+03</rscale>
<asrwt>0</asrwt>
<pdfrwt beam="1">  1        2 0.15369196E+00 0.27506180E+03</pdfrwt>
<pdfrwt beam="2">  1       -2 0.29128807E-02 0.27506180E+03</pdfrwt>
<totfact> 0.11609406E+04</totfact>
</mgrwt>
</event>
<event>
 9    1  0.8285222E-001  0.2784949E+03  0.7818608E-02  0.1096514E+00
         -2   -1    0    0    0  501 -0.00000000000E+00  0.00000000000E+00  0.22362484204E+02  0.22362484204E+02  0.00000000000E+00 0. -1.
          2   -1    0    0  501    0  0.00000000000E+00 -0.00000000000E+00 -0.86707047961E+03  0.86707047961E+03  0.00000000000E+00 0. -1.
         35    2    1    2    0    0 -0.71054273576E-14  0.35527136788E-14 -0.84470799541E+03  0.88943296382E+03  0.27849488257E+03 0.  0.
         25    2    3    3    0    0 -0.45825474755E+02  0.16771624466E+02 -0.30263722997E+03  0.33117654571E+03  0.12532896689E+03 0.  0.
         25    2    3    3    0    0  0.45825474755E+02 -0.16771624466E+02 -0.54207076544E+03  0.55825641811E+03  0.12421051521E+03 0.  0.
          5    1    4    4  502    0 -0.42715977976E+02  0.42357561030E+02 -0.53429400401E+02  0.80595338439E+02  0.47000000000E+01 0.  1.
         -5    1    4    4    0  502 -0.31094967793E+01 -0.25585936564E+02 -0.24920782957E+03  0.25058120727E+03  0.47000000000E+01 0.  1.
          5    1    5    5  503    0  0.44168465683E+02  0.38256397725E+01 -0.53356058844E+03  0.53541991036E+03  0.47000000000E+01 0.  1.
         -5    1    5    5    0  503  0.16570090721E+01 -0.20597264239E+02 -0.85101770011E+01  0.22836507740E+02  0.47000000000E+01 0.  1.
<mgrwt>
<rscale>  0 0.27849488E+03</rscale>
<asrwt>0</asrwt>
<pdfrwt beam="1">  1        2 0.13339545E+00 0.27849488E+03</pdfrwt>
<pdfrwt beam="2">  1       -2 0.34403824E-02 0.27849488E+03</pdfrwt>
<totfact> 0.10988275E+04</totfact>
</mgrwt>
</event>
<event>
 9    1  0.8285222E-001  0.2735266E+03  0.7818608E-02  0.1099278E+00
         -1   -1    0    0    0  501 -0.00000000000E+00  0.00000000000E+00  0.12469513772E+03  0.12469513772E+03  0.00000000000E+00 0. -1.
          1   -1    0    0  501    0  0.00000000000E+00 -0.00000000000E+00 -0.14999942997E+03  0.14999942997E+03  0.00000000000E+00 0. -1.
         35    2    1    2    0    0 -0.14210854715E-13  0.31086244690E-14 -0.25304292246E+02  0.27469456768E+03  0.27352659525E+03 0.  0.
         25    2    3    3    0    0 -0.55282088048E+02  0.13316556991E+01 -0.17031422116E+01  0.13647927012E+03  0.12476300699E+03 0.  0.
         25    2    3    3    0    0  0.55282088048E+02 -0.13316556991E+01 -0.23601150035E+02  0.13821529757E+03  0.12445309009E+03 0.  0.
          5    1    4    4  502    0 -0.63398306879E+02 -0.15695889994E+01  0.51839466357E+02  0.82044068627E+02  0.47000000000E+01 0.  1.
         -5    1    4    4    0  502  0.81162188304E+01  0.29012446985E+01 -0.53542608568E+02  0.54435201490E+02  0.47000000000E+01 0.  1.
          5    1    5    5  503    0  0.81624867527E+02  0.33577448076E+02 -0.18699376055E+00  0.88386588263E+02  0.47000000000E+01 0.  1.
         -5    1    5    5    0  503 -0.26342779478E+02 -0.34909103775E+02 -0.23414156274E+02  0.49828709305E+02  0.47000000000E+01 0.  1.
<mgrwt>
<rscale>  0 0.27352660E+03</rscale>
<asrwt>0</asrwt>
<pdfrwt beam="1">  1        1 0.23076835E-01 0.27352660E+03</pdfrwt>
<pdfrwt beam="2">  1       -1 0.19183867E-01 0.27352660E+03</pdfrwt>
<totfact> 0.45481665E+03</totfact>
</mgrwt>
</event>
<event>
 9    1  0.8285222E-001  0.2733387E+03  0.7818608E-02  0.1099384E+00
         -2   -1    0    0    0  501 -0.00000000000E+00  0.00000000000E+00  0.31966664235E+02  0.31966664235E+02  0.00000000000E+00 0.  1.
          2   -1    0    0  501    0  0.00000000000E+00 -0.00000000000E+00 -0.58431210345E+03  0.58431210345E+03  0.00000000000E+00 0.  1.
         35    2    1    2    0    0  0.35527136788E-14  0.00000000000E+00 -0.55234543922E+03  0.61627876769E+03  0.27333868237E+03 0.  0.
         25    2    3    3    0    0 -0.15571791317E+02  0.19263700900E+02 -0.34867499640E+03  0.37623703009E+03  0.13916349679E+03 0.  0.
         25    2    3    3    0    0  0.15571791317E+02 -0.19263700900E+02 -0.20367044282E+03  0.24004173760E+03  0.12459861819E+03 0.  0.
          5    1    4    4  502    0  0.18503016400E+02 -0.23091241237E+02 -0.77142705347E+01  0.30938115775E+02  0.47000000000E+01 0. -1.
         -5    1    4    4    0  502 -0.34074807718E+02  0.42354942138E+02 -0.34096072587E+03  0.34529891432E+03  0.47000000000E+01 0. -1.
          5    1    5    5  503    0 -0.32870266284E+02 -0.47211138691E+02 -0.15624174103E+03  0.16656205349E+03  0.47000000000E+01 0. -1.
         -5    1    5    5    0  503  0.48442057602E+02  0.27947437791E+02 -0.47428701792E+02  0.73479684113E+02  0.47000000000E+01 0. -1.
<mgrwt>
<rscale>  0 0.27333868E+03</rscale>
<asrwt>0</asrwt>
<pdfrwt beam="1">  1        2 0.89894171E-01 0.27333868E+03</pdfrwt>
<pdfrwt beam="2">  1       -2 0.49179483E-02 0.27333868E+03</pdfrwt>
<totfact> 0.10396949E+04</totfact>
</mgrwt>
</event>
<event>
 9    1  0.8285222E-001  0.2733202E+03  0.7818608E-02  0.1099394E+00
         -2   -1    0    0    0  501 -0.00000000000E+00  0.00000000000E+00  0.19600600201E+02  0.19600600201E+02  0.00000000000E+00 0.  1.
          2   -1    0    0  501    0  0.00000000000E+00 -0.00000000000E+00 -0.95282718496E+03  0.95282718496E+03  0.00000000000E+00 0.  1.
         35    2    1    2    0    0  0.71054273576E-14  0.71054273576E-14 -0.93322658476E+03  0.97242778517E+03  0.27332021303E+03 0.  0.
         25    2    3    3    0    0 -0.23297782435E+02  0.43747678885E+02 -0.55087594248E+03  0.56709370469E+03  0.12519712385E+03 0.  0.
         25    2    3    3    0    0  0.23297782435E+02 -0.43747678885E+02 -0.38235064228E+03  0.40533408048E+03  0.12508819715E+03 0.  0.
          5    1    4    4  502    0 -0.29375431743E+02  0.71457997967E+02 -0.51653916794E+03  0.52230638851E+03  0.47000000000E+01 0. -1.
         -5    1    4    4    0  502  0.60776493079E+01 -0.27710319082E+02 -0.34336774542E+02  0.44787316181E+02  0.47000000000E+01 0. -1.
          5    1    5    5  503    0  0.52817808849E+02 -0.62637045165E+02 -0.34187898465E+03  0.35159131175E+03  0.47000000000E+01 0. -1.
         -5    1    5    5    0  503 -0.29520026414E+02  0.18889366280E+02 -0.40471657637E+02  0.53742768721E+02  0.47000000000E+01 0. -1.
<mgrwt>
<rscale>  0 0.27332021E+03</rscale>
<asrwt>0</asrwt>
<pdfrwt beam="1">  1        2 0.14658882E+00 0.27332021E+03</pdfrwt>
<pdfrwt beam="2">  1       -2 0.30154764E-02 0.27332021E+03</pdfrwt>
<totfact> 0.11775305E+04</totfact>
</mgrwt>
</event>
<event>
 9    1  0.8285222E-001  0.2873948E+03  0.7818608E-02  0.1091717E+00
          2   -1    0    0  501    0  0.00000000000E+00  0.00000000000E+00  0.79680020503E+03  0.79680020503E+03  0.00000000000E+00 0. -1.
         -2   -1    0    0    0  501 -0.00000000000E+00 -0.00000000000E+00 -0.25914838893E+02  0.25914838893E+02  0.00000000000E+00 0. -1.
         35    2    1    2    0    0  0.00000000000E+00  0.14210854715E-13  0.77088536613E+03  0.82271504392E+03  0.28739484298E+03 0.  0.
         25    2    3    3    0    0 -0.22278000718E+01  0.68047799539E+02  0.32367493634E+03  0.35375188490E+03  0.12545702665E+03 0.  0.
         25    2    3    3    0    0  0.22278000718E+01 -0.68047799539E+02  0.44721042979E+03  0.46896315902E+03  0.12366814420E+03 0.  0.
          5    1    4    4  502    0 -0.55819554481E+02  0.54521628820E+02  0.24728166837E+03  0.25934290849E+03  0.47000000000E+01 0. -1.
         -5    1    4    4    0  502  0.53591754409E+02  0.13526170719E+02  0.76393267971E+02  0.94408976407E+02  0.47000000000E+01 0. -1.
          5    1    5    5  503    0  0.19432550460E+02 -0.60411791800E+02  0.84732940388E+02  0.10596683346E+03  0.47000000000E+01 0. -1.
         -5    1    5    5    0  503 -0.17204750389E+02 -0.76360077389E+01  0.36247748941E+03  0.36299632557E+03  0.47000000000E+01 0. -1.
<mgrwt>
<rscale>  0 0.28739484E+03</rscale>
<asrwt>0</asrwt>
<pdfrwt beam="1">  1        2 0.12258463E+00 0.28739484E+03</pdfrwt>
<pdfrwt beam="2">  1       -2 0.39868989E-02 0.28739484E+03</pdfrwt>
<totfact> 0.98352446E+03</totfact>
</mgrwt>
</event>
<event>
 9    1  0.8285222E-001  0.2729184E+03  0.7818608E-02  0.1099621E+00
         -1   -1    0    0    0  501 -0.00000000000E+00  0.00000000000E+00  0.26153024809E+02  0.26153024809E+02  0.00000000000E+00 0.  1.
          1   -1    0    0  501    0  0.00000000000E+00 -0.00000000000E+00 -0.71200625425E+03  0.71200625425E+03  0.00000000000E+00 0.  1.
         35    2    1    2    0    0  0.71054273576E-14  0.00000000000E+00 -0.68585322944E+03  0.73815927906E+03  0.27291842907E+03 0.  0.
         25    2    3    3    0    0 -0.54819553580E+02 -0.16720174384E+02 -0.31168608649E+03  0.33940534784E+03  0.12150319313E+03 0.  0.
         25    2    3    3    0    0  0.54819553580E+02  0.16720174384E+02 -0.37416714295E+03  0.39875393122E+03  0.12537503386E+03 0.  0.
          5    1    4    4  502    0 -0.51106795576E+00 -0.12059166623E+01  0.10866330283E+02  0.11911446565E+02  0.47000000000E+01 0. -1.
         -5    1    4    4    0  502 -0.54308485624E+02 -0.15514257721E+02 -0.32255241677E+03  0.32749390127E+03  0.47000000000E+01 0. -1.
          5    1    5    5  503    0 -0.87538830888E+00 -0.18113439403E+01 -0.31580680802E+03  0.31584818705E+03  0.47000000000E+01 0. -1.
         -5    1    5    5    0  503  0.55694941889E+02  0.18531518324E+02 -0.58360334926E+02  0.82905744168E+02  0.47000000000E+01 0. -1.
<mgrwt>
<rscale>  0 0.27291843E+03</rscale>
<asrwt>0</asrwt>
<pdfrwt beam="1">  1        1 0.10953942E+00 0.27291843E+03</pdfrwt>
<pdfrwt beam="2">  1       -1 0.40235425E-02 0.27291843E+03</pdfrwt>
<totfact> 0.66819380E+03</totfact>
</mgrwt>
</event>
<event>
 9    1  0.8285222E-001  0.2771222E+03  0.7818608E-02  0.1097271E+00
          2   -1    0    0  501    0  0.00000000000E+00  0.00000000000E+00  0.14488959533E+04  0.14488959533E+04  0.00000000000E+00 0.  1.
         -2   -1    0    0    0  501 -0.00000000000E+00 -0.00000000000E+00 -0.13250905589E+02  0.13250905589E+02  0.00000000000E+00 0.  1.
         35    2    1    2    0    0  0.00000000000E+00 -0.26645352591E-14  0.14356450477E+04  0.14621468589E+04  0.27712223646E+03 0.  0.
         25    2    3    3    0    0  0.50579785935E+02  0.27679653586E+01  0.90121500344E+03  0.91107208325E+03  0.12368460725E+03 0.  0.
         25    2    3    3    0    0 -0.50579785935E+02 -0.27679653586E+01  0.53443004426E+03  0.55107477563E+03  0.12450686628E+03 0.  0.
          5    1    4    4  502    0  0.63877789598E+02  0.35896219649E+02  0.80498646954E+03  0.80832803782E+03  0.47000000000E+01 0.  1.
         -5    1    4    4    0  502 -0.13298003664E+02 -0.33128254290E+02  0.96228533908E+02  0.10274404543E+03  0.47000000000E+01 0.  1.
          5    1    5    5  503    0 -0.50801941528E+02 -0.84034561760E+01  0.72301195974E+02  0.88887615999E+02  0.47000000000E+01 0.  1.
         -5    1    5    5    0  503  0.22215559315E+00  0.56354908174E+01  0.46212884828E+03  0.46218715963E+03  0.47000000000E+01 0.  1.
<mgrwt>
<rscale>  0 0.27712224E+03</rscale>
<asrwt>0</asrwt>
<pdfrwt beam="1">  1        2 0.22290694E+00 0.27712224E+03</pdfrwt>
<pdfrwt beam="2">  1       -2 0.20386020E-02 0.27712224E+03</pdfrwt>
<totfact> 0.10926600E+04</totfact>
</mgrwt>
</event>
<event>
 9    1  0.8285222E-001  0.2761916E+03  0.7818608E-02  0.1097787E+00
          2   -1    0    0  501    0  0.00000000000E+00  0.00000000000E+00  0.46515959606E+03  0.46515959606E+03  0.00000000000E+00 0. -1.
         -2   -1    0    0    0  501 -0.00000000000E+00 -0.00000000000E+00 -0.40997657771E+02  0.40997657771E+02  0.00000000000E+00 0. -1.
         35    2    1    2    0    0 -0.71054273576E-14  0.00000000000E+00  0.42416193829E+03  0.50615725383E+03  0.27619162861E+03 0.  0.
         25    2    3    3    0    0 -0.18431058924E+02  0.60869902056E+00  0.31161461739E+03  0.33664971306E+03  0.12605270758E+03 0.  0.
         25    2    3    3    0    0  0.18431058924E+02 -0.60869902056E+00  0.11254732091E+03  0.16950754077E+03  0.12540268134E+03 0.  0.
          5    1    4    4  502    0  0.57876443443E+01 -0.57047589622E+02  0.20537621285E+03  0.21328244914E+03  0.47000000000E+01 0. -1.
         -5    1    4    4    0  502 -0.24218703269E+02  0.57656288642E+02  0.10623840454E+03  0.12336726392E+03  0.47000000000E+01 0. -1.
          5    1    5    5  503    0 -0.38823398609E+01  0.57962118914E+02  0.29400809095E+02  0.65277694254E+02  0.47000000000E+01 0.  1.
         -5    1    5    5    0  503  0.22313398785E+02 -0.58570817934E+02  0.83146511810E+02  0.10422984652E+03  0.47000000000E+01 0.  1.
<mgrwt>
<rscale>  0 0.27619163E+03</rscale>
<asrwt>0</asrwt>
<pdfrwt beam="1">  1        2 0.71563011E-01 0.27619163E+03</pdfrwt>
<pdfrwt beam="2">  1       -2 0.63073323E-02 0.27619163E+03</pdfrwt>
<totfact> 0.91974661E+03</totfact>
</mgrwt>
</event>
<event>
 9    1  0.8285222E-001  0.2756212E+03  0.7818608E-02  0.1098105E+00
          1   -1    0    0  501    0  0.00000000000E+00  0.00000000000E+00  0.26462840161E+04  0.26462840161E+04  0.00000000000E+00 0. -1.
         -1   -1    0    0    0  501 -0.00000000000E+00 -0.00000000000E+00 -0.71767663444E+01  0.71767663444E+01  0.00000000000E+00 0. -1.
         35    2    1    2    0    0 -0.14210854715E-13 -0.17763568394E-14  0.26391072497E+04  0.26534607824E+04  0.27562120430E+03 0.  0.
         25    2    3    3    0    0  0.48727497671E+02  0.66163966451E+01  0.12565790341E+04  0.12644219044E+04  0.13173358641E+03 0.  0.
         25    2    3    3    0    0 -0.48727497671E+02 -0.66163966451E+01  0.13825282157E+04  0.13890388780E+04  0.12500636684E+03 0.  0.
          5    1    4    4  502    0  0.27628302815E+02  0.57850997804E+02  0.99104978610E+03  0.99313233237E+03  0.47000000000E+01 0.  1.
         -5    1    4    4    0  502  0.21099194856E+02 -0.51234601159E+02  0.26552924796E+03  0.27128957205E+03  0.47000000000E+01 0.  1.
          5    1    5    5  503    0  0.33006403689E+02  0.10633040918E+02  0.77343191150E+03  0.77422315644E+03  0.47000000000E+01 0. -1.
         -5    1    5    5    0  503 -0.81733901360E+02 -0.17249437564E+02  0.60909630419E+03  0.61481572158E+03  0.47000000000E+01 0. -1.
<mgrwt>
<rscale>  0 0.27562120E+03</rscale>
<asrwt>0</asrwt>
<pdfrwt beam="1">  1        1 0.40711984E+00 0.27562120E+03</pdfrwt>
<pdfrwt beam="2">  1       -1 0.11041200E-02 0.27562120E+03</pdfrwt>
<totfact> 0.20622486E+03</totfact>
</mgrwt>
</event>
<event>
 9    1  0.8285222E-001  0.2705988E+03  0.7818608E-02  0.1100937E+00
          1   -1    0    0  501    0  0.00000000000E+00  0.00000000000E+00  0.39832816793E+02  0.39832816793E+02  0.00000000000E+00 0.  1.
         -1   -1    0    0    0  501 -0.00000000000E+00 -0.00000000000E+00 -0.45956910172E+03  0.45956910172E+03  0.00000000000E+00 0.  1.
         35    2    1    2    0    0  0.14210854715E-13 -0.35527136788E-14 -0.41973628493E+03  0.49940191851E+03  0.27059883099E+03 0.  0.
         25    2    3    3    0    0  0.34548402710E+02  0.84745380853E+01 -0.13935716131E+03  0.19082816701E+03  0.12541754658E+03 0.  0.
         25    2    3    3    0    0 -0.34548402710E+02 -0.84745380853E+01 -0.28037912362E+03  0.30857375151E+03  0.12385433877E+03 0.  0.
          5    1    4    4  502    0  0.68774778022E+02  0.41737411608E+02 -0.10226107259E+03  0.13019753679E+03  0.47000000000E+01 0. -1.
         -5    1    4    4    0  502 -0.34226375312E+02 -0.33262873522E+02 -0.37096088721E+02  0.60630630216E+02  0.47000000000E+01 0. -1.
          5    1    5    5  503    0 -0.28673733763E+01  0.18093458558E+02  0.54888215504E+01  0.19692948857E+02  0.47000000000E+01 0. -1.
         -5    1    5    5    0  503 -0.31681029333E+02 -0.26567996643E+02 -0.28586794517E+03  0.28888080265E+03  0.47000000000E+01 0. -1.
<mgrwt>
<rscale>  0 0.27059883E+03</rscale>
<asrwt>0</asrwt>
<pdfrwt beam="1">  1        1 0.61281255E-02 0.27059883E+03</pdfrwt>
<pdfrwt beam="2">  1       -1 0.70702940E-01 0.27059883E+03</pdfrwt>
<totfact> 0.26290659E+03</totfact>
</mgrwt>
</event>
<event>
 9    1  0.8285222E-001  0.2789178E+03  0.7818608E-02  0.1096281E+00
          2   -1    0    0  501    0  0.00000000000E+00  0.00000000000E+00  0.75591242193E+03  0.75591242193E+03  0.00000000000E+00 0.  1.
         -2   -1    0    0    0  501 -0.00000000000E+00 -0.00000000000E+00 -0.25728891342E+02  0.25728891342E+02  0.00000000000E+00 0.  1.
         35    2    1    2    0    0 -0.71054273576E-14  0.00000000000E+00  0.73018353059E+03  0.78164131327E+03  0.27891782710E+03 0.  0.
         25    2    3    3    0    0  0.27340010512E+02 -0.42738129404E+01  0.20893867121E+03  0.24481618370E+03  0.12455462185E+03 0.  0.
         25    2    3    3    0    0 -0.27340010512E+02  0.42738129404E+01  0.52124485938E+03  0.53682512958E+03  0.12537653153E+03 0.  0.
          5    1    4    4  502    0  0.52769517680E+02 -0.33533657992E+02  0.47333592340E+02  0.78560086420E+02  0.47000000000E+01 0.  1.
         -5    1    4    4    0  502 -0.25429507168E+02  0.29259845052E+02  0.16160507887E+03  0.16625609728E+03  0.47000000000E+01 0.  1.
          5    1    5    5  503    0 -0.21618925911E+02  0.44494491008E+02  0.46298570930E+03  0.46564470866E+03  0.47000000000E+01 0. -1.
         -5    1    5    5    0  503 -0.57210846000E+01 -0.40220678068E+02  0.58259150087E+02  0.71180420918E+02  0.47000000000E+01 0. -1.
<mgrwt>
<rscale>  0 0.27891783E+03</rscale>
<asrwt>0</asrwt>
<pdfrwt beam="1">  1        2 0.11629420E+00 0.27891783E+03</pdfrwt>
<pdfrwt beam="2">  1       -2 0.39582915E-02 0.27891783E+03</pdfrwt>
<totfact> 0.10614355E+04</totfact>
</mgrwt>
</event>
<event>
 9    1  0.8285222E-001  0.2756709E+03  0.7818608E-02  0.1098077E+00
         -3   -1    0    0    0  501 -0.00000000000E+00  0.00000000000E+00  0.75050391757E+03  0.75050391757E+03  0.00000000000E+00 0.  1.
          3   -1    0    0  501    0  0.00000000000E+00 -0.00000000000E+00 -0.25314468081E+02  0.25314468081E+02  0.00000000000E+00 0.  1.
         35    2    1    2    0    0  0.00000000000E+00 -0.35527136788E-14  0.72518944949E+03  0.77581838565E+03  0.27567087235E+03 0.  0.
         25    2    3    3    0    0 -0.56246324880E+01 -0.89375089479E+01  0.55283545257E+03  0.56673324296E+03  0.12429004587E+03 0.  0.
         25    2    3    3    0    0  0.56246324880E+01  0.89375089479E+01  0.17235399692E+03  0.20908514269E+03  0.11789478819E+03 0.  0.
          5    1    4    4  502    0  0.31055538506E+02 -0.36785816817E+02  0.46441561737E+03  0.46692783002E+03  0.47000000000E+01 0. -1.
         -5    1    4    4    0  502 -0.36680170994E+02  0.27848307869E+02  0.88419835202E+02  0.99805412941E+02  0.47000000000E+01 0. -1.
          5    1    5    5  503    0  0.41418852858E+02 -0.20674405508E+02  0.21662512716E+02  0.51325499241E+02  0.47000000000E+01 0.  1.
         -5    1    5    5    0  503 -0.35794220370E+02  0.29611914456E+02  0.15069148420E+03  0.15775964345E+03  0.47000000000E+01 0.  1.
<mgrwt>
<rscale>  0 0.27567087E+03</rscale>
<asrwt>0</asrwt>
<pdfrwt beam="1">  1        3 0.38945341E-02 0.27567087E+03</pdfrwt>
<pdfrwt beam="2">  1       -3 0.11546212E+00 0.27567087E+03</pdfrwt>
<totfact> 0.55644853E+02</totfact>
</mgrwt>
</event>
<event>
 9    1  0.8285222E-001  0.2836925E+03  0.7818608E-02  0.1093689E+00
          2   -1    0    0  501    0  0.00000000000E+00  0.00000000000E+00  0.71458494479E+03  0.71458494479E+03  0.00000000000E+00 0.  1.
         -2   -1    0    0    0  501 -0.00000000000E+00 -0.00000000000E+00 -0.28156712484E+02  0.28156712484E+02  0.00000000000E+00 0.  1.
         35    2    1    2    0    0  0.35527136788E-14  0.00000000000E+00  0.68642823231E+03  0.74274165728E+03  0.28369252959E+03 0.  0.
         25    2    3    3    0    0 -0.61697155261E+01  0.24519548454E+02  0.49920659818E+03  0.51532609982E+03  0.12535744032E+03 0.  0.
         25    2    3    3    0    0  0.61697155261E+01 -0.24519548454E+02  0.18722163413E+03  0.22741555746E+03  0.12659629474E+03 0.  0.
          5    1    4    4  502    0  0.67029620080E+01 -0.86509343907E+01  0.46685631385E+03  0.46700821850E+03  0.47000000000E+01 0.  1.
         -5    1    4    4    0  502 -0.12872677534E+02  0.33170482845E+02  0.32350284331E+02  0.48317881321E+02  0.47000000000E+01 0.  1.
          5    1    5    5  503    0  0.41761339449E+02 -0.53113271438E+02  0.16074336157E+03  0.17442920445E+03  0.47000000000E+01 0. -1.
         -5    1    5    5    0  503 -0.35591623923E+02  0.28593722984E+02  0.26478272562E+02  0.52986353011E+02  0.47000000000E+01 0. -1.
<mgrwt>
<rscale>  0 0.28369253E+03</rscale>
<asrwt>0</asrwt>
<pdfrwt beam="1">  1        2 0.10993613E+00 0.28369253E+03</pdfrwt>
<pdfrwt beam="2">  1       -2 0.43318025E-02 0.28369253E+03</pdfrwt>
<totfact> 0.99370529E+03</totfact>
</mgrwt>
</event>
<event>
 9    1  0.8285222E-001  0.2733200E+03  0.7818608E-02  0.1099394E+00
          2   -1    0    0  501    0  0.00000000000E+00  0.00000000000E+00  0.11615233016E+03  0.11615233016E+03  0.00000000000E+00 0.  1.
         -2   -1    0    0    0  501 -0.00000000000E+00 -0.00000000000E+00 -0.16078849276E+03  0.16078849276E+03  0.00000000000E+00 0.  1.
         35    2    1    2    0    0  0.00000000000E+00  0.71054273576E-14 -0.44636162601E+02  0.27694082292E+03  0.27332001827E+03 0.  0.
         25    2    3    3    0    0  0.18628588540E+02  0.48947216654E+02  0.28703560011E-01  0.13501948054E+03  0.12444840285E+03 0.  0.
         25    2    3    3    0    0 -0.18628588540E+02 -0.48947216654E+02 -0.44664866161E+02  0.14192134238E+03  0.12411229925E+03 0.  0.
          5    1    4    4  502    0  0.29934421736E+02  0.71186339313E+02 -0.40400629161E+02  0.87280383513E+02  0.47000000000E+01 0.  1.
         -5    1    4    4    0  502 -0.11305833196E+02 -0.22239122660E+02  0.40429332721E+02  0.47739097030E+02  0.47000000000E+01 0.  1.
          5    1    5    5  503    0 -0.15420708237E+02 -0.57239466980E+02 -0.83103845485E+02  0.10218852165E+03  0.47000000000E+01 0.  1.
         -5    1    5    5    0  503 -0.32078803028E+01  0.82922503262E+01  0.38438979324E+02  0.39732820728E+02  0.47000000000E+01 0.  1.
<mgrwt>
<rscale>  0 0.27332002E+03</rscale>
<asrwt>0</asrwt>
<pdfrwt beam="1">  1        2 0.17869589E-01 0.27332002E+03</pdfrwt>
<pdfrwt beam="2">  1       -2 0.24736691E-01 0.27332002E+03</pdfrwt>
<totfact> 0.45563688E+03</totfact>
</mgrwt>
</event>
<event>
 9    1  0.8285222E-001  0.2737695E+03  0.7818608E-02  0.1099141E+00
         -1   -1    0    0    0  501 -0.00000000000E+00  0.00000000000E+00  0.15493579129E+02  0.15493579129E+02  0.00000000000E+00 0. -1.
          1   -1    0    0  501    0  0.00000000000E+00 -0.00000000000E+00 -0.12093678478E+04  0.12093678478E+04  0.00000000000E+00 0. -1.
         35    2    1    2    0    0  0.00000000000E+00  0.00000000000E+00 -0.11938742687E+04  0.12248614269E+04  0.27376951215E+03 0.  0.
         25    2    3    3    0    0  0.24749877581E+02 -0.43365600366E+02 -0.69878425585E+03  0.71172990067E+03  0.12556625161E+03 0.  0.
         25    2    3    3    0    0 -0.24749877581E+02  0.43365600366E+02 -0.49509001282E+03  0.51313152626E+03  0.12528651449E+03 0.  0.
          5    1    4    4  502    0  0.13478667161E+02  0.35547956222E+02 -0.41975406728E+03  0.42149839698E+03  0.47000000000E+01 0. -1.
         -5    1    4    4    0  502  0.11271210420E+02 -0.78913556588E+02 -0.27903018858E+03  0.29023150369E+03  0.47000000000E+01 0. -1.
          5    1    5    5  503    0  0.23610092787E+02 -0.15436175694E+02 -0.28593892539E+02  0.40440236052E+02  0.47000000000E+01 0.  1.
         -5    1    5    5    0  503 -0.48359970368E+02  0.58801776060E+02 -0.46649612028E+03  0.47269129020E+03  0.47000000000E+01 0.  1.
<mgrwt>
<rscale>  0 0.27376951E+03</rscale>
<asrwt>0</asrwt>
<pdfrwt beam="1">  1        1 0.18605665E+00 0.27376951E+03</pdfrwt>
<pdfrwt beam="2">  1       -1 0.23836268E-02 0.27376951E+03</pdfrwt>
<totfact> 0.59734766E+03</totfact>
</mgrwt>
</event>
<event>
 9    1  0.8285222E-001  0.2755209E+03  0.7818608E-02  0.1098161E+00
         -2   -1    0    0    0  501 -0.00000000000E+00  0.00000000000E+00  0.69069048601E+01  0.69069048601E+01  0.00000000000E+00 0.  1.
          2   -1    0    0  501    0  0.00000000000E+00 -0.00000000000E+00 -0.27476772504E+04  0.27476772504E+04  0.00000000000E+00 0.  1.
         35    2    1    2    0    0  0.00000000000E+00 -0.71054273576E-14 -0.27407703455E+04  0.27545841553E+04  0.27552092737E+03 0.  0.
         25    2    3    3    0    0  0.32806683721E+02 -0.35254277416E+02 -0.17154037457E+04  0.17204501146E+04  0.12255383868E+03 0.  0.
         25    2    3    3    0    0 -0.32806683721E+02  0.35254277416E+02 -0.10253665998E+04  0.10341340406E+04  0.12544882416E+03 0.  0.
          5    1    4    4  502    0  0.78923975750E+02 -0.12980076935E+02 -0.10079977544E+04  0.10111770563E+04  0.47000000000E+01 0.  1.
         -5    1    4    4    0  502 -0.46117292029E+02 -0.22274200481E+02 -0.70740599134E+03  0.70927305829E+03  0.47000000000E+01 0.  1.
          5    1    5    5  503    0 -0.17341302906E+02 -0.46330640496E+02 -0.46128728957E+03  0.46395614292E+03  0.47000000000E+01 0. -1.
         -5    1    5    5    0  503 -0.15465380816E+02  0.81584917912E+02 -0.56407931023E+03  0.57017789773E+03  0.47000000000E+01 0. -1.
<mgrwt>
<rscale>  0 0.27552093E+03</rscale>
<asrwt>0</asrwt>
<pdfrwt beam="1">  1        2 0.42271966E+00 0.27552093E+03</pdfrwt>
<pdfrwt beam="2">  1       -2 0.10626005E-02 0.27552093E+03</pdfrwt>
<totfact> 0.56957933E+03</totfact>
</mgrwt>
</event>
<event>
 9    1  0.8285222E-001  0.2793283E+03  0.7818608E-02  0.1096056E+00
          1   -1    0    0  501    0  0.00000000000E+00  0.00000000000E+00  0.11231626681E+03  0.11231626681E+03  0.00000000000E+00 0.  1.
         -1   -1    0    0    0  501 -0.00000000000E+00 -0.00000000000E+00 -0.17367098111E+03  0.17367098111E+03  0.00000000000E+00 0.  1.
         35    2    1    2    0    0  0.00000000000E+00  0.71054273576E-14 -0.61354714296E+02  0.28598724791E+03  0.27932831042E+03 0.  0.
         25    2    3    3    0    0  0.38978695614E+02  0.44646761399E+02 -0.87155640492E+01  0.13861094432E+03  0.12499744323E+03 0.  0.
         25    2    3    3    0    0 -0.38978695614E+02 -0.44646761399E+02 -0.52639150247E+02  0.14737630360E+03  0.12424259619E+03 0.  0.
          5    1    4    4  502    0  0.73065042824E+02 -0.50982649601E+01 -0.22126612812E+02  0.76656179027E+02  0.47000000000E+01 0. -1.
         -5    1    4    4    0  502 -0.34086347210E+02  0.49745026359E+02  0.13411048762E+02  0.61954765293E+02  0.47000000000E+01 0. -1.
          5    1    5    5  503    0  0.23260550801E+02 -0.53693271744E+02 -0.59925842427E+02  0.83888123383E+02  0.47000000000E+01 0. -1.
         -5    1    5    5    0  503 -0.62239246415E+02  0.90465103457E+01  0.72866921796E+01  0.63488180212E+02  0.47000000000E+01 0. -1.
<mgrwt>
<rscale>  0 0.27932831E+03</rscale>
<asrwt>0</asrwt>
<pdfrwt beam="1">  1        1 0.17279426E-01 0.27932831E+03</pdfrwt>
<pdfrwt beam="2">  1       -1 0.26718612E-01 0.27932831E+03</pdfrwt>
<totfact> 0.38298275E+03</totfact>
</mgrwt>
</event>
<event>
 9    1  0.8285222E-001  0.2780285E+03  0.7818608E-02  0.1096771E+00
         -4   -1    0    0    0  501 -0.00000000000E+00  0.00000000000E+00  0.11057407380E+04  0.11057407380E+04  0.00000000000E+00 0.  1.
          4   -1    0    0  501    0  0.00000000000E+00 -0.00000000000E+00 -0.17476934521E+02  0.17476934521E+02  0.00000000000E+00 0.  1.
         35    2    1    2    0    0  0.00000000000E+00  0.00000000000E+00  0.10882638035E+04  0.11232176725E+04  0.27802847678E+03 0.  0.
         25    2    3    3    0    0 -0.42068209311E+02  0.30506918056E+02  0.68713551279E+03  0.69987684497E+03  0.12236003799E+03 0.  0.
         25    2    3    3    0    0  0.42068209311E+02 -0.30506918056E+02  0.40112829070E+03  0.42334082757E+03  0.12495256861E+03 0.  0.
          5    1    4    4  502    0 -0.58902772648E+02 -0.17682498228E+02  0.18242724327E+03  0.19257205523E+03  0.47000000000E+01 0. -1.
         -5    1    4    4    0  502  0.16834563337E+02  0.48189416284E+02  0.50470826952E+03  0.50730478974E+03  0.47000000000E+01 0. -1.
          5    1    5    5  503    0  0.49866187130E+01  0.35801791297E+02  0.39339527283E+02  0.53631362402E+02  0.47000000000E+01 0. -1.
         -5    1    5    5    0  503  0.37081590598E+02 -0.66308709353E+02  0.36178876342E+03  0.36970946516E+03  0.47000000000E+01 0. -1.
<mgrwt>
<rscale>  0 0.27802848E+03</rscale>
<asrwt>0</asrwt>
<pdfrwt beam="1">  1        4 0.26887600E-02 0.27802848E+03</pdfrwt>
<pdfrwt beam="2">  1       -4 0.17011390E+00 0.27802848E+03</pdfrwt>
<totfact> 0.27212899E+02</totfact>
</mgrwt>
</event>
<event>
 9    1  0.8285222E-001  0.2753890E+03  0.7818608E-02  0.1098234E+00
          2   -1    0    0  501    0  0.00000000000E+00  0.00000000000E+00  0.37878979724E+02  0.37878979724E+02  0.00000000000E+00 0.  1.
         -2   -1    0    0    0  501 -0.00000000000E+00 -0.00000000000E+00 -0.50053536000E+03  0.50053536000E+03  0.00000000000E+00 0.  1.
         35    2    1    2    0    0  0.53290705182E-14  0.00000000000E+00 -0.46265638028E+03  0.53841433973E+03  0.27538895223E+03 0.  0.
         25    2    3    3    0    0 -0.15918658955E+02  0.38052808831E+02 -0.29149724159E+03  0.32163176583E+03  0.12951807199E+03 0.  0.
         25    2    3    3    0    0  0.15918658955E+02 -0.38052808831E+02 -0.17115913869E+03  0.21678257390E+03  0.12648246372E+03 0.  0.
          5    1    4    4  502    0 -0.34459783651E+01 -0.16915270956E+02  0.59500505309E+01  0.18854555411E+02  0.47000000000E+01 0.  1.
         -5    1    4    4    0  502 -0.12472680590E+02  0.54968079787E+02 -0.29744729212E+03  0.30277721042E+03  0.47000000000E+01 0.  1.
          5    1    5    5  503    0 -0.35425603847E+02  0.20450947911E+01 -0.13983550176E+03  0.14434407979E+03  0.47000000000E+01 0.  1.
         -5    1    5    5    0  503  0.51344262802E+02 -0.40097903622E+02 -0.31323636932E+02  0.72438494105E+02  0.47000000000E+01 0.  1.
<mgrwt>
<rscale>  0 0.27538895E+03</rscale>
<asrwt>0</asrwt>
<pdfrwt beam="1">  1        2 0.58275355E-02 0.27538895E+03</pdfrwt>
<pdfrwt beam="2">  1       -2 0.77005438E-01 0.27538895E+03</pdfrwt>
<totfact> 0.19855134E+03</totfact>
</mgrwt>
</event>
<event>
 9    1  0.8285222E-001  0.2739185E+03  0.7818608E-02  0.1099058E+00
          3   -1    0    0  501    0  0.00000000000E+00  0.00000000000E+00  0.18134802957E+02  0.18134802957E+02  0.00000000000E+00 0. -1.
         -3   -1    0    0    0  501 -0.00000000000E+00 -0.00000000000E+00 -0.10343553090E+04  0.10343553090E+04  0.00000000000E+00 0. -1.
         35    2    1    2    0    0  0.00000000000E+00  0.17763568394E-14 -0.10162205060E+04  0.10524901120E+04  0.27391845294E+03 0.  0.
         25    2    3    3    0    0  0.50513196224E+02 -0.15119161639E+02 -0.58083183580E+03  0.59650210227E+03  0.12517573443E+03 0.  0.
         25    2    3    3    0    0 -0.50513196224E+02  0.15119161639E+02 -0.43538867025E+03  0.45598800969E+03  0.12482627433E+03 0.  0.
          5    1    4    4  502    0  0.67656858627E+02 -0.95573681467E+01 -0.14594639470E+03  0.16121797025E+03  0.47000000000E+01 0. -1.
         -5    1    4    4    0  502 -0.17143662403E+02 -0.55617934918E+01 -0.43488544110E+03  0.43528413202E+03  0.47000000000E+01 0. -1.
          5    1    5    5  503    0 -0.94945483917E+01  0.14306421219E+02 -0.40329593439E+03  0.40368864342E+03  0.47000000000E+01 0.  1.
         -5    1    5    5    0  503 -0.41018647832E+02  0.81274041997E+00 -0.32092735860E+02  0.52299366268E+02  0.47000000000E+01 0.  1.
<mgrwt>
<rscale>  0 0.27391845E+03</rscale>
<asrwt>0</asrwt>
<pdfrwt beam="1">  1        3 0.27899690E-02 0.27391845E+03</pdfrwt>
<pdfrwt beam="2">  1       -3 0.15913162E+00 0.27391845E+03</pdfrwt>
<totfact> 0.42513000E+02</totfact>
</mgrwt>
</event>
<event>
 9    1  0.8285222E-001  0.2760119E+03  0.7818608E-02  0.1097887E+00
          3   -1    0    0  501    0  0.00000000000E+00  0.00000000000E+00  0.14031247695E+03  0.14031247695E+03  0.00000000000E+00 0. -1.
         -3   -1    0    0    0  501 -0.00000000000E+00 -0.00000000000E+00 -0.13573729471E+03  0.13573729471E+03  0.00000000000E+00 0. -1.
         35    2    1    2    0    0  0.00000000000E+00 -0.71054273576E-14  0.45751822360E+01  0.27604977166E+03  0.27601185507E+03 0.  0.
         25    2    3    3    0    0  0.28649554410E+02  0.41170634822E+02 -0.28216812980E+02  0.13732536958E+03  0.12468460392E+03 0.  0.
         25    2    3    3    0    0 -0.28649554410E+02 -0.41170634822E+02  0.32791995216E+02  0.13872440208E+03  0.12511325526E+03 0.  0.
          5    1    4    4  502    0 -0.46586023395E+02  0.33569587179E+02 -0.38609264256E+01  0.57742285303E+02  0.47000000000E+01 0.  1.
         -5    1    4    4    0  502  0.75235577805E+02  0.76010476427E+01 -0.24355886555E+02  0.79583084275E+02  0.47000000000E+01 0.  1.
          5    1    5    5  503    0 -0.22062725814E+02 -0.22605886862E+02 -0.46765716287E+02  0.56629605429E+02  0.47000000000E+01 0.  1.
         -5    1    5    5    0  503 -0.65868285964E+01 -0.18564747960E+02  0.79557711503E+02  0.82094796653E+02  0.47000000000E+01 0.  1.
<mgrwt>
<rscale>  0 0.27601186E+03</rscale>
<asrwt>0</asrwt>
<pdfrwt beam="1">  1        3 0.21586535E-01 0.27601186E+03</pdfrwt>
<pdfrwt beam="2">  1       -3 0.20882661E-01 0.27601186E+03</pdfrwt>
<totfact> 0.10355485E+03</totfact>
</mgrwt>
</event>
<event>
 9    1  0.8285222E-001  0.2759502E+03  0.7818608E-02  0.1097922E+00
          2   -1    0    0  501    0  0.00000000000E+00  0.00000000000E+00  0.23815397357E+03  0.23815397357E+03  0.00000000000E+00 0. -1.
         -2   -1    0    0    0  501 -0.00000000000E+00 -0.00000000000E+00 -0.79936212408E+02  0.79936212408E+02  0.00000000000E+00 0. -1.
         35    2    1    2    0    0 -0.35527136788E-14  0.00000000000E+00  0.15821776116E+03  0.31809018598E+03  0.27595018838E+03 0.  0.
         25    2    3    3    0    0 -0.28576444991E+02  0.49317217695E+02  0.84294647403E+02  0.16208973296E+03  0.12616930205E+03 0.  0.
         25    2    3    3    0    0  0.28576444991E+02 -0.49317217695E+02  0.73923113756E+02  0.15600045302E+03  0.12499085337E+03 0.  0.
          5    1    4    4  502    0  0.46950960037E+02  0.67835415707E+01  0.12095443948E+02  0.49181285556E+02  0.47000000000E+01 0. -1.
         -5    1    4    4    0  502 -0.75527405028E+02  0.42533676124E+02  0.72199203455E+02  0.11290844740E+03  0.47000000000E+01 0. -1.
          5    1    5    5  503    0 -0.21474172351E+02 -0.49191376291E+01 -0.26787873723E+02  0.35000259595E+02  0.47000000000E+01 0. -1.
         -5    1    5    5    0  503  0.50050617342E+02 -0.44398080066E+02  0.10071098748E+03  0.12100019342E+03  0.47000000000E+01 0. -1.
<mgrwt>
<rscale>  0 0.27595019E+03</rscale>
<asrwt>0</asrwt>
<pdfrwt beam="1">  1        2 0.36639073E-01 0.27595019E+03</pdfrwt>
<pdfrwt beam="2">  1       -2 0.12297879E-01 0.27595019E+03</pdfrwt>
<totfact> 0.66319405E+03</totfact>
</mgrwt>
</event>
<event>
 9    1  0.8285222E-001  0.2756209E+03  0.7818608E-02  0.1098105E+00
          2   -1    0    0  501    0  0.00000000000E+00  0.00000000000E+00  0.46508479719E+03  0.46508479719E+03  0.00000000000E+00 0.  1.
         -2   -1    0    0    0  501 -0.00000000000E+00 -0.00000000000E+00 -0.40834971322E+02  0.40834971322E+02  0.00000000000E+00 0.  1.
         35    2    1    2    0    0  0.00000000000E+00  0.00000000000E+00  0.42424982587E+03  0.50591976851E+03  0.27562093067E+03 0.  0.
         25    2    3    3    0    0 -0.11975041472E+02 -0.27930218605E+02  0.11549942717E+03  0.17221771110E+03  0.12407789331E+03 0.  0.
         25    2    3    3    0    0  0.11975041472E+02  0.27930218605E+02  0.30875039870E+03  0.33370205742E+03  0.12290954275E+03 0.  0.
          5    1    4    4  502    0  0.14244745347E+02 -0.56731630148E+02  0.98275178545E+01  0.59498409528E+02  0.47000000000E+01 0. -1.
         -5    1    4    4    0  502 -0.26219786819E+02  0.28801411543E+02  0.10567190931E+03  0.11271930157E+03  0.47000000000E+01 0. -1.
          5    1    5    5  503    0 -0.47787181204E+02  0.13509905854E+02  0.63117146102E+02  0.80448718919E+02  0.47000000000E+01 0. -1.
         -5    1    5    5    0  503  0.59762222676E+02  0.14420312752E+02  0.24563325260E+03  0.25325333850E+03  0.47000000000E+01 0. -1.
<mgrwt>
<rscale>  0 0.27562093E+03</rscale>
<asrwt>0</asrwt>
<pdfrwt beam="1">  1        2 0.71551504E-01 0.27562093E+03</pdfrwt>
<pdfrwt beam="2">  1       -2 0.62823036E-02 0.27562093E+03</pdfrwt>
<totfact> 0.92548245E+03</totfact>
</mgrwt>
</event>
<event>
 9    1  0.8285222E-001  0.2749396E+03  0.7818608E-02  0.1098485E+00
          4   -1    0    0  501    0  0.00000000000E+00  0.00000000000E+00  0.27715971180E+02  0.27715971180E+02  0.00000000000E+00 0. -1.
         -4   -1    0    0    0  501 -0.00000000000E+00 -0.00000000000E+00 -0.68184306831E+03  0.68184306831E+03  0.00000000000E+00 0. -1.
         35    2    1    2    0    0  0.71054273576E-14 -0.17763568394E-14 -0.65412709713E+03  0.70955903949E+03  0.27493957758E+03 0.  0.
         25    2    3    3    0    0  0.18686333304E+02 -0.12472954048E+02 -0.45954653499E+03  0.47692441672E+03  0.12557518784E+03 0.  0.
         25    2    3    3    0    0 -0.18686333304E+02  0.12472954048E+02 -0.19458056214E+03  0.23263462278E+03  0.12550903918E+03 0.  0.
          5    1    4    4  502    0 -0.51168441594E+02 -0.44648210471E+01 -0.26585652073E+03  0.27081344807E+03  0.47000000000E+01 0.  1.
         -5    1    4    4    0  502  0.69854774898E+02 -0.80081330005E+01 -0.19369001427E+03  0.20611096865E+03  0.47000000000E+01 0.  1.
          5    1    5    5  503    0  0.31449198315E+02  0.62873434515E+01 -0.17544153352E+03  0.17841077446E+03  0.47000000000E+01 0.  1.
         -5    1    5    5    0  503 -0.50135531619E+02  0.61856105961E+01 -0.19139028625E+02  0.54223848313E+02  0.47000000000E+01 0.  1.
<mgrwt>
<rscale>  0 0.27493958E+03</rscale>
<asrwt>0</asrwt>
<pdfrwt beam="1">  1        4 0.42639957E-02 0.27493958E+03</pdfrwt>
<pdfrwt beam="2">  1       -4 0.10489893E+00 0.27493958E+03</pdfrwt>
<totfact> 0.44098060E+02</totfact>
</mgrwt>
</event>
<event>
 9    1  0.8285222E-001  0.2757991E+03  0.7818608E-02  0.1098006E+00
          2   -1    0    0  501    0  0.00000000000E+00  0.00000000000E+00  0.18654654227E+04  0.18654654227E+04  0.00000000000E+00 0. -1.
         -2   -1    0    0    0  501 -0.00000000000E+00 -0.00000000000E+00 -0.10193857729E+02  0.10193857729E+02  0.00000000000E+00 0. -1.
         35    2    1    2    0    0  0.00000000000E+00  0.35527136788E-14  0.18552715650E+04  0.18756592804E+04  0.27579912340E+03 0.  0.
         25    2    3    3    0    0  0.54799706823E+02  0.24745743910E+02  0.91352578324E+03  0.92416196036E+03  0.12621653074E+03 0.  0.
         25    2    3    3    0    0 -0.54799706823E+02 -0.24745743910E+02  0.94174578173E+03  0.95149732006E+03  0.12184692433E+03 0.  0.
          5    1    4    4  502    0  0.53591020971E+02 -0.83272946273E+01  0.14456265457E+03  0.15447262690E+03  0.47000000000E+01 0. -1.
         -5    1    4    4    0  502  0.12086858526E+01  0.33073038538E+02  0.76896312867E+03  0.76968933346E+03  0.47000000000E+01 0. -1.
          5    1    5    5  503    0 -0.90639069131E+02 -0.26104882384E+02  0.54652458658E+03  0.55462430480E+03  0.47000000000E+01 0. -1.
         -5    1    5    5    0  503  0.35839362307E+02  0.13591384733E+01  0.39522119515E+03  0.39687301526E+03  0.47000000000E+01 0. -1.
<mgrwt>
<rscale>  0 0.27579912E+03</rscale>
<asrwt>0</asrwt>
<pdfrwt beam="1">  1        2 0.28699441E+00 0.27579912E+03</pdfrwt>
<pdfrwt beam="2">  1       -2 0.15682873E-02 0.27579912E+03</pdfrwt>
<totfact> 0.96644575E+03</totfact>
</mgrwt>
</event>
<event>
 9    1  0.8285222E-001  0.2746924E+03  0.7818608E-02  0.1098624E+00
          1   -1    0    0  501    0  0.00000000000E+00  0.00000000000E+00  0.16443166715E+03  0.16443166715E+03  0.00000000000E+00 0. -1.
         -1   -1    0    0    0  501 -0.00000000000E+00 -0.00000000000E+00 -0.11472231934E+03  0.11472231934E+03  0.00000000000E+00 0. -1.
         35    2    1    2    0    0  0.00000000000E+00  0.00000000000E+00  0.49709347813E+02  0.27915398649E+03  0.27469242602E+03 0.  0.
         25    2    3    3    0    0  0.34221024575E+02 -0.44240587565E+02  0.40537656926E+02  0.14316176091E+03  0.12539409893E+03 0.  0.
         25    2    3    3    0    0 -0.34221024575E+02  0.44240587565E+02  0.91716908873E+01  0.13599222558E+03  0.12361819200E+03 0.  0.
          5    1    4    4  502    0 -0.66435142120E+01 -0.61500919883E+02 -0.22453129770E+02  0.65975241296E+02  0.47000000000E+01 0. -1.
         -5    1    4    4    0  502  0.40864538787E+02  0.17260332319E+02  0.62990786695E+02  0.77186519617E+02  0.47000000000E+01 0. -1.
          5    1    5    5  503    0 -0.75470870942E+02  0.54119573934E+02  0.73180842792E+01  0.93276068748E+02  0.47000000000E+01 0. -1.
         -5    1    5    5    0  503  0.41249846367E+02 -0.98789863688E+01  0.18536066080E+01  0.42716156831E+02  0.47000000000E+01 0. -1.
<mgrwt>
<rscale>  0 0.27469243E+03</rscale>
<asrwt>0</asrwt>
<pdfrwt beam="1">  1        1 0.25297180E-01 0.27469243E+03</pdfrwt>
<pdfrwt beam="2">  1       -1 0.17649588E-01 0.27469243E+03</pdfrwt>
<totfact> 0.46283712E+03</totfact>
</mgrwt>
</event>
<event>
 9    1  0.8285222E-001  0.2745761E+03  0.7818608E-02  0.1098689E+00
         -1   -1    0    0    0  501 -0.00000000000E+00  0.00000000000E+00  0.53197503978E+02  0.53197503978E+02  0.00000000000E+00 0. -1.
          1   -1    0    0  501    0  0.00000000000E+00 -0.00000000000E+00 -0.35430238792E+03  0.35430238792E+03  0.00000000000E+00 0. -1.
         35    2    1    2    0    0  0.00000000000E+00 -0.35527136788E-14 -0.30110488394E+03  0.40749989190E+03  0.27457605643E+03 0.  0.
         25    2    3    3    0    0  0.52434075472E+02 -0.53761196068E+01 -0.14263608952E+03  0.19668047464E+03  0.12473940892E+03 0.  0.
         25    2    3    3    0    0 -0.52434075472E+02  0.53761196068E+01 -0.15846879442E+03  0.21081941726E+03  0.12866325410E+03 0.  0.
          5    1    4    4  502    0  0.22261106390E+02 -0.38942900283E+02  0.19462886824E+01  0.45144040358E+02  0.47000000000E+01 0. -1.
         -5    1    4    4    0  502  0.30172969083E+02  0.33566780677E+02 -0.14458237820E+03  0.15153643428E+03  0.47000000000E+01 0. -1.
          5    1    5    5  503    0  0.33280474347E+02  0.32882255053E+02 -0.38576303888E+02  0.60819847844E+02  0.47000000000E+01 0.  1.
         -5    1    5    5    0  503 -0.85714549819E+02 -0.27506135446E+02 -0.11989249054E+03  0.14999956942E+03  0.47000000000E+01 0.  1.
<mgrwt>
<rscale>  0 0.27457606E+03</rscale>
<asrwt>0</asrwt>
<pdfrwt beam="1">  1        1 0.54508060E-01 0.27457606E+03</pdfrwt>
<pdfrwt beam="2">  1       -1 0.81842314E-02 0.27457606E+03</pdfrwt>
<totfact> 0.58531478E+03</totfact>
</mgrwt>
</event>
<event>
 9    1  0.8285222E-001  0.2753354E+03  0.7818608E-02  0.1098264E+00
          2   -1    0    0  501    0  0.00000000000E+00  0.00000000000E+00  0.66508180313E+03  0.66508180313E+03  0.00000000000E+00 0.  1.
         -2   -1    0    0    0  501 -0.00000000000E+00 -0.00000000000E+00 -0.28496344050E+02  0.28496344050E+02  0.00000000000E+00 0.  1.
         35    2    1    2    0    0 -0.35527136788E-14  0.00000000000E+00  0.63658545908E+03  0.69357814718E+03  0.27533543095E+03 0.  0.
         25    2    3    3    0    0 -0.31148969792E+02 -0.46002326131E+02  0.35007641385E+03  0.37620127245E+03  0.12604534710E+03 0.  0.
         25    2    3    3    0    0  0.31148969792E+02  0.46002326131E+02  0.28650904522E+03  0.31737687473E+03  0.12471637940E+03 0.  0.
          5    1    4    4  502    0 -0.75074756773E+02 -0.10204834868E+02  0.14875635668E+03  0.16700569275E+03  0.47000000000E+01 0.  1.
         -5    1    4    4    0  502  0.43925786980E+02 -0.35797491263E+02  0.20132005718E+03  0.20919557970E+03  0.47000000000E+01 0.  1.
          5    1    5    5  503    0  0.34778255193E+02  0.66373384918E+02  0.79747850770E+02  0.10952973552E+03  0.47000000000E+01 0. -1.
         -5    1    5    5    0  503 -0.36292854006E+01 -0.20371058787E+02  0.20676119445E+03  0.20784713921E+03  0.47000000000E+01 0. -1.
<mgrwt>
<rscale>  0 0.27533543E+03</rscale>
<asrwt>0</asrwt>
<pdfrwt beam="1">  1        2 0.10232027E+00 0.27533543E+03</pdfrwt>
<pdfrwt beam="2">  1       -2 0.43840534E-02 0.27533543E+03</pdfrwt>
<totfact> 0.10632141E+04</totfact>
</mgrwt>
</event>
<event>
 9    1  0.8285222E-001  0.2718874E+03  0.7818608E-02  0.1100204E+00
         -2   -1    0    0    0  501 -0.00000000000E+00  0.00000000000E+00  0.18917421082E+02  0.18917421082E+02  0.00000000000E+00 0.  1.
          2   -1    0    0  501    0  0.00000000000E+00 -0.00000000000E+00 -0.97691389182E+03  0.97691389182E+03  0.00000000000E+00 0.  1.
         35    2    1    2    0    0  0.71054273576E-14 -0.71054273576E-14 -0.95799647074E+03  0.99583131290E+03  0.27188741385E+03 0.  0.
         25    2    3    3    0    0  0.36643610542E+02  0.37161294223E+02 -0.48051547950E+03  0.49923556768E+03  0.12496923630E+03 0.  0.
         25    2    3    3    0    0 -0.36643610542E+02 -0.37161294223E+02 -0.47748099124E+03  0.49659574522E+03  0.12607744125E+03 0.  0.
          5    1    4    4  502    0  0.79531007935E+02  0.33074342836E+02 -0.24441871660E+03  0.25919431398E+03  0.47000000000E+01 0. -1.
         -5    1    4    4    0  502 -0.42887397393E+02  0.40869513864E+01 -0.23609676290E+03  0.24004125370E+03  0.47000000000E+01 0. -1.
          5    1    5    5  503    0  0.45170137029E+02 -0.22343113546E+02 -0.13616508506E+03  0.14526725849E+03  0.47000000000E+01 0. -1.
         -5    1    5    5    0  503 -0.81813747571E+02 -0.14818180676E+02 -0.34131590618E+03  0.35132848672E+03  0.47000000000E+01 0. -1.
<mgrwt>
<rscale>  0 0.27188741E+03</rscale>
<asrwt>0</asrwt>
<pdfrwt beam="1">  1        2 0.15029443E+00 0.27188741E+03</pdfrwt>
<pdfrwt beam="2">  1       -2 0.29103728E-02 0.27188741E+03</pdfrwt>
<totfact> 0.11989669E+04</totfact>
</mgrwt>
</event>
<event>
 9    1  0.8285222E-001  0.2752922E+03  0.7818608E-02  0.1098288E+00
          2   -1    0    0  501    0  0.00000000000E+00  0.00000000000E+00  0.20328235453E+03  0.20328235453E+03  0.00000000000E+00 0.  1.
         -2   -1    0    0    0  501 -0.00000000000E+00 -0.00000000000E+00 -0.93202601797E+02  0.93202601797E+02  0.00000000000E+00 0.  1.
         35    2    1    2    0    0  0.00000000000E+00  0.35527136788E-14  0.11007975273E+03  0.29648495632E+03  0.27529216728E+03 0.  0.
         25    2    3    3    0    0  0.29567346457E+02 -0.61636354812E+01  0.10807826834E+03  0.16780004955E+03  0.12475466390E+03 0.  0.
         25    2    3    3    0    0 -0.29567346457E+02  0.61636354812E+01  0.20014843935E+01  0.12868490677E+03  0.12507430157E+03 0.  0.
          5    1    4    4  502    0 -0.27214857085E+02  0.36987849999E+02  0.77187241203E+02  0.89937254229E+02  0.47000000000E+01 0. -1.
         -5    1    4    4    0  502  0.56782203541E+02 -0.43151485480E+02  0.30891027133E+02  0.77862795322E+02  0.47000000000E+01 0. -1.
          5    1    5    5  503    0 -0.63445542468E+02  0.36863626741E+02 -0.22115358929E+02  0.76781787789E+02  0.47000000000E+01 0.  1.
         -5    1    5    5    0  503  0.33878196012E+02 -0.30699991260E+02  0.24116843322E+02  0.51903118983E+02  0.47000000000E+01 0.  1.
<mgrwt>
<rscale>  0 0.27529217E+03</rscale>
<asrwt>0</asrwt>
<pdfrwt beam="1">  1        2 0.31274208E-01 0.27529217E+03</pdfrwt>
<pdfrwt beam="2">  1       -2 0.14338862E-01 0.27529217E+03</pdfrwt>
<totfact> 0.61326860E+03</totfact>
</mgrwt>
</event>
<event>
 9    1  0.8285222E-001  0.2760248E+03  0.7818608E-02  0.1097880E+00
          1   -1    0    0  501    0  0.00000000000E+00  0.00000000000E+00  0.32697462698E+04  0.32697462698E+04  0.00000000000E+00 0. -1.
         -1   -1    0    0    0  501 -0.00000000000E+00 -0.00000000000E+00 -0.58253521440E+01  0.58253521440E+01  0.00000000000E+00 0. -1.
         35    2    1    2    0    0  0.00000000000E+00  0.71054273576E-14  0.32639209176E+04  0.32755716219E+04  0.27602480644E+03 0.  0.
         25    2    3    3    0    0 -0.39682019998E+02 -0.26556148491E+02  0.12390528170E+04  0.12462580308E+04  0.12500921637E+03 0.  0.
         25    2    3    3    0    0  0.39682019998E+02  0.26556148491E+02  0.20248681006E+04  0.20293135911E+04  0.12547085154E+03 0.  0.
          5    1    4    4  502    0  0.24737026921E+02 -0.14483661350E+02  0.76180004591E+02  0.81530240074E+02  0.47000000000E+01 0. -1.
         -5    1    4    4    0  502 -0.64419046919E+02 -0.12072487142E+02  0.11628728124E+04  0.11647277907E+04  0.47000000000E+01 0. -1.
          5    1    5    5  503    0  0.54701776638E+02 -0.34992557194E+02  0.73350816024E+03  0.73639193000E+03  0.47000000000E+01 0.  1.
         -5    1    5    5    0  503 -0.15019756640E+02  0.61548705685E+02  0.12913599404E+04  0.12929216611E+04  0.47000000000E+01 0.  1.
<mgrwt>
<rscale>  0 0.27602481E+03</rscale>
<asrwt>0</asrwt>
<pdfrwt beam="1">  1        1 0.50303642E+00 0.27602481E+03</pdfrwt>
<pdfrwt beam="2">  1       -1 0.89621063E-03 0.27602481E+03</pdfrwt>
<totfact> 0.10242403E+03</totfact>
</mgrwt>
</event>
<event>
 9    1  0.8285222E-001  0.2756193E+03  0.7818608E-02  0.1098106E+00
         -1   -1    0    0    0  501 -0.00000000000E+00  0.00000000000E+00  0.76873150470E+01  0.76873150470E+01  0.00000000000E+00 0.  1.
          1   -1    0    0  501    0  0.00000000000E+00 -0.00000000000E+00 -0.24704978918E+04  0.24704978918E+04  0.00000000000E+00 0.  1.
         35    2    1    2    0    0 -0.71054273576E-14  0.00000000000E+00 -0.24628105767E+04  0.24781852068E+04  0.27561927086E+03 0.  0.
         25    2    3    3    0    0 -0.53353100787E+02 -0.36153910324E+00 -0.14288514373E+04  0.14353726032E+04  0.12582287639E+03 0.  0.
         25    2    3    3    0    0  0.53353100787E+02  0.36153910324E+00 -0.10339591394E+04  0.10428126036E+04  0.12465929600E+03 0.  0.
          5    1    4    4  502    0 -0.52302525280E+02  0.55948510545E+02 -0.65967868835E+03  0.66412638243E+03  0.47000000000E+01 0.  1.
         -5    1    4    4    0  502 -0.10505755073E+01 -0.56310049648E+02 -0.76917274891E+03  0.77124622078E+03  0.47000000000E+01 0.  1.
          5    1    5    5  503    0 -0.25316304552E+02 -0.38520801647E+02 -0.28947729411E+03  0.29316200511E+03  0.47000000000E+01 0.  1.
         -5    1    5    5    0  503  0.78669405339E+02  0.38882340750E+02 -0.74448184534E+03  0.74965059847E+03  0.47000000000E+01 0.  1.
<mgrwt>
<rscale>  0 0.27561927E+03</rscale>
<asrwt>0</asrwt>
<pdfrwt beam="1">  1        1 0.38007725E+00 0.27561927E+03</pdfrwt>
<pdfrwt beam="2">  1       -1 0.11826618E-02 0.27561927E+03</pdfrwt>
<totfact> 0.24465867E+03</totfact>
</mgrwt>
</event>
<event>
 9    1  0.8285222E-001  0.2753931E+03  0.7818608E-02  0.1098232E+00
         -1   -1    0    0    0  501 -0.00000000000E+00  0.00000000000E+00  0.61830657964E+02  0.61830657964E+02  0.00000000000E+00 0.  1.
          1   -1    0    0  501    0  0.00000000000E+00 -0.00000000000E+00 -0.30664960256E+03  0.30664960256E+03  0.00000000000E+00 0.  1.
         35    2    1    2    0    0 -0.35527136788E-14  0.00000000000E+00 -0.24481894460E+03  0.36848026053E+03  0.27539314945E+03 0.  0.
         25    2    3    3    0    0  0.25253810455E+02  0.45407985086E+02 -0.14873161034E+03  0.20139301027E+03  0.12545283026E+03 0.  0.
         25    2    3    3    0    0 -0.25253810455E+02 -0.45407985086E+02 -0.96087334262E+02  0.16708725025E+03  0.12643469990E+03 0.  0.
          5    1    4    4  502    0 -0.14230748823E+01  0.59184205187E+02 -0.11061886277E+02  0.60409027585E+02  0.47000000000E+01 0.  1.
         -5    1    4    4    0  502  0.26676885338E+02 -0.13776220101E+02 -0.13766972406E+03  0.14098398269E+03  0.47000000000E+01 0.  1.
          5    1    5    5  503    0 -0.64186386221E+02 -0.60213200985E+02 -0.87710966244E+02  0.12434156726E+03  0.47000000000E+01 0.  1.
         -5    1    5    5    0  503  0.38932575766E+02  0.14805215899E+02 -0.83763680180E+01  0.42745682995E+02  0.47000000000E+01 0.  1.
<mgrwt>
<rscale>  0 0.27539315E+03</rscale>
<asrwt>0</asrwt>
<pdfrwt beam="1">  1        1 0.47176861E-01 0.27539315E+03</pdfrwt>
<pdfrwt beam="2">  1       -1 0.95124090E-02 0.27539315E+03</pdfrwt>
<totfact> 0.55774046E+03</totfact>
</mgrwt>
</event>
<event>
 9    1  0.8285222E-001  0.2738767E+03  0.7818608E-02  0.1099081E+00
         -2   -1    0    0    0  501 -0.00000000000E+00  0.00000000000E+00  0.41652689623E+02  0.41652689623E+02  0.00000000000E+00 0.  1.
          2   -1    0    0  501    0  0.00000000000E+00 -0.00000000000E+00 -0.45020167130E+03  0.45020167130E+03  0.00000000000E+00 0.  1.
         35    2    1    2    0    0 -0.88817841970E-15 -0.71054273576E-14 -0.40854898168E+03  0.49185436093E+03  0.27387669111E+03 0.  0.
         25    2    3    3    0    0 -0.37520409336E+01  0.44594385019E+02 -0.26831223085E+03  0.29900539802E+03  0.12413717346E+03 0.  0.
         25    2    3    3    0    0  0.37520409336E+01 -0.44594385019E+02 -0.14023675083E+03  0.19284896291E+03  0.12458587089E+03 0.  0.
          5    1    4    4  502    0 -0.46612852408E+01  0.68169437798E+02 -0.65491435578E+02  0.94762956707E+02  0.47000000000E+01 0.  1.
         -5    1    4    4    0  502  0.90924430720E+00 -0.23575052778E+02 -0.20282079527E+03  0.20424244131E+03  0.47000000000E+01 0.  1.
          5    1    5    5  503    0 -0.60040503857E+02 -0.23210460185E+02 -0.76002588724E+02  0.99709934601E+02  0.47000000000E+01 0. -1.
         -5    1    5    5    0  503  0.63792544791E+02 -0.21383924834E+02 -0.64234162104E+02  0.93139028304E+02  0.47000000000E+01 0. -1.
<mgrwt>
<rscale>  0 0.27387669E+03</rscale>
<asrwt>0</asrwt>
<pdfrwt beam="1">  1        2 0.69261793E-01 0.27387669E+03</pdfrwt>
<pdfrwt beam="2">  1       -2 0.64081063E-02 0.27387669E+03</pdfrwt>
<totfact> 0.93023888E+03</totfact>
</mgrwt>
</event>
<event>
 9    1  0.8285222E-001  0.2938745E+03  0.7818608E-02  0.1088343E+00
         -2   -1    0    0    0  501 -0.00000000000E+00  0.00000000000E+00  0.14848047852E+03  0.14848047852E+03  0.00000000000E+00 0. -1.
          2   -1    0    0  501    0  0.00000000000E+00 -0.00000000000E+00 -0.14541003387E+03  0.14541003387E+03  0.00000000000E+00 0. -1.
         35    2    1    2    0    0  0.00000000000E+00 -0.35527136788E-14  0.30704446542E+01  0.29389051239E+03  0.29387447259E+03 0.  0.
         25    2    3    3    0    0 -0.25434837485E+02 -0.25570027251E+01 -0.69621497619E+02  0.14698499387E+03  0.12690140374E+03 0.  0.
         25    2    3    3    0    0  0.25434837485E+02  0.25570027251E+01  0.72691942274E+02  0.14690551852E+03  0.12507455248E+03 0.  0.
          5    1    4    4  502    0  0.15011104597E+02 -0.50920338602E+02 -0.48014856326E+00  0.53296666755E+02  0.47000000000E+01 0. -1.
         -5    1    4    4    0  502 -0.40445942081E+02  0.48363335877E+02 -0.69141349056E+02  0.93688327113E+02  0.47000000000E+01 0. -1.
          5    1    5    5  503    0 -0.40367675515E+02  0.18317497155E+02  0.64755955674E+02  0.78616179784E+02  0.47000000000E+01 0.  1.
         -5    1    5    5    0  503  0.65802512999E+02 -0.15760494430E+02  0.79359865993E+01  0.68289338736E+02  0.47000000000E+01 0.  1.
<mgrwt>
<rscale>  0 0.29387447E+03</rscale>
<asrwt>0</asrwt>
<pdfrwt beam="1">  1        2 0.22370774E-01 0.29387447E+03</pdfrwt>
<pdfrwt beam="2">  1       -2 0.22843151E-01 0.29387447E+03</pdfrwt>
<totfact> 0.40583909E+03</totfact>
</mgrwt>
</event>
<event>
 9    1  0.8285222E-001  0.2690244E+03  0.7818608E-02  0.1101839E+00
          2   -1    0    0  501    0  0.00000000000E+00  0.00000000000E+00  0.93612176382E+03  0.93612176382E+03  0.00000000000E+00 0. -1.
         -2   -1    0    0    0  501 -0.00000000000E+00 -0.00000000000E+00 -0.19328181638E+02  0.19328181638E+02  0.00000000000E+00 0. -1.
         35    2    1    2    0    0  0.14210854715E-13  0.00000000000E+00  0.91679358218E+03  0.95544994545E+03  0.26902439656E+03 0.  0.
         25    2    3    3    0    0 -0.34142234843E+02  0.32993467063E+02  0.50547327152E+03  0.52288853761E+03  0.12511967659E+03 0.  0.
         25    2    3    3    0    0  0.34142234843E+02 -0.32993467063E+02  0.41132031066E+03  0.43256140785E+03  0.12518271658E+03 0.  0.
          5    1    4    4  502    0 -0.62161372010E+02  0.38320015326E+02  0.15696514973E+03  0.17318374050E+03  0.47000000000E+01 0. -1.
         -5    1    4    4    0  502  0.28019137167E+02 -0.53265482623E+01  0.34850812179E+03  0.34970479710E+03  0.47000000000E+01 0. -1.
          5    1    5    5  503    0 -0.19744835397E+02 -0.53272326266E+02  0.93307451818E+02  0.10934427207E+03  0.47000000000E+01 0.  1.
         -5    1    5    5    0  503  0.53887070240E+02  0.20278859202E+02  0.31801285884E+03  0.32321713577E+03  0.47000000000E+01 0.  1.
<mgrwt>
<rscale>  0 0.26902440E+03</rscale>
<asrwt>0</asrwt>
<pdfrwt beam="1">  1        2 0.14401870E+00 0.26902440E+03</pdfrwt>
<pdfrwt beam="2">  1       -2 0.29735671E-02 0.26902440E+03</pdfrwt>
<totfact> 0.12311231E+04</totfact>
</mgrwt>
</event>
<event>
 9    1  0.8285222E-001  0.2760271E+03  0.7818608E-02  0.1097879E+00
          2   -1    0    0  501    0  0.00000000000E+00  0.00000000000E+00  0.29653833835E+04  0.29653833835E+04  0.00000000000E+00 0.  1.
         -2   -1    0    0    0  501 -0.00000000000E+00 -0.00000000000E+00 -0.64233642962E+01  0.64233642962E+01  0.00000000000E+00 0.  1.
         35    2    1    2    0    0 -0.71054273576E-14 -0.71054273576E-14  0.29589600192E+04  0.29718067478E+04  0.27602708382E+03 0.  0.
         25    2    3    3    0    0 -0.18596086727E+02  0.42690969779E+02  0.18019534800E+04  0.18068775998E+04  0.12490789832E+03 0.  0.
         25    2    3    3    0    0  0.18596086727E+02 -0.42690969779E+02  0.11570065392E+04  0.11649291480E+04  0.12738702783E+03 0.  0.
          5    1    4    4  502    0  0.21200246069E+02 -0.31740672351E+02  0.28668762161E+03  0.28925560167E+03  0.47000000000E+01 0. -1.
         -5    1    4    4    0  502 -0.39796332796E+02  0.74431642130E+02  0.15152658584E+04  0.15176219981E+04  0.47000000000E+01 0. -1.
          5    1    5    5  503    0 -0.46254533899E+02 -0.18620421407E+02  0.77958822483E+03  0.78119529716E+03  0.47000000000E+01 0. -1.
         -5    1    5    5    0  503  0.64850620626E+02 -0.24070548372E+02  0.37741831434E+03  0.38373385086E+03  0.47000000000E+01 0. -1.
<mgrwt>
<rscale>  0 0.27602708E+03</rscale>
<asrwt>0</asrwt>
<pdfrwt beam="1">  1        2 0.45621173E+00 0.27602708E+03</pdfrwt>
<pdfrwt beam="2">  1       -2 0.98821226E-03 0.27602708E+03</pdfrwt>
<totfact> 0.47373942E+03</totfact>
</mgrwt>
</event>
<event>
 9    1  0.8285222E-001  0.2764097E+03  0.7818608E-02  0.1097666E+00
         -1   -1    0    0    0  501 -0.00000000000E+00  0.00000000000E+00  0.36482041666E+02  0.36482041666E+02  0.00000000000E+00 0.  1.
          1   -1    0    0  501    0  0.00000000000E+00 -0.00000000000E+00 -0.52356113676E+03  0.52356113676E+03  0.00000000000E+00 0.  1.
         35    2    1    2    0    0 -0.31086244690E-14  0.00000000000E+00 -0.48707909510E+03  0.56004317843E+03  0.27640969018E+03 0.  0.
         25    2    3    3    0    0 -0.29331653939E+01 -0.41868943933E+02 -0.32951249186E+03  0.35421852440E+03  0.12300678361E+03 0.  0.
         25    2    3    3    0    0  0.29331653939E+01  0.41868943933E+02 -0.15756660324E+03  0.20582465402E+03  0.12559833527E+03 0.  0.
          5    1    4    4  502    0 -0.36326876640E+01  0.42365974210E+02 -0.14795204670E+03  0.15401289009E+03  0.47000000000E+01 0.  1.
         -5    1    4    4    0  502  0.69952227010E+00 -0.84234918143E+02 -0.18156044515E+03  0.20020563431E+03  0.47000000000E+01 0.  1.
          5    1    5    5  503    0  0.20803084820E+02 -0.29120108273E+02 -0.48693634833E+01  0.36421830605E+02  0.47000000000E+01 0.  1.
         -5    1    5    5    0  503 -0.17869919426E+02  0.70989052206E+02 -0.15269723976E+03  0.16940282342E+03  0.47000000000E+01 0.  1.
<mgrwt>
<rscale>  0 0.27640969E+03</rscale>
<asrwt>0</asrwt>
<pdfrwt beam="1">  1        1 0.80547864E-01 0.27640969E+03</pdfrwt>
<pdfrwt beam="2">  1       -1 0.56126220E-02 0.27640969E+03</pdfrwt>
<totfact> 0.62465819E+03</totfact>
</mgrwt>
</event>
<event>
 9    1  0.8285222E-001  0.2756586E+03  0.7818608E-02  0.1098084E+00
          2   -1    0    0  501    0  0.00000000000E+00  0.00000000000E+00  0.28450325448E+04  0.28450325448E+04  0.00000000000E+00 0. -1.
         -2   -1    0    0    0  501 -0.00000000000E+00 -0.00000000000E+00 -0.66772213245E+01  0.66772213245E+01  0.00000000000E+00 0. -1.
         35    2    1    2    0    0 -0.35527136788E-14  0.00000000000E+00  0.28383553235E+04  0.28517097662E+04  0.27565857126E+03 0.  0.
         25    2    3    3    0    0  0.27780693055E+02  0.11878936458E+01  0.86901815323E+03  0.87834692922E+03  0.12460978862E+03 0.  0.
         25    2    3    3    0    0 -0.27780693055E+02 -0.11878936458E+01  0.19693371703E+04  0.19733628369E+04  0.12287724764E+03 0.  0.
          5    1    4    4  502    0 -0.19619651680E+02  0.46438366465E+02  0.20808162803E+03  0.21415299797E+03  0.47000000000E+01 0. -1.
         -5    1    4    4    0  502  0.47400344735E+02 -0.45250472819E+02  0.66093652520E+03  0.66419393125E+03  0.47000000000E+01 0. -1.
          5    1    5    5  503    0 -0.25353369136E+02 -0.60478055370E+02  0.11376952920E+04  0.11395933731E+04  0.47000000000E+01 0.  1.
         -5    1    5    5    0  503 -0.24273239191E+01  0.59290161724E+02  0.83164187822E+03  0.83376946382E+03  0.47000000000E+01 0.  1.
<mgrwt>
<rscale>  0 0.27565857E+03</rscale>
<asrwt>0</asrwt>
<pdfrwt beam="1">  1        2 0.43769635E+00 0.27565857E+03</pdfrwt>
<pdfrwt beam="2">  1       -2 0.10272671E-02 0.27565857E+03</pdfrwt>
<totfact> 0.52628689E+03</totfact>
</mgrwt>
</event>
<event>
 9    1  0.8285222E-001  0.2756823E+03  0.7818608E-02  0.1098071E+00
          2   -1    0    0  501    0  0.00000000000E+00  0.00000000000E+00  0.17812274860E+04  0.17812274860E+04  0.00000000000E+00 0.  1.
         -2   -1    0    0    0  501 -0.00000000000E+00 -0.00000000000E+00 -0.10666903123E+02  0.10666903123E+02  0.00000000000E+00 0.  1.
         35    2    1    2    0    0 -0.35527136788E-14  0.00000000000E+00  0.17705605829E+04  0.17918943892E+04  0.27568228839E+03 0.  0.
         25    2    3    3    0    0  0.20647736052E+02  0.29296681193E+02  0.59506888483E+03  0.60919734580E+03  0.12541851500E+03 0.  0.
         25    2    3    3    0    0 -0.20647736052E+02 -0.29296681193E+02  0.11754916981E+04  0.11826970434E+04  0.12532732970E+03 0.  0.
          5    1    4    4  502    0 -0.14682275148E+02  0.28066210737E+02  0.32943216810E+02  0.45941559861E+02  0.47000000000E+01 0.  1.
         -5    1    4    4    0  502  0.35330011200E+02  0.12304704564E+01  0.56212566802E+03  0.56325578594E+03  0.47000000000E+01 0.  1.
          5    1    5    5  503    0  0.13270181860E+02  0.45158549423E+02  0.35899629215E+03  0.36209918543E+03  0.47000000000E+01 0. -1.
         -5    1    5    5    0  503 -0.33917917913E+02 -0.74455230616E+02  0.81649540594E+03  0.82059785793E+03  0.47000000000E+01 0. -1.
<mgrwt>
<rscale>  0 0.27568229E+03</rscale>
<asrwt>0</asrwt>
<pdfrwt beam="1">  1        2 0.27403476E+00 0.27568229E+03</pdfrwt>
<pdfrwt beam="2">  1       -2 0.16410634E-02 0.27568229E+03</pdfrwt>
<totfact> 0.10012563E+04</totfact>
</mgrwt>
</event>
<event>
 9    1  0.8285222E-001  0.2803437E+03  0.7818608E-02  0.1095501E+00
          2   -1    0    0  501    0  0.00000000000E+00  0.00000000000E+00  0.95413541484E+03  0.95413541484E+03  0.00000000000E+00 0.  1.
         -2   -1    0    0    0  501 -0.00000000000E+00 -0.00000000000E+00 -0.20592615256E+02  0.20592615256E+02  0.00000000000E+00 0.  1.
         35    2    1    2    0    0 -0.35527136788E-14 -0.71054273576E-14  0.93354279959E+03  0.97472803010E+03  0.28034367123E+03 0.  0.
         25    2    3    3    0    0 -0.29728257873E+02  0.50555101767E+02  0.54545987278E+03  0.56275399396E+03  0.12540333835E+03 0.  0.
         25    2    3    3    0    0  0.29728257873E+02 -0.50555101767E+02  0.38808292681E+03  0.41197403614E+03  0.12519848540E+03 0.  0.
          5    1    4    4  502    0  0.82602835933E+01 -0.25715282920E+02  0.31507366805E+02  0.41764964069E+02  0.47000000000E+01 0.  1.
         -5    1    4    4    0  502 -0.37988541466E+02  0.76270384687E+02  0.51395250598E+03  0.52098902989E+03  0.47000000000E+01 0.  1.
          5    1    5    5  503    0  0.17632761403E+02 -0.30859339386E+02  0.16195694162E+02  0.39339593432E+02  0.47000000000E+01 0. -1.
         -5    1    5    5    0  503  0.12095496470E+02 -0.19695762381E+02  0.37188723264E+03  0.37263444271E+03  0.47000000000E+01 0. -1.
<mgrwt>
<rscale>  0 0.28034367E+03</rscale>
<asrwt>0</asrwt>
<pdfrwt beam="1">  1        2 0.14679003E+00 0.28034367E+03</pdfrwt>
<pdfrwt beam="2">  1       -2 0.31680954E-02 0.28034367E+03</pdfrwt>
<totfact> 0.10928302E+04</totfact>
</mgrwt>
</event>
<event>
 9    1  0.8285222E-001  0.2778181E+03  0.7818608E-02  0.1096887E+00
          1   -1    0    0  501    0  0.00000000000E+00  0.00000000000E+00  0.39681394953E+03  0.39681394953E+03  0.00000000000E+00 0. -1.
         -1   -1    0    0    0  501 -0.00000000000E+00 -0.00000000000E+00 -0.48626631292E+02  0.48626631292E+02  0.00000000000E+00 0. -1.
         35    2    1    2    0    0 -0.71054273576E-14  0.00000000000E+00  0.34818731824E+03  0.44544058082E+03  0.27781811039E+03 0.  0.
         25    2    3    3    0    0  0.25116350524E+02 -0.38440031822E+02  0.23674988786E+03  0.27170332079E+03  0.12515477626E+03 0.  0.
         25    2    3    3    0    0 -0.25116350524E+02  0.38440031822E+02  0.11143743038E+03  0.17373726003E+03  0.12513140102E+03 0.  0.
          5    1    4    4  502    0  0.47398620359E+02 -0.17168418203E+02  0.22854691543E+02  0.55550073997E+02  0.47000000000E+01 0. -1.
         -5    1    4    4    0  502 -0.22282269835E+02 -0.21271613618E+02  0.21389519631E+03  0.21615324680E+03  0.47000000000E+01 0. -1.
          5    1    5    5  503    0 -0.39195022005E+02 -0.80649416525E+01 -0.11135044546E+02  0.41801581918E+02  0.47000000000E+01 0.  1.
         -5    1    5    5    0  503  0.14078671481E+02  0.46504973474E+02  0.12257247493E+03  0.13193567811E+03  0.47000000000E+01 0.  1.
<mgrwt>
<rscale>  0 0.27781811E+03</rscale>
<asrwt>0</asrwt>
<pdfrwt beam="1">  1        1 0.61048298E-01 0.27781811E+03</pdfrwt>
<pdfrwt beam="2">  1       -1 0.74810205E-02 0.27781811E+03</pdfrwt>
<totfact> 0.58121674E+03</totfact>
</mgrwt>
</event>
<event>
 9    1  0.8285222E-001  0.2733968E+03  0.7818608E-02  0.1099351E+00
          1   -1    0    0  501    0  0.00000000000E+00  0.00000000000E+00  0.28033915264E+03  0.28033915264E+03  0.00000000000E+00 0.  1.
         -1   -1    0    0    0  501 -0.00000000000E+00 -0.00000000000E+00 -0.66656575991E+02  0.66656575991E+02  0.00000000000E+00 0.  1.
         35    2    1    2    0    0 -0.88817841970E-15 -0.71054273576E-14  0.21368257665E+03  0.34699572863E+03  0.27339676685E+03 0.  0.
         25    2    3    3    0    0  0.41205691024E+01 -0.16452202037E+02  0.39868245936E+02  0.13230126036E+03  0.12500596953E+03 0.  0.
         25    2    3    3    0    0 -0.41205691024E+01  0.16452202037E+02  0.17381433071E+03  0.21469446827E+03  0.12487849736E+03 0.  0.
          5    1    4    4  502    0 -0.54477446224E+01  0.28392410635E+02 -0.34220673513E+02  0.45043883034E+02  0.47000000000E+01 0.  1.
         -5    1    4    4    0  502  0.95683137247E+01 -0.44844612672E+02  0.74088919448E+02  0.87257377329E+02  0.47000000000E+01 0.  1.
          5    1    5    5  503    0 -0.44326667252E+02 -0.36298631829E+02  0.10001763437E+03  0.11536057076E+03  0.47000000000E+01 0.  1.
         -5    1    5    5    0  503  0.40206098150E+02  0.52750833866E+02  0.73796696343E+02  0.99333897503E+02  0.47000000000E+01 0.  1.
<mgrwt>
<rscale>  0 0.27339677E+03</rscale>
<asrwt>0</asrwt>
<pdfrwt beam="1">  1        1 0.43129100E-01 0.27339677E+03</pdfrwt>
<pdfrwt beam="2">  1       -1 0.10254858E-01 0.27339677E+03</pdfrwt>
<totfact> 0.55575634E+03</totfact>
</mgrwt>
</event>
<event>
 9    1  0.8285222E-001  0.2762392E+03  0.7818608E-02  0.1097761E+00
          2   -1    0    0  501    0  0.00000000000E+00  0.00000000000E+00  0.87789534474E+03  0.87789534474E+03  0.00000000000E+00 0. -1.
         -2   -1    0    0    0  501 -0.00000000000E+00 -0.00000000000E+00 -0.21730414878E+02  0.21730414878E+02  0.00000000000E+00 0. -1.
         35    2    1    2    0    0 -0.71054273576E-14  0.00000000000E+00  0.85616492987E+03  0.89962575962E+03  0.27623924457E+03 0.  0.
         25    2    3    3    0    0 -0.14513659270E+02  0.21415009378E+02  0.61156155691E+03  0.62434810263E+03  0.12301937425E+03 0.  0.
         25    2    3    3    0    0  0.14513659270E+02 -0.21415009378E+02  0.24460337296E+03  0.27527765699E+03  0.12360311259E+03 0.  0.
          5    1    4    4  502    0  0.40304487596E+02 -0.25117604618E+02  0.34232751430E+03  0.34563790710E+03  0.47000000000E+01 0.  1.
         -5    1    4    4    0  502 -0.54818146866E+02  0.46532613996E+02  0.26923404261E+03  0.27871019553E+03  0.47000000000E+01 0.  1.
          5    1    5    5  503    0 -0.48146712158E+02 -0.24435982988E+02  0.16586120370E+03  0.17449140967E+03  0.47000000000E+01 0.  1.
         -5    1    5    5    0  503  0.62660371427E+02  0.30209736098E+01  0.78742169255E+02  0.10078624732E+03  0.47000000000E+01 0.  1.
<mgrwt>
<rscale>  0 0.27623924E+03</rscale>
<asrwt>0</asrwt>
<pdfrwt beam="1">  1        2 0.13506079E+00 0.27623924E+03</pdfrwt>
<pdfrwt beam="2">  1       -2 0.33431414E-02 0.27623924E+03</pdfrwt>
<totfact> 0.11280093E+04</totfact>
</mgrwt>
</event>
<event>
 9    1  0.8285222E-001  0.2815867E+03  0.7818608E-02  0.1094825E+00
         -2   -1    0    0    0  501 -0.00000000000E+00  0.00000000000E+00  0.62831223809E+01  0.62831223809E+01  0.00000000000E+00 0.  1.
          2   -1    0    0  501    0  0.00000000000E+00 -0.00000000000E+00 -0.31549224064E+04  0.31549224064E+04  0.00000000000E+00 0.  1.
         35    2    1    2    0    0  0.00000000000E+00  0.00000000000E+00 -0.31486392840E+04  0.31612055288E+04  0.28158667285E+03 0.  0.
         25    2    3    3    0    0 -0.12039667772E+02 -0.52575340839E+02 -0.11371031496E+04  0.11450235197E+04  0.12315099586E+03 0.  0.
         25    2    3    3    0    0  0.12039667772E+02  0.52575340839E+02 -0.20115361344E+04  0.20161820091E+04  0.12571059457E+03 0.  0.
          5    1    4    4  502    0 -0.61846676261E+02 -0.53557589080E+02 -0.59516514839E+03  0.60078038464E+03  0.47000000000E+01 0. -1.
         -5    1    4    4    0  502  0.49807008489E+02  0.98224824149E+00 -0.54193800120E+03  0.54424313505E+03  0.47000000000E+01 0. -1.
          5    1    5    5  503    0  0.65900257216E+02  0.23137293830E+02 -0.78988467550E+03  0.79298049715E+03  0.47000000000E+01 0. -1.
         -5    1    5    5    0  503 -0.53860589444E+02  0.29438047009E+02 -0.12216514589E+04  0.12232015119E+04  0.47000000000E+01 0. -1.
<mgrwt>
<rscale>  0 0.28158667E+03</rscale>
<asrwt>0</asrwt>
<pdfrwt beam="1">  1        2 0.48537303E+00 0.28158667E+03</pdfrwt>
<pdfrwt beam="2">  1       -2 0.96663351E-03 0.28158667E+03</pdfrwt>
<totfact> 0.37625591E+03</totfact>
</mgrwt>
</event>
<event>
 9    1  0.8285222E-001  0.2732914E+03  0.7818608E-02  0.1099411E+00
         -1   -1    0    0    0  501 -0.00000000000E+00  0.00000000000E+00  0.13895993938E+02  0.13895993938E+02  0.00000000000E+00 0.  1.
          1   -1    0    0  501    0  0.00000000000E+00 -0.00000000000E+00 -0.13436997742E+04  0.13436997742E+04  0.00000000000E+00 0.  1.
         35    2    1    2    0    0 -0.17763568394E-14 -0.71054273576E-14 -0.13298037803E+04  0.13575957682E+04  0.27329137503E+03 0.  0.
         25    2    3    3    0    0  0.13337070917E+02 -0.52118704772E+02 -0.60639345592E+03  0.62162384960E+03  0.12573364766E+03 0.  0.
         25    2    3    3    0    0 -0.13337070917E+02  0.52118704772E+02 -0.72341032438E+03  0.73597191858E+03  0.12424946951E+03 0.  0.
          5    1    4    4  502    0  0.17196290885E+02  0.26713131577E+02 -0.48586927034E+02  0.58241594221E+02  0.47000000000E+01 0. -1.
         -5    1    4    4    0  502 -0.38592199683E+01 -0.78831836349E+02 -0.55780652889E+03  0.56338225538E+03  0.47000000000E+01 0. -1.
          5    1    5    5  503    0 -0.10773407776E+02  0.43370453359E+02 -0.74651863856E+02  0.87132389597E+02  0.47000000000E+01 0.  1.
         -5    1    5    5    0  503 -0.25636631408E+01  0.87482514132E+01 -0.64875846053E+03  0.64883952899E+03  0.47000000000E+01 0.  1.
<mgrwt>
<rscale>  0 0.27329138E+03</rscale>
<asrwt>0</asrwt>
<pdfrwt beam="1">  1        1 0.20672314E+00 0.27329138E+03</pdfrwt>
<pdfrwt beam="2">  1       -1 0.21378442E-02 0.27329138E+03</pdfrwt>
<totfact> 0.56645360E+03</totfact>
</mgrwt>
</event>
<event>
 9    1  0.8285222E-001  0.2747165E+03  0.7818608E-02  0.1098610E+00
         -1   -1    0    0    0  501 -0.00000000000E+00  0.00000000000E+00  0.12484099917E+02  0.12484099917E+02  0.00000000000E+00 0. -1.
          1   -1    0    0  501    0  0.00000000000E+00 -0.00000000000E+00 -0.15113057348E+04  0.15113057348E+04  0.00000000000E+00 0. -1.
         35    2    1    2    0    0 -0.17763568394E-14  0.00000000000E+00 -0.14988216349E+04  0.15237898347E+04  0.27471652151E+03 0.  0.
         25    2    3    3    0    0 -0.15737171609E+02 -0.52089537606E+02 -0.65497374039E+03  0.66907276122E+03  0.12532669591E+03 0.  0.
         25    2    3    3    0    0  0.15737171609E+02  0.52089537606E+02 -0.84384789447E+03  0.85471707348E+03  0.12450312521E+03 0.  0.
          5    1    4    4  502    0  0.59603874035E+01  0.33621531000E+02 -0.77076421432E+02  0.84432211304E+02  0.47000000000E+01 0. -1.
         -5    1    4    4    0  502 -0.21697559013E+02 -0.85711068606E+02 -0.57789731896E+03  0.58464054992E+03  0.47000000000E+01 0. -1.
          5    1    5    5  503    0 -0.11712429567E+02 -0.36372519387E+02 -0.36067917218E+03  0.36272813017E+03  0.47000000000E+01 0. -1.
         -5    1    5    5    0  503  0.27449601176E+02  0.88462056993E+02 -0.48316872230E+03  0.49198894331E+03  0.47000000000E+01 0. -1.
<mgrwt>
<rscale>  0 0.27471652E+03</rscale>
<asrwt>0</asrwt>
<pdfrwt beam="1">  1        1 0.23250868E+00 0.27471652E+03</pdfrwt>
<pdfrwt beam="2">  1       -1 0.19206299E-02 0.27471652E+03</pdfrwt>
<totfact> 0.51175717E+03</totfact>
</mgrwt>
</event>
<event>
 9    1  0.8285222E-001  0.2674345E+03  0.7818608E-02  0.1102757E+00
         -1   -1    0    0    0  501 -0.00000000000E+00  0.00000000000E+00  0.17200231635E+02  0.17200231635E+02  0.00000000000E+00 0. -1.
          1   -1    0    0  501    0  0.00000000000E+00 -0.00000000000E+00 -0.10395388737E+04  0.10395388737E+04  0.00000000000E+00 0. -1.
         35    2    1    2    0    0  0.00000000000E+00  0.35527136788E-14 -0.10223386421E+04  0.10567391054E+04  0.26743454842E+03 0.  0.
         25    2    3    3    0    0 -0.32085541190E+02  0.30039438928E+02 -0.58120777655E+03  0.59613544858E+03  0.12507255371E+03 0.  0.
         25    2    3    3    0    0  0.32085541190E+02 -0.30039438928E+02 -0.44113086556E+03  0.46060365679E+03  0.12500975266E+03 0.  0.
          5    1    4    4  502    0 -0.78545431953E+02  0.39352609071E+01 -0.36520217498E+03  0.37360351948E+03  0.47000000000E+01 0. -1.
         -5    1    4    4    0  502  0.46459890764E+02  0.26104178021E+02 -0.21600560156E+03  0.22253192910E+03  0.47000000000E+01 0. -1.
          5    1    5    5  503    0 -0.31640436810E+02 -0.16797096486E+02 -0.32813433119E+03  0.33011738670E+03  0.47000000000E+01 0. -1.
         -5    1    5    5    0  503  0.63725978000E+02 -0.13242342442E+02 -0.11299653436E+03  0.13048627009E+03  0.47000000000E+01 0. -1.
<mgrwt>
<rscale>  0 0.26743455E+03</rscale>
<asrwt>0</asrwt>
<pdfrwt beam="1">  1        1 0.15992906E+00 0.26743455E+03</pdfrwt>
<pdfrwt beam="2">  1       -1 0.26461895E-02 0.26743455E+03</pdfrwt>
<totfact> 0.67746171E+03</totfact>
</mgrwt>
</event>
<event>
 9    1  0.8285222E-001  0.2738645E+03  0.7818608E-02  0.1099088E+00
         -2   -1    0    0    0  501 -0.00000000000E+00  0.00000000000E+00  0.13952680126E+04  0.13952680126E+04  0.00000000000E+00 0.  1.
          2   -1    0    0  501    0  0.00000000000E+00 -0.00000000000E+00 -0.13438595554E+02  0.13438595554E+02  0.00000000000E+00 0.  1.
         35    2    1    2    0    0  0.00000000000E+00 -0.35527136788E-14  0.13818294170E+04  0.14087066082E+04  0.27386451037E+03 0.  0.
         25    2    3    3    0    0 -0.49247862301E+02 -0.29763304014E+02  0.74815202126E+03  0.76027840295E+03  0.12239524858E+03 0.  0.
         25    2    3    3    0    0  0.49247862301E+02  0.29763304014E+02  0.63367739579E+03  0.64842820520E+03  0.12490351942E+03 0.  0.
          5    1    4    4  502    0 -0.24445334734E+02 -0.44039741038E+02  0.10580323076E+03  0.11727526091E+03  0.47000000000E+01 0. -1.
         -5    1    4    4    0  502 -0.24802527567E+02  0.14276437024E+02  0.64234879050E+03  0.64300314205E+03  0.47000000000E+01 0. -1.
          5    1    5    5  503    0 -0.96121239209E+01  0.57901932646E+02  0.16465372795E+03  0.17486556796E+03  0.47000000000E+01 0. -1.
         -5    1    5    5    0  503  0.58859986222E+02 -0.28138628632E+02  0.46902366784E+03  0.47356263724E+03  0.47000000000E+01 0. -1.
<mgrwt>
<rscale>  0 0.27386451E+03</rscale>
<asrwt>0</asrwt>
<pdfrwt beam="1">  1        2 0.20674773E-02 0.27386451E+03</pdfrwt>
<pdfrwt beam="2">  1       -2 0.21465650E+00 0.27386451E+03</pdfrwt>
<totfact> 0.61110472E+02</totfact>
</mgrwt>
</event>
<event>
 9    1  0.8285222E-001  0.2764067E+03  0.7818608E-02  0.1097668E+00
         -4   -1    0    0    0  501 -0.00000000000E+00  0.00000000000E+00  0.71812059952E+03  0.71812059952E+03  0.00000000000E+00 0.  1.
          4   -1    0    0  501    0  0.00000000000E+00 -0.00000000000E+00 -0.26597426005E+02  0.26597426005E+02  0.00000000000E+00 0.  1.
         35    2    1    2    0    0 -0.14210854715E-13 -0.35527136788E-14  0.69152317351E+03  0.74471802552E+03  0.27640665338E+03 0.  0.
         25    2    3    3    0    0 -0.59193576917E+02  0.18328852129E+02  0.33975636780E+03  0.36659458082E+03  0.12295271797E+03 0.  0.
         25    2    3    3    0    0  0.59193576917E+02 -0.18328852129E+02  0.35176680571E+03  0.37812344470E+03  0.12408717687E+03 0.  0.
          5    1    4    4  502    0 -0.62334253647E+02  0.28239846941E+02  0.75171844861E+02  0.10176416065E+03  0.47000000000E+01 0. -1.
         -5    1    4    4    0  502  0.31406767298E+01 -0.99109948117E+01  0.26458452294E+03  0.26483042017E+03  0.47000000000E+01 0. -1.
          5    1    5    5  503    0  0.14077815118E+02  0.45691331463E+02  0.65063146976E+02  0.80877597293E+02  0.47000000000E+01 0.  1.
         -5    1    5    5    0  503  0.45115761799E+02 -0.64020183593E+02  0.28670365873E+03  0.29724584741E+03  0.47000000000E+01 0.  1.
<mgrwt>
<rscale>  0 0.27640665E+03</rscale>
<asrwt>0</asrwt>
<pdfrwt beam="1">  1        4 0.40919122E-02 0.27640665E+03</pdfrwt>
<pdfrwt beam="2">  1       -4 0.11048008E+00 0.27640665E+03</pdfrwt>
<totfact> 0.41672833E+02</totfact>
</mgrwt>
</event>
<event>
 9    1  0.8285222E-001  0.2692056E+03  0.7818608E-02  0.1101735E+00
         -1   -1    0    0    0  501 -0.00000000000E+00  0.00000000000E+00  0.91906083827E+01  0.91906083827E+01  0.00000000000E+00 0. -1.
          1   -1    0    0  501    0  0.00000000000E+00 -0.00000000000E+00 -0.19713504097E+04  0.19713504097E+04  0.00000000000E+00 0. -1.
         35    2    1    2    0    0  0.71054273576E-14  0.00000000000E+00 -0.19621598013E+04  0.19805410181E+04  0.26920556904E+03 0.  0.
         25    2    3    3    0    0  0.45800481058E+02 -0.19683611174E+02 -0.93923967859E+03  0.94895698488E+03  0.12594862723E+03 0.  0.
         25    2    3    3    0    0 -0.45800481058E+02  0.19683611174E+02 -0.10229201227E+04  0.10315840332E+04  0.12375343011E+03 0.  0.
          5    1    4    4  502    0  0.20546806491E+02 -0.72300067633E+02 -0.45502138804E+03  0.46121147494E+03  0.47000000000E+01 0. -1.
         -5    1    4    4    0  502  0.25253674567E+02  0.52616456459E+02 -0.48421829055E+03  0.48774550994E+03  0.47000000000E+01 0. -1.
          5    1    5    5  503    0 -0.67968771873E+02  0.55323123153E+02 -0.79058550663E+03  0.79544197475E+03  0.47000000000E+01 0.  1.
         -5    1    5    5    0  503  0.22168290815E+02 -0.35639511979E+02 -0.23233461608E+03  0.23614205844E+03  0.47000000000E+01 0.  1.
<mgrwt>
<rscale>  0 0.26920557E+03</rscale>
<asrwt>0</asrwt>
<pdfrwt beam="1">  1        1 0.30328463E+00 0.26920557E+03</pdfrwt>
<pdfrwt beam="2">  1       -1 0.14139400E-02 0.26920557E+03</pdfrwt>
<totfact> 0.40055901E+03</totfact>
</mgrwt>
</event>
<event>
 9    1  0.8285222E-001  0.2732562E+03  0.7818608E-02  0.1099430E+00
         -2   -1    0    0    0  501 -0.00000000000E+00  0.00000000000E+00  0.64526408740E+02  0.64526408740E+02  0.00000000000E+00 0.  1.
          2   -1    0    0  501    0  0.00000000000E+00 -0.00000000000E+00 -0.28929607242E+03  0.28929607242E+03  0.00000000000E+00 0.  1.
         35    2    1    2    0    0  0.00000000000E+00  0.35527136788E-14 -0.22476966368E+03  0.35382248116E+03  0.27325619199E+03 0.  0.
         25    2    3    3    0    0 -0.37692413307E+02  0.19375971874E+02 -0.15282098409E+03  0.20241314619E+03  0.12578029362E+03 0.  0.
         25    2    3    3    0    0  0.37692413307E+02 -0.19375971874E+02 -0.71948679587E+02  0.15140933497E+03  0.12630133774E+03 0.  0.
          5    1    4    4  502    0 -0.73956516153E+02  0.35822188907E+02 -0.61722333201E+02  0.10288115433E+03  0.47000000000E+01 0. -1.
         -5    1    4    4    0  502  0.36264102846E+02 -0.16446217033E+02 -0.91098650889E+02  0.99531991861E+02  0.47000000000E+01 0. -1.
          5    1    5    5  503    0  0.35005241530E+02  0.33585990880E+01 -0.10505564494E+03  0.11088474041E+03  0.47000000000E+01 0.  1.
         -5    1    5    5    0  503  0.26871717766E+01 -0.22734570962E+02  0.33106965355E+02  0.40524594557E+02  0.47000000000E+01 0.  1.
<mgrwt>
<rscale>  0 0.27325619E+03</rscale>
<asrwt>0</asrwt>
<pdfrwt beam="1">  1        2 0.44507088E-01 0.27325619E+03</pdfrwt>
<pdfrwt beam="2">  1       -2 0.99271398E-02 0.27325619E+03</pdfrwt>
<totfact> 0.75764633E+03</totfact>
</mgrwt>
</event>
<event>
 9    1  0.8285222E-001  0.2807985E+03  0.7818608E-02  0.1095254E+00
         -2   -1    0    0    0  501 -0.00000000000E+00  0.00000000000E+00  0.46349382130E+02  0.46349382130E+02  0.00000000000E+00 0. -1.
          2   -1    0    0  501    0  0.00000000000E+00 -0.00000000000E+00 -0.42529034526E+03  0.42529034526E+03  0.00000000000E+00 0. -1.
         35    2    1    2    0    0  0.00000000000E+00  0.35527136788E-14 -0.37894096313E+03  0.47163972739E+03  0.28079846672E+03 0.  0.
         25    2    3    3    0    0 -0.52257075632E+02  0.30925953567E+02 -0.21350748236E+03  0.25570965344E+03  0.12694394543E+03 0.  0.
         25    2    3    3    0    0  0.52257075632E+02 -0.30925953567E+02 -0.16543348077E+03  0.21593007395E+03  0.12478118335E+03 0.  0.
          5    1    4    4  502    0  0.35011030057E+01  0.42070455625E+01 -0.18883639203E+03  0.18897415143E+03  0.47000000000E+01 0. -1.
         -5    1    4    4    0  502 -0.55758178638E+02  0.26718908005E+02 -0.24671090328E+02  0.66735502006E+02  0.47000000000E+01 0. -1.
          5    1    5    5  503    0  0.82155616571E+01  0.40646579081E+02 -0.10299912465E+03  0.11113302625E+03  0.47000000000E+01 0.  1.
         -5    1    5    5    0  503  0.44041513975E+02 -0.71572532649E+02 -0.62434356122E+02  0.10479704770E+03  0.47000000000E+01 0.  1.
<mgrwt>
<rscale>  0 0.28079847E+03</rscale>
<asrwt>0</asrwt>
<pdfrwt beam="1">  1        2 0.65429284E-01 0.28079847E+03</pdfrwt>
<pdfrwt beam="2">  1       -2 0.71306742E-02 0.28079847E+03</pdfrwt>
<totfact> 0.84028229E+03</totfact>
</mgrwt>
</event>
<event>
 9    1  0.8285222E-001  0.2850563E+03  0.7818608E-02  0.1092959E+00
          2   -1    0    0  501    0  0.00000000000E+00  0.00000000000E+00  0.14830986246E+04  0.14830986246E+04  0.00000000000E+00 0. -1.
         -2   -1    0    0    0  501 -0.00000000000E+00 -0.00000000000E+00 -0.13697182665E+02  0.13697182665E+02  0.00000000000E+00 0. -1.
         35    2    1    2    0    0 -0.71054273576E-14  0.00000000000E+00  0.14694014419E+04  0.14967958072E+04  0.28505629459E+03 0.  0.
         25    2    3    3    0    0  0.48033614695E+02  0.55285817522E+02  0.84930788349E+03  0.86146578211E+03  0.12424034382E+03 0.  0.
         25    2    3    3    0    0 -0.48033614695E+02 -0.55285817522E+02  0.62009355840E+03  0.63533002510E+03  0.11732207752E+03 0.  0.
          5    1    4    4  502    0 -0.33670075907E+02  0.25753502135E+02  0.12774886927E+03  0.13468028988E+03  0.47000000000E+01 0. -1.
         -5    1    4    4    0  502  0.81703690601E+02  0.29532315387E+02  0.72155901422E+03  0.72678549223E+03  0.47000000000E+01 0. -1.
          5    1    5    5  503    0 -0.16720497939E+02 -0.89433919973E+02  0.38074041701E+03  0.39148864127E+03  0.47000000000E+01 0.  1.
         -5    1    5    5    0  503 -0.31313116756E+02  0.34148102451E+02  0.23935314138E+03  0.24384138384E+03  0.47000000000E+01 0.  1.
<mgrwt>
<rscale>  0 0.28505629E+03</rscale>
<asrwt>0</asrwt>
<pdfrwt beam="1">  1        2 0.22816889E+00 0.28505629E+03</pdfrwt>
<pdfrwt beam="2">  1       -2 0.21072600E-02 0.28505629E+03</pdfrwt>
<totfact> 0.99798409E+03</totfact>
</mgrwt>
</event>
<event>
 9    1  0.8285222E-001  0.2738169E+03  0.7818608E-02  0.1099115E+00
         -2   -1    0    0    0  501 -0.00000000000E+00  0.00000000000E+00  0.34723599442E+03  0.34723599442E+03  0.00000000000E+00 0.  1.
          2   -1    0    0  501    0  0.00000000000E+00 -0.00000000000E+00 -0.53980369497E+02  0.53980369497E+02  0.00000000000E+00 0.  1.
         35    2    1    2    0    0  0.00000000000E+00 -0.71054273576E-14  0.29325562492E+03  0.40121636392E+03  0.27381692630E+03 0.  0.
         25    2    3    3    0    0 -0.45261396998E+02 -0.32372888270E+02  0.15332278150E+03  0.20561311078E+03  0.12518896934E+03 0.  0.
         25    2    3    3    0    0  0.45261396998E+02  0.32372888270E+02  0.13993284343E+03  0.19560325314E+03  0.12483122212E+03 0.  0.
          5    1    4    4  502    0 -0.56001899819E+02  0.17116234363E+02  0.14176793183E+03  0.15345818569E+03  0.47000000000E+01 0. -1.
         -5    1    4    4    0  502  0.10740502821E+02 -0.49489122633E+02  0.11554849673E+02  0.52154925087E+02  0.47000000000E+01 0. -1.
          5    1    5    5  503    0 -0.20640548859E+02 -0.22788656247E+02 -0.25199339158E+00  0.31104800456E+02  0.47000000000E+01 0. -1.
         -5    1    5    5    0  503  0.65901945857E+02  0.55161544518E+02  0.14018483682E+03  0.16449845268E+03  0.47000000000E+01 0. -1.
<mgrwt>
<rscale>  0 0.27381693E+03</rscale>
<asrwt>0</asrwt>
<pdfrwt beam="1">  1        2 0.83046724E-02 0.27381693E+03</pdfrwt>
<pdfrwt beam="2">  1       -2 0.53420921E-01 0.27381693E+03</pdfrwt>
<totfact> 0.27139061E+03</totfact>
</mgrwt>
</event>
<event>
 9    1  0.8285222E-001  0.2787121E+03  0.7818608E-02  0.1096394E+00
          2   -1    0    0  501    0  0.00000000000E+00  0.00000000000E+00  0.38042545284E+03  0.38042545284E+03  0.00000000000E+00 0.  1.
         -2   -1    0    0    0  501 -0.00000000000E+00 -0.00000000000E+00 -0.51048384802E+02  0.51048384802E+02  0.00000000000E+00 0.  1.
         35    2    1    2    0    0  0.00000000000E+00  0.00000000000E+00  0.32937706804E+03  0.43147383765E+03  0.27871207297E+03 0.  0.
         25    2    3    3    0    0 -0.39665465801E+02  0.48363939011E+01  0.23675500892E+03  0.27087088422E+03  0.12538485469E+03 0.  0.
         25    2    3    3    0    0  0.39665465801E+02 -0.48363939011E+01  0.92622059124E+02  0.16060295343E+03  0.12497088833E+03 0.  0.
          5    1    4    4  502    0  0.22568201200E+02 -0.45637795189E+02  0.84893094416E+02  0.99101258996E+02  0.47000000000E+01 0. -1.
         -5    1    4    4    0  502 -0.62233667000E+02  0.50474189090E+02  0.15186191450E+03  0.17176962522E+03  0.47000000000E+01 0. -1.
          5    1    5    5  503    0 -0.17962574850E+02 -0.22635359970E+01  0.10047033359E+03  0.10219665172E+03  0.47000000000E+01 0. -1.
         -5    1    5    5    0  503  0.57628040650E+02 -0.25728579042E+01 -0.78482744704E+01  0.58406301708E+02  0.47000000000E+01 0. -1.
<mgrwt>
<rscale>  0 0.27871207E+03</rscale>
<asrwt>0</asrwt>
<pdfrwt beam="1">  1        2 0.58526991E-01 0.27871207E+03</pdfrwt>
<pdfrwt beam="2">  1       -2 0.78535979E-02 0.27871207E+03</pdfrwt>
<totfact> 0.81610465E+03</totfact>
</mgrwt>
</event>
<event>
 9    1  0.8285222E-001  0.2747546E+03  0.7818608E-02  0.1098589E+00
         -1   -1    0    0    0  501 -0.00000000000E+00  0.00000000000E+00  0.83393782803E+02  0.83393782803E+02  0.00000000000E+00 0.  1.
          1   -1    0    0  501    0  0.00000000000E+00 -0.00000000000E+00 -0.22630611930E+03  0.22630611930E+03  0.00000000000E+00 0.  1.
         35    2    1    2    0    0 -0.71054273576E-14 -0.14210854715E-13 -0.14291233650E+03  0.30969990210E+03  0.27475460586E+03 0.  0.
         25    2    3    3    0    0  0.25128708424E+02  0.40921395094E+02 -0.10475971149E+03  0.17027303157E+03  0.12534869590E+03 0.  0.
         25    2    3    3    0    0 -0.25128708424E+02 -0.40921395094E+02 -0.38152625005E+02  0.13942687053E+03  0.12521268653E+03 0.  0.
          5    1    4    4  502    0  0.60866202681E+02 -0.19292418074E+02 -0.48153177256E+02  0.80110614177E+02  0.47000000000E+01 0. -1.
         -5    1    4    4    0  502 -0.35737494256E+02  0.60213813168E+02 -0.56606534235E+02  0.90162417392E+02  0.47000000000E+01 0. -1.
          5    1    5    5  503    0 -0.16655296358E+02 -0.33864180683E+02  0.42993810451E+02  0.57399820271E+02  0.47000000000E+01 0.  1.
         -5    1    5    5    0  503 -0.84734120660E+01 -0.70572144110E+01 -0.81146435456E+02  0.82027050261E+02  0.47000000000E+01 0.  1.
<mgrwt>
<rscale>  0 0.27475461E+03</rscale>
<asrwt>0</asrwt>
<pdfrwt beam="1">  1        1 0.34816326E-01 0.27475461E+03</pdfrwt>
<pdfrwt beam="2">  1       -1 0.12829813E-01 0.27475461E+03</pdfrwt>
<totfact> 0.51300065E+03</totfact>
</mgrwt>
</event>
<event>
 9    1  0.8285222E-001  0.2848706E+03  0.7818608E-02  0.1093058E+00
          2   -1    0    0  501    0  0.00000000000E+00  0.00000000000E+00  0.77437453803E+03  0.77437453803E+03  0.00000000000E+00 0. -1.
         -2   -1    0    0    0  501 -0.00000000000E+00 -0.00000000000E+00 -0.26198962335E+02  0.26198962335E+02  0.00000000000E+00 0. -1.
         35    2    1    2    0    0  0.00000000000E+00 -0.35527136788E-14  0.74817557570E+03  0.80057350037E+03  0.28487056257E+03 0.  0.
         25    2    3    3    0    0  0.11893250892E+02 -0.17887626730E+02  0.19023587774E+03  0.22879019409E+03  0.12527508581E+03 0.  0.
         25    2    3    3    0    0 -0.11893250892E+02  0.17887626730E+02  0.55793969795E+03  0.57178330628E+03  0.12319913221E+03 0.  0.
          5    1    4    4  502    0  0.48763295437E+02 -0.20029008137E+02  0.23429615678E+02  0.57879677259E+02  0.47000000000E+01 0. -1.
         -5    1    4    4    0  502 -0.36870044545E+02  0.21413814068E+01  0.16680626207E+03  0.17091051683E+03  0.47000000000E+01 0. -1.
          5    1    5    5  503    0  0.29005181790E+02 -0.29242474491E+02  0.83394095295E+02  0.93129415413E+02  0.47000000000E+01 0. -1.
         -5    1    5    5    0  503 -0.40898432682E+02  0.47130101221E+02  0.47454560266E+03  0.47865389086E+03  0.47000000000E+01 0. -1.
<mgrwt>
<rscale>  0 0.28487056E+03</rscale>
<asrwt>0</asrwt>
<pdfrwt beam="1">  1        2 0.11913453E+00 0.28487056E+03</pdfrwt>
<pdfrwt beam="2">  1       -2 0.40306102E-02 0.28487056E+03</pdfrwt>
<totfact> 0.10028431E+04</totfact>
</mgrwt>
</event>
<event>
 9    1  0.8285222E-001  0.2773939E+03  0.7818608E-02  0.1097121E+00
         -1   -1    0    0    0  501 -0.00000000000E+00  0.00000000000E+00  0.42370200466E+03  0.42370200466E+03  0.00000000000E+00 0. -1.
          1   -1    0    0  501    0  0.00000000000E+00 -0.00000000000E+00 -0.45401828607E+02  0.45401828607E+02  0.00000000000E+00 0. -1.
         35    2    1    2    0    0  0.00000000000E+00  0.17763568394E-14  0.37830017605E+03  0.46910383327E+03  0.27739391339E+03 0.  0.
         25    2    3    3    0    0 -0.42665680552E+02 -0.67932955452E+01  0.26562972172E+03  0.29628538491E+03  0.12393292980E+03 0.  0.
         25    2    3    3    0    0  0.42665680552E+02  0.67932955452E+01  0.11267045433E+03  0.17281844836E+03  0.12371368417E+03 0.  0.
          5    1    4    4  502    0 -0.65493897906E+02  0.90378565030E+01  0.62141616061E+02  0.90855951703E+02  0.47000000000E+01 0. -1.
         -5    1    4    4    0  502  0.22828217355E+02 -0.15831152048E+02  0.20348810566E+03  0.20542943321E+03  0.47000000000E+01 0. -1.
          5    1    5    5  503    0 -0.34176181382E+02 -0.29479992041E+02  0.46930144327E+02  0.65281006052E+02  0.47000000000E+01 0. -1.
         -5    1    5    5    0  503  0.76841861934E+02  0.36273287587E+02  0.65740310003E+02  0.10753744230E+03  0.47000000000E+01 0. -1.
<mgrwt>
<rscale>  0 0.27739391E+03</rscale>
<asrwt>0</asrwt>
<pdfrwt beam="1">  1        1 0.69848970E-02 0.27739391E+03</pdfrwt>
<pdfrwt beam="2">  1       -1 0.65184921E-01 0.27739391E+03</pdfrwt>
<totfact> 0.25827130E+03</totfact>
</mgrwt>
</event>
<event>
 9    1  0.8285222E-001  0.2711384E+03  0.7818608E-02  0.1100630E+00
         -1   -1    0    0    0  501 -0.00000000000E+00  0.00000000000E+00  0.43903531735E+02  0.43903531735E+02  0.00000000000E+00 0.  1.
          1   -1    0    0  501    0  0.00000000000E+00 -0.00000000000E+00 -0.41862262025E+03  0.41862262025E+03  0.00000000000E+00 0.  1.
         35    2    1    2    0    0  0.00000000000E+00  0.00000000000E+00 -0.37471908851E+03  0.46252615198E+03  0.27113842585E+03 0.  0.
         25    2    3    3    0    0 -0.52404759130E+02  0.37757475917E+01 -0.20352579407E+03  0.24415160625E+03  0.12420444006E+03 0.  0.
         25    2    3    3    0    0  0.52404759130E+02 -0.37757475917E+01 -0.17119329444E+03  0.21837454574E+03  0.12497913072E+03 0.  0.
          5    1    4    4  502    0 -0.59906391587E+02 -0.46587789030E+02 -0.79545639840E+02  0.11003997754E+03  0.47000000000E+01 0.  1.
         -5    1    4    4    0  502  0.75016324567E+01  0.50363536621E+02 -0.12398015423E+03  0.13411162871E+03  0.47000000000E+01 0.  1.
          5    1    5    5  503    0  0.42193478682E+02 -0.49781684967E+02 -0.35037674154E+02  0.74217480499E+02  0.47000000000E+01 0.  1.
         -5    1    5    5    0  503  0.10211280448E+02  0.46005937376E+02 -0.13615562029E+03  0.14415706524E+03  0.47000000000E+01 0.  1.
<mgrwt>
<rscale>  0 0.27113843E+03</rscale>
<asrwt>0</asrwt>
<pdfrwt beam="1">  1        1 0.64403478E-01 0.27113843E+03</pdfrwt>
<pdfrwt beam="2">  1       -1 0.67543898E-02 0.27113843E+03</pdfrwt>
<totfact> 0.63319702E+03</totfact>
</mgrwt>
</event>
<event>
 9    1  0.8285222E-001  0.2755987E+03  0.7818608E-02  0.1098117E+00
         -2   -1    0    0    0  501 -0.00000000000E+00  0.00000000000E+00  0.17373516995E+03  0.17373516995E+03  0.00000000000E+00 0.  1.
          2   -1    0    0  501    0  0.00000000000E+00 -0.00000000000E+00 -0.10929662278E+03  0.10929662278E+03  0.00000000000E+00 0.  1.
         35    2    1    2    0    0  0.00000000000E+00  0.35527136788E-14  0.64438547167E+02  0.28303179274E+03  0.27559874698E+03 0.  0.
         25    2    3    3    0    0  0.19217863484E+02 -0.15125971341E+01 -0.24297616037E+02  0.12908404904E+03  0.12530244748E+03 0.  0.
         25    2    3    3    0    0 -0.19217863484E+02  0.15125971341E+01  0.88736163205E+02  0.15394774370E+03  0.12431486999E+03 0.  0.
          5    1    4    4  502    0 -0.99998131292E+01 -0.31480576032E+02 -0.63381500310E+02  0.71626304606E+02  0.47000000000E+01 0.  1.
         -5    1    4    4    0  502  0.29217676613E+02  0.29967978898E+02  0.39083884272E+02  0.57457744436E+02  0.47000000000E+01 0.  1.
          5    1    5    5  503    0  0.11877161822E+02  0.45806175403E+02  0.87528235701E+02  0.99612020976E+02  0.47000000000E+01 0. -1.
         -5    1    5    5    0  503 -0.31095025306E+02 -0.44293578268E+02  0.12079275034E+01  0.54335722719E+02  0.47000000000E+01 0. -1.
<mgrwt>
<rscale>  0 0.27559875E+03</rscale>
<asrwt>0</asrwt>
<pdfrwt beam="1">  1        2 0.16814865E-01 0.27559875E+03</pdfrwt>
<pdfrwt beam="2">  1       -2 0.26728488E-01 0.27559875E+03</pdfrwt>
<totfact> 0.42651507E+03</totfact>
</mgrwt>
</event>
<event>
 9    1  0.8285222E-001  0.2753020E+03  0.7818608E-02  0.1098283E+00
         -1   -1    0    0    0  501 -0.00000000000E+00  0.00000000000E+00  0.99183977626E+01  0.99183977626E+01  0.00000000000E+00 0.  1.
          1   -1    0    0  501    0  0.00000000000E+00 -0.00000000000E+00 -0.19103682451E+04  0.19103682451E+04  0.00000000000E+00 0.  1.
         35    2    1    2    0    0 -0.26645352591E-14  0.35527136788E-14 -0.19004498473E+04  0.19202866428E+04  0.27530195879E+03 0.  0.
         25    2    3    3    0    0  0.42194522966E+01  0.17624326684E+02 -0.13435638887E+04  0.13494832311E+04  0.12495058001E+03 0.  0.
         25    2    3    3    0    0 -0.42194522966E+01 -0.17624326684E+02 -0.55688595865E+03  0.57080341173E+03  0.12396024861E+03 0.  0.
          5    1    4    4  502    0  0.39040074842E+02 -0.13554032961E+02 -0.17124837851E+03  0.17622694571E+03  0.47000000000E+01 0. -1.
         -5    1    4    4    0  502 -0.34820622545E+02  0.31178359644E+02 -0.11723155102E+04  0.11732562854E+04  0.47000000000E+01 0. -1.
          5    1    5    5  503    0 -0.20551340625E+01  0.54143253221E+00 -0.55099301279E+03  0.55101715660E+03  0.47000000000E+01 0.  1.
         -5    1    5    5    0  503 -0.21643182341E+01 -0.18165759216E+02 -0.58929458618E+01  0.19786255134E+02  0.47000000000E+01 0.  1.
<mgrwt>
<rscale>  0 0.27530196E+03</rscale>
<asrwt>0</asrwt>
<pdfrwt beam="1">  1        1 0.29390303E+00 0.27530196E+03</pdfrwt>
<pdfrwt beam="2">  1       -1 0.15259062E-02 0.27530196E+03</pdfrwt>
<totfact> 0.39271159E+03</totfact>
</mgrwt>
</event>
<event>
 9    1  0.8285222E-001  0.2809106E+03  0.7818608E-02  0.1095193E+00
         -2   -1    0    0    0  501 -0.00000000000E+00  0.00000000000E+00  0.19191751537E+02  0.19191751537E+02  0.00000000000E+00 0.  1.
          2   -1    0    0  501    0  0.00000000000E+00 -0.00000000000E+00 -0.10279257988E+04  0.10279257988E+04  0.00000000000E+00 0.  1.
         35    2    1    2    0    0  0.35527136788E-14 -0.71054273576E-14 -0.10087340473E+04  0.10471175503E+04  0.28091063724E+03 0.  0.
         25    2    3    3    0    0  0.13158983144E+01  0.26685641852E+02 -0.71905508242E+03  0.73027866964E+03  0.12471114104E+03 0.  0.
         25    2    3    3    0    0 -0.13158983144E+01 -0.26685641852E+02 -0.28967896484E+03  0.31683888070E+03  0.12553532803E+03 0.  0.
          5    1    4    4  502    0 -0.25627681898E+02  0.60654857526E+02 -0.59752309496E+03  0.60115865529E+03  0.47000000000E+01 0.  1.
         -5    1    4    4    0  502  0.26943580212E+02 -0.33969215674E+02 -0.12153198746E+03  0.12912001434E+03  0.47000000000E+01 0.  1.
          5    1    5    5  503    0 -0.20797571399E+02  0.46460060289E+02 -0.14003003193E+03  0.14906903106E+03  0.47000000000E+01 0. -1.
         -5    1    5    5    0  503  0.19481673085E+02 -0.73145702141E+02 -0.14964893291E+03  0.16776984964E+03  0.47000000000E+01 0. -1.
<mgrwt>
<rscale>  0 0.28091064E+03</rscale>
<asrwt>0</asrwt>
<pdfrwt beam="1">  1        2 0.15814244E+00 0.28091064E+03</pdfrwt>
<pdfrwt beam="2">  1       -2 0.29525770E-02 0.28091064E+03</pdfrwt>
<totfact> 0.10932639E+04</totfact>
</mgrwt>
</event>
<event>
 8    1  0.8285222E-001  0.3461545E+03  0.7818608E-02  0.1064205E+00
          2   -1    0    0  501    0  0.00000000000E+00  0.00000000000E+00  0.12205109190E+04  0.12205109190E+04  0.00000000000E+00 0. -1.
         -2   -1    0    0    0  501 -0.00000000000E+00 -0.00000000000E+00 -0.24543602012E+02  0.24543602012E+02  0.00000000000E+00 0. -1.
         25    2    1    2    0    0 -0.66144105491E+02  0.79654060723E+02  0.80669122385E+03  0.82309739006E+03  0.12656528282E+03 0.  0.
         25    2    1    2    0    0  0.66144105491E+02 -0.79654060723E+02  0.38927609314E+03  0.42195713095E+03  0.12566674814E+03 0.  0.
          5    1    3    3  502    0 -0.22137177948E+02  0.28441523452E+02  0.42533654109E+02  0.55947981515E+02  0.47000000000E+01 0.  1.
         -5    1    3    3    0  502 -0.44006927543E+02  0.51212537271E+02  0.76415756974E+03  0.76714940855E+03  0.47000000000E+01 0.  1.
          5    1    4    4  503    0  0.63515121861E+02 -0.70147254777E+02  0.12205699859E+03  0.15451475322E+03  0.47000000000E+01 0. -1.
         -5    1    4    4    0  503  0.26289836299E+01 -0.95068059455E+01  0.26721909455E+03  0.26744237773E+03  0.47000000000E+01 0. -1.
<mgrwt>
<rscale>  0 0.34615450E+03</rscale>
<asrwt>0</asrwt>
<pdfrwt beam="1">  1        2 0.18777086E+00 0.34615450E+03</pdfrwt>
<pdfrwt beam="2">  1       -2 0.37759397E-02 0.34615450E+03</pdfrwt>
<totfact> 0.58537036E+03</totfact>
</mgrwt>
</event>
<event>
 9    1  0.8285222E-001  0.2747210E+03  0.7818608E-02  0.1098608E+00
          1   -1    0    0  501    0  0.00000000000E+00  0.00000000000E+00  0.12717079194E+04  0.12717079194E+04  0.00000000000E+00 0.  1.
         -1   -1    0    0    0  501 -0.00000000000E+00 -0.00000000000E+00 -0.14836668156E+02  0.14836668156E+02  0.00000000000E+00 0.  1.
         35    2    1    2    0    0 -0.17763568394E-14  0.71054273576E-14  0.12568712513E+04  0.12865445876E+04  0.27472101042E+03 0.  0.
         25    2    3    3    0    0 -0.12392267384E+02 -0.51682668112E+02  0.56294685175E+03  0.57941130687E+03  0.12642641397E+03 0.  0.
         25    2    3    3    0    0  0.12392267384E+02  0.51682668112E+02  0.69392439950E+03  0.70713328070E+03  0.12522674627E+03 0.  0.
          5    1    4    4  502    0 -0.42213054716E+02 -0.18535853282E+02  0.49992858906E+03  0.50207191119E+03  0.47000000000E+01 0.  1.
         -5    1    4    4    0  502  0.29820787332E+02 -0.33146814830E+02  0.63018262691E+02  0.77339395673E+02  0.47000000000E+01 0.  1.
          5    1    5    5  503    0 -0.78416898865E+01 -0.39891480712E+02  0.16968213499E+03  0.17454781370E+03  0.47000000000E+01 0. -1.
         -5    1    5    5    0  503  0.20233957271E+02  0.91574148824E+02  0.52424226451E+03  0.53258546700E+03  0.47000000000E+01 0. -1.
<mgrwt>
<rscale>  0 0.27472101E+03</rscale>
<asrwt>0</asrwt>
<pdfrwt beam="1">  1        1 0.19564729E+00 0.27472101E+03</pdfrwt>
<pdfrwt beam="2">  1       -1 0.22825653E-02 0.27472101E+03</pdfrwt>
<totfact> 0.57632190E+03</totfact>
</mgrwt>
</event>
<event>
 9    1  0.8285222E-001  0.2746728E+03  0.7818608E-02  0.1098635E+00
         -2   -1    0    0    0  501 -0.00000000000E+00  0.00000000000E+00  0.18783505653E+03  0.18783505653E+03  0.00000000000E+00 0.  1.
          2   -1    0    0  501    0  0.00000000000E+00 -0.00000000000E+00 -0.10041412654E+03  0.10041412654E+03  0.00000000000E+00 0.  1.
         35    2    1    2    0    0  0.00000000000E+00 -0.71054273576E-14  0.87420929999E+02  0.28824918307E+03  0.27467284638E+03 0.  0.
         25    2    3    3    0    0  0.35028135634E+02  0.43428973665E+02  0.39764001904E+02  0.14364141484E+03  0.12624830363E+03 0.  0.
         25    2    3    3    0    0 -0.35028135634E+02 -0.43428973665E+02  0.47656928095E+02  0.14460776823E+03  0.12460809684E+03 0.  0.
          5    1    4    4  502    0 -0.36002519199E+02  0.30774762911E+02 -0.18216663960E+02  0.50962773342E+02  0.47000000000E+01 0. -1.
         -5    1    4    4    0  502  0.71030654833E+02  0.12654210754E+02  0.57980665863E+02  0.92678641497E+02  0.47000000000E+01 0. -1.
          5    1    5    5  503    0 -0.13530514086E+02 -0.62049758014E+02 -0.23464129004E+02  0.67866800654E+02  0.47000000000E+01 0.  1.
         -5    1    5    5    0  503 -0.21497621547E+02  0.18620784349E+02  0.71121057099E+02  0.76740967578E+02  0.47000000000E+01 0.  1.
<mgrwt>
<rscale>  0 0.27467285E+03</rscale>
<asrwt>0</asrwt>
<pdfrwt beam="1">  1        2 0.15448327E-01 0.27467285E+03</pdfrwt>
<pdfrwt beam="2">  1       -2 0.28897701E-01 0.27467285E+03</pdfrwt>
<totfact> 0.40960031E+03</totfact>
</mgrwt>
</event>
<event>
 9    1  0.8285222E-001  0.2747042E+03  0.7818608E-02  0.1098617E+00
          2   -1    0    0  501    0  0.00000000000E+00  0.00000000000E+00  0.10399920324E+03  0.10399920324E+03  0.00000000000E+00 0. -1.
         -2   -1    0    0    0  501 -0.00000000000E+00 -0.00000000000E+00 -0.18140136760E+03  0.18140136760E+03  0.00000000000E+00 0. -1.
         35    2    1    2    0    0  0.00000000000E+00 -0.14210854715E-13 -0.77402164354E+02  0.28540057084E+03  0.27470418779E+03 0.  0.
         25    2    3    3    0    0  0.19772858557E+02  0.46400052947E+02 -0.66144113158E+02  0.15009507803E+03  0.12493821630E+03 0.  0.
         25    2    3    3    0    0 -0.19772858557E+02 -0.46400052947E+02 -0.11258051197E+02  0.13530549282E+03  0.12504759822E+03 0.  0.
          5    1    4    4  502    0  0.53942993039E+02  0.60659890094E+02 -0.89533351886E+01  0.81802939893E+02  0.47000000000E+01 0. -1.
         -5    1    4    4    0  502 -0.34170134482E+02 -0.14259837147E+02 -0.57190777969E+02  0.68292138132E+02  0.47000000000E+01 0. -1.
          5    1    5    5  503    0  0.42147354309E+02  0.14822991811E+02  0.89113273601E+01  0.45799806952E+02  0.47000000000E+01 0. -1.
         -5    1    5    5    0  503 -0.61920212866E+02 -0.61223044758E+02 -0.20169378557E+02  0.89505685865E+02  0.47000000000E+01 0. -1.
<mgrwt>
<rscale>  0 0.27470419E+03</rscale>
<asrwt>0</asrwt>
<pdfrwt beam="1">  1        2 0.15999878E-01 0.27470419E+03</pdfrwt>
<pdfrwt beam="2">  1       -2 0.27907902E-01 0.27470419E+03</pdfrwt>
<totfact> 0.41845619E+03</totfact>
</mgrwt>
</event>
<event>
 9    1  0.8285222E-001  0.2771034E+03  0.7818608E-02  0.1097282E+00
         -1   -1    0    0    0  501 -0.00000000000E+00  0.00000000000E+00  0.55987949000E+03  0.55987949000E+03  0.00000000000E+00 0.  1.
          1   -1    0    0  501    0  0.00000000000E+00 -0.00000000000E+00 -0.34286982887E+02  0.34286982887E+02  0.00000000000E+00 0.  1.
         35    2    1    2    0    0  0.00000000000E+00  0.00000000000E+00  0.52559250711E+03  0.59416647289E+03  0.27710343551E+03 0.  0.
         25    2    3    3    0    0 -0.97985737851E+01 -0.35993384369E+02  0.35584276580E+03  0.38000988788E+03  0.12803087577E+03 0.  0.
         25    2    3    3    0    0  0.97985737851E+01  0.35993384369E+02  0.16974974132E+03  0.21415658501E+03  0.12512606626E+03 0.  0.
          5    1    4    4  502    0  0.57537769399E+01 -0.70567693365E+02  0.31949355896E+03  0.32727836701E+03  0.47000000000E+01 0.  1.
         -5    1    4    4    0  502 -0.15552350725E+02  0.34574308995E+02  0.36349206840E+02  0.52731520872E+02  0.47000000000E+01 0.  1.
          5    1    5    5  503    0 -0.43920920507E+02 -0.43632624852E+01  0.17569638497E+02  0.47737485424E+02  0.47000000000E+01 0. -1.
         -5    1    5    5    0  503  0.53719494292E+02  0.40356646855E+02  0.15218010282E+03  0.16641909959E+03  0.47000000000E+01 0. -1.
<mgrwt>
<rscale>  0 0.27710344E+03</rscale>
<asrwt>0</asrwt>
<pdfrwt beam="1">  1        1 0.52749209E-02 0.27710344E+03</pdfrwt>
<pdfrwt beam="2">  1       -1 0.86135299E-01 0.27710344E+03</pdfrwt>
<totfact> 0.21540783E+03</totfact>
</mgrwt>
</event>
<event>
 9    1  0.8285222E-001  0.2763361E+03  0.7818608E-02  0.1097707E+00
          4   -1    0    0  501    0  0.00000000000E+00  0.00000000000E+00  0.99856361289E+02  0.99856361289E+02  0.00000000000E+00 0. -1.
         -4   -1    0    0    0  501 -0.00000000000E+00 -0.00000000000E+00 -0.19117871064E+03  0.19117871064E+03  0.00000000000E+00 0. -1.
         35    2    1    2    0    0  0.00000000000E+00  0.00000000000E+00 -0.91322349355E+02  0.29103507193E+03  0.27633610261E+03 0.  0.
         25    2    3    3    0    0 -0.99652398039E+01 -0.57373757081E+02 -0.62401141908E+02  0.15074828277E+03  0.12425815160E+03 0.  0.
         25    2    3    3    0    0  0.99652398039E+01  0.57373757081E+02 -0.28921207447E+02  0.14028678917E+03  0.12430966563E+03 0.  0.
          5    1    4    4  502    0  0.28079746198E+02  0.74891433056E+01 -0.69097518328E+02  0.75107366171E+02  0.47000000000E+01 0. -1.
         -5    1    4    4    0  502 -0.38044986001E+02 -0.64862900387E+02  0.66963764202E+01  0.75640916597E+02  0.47000000000E+01 0. -1.
          5    1    5    5  503    0  0.33409818395E+02 -0.86083886699E+01  0.32046402554E+02  0.47322111505E+02  0.47000000000E+01 0.  1.
         -5    1    5    5    0  503 -0.23444578591E+02  0.65982145751E+02 -0.60967610001E+02  0.92964677660E+02  0.47000000000E+01 0.  1.
<mgrwt>
<rscale>  0 0.27633610E+03</rscale>
<asrwt>0</asrwt>
<pdfrwt beam="1">  1        4 0.15362517E-01 0.27633610E+03</pdfrwt>
<pdfrwt beam="2">  1       -4 0.29412109E-01 0.27633610E+03</pdfrwt>
<totfact> 0.74873496E+02</totfact>
</mgrwt>
</event>
<event>
 9    1  0.8285222E-001  0.2739547E+03  0.7818608E-02  0.1099037E+00
         -2   -1    0    0    0  501 -0.00000000000E+00  0.00000000000E+00  0.12168682928E+02  0.12168682928E+02  0.00000000000E+00 0. -1.
          2   -1    0    0  501    0  0.00000000000E+00 -0.00000000000E+00 -0.15418914126E+04  0.15418914126E+04  0.00000000000E+00 0. -1.
         35    2    1    2    0    0  0.00000000000E+00  0.00000000000E+00 -0.15297227297E+04  0.15540600955E+04  0.27395465106E+03 0.  0.
         25    2    3    3    0    0 -0.54029567185E+02  0.11414639829E+02 -0.74086515307E+03  0.75334557667E+03  0.12489553520E+03 0.  0.
         25    2    3    3    0    0  0.54029567185E+02 -0.11414639829E+02 -0.78885757660E+03  0.80071451886E+03  0.12569000129E+03 0.  0.
          5    1    4    4  502    0  0.56804960354E+01  0.17936924298E+01  0.21276142752E+01  0.78804892136E+01  0.47000000000E+01 0. -1.
         -5    1    4    4    0  502 -0.59710063221E+02  0.96209473988E+01 -0.74299276735E+03  0.74546508745E+03  0.47000000000E+01 0. -1.
          5    1    5    5  503    0  0.28416281058E+02 -0.63872416445E+02 -0.28598173594E+03  0.29443983070E+03  0.47000000000E+01 0. -1.
         -5    1    5    5    0  503  0.25613286127E+02  0.52457776617E+02 -0.50287584066E+03  0.50627468816E+03  0.47000000000E+01 0. -1.
<mgrwt>
<rscale>  0 0.27395465E+03</rscale>
<asrwt>0</asrwt>
<pdfrwt beam="1">  1        2 0.23721414E+00 0.27395465E+03</pdfrwt>
<pdfrwt beam="2">  1       -2 0.18721045E-02 0.27395465E+03</pdfrwt>
<totfact> 0.11040105E+04</totfact>
</mgrwt>
</event>
<event>
 9    1  0.8285222E-001  0.2745680E+03  0.7818608E-02  0.1098693E+00
         -1   -1    0    0    0  501 -0.00000000000E+00  0.00000000000E+00  0.23589564905E+02  0.23589564905E+02  0.00000000000E+00 0.  1.
          1   -1    0    0  501    0  0.00000000000E+00 -0.00000000000E+00 -0.79895071297E+03  0.79895071297E+03  0.00000000000E+00 0.  1.
         35    2    1    2    0    0  0.00000000000E+00 -0.17763568394E-14 -0.77536114806E+03  0.82254027787E+03  0.27456802217E+03 0.  0.
         25    2    3    3    0    0 -0.38958592179E+02  0.85307635678E+01 -0.26912545205E+03  0.29943846056E+03  0.12507732365E+03 0.  0.
         25    2    3    3    0    0  0.38958592179E+02 -0.85307635678E+01 -0.50623569601E+03  0.52310181731E+03  0.12558019559E+03 0.  0.
          5    1    4    4  502    0  0.14086089126E+02 -0.49711032522E+02 -0.11950777901E+03  0.13028355194E+03  0.47000000000E+01 0.  1.
         -5    1    4    4    0  502 -0.53044681305E+02  0.58241796089E+02 -0.14961767304E+03  0.16915490863E+03  0.47000000000E+01 0.  1.
          5    1    5    5  503    0  0.71421070222E+02 -0.76950513716E+01 -0.46433782118E+03  0.46988497025E+03  0.47000000000E+01 0.  1.
         -5    1    5    5    0  503 -0.32462478044E+02 -0.83571219621E+00 -0.41897874826E+02  0.53216847056E+02  0.47000000000E+01 0.  1.
<mgrwt>
<rscale>  0 0.27456802E+03</rscale>
<asrwt>0</asrwt>
<pdfrwt beam="1">  1        1 0.12291549E+00 0.27456802E+03</pdfrwt>
<pdfrwt beam="2">  1       -1 0.36291639E-02 0.27456802E+03</pdfrwt>
<totfact> 0.65515778E+03</totfact>
</mgrwt>
</event>
<event>
 9    1  0.8285222E-001  0.2747235E+03  0.7818608E-02  0.1098606E+00
          1   -1    0    0  501    0  0.00000000000E+00  0.00000000000E+00  0.27532458543E+03  0.27532458543E+03  0.00000000000E+00 0.  1.
         -1   -1    0    0    0  501 -0.00000000000E+00 -0.00000000000E+00 -0.68530951973E+02  0.68530951973E+02  0.00000000000E+00 0.  1.
         35    2    1    2    0    0  0.00000000000E+00  0.71054273576E-14  0.20679363346E+03  0.34385553741E+03  0.27472354061E+03 0.  0.
         25    2    3    3    0    0  0.22181796345E+02 -0.26745855177E+02  0.16087924475E+03  0.20587990916E+03  0.12368117376E+03 0.  0.
         25    2    3    3    0    0 -0.22181796345E+02  0.26745855177E+02  0.45914388707E+02  0.13797562825E+03  0.12538648269E+03 0.  0.
          5    1    4    4  502    0  0.25285995483E+02  0.27073602402E+02  0.14463954850E+03  0.14938222955E+03  0.47000000000E+01 0.  1.
         -5    1    4    4    0  502 -0.31041991383E+01 -0.53819457579E+02  0.16239696250E+02  0.56497679604E+02  0.47000000000E+01 0.  1.
          5    1    5    5  503    0  0.27357125495E+02  0.62796827496E+02  0.24878905719E+02  0.73026733520E+02  0.47000000000E+01 0.  1.
         -5    1    5    5    0  503 -0.49538921839E+02 -0.36050972319E+02  0.21035482988E+02  0.64948894730E+02  0.47000000000E+01 0.  1.
<mgrwt>
<rscale>  0 0.27472354E+03</rscale>
<asrwt>0</asrwt>
<pdfrwt beam="1">  1        1 0.42357628E-01 0.27472354E+03</pdfrwt>
<pdfrwt beam="2">  1       -1 0.10543224E-01 0.27472354E+03</pdfrwt>
<totfact> 0.54467715E+03</totfact>
</mgrwt>
</event>
<event>
 9    1  0.8285222E-001  0.2615163E+03  0.7818608E-02  0.1106236E+00
         -1   -1    0    0    0  501 -0.00000000000E+00  0.00000000000E+00  0.25508162387E+02  0.25508162387E+02  0.00000000000E+00 0. -1.
          1   -1    0    0  501    0  0.00000000000E+00 -0.00000000000E+00 -0.67028298999E+03  0.67028298999E+03  0.00000000000E+00 0. -1.
         35    2    1    2    0    0  0.00000000000E+00  0.00000000000E+00 -0.64477482760E+03  0.69579115237E+03  0.26151625077E+03 0.  0.
         25    2    3    3    0    0 -0.18378857203E+02  0.95797625408E+01 -0.41367416584E+03  0.43234943689E+03  0.12397647300E+03 0.  0.
         25    2    3    3    0    0  0.18378857203E+02 -0.95797625408E+01 -0.23110066176E+03  0.26344171548E+03  0.12475763442E+03 0.  0.
          5    1    4    4  502    0  0.24932743420E+02 -0.31032400619E+02 -0.51249339424E+02  0.65063325876E+02  0.47000000000E+01 0.  1.
         -5    1    4    4    0  502 -0.43311600623E+02  0.40612163160E+02 -0.36242482641E+03  0.36728611102E+03  0.47000000000E+01 0.  1.
          5    1    5    5  503    0 -0.10895571787E+02  0.49880415750E+02 -0.54846078391E+02  0.75079635553E+02  0.47000000000E+01 0.  1.
         -5    1    5    5    0  503  0.29274428990E+02 -0.59460178291E+02 -0.17625458337E+03  0.18836207993E+03  0.47000000000E+01 0.  1.
<mgrwt>
<rscale>  0 0.26151625E+03</rscale>
<asrwt>0</asrwt>
<pdfrwt beam="1">  1        1 0.10312045E+00 0.26151625E+03</pdfrwt>
<pdfrwt beam="2">  1       -1 0.39243331E-02 0.26151625E+03</pdfrwt>
<totfact> 0.75601576E+03</totfact>
</mgrwt>
</event>
<event>
 9    1  0.8285222E-001  0.2762376E+03  0.7818608E-02  0.1097762E+00
          2   -1    0    0  501    0  0.00000000000E+00  0.00000000000E+00  0.12147876095E+04  0.12147876095E+04  0.00000000000E+00 0. -1.
         -2   -1    0    0    0  501 -0.00000000000E+00 -0.00000000000E+00 -0.15703814206E+02  0.15703814206E+02  0.00000000000E+00 0. -1.
         35    2    1    2    0    0 -0.35527136788E-14 -0.17763568394E-14  0.11990837953E+04  0.12304914237E+04  0.27623757109E+03 0.  0.
         25    2    3    3    0    0 -0.49803174059E+01  0.22674104090E+01  0.86126152053E+03  0.87035971713E+03  0.12539810905E+03 0.  0.
         25    2    3    3    0    0  0.49803174059E+01 -0.22674104090E+01  0.33782227480E+03  0.36013170661E+03  0.12466359549E+03 0.  0.
          5    1    4    4  502    0 -0.75579479622E+01  0.12686647894E+02  0.85807763545E+03  0.85821756686E+03  0.47000000000E+01 0.  1.
         -5    1    4    4    0  502  0.25776305563E+01 -0.10419237485E+02  0.31838850812E+01  0.12142150273E+02  0.47000000000E+01 0.  1.
          5    1    5    5  503    0  0.43544346442E+02 -0.18483142440E+02  0.49046789768E+02  0.68303837726E+02  0.47000000000E+01 0.  1.
         -5    1    5    5    0  503 -0.38564029036E+02  0.16215732031E+02  0.28877548503E+03  0.29182786888E+03  0.47000000000E+01 0.  1.
<mgrwt>
<rscale>  0 0.27623757E+03</rscale>
<asrwt>0</asrwt>
<pdfrwt beam="1">  1        2 0.18689033E+00 0.27623757E+03</pdfrwt>
<pdfrwt beam="2">  1       -2 0.24159724E-02 0.27623757E+03</pdfrwt>
<totfact> 0.11444748E+04</totfact>
</mgrwt>
</event>
<event>
 9    1  0.8285222E-001  0.2785003E+03  0.7818608E-02  0.1096511E+00
          1   -1    0    0  501    0  0.00000000000E+00  0.00000000000E+00  0.51352684160E+03  0.51352684160E+03  0.00000000000E+00 0. -1.
         -1   -1    0    0    0  501 -0.00000000000E+00 -0.00000000000E+00 -0.37759683720E+02  0.37759683720E+02  0.00000000000E+00 0. -1.
         35    2    1    2    0    0 -0.71054273576E-14  0.00000000000E+00  0.47576715788E+03  0.55128652532E+03  0.27850034916E+03 0.  0.
         25    2    3    3    0    0 -0.46938088520E+02 -0.34435909317E+02  0.20582253459E+03  0.24801273092E+03  0.12553239800E+03 0.  0.
         25    2    3    3    0    0  0.46938088520E+02  0.34435909317E+02  0.26994462329E+03  0.30327379440E+03  0.12536298785E+03 0.  0.
          5    1    4    4  502    0  0.26641492690E+02  0.32549545343E+01  0.12041683018E+01  0.27274601428E+02  0.47000000000E+01 0. -1.
         -5    1    4    4    0  502 -0.73579581210E+02 -0.37690863851E+02  0.20461836629E+03  0.22073812950E+03  0.47000000000E+01 0. -1.
          5    1    5    5  503    0 -0.24242491458E+02  0.58041899265E+02  0.12434075325E+03  0.13942479472E+03  0.47000000000E+01 0.  1.
         -5    1    5    5    0  503  0.71180579978E+02 -0.23605989948E+02  0.14560387004E+03  0.16384899968E+03  0.47000000000E+01 0.  1.
<mgrwt>
<rscale>  0 0.27850035E+03</rscale>
<asrwt>0</asrwt>
<pdfrwt beam="1">  1        1 0.79004124E-01 0.27850035E+03</pdfrwt>
<pdfrwt beam="2">  1       -1 0.58091825E-02 0.27850035E+03</pdfrwt>
<totfact> 0.60881564E+03</totfact>
</mgrwt>
</event>
<event>
 9    1  0.8285222E-001  0.2725821E+03  0.7818608E-02  0.1099811E+00
          2   -1    0    0  501    0  0.00000000000E+00  0.00000000000E+00  0.13120450159E+03  0.13120450159E+03  0.00000000000E+00 0.  1.
         -2   -1    0    0    0  501 -0.00000000000E+00 -0.00000000000E+00 -0.14157484015E+03  0.14157484015E+03  0.00000000000E+00 0.  1.
         35    2    1    2    0    0  0.35527136788E-14 -0.71054273576E-14 -0.10370338555E+02  0.27277934174E+03  0.27258214424E+03 0.  0.
         25    2    3    3    0    0 -0.16631362605E+02  0.50200512511E+02  0.27680763321E+02  0.13082465755E+03  0.11641379938E+03 0.  0.
         25    2    3    3    0    0  0.16631362605E+02 -0.50200512511E+02 -0.38051101876E+02  0.14195468419E+03  0.12612118114E+03 0.  0.
          5    1    4    4  502    0  0.21015571400E+02  0.23820334590E+02 -0.38483682059E+02  0.50121316484E+02  0.47000000000E+01 0.  1.
         -5    1    4    4    0  502 -0.37646934005E+02  0.26380177920E+02  0.66164445380E+02  0.80703341068E+02  0.47000000000E+01 0.  1.
          5    1    5    5  503    0  0.20087850970E+02 -0.82866932774E+02 -0.58005634494E+02  0.10323368606E+03  0.47000000000E+01 0. -1.
         -5    1    5    5    0  503 -0.34564883646E+01  0.32666420263E+02  0.19954532619E+02  0.38720998136E+02  0.47000000000E+01 0. -1.
<mgrwt>
<rscale>  0 0.27258214E+03</rscale>
<asrwt>0</asrwt>
<pdfrwt beam="1">  1        2 0.20185308E-01 0.27258214E+03</pdfrwt>
<pdfrwt beam="2">  1       -2 0.21780745E-01 0.27258214E+03</pdfrwt>
<totfact> 0.49440045E+03</totfact>
</mgrwt>
</event>
<event>
 9    1  0.8285222E-001  0.2712659E+03  0.7818608E-02  0.1100557E+00
         -1   -1    0    0    0  501 -0.00000000000E+00  0.00000000000E+00  0.11666244029E+02  0.11666244029E+02  0.00000000000E+00 0.  1.
          1   -1    0    0  501    0  0.00000000000E+00 -0.00000000000E+00 -0.15768826886E+04  0.15768826886E+04  0.00000000000E+00 0.  1.
         35    2    1    2    0    0  0.00000000000E+00  0.17763568394E-14 -0.15652164445E+04  0.15885489326E+04  0.27126590829E+03 0.  0.
         25    2    3    3    0    0 -0.24365603765E+02  0.41827612233E+01 -0.51227089703E+03  0.52796659991E+03  0.12536379277E+03 0.  0.
         25    2    3    3    0    0  0.24365603765E+02 -0.41827612233E+01 -0.10529455475E+04  0.10605823327E+04  0.12461693405E+03 0.  0.
          5    1    4    4  502    0 -0.27116431215E+02  0.27966979463E+02 -0.49831557313E+03  0.49985793302E+03  0.47000000000E+01 0. -1.
         -5    1    4    4    0  502  0.27508274499E+01 -0.23784218240E+02 -0.13955323897E+02  0.28108666884E+02  0.47000000000E+01 0. -1.
          5    1    5    5  503    0  0.20839007400E+02  0.13675480817E+02 -0.10324832086E+04  0.10327947275E+04  0.47000000000E+01 0. -1.
         -5    1    5    5    0  503  0.35265963652E+01 -0.17858242040E+02 -0.20462338867E+02  0.27787605197E+02  0.47000000000E+01 0. -1.
<mgrwt>
<rscale>  0 0.27126591E+03</rscale>
<asrwt>0</asrwt>
<pdfrwt beam="1">  1        1 0.24259722E+00 0.27126591E+03</pdfrwt>
<pdfrwt beam="2">  1       -1 0.17948076E-02 0.27126591E+03</pdfrwt>
<totfact> 0.51134739E+03</totfact>
</mgrwt>
</event>
<event>
 9    1  0.8285222E-001  0.2763886E+03  0.7818608E-02  0.1097678E+00
         -1   -1    0    0    0  501 -0.00000000000E+00  0.00000000000E+00  0.10195663457E+03  0.10195663457E+03  0.00000000000E+00 0.  1.
          1   -1    0    0  501    0  0.00000000000E+00 -0.00000000000E+00 -0.18731165184E+03  0.18731165184E+03  0.00000000000E+00 0.  1.
         35    2    1    2    0    0  0.71054273576E-14 -0.71054273576E-14 -0.85355017272E+02  0.28926828641E+03  0.27638860785E+03 0.  0.
         25    2    3    3    0    0 -0.45721028733E+02  0.32943937304E+02 -0.36380786658E+02  0.14193620575E+03  0.12508640770E+03 0.  0.
         25    2    3    3    0    0  0.45721028733E+02 -0.32943937304E+02 -0.48974230614E+02  0.14733208066E+03  0.12701398054E+03 0.  0.
          5    1    4    4  502    0 -0.17214662418E+02  0.67617325963E+02  0.17063988955E+02  0.71984144723E+02  0.47000000000E+01 0.  1.
         -5    1    4    4    0  502 -0.28506366315E+02 -0.34673388658E+02 -0.53444775613E+02  0.69952061027E+02  0.47000000000E+01 0.  1.
          5    1    5    5  503    0 -0.37259414935E+02  0.71552535882E+01  0.77545140586E+01  0.39008770084E+02  0.47000000000E+01 0. -1.
         -5    1    5    5    0  503  0.82980443668E+02 -0.40099190892E+02 -0.56728744672E+02  0.10832331057E+03  0.47000000000E+01 0. -1.
<mgrwt>
<rscale>  0 0.27638861E+03</rscale>
<asrwt>0</asrwt>
<pdfrwt beam="1">  1        1 0.28817177E-01 0.27638861E+03</pdfrwt>
<pdfrwt beam="2">  1       -1 0.15685636E-01 0.27638861E+03</pdfrwt>
<totfact> 0.47394881E+03</totfact>
</mgrwt>
</event>
<event>
 9    1  0.8285222E-001  0.2742838E+03  0.7818608E-02  0.1098853E+00
          2   -1    0    0  501    0  0.00000000000E+00  0.00000000000E+00  0.45781796318E+03  0.45781796318E+03  0.00000000000E+00 0. -1.
         -2   -1    0    0    0  501 -0.00000000000E+00 -0.00000000000E+00 -0.41081608226E+02  0.41081608226E+02  0.00000000000E+00 0. -1.
         35    2    1    2    0    0  0.00000000000E+00  0.17763568394E-14  0.41673635495E+03  0.49889957140E+03  0.27428378153E+03 0.  0.
         25    2    3    3    0    0 -0.66497931383E+01 -0.35064384348E+01  0.11128876861E+03  0.16910482261E+03  0.12710128305E+03 0.  0.
         25    2    3    3    0    0  0.66497931383E+01  0.35064384348E+01  0.30544758634E+03  0.32979474879E+03  0.12413635031E+03 0.  0.
          5    1    4    4  502    0 -0.56320316080E+02 -0.15326362058E+02  0.15688284056E+02  0.60622501053E+02  0.47000000000E+01 0.  1.
         -5    1    4    4    0  502  0.49670522942E+02  0.11819923623E+02  0.95600484554E+02  0.10848232156E+03  0.47000000000E+01 0.  1.
          5    1    5    5  503    0 -0.56789398813E+02 -0.90118151371E+01  0.11587791129E+03  0.12944508084E+03  0.47000000000E+01 0.  1.
         -5    1    5    5    0  503  0.63439191951E+02  0.12518253572E+02  0.18956967505E+03  0.20034966795E+03  0.47000000000E+01 0.  1.
<mgrwt>
<rscale>  0 0.27428378E+03</rscale>
<asrwt>0</asrwt>
<pdfrwt beam="1">  1        2 0.70433529E-01 0.27428378E+03</pdfrwt>
<pdfrwt beam="2">  1       -2 0.63202478E-02 0.27428378E+03</pdfrwt>
<totfact> 0.93286562E+03</totfact>
</mgrwt>
</event>
<event>
 9    1  0.8285222E-001  0.2743630E+03  0.7818608E-02  0.1098808E+00
          2   -1    0    0  501    0  0.00000000000E+00  0.00000000000E+00  0.34156662937E+04  0.34156662937E+04  0.00000000000E+00 0. -1.
         -2   -1    0    0    0  501 -0.00000000000E+00 -0.00000000000E+00 -0.55095441269E+01  0.55095441269E+01  0.00000000000E+00 0. -1.
         35    2    1    2    0    0 -0.14210854715E-13  0.35527136788E-14  0.34101567496E+04  0.34211758378E+04  0.27436300164E+03 0.  0.
         25    2    3    3    0    0  0.56704226032E+02 -0.47040467000E+01  0.18726256992E+04  0.18777059367E+04  0.12575801365E+03 0.  0.
         25    2    3    3    0    0 -0.56704226032E+02  0.47040467000E+01  0.15375310504E+04  0.15434699011E+04  0.12271963009E+03 0.  0.
          5    1    4    4  502    0  0.28471582603E+02  0.58419165674E+02  0.69699116545E+03  0.70003014553E+03  0.47000000000E+01 0.  1.
         -5    1    4    4    0  502  0.28232643429E+02 -0.63123212374E+02  0.11756345338E+04  0.11776757912E+04  0.47000000000E+01 0.  1.
          5    1    5    5  503    0 -0.85608375719E+02  0.34018553028E+02  0.11635677525E+04  0.11672180861E+04  0.47000000000E+01 0. -1.
         -5    1    5    5    0  503  0.28904149688E+02 -0.29314506328E+02  0.37396329786E+03  0.37625181500E+03  0.47000000000E+01 0. -1.
<mgrwt>
<rscale>  0 0.27436300E+03</rscale>
<asrwt>0</asrwt>
<pdfrwt beam="1">  1        2 0.52548543E+00 0.27436300E+03</pdfrwt>
<pdfrwt beam="2">  1       -2 0.84762491E-03 0.27436300E+03</pdfrwt>
<totfact> 0.31222350E+03</totfact>
</mgrwt>
</event>
<event>
 9    1  0.8285222E-001  0.2764159E+03  0.7818608E-02  0.1097663E+00
         -1   -1    0    0    0  501 -0.00000000000E+00  0.00000000000E+00  0.10176420032E+03  0.10176420032E+03  0.00000000000E+00 0. -1.
          1   -1    0    0  501    0  0.00000000000E+00 -0.00000000000E+00 -0.18770285561E+03  0.18770285561E+03  0.00000000000E+00 0. -1.
         35    2    1    2    0    0 -0.35527136788E-14  0.14210854715E-13 -0.85938655284E+02  0.28946705593E+03  0.27641585338E+03 0.  0.
         25    2    3    3    0    0 -0.97492673697E+01 -0.48099486261E+02 -0.77276139457E+02  0.15483884478E+03  0.12487937112E+03 0.  0.
         25    2    3    3    0    0  0.97492673697E+01  0.48099486261E+02 -0.86625158267E+01  0.13462821115E+03  0.12506441246E+03 0.  0.
          5    1    4    4  502    0  0.43431396785E+02 -0.40799934094E+02  0.10306431875E+01  0.59783551870E+02  0.47000000000E+01 0.  1.
         -5    1    4    4    0  502 -0.53180664155E+02 -0.72995521670E+01 -0.78306782645E+02  0.95055292909E+02  0.47000000000E+01 0.  1.
          5    1    5    5  503    0  0.86244569540E+01 -0.28911962234E+02  0.34614530980E+02  0.46157757451E+02  0.47000000000E+01 0.  1.
         -5    1    5    5    0  503  0.11248104158E+01  0.77011448495E+02 -0.43277046807E+02  0.88470453701E+02  0.47000000000E+01 0.  1.
<mgrwt>
<rscale>  0 0.27641585E+03</rscale>
<asrwt>0</asrwt>
<pdfrwt beam="1">  1        1 0.28877362E-01 0.27641585E+03</pdfrwt>
<pdfrwt beam="2">  1       -1 0.15656031E-01 0.27641585E+03</pdfrwt>
<totfact> 0.47412623E+03</totfact>
</mgrwt>
</event>
<event>
 9    1  0.8285222E-001  0.2759129E+03  0.7818608E-02  0.1097942E+00
          4   -1    0    0  501    0  0.00000000000E+00  0.00000000000E+00  0.99488935743E+02  0.99488935743E+02  0.00000000000E+00 0. -1.
         -4   -1    0    0    0  501 -0.00000000000E+00 -0.00000000000E+00 -0.19129745100E+03  0.19129745100E+03  0.00000000000E+00 0. -1.
         35    2    1    2    0    0 -0.35527136788E-14 -0.71054273576E-14 -0.91808515260E+02  0.29078638675E+03  0.27591288343E+03 0.  0.
         25    2    3    3    0    0  0.32131482780E+01 -0.38661528639E+02  0.14558840251E+01  0.13014415370E+03  0.12421893183E+03 0.  0.
         25    2    3    3    0    0 -0.32131482780E+01  0.38661528639E+02 -0.93264399285E+02  0.16064223305E+03  0.12491053096E+03 0.  0.
          5    1    4    4  502    0  0.12173181579E+01 -0.54462857508E+02  0.52903747309E+02  0.76082725968E+02  0.47000000000E+01 0. -1.
         -5    1    4    4    0  502  0.19958301201E+01  0.15801328870E+02 -0.51447863284E+02  0.54061427731E+02  0.47000000000E+01 0. -1.
          5    1    5    5  503    0 -0.43278315078E+02  0.65853584569E+02 -0.39974383079E+02  0.88485865872E+02  0.47000000000E+01 0. -1.
         -5    1    5    5    0  503  0.40065166800E+02 -0.27192055930E+02 -0.53290016206E+02  0.72156367174E+02  0.47000000000E+01 0. -1.
<mgrwt>
<rscale>  0 0.27591288E+03</rscale>
<asrwt>0</asrwt>
<pdfrwt beam="1">  1        4 0.15305990E-01 0.27591288E+03</pdfrwt>
<pdfrwt beam="2">  1       -4 0.29430376E-01 0.27591288E+03</pdfrwt>
<totfact> 0.75257282E+02</totfact>
</mgrwt>
</event>
<event>
 9    1  0.8285222E-001  0.2743452E+03  0.7818608E-02  0.1098818E+00
          1   -1    0    0  501    0  0.00000000000E+00  0.00000000000E+00  0.50051652528E+02  0.50051652528E+02  0.00000000000E+00 0.  1.
         -1   -1    0    0    0  501 -0.00000000000E+00 -0.00000000000E+00 -0.37593795597E+03  0.37593795597E+03  0.00000000000E+00 0.  1.
         35    2    1    2    0    0  0.00000000000E+00  0.00000000000E+00 -0.32588630344E+03  0.42598960850E+03  0.27434515446E+03 0.  0.
         25    2    3    3    0    0 -0.38681474989E+02 -0.38780134576E+02 -0.19317873761E+03  0.23627841264E+03  0.12453637328E+03 0.  0.
         25    2    3    3    0    0  0.38681474989E+02  0.38780134576E+02 -0.13270756583E+03  0.18971119586E+03  0.12401163034E+03 0.  0.
          5    1    4    4  502    0 -0.16617542191E+02 -0.67552289778E+02 -0.18650582000E+03  0.19911294648E+03  0.47000000000E+01 0.  1.
         -5    1    4    4    0  502 -0.22063932799E+02  0.28772155202E+02 -0.66729176109E+01  0.37165466161E+02  0.47000000000E+01 0.  1.
          5    1    5    5  503    0  0.94486310870E+01 -0.17738759243E+02  0.17150226918E+02  0.26835806159E+02  0.47000000000E+01 0.  1.
         -5    1    5    5    0  503  0.29232843902E+02  0.56518893819E+02 -0.14985779275E+03  0.16287538970E+03  0.47000000000E+01 0.  1.
<mgrwt>
<rscale>  0 0.27434515E+03</rscale>
<asrwt>0</asrwt>
<pdfrwt beam="1">  1        1 0.77002540E-02 0.27434515E+03</pdfrwt>
<pdfrwt beam="2">  1       -1 0.57836610E-01 0.27434515E+03</pdfrwt>
<totfact> 0.28488512E+03</totfact>
</mgrwt>
</event>
<event>
 9    1  0.8285222E-001  0.2739574E+03  0.7818608E-02  0.1099036E+00
          2   -1    0    0  501    0  0.00000000000E+00  0.00000000000E+00  0.54097831387E+02  0.54097831387E+02  0.00000000000E+00 0.  1.
         -2   -1    0    0    0  501 -0.00000000000E+00 -0.00000000000E+00 -0.34683759384E+03  0.34683759384E+03  0.00000000000E+00 0.  1.
         35    2    1    2    0    0  0.53290705182E-14  0.17763568394E-14 -0.29273976245E+03  0.40093542522E+03  0.27395738114E+03 0.  0.
         25    2    3    3    0    0 -0.10426388692E+02 -0.15466379072E+02 -0.21973572808E+03  0.25491913975E+03  0.12787517021E+03 0.  0.
         25    2    3    3    0    0  0.10426388692E+02  0.15466379072E+02 -0.73004034371E+02  0.14601628547E+03  0.12507297120E+03 0.  0.
          5    1    4    4  502    0 -0.58206390063E+02  0.59872009372E+01 -0.17906267429E+03  0.18843927867E+03  0.47000000000E+01 0. -1.
         -5    1    4    4    0  502  0.47780001371E+02 -0.21453580009E+02 -0.40673053785E+02  0.66479861089E+02  0.47000000000E+01 0. -1.
          5    1    5    5  503    0  0.10925009845E+02 -0.40596096642E+02 -0.78820780914E+02  0.89455041259E+02  0.47000000000E+01 0. -1.
         -5    1    5    5    0  503 -0.49862115246E+00  0.56062475714E+02  0.58167465431E+01  0.56561244210E+02  0.47000000000E+01 0. -1.
<mgrwt>
<rscale>  0 0.27395738E+03</rscale>
<asrwt>0</asrwt>
<pdfrwt beam="1">  1        2 0.83227433E-02 0.27395738E+03</pdfrwt>
<pdfrwt beam="2">  1       -2 0.53359630E-01 0.27395738E+03</pdfrwt>
<totfact> 0.27127770E+03</totfact>
</mgrwt>
</event>
<event>
 9    1  0.8285222E-001  0.2710730E+03  0.7818608E-02  0.1100667E+00
          2   -1    0    0  501    0  0.00000000000E+00  0.00000000000E+00  0.58577994345E+02  0.58577994345E+02  0.00000000000E+00 0. -1.
         -2   -1    0    0    0  501 -0.00000000000E+00 -0.00000000000E+00 -0.31360148282E+03  0.31360148282E+03  0.00000000000E+00 0. -1.
         35    2    1    2    0    0  0.00000000000E+00 -0.35527136788E-14 -0.25502348847E+03  0.37217947716E+03  0.27107302254E+03 0.  0.
         25    2    3    3    0    0  0.52117073617E+02 -0.11820618797E+02 -0.11672470501E+03  0.17838823739E+03  0.12386198000E+03 0.  0.
         25    2    3    3    0    0 -0.52117073617E+02  0.11820618797E+02 -0.13829878347E+03  0.19379123977E+03  0.12479012266E+03 0.  0.
          5    1    4    4  502    0 -0.38456978083E+02  0.12551802674E+02 -0.30312269738E+02  0.50768204718E+02  0.47000000000E+01 0.  1.
         -5    1    4    4    0  502  0.90574051701E+02 -0.24372421471E+02 -0.86412435270E+02  0.12762003267E+03  0.47000000000E+01 0.  1.
          5    1    5    5  503    0 -0.53283526947E+02  0.22338603985E+02 -0.30500545597E+01  0.58047741599E+02  0.47000000000E+01 0. -1.
         -5    1    5    5    0  503  0.11664533299E+01 -0.10517985188E+02 -0.13524872891E+03  0.13574349817E+03  0.47000000000E+01 0. -1.
<mgrwt>
<rscale>  0 0.27107302E+03</rscale>
<asrwt>0</asrwt>
<pdfrwt beam="1">  1        2 0.90119993E-02 0.27107302E+03</pdfrwt>
<pdfrwt beam="2">  1       -2 0.48246381E-01 0.27107302E+03</pdfrwt>
<totfact> 0.30007624E+03</totfact>
</mgrwt>
</event>
<event>
 9    1  0.8285222E-001  0.2748949E+03  0.7818608E-02  0.1098510E+00
         -2   -1    0    0    0  501 -0.00000000000E+00  0.00000000000E+00  0.40620562568E+02  0.40620562568E+02  0.00000000000E+00 0. -1.
          2   -1    0    0  501    0  0.00000000000E+00 -0.00000000000E+00 -0.46507960692E+03  0.46507960692E+03  0.00000000000E+00 0. -1.
         35    2    1    2    0    0  0.00000000000E+00  0.71054273576E-14 -0.42445904435E+03  0.50570016949E+03  0.27489485460E+03 0.  0.
         25    2    3    3    0    0 -0.50383065531E+02  0.27568085104E+02 -0.19930765341E+03  0.24206329204E+03  0.12479040042E+03 0.  0.
         25    2    3    3    0    0  0.50383065531E+02 -0.27568085104E+02 -0.22515139094E+03  0.26363687745E+03  0.12455039823E+03 0.  0.
          5    1    4    4  502    0  0.25828641922E+02 -0.12704821354E+02 -0.52003898980E+01  0.29625416187E+02  0.47000000000E+01 0. -1.
         -5    1    4    4    0  502 -0.76211707453E+02  0.40272906458E+02 -0.19410726352E+03  0.21243787585E+03  0.47000000000E+01 0. -1.
          5    1    5    5  503    0  0.74111018077E+02 -0.49435051582E+02 -0.98667514138E+02  0.13301742619E+03  0.47000000000E+01 0. -1.
         -5    1    5    5    0  503 -0.23727952545E+02  0.21866966478E+02 -0.12648387680E+03  0.13061945125E+03  0.47000000000E+01 0. -1.
<mgrwt>
<rscale>  0 0.27489485E+03</rscale>
<asrwt>0</asrwt>
<pdfrwt beam="1">  1        2 0.71550709E-01 0.27489485E+03</pdfrwt>
<pdfrwt beam="2">  1       -2 0.62493173E-02 0.27489485E+03</pdfrwt>
<totfact> 0.93292447E+03</totfact>
</mgrwt>
</event>
<event>
 9    1  0.8285222E-001  0.2755373E+03  0.7818608E-02  0.1098152E+00
          1   -1    0    0  501    0  0.00000000000E+00  0.00000000000E+00  0.10483148565E+04  0.10483148565E+04  0.00000000000E+00 0. -1.
         -1   -1    0    0    0  501 -0.00000000000E+00 -0.00000000000E+00 -0.18105445015E+02  0.18105445015E+02  0.00000000000E+00 0. -1.
         35    2    1    2    0    0 -0.35527136788E-14  0.00000000000E+00  0.10302094115E+04  0.10664203016E+04  0.27553734407E+03 0.  0.
         25    2    3    3    0    0 -0.19136332901E+02  0.42053794147E+02  0.37893076923E+03  0.40150540837E+03  0.12443208687E+03 0.  0.
         25    2    3    3    0    0  0.19136332901E+02 -0.42053794147E+02  0.65127864230E+03  0.66491489319E+03  0.12575064386E+03 0.  0.
          5    1    4    4  502    0  0.19814777981E+02 -0.11930384583E+02  0.84605946047E+01  0.25072518098E+02  0.47000000000E+01 0. -1.
         -5    1    4    4    0  502 -0.38951110882E+02  0.53984178729E+02  0.37047017463E+03  0.37643289027E+03  0.47000000000E+01 0. -1.
          5    1    5    5  503    0 -0.72085043623E+01  0.26811161442E+02  0.44347631710E+03  0.44436936747E+03  0.47000000000E+01 0. -1.
         -5    1    5    5    0  503  0.26344837264E+02 -0.68864955589E+02  0.20780232520E+03  0.22054552573E+03  0.47000000000E+01 0. -1.
<mgrwt>
<rscale>  0 0.27553734E+03</rscale>
<asrwt>0</asrwt>
<pdfrwt beam="1">  1        1 0.16127916E+00 0.27553734E+03</pdfrwt>
<pdfrwt beam="2">  1       -1 0.27854539E-02 0.27553734E+03</pdfrwt>
<totfact> 0.61934163E+03</totfact>
</mgrwt>
</event>
<event>
 9    1  0.8285222E-001  0.2764101E+03  0.7818608E-02  0.1097666E+00
          1   -1    0    0  501    0  0.00000000000E+00  0.00000000000E+00  0.55610302664E+02  0.55610302664E+02  0.00000000000E+00 0.  1.
         -1   -1    0    0    0  501 -0.00000000000E+00 -0.00000000000E+00 -0.34347301133E+03  0.34347301133E+03  0.00000000000E+00 0.  1.
         35    2    1    2    0    0  0.35527136788E-14  0.00000000000E+00 -0.28786270867E+03  0.39908331400E+03  0.27641011644E+03 0.  0.
         25    2    3    3    0    0  0.12325853684E+02 -0.47442586219E+02 -0.18417407106E+03  0.22714419303E+03  0.12357859976E+03 0.  0.
         25    2    3    3    0    0 -0.12325853684E+02  0.47442586219E+02 -0.10368863761E+03  0.17193912097E+03  0.12809762720E+03 0.  0.
          5    1    4    4  502    0 -0.34425471571E+02 -0.71879174936E+02 -0.11591718905E+03  0.14075018153E+03  0.47000000000E+01 0. -1.
         -5    1    4    4    0  502  0.46751325255E+02  0.24436588717E+02 -0.68256882007E+02  0.86394011497E+02  0.47000000000E+01 0. -1.
          5    1    5    5  503    0  0.18129625925E+02 -0.30691560932E+02 -0.75017698941E+02  0.83188943995E+02  0.47000000000E+01 0. -1.
         -5    1    5    5    0  503 -0.30455479609E+02  0.78134147151E+02 -0.28670938668E+02  0.88750176976E+02  0.47000000000E+01 0. -1.
<mgrwt>
<rscale>  0 0.27641012E+03</rscale>
<asrwt>0</asrwt>
<pdfrwt beam="1">  1        1 0.85554310E-02 0.27641012E+03</pdfrwt>
<pdfrwt beam="2">  1       -1 0.52842003E-01 0.27641012E+03</pdfrwt>
<totfact> 0.29286633E+03</totfact>
</mgrwt>
</event>
<event>
 9    1  0.8285222E-001  0.2736380E+03  0.7818608E-02  0.1099215E+00
          1   -1    0    0  501    0  0.00000000000E+00  0.00000000000E+00  0.12801694745E+04  0.12801694745E+04  0.00000000000E+00 0. -1.
         -1   -1    0    0    0  501 -0.00000000000E+00 -0.00000000000E+00 -0.14622630805E+02  0.14622630805E+02  0.00000000000E+00 0. -1.
         35    2    1    2    0    0  0.71054273576E-14  0.00000000000E+00  0.12655468437E+04  0.12947921053E+04  0.27363804994E+03 0.  0.
         25    2    3    3    0    0  0.27332659947E+02  0.45021834514E+02  0.53817483351E+03  0.55486561640E+03  0.12437709177E+03 0.  0.
         25    2    3    3    0    0 -0.27332659947E+02 -0.45021834514E+02  0.72737201019E+03  0.73992648891E+03  0.12508848028E+03 0.  0.
          5    1    4    4  502    0 -0.18462618940E+02  0.12636852116E+02  0.44788801844E+03  0.44847109761E+03  0.47000000000E+01 0. -1.
         -5    1    4    4    0  502  0.45795278888E+02  0.32384982398E+02  0.90286815070E+02  0.10639451879E+03  0.47000000000E+01 0. -1.
          5    1    5    5  503    0  0.37292051584E+02 -0.18608777494E+02  0.50655424085E+03  0.50828758852E+03  0.47000000000E+01 0. -1.
         -5    1    5    5    0  503 -0.64624711531E+02 -0.26413057021E+02  0.22081776934E+03  0.23163890040E+03  0.47000000000E+01 0. -1.
<mgrwt>
<rscale>  0 0.27363805E+03</rscale>
<asrwt>0</asrwt>
<pdfrwt beam="1">  1        1 0.19694906E+00 0.27363805E+03</pdfrwt>
<pdfrwt beam="2">  1       -1 0.22496365E-02 0.27363805E+03</pdfrwt>
<totfact> 0.58086851E+03</totfact>
</mgrwt>
</event>
<event>
 9    1  0.8285222E-001  0.2837012E+03  0.7818608E-02  0.1093684E+00
          2   -1    0    0  501    0  0.00000000000E+00  0.00000000000E+00  0.22143916802E+03  0.22143916802E+03  0.00000000000E+00 0.  1.
         -2   -1    0    0    0  501 -0.00000000000E+00 -0.00000000000E+00 -0.90867366607E+02  0.90867366607E+02  0.00000000000E+00 0.  1.
         35    2    1    2    0    0  0.00000000000E+00 -0.71054273576E-14  0.13057180141E+03  0.31230653462E+03  0.28370120945E+03 0.  0.
         25    2    3    3    0    0 -0.31838132330E+02 -0.31443189111E+02  0.11053374154E+02  0.13357556773E+03  0.12537110673E+03 0.  0.
         25    2    3    3    0    0  0.31838132330E+02  0.31443189111E+02  0.11951842726E+03  0.17873096690E+03  0.12513098442E+03 0.  0.
          5    1    4    4  502    0  0.25210236719E+01 -0.73839999763E+02  0.22983457516E+02  0.77517936278E+02  0.47000000000E+01 0.  1.
         -5    1    4    4    0  502 -0.34359156001E+02  0.42396810652E+02 -0.11930083361E+02  0.56057631449E+02  0.47000000000E+01 0.  1.
          5    1    5    5  503    0  0.15142375723E+02  0.47832460986E+02  0.13904647068E+03  0.14789606782E+03  0.47000000000E+01 0. -1.
         -5    1    5    5    0  503  0.16695756607E+02 -0.16389271876E+02 -0.19528043426E+02  0.30834899081E+02  0.47000000000E+01 0. -1.
<mgrwt>
<rscale>  0 0.28370121E+03</rscale>
<asrwt>0</asrwt>
<pdfrwt beam="1">  1        2 0.34067564E-01 0.28370121E+03</pdfrwt>
<pdfrwt beam="2">  1       -2 0.13979595E-01 0.28370121E+03</pdfrwt>
<totfact> 0.58299502E+03</totfact>
</mgrwt>
</event>
<event>
 9    1  0.8285222E-001  0.2759093E+03  0.7818608E-02  0.1097944E+00
          2   -1    0    0  501    0  0.00000000000E+00  0.00000000000E+00  0.34465052312E+04  0.34465052312E+04  0.00000000000E+00 0. -1.
         -2   -1    0    0    0  501 -0.00000000000E+00 -0.00000000000E+00 -0.55219678431E+01  0.55219678431E+01  0.00000000000E+00 0. -1.
         35    2    1    2    0    0  0.00000000000E+00  0.35527136788E-14  0.34409832633E+04  0.34520271990E+04  0.27590934060E+03 0.  0.
         25    2    3    3    0    0 -0.63109992492E+01  0.28601584824E+01  0.24441137511E+04  0.24473193016E+04  0.12502690218E+03 0.  0.
         25    2    3    3    0    0  0.63109992492E+01 -0.28601584824E+01  0.99686951221E+03  0.10047078974E+04  0.12506448566E+03 0.  0.
          5    1    4    4  502    0  0.28414503568E+02  0.40412520012E+02  0.19317946347E+04  0.19324319280E+04  0.47000000000E+01 0.  1.
         -5    1    4    4    0  502 -0.34725502817E+02 -0.37552361530E+02  0.51231911647E+03  0.51488737361E+03  0.47000000000E+01 0.  1.
          5    1    5    5  503    0  0.52688991526E+02 -0.24666578362E+02  0.28136970608E+03  0.28735965516E+03  0.47000000000E+01 0.  1.
         -5    1    5    5    0  503 -0.46377992277E+02  0.21806419879E+02  0.71549980614E+03  0.71734824228E+03  0.47000000000E+01 0.  1.
<mgrwt>
<rscale>  0 0.27590934E+03</rscale>
<asrwt>0</asrwt>
<pdfrwt beam="1">  1        2 0.53022986E+00 0.27590934E+03</pdfrwt>
<pdfrwt beam="2">  1       -2 0.84953627E-03 0.27590934E+03</pdfrwt>
<totfact> 0.29708248E+03</totfact>
</mgrwt>
</event>
<event>
 9    1  0.8285222E-001  0.2755261E+03  0.7818608E-02  0.1098158E+00
         -2   -1    0    0    0  501 -0.00000000000E+00  0.00000000000E+00  0.13576740032E+02  0.13576740032E+02  0.00000000000E+00 0. -1.
          2   -1    0    0  501    0  0.00000000000E+00 -0.00000000000E+00 -0.13978802857E+04  0.13978802857E+04  0.00000000000E+00 0. -1.
         35    2    1    2    0    0  0.71054273576E-14  0.71054273576E-14 -0.13843035456E+04  0.14114570257E+04  0.27552609484E+03 0.  0.
         25    2    3    3    0    0  0.32893727342E+02  0.11787821735E+02 -0.93363289030E+03  0.94263935387E+03  0.12521033334E+03 0.  0.
         25    2    3    3    0    0 -0.32893727342E+02 -0.11787821735E+02 -0.45067065535E+03  0.46881767185E+03  0.12435843276E+03 0.  0.
          5    1    4    4  502    0 -0.29334465470E+02  0.40412122127E+02 -0.21681494776E+03  0.22254092220E+03  0.47000000000E+01 0. -1.
         -5    1    4    4    0  502  0.62228192812E+02 -0.28624300392E+02 -0.71681794253E+03  0.72009843167E+03  0.47000000000E+01 0. -1.
          5    1    5    5  503    0 -0.40384997735E+02  0.11339163095E+02 -0.42507185081E+02  0.59903885060E+02  0.47000000000E+01 0.  1.
         -5    1    5    5    0  503  0.74912703937E+01 -0.23126984830E+02 -0.40816347027E+03  0.40891378679E+03  0.47000000000E+01 0.  1.
<mgrwt>
<rscale>  0 0.27552609E+03</rscale>
<asrwt>0</asrwt>
<pdfrwt beam="1">  1        2 0.21505852E+00 0.27552609E+03</pdfrwt>
<pdfrwt beam="2">  1       -2 0.20887291E-02 0.27552609E+03</pdfrwt>
<totfact> 0.11233076E+04</totfact>
</mgrwt>
</event>
<event>
 9    1  0.8285222E-001  0.2760852E+03  0.7818608E-02  0.1097847E+00
          2   -1    0    0  501    0  0.00000000000E+00  0.00000000000E+00  0.15446091209E+04  0.15446091209E+04  0.00000000000E+00 0. -1.
         -2   -1    0    0    0  501 -0.00000000000E+00 -0.00000000000E+00 -0.12336948761E+02  0.12336948761E+02  0.00000000000E+00 0. -1.
         35    2    1    2    0    0  0.00000000000E+00  0.71054273576E-14  0.15322721721E+04  0.15569460696E+04  0.27608523017E+03 0.  0.
         25    2    3    3    0    0 -0.23423299627E+02  0.35989191132E+02  0.92885172793E+03  0.93831962471E+03  0.12583446585E+03 0.  0.
         25    2    3    3    0    0  0.23423299627E+02 -0.35989191132E+02  0.60342044417E+03  0.61862644491E+03  0.12937763739E+03 0.  0.
          5    1    4    4  502    0 -0.29433226345E+02  0.50481885409E+02  0.18035544511E+03  0.18964417246E+03  0.47000000000E+01 0. -1.
         -5    1    4    4    0  502  0.60099267179E+01 -0.14492694278E+02  0.74849628282E+03  0.74867545225E+03  0.47000000000E+01 0. -1.
          5    1    5    5  503    0  0.68960579721E+02 -0.38369213532E+02  0.24886783783E+03  0.26112267004E+03  0.47000000000E+01 0. -1.
         -5    1    5    5    0  503 -0.45537280094E+02  0.23800224004E+01  0.35455260634E+03  0.35750377487E+03  0.47000000000E+01 0. -1.
<mgrwt>
<rscale>  0 0.27608523E+03</rscale>
<asrwt>0</asrwt>
<pdfrwt beam="1">  1        2 0.23763202E+00 0.27608523E+03</pdfrwt>
<pdfrwt beam="2">  1       -2 0.18979933E-02 0.27608523E+03</pdfrwt>
<totfact> 0.10785245E+04</totfact>
</mgrwt>
</event>
<event>
 9    1  0.8285222E-001  0.2777931E+03  0.7818608E-02  0.1096900E+00
          2   -1    0    0  501    0  0.00000000000E+00  0.00000000000E+00  0.17243936663E+04  0.17243936663E+04  0.00000000000E+00 0. -1.
         -2   -1    0    0    0  501 -0.00000000000E+00 -0.00000000000E+00 -0.11187846237E+02  0.11187846237E+02  0.00000000000E+00 0. -1.
         35    2    1    2    0    0  0.00000000000E+00  0.00000000000E+00  0.17132058201E+04  0.17355815125E+04  0.27779309704E+03 0.  0.
         25    2    3    3    0    0  0.36423964459E+02 -0.50958530615E+02  0.81757368430E+03  0.82948229169E+03  0.12526238835E+03 0.  0.
         25    2    3    3    0    0 -0.36423964459E+02  0.50958530615E+02  0.89563213576E+03  0.90609922084E+03  0.12221046757E+03 0.  0.
          5    1    4    4  502    0 -0.23035602497E+02 -0.62135568346E+02  0.25009901407E+03  0.25877224479E+03  0.47000000000E+01 0.  1.
         -5    1    4    4    0  502  0.59459566956E+02  0.11177037731E+02  0.56747467023E+03  0.57071004690E+03  0.47000000000E+01 0.  1.
          5    1    5    5  503    0 -0.13869194518E+02  0.90358903877E+02  0.61711865919E+03  0.62387067217E+03  0.47000000000E+01 0.  1.
         -5    1    5    5    0  503 -0.22554769941E+02 -0.39400373262E+02  0.27851347656E+03  0.28222854867E+03  0.47000000000E+01 0.  1.
<mgrwt>
<rscale>  0 0.27779310E+03</rscale>
<asrwt>0</asrwt>
<pdfrwt beam="1">  1        2 0.26529112E+00 0.27779310E+03</pdfrwt>
<pdfrwt beam="2">  1       -2 0.17212085E-02 0.27779310E+03</pdfrwt>
<totfact> 0.10002598E+04</totfact>
</mgrwt>
</event>
<event>
 9    1  0.8285222E-001  0.2734631E+03  0.7818608E-02  0.1099314E+00
          2   -1    0    0  501    0  0.00000000000E+00  0.00000000000E+00  0.10418411668E+04  0.10418411668E+04  0.00000000000E+00 0.  1.
         -2   -1    0    0    0  501 -0.00000000000E+00 -0.00000000000E+00 -0.17944691353E+02  0.17944691353E+02  0.00000000000E+00 0.  1.
         35    2    1    2    0    0 -0.71054273576E-14  0.14210854715E-13  0.10238964755E+04  0.10597858582E+04  0.27346311033E+03 0.  0.
         25    2    3    3    0    0 -0.40106999811E+02  0.32722621709E+02  0.52189577521E+03  0.53916882779E+03  0.12509389780E+03 0.  0.
         25    2    3    3    0    0  0.40106999811E+02 -0.32722621709E+02  0.50200070028E+03  0.52061703041E+03  0.12789858431E+03 0.  0.
          5    1    4    4  502    0  0.13708614623E+02  0.68871668530E+02  0.27220089623E+03  0.28115236216E+03  0.47000000000E+01 0.  1.
         -5    1    4    4    0  502 -0.53815614434E+02 -0.36149046821E+02  0.24969487898E+03  0.25801646562E+03  0.47000000000E+01 0.  1.
          5    1    5    5  503    0  0.40303410163E+02 -0.60052438467E+02  0.47938509048E+03  0.48483277035E+03  0.47000000000E+01 0. -1.
         -5    1    5    5    0  503 -0.19641035187E+00  0.27329816758E+02  0.22615609798E+02  0.35784260054E+02  0.47000000000E+01 0. -1.
<mgrwt>
<rscale>  0 0.27346311E+03</rscale>
<asrwt>0</asrwt>
<pdfrwt beam="1">  1        2 0.16028321E+00 0.27346311E+03</pdfrwt>
<pdfrwt beam="2">  1       -2 0.27607225E-02 0.27346311E+03</pdfrwt>
<totfact> 0.11839680E+04</totfact>
</mgrwt>
</event>
<event>
 9    1  0.8285222E-001  0.2721024E+03  0.7818608E-02  0.1100082E+00
          2   -1    0    0  501    0  0.00000000000E+00  0.00000000000E+00  0.16678570594E+03  0.16678570594E+03  0.00000000000E+00 0. -1.
         -2   -1    0    0    0  501 -0.00000000000E+00 -0.00000000000E+00 -0.11098030963E+03  0.11098030963E+03  0.00000000000E+00 0. -1.
         35    2    1    2    0    0  0.00000000000E+00  0.35527136788E-14  0.55805396316E+02  0.27776601557E+03  0.27210240195E+03 0.  0.
         25    2    3    3    0    0  0.45308843020E+01 -0.68573294163E+01  0.73181676122E+02  0.15325993576E+03  0.13440795479E+03 0.  0.
         25    2    3    3    0    0 -0.45308843020E+01  0.68573294163E+01 -0.17376279806E+02  0.12450607981E+03  0.12301332013E+03 0.  0.
          5    1    4    4  502    0  0.60334930381E+02 -0.28689662768E+02  0.63663429639E+02  0.92404127869E+02  0.47000000000E+01 0.  1.
         -5    1    4    4    0  502 -0.55804046079E+02  0.21832333352E+02  0.95182464830E+01  0.60855807894E+02  0.47000000000E+01 0.  1.
          5    1    5    5  503    0 -0.26284311263E+02  0.48004818212E+02 -0.44266779580E+02  0.70547610623E+02  0.47000000000E+01 0. -1.
         -5    1    5    5    0  503  0.21753426961E+02 -0.41147488796E+02  0.26890499774E+02  0.53958469186E+02  0.47000000000E+01 0. -1.
<mgrwt>
<rscale>  0 0.27210240E+03</rscale>
<asrwt>0</asrwt>
<pdfrwt beam="1">  1        2 0.25659339E-01 0.27210240E+03</pdfrwt>
<pdfrwt beam="2">  1       -2 0.17073894E-01 0.27210240E+03</pdfrwt>
<totfact> 0.57075523E+03</totfact>
</mgrwt>
</event>
<event>
 9    1  0.8285222E-001  0.2750841E+03  0.7818608E-02  0.1098405E+00
         -3   -1    0    0    0  501 -0.00000000000E+00  0.00000000000E+00  0.32219351410E+03  0.32219351410E+03  0.00000000000E+00 0.  1.
          3   -1    0    0  501    0  0.00000000000E+00 -0.00000000000E+00 -0.58715696188E+02  0.58715696188E+02  0.00000000000E+00 0.  1.
         35    2    1    2    0    0  0.14210854715E-13  0.71054273576E-14  0.26347781792E+03  0.38090921029E+03  0.27508410705E+03 0.  0.
         25    2    3    3    0    0 -0.38006146538E+02 -0.38592932663E+02  0.95161330611E+02  0.16485834319E+03  0.12324249612E+03 0.  0.
         25    2    3    3    0    0  0.38006146538E+02  0.38592932663E+02  0.16831648731E+03  0.21605086710E+03  0.12415174446E+03 0.  0.
          5    1    4    4  502    0 -0.66188432944E+02  0.14575443320E+02  0.25205029475E+02  0.72461960465E+02  0.47000000000E+01 0. -1.
         -5    1    4    4    0  502  0.28182286406E+02 -0.53168375984E+02  0.69956301136E+02  0.92396382724E+02  0.47000000000E+01 0. -1.
          5    1    5    5  503    0 -0.29938440944E+02  0.54876130412E+02  0.10127185552E+03  0.11910406650E+03  0.47000000000E+01 0. -1.
         -5    1    5    5    0  503  0.67944587482E+02 -0.16283197748E+02  0.67044631782E+02  0.96946800606E+02  0.47000000000E+01 0. -1.
<mgrwt>
<rscale>  0 0.27508411E+03</rscale>
<asrwt>0</asrwt>
<pdfrwt beam="1">  1        3 0.90331842E-02 0.27508411E+03</pdfrwt>
<pdfrwt beam="2">  1       -3 0.49568232E-01 0.27508411E+03</pdfrwt>
<totfact> 0.90272632E+02</totfact>
</mgrwt>
</event>
<event>
 9    1  0.8285222E-001  0.2745276E+03  0.7818608E-02  0.1098716E+00
          2   -1    0    0  501    0  0.00000000000E+00  0.00000000000E+00  0.70766750615E+03  0.70766750615E+03  0.00000000000E+00 0. -1.
         -2   -1    0    0    0  501 -0.00000000000E+00 -0.00000000000E+00 -0.26624571650E+02  0.26624571650E+02  0.00000000000E+00 0. -1.
         35    2    1    2    0    0  0.71054273576E-14  0.71054273576E-14  0.68104293450E+03  0.73429207780E+03  0.27452755215E+03 0.  0.
         25    2    3    3    0    0 -0.54570027503E+02 -0.18873266143E+02  0.32866078662E+03  0.35621759990E+03  0.12465543607E+03 0.  0.
         25    2    3    3    0    0  0.54570027503E+02  0.18873266143E+02  0.35238214788E+03  0.37807447790E+03  0.12422980567E+03 0.  0.
          5    1    4    4  502    0  0.55534951008E+01 -0.49895172287E+02  0.56470510076E+02  0.75705865253E+02  0.47000000000E+01 0. -1.
         -5    1    4    4    0  502 -0.60123522604E+02  0.31021906144E+02  0.27219027654E+03  0.28051173465E+03  0.47000000000E+01 0. -1.
          5    1    5    5  503    0  0.75483335490E+01  0.64553378493E+02  0.11969668684E+03  0.13628463910E+03  0.47000000000E+01 0.  1.
         -5    1    5    5    0  503  0.47021693954E+02 -0.45680112350E+02  0.23268546105E+03  0.24178983881E+03  0.47000000000E+01 0.  1.
<mgrwt>
<rscale>  0 0.27452755E+03</rscale>
<asrwt>0</asrwt>
<pdfrwt beam="1">  1        2 0.10887191E+00 0.27452755E+03</pdfrwt>
<pdfrwt beam="2">  1       -2 0.40960885E-02 0.27452755E+03</pdfrwt>
<totfact> 0.10928590E+04</totfact>
</mgrwt>
</event>
<event>
 9    1  0.8285222E-001  0.2756068E+03  0.7818608E-02  0.1098113E+00
          2   -1    0    0  501    0  0.00000000000E+00  0.00000000000E+00  0.36177177981E+04  0.36177177981E+04  0.00000000000E+00 0. -1.
         -2   -1    0    0    0  501 -0.00000000000E+00 -0.00000000000E+00 -0.52491024098E+01  0.52491024098E+01  0.00000000000E+00 0. -1.
         35    2    1    2    0    0  0.00000000000E+00 -0.35527136788E-14  0.36124686957E+04  0.36229669006E+04  0.27560675763E+03 0.  0.
         25    2    3    3    0    0 -0.50610252309E+02  0.28967950205E+02  0.18250478070E+04  0.18302400942E+04  0.12481492192E+03 0.  0.
         25    2    3    3    0    0  0.50610252309E+02 -0.28967950205E+02  0.17874208887E+04  0.17927268064E+04  0.12488166009E+03 0.  0.
          5    1    4    4  502    0 -0.36133724417E+02 -0.13092993045E+02  0.16158438762E+04  0.16163077043E+04  0.47000000000E+01 0.  1.
         -5    1    4    4    0  502 -0.14476527893E+02  0.42060943250E+02  0.20920393080E+03  0.21393238995E+03  0.47000000000E+01 0.  1.
          5    1    5    5  503    0 -0.12123482480E+02  0.37810725286E+02  0.32855986912E+03  0.33098384759E+03  0.47000000000E+01 0.  1.
         -5    1    5    5    0  503  0.62733734789E+02 -0.66778675491E+02  0.14588610196E+04  0.14617429588E+04  0.47000000000E+01 0.  1.
<mgrwt>
<rscale>  0 0.27560676E+03</rscale>
<asrwt>0</asrwt>
<pdfrwt beam="1">  1        2 0.55656998E+00 0.27560676E+03</pdfrwt>
<pdfrwt beam="2">  1       -2 0.80755711E-03 0.27560676E+03</pdfrwt>
<totfact> 0.24568349E+03</totfact>
</mgrwt>
</event>
<event>
 9    1  0.8285222E-001  0.2703993E+03  0.7818608E-02  0.1101051E+00
         -1   -1    0    0    0  501 -0.00000000000E+00  0.00000000000E+00  0.24367990199E+02  0.24367990199E+02  0.00000000000E+00 0.  1.
          1   -1    0    0  501    0  0.00000000000E+00 -0.00000000000E+00 -0.75012127077E+03  0.75012127077E+03  0.00000000000E+00 0.  1.
         35    2    1    2    0    0 -0.71054273576E-14  0.00000000000E+00 -0.72575328057E+03  0.77448926097E+03  0.27039931786E+03 0.  0.
         25    2    3    3    0    0  0.28940646729E+02 -0.39481264285E+02 -0.40259707828E+03  0.42435678141E+03  0.12489170999E+03 0.  0.
         25    2    3    3    0    0 -0.28940646729E+02  0.39481264285E+02 -0.32315620229E+03  0.35013247956E+03  0.12556468812E+03 0.  0.
          5    1    4    4  502    0 -0.78818294394E+01 -0.20176887090E+02 -0.27605097188E+01  0.22336974322E+02  0.47000000000E+01 0.  1.
         -5    1    4    4    0  502  0.36822476168E+02 -0.19304377195E+02 -0.39983656856E+03  0.40201980708E+03  0.47000000000E+01 0.  1.
          5    1    5    5  503    0 -0.45918262976E+02  0.76240359447E+02 -0.17387334572E+03  0.19538451739E+03  0.47000000000E+01 0. -1.
         -5    1    5    5    0  503  0.16977616247E+02 -0.36759095162E+02 -0.14928285657E+03  0.15474796217E+03  0.47000000000E+01 0. -1.
<mgrwt>
<rscale>  0 0.27039932E+03</rscale>
<asrwt>0</asrwt>
<pdfrwt beam="1">  1        1 0.11540326E+00 0.27039932E+03</pdfrwt>
<pdfrwt beam="2">  1       -1 0.37489221E-02 0.27039932E+03</pdfrwt>
<totfact> 0.68679219E+03</totfact>
</mgrwt>
</event>
<event>
 9    1  0.8285222E-001  0.2686207E+03  0.7818608E-02  0.1102072E+00
         -1   -1    0    0    0  501 -0.00000000000E+00  0.00000000000E+00  0.28913809685E+02  0.28913809685E+02  0.00000000000E+00 0.  1.
          1   -1    0    0  501    0  0.00000000000E+00 -0.00000000000E+00 -0.62389818705E+03  0.62389818705E+03  0.00000000000E+00 0.  1.
         35    2    1    2    0    0  0.10658141036E-13  0.00000000000E+00 -0.59498437736E+03  0.65281199673E+03  0.26862072476E+03 0.  0.
         25    2    3    3    0    0  0.27093496882E+02  0.64742794499E+01 -0.39888578241E+03  0.41838868944E+03  0.12313916590E+03 0.  0.
         25    2    3    3    0    0 -0.27093496882E+02 -0.64742794499E+01 -0.19609859495E+03  0.23442330729E+03  0.12539399583E+03 0.  0.
          5    1    4    4  502    0  0.19643124076E+02  0.57319805468E+02 -0.11725198821E+03  0.13206638922E+03  0.47000000000E+01 0.  1.
         -5    1    4    4    0  502  0.74503728060E+01 -0.50845526019E+02 -0.28163379420E+03  0.28632230022E+03  0.47000000000E+01 0.  1.
          5    1    5    5  503    0 -0.65034649841E+02  0.25375232187E+02 -0.15435653404E+03  0.16947400299E+03  0.47000000000E+01 0. -1.
         -5    1    5    5    0  503  0.37941152959E+02 -0.31849511637E+02 -0.41742060909E+02  0.64949304294E+02  0.47000000000E+01 0. -1.
<mgrwt>
<rscale>  0 0.26862072E+03</rscale>
<asrwt>0</asrwt>
<pdfrwt beam="1">  1        1 0.95984335E-01 0.26862072E+03</pdfrwt>
<pdfrwt beam="2">  1       -1 0.44482785E-02 0.26862072E+03</pdfrwt>
<totfact> 0.69520217E+03</totfact>
</mgrwt>
</event>
<event>
 9    1  0.8285222E-001  0.2721786E+03  0.7818608E-02  0.1100039E+00
          2   -1    0    0  501    0  0.00000000000E+00  0.00000000000E+00  0.28317718522E+03  0.28317718522E+03  0.00000000000E+00 0.  1.
         -2   -1    0    0    0  501 -0.00000000000E+00 -0.00000000000E+00 -0.65401813416E+02  0.65401813416E+02  0.00000000000E+00 0.  1.
         35    2    1    2    0    0  0.00000000000E+00  0.14210854715E-13  0.21777537180E+03  0.34857899864E+03  0.27217862834E+03 0.  0.
         25    2    3    3    0    0  0.29532227677E+02  0.45080036663E+02  0.11310509147E+03  0.17668144795E+03  0.12457612193E+03 0.  0.
         25    2    3    3    0    0 -0.29532227677E+02 -0.45080036663E+02  0.10467028033E+03  0.17189755069E+03  0.12525389483E+03 0.  0.
          5    1    4    4  502    0 -0.48794014904E+02  0.16984147446E+02  0.36054689000E+02  0.63177114161E+02  0.47000000000E+01 0.  1.
         -5    1    4    4    0  502  0.78326242581E+02  0.28095889217E+02  0.77050402472E+02  0.11350433379E+03  0.47000000000E+01 0.  1.
          5    1    5    5  503    0  0.13200443486E+02 -0.31217849854E+02  0.11954145798E+03  0.12434249488E+03  0.47000000000E+01 0.  1.
         -5    1    5    5    0  503 -0.42732671163E+02 -0.13862186808E+02 -0.14871177647E+02  0.47555055804E+02  0.47000000000E+01 0.  1.
<mgrwt>
<rscale>  0 0.27217863E+03</rscale>
<asrwt>0</asrwt>
<pdfrwt beam="1">  1        2 0.43565720E-01 0.27217863E+03</pdfrwt>
<pdfrwt beam="2">  1       -2 0.10061818E-01 0.27217863E+03</pdfrwt>
<totfact> 0.75872289E+03</totfact>
</mgrwt>
</event>
<event>
 9    1  0.8285222E-001  0.2751963E+03  0.7818608E-02  0.1098342E+00
         -1   -1    0    0    0  501 -0.00000000000E+00  0.00000000000E+00  0.19867077429E+03  0.19867077429E+03  0.00000000000E+00 0.  1.
          1   -1    0    0  501    0  0.00000000000E+00 -0.00000000000E+00 -0.95299614056E+02  0.95299614056E+02  0.00000000000E+00 0.  1.
         35    2    1    2    0    0  0.35527136788E-14  0.71054273576E-14  0.10337116023E+03  0.29397038835E+03  0.27519627987E+03 0.  0.
         25    2    3    3    0    0  0.28365876244E+02  0.41022110637E+02  0.82339485244E+02  0.15794555538E+03  0.12521809429E+03 0.  0.
         25    2    3    3    0    0 -0.28365876244E+02 -0.41022110637E+02  0.21031674989E+02  0.13602483297E+03  0.12479177591E+03 0.  0.
          5    1    4    4  502    0  0.24802791680E+02  0.39809786919E+02 -0.22988384665E+02  0.52445718978E+02  0.47000000000E+01 0.  1.
         -5    1    4    4    0  502  0.35630845644E+01  0.12123237188E+01  0.10532786991E+03  0.10549983640E+03  0.47000000000E+01 0.  1.
          5    1    5    5  503    0 -0.32486330785E+02  0.37884756069E+02  0.26465558962E+02  0.56684497364E+02  0.47000000000E+01 0.  1.
         -5    1    5    5    0  503  0.41204545403E+01 -0.78906866707E+02 -0.54338839721E+01  0.79340335606E+02  0.47000000000E+01 0.  1.
<mgrwt>
<rscale>  0 0.27519628E+03</rscale>
<asrwt>0</asrwt>
<pdfrwt beam="1">  1        1 0.14661479E-01 0.27519628E+03</pdfrwt>
<pdfrwt beam="2">  1       -1 0.30564734E-01 0.27519628E+03</pdfrwt>
<totfact> 0.37802877E+03</totfact>
</mgrwt>
</event>
<event>
 9    1  0.8285222E-001  0.2966333E+03  0.7818608E-02  0.1086936E+00
         -1   -1    0    0    0  501 -0.00000000000E+00  0.00000000000E+00  0.62656172914E+02  0.62656172914E+02  0.00000000000E+00 0.  1.
          1   -1    0    0  501    0  0.00000000000E+00 -0.00000000000E+00 -0.35108805068E+03  0.35108805068E+03  0.00000000000E+00 0.  1.
         35    2    1    2    0    0  0.00000000000E+00 -0.88817841970E-15 -0.28843187776E+03  0.41374422359E+03  0.29663333334E+03 0.  0.
         25    2    3    3    0    0 -0.66226706347E+02 -0.45985305118E+01 -0.20734279656E+03  0.25097601809E+03  0.12486313809E+03 0.  0.
         25    2    3    3    0    0  0.66226706347E+02  0.45985305118E+01 -0.81089081205E+02  0.16276820551E+03  0.12454287019E+03 0.  0.
          5    1    4    4  502    0 -0.26139672946E+02 -0.56717202345E+02 -0.15376233809E+03  0.16602731751E+03  0.47000000000E+01 0. -1.
         -5    1    4    4    0  502 -0.40087033400E+02  0.52118671833E+02 -0.53580458466E+02  0.84948700578E+02  0.47000000000E+01 0. -1.
          5    1    5    5  503    0  0.85237740570E+02 -0.47138046819E+01 -0.10169150350E+03  0.13285685626E+03  0.47000000000E+01 0.  1.
         -5    1    5    5    0  503 -0.19011034224E+02  0.93123351937E+01  0.20602422295E+02  0.29911349241E+02  0.47000000000E+01 0.  1.
<mgrwt>
<rscale>  0 0.29663333E+03</rscale>
<asrwt>0</asrwt>
<pdfrwt beam="1">  1        1 0.54013547E-01 0.29663333E+03</pdfrwt>
<pdfrwt beam="2">  1       -1 0.96394111E-02 0.29663333E+03</pdfrwt>
<totfact> 0.46144828E+03</totfact>
</mgrwt>
</event>
<event>
 9    1  0.8285222E-001  0.2713437E+03  0.7818608E-02  0.1100513E+00
         -2   -1    0    0    0  501 -0.00000000000E+00  0.00000000000E+00  0.10119393932E+02  0.10119393932E+02  0.00000000000E+00 0. -1.
          2   -1    0    0  501    0  0.00000000000E+00 -0.00000000000E+00 -0.18189671621E+04  0.18189671621E+04  0.00000000000E+00 0. -1.
         35    2    1    2    0    0 -0.35527136788E-14  0.00000000000E+00 -0.18088477681E+04  0.18290865560E+04  0.27134365857E+03 0.  0.
         25    2    3    3    0    0 -0.57891477265E+01 -0.19344180019E+02 -0.11918876672E+04  0.11986734490E+04  0.12575418315E+03 0.  0.
         25    2    3    3    0    0  0.57891477265E+01  0.19344180019E+02 -0.61696010093E+03  0.63041310699E+03  0.12795783602E+03 0.  0.
          5    1    4    4  502    0 -0.33462261225E+02  0.41277618774E+02 -0.73427878549E+03  0.73621395638E+03  0.47000000000E+01 0. -1.
         -5    1    4    4    0  502  0.27673113499E+02 -0.60621798793E+02 -0.45760888171E+03  0.46245949262E+03  0.47000000000E+01 0. -1.
          5    1    5    5  503    0 -0.76948200551E+01  0.18438385423E+02 -0.92134436945E+01  0.22498041190E+02  0.47000000000E+01 0. -1.
         -5    1    5    5    0  503  0.13483967782E+02  0.90579459613E+00 -0.60774665723E+03  0.60791506580E+03  0.47000000000E+01 0. -1.
<mgrwt>
<rscale>  0 0.27134366E+03</rscale>
<asrwt>0</asrwt>
<pdfrwt beam="1">  1        2 0.27984115E+00 0.27134366E+03</pdfrwt>
<pdfrwt beam="2">  1       -2 0.15568295E-02 0.27134366E+03</pdfrwt>
<totfact> 0.10330959E+04</totfact>
</mgrwt>
</event>
<event>
 9    1  0.8285222E-001  0.2846531E+03  0.7818608E-02  0.1093174E+00
         -2   -1    0    0    0  501 -0.00000000000E+00  0.00000000000E+00  0.53881423876E+02  0.53881423876E+02  0.00000000000E+00 0.  1.
          2   -1    0    0  501    0  0.00000000000E+00 -0.00000000000E+00 -0.37595225470E+03  0.37595225470E+03  0.00000000000E+00 0.  1.
         35    2    1    2    0    0  0.71054273576E-14  0.00000000000E+00 -0.32207083082E+03  0.42983367857E+03  0.28465307160E+03 0.  0.
         25    2    3    3    0    0  0.37238570223E+01  0.35964926595E+02 -0.77931444366E+02  0.15317804853E+03  0.12681822217E+03 0.  0.
         25    2    3    3    0    0 -0.37238570223E+01 -0.35964926595E+02 -0.24413938645E+03  0.27665563004E+03  0.12500781799E+03 0.  0.
          5    1    4    4  502    0  0.25294883684E+02  0.62924654151E+02 -0.18669443755E+00  0.67981380506E+02  0.47000000000E+01 0. -1.
         -5    1    4    4    0  502 -0.21571026662E+02 -0.26959727556E+02 -0.77744749929E+02  0.85196668026E+02  0.47000000000E+01 0. -1.
          5    1    5    5  503    0 -0.45736150178E+02 -0.11705226217E+02 -0.28002512464E+02  0.55091183126E+02  0.47000000000E+01 0. -1.
         -5    1    5    5    0  503  0.42012293156E+02 -0.24259700378E+02 -0.21613687399E+03  0.22156444691E+03  0.47000000000E+01 0. -1.
<mgrwt>
<rscale>  0 0.28465307E+03</rscale>
<asrwt>0</asrwt>
<pdfrwt beam="1">  1        2 0.57838808E-01 0.28465307E+03</pdfrwt>
<pdfrwt beam="2">  1       -2 0.82894499E-02 0.28465307E+03</pdfrwt>
<totfact> 0.76023028E+03</totfact>
</mgrwt>
</event>
<event>
 9    1  0.8285222E-001  0.2760644E+03  0.7818608E-02  0.1097858E+00
         -1   -1    0    0    0  501 -0.00000000000E+00  0.00000000000E+00  0.85796419079E+02  0.85796419079E+02  0.00000000000E+00 0. -1.
          1   -1    0    0  501    0  0.00000000000E+00 -0.00000000000E+00 -0.22207091237E+03  0.22207091237E+03  0.00000000000E+00 0. -1.
         35    2    1    2    0    0  0.35527136788E-14  0.35527136788E-14 -0.13627449330E+03  0.30786733145E+03  0.27606440599E+03 0.  0.
         25    2    3    3    0    0  0.58780389510E+01 -0.25009590499E+02 -0.10742306574E+03  0.16680838844E+03  0.12500116976E+03 0.  0.
         25    2    3    3    0    0 -0.58780389510E+01  0.25009590499E+02 -0.28851427559E+02  0.14105894302E+03  0.13566572734E+03 0.  0.
          5    1    4    4  502    0  0.37292414493E+02  0.55710825606E+01 -0.11584615717E+03  0.12191875684E+03  0.47000000000E+01 0. -1.
         -5    1    4    4    0  502 -0.31414375542E+02 -0.30580673060E+02  0.84230914298E+01  0.44889631595E+02  0.47000000000E+01 0. -1.
          5    1    5    5  503    0 -0.27978993620E+02 -0.51126473121E+02 -0.86040317831E+01  0.59100420479E+02  0.47000000000E+01 0. -1.
         -5    1    5    5    0  503  0.22100954669E+02  0.76136063621E+02 -0.20247395776E+02  0.81958522538E+02  0.47000000000E+01 0. -1.
<mgrwt>
<rscale>  0 0.27606441E+03</rscale>
<asrwt>0</asrwt>
<pdfrwt beam="1">  1        1 0.34164755E-01 0.27606441E+03</pdfrwt>
<pdfrwt beam="2">  1       -1 0.13199449E-01 0.27606441E+03</pdfrwt>
<totfact> 0.50248429E+03</totfact>
</mgrwt>
</event>
<event>
 9    1  0.8285222E-001  0.2823574E+03  0.7818608E-02  0.1094408E+00
         -2   -1    0    0    0  501 -0.00000000000E+00  0.00000000000E+00  0.19862044895E+02  0.19862044895E+02  0.00000000000E+00 0.  1.
          2   -1    0    0  501    0  0.00000000000E+00 -0.00000000000E+00 -0.10034931996E+04  0.10034931996E+04  0.00000000000E+00 0.  1.
         35    2    1    2    0    0  0.71054273576E-14 -0.71054273576E-14 -0.98363115469E+03  0.10233552445E+04  0.28235741168E+03 0.  0.
         25    2    3    3    0    0  0.91442616518E+01 -0.43353977630E+02 -0.64323569097E+03  0.65680005962E+03  0.12518378205E+03 0.  0.
         25    2    3    3    0    0 -0.91442616518E+01  0.43353977630E+02 -0.34039546372E+03  0.36655518486E+03  0.12857078566E+03 0.  0.
          5    1    4    4  502    0  0.62406260718E+02 -0.41978259583E+02 -0.45142070431E+03  0.45766740973E+03  0.47000000000E+01 0.  1.
         -5    1    4    4    0  502 -0.53261999066E+02 -0.13757180472E+01 -0.19181498666E+03  0.19913264989E+03  0.47000000000E+01 0.  1.
          5    1    5    5  503    0 -0.46144274987E+02 -0.14756069068E+02 -0.23883813075E+03  0.24374736591E+03  0.47000000000E+01 0. -1.
         -5    1    5    5    0  503  0.37000013335E+02  0.58110046699E+02 -0.10155733298E+03  0.12280781895E+03  0.47000000000E+01 0. -1.
<mgrwt>
<rscale>  0 0.28235741E+03</rscale>
<asrwt>0</asrwt>
<pdfrwt beam="1">  1        2 0.15438354E+00 0.28235741E+03</pdfrwt>
<pdfrwt beam="2">  1       -2 0.30556999E-02 0.28235741E+03</pdfrwt>
<totfact> 0.10751171E+04</totfact>
</mgrwt>
</event>
<event>
 9    1  0.8285222E-001  0.2746772E+03  0.7818608E-02  0.1098632E+00
         -1   -1    0    0    0  501 -0.00000000000E+00  0.00000000000E+00  0.59510411160E+01  0.59510411160E+01  0.00000000000E+00 0.  1.
          1   -1    0    0  501    0  0.00000000000E+00 -0.00000000000E+00 -0.31695106765E+04  0.31695106765E+04  0.00000000000E+00 0.  1.
         35    2    1    2    0    0  0.00000000000E+00 -0.71054273576E-14 -0.31635596354E+04  0.31754617176E+04  0.27467718037E+03 0.  0.
         25    2    3    3    0    0  0.55464855504E+01  0.52650496126E+02 -0.18523506547E+04  0.18573447043E+04  0.12539363749E+03 0.  0.
         25    2    3    3    0    0 -0.55464855504E+01 -0.52650496126E+02 -0.13112089806E+04  0.13181170133E+04  0.12393801500E+03 0.  0.
          5    1    4    4  502    0  0.27362497999E+01 -0.34966676379E+02 -0.23880407110E+03  0.24141174349E+03  0.47000000000E+01 0. -1.
         -5    1    4    4    0  502  0.28102357504E+01  0.87617172505E+02 -0.16135465836E+04  0.16159329608E+04  0.47000000000E+01 0. -1.
          5    1    5    5  503    0 -0.52807709713E+02 -0.40012712732E+02 -0.10639304070E+04  0.10660017225E+04  0.47000000000E+01 0. -1.
         -5    1    5    5    0  503  0.47261224163E+02 -0.12637783394E+02 -0.24727857361E+03  0.25211529078E+03  0.47000000000E+01 0. -1.
<mgrwt>
<rscale>  0 0.27467718E+03</rscale>
<asrwt>0</asrwt>
<pdfrwt beam="1">  1        1 0.48761721E+00 0.27467718E+03</pdfrwt>
<pdfrwt beam="2">  1       -1 0.91554444E-03 0.27467718E+03</pdfrwt>
<totfact> 0.11733434E+03</totfact>
</mgrwt>
</event>
<event>
 9    1  0.8285222E-001  0.2773159E+03  0.7818608E-02  0.1097164E+00
         -1   -1    0    0    0  501 -0.00000000000E+00  0.00000000000E+00  0.17001967747E+02  0.17001967747E+02  0.00000000000E+00 0. -1.
          1   -1    0    0  501    0  0.00000000000E+00 -0.00000000000E+00 -0.11308118551E+04  0.11308118551E+04  0.00000000000E+00 0. -1.
         35    2    1    2    0    0  0.71054273576E-14  0.00000000000E+00 -0.11138098873E+04  0.11478138228E+04  0.27731589704E+03 0.  0.
         25    2    3    3    0    0  0.32092926005E+02  0.13627413566E+02 -0.35453461436E+03  0.37751154639E+03  0.12491802346E+03 0.  0.
         25    2    3    3    0    0 -0.32092926005E+02 -0.13627413566E+02 -0.75927527296E+03  0.77030227641E+03  0.12510393527E+03 0.  0.
          5    1    4    4  502    0  0.76050928238E+02  0.27908188472E+02 -0.19140740868E+03  0.20789780366E+03  0.47000000000E+01 0.  1.
         -5    1    4    4    0  502 -0.43958002233E+02 -0.14280774906E+02 -0.16312720567E+03  0.16961374273E+03  0.47000000000E+01 0.  1.
          5    1    5    5  503    0 -0.95825477960E+01  0.51917100703E+02 -0.20708882517E+03  0.21376408042E+03  0.47000000000E+01 0. -1.
         -5    1    5    5    0  503 -0.22510378209E+02 -0.65544514269E+02 -0.55218644779E+03  0.55653819599E+03  0.47000000000E+01 0. -1.
<mgrwt>
<rscale>  0 0.27731590E+03</rscale>
<asrwt>0</asrwt>
<pdfrwt beam="1">  1        1 0.17397106E+00 0.27731590E+03</pdfrwt>
<pdfrwt beam="2">  1       -1 0.26156872E-02 0.27731590E+03</pdfrwt>
<totfact> 0.59220935E+03</totfact>
</mgrwt>
</event>
<event>
 9    1  0.8285222E-001  0.2754177E+03  0.7818608E-02  0.1098218E+00
         -4   -1    0    0    0  501 -0.00000000000E+00  0.00000000000E+00  0.64297714934E+02  0.64297714934E+02  0.00000000000E+00 0.  1.
          4   -1    0    0  501    0  0.00000000000E+00 -0.00000000000E+00 -0.29493618947E+03  0.29493618947E+03  0.00000000000E+00 0.  1.
         35    2    1    2    0    0  0.71054273576E-14  0.00000000000E+00 -0.23063847454E+03  0.35923390440E+03  0.27541766853E+03 0.  0.
         25    2    3    3    0    0 -0.18865831094E+02 -0.37785703334E+02 -0.63691516092E+02  0.14641570363E+03  0.12488903109E+03 0.  0.
         25    2    3    3    0    0  0.18865831094E+02  0.37785703334E+02 -0.16694695845E+03  0.21281820078E+03  0.12504647411E+03 0.  0.
          5    1    4    4  502    0  0.46713827490E+02 -0.14533226585E+02  0.38932309050E+01  0.49301557792E+02  0.47000000000E+01 0.  1.
         -5    1    4    4    0  502 -0.65579658585E+02 -0.23252476748E+02 -0.67584746997E+02  0.97114145837E+02  0.47000000000E+01 0.  1.
          5    1    5    5  503    0 -0.50231125298E+02 -0.41414623812E+01 -0.56221440347E+02  0.75652217509E+02  0.47000000000E+01 0.  1.
         -5    1    5    5    0  503  0.69096956392E+02  0.41927165715E+02 -0.11072551810E+03  0.13716598327E+03  0.47000000000E+01 0.  1.
<mgrwt>
<rscale>  0 0.27541767E+03</rscale>
<asrwt>0</asrwt>
<pdfrwt beam="1">  1        4 0.45374799E-01 0.27541767E+03</pdfrwt>
<pdfrwt beam="2">  1       -4 0.98919560E-02 0.27541767E+03</pdfrwt>
<totfact> 0.68494600E+02</totfact>
</mgrwt>
</event>
<event>
 9    1  0.8285222E-001  0.2795441E+03  0.7818608E-02  0.1095938E+00
          2   -1    0    0  501    0  0.00000000000E+00  0.00000000000E+00  0.21461005144E+04  0.21461005144E+04  0.00000000000E+00 0.  1.
         -2   -1    0    0    0  501 -0.00000000000E+00 -0.00000000000E+00 -0.91031253534E+01  0.91031253534E+01  0.00000000000E+00 0.  1.
         35    2    1    2    0    0  0.71054273576E-14  0.00000000000E+00  0.21369973890E+04  0.21552036397E+04  0.27954407168E+03 0.  0.
         25    2    3    3    0    0 -0.98606468014E+01 -0.41056820463E+01  0.15474171032E+04  0.15525827810E+04  0.12609326600E+03 0.  0.
         25    2    3    3    0    0  0.98606468014E+01  0.41056820463E+01  0.58958028585E+03  0.60262085871E+03  0.12422921120E+03 0.  0.
          5    1    4    4  502    0 -0.46685019238E+02  0.43489878456E+02  0.65111572022E+03  0.65425119921E+03  0.47000000000E+01 0.  1.
         -5    1    4    4    0  502  0.36824372436E+02 -0.47595560502E+02  0.89630138295E+03  0.89833158181E+03  0.47000000000E+01 0.  1.
          5    1    5    5  503    0 -0.40124925278E+02  0.37133376818E+02  0.16687724877E+03  0.17566730902E+03  0.47000000000E+01 0. -1.
         -5    1    5    5    0  503  0.49985572079E+02 -0.33027694771E+02  0.42270303708E+03  0.42695354970E+03  0.47000000000E+01 0. -1.
<mgrwt>
<rscale>  0 0.27954407E+03</rscale>
<asrwt>0</asrwt>
<pdfrwt beam="1">  1        2 0.33016891E+00 0.27954407E+03</pdfrwt>
<pdfrwt beam="2">  1       -2 0.14004825E-02 0.27954407E+03</pdfrwt>
<totfact> 0.81148581E+03</totfact>
</mgrwt>
</event>
<event>
 9    1  0.8285222E-001  0.2761332E+03  0.7818608E-02  0.1097820E+00
          4   -1    0    0  501    0  0.00000000000E+00  0.00000000000E+00  0.19329942448E+02  0.19329942448E+02  0.00000000000E+00 0. -1.
         -4   -1    0    0    0  501 -0.00000000000E+00 -0.00000000000E+00 -0.98615826378E+03  0.98615826378E+03  0.00000000000E+00 0. -1.
         35    2    1    2    0    0  0.00000000000E+00 -0.14210854715E-13 -0.96682832133E+03  0.10054882062E+04  0.27613317427E+03 0.  0.
         25    2    3    3    0    0  0.40971091490E+02 -0.48792978873E+02 -0.47856455069E+03  0.49831807996E+03  0.12344024670E+03 0.  0.
         25    2    3    3    0    0 -0.40971091490E+02  0.48792978873E+02 -0.48826377064E+03  0.50717012627E+03  0.12149338311E+03 0.  0.
          5    1    4    4  502    0 -0.25475689125E+02 -0.61823616491E+02 -0.29727541226E+03  0.30473911962E+03  0.47000000000E+01 0. -1.
         -5    1    4    4    0  502  0.66446780615E+02  0.13030637618E+02 -0.18128913844E+03  0.19357896034E+03  0.47000000000E+01 0. -1.
          5    1    5    5  503    0 -0.59956369327E+02  0.73000121553E+02 -0.43765259095E+03  0.44775625549E+03  0.47000000000E+01 0. -1.
         -5    1    5    5    0  503  0.18985277837E+02 -0.24207142679E+02 -0.50611179690E+02  0.59413870779E+02  0.47000000000E+01 0. -1.
<mgrwt>
<rscale>  0 0.27613317E+03</rscale>
<asrwt>0</asrwt>
<pdfrwt beam="1">  1        4 0.29738372E-02 0.27613317E+03</pdfrwt>
<pdfrwt beam="2">  1       -4 0.15171666E+00 0.27613317E+03</pdfrwt>
<totfact> 0.31447550E+02</totfact>
</mgrwt>
</event>
<event>
 9    1  0.8285222E-001  0.2753931E+03  0.7818608E-02  0.1098232E+00
          1   -1    0    0  501    0  0.00000000000E+00  0.00000000000E+00  0.27415727256E+03  0.27415727256E+03  0.00000000000E+00 0. -1.
         -1   -1    0    0    0  501 -0.00000000000E+00 -0.00000000000E+00 -0.69158607562E+02  0.69158607562E+02  0.00000000000E+00 0. -1.
         35    2    1    2    0    0  0.00000000000E+00 -0.71054273576E-14  0.20499866499E+03  0.34331588012E+03  0.27539306617E+03 0.  0.
         25    2    3    3    0    0  0.29243340888E+02 -0.45735536212E+02  0.86359746397E+02  0.16273187121E+03  0.12679410022E+03 0.  0.
         25    2    3    3    0    0 -0.29243340888E+02  0.45735536212E+02  0.11863891860E+03  0.18058400891E+03  0.12485383057E+03 0.  0.
          5    1    4    4  502    0  0.43153506100E+02 -0.25910653588E+01  0.10488018750E+03  0.11353802200E+03  0.47000000000E+01 0. -1.
         -5    1    4    4    0  502 -0.13910165212E+02 -0.43144470853E+02 -0.18520441108E+02  0.49193849212E+02  0.47000000000E+01 0. -1.
          5    1    5    5  503    0  0.10675570318E+02  0.57222060648E+02  0.39709847722E+01  0.58533671903E+02  0.47000000000E+01 0. -1.
         -5    1    5    5    0  503 -0.39918911206E+02 -0.11486524436E+02  0.11466793382E+03  0.12205033701E+03  0.47000000000E+01 0. -1.
<mgrwt>
<rscale>  0 0.27539307E+03</rscale>
<asrwt>0</asrwt>
<pdfrwt beam="1">  1        1 0.42178041E-01 0.27539307E+03</pdfrwt>
<pdfrwt beam="2">  1       -1 0.10639786E-01 0.27539307E+03</pdfrwt>
<totfact> 0.53994588E+03</totfact>
</mgrwt>
</event>
<event>
 9    1  0.8285222E-001  0.2697646E+03  0.7818608E-02  0.1101414E+00
         -2   -1    0    0    0  501 -0.00000000000E+00  0.00000000000E+00  0.13185822435E+02  0.13185822435E+02  0.00000000000E+00 0. -1.
          2   -1    0    0  501    0  0.00000000000E+00 -0.00000000000E+00 -0.13797569639E+04  0.13797569639E+04  0.00000000000E+00 0. -1.
         35    2    1    2    0    0  0.00000000000E+00  0.00000000000E+00 -0.13665711415E+04  0.13929427863E+04  0.26976456646E+03 0.  0.
         25    2    3    3    0    0  0.18731094266E+02  0.36222381095E+02 -0.83584781889E+03  0.84614171623E+03  0.12510520697E+03 0.  0.
         25    2    3    3    0    0 -0.18731094266E+02 -0.36222381095E+02 -0.53072332256E+03  0.54680107010E+03  0.12514491744E+03 0.  0.
          5    1    4    4  502    0  0.13303626296E+02  0.77208767533E+02 -0.35888471179E+03  0.36736699173E+03  0.47000000000E+01 0. -1.
         -5    1    4    4    0  502  0.54274679694E+01 -0.40986386438E+02 -0.47696310711E+03  0.47877472450E+03  0.47000000000E+01 0. -1.
          5    1    5    5  503    0  0.30311582839E+02  0.15920028517E+02 -0.35950318172E+03  0.36116044500E+03  0.47000000000E+01 0.  1.
         -5    1    5    5    0  503 -0.49042677105E+02 -0.52142409611E+02 -0.17122014084E+03  0.18564062510E+03  0.47000000000E+01 0.  1.
<mgrwt>
<rscale>  0 0.26976457E+03</rscale>
<asrwt>0</asrwt>
<pdfrwt beam="1">  1        2 0.21227024E+00 0.26976457E+03</pdfrwt>
<pdfrwt beam="2">  1       -2 0.20285886E-02 0.26976457E+03</pdfrwt>
<totfact> 0.11989821E+04</totfact>
</mgrwt>
</event>
<event>
 9    1  0.8285222E-001  0.2671267E+03  0.7818608E-02  0.1102935E+00
          2   -1    0    0  501    0  0.00000000000E+00  0.00000000000E+00  0.68434101686E+02  0.68434101686E+02  0.00000000000E+00 0. -1.
         -2   -1    0    0    0  501 -0.00000000000E+00 -0.00000000000E+00 -0.26067656624E+03  0.26067656624E+03  0.00000000000E+00 0. -1.
         35    2    1    2    0    0 -0.35527136788E-14  0.00000000000E+00 -0.19224246456E+03  0.32911066793E+03  0.26712668636E+03 0.  0.
         25    2    3    3    0    0 -0.19497202087E+02 -0.37860415164E+02 -0.11610844162E+03  0.17694592164E+03  0.12655092667E+03 0.  0.
         25    2    3    3    0    0  0.19497202087E+02  0.37860415164E+02 -0.76134022938E+02  0.15216474630E+03  0.12467625532E+03 0.  0.
          5    1    4    4  502    0 -0.87259013548E+01 -0.69988073804E+02 -0.17853915841E+02  0.72906269553E+02  0.47000000000E+01 0. -1.
         -5    1    4    4    0  502 -0.10771300732E+02  0.32127658640E+02 -0.98254525780E+02  0.10403965208E+03  0.47000000000E+01 0. -1.
          5    1    5    5  503    0  0.50083339718E+02  0.14619861685E+02  0.13872676114E+02  0.54190611876E+02  0.47000000000E+01 0. -1.
         -5    1    5    5    0  503 -0.30586137631E+02  0.23240553479E+02 -0.90006699051E+02  0.97974134419E+02  0.47000000000E+01 0. -1.
<mgrwt>
<rscale>  0 0.26712669E+03</rscale>
<asrwt>0</asrwt>
<pdfrwt beam="1">  1        2 0.10528323E-01 0.26712669E+03</pdfrwt>
<pdfrwt beam="2">  1       -2 0.40104087E-01 0.26712669E+03</pdfrwt>
<totfact> 0.35402315E+03</totfact>
</mgrwt>
</event>
<event>
 9    1  0.8285222E-001  0.2763557E+03  0.7818608E-02  0.1097696E+00
         -2   -1    0    0    0  501 -0.00000000000E+00  0.00000000000E+00  0.22994668796E+02  0.22994668796E+02  0.00000000000E+00 0.  1.
          2   -1    0    0  501    0  0.00000000000E+00 -0.00000000000E+00 -0.83032787236E+03  0.83032787236E+03  0.00000000000E+00 0.  1.
         35    2    1    2    0    0  0.00000000000E+00  0.88817841970E-14 -0.80733320357E+03  0.85332254116E+03  0.27635567240E+03 0.  0.
         25    2    3    3    0    0  0.52312406379E+02 -0.41859771458E+01 -0.47947894263E+03  0.49841674890E+03  0.12555910516E+03 0.  0.
         25    2    3    3    0    0 -0.52312406379E+02  0.41859771458E+01 -0.32785426094E+03  0.35490579226E+03  0.12536185505E+03 0.  0.
          5    1    4    4  502    0  0.35000845637E+02 -0.64228206748E+02 -0.24785154494E+03  0.25846237650E+03  0.47000000000E+01 0. -1.
         -5    1    4    4    0  502  0.17311560742E+02  0.60042229602E+02 -0.23162739769E+03  0.23995437239E+03  0.47000000000E+01 0. -1.
          5    1    5    5  503    0 -0.37090864997E+02  0.20042432989E+02 -0.32963973613E+03  0.33235805545E+03  0.47000000000E+01 0. -1.
         -5    1    5    5    0  503 -0.15221541381E+02 -0.15856455843E+02  0.17854751886E+01  0.22547736817E+02  0.47000000000E+01 0. -1.
<mgrwt>
<rscale>  0 0.27635567E+03</rscale>
<asrwt>0</asrwt>
<pdfrwt beam="1">  1        2 0.12774273E+00 0.27635567E+03</pdfrwt>
<pdfrwt beam="2">  1       -2 0.35376418E-02 0.27635567E+03</pdfrwt>
<totfact> 0.11148877E+04</totfact>
</mgrwt>
</event>
<event>
 9    1  0.8285222E-001  0.2775502E+03  0.7818608E-02  0.1097035E+00
          1   -1    0    0  501    0  0.00000000000E+00  0.00000000000E+00  0.94271444318E+01  0.94271444318E+01  0.00000000000E+00 0. -1.
         -1   -1    0    0    0  501 -0.00000000000E+00 -0.00000000000E+00 -0.20428809463E+04  0.20428809463E+04  0.00000000000E+00 0. -1.
         35    2    1    2    0    0 -0.71054273576E-14 -0.35527136788E-14 -0.20334538019E+04  0.20523080908E+04  0.27755023861E+03 0.  0.
         25    2    3    3    0    0  0.56814645410E+02  0.11428792259E+02 -0.10675154615E+04  0.10763724049E+04  0.12501908787E+03 0.  0.
         25    2    3    3    0    0 -0.56814645410E+02 -0.11428792259E+02 -0.96593834046E+03  0.97593568589E+03  0.12670857982E+03 0.  0.
          5    1    4    4  502    0 -0.13642100253E+02 -0.41605936564E+02 -0.51095219749E+03  0.51284636976E+03  0.47000000000E+01 0.  1.
         -5    1    4    4    0  502  0.70456745663E+02  0.53034728823E+02 -0.55656326396E+03  0.56352603513E+03  0.47000000000E+01 0.  1.
          5    1    5    5  503    0 -0.69022711706E+02  0.12772932883E+02 -0.25675387035E+03  0.26621781023E+03  0.47000000000E+01 0. -1.
         -5    1    5    5    0  503  0.12208066296E+02 -0.24201725142E+02 -0.70918447011E+03  0.70971787565E+03  0.47000000000E+01 0. -1.
<mgrwt>
<rscale>  0 0.27755024E+03</rscale>
<asrwt>0</asrwt>
<pdfrwt beam="1">  1        1 0.14503290E-02 0.27755024E+03</pdfrwt>
<pdfrwt beam="2">  1       -1 0.31428958E+00 0.27755024E+03</pdfrwt>
<totfact> 0.29992788E+02</totfact>
</mgrwt>
</event>
<event>
 9    1  0.8285222E-001  0.2736995E+03  0.7818608E-02  0.1099181E+00
         -2   -1    0    0    0  501 -0.00000000000E+00  0.00000000000E+00  0.24840439476E+04  0.24840439476E+04  0.00000000000E+00 0.  1.
          2   -1    0    0  501    0  0.00000000000E+00 -0.00000000000E+00 -0.75392598194E+01  0.75392598194E+01  0.00000000000E+00 0.  1.
         35    2    1    2    0    0  0.00000000000E+00 -0.35527136788E-14  0.24765046877E+04  0.24915832074E+04  0.27369949012E+03 0.  0.
         25    2    3    3    0    0  0.24084596750E+02  0.51961730379E+01  0.79748986849E+03  0.80773711498E+03  0.12586535886E+03 0.  0.
         25    2    3    3    0    0 -0.24084596750E+02 -0.51961730379E+01  0.16790148192E+04  0.16838460924E+04  0.12505931234E+03 0.  0.
          5    1    4    4  502    0  0.25182491980E+02  0.57265993703E+01  0.80119777795E+03  0.80162766995E+03  0.47000000000E+01 0. -1.
         -5    1    4    4    0  502 -0.10978952305E+01 -0.53042633241E+00 -0.37079094585E+01  0.61094450308E+01  0.47000000000E+01 0. -1.
          5    1    5    5  503    0  0.40762167683E+02  0.31683241972E+02  0.78651062344E+03  0.78821724982E+03  0.47000000000E+01 0.  1.
         -5    1    5    5    0  503 -0.64846764433E+02 -0.36879415010E+02  0.89250419581E+03  0.89562884257E+03  0.47000000000E+01 0.  1.
<mgrwt>
<rscale>  0 0.27369949E+03</rscale>
<asrwt>0</asrwt>
<pdfrwt beam="1">  1        2 0.11598881E-02 0.27369949E+03</pdfrwt>
<pdfrwt beam="2">  1       -2 0.38215995E+00 0.27369949E+03</pdfrwt>
<totfact> 0.13705370E+02</totfact>
</mgrwt>
</event>
<event>
 9    1  0.8285222E-001  0.2932130E+03  0.7818608E-02  0.1088683E+00
         -2   -1    0    0    0  501 -0.00000000000E+00  0.00000000000E+00  0.39185719358E+02  0.39185719358E+02  0.00000000000E+00 0.  1.
          2   -1    0    0  501    0  0.00000000000E+00 -0.00000000000E+00 -0.54850241169E+03  0.54850241169E+03  0.00000000000E+00 0.  1.
         35    2    1    2    0    0  0.00000000000E+00  0.00000000000E+00 -0.50931669233E+03  0.58768813105E+03  0.29321297087E+03 0.  0.
         25    2    3    3    0    0  0.55367316269E+02 -0.14489233807E+02 -0.35182624024E+03  0.37852926249E+03  0.12738611240E+03 0.  0.
         25    2    3    3    0    0 -0.55367316269E+02  0.14489233807E+02 -0.15749045209E+03  0.20915886856E+03  0.12517472664E+03 0.  0.
          5    1    4    4  502    0  0.64537387789E+02 -0.55836320200E+02 -0.29721964163E+03  0.30926424696E+03  0.47000000000E+01 0.  1.
         -5    1    4    4    0  502 -0.91700715193E+01  0.41347086393E+02 -0.54606598613E+02  0.69265015534E+02  0.47000000000E+01 0.  1.
          5    1    5    5  503    0 -0.60911583966E+02 -0.43965558851E+02 -0.11102358437E+03  0.13413246331E+03  0.47000000000E+01 0. -1.
         -5    1    5    5    0  503  0.55442676967E+01  0.58454792658E+02 -0.46466867720E+02  0.75026405250E+02  0.47000000000E+01 0. -1.
<mgrwt>
<rscale>  0 0.29321297E+03</rscale>
<asrwt>0</asrwt>
<pdfrwt beam="1">  1        2 0.84384978E-01 0.29321297E+03</pdfrwt>
<pdfrwt beam="2">  1       -2 0.60285728E-02 0.29321297E+03</pdfrwt>
<totfact> 0.82111285E+03</totfact>
</mgrwt>
</event>
<event>
 9    1  0.8285222E-001  0.2808817E+03  0.7818608E-02  0.1095208E+00
         -2   -1    0    0    0  501 -0.00000000000E+00  0.00000000000E+00  0.16405977251E+02  0.16405977251E+02  0.00000000000E+00 0. -1.
          2   -1    0    0  501    0  0.00000000000E+00 -0.00000000000E+00 -0.12022219443E+04  0.12022219443E+04  0.00000000000E+00 0. -1.
         35    2    1    2    0    0 -0.35527136788E-14  0.00000000000E+00 -0.11858159670E+04  0.12186279215E+04  0.28088165386E+03 0.  0.
         25    2    3    3    0    0 -0.97671151393E+01 -0.23907333207E+02 -0.33040489110E+03  0.35395702410E+03  0.12430295946E+03 0.  0.
         25    2    3    3    0    0  0.97671151393E+01  0.23907333207E+02 -0.85541107591E+03  0.86467089741E+03  0.12353418521E+03 0.  0.
          5    1    4    4  502    0  0.42905363503E+02  0.41274117650E+01 -0.45570848546E+02  0.62902289167E+02  0.47000000000E+01 0. -1.
         -5    1    4    4    0  502 -0.52672478643E+02 -0.28034744972E+02 -0.28483404255E+03  0.29105473493E+03  0.47000000000E+01 0. -1.
          5    1    5    5  503    0  0.11504281423E+02 -0.34593605617E+02 -0.92977850926E+02  0.99980182054E+02  0.47000000000E+01 0. -1.
         -5    1    5    5    0  503 -0.17371662839E+01  0.58500938824E+02 -0.76243322499E+03  0.76469071536E+03  0.47000000000E+01 0. -1.
<mgrwt>
<rscale>  0 0.28088165E+03</rscale>
<asrwt>0</asrwt>
<pdfrwt beam="1">  1        2 0.18495730E+00 0.28088165E+03</pdfrwt>
<pdfrwt beam="2">  1       -2 0.25239954E-02 0.28088165E+03</pdfrwt>
<totfact> 0.10909657E+04</totfact>
</mgrwt>
</event>
<event>
 9    1  0.8285222E-001  0.2716743E+03  0.7818608E-02  0.1100325E+00
          1   -1    0    0  501    0  0.00000000000E+00  0.00000000000E+00  0.53937222641E+03  0.53937222641E+03  0.00000000000E+00 0. -1.
         -1   -1    0    0    0  501 -0.00000000000E+00 -0.00000000000E+00 -0.34209636218E+02  0.34209636218E+02  0.00000000000E+00 0. -1.
         35    2    1    2    0    0  0.00000000000E+00  0.00000000000E+00  0.50516259020E+03  0.57358186263E+03  0.27167427300E+03 0.  0.
         25    2    3    3    0    0 -0.43848655413E+02  0.52943707987E+01  0.21278616191E+03  0.25060133653E+03  0.12478919916E+03 0.  0.
         25    2    3    3    0    0  0.43848655413E+02 -0.52943707987E+01  0.29237642828E+03  0.32298052610E+03  0.12992963281E+03 0.  0.
          5    1    4    4  502    0  0.36523163795E+01 -0.33301555491E+02  0.17560587458E+03  0.17883468959E+03  0.47000000000E+01 0.  1.
         -5    1    4    4    0  502 -0.47500971793E+02  0.38595926290E+02  0.37180287334E+02  0.71766646944E+02  0.47000000000E+01 0.  1.
          5    1    5    5  503    0  0.45907991974E+02  0.40174746684E+02  0.25955390956E+03  0.26666810077E+03  0.47000000000E+01 0.  1.
         -5    1    5    5    0  503 -0.20593365610E+01 -0.45469117483E+02  0.32822518723E+02  0.56312425334E+02  0.47000000000E+01 0.  1.
<mgrwt>
<rscale>  0 0.27167427E+03</rscale>
<asrwt>0</asrwt>
<pdfrwt beam="1">  1        1 0.82980336E-01 0.27167427E+03</pdfrwt>
<pdfrwt beam="2">  1       -1 0.52630214E-02 0.27167427E+03</pdfrwt>
<totfact> 0.66067422E+03</totfact>
</mgrwt>
</event>
<event>
 9    1  0.8285222E-001  0.3035205E+03  0.7818608E-02  0.1083494E+00
         -2   -1    0    0    0  501 -0.00000000000E+00  0.00000000000E+00  0.91346105965E+02  0.91346105965E+02  0.00000000000E+00 0.  1.
          2   -1    0    0  501    0  0.00000000000E+00 -0.00000000000E+00 -0.25213079291E+03  0.25213079291E+03  0.00000000000E+00 0.  1.
         35    2    1    2    0    0  0.71054273576E-14  0.00000000000E+00 -0.16078468695E+03  0.34347689888E+03  0.30352045154E+03 0.  0.
         25    2    3    3    0    0  0.27888023626E+02  0.36063407594E+02  0.26021864364E+01  0.13283566673E+03  0.12474065797E+03 0.  0.
         25    2    3    3    0    0 -0.27888023626E+02 -0.36063407594E+02 -0.16338687338E+03  0.21064123215E+03  0.12488453490E+03 0.  0.
          5    1    4    4  502    0  0.67992650915E+02  0.27438363774E+02  0.34007172837E+02  0.80959509568E+02  0.47000000000E+01 0. -1.
         -5    1    4    4    0  502 -0.40104627289E+02  0.86250438205E+01 -0.31404986401E+02  0.51876157161E+02  0.47000000000E+01 0. -1.
          5    1    5    5  503    0 -0.38523039616E+02 -0.39381905160E+02 -0.18101150104E+03  0.18926756865E+03  0.47000000000E+01 0.  1.
         -5    1    5    5    0  503  0.10635015991E+02  0.33184975658E+01  0.17624627656E+02  0.21373663496E+02  0.47000000000E+01 0.  1.
<mgrwt>
<rscale>  0 0.30352045E+03</rscale>
<asrwt>0</asrwt>
<pdfrwt beam="1">  1        2 0.38789353E-01 0.30352045E+03</pdfrwt>
<pdfrwt beam="2">  1       -2 0.14053247E-01 0.30352045E+03</pdfrwt>
<totfact> 0.50301957E+03</totfact>
</mgrwt>
</event>
<event>
 9    1  0.8285222E-001  0.2781805E+03  0.7818608E-02  0.1096687E+00
         -2   -1    0    0    0  501 -0.00000000000E+00  0.00000000000E+00  0.10769325848E+02  0.10769325848E+02  0.00000000000E+00 0. -1.
          2   -1    0    0  501    0  0.00000000000E+00 -0.00000000000E+00 -0.17964074201E+04  0.17964074201E+04  0.00000000000E+00 0. -1.
         35    2    1    2    0    0 -0.71054273576E-14  0.00000000000E+00 -0.17856380943E+04  0.18071767460E+04  0.27818049437E+03 0.  0.
         25    2    3    3    0    0 -0.40413574406E+02 -0.38530687686E+02 -0.73882135655E+03  0.75142442462E+03  0.12515509634E+03 0.  0.
         25    2    3    3    0    0  0.40413574406E+02  0.38530687686E+02 -0.10468167377E+04  0.10557523214E+04  0.12517911469E+03 0.  0.
          5    1    4    4  502    0  0.59804056380E+01  0.41451407647E+02 -0.29975335455E+03  0.30270141726E+03  0.47000000000E+01 0.  1.
         -5    1    4    4    0  502 -0.46393980044E+02 -0.79982095333E+02 -0.43906800199E+03  0.44872300736E+03  0.47000000000E+01 0.  1.
          5    1    5    5  503    0  0.50789684381E+02 -0.28044794834E+02 -0.28115894939E+03  0.28712113711E+03  0.47000000000E+01 0. -1.
         -5    1    5    5    0  503 -0.10376109975E+02  0.66575482520E+02 -0.76565778836E+03  0.76863118425E+03  0.47000000000E+01 0. -1.
<mgrwt>
<rscale>  0 0.27818049E+03</rscale>
<asrwt>0</asrwt>
<pdfrwt beam="1">  1        2 0.27637033E+00 0.27818049E+03</pdfrwt>
<pdfrwt beam="2">  1       -2 0.16568196E-02 0.27818049E+03</pdfrwt>
<totfact> 0.96948816E+03</totfact>
</mgrwt>
</event>
<event>
 9    1  0.8285222E-001  0.2757192E+03  0.7818608E-02  0.1098050E+00
          2   -1    0    0  501    0  0.00000000000E+00  0.00000000000E+00  0.16963120673E+03  0.16963120673E+03  0.00000000000E+00 0. -1.
         -2   -1    0    0    0  501 -0.00000000000E+00 -0.00000000000E+00 -0.11203876806E+03  0.11203876806E+03  0.00000000000E+00 0. -1.
         35    2    1    2    0    0  0.00000000000E+00 -0.62172489379E-14  0.57592438672E+02  0.28166997479E+03  0.27571921534E+03 0.  0.
         25    2    3    3    0    0  0.51188722704E+02 -0.25943786550E+01 -0.12895158813E+01  0.13521596322E+03  0.12511865458E+03 0.  0.
         25    2    3    3    0    0 -0.51188722704E+02  0.25943786550E+01  0.58881954553E+02  0.14645401158E+03  0.12391398953E+03 0.  0.
          5    1    4    4  502    0  0.66639340296E+02 -0.48935154113E+02 -0.15232177013E+02  0.84199526125E+02  0.47000000000E+01 0.  1.
         -5    1    4    4    0  502 -0.15450617592E+02  0.46340775458E+02  0.13942661132E+02  0.51016437091E+02  0.47000000000E+01 0.  1.
          5    1    5    5  503    0 -0.14440233214E+02 -0.11235710038E+01 -0.38926093408E+02  0.41798486756E+02  0.47000000000E+01 0. -1.
         -5    1    5    5    0  503 -0.36748489490E+02  0.37179496588E+01  0.97808047962E+02  0.10465552482E+03  0.47000000000E+01 0. -1.
<mgrwt>
<rscale>  0 0.27571922E+03</rscale>
<asrwt>0</asrwt>
<pdfrwt beam="1">  1        2 0.26097109E-01 0.27571922E+03</pdfrwt>
<pdfrwt beam="2">  1       -2 0.17236734E-01 0.27571922E+03</pdfrwt>
<totfact> 0.55151986E+03</totfact>
</mgrwt>
</event>
<event>
 9    1  0.8285222E-001  0.2724315E+03  0.7818608E-02  0.1099896E+00
         -1   -1    0    0    0  501 -0.00000000000E+00  0.00000000000E+00  0.22472735442E+02  0.22472735442E+02  0.00000000000E+00 0. -1.
          1   -1    0    0  501    0  0.00000000000E+00 -0.00000000000E+00 -0.82565494973E+03  0.82565494973E+03  0.00000000000E+00 0. -1.
         35    2    1    2    0    0  0.71054273576E-14  0.00000000000E+00 -0.80318221429E+03  0.84812768517E+03  0.27243146112E+03 0.  0.
         25    2    3    3    0    0  0.33785885188E+02  0.28649910440E+02 -0.28764952998E+03  0.31659531627E+03  0.12461155154E+03 0.  0.
         25    2    3    3    0    0 -0.33785885188E+02 -0.28649910440E+02 -0.51553268431E+03  0.53153236891E+03  0.12161581805E+03 0.  0.
          5    1    4    4  502    0 -0.26184547874E+02  0.46607021066E+02 -0.20997186827E+03  0.21672129666E+03  0.47000000000E+01 0.  1.
         -5    1    4    4    0  502  0.59970433061E+02 -0.17957110626E+02 -0.77677661709E+02  0.99874019606E+02  0.47000000000E+01 0.  1.
          5    1    5    5  503    0 -0.14730710413E+02 -0.34667886320E+02 -0.38529269162E+02  0.54087436187E+02  0.47000000000E+01 0.  1.
         -5    1    5    5    0  503 -0.19055174775E+02  0.60179758802E+01 -0.47700341514E+03  0.47744493272E+03  0.47000000000E+01 0.  1.
<mgrwt>
<rscale>  0 0.27243146E+03</rscale>
<asrwt>0</asrwt>
<pdfrwt beam="1">  1        1 0.12702384E+00 0.27243146E+03</pdfrwt>
<pdfrwt beam="2">  1       -1 0.34573439E-02 0.27243146E+03</pdfrwt>
<totfact> 0.66886555E+03</totfact>
</mgrwt>
</event>
<event>
 9    1  0.8285222E-001  0.2798096E+03  0.7818608E-02  0.1095793E+00
          2   -1    0    0  501    0  0.00000000000E+00  0.00000000000E+00  0.19031988224E+04  0.19031988224E+04  0.00000000000E+00 0.  1.
         -2   -1    0    0    0  501 -0.00000000000E+00 -0.00000000000E+00 -0.10284447463E+02  0.10284447463E+02  0.00000000000E+00 0.  1.
         35    2    1    2    0    0  0.14210854715E-13  0.35527136788E-14  0.18929143750E+04  0.19134832699E+04  0.27980956596E+03 0.  0.
         25    2    3    3    0    0 -0.53883030466E+02 -0.70454973089E+01  0.11454958946E+04  0.11536409269E+04  0.12559268909E+03 0.  0.
         25    2    3    3    0    0  0.53883030466E+02  0.70454973089E+01  0.74741848034E+03  0.75984234302E+03  0.12559053102E+03 0.  0.
          5    1    4    4  502    0  0.14549704600E+02  0.15063542397E+02  0.36776947223E+02  0.42582133113E+02  0.47000000000E+01 0. -1.
         -5    1    4    4    0  502 -0.68432735066E+02 -0.22109039705E+02  0.11087189474E+04  0.11110587938E+04  0.47000000000E+01 0. -1.
          5    1    5    5  503    0  0.45031380722E+02 -0.29248845605E+02  0.68376564822E+03  0.68588692356E+03  0.47000000000E+01 0.  1.
         -5    1    5    5    0  503  0.88516497437E+01  0.36294342914E+02  0.63652832122E+02  0.73955419463E+02  0.47000000000E+01 0.  1.
<mgrwt>
<rscale>  0 0.27980957E+03</rscale>
<asrwt>0</asrwt>
<pdfrwt beam="1">  1        2 0.29279954E+00 0.27980957E+03</pdfrwt>
<pdfrwt beam="2">  1       -2 0.15822242E-02 0.27980957E+03</pdfrwt>
<totfact> 0.91160756E+03</totfact>
</mgrwt>
</event>
<event>
 9    1  0.8285222E-001  0.2754762E+03  0.7818608E-02  0.1098186E+00
          1   -1    0    0  501    0  0.00000000000E+00  0.00000000000E+00  0.11194378912E+04  0.11194378912E+04  0.00000000000E+00 0.  1.
         -1   -1    0    0    0  501 -0.00000000000E+00 -0.00000000000E+00 -0.16947596111E+02  0.16947596111E+02  0.00000000000E+00 0.  1.
         35    2    1    2    0    0  0.00000000000E+00  0.71054273576E-14  0.11024902951E+04  0.11363854873E+04  0.27547617865E+03 0.  0.
         25    2    3    3    0    0  0.32783071582E+02 -0.55487866252E+02  0.61111745270E+03  0.62714724232E+03  0.12528164061E+03 0.  0.
         25    2    3    3    0    0 -0.32783071582E+02  0.55487866252E+02  0.49137284238E+03  0.50923824498E+03  0.11714387238E+03 0.  0.
          5    1    4    4  502    0 -0.18963563912E+02 -0.72956180037E+02  0.22938760350E+03  0.24150151884E+03  0.47000000000E+01 0. -1.
         -5    1    4    4    0  502  0.51746635494E+02  0.17468313785E+02  0.38172984920E+03  0.38564572349E+03  0.47000000000E+01 0. -1.
          5    1    5    5  503    0 -0.63464318190E+02  0.41672323435E+02  0.44661135358E+03  0.45304314736E+03  0.47000000000E+01 0.  1.
         -5    1    5    5    0  503  0.30681246608E+02  0.13815542817E+02  0.44761488798E+02  0.56195097616E+02  0.47000000000E+01 0.  1.
<mgrwt>
<rscale>  0 0.27547618E+03</rscale>
<asrwt>0</asrwt>
<pdfrwt beam="1">  1        1 0.17222116E+00 0.27547618E+03</pdfrwt>
<pdfrwt beam="2">  1       -1 0.26073234E-02 0.27547618E+03</pdfrwt>
<totfact> 0.60618304E+03</totfact>
</mgrwt>
</event>
<event>
 9    1  0.8285222E-001  0.2725667E+03  0.7818608E-02  0.1099820E+00
         -1   -1    0    0    0  501 -0.00000000000E+00  0.00000000000E+00  0.12127618936E+03  0.12127618936E+03  0.00000000000E+00 0.  1.
          1   -1    0    0  501    0  0.00000000000E+00 -0.00000000000E+00 -0.15314759036E+03  0.15314759036E+03  0.00000000000E+00 0.  1.
         35    2    1    2    0    0  0.00000000000E+00  0.00000000000E+00 -0.31871400991E+02  0.27442377972E+03  0.27256673435E+03 0.  0.
         25    2    3    3    0    0  0.42802122042E+02  0.26865476879E+01  0.31935920707E+01  0.13225487531E+03  0.12506763699E+03 0.  0.
         25    2    3    3    0    0 -0.42802122042E+02 -0.26865476879E+01 -0.35064993062E+02  0.14216890441E+03  0.13093206045E+03 0.  0.
          5    1    4    4  502    0 -0.34812828125E+02 -0.96951648113E+01  0.31916621911E+02  0.48442646263E+02  0.47000000000E+01 0. -1.
         -5    1    4    4    0  502  0.77614950168E+02  0.12381712499E+02 -0.28723029840E+02  0.83812229043E+02  0.47000000000E+01 0. -1.
          5    1    5    5  503    0 -0.76844115268E+02 -0.12389525508E+02  0.16248902649E+02  0.79653218585E+02  0.47000000000E+01 0. -1.
         -5    1    5    5    0  503  0.34041993226E+02  0.97029778199E+01 -0.51313895711E+02  0.62515685827E+02  0.47000000000E+01 0. -1.
<mgrwt>
<rscale>  0 0.27256673E+03</rscale>
<asrwt>0</asrwt>
<pdfrwt beam="1">  1        1 0.23561168E-01 0.27256673E+03</pdfrwt>
<pdfrwt beam="2">  1       -1 0.18657875E-01 0.27256673E+03</pdfrwt>
<totfact> 0.46322641E+03</totfact>
</mgrwt>
</event>
<event>
 9    1  0.8285222E-001  0.2754206E+03  0.7818608E-02  0.1098217E+00
         -2   -1    0    0    0  501 -0.00000000000E+00  0.00000000000E+00  0.68972058495E+02  0.68972058495E+02  0.00000000000E+00 0.  1.
          2   -1    0    0  501    0  0.00000000000E+00 -0.00000000000E+00 -0.27495372173E+03  0.27495372173E+03  0.00000000000E+00 0.  1.
         35    2    1    2    0    0  0.00000000000E+00 -0.71054273576E-14 -0.20598166324E+03  0.34392578023E+03  0.27542058150E+03 0.  0.
         25    2    3    3    0    0  0.22124637037E+02  0.36057881479E+02 -0.51437601393E+02  0.14166799524E+03  0.12503728907E+03 0.  0.
         25    2    3    3    0    0 -0.22124637037E+02 -0.36057881479E+02 -0.15454406184E+03  0.20225778498E+03  0.12342882222E+03 0.  0.
          5    1    4    4  502    0  0.60368728398E+01 -0.67989074531E+01 -0.84428321871E+02  0.85046460892E+02  0.47000000000E+01 0.  1.
         -5    1    4    4    0  502  0.16087764198E+02  0.42856788932E+02  0.32990720478E+02  0.56621534350E+02  0.47000000000E+01 0.  1.
          5    1    5    5  503    0 -0.51941213543E+02 -0.19512678961E+02 -0.15813169249E+03  0.16764950484E+03  0.47000000000E+01 0. -1.
         -5    1    5    5    0  503  0.29816576506E+02 -0.16545202518E+02  0.35876306433E+01  0.34608280144E+02  0.47000000000E+01 0. -1.
<mgrwt>
<rscale>  0 0.27542058E+03</rscale>
<asrwt>0</asrwt>
<pdfrwt beam="1">  1        2 0.42300572E-01 0.27542058E+03</pdfrwt>
<pdfrwt beam="2">  1       -2 0.10611086E-01 0.27542058E+03</pdfrwt>
<totfact> 0.71988486E+03</totfact>
</mgrwt>
</event>
<event>
 9    1  0.8285222E-001  0.2653308E+03  0.7818608E-02  0.1103982E+00
         -2   -1    0    0    0  501 -0.00000000000E+00  0.00000000000E+00  0.20895667446E+02  0.20895667446E+02  0.00000000000E+00 0.  1.
          2   -1    0    0  501    0  0.00000000000E+00 -0.00000000000E+00 -0.84228499446E+03  0.84228499446E+03  0.00000000000E+00 0.  1.
         35    2    1    2    0    0 -0.71054273576E-14 -0.35527136788E-14 -0.82138932701E+03  0.86318066190E+03  0.26533079082E+03 0.  0.
         25    2    3    3    0    0 -0.27652402987E+02 -0.76038685809E+01 -0.53054364185E+03  0.54565523615E+03  0.12426023750E+03 0.  0.
         25    2    3    3    0    0  0.27652402987E+02  0.76038685809E+01 -0.29084568517E+03  0.31752542576E+03  0.12413182192E+03 0.  0.
          5    1    4    4  502    0 -0.66501976419E+02 -0.30981888384E+02 -0.41469830473E+03  0.42116405856E+03  0.47000000000E+01 0.  1.
         -5    1    4    4    0  502  0.38849573432E+02  0.23378019803E+02 -0.11584533711E+03  0.12449117758E+03  0.47000000000E+01 0.  1.
          5    1    5    5  503    0  0.75297134519E+02  0.95746598774E+01 -0.21238896179E+03  0.22559364722E+03  0.47000000000E+01 0.  1.
         -5    1    5    5    0  503 -0.47644731532E+02 -0.19707912965E+01 -0.78456723378E+02  0.91931778533E+02  0.47000000000E+01 0.  1.
<mgrwt>
<rscale>  0 0.26533079E+03</rscale>
<asrwt>0</asrwt>
<pdfrwt beam="1">  1        2 0.12958234E+00 0.26533079E+03</pdfrwt>
<pdfrwt beam="2">  1       -2 0.32147174E-02 0.26533079E+03</pdfrwt>
<totfact> 0.12608303E+04</totfact>
</mgrwt>
</event>
<event>
 9    1  0.8285222E-001  0.2747156E+03  0.7818608E-02  0.1098611E+00
         -2   -1    0    0    0  501 -0.00000000000E+00  0.00000000000E+00  0.52259040522E+02  0.52259040522E+02  0.00000000000E+00 0. -1.
          2   -1    0    0  501    0  0.00000000000E+00 -0.00000000000E+00 -0.36103155188E+03  0.36103155188E+03  0.00000000000E+00 0. -1.
         35    2    1    2    0    0  0.00000000000E+00 -0.53290705182E-14 -0.30877251136E+03  0.41329059240E+03  0.27471558019E+03 0.  0.
         25    2    3    3    0    0 -0.45964696399E+02 -0.22117848905E+01 -0.10611971886E+03  0.17064598234E+03  0.12546318684E+03 0.  0.
         25    2    3    3    0    0  0.45964696399E+02  0.22117848905E+01 -0.20265279250E+03  0.24264461006E+03  0.12526215380E+03 0.  0.
          5    1    4    4  502    0 -0.88024469671E+02 -0.45218971879E+01 -0.87715398930E+02  0.12443808109E+03  0.47000000000E+01 0. -1.
         -5    1    4    4    0  502  0.42059773272E+02  0.23101122975E+01 -0.18404319930E+02  0.46207901257E+02  0.47000000000E+01 0. -1.
          5    1    5    5  503    0  0.24858615101E+02  0.63522137951E+02 -0.10020665056E+03  0.12131148162E+03  0.47000000000E+01 0.  1.
         -5    1    5    5    0  503  0.21106081298E+02 -0.61310353061E+02 -0.10244614194E+03  0.12133312844E+03  0.47000000000E+01 0.  1.
<mgrwt>
<rscale>  0 0.27471558E+03</rscale>
<asrwt>0</asrwt>
<pdfrwt beam="1">  1        2 0.55543315E-01 0.27471558E+03</pdfrwt>
<pdfrwt beam="2">  1       -2 0.80398525E-02 0.27471558E+03</pdfrwt>
<totfact> 0.83214548E+03</totfact>
</mgrwt>
</event>
<event>
 9    1  0.8285222E-001  0.2752717E+03  0.7818608E-02  0.1098300E+00
         -2   -1    0    0    0  501 -0.00000000000E+00  0.00000000000E+00  0.22434549826E+02  0.22434549826E+02  0.00000000000E+00 0.  1.
          2   -1    0    0  501    0  0.00000000000E+00 -0.00000000000E+00 -0.84439544182E+03  0.84439544182E+03  0.00000000000E+00 0.  1.
         35    2    1    2    0    0  0.00000000000E+00  0.00000000000E+00 -0.82196089199E+03  0.86682999164E+03  0.27527173202E+03 0.  0.
         25    2    3    3    0    0 -0.46214390099E+02  0.21754424096E+02 -0.24452997903E+03  0.27373975940E+03  0.11193534032E+03 0.  0.
         25    2    3    3    0    0  0.46214390099E+02 -0.21754424096E+02 -0.57743091296E+03  0.59309023224E+03  0.12538157567E+03 0.  0.
          5    1    4    4  502    0  0.13040698696E+02 -0.99852528238E+01  0.28735499942E+01  0.17323752076E+02  0.47000000000E+01 0. -1.
         -5    1    4    4    0  502 -0.59255088795E+02  0.31739676920E+02 -0.24740352903E+03  0.25641600733E+03  0.47000000000E+01 0. -1.
          5    1    5    5  503    0  0.88659715876E+02 -0.17440367644E+02 -0.34129577383E+03  0.35308583500E+03  0.47000000000E+01 0.  1.
         -5    1    5    5    0  503 -0.42445325778E+02 -0.43140564518E+01 -0.23613513913E+03  0.24000439724E+03  0.47000000000E+01 0.  1.
<mgrwt>
<rscale>  0 0.27527173E+03</rscale>
<asrwt>0</asrwt>
<pdfrwt beam="1">  1        2 0.12990699E+00 0.27527173E+03</pdfrwt>
<pdfrwt beam="2">  1       -2 0.34514692E-02 0.27527173E+03</pdfrwt>
<totfact> 0.11317123E+04</totfact>
</mgrwt>
</event>
<event>
 9    1  0.8285222E-001  0.2760599E+03  0.7818608E-02  0.1097861E+00
         -2   -1    0    0    0  501 -0.00000000000E+00  0.00000000000E+00  0.50606533891E+02  0.50606533891E+02  0.00000000000E+00 0. -1.
          2   -1    0    0  501    0  0.00000000000E+00 -0.00000000000E+00 -0.37647848648E+03  0.37647848648E+03  0.00000000000E+00 0. -1.
         35    2    1    2    0    0  0.00000000000E+00  0.71054273576E-14 -0.32587195259E+03  0.42708502037E+03  0.27605993034E+03 0.  0.
         25    2    3    3    0    0  0.23769626366E+02  0.29269508300E+02 -0.92580803500E+02  0.16009667039E+03  0.12505214688E+03 0.  0.
         25    2    3    3    0    0 -0.23769626366E+02 -0.29269508300E+02 -0.23329114909E+03  0.26698834998E+03  0.12424298584E+03 0.  0.
          5    1    4    4  502    0 -0.76119872840E+01 -0.32672400573E+02  0.10726773207E+02  0.35532826697E+02  0.47000000000E+01 0. -1.
         -5    1    4    4    0  502  0.31381613650E+02  0.61941908873E+02 -0.10330757671E+03  0.12456384369E+03  0.47000000000E+01 0. -1.
          5    1    5    5  503    0 -0.35695561128E+02  0.42290622788E+02 -0.12212096472E+03  0.13415770528E+03  0.47000000000E+01 0.  1.
         -5    1    5    5    0  503  0.11925934762E+02 -0.71560131087E+02 -0.11117018436E+03  0.13283064470E+03  0.47000000000E+01 0.  1.
<mgrwt>
<rscale>  0 0.27605993E+03</rscale>
<asrwt>0</asrwt>
<pdfrwt beam="1">  1        2 0.57919767E-01 0.27605993E+03</pdfrwt>
<pdfrwt beam="2">  1       -2 0.77856206E-02 0.27605993E+03</pdfrwt>
<totfact> 0.83633718E+03</totfact>
</mgrwt>
</event>
<event>
 9    1  0.8285222E-001  0.2712773E+03  0.7818608E-02  0.1100551E+00
          2   -1    0    0  501    0  0.00000000000E+00  0.00000000000E+00  0.81967077431E+03  0.81967077431E+03  0.00000000000E+00 0. -1.
         -2   -1    0    0    0  501 -0.00000000000E+00 -0.00000000000E+00 -0.22445403836E+02  0.22445403836E+02  0.00000000000E+00 0. -1.
         35    2    1    2    0    0 -0.35527136788E-14  0.00000000000E+00  0.79722537047E+03  0.84211617815E+03  0.27127728649E+03 0.  0.
         25    2    3    3    0    0 -0.12683798416E+02  0.10224245842E+02  0.55548368893E+03  0.56969449354E+03  0.12539646468E+03 0.  0.
         25    2    3    3    0    0  0.12683798416E+02 -0.10224245842E+02  0.24174168154E+03  0.27242168460E+03  0.12453561620E+03 0.  0.
          5    1    4    4  502    0 -0.44917419463E+02  0.11005686957E+02  0.51777841167E+03  0.51986082110E+03  0.47000000000E+01 0. -1.
         -5    1    4    4    0  502  0.32233621048E+02 -0.78144111506E+00  0.37705277260E+02  0.49833672444E+02  0.47000000000E+01 0. -1.
          5    1    5    5  503    0  0.36783847499E+02  0.48967230273E+02  0.11315209156E+03  0.12874908506E+03  0.47000000000E+01 0.  1.
         -5    1    5    5    0  503 -0.24100049084E+02 -0.59191476115E+02  0.12858958998E+03  0.14367259955E+03  0.47000000000E+01 0.  1.
<mgrwt>
<rscale>  0 0.27127729E+03</rscale>
<asrwt>0</asrwt>
<pdfrwt beam="1">  1        2 0.12610317E+00 0.27127729E+03</pdfrwt>
<pdfrwt beam="2">  1       -2 0.34531397E-02 0.27127729E+03</pdfrwt>
<totfact> 0.11745935E+04</totfact>
</mgrwt>
</event>
<event>
 9    1  0.8285222E-001  0.2756694E+03  0.7818608E-02  0.1098078E+00
          2   -1    0    0  501    0  0.00000000000E+00  0.00000000000E+00  0.22908240984E+03  0.22908240984E+03  0.00000000000E+00 0.  1.
         -2   -1    0    0    0  501 -0.00000000000E+00 -0.00000000000E+00 -0.82932629703E+02  0.82932629703E+02  0.00000000000E+00 0.  1.
         35    2    1    2    0    0  0.00000000000E+00  0.00000000000E+00  0.14614978014E+03  0.31201503954E+03  0.27566941555E+03 0.  0.
         25    2    3    3    0    0  0.46335533737E+02  0.18724756637E+02  0.23823944182E+02  0.13764311288E+03  0.12601764959E+03 0.  0.
         25    2    3    3    0    0 -0.46335533737E+02 -0.18724756637E+02  0.12232583596E+03  0.17437192667E+03  0.11377328539E+03 0.  0.
          5    1    4    4  502    0  0.61276518393E+02 -0.33288500446E+02 -0.14220665510E+02  0.71324983673E+02  0.47000000000E+01 0.  1.
         -5    1    4    4    0  502 -0.14940984657E+02  0.52013257083E+02  0.38044609692E+02  0.66318129207E+02  0.47000000000E+01 0.  1.
          5    1    5    5  503    0  0.25558794933E+02 -0.15779656427E+02 -0.21923660218E+01  0.30481896663E+02  0.47000000000E+01 0.  1.
         -5    1    5    5    0  503 -0.71894328670E+02 -0.29451002100E+01  0.12451820198E+03  0.14389003000E+03  0.47000000000E+01 0.  1.
<mgrwt>
<rscale>  0 0.27566942E+03</rscale>
<asrwt>0</asrwt>
<pdfrwt beam="1">  1        2 0.35243447E-01 0.27566942E+03</pdfrwt>
<pdfrwt beam="2">  1       -2 0.12758866E-01 0.27566942E+03</pdfrwt>
<totfact> 0.65163003E+03</totfact>
</mgrwt>
</event>
<event>
 9    1  0.8285222E-001  0.2690872E+03  0.7818608E-02  0.1101803E+00
         -2   -1    0    0    0  501 -0.00000000000E+00  0.00000000000E+00  0.87617719159E+02  0.87617719159E+02  0.00000000000E+00 0.  1.
          2   -1    0    0  501    0  0.00000000000E+00 -0.00000000000E+00 -0.20660175905E+03  0.20660175905E+03  0.00000000000E+00 0.  1.
         35    2    1    2    0    0  0.00000000000E+00  0.00000000000E+00 -0.11898403989E+03  0.29421947821E+03  0.26908715987E+03 0.  0.
         25    2    3    3    0    0 -0.31208727966E+02  0.39001693183E+01 -0.10374647114E+03  0.16514861948E+03  0.12458547355E+03 0.  0.
         25    2    3    3    0    0  0.31208727966E+02 -0.39001693183E+01 -0.15237568753E+02  0.12907085873E+03  0.12424937444E+03 0.  0.
          5    1    4    4  502    0 -0.11953948448E+01  0.68249482073E+01 -0.12669028998E+03  0.12696664311E+03  0.47000000000E+01 0.  1.
         -5    1    4    4    0  502 -0.30013333121E+02 -0.29247788891E+01  0.22943818842E+02  0.38181976371E+02  0.47000000000E+01 0.  1.
          5    1    5    5  503    0  0.67583740228E+02  0.10794774734E+02 -0.42834061512E+02  0.80876052886E+02  0.47000000000E+01 0. -1.
         -5    1    5    5    0  503 -0.36375012262E+02 -0.14694944053E+02  0.27596492759E+02  0.48194805844E+02  0.47000000000E+01 0. -1.
<mgrwt>
<rscale>  0 0.26908716E+03</rscale>
<asrwt>0</asrwt>
<pdfrwt beam="1">  1        2 0.31784886E-01 0.26908716E+03</pdfrwt>
<pdfrwt beam="2">  1       -2 0.13479649E-01 0.26908716E+03</pdfrwt>
<totfact> 0.66613951E+03</totfact>
</mgrwt>
</event>
<event>
 9    1  0.8285222E-001  0.2755098E+03  0.7818608E-02  0.1098167E+00
         -1   -1    0    0    0  501 -0.00000000000E+00  0.00000000000E+00  0.23234877440E+02  0.23234877440E+02  0.00000000000E+00 0. -1.
          1   -1    0    0  501    0  0.00000000000E+00 -0.00000000000E+00 -0.81672100154E+03  0.81672100154E+03  0.00000000000E+00 0. -1.
         35    2    1    2    0    0  0.71054273576E-14 -0.71054273576E-14 -0.79348612410E+03  0.83995587898E+03  0.27550979927E+03 0.  0.
         25    2    3    3    0    0  0.46199399755E+02 -0.21679897108E+02 -0.45898965796E+03  0.47879808237E+03  0.12637917190E+03 0.  0.
         25    2    3    3    0    0 -0.46199399755E+02  0.21679897108E+02 -0.33449646614E+03  0.36115779661E+03  0.12626426936E+03 0.  0.
          5    1    4    4  502    0  0.62289704407E+02  0.10041065388E+02 -0.42396195484E+03  0.42865680844E+03  0.47000000000E+01 0. -1.
         -5    1    4    4    0  502 -0.16090304653E+02 -0.31720962495E+02 -0.35027703121E+02  0.50141273930E+02  0.47000000000E+01 0. -1.
          5    1    5    5  503    0 -0.33342834879E+02 -0.51533494681E+02 -0.14306416335E+03  0.15574623766E+03  0.47000000000E+01 0.  1.
         -5    1    5    5    0  503 -0.12856564875E+02  0.73213391789E+02 -0.19143230279E+03  0.20541155895E+03  0.47000000000E+01 0.  1.
<mgrwt>
<rscale>  0 0.27550980E+03</rscale>
<asrwt>0</asrwt>
<pdfrwt beam="1">  1        1 0.12564940E+00 0.27550980E+03</pdfrwt>
<pdfrwt beam="2">  1       -1 0.35745960E-02 0.27550980E+03</pdfrwt>
<totfact> 0.64768267E+03</totfact>
</mgrwt>
</event>
<event>
 9    1  0.8285222E-001  0.2769490E+03  0.7818608E-02  0.1097367E+00
         -1   -1    0    0    0  501 -0.00000000000E+00  0.00000000000E+00  0.12211867782E+02  0.12211867782E+02  0.00000000000E+00 0.  1.
          1   -1    0    0  501    0  0.00000000000E+00 -0.00000000000E+00 -0.15702090101E+04  0.15702090101E+04  0.00000000000E+00 0.  1.
         35    2    1    2    0    0  0.00000000000E+00 -0.71054273576E-14 -0.15579971424E+04  0.15824208779E+04  0.27694898319E+03 0.  0.
         25    2    3    3    0    0  0.40937906819E+02  0.17717478897E+02 -0.54679930378E+03  0.56255309161E+03  0.12444549411E+03 0.  0.
         25    2    3    3    0    0 -0.40937906819E+02 -0.17717478897E+02 -0.10111978386E+04  0.10198677863E+04  0.12497764408E+03 0.  0.
          5    1    4    4  502    0  0.56791989125E+01 -0.39195917665E+02 -0.66167679582E+02  0.77258171627E+02  0.47000000000E+01 0.  1.
         -5    1    4    4    0  502  0.35258707907E+02  0.56913396562E+02 -0.48063162419E+03  0.48529491999E+03  0.47000000000E+01 0.  1.
          5    1    5    5  503    0 -0.88632438580E+01 -0.61566086713E+02 -0.29110600866E+03  0.29771418912E+03  0.47000000000E+01 0.  1.
         -5    1    5    5    0  503 -0.32074662961E+02  0.43848607815E+02 -0.72009182992E+03  0.72215359719E+03  0.47000000000E+01 0.  1.
<mgrwt>
<rscale>  0 0.27694898E+03</rscale>
<asrwt>0</asrwt>
<pdfrwt beam="1">  1        1 0.24157045E+00 0.27694898E+03</pdfrwt>
<pdfrwt beam="2">  1       -1 0.18787502E-02 0.27694898E+03</pdfrwt>
<totfact> 0.48326889E+03</totfact>
</mgrwt>
</event>
<event>
 9    1  0.8285222E-001  0.2770736E+03  0.7818608E-02  0.1097298E+00
          3   -1    0    0  501    0  0.00000000000E+00  0.00000000000E+00  0.12596383005E+03  0.12596383005E+03  0.00000000000E+00 0. -1.
         -3   -1    0    0    0  501 -0.00000000000E+00 -0.00000000000E+00 -0.15236470398E+03  0.15236470398E+03  0.00000000000E+00 0. -1.
         35    2    1    2    0    0  0.00000000000E+00  0.00000000000E+00 -0.26400873925E+02  0.27832853403E+03  0.27707357635E+03 0.  0.
         25    2    3    3    0    0  0.38230660556E+02 -0.47696817253E+02  0.21824606824E+02  0.13132261236E+03  0.11416104971E+03 0.  0.
         25    2    3    3    0    0 -0.38230660556E+02  0.47696817253E+02 -0.48225480749E+02  0.14700592168E+03  0.12469352121E+03 0.  0.
          5    1    4    4  502    0 -0.25319602677E+02  0.16526015300E+02  0.26852435884E+02  0.40710376740E+02  0.47000000000E+01 0.  1.
         -5    1    4    4    0  502  0.63550263233E+02 -0.64222832554E+02 -0.50278290595E+01  0.90612235615E+02  0.47000000000E+01 0.  1.
          5    1    5    5  503    0 -0.35424562799E+02  0.63728287041E+02  0.20772279255E+02  0.75959013975E+02  0.47000000000E+01 0.  1.
         -5    1    5    5    0  503 -0.28060977570E+01 -0.16031469788E+02 -0.68997760004E+02  0.71046907700E+02  0.47000000000E+01 0.  1.
<mgrwt>
<rscale>  0 0.27707358E+03</rscale>
<asrwt>0</asrwt>
<pdfrwt beam="1">  1        3 0.19379051E-01 0.27707358E+03</pdfrwt>
<pdfrwt beam="2">  1       -3 0.23440723E-01 0.27707358E+03</pdfrwt>
<totfact> 0.10200084E+03</totfact>
</mgrwt>
</event>
<event>
 9    1  0.8285222E-001  0.2734718E+03  0.7818608E-02  0.1099309E+00
         -1   -1    0    0    0  501 -0.00000000000E+00  0.00000000000E+00  0.10104169511E+04  0.10104169511E+04  0.00000000000E+00 0. -1.
          1   -1    0    0  501    0  0.00000000000E+00 -0.00000000000E+00 -0.18503950155E+02  0.18503950155E+02  0.00000000000E+00 0. -1.
         35    2    1    2    0    0  0.00000000000E+00  0.00000000000E+00  0.99191300093E+03  0.10289209012E+04  0.27347178939E+03 0.  0.
         25    2    3    3    0    0  0.20626257333E+02  0.30262930744E+02  0.34223884632E+03  0.36619856348E+03  0.12503068621E+03 0.  0.
         25    2    3    3    0    0 -0.20626257333E+02 -0.30262930744E+02  0.64967415460E+03  0.66272233776E+03  0.12563081760E+03 0.  0.
          5    1    4    4  502    0 -0.32178001296E+02 -0.30927196366E+02  0.79775160513E+02  0.91531860449E+02  0.47000000000E+01 0.  1.
         -5    1    4    4    0  502  0.52804258628E+02  0.61190127110E+02  0.26246368581E+03  0.27466670303E+03  0.47000000000E+01 0.  1.
          5    1    5    5  503    0 -0.72767787845E+02 -0.11410842921E+02  0.41747328706E+03  0.42394739496E+03  0.47000000000E+01 0.  1.
         -5    1    5    5    0  503  0.52141530512E+02 -0.18852087822E+02  0.23220086754E+03  0.23877494279E+03  0.47000000000E+01 0.  1.
<mgrwt>
<rscale>  0 0.27347179E+03</rscale>
<asrwt>0</asrwt>
<pdfrwt beam="1">  1        1 0.28467624E-02 0.27347179E+03</pdfrwt>
<pdfrwt beam="2">  1       -1 0.15544872E+00 0.27347179E+03</pdfrwt>
<totfact> 0.12618055E+03</totfact>
</mgrwt>
</event>
<event>
 9    1  0.8285222E-001  0.2650498E+03  0.7818608E-02  0.1104147E+00
          2   -1    0    0  501    0  0.00000000000E+00  0.00000000000E+00  0.37789725830E+02  0.37789725830E+02  0.00000000000E+00 0. -1.
         -2   -1    0    0    0  501 -0.00000000000E+00 -0.00000000000E+00 -0.46475195354E+03  0.46475195354E+03  0.00000000000E+00 0. -1.
         35    2    1    2    0    0  0.35527136788E-14  0.88817841970E-15 -0.42696222771E+03  0.50254167937E+03  0.26504979837E+03 0.  0.
         25    2    3    3    0    0  0.47827171487E+01 -0.65661392390E+01 -0.13943787315E+03  0.18930444955E+03  0.12777818899E+03 0.  0.
         25    2    3    3    0    0 -0.47827171487E+01  0.65661392390E+01 -0.28752435456E+03  0.31323722982E+03  0.12402144618E+03 0.  0.
          5    1    4    4  502    0 -0.47191171781E+02 -0.20487943764E+02 -0.15226227617E+02  0.53858059203E+02  0.47000000000E+01 0. -1.
         -5    1    4    4    0  502  0.51973888929E+02  0.13921804525E+02 -0.12421164553E+03  0.13544639034E+03  0.47000000000E+01 0. -1.
          5    1    5    5  503    0 -0.21929806829E+02 -0.16035608645E+01  0.24367305696E+01  0.22616708224E+02  0.47000000000E+01 0. -1.
         -5    1    5    5    0  503  0.17147089680E+02  0.81697001035E+01 -0.28996108513E+03  0.29062052160E+03  0.47000000000E+01 0. -1.
<mgrwt>
<rscale>  0 0.26504980E+03</rscale>
<asrwt>0</asrwt>
<pdfrwt beam="1">  1        2 0.58138041E-02 0.26504980E+03</pdfrwt>
<pdfrwt beam="2">  1       -2 0.71500299E-01 0.26504980E+03</pdfrwt>
<totfact> 0.23366172E+03</totfact>
</mgrwt>
</event>
<event>
 9    1  0.8285222E-001  0.2764056E+03  0.7818608E-02  0.1097668E+00
          1   -1    0    0  501    0  0.00000000000E+00  0.00000000000E+00  0.30216464662E+03  0.30216464662E+03  0.00000000000E+00 0.  1.
         -1   -1    0    0    0  501 -0.00000000000E+00 -0.00000000000E+00 -0.63210616310E+02  0.63210616310E+02  0.00000000000E+00 0.  1.
         35    2    1    2    0    0  0.00000000000E+00 -0.71054273576E-14  0.23895403031E+03  0.36537526293E+03  0.27640559719E+03 0.  0.
         25    2    3    3    0    0 -0.41118031678E+02  0.28572206746E+02  0.87131214849E+02  0.16165430490E+03  0.12662228146E+03 0.  0.
         25    2    3    3    0    0  0.41118031678E+02 -0.28572206746E+02  0.15182281546E+03  0.20372095803E+03  0.12627350443E+03 0.  0.
          5    1    4    4  502    0 -0.11574021616E+02 -0.14821814415E+02 -0.28563428629E+02  0.34519612019E+02  0.47000000000E+01 0.  1.
         -5    1    4    4    0  502 -0.29544010063E+02  0.43394021161E+02  0.11569464348E+03  0.12713469288E+03  0.47000000000E+01 0.  1.
          5    1    5    5  503    0  0.63268662181E+02 -0.32313574090E+02  0.16323704570E+03  0.17808849983E+03  0.47000000000E+01 0. -1.
         -5    1    5    5    0  503 -0.22150630502E+02  0.37413673443E+01 -0.11414230241E+02  0.25632458198E+02  0.47000000000E+01 0. -1.
<mgrwt>
<rscale>  0 0.27640560E+03</rscale>
<asrwt>0</asrwt>
<pdfrwt beam="1">  1        1 0.46486868E-01 0.27640560E+03</pdfrwt>
<pdfrwt beam="2">  1       -1 0.97247104E-02 0.27640560E+03</pdfrwt>
<totfact> 0.54922717E+03</totfact>
</mgrwt>
</event>
<event>
 9    1  0.8285222E-001  0.2767343E+03  0.7818608E-02  0.1097486E+00
         -1   -1    0    0    0  501 -0.00000000000E+00  0.00000000000E+00  0.74435073478E+01  0.74435073478E+01  0.00000000000E+00 0.  1.
          1   -1    0    0  501    0  0.00000000000E+00 -0.00000000000E+00 -0.25721025899E+04  0.25721025899E+04  0.00000000000E+00 0.  1.
         35    2    1    2    0    0 -0.35527136788E-14  0.00000000000E+00 -0.25646590825E+04  0.25795460972E+04  0.27673427346E+03 0.  0.
         25    2    3    3    0    0  0.10598482308E+02  0.38357642219E+02 -0.17332231767E+04  0.17378494427E+04  0.12030988708E+03 0.  0.
         25    2    3    3    0    0 -0.10598482308E+02 -0.38357642219E+02 -0.83143590585E+03  0.84169665448E+03  0.12483571637E+03 0.  0.
          5    1    4    4  502    0  0.12458875051E+02  0.81261253807E+02 -0.10195401505E+04  0.10228601191E+04  0.47000000000E+01 0. -1.
         -5    1    4    4    0  502 -0.18603927431E+01 -0.42903611588E+02 -0.71368302622E+03  0.71498932360E+03  0.47000000000E+01 0. -1.
          5    1    5    5  503    0 -0.50106254529E+00 -0.83882734233E+02 -0.51469283405E+03  0.52150490658E+03  0.47000000000E+01 0.  1.
         -5    1    5    5    0  503 -0.10097419763E+02  0.45525092014E+02 -0.31674307179E+03  0.32019174789E+03  0.47000000000E+01 0.  1.
<mgrwt>
<rscale>  0 0.27673427E+03</rscale>
<asrwt>0</asrwt>
<pdfrwt beam="1">  1        1 0.39570861E+00 0.27673427E+03</pdfrwt>
<pdfrwt beam="2">  1       -1 0.11451535E-02 0.27673427E+03</pdfrwt>
<totfact> 0.21934267E+03</totfact>
</mgrwt>
</event>
<event>
 9    1  0.8285222E-001  0.2754983E+03  0.7818608E-02  0.1098173E+00
         -2   -1    0    0    0  501 -0.00000000000E+00  0.00000000000E+00  0.15804086050E+03  0.15804086050E+03  0.00000000000E+00 0. -1.
          2   -1    0    0  501    0  0.00000000000E+00 -0.00000000000E+00 -0.12006278921E+03  0.12006278921E+03  0.00000000000E+00 0. -1.
         35    2    1    2    0    0  0.00000000000E+00  0.00000000000E+00  0.37978071292E+02  0.27810364972E+03  0.27549828690E+03 0.  0.
         25    2    3    3    0    0 -0.37540880834E+02  0.21304759391E+02  0.57424644134E+02  0.14425020412E+03  0.12508925265E+03 0.  0.
         25    2    3    3    0    0  0.37540880834E+02 -0.21304759391E+02 -0.19446572842E+02  0.13385344560E+03  0.12520129870E+03 0.  0.
          5    1    4    4  502    0  0.22189455199E+02  0.57409414617E+02  0.19825343286E+02  0.64833224855E+02  0.47000000000E+01 0.  1.
         -5    1    4    4    0  502 -0.59730336033E+02 -0.36104655226E+02  0.37599300847E+02  0.79416979266E+02  0.47000000000E+01 0.  1.
          5    1    5    5  503    0  0.35504891593E+02 -0.27243945676E+02  0.48091627615E+02  0.65861404098E+02  0.47000000000E+01 0. -1.
         -5    1    5    5    0  503  0.20359892410E+01  0.59391862858E+01 -0.67538200458E+02  0.67992041497E+02  0.47000000000E+01 0. -1.
<mgrwt>
<rscale>  0 0.27549829E+03</rscale>
<asrwt>0</asrwt>
<pdfrwt beam="1">  1        2 0.18471198E-01 0.27549829E+03</pdfrwt>
<pdfrwt beam="2">  1       -2 0.24313979E-01 0.27549829E+03</pdfrwt>
<totfact> 0.45210892E+03</totfact>
</mgrwt>
</event>
<event>
 9    1  0.8285222E-001  0.2731749E+03  0.7818608E-02  0.1099476E+00
          3   -1    0    0  501    0  0.00000000000E+00  0.00000000000E+00  0.46410829969E+03  0.46410829969E+03  0.00000000000E+00 0. -1.
         -3   -1    0    0    0  501 -0.00000000000E+00 -0.00000000000E+00 -0.40197806378E+02  0.40197806378E+02  0.00000000000E+00 0. -1.
         35    2    1    2    0    0  0.00000000000E+00  0.00000000000E+00  0.42391049331E+03  0.50430610607E+03  0.27317492981E+03 0.  0.
         25    2    3    3    0    0  0.35978148804E+02 -0.13330762038E+02  0.13671936479E+03  0.18922446603E+03  0.12506629214E+03 0.  0.
         25    2    3    3    0    0 -0.35978148804E+02  0.13330762038E+02  0.28719112852E+03  0.31508164004E+03  0.12379644251E+03 0.  0.
          5    1    4    4  502    0 -0.25880172249E+02 -0.36045941092E+02  0.10862709721E+03  0.11743521377E+03  0.47000000000E+01 0.  1.
         -5    1    4    4    0  502  0.61858321053E+02  0.22715179053E+02  0.28092267581E+02  0.71789252265E+02  0.47000000000E+01 0.  1.
          5    1    5    5  503    0 -0.41344854085E+02  0.62544990573E+02  0.21216019320E+03  0.22506734633E+03  0.47000000000E+01 0.  1.
         -5    1    5    5    0  503  0.53667052804E+01 -0.49214228534E+02  0.75030935319E+02  0.90014293702E+02  0.47000000000E+01 0.  1.
<mgrwt>
<rscale>  0 0.27317493E+03</rscale>
<asrwt>0</asrwt>
<pdfrwt beam="1">  1        3 0.71401273E-01 0.27317493E+03</pdfrwt>
<pdfrwt beam="2">  1       -3 0.61842782E-02 0.27317493E+03</pdfrwt>
<totfact> 0.78591918E+02</totfact>
</mgrwt>
</event>
<event>
 9    1  0.8285222E-001  0.2817728E+03  0.7818608E-02  0.1094725E+00
         -2   -1    0    0    0  501 -0.00000000000E+00  0.00000000000E+00  0.63696449963E+02  0.63696449963E+02  0.00000000000E+00 0.  1.
          2   -1    0    0  501    0  0.00000000000E+00 -0.00000000000E+00 -0.31161819506E+03  0.31161819506E+03  0.00000000000E+00 0.  1.
         35    2    1    2    0    0  0.00000000000E+00  0.17763568394E-14 -0.24792174510E+03  0.37531464503E+03  0.28177276497E+03 0.  0.
         25    2    3    3    0    0  0.29786287606E+02 -0.14100658391E+02 -0.19654699492E+03  0.23577524330E+03  0.12598885921E+03 0.  0.
         25    2    3    3    0    0 -0.29786287606E+02  0.14100658391E+02 -0.51374750183E+02  0.13953940173E+03  0.12548238196E+03 0.  0.
          5    1    4    4  502    0  0.19146619924E+02 -0.27539322932E+02 -0.21048255863E+03  0.21319006743E+03  0.47000000000E+01 0. -1.
         -5    1    4    4    0  502  0.10639667682E+02  0.13438664541E+02  0.13935563715E+02  0.22585175871E+02  0.47000000000E+01 0. -1.
          5    1    5    5  503    0  0.28500731432E+02  0.51342653107E+02 -0.13108197369E+02  0.60351259792E+02  0.47000000000E+01 0.  1.
         -5    1    5    5    0  503 -0.58287019038E+02 -0.37241994716E+02 -0.38266552814E+02  0.79188141935E+02  0.47000000000E+01 0.  1.
<mgrwt>
<rscale>  0 0.28177276E+03</rscale>
<asrwt>0</asrwt>
<pdfrwt beam="1">  1        2 0.47941261E-01 0.28177276E+03</pdfrwt>
<pdfrwt beam="2">  1       -2 0.97994538E-02 0.28177276E+03</pdfrwt>
<totfact> 0.71477459E+03</totfact>
</mgrwt>
</event>
<event>
 9    1  0.8285222E-001  0.2763474E+03  0.7818608E-02  0.1097701E+00
          2   -1    0    0  501    0  0.00000000000E+00  0.00000000000E+00  0.49365907937E+03  0.49365907937E+03  0.00000000000E+00 0. -1.
         -2   -1    0    0    0  501 -0.00000000000E+00 -0.00000000000E+00 -0.38674410357E+02  0.38674410357E+02  0.00000000000E+00 0. -1.
         35    2    1    2    0    0  0.71054273576E-14 -0.35527136788E-14  0.45498466901E+03  0.53233348972E+03  0.27634741766E+03 0.  0.
         25    2    3    3    0    0 -0.55065058601E+02  0.12076438909E+02  0.25835577604E+03  0.29284077656E+03  0.12581737697E+03 0.  0.
         25    2    3    3    0    0  0.55065058601E+02 -0.12076438909E+02  0.19662889297E+03  0.23949271316E+03  0.12456258288E+03 0.  0.
          5    1    4    4  502    0 -0.43651401309E+02 -0.54155997642E+02  0.11580963131E+03  0.13517498889E+03  0.47000000000E+01 0.  1.
         -5    1    4    4    0  502 -0.11413657291E+02  0.66232436551E+02  0.14254614473E+03  0.15766578767E+03  0.47000000000E+01 0.  1.
          5    1    5    5  503    0 -0.39079662085E+02 -0.15740022971E+02  0.61280164837E+02  0.74513870617E+02  0.47000000000E+01 0.  1.
         -5    1    5    5    0  503  0.94144720686E+02  0.36635840619E+01  0.13534872813E+03  0.16497884254E+03  0.47000000000E+01 0.  1.
<mgrwt>
<rscale>  0 0.27634742E+03</rscale>
<asrwt>0</asrwt>
<pdfrwt beam="1">  1        2 0.75947546E-01 0.27634742E+03</pdfrwt>
<pdfrwt beam="2">  1       -2 0.59499096E-02 0.27634742E+03</pdfrwt>
<totfact> 0.94167122E+03</totfact>
</mgrwt>
</event>
<event>
 9    1  0.8285222E-001  0.2682632E+03  0.7818608E-02  0.1102278E+00
         -2   -1    0    0    0  501 -0.00000000000E+00  0.00000000000E+00  0.74138244334E+01  0.74138244334E+01  0.00000000000E+00 0.  1.
          2   -1    0    0  501    0  0.00000000000E+00 -0.00000000000E+00 -0.24267210732E+04  0.24267210732E+04  0.00000000000E+00 0.  1.
         35    2    1    2    0    0  0.00000000000E+00  0.35527136788E-14 -0.24193072488E+04  0.24341348976E+04  0.26826318410E+03 0.  0.
         25    2    3    3    0    0  0.49550843678E+02  0.87676607026E+01 -0.11412494360E+04  0.11492030052E+04  0.12524022527E+03 0.  0.
         25    2    3    3    0    0 -0.49550843678E+02 -0.87676607026E+01 -0.12780578128E+04  0.12849318925E+04  0.12282523118E+03 0.  0.
          5    1    4    4  502    0  0.61726530022E+02 -0.19646582454E+02 -0.10623506945E+04  0.10643341772E+04  0.47000000000E+01 0. -1.
         -5    1    4    4    0  502 -0.12175686344E+02  0.28414243157E+02 -0.78898741462E+02  0.84868827943E+02  0.47000000000E+01 0. -1.
          5    1    5    5  503    0 -0.63292396387E+02  0.44402438826E+02 -0.71549657826E+03  0.71967697442E+03  0.47000000000E+01 0.  1.
         -5    1    5    5    0  503  0.13741552709E+02 -0.53170099529E+02 -0.56256123456E+03  0.56525491806E+03  0.47000000000E+01 0.  1.
<mgrwt>
<rscale>  0 0.26826318E+03</rscale>
<asrwt>0</asrwt>
<pdfrwt beam="1">  1        2 0.37334182E+00 0.26826318E+03</pdfrwt>
<pdfrwt beam="2">  1       -2 0.11405880E-02 0.26826318E+03</pdfrwt>
<totfact> 0.77417418E+03</totfact>
</mgrwt>
</event>
<event>
 9    1  0.8285222E-001  0.2740622E+03  0.7818608E-02  0.1098977E+00
          2   -1    0    0  501    0  0.00000000000E+00  0.00000000000E+00  0.13746736668E+04  0.13746736668E+04  0.00000000000E+00 0.  1.
         -2   -1    0    0    0  501 -0.00000000000E+00 -0.00000000000E+00 -0.13659626731E+02  0.13659626731E+02  0.00000000000E+00 0.  1.
         35    2    1    2    0    0  0.71054273576E-14  0.71054273576E-14  0.13610140401E+04  0.13883332935E+04  0.27406224961E+03 0.  0.
         25    2    3    3    0    0 -0.33668267787E+02 -0.25850492403E+02  0.49965011006E+03  0.51688573184E+03  0.12537474658E+03 0.  0.
         25    2    3    3    0    0  0.33668267787E+02  0.25850492403E+02  0.86136393001E+03  0.87144756170E+03  0.12518479400E+03 0.  0.
          5    1    4    4  502    0 -0.63524551026E+02  0.12793632326E+02  0.40597909964E+03  0.41114494397E+03  0.47000000000E+01 0. -1.
         -5    1    4    4    0  502  0.29856283239E+02 -0.38644124729E+02  0.93671010428E+02  0.10574078787E+03  0.47000000000E+01 0. -1.
          5    1    5    5  503    0 -0.29261918281E+02  0.41611012579E+02  0.18376143070E+03  0.19073041090E+03  0.47000000000E+01 0. -1.
         -5    1    5    5    0  503  0.62930186068E+02 -0.15760520176E+02  0.67760249931E+03  0.68071715079E+03  0.47000000000E+01 0. -1.
<mgrwt>
<rscale>  0 0.27406225E+03</rscale>
<asrwt>0</asrwt>
<pdfrwt beam="1">  1        2 0.21148815E+00 0.27406225E+03</pdfrwt>
<pdfrwt beam="2">  1       -2 0.21014821E-02 0.27406225E+03</pdfrwt>
<totfact> 0.11459945E+04</totfact>
</mgrwt>
</event>
<event>
 9    1  0.8285222E-001  0.2784546E+03  0.7818608E-02  0.1096536E+00
         -2   -1    0    0    0  501 -0.00000000000E+00  0.00000000000E+00  0.56939114365E+01  0.56939114365E+01  0.00000000000E+00 0.  1.
          2   -1    0    0  501    0  0.00000000000E+00 -0.00000000000E+00 -0.34043793558E+04  0.34043793558E+04  0.00000000000E+00 0.  1.
         35    2    1    2    0    0  0.17763568394E-14  0.00000000000E+00 -0.33986854444E+04  0.34100732672E+04  0.27845455319E+03 0.  0.
         25    2    3    3    0    0 -0.15937233167E+02 -0.12818925863E+02 -0.24028116710E+04  0.24061603328E+04  0.12524097063E+03 0.  0.
         25    2    3    3    0    0  0.15937233167E+02  0.12818925863E+02 -0.99587377339E+03  0.10039129344E+04  0.12513307771E+03 0.  0.
          5    1    4    4  502    0 -0.60057482484E+02  0.52576295821E+00 -0.66288282177E+03  0.66561468060E+03  0.47000000000E+01 0.  1.
         -5    1    4    4    0  502  0.44120249317E+02 -0.13344688821E+02 -0.17399288492E+04  0.17405456522E+04  0.47000000000E+01 0.  1.
          5    1    5    5  503    0  0.28404439480E+02  0.29448774471E+02 -0.96776071713E+03  0.96863663885E+03  0.47000000000E+01 0. -1.
         -5    1    5    5    0  503 -0.12467206312E+02 -0.16629848608E+02 -0.28113056261E+02  0.35276295586E+02  0.47000000000E+01 0. -1.
<mgrwt>
<rscale>  0 0.27845455E+03</rscale>
<asrwt>0</asrwt>
<pdfrwt beam="1">  1        2 0.52375138E+00 0.27845455E+03</pdfrwt>
<pdfrwt beam="2">  1       -2 0.87598519E-03 0.27845455E+03</pdfrwt>
<totfact> 0.30256032E+03</totfact>
</mgrwt>
</event>
<event>
 9    1  0.8285222E-001  0.2756746E+03  0.7818608E-02  0.1098075E+00
          2   -1    0    0  501    0  0.00000000000E+00  0.00000000000E+00  0.25849427604E+04  0.25849427604E+04  0.00000000000E+00 0.  1.
         -2   -1    0    0    0  501 -0.00000000000E+00 -0.00000000000E+00 -0.73499205036E+01  0.73499205036E+01  0.00000000000E+00 0.  1.
         35    2    1    2    0    0 -0.35527136788E-14  0.00000000000E+00  0.25775928399E+04  0.25922926809E+04  0.27567461831E+03 0.  0.
         25    2    3    3    0    0  0.21699030129E+02  0.10280244719E+02  0.79818907821E+03  0.80833318411E+03  0.12538022422E+03 0.  0.
         25    2    3    3    0    0 -0.21699030129E+02 -0.10280244719E+02  0.17794037617E+04  0.17839594968E+04  0.12512876466E+03 0.  0.
          5    1    4    4  502    0 -0.84005074348E+01  0.63953502373E+02  0.46507025974E+03  0.46954558403E+03  0.47000000000E+01 0.  1.
         -5    1    4    4    0  502  0.30099537564E+02 -0.53673257655E+02  0.33311881847E+03  0.33878760008E+03  0.47000000000E+01 0.  1.
          5    1    5    5  503    0 -0.52851640418E+02 -0.52533587968E+02  0.10213545386E+04  0.10240802006E+04  0.47000000000E+01 0.  1.
         -5    1    5    5    0  503  0.31152610289E+02  0.42253343249E+02  0.75804922310E+03  0.75987929620E+03  0.47000000000E+01 0.  1.
<mgrwt>
<rscale>  0 0.27567462E+03</rscale>
<asrwt>0</asrwt>
<pdfrwt beam="1">  1        2 0.39768278E+00 0.27567462E+03</pdfrwt>
<pdfrwt beam="2">  1       -2 0.11307591E-02 0.27567462E+03</pdfrwt>
<totfact> 0.64195343E+03</totfact>
</mgrwt>
</event>
<event>
 9    1  0.8285222E-001  0.2753113E+03  0.7818608E-02  0.1098278E+00
         -2   -1    0    0    0  501 -0.00000000000E+00  0.00000000000E+00  0.17703024746E+03  0.17703024746E+03  0.00000000000E+00 0. -1.
          2   -1    0    0  501    0  0.00000000000E+00 -0.00000000000E+00 -0.10703862696E+03  0.10703862696E+03  0.00000000000E+00 0. -1.
         35    2    1    2    0    0  0.00000000000E+00  0.71054273576E-14  0.69991620502E+02  0.28406887442E+03  0.27531127561E+03 0.  0.
         25    2    3    3    0    0 -0.37632488038E+02 -0.33663181294E+02  0.60586751554E+01  0.13496202174E+03  0.12501450250E+03 0.  0.
         25    2    3    3    0    0  0.37632488038E+02  0.33663181294E+02  0.63932945346E+02  0.14910685269E+03  0.12488401854E+03 0.  0.
          5    1    4    4  502    0  0.26931279834E+02  0.25858064502E+02  0.24774123166E+02  0.45053085487E+02  0.47000000000E+01 0. -1.
         -5    1    4    4    0  502 -0.64563767873E+02 -0.59521245796E+02 -0.18715448010E+02  0.89908936248E+02  0.47000000000E+01 0. -1.
          5    1    5    5  503    0  0.32757694405E+02 -0.22889323657E+02 -0.22116295597E+02  0.45915228532E+02  0.47000000000E+01 0.  1.
         -5    1    5    5    0  503  0.48747936331E+01  0.56552504951E+02  0.86049240944E+02  0.10319162416E+03  0.47000000000E+01 0.  1.
<mgrwt>
<rscale>  0 0.27531128E+03</rscale>
<asrwt>0</asrwt>
<pdfrwt beam="1">  1        2 0.16467481E-01 0.27531128E+03</pdfrwt>
<pdfrwt beam="2">  1       -2 0.27235423E-01 0.27531128E+03</pdfrwt>
<totfact> 0.42263970E+03</totfact>
</mgrwt>
</event>
<event>
 9    1  0.8285222E-001  0.2726748E+03  0.7818608E-02  0.1099758E+00
         -1   -1    0    0    0  501 -0.00000000000E+00  0.00000000000E+00  0.58529072168E+02  0.58529072168E+02  0.00000000000E+00 0. -1.
          1   -1    0    0  501    0  0.00000000000E+00 -0.00000000000E+00 -0.31758377612E+03  0.31758377612E+03  0.00000000000E+00 0. -1.
         35    2    1    2    0    0  0.35527136788E-14  0.35527136788E-14 -0.25905470395E+03  0.37611284828E+03  0.27267477882E+03 0.  0.
         25    2    3    3    0    0  0.15417845620E+02 -0.48302433896E+01 -0.56652574934E+02  0.13794979094E+03  0.12473808303E+03 0.  0.
         25    2    3    3    0    0 -0.15417845620E+02  0.48302433896E+01 -0.20240212901E+03  0.23816305735E+03  0.12447481207E+03 0.  0.
          5    1    4    4  502    0 -0.26241432624E+02  0.40993112447E+02  0.65531590390E+01  0.49336416040E+02  0.47000000000E+01 0.  1.
         -5    1    4    4    0  502  0.41659278244E+02 -0.45823355837E+02 -0.63205733973E+02  0.88613374899E+02  0.47000000000E+01 0.  1.
          5    1    5    5  503    0 -0.53980840337E+02  0.31849081101E+02 -0.55573632969E+02  0.83897638655E+02  0.47000000000E+01 0.  1.
         -5    1    5    5    0  503  0.38562994716E+02 -0.27018837711E+02 -0.14682849605E+03  0.15426541869E+03  0.47000000000E+01 0.  1.
<mgrwt>
<rscale>  0 0.27267478E+03</rscale>
<asrwt>0</asrwt>
<pdfrwt beam="1">  1        1 0.48859042E-01 0.27267478E+03</pdfrwt>
<pdfrwt beam="2">  1       -1 0.90044728E-02 0.27267478E+03</pdfrwt>
<totfact> 0.58049717E+03</totfact>
</mgrwt>
</event>
<event>
 9    1  0.8285222E-001  0.2722827E+03  0.7818608E-02  0.1099980E+00
         -2   -1    0    0    0  501 -0.00000000000E+00  0.00000000000E+00  0.45305959439E+02  0.45305959439E+02  0.00000000000E+00 0. -1.
          2   -1    0    0  501    0  0.00000000000E+00 -0.00000000000E+00 -0.40909564995E+03  0.40909564995E+03  0.00000000000E+00 0. -1.
         35    2    1    2    0    0 -0.71054273576E-14  0.00000000000E+00 -0.36378969051E+03  0.45440160938E+03  0.27228272750E+03 0.  0.
         25    2    3    3    0    0  0.43828551524E+02  0.30708092484E+02 -0.18501842254E+03  0.22978954791E+03  0.12532952874E+03 0.  0.
         25    2    3    3    0    0 -0.43828551524E+02 -0.30708092484E+02 -0.17877126796E+03  0.22461206148E+03  0.12500993176E+03 0.  0.
          5    1    4    4  502    0  0.63829749649E+02 -0.27443554591E+02 -0.12839409474E+03  0.14606340813E+03  0.47000000000E+01 0.  1.
         -5    1    4    4    0  502 -0.20001198125E+02  0.58151647074E+02 -0.56624327802E+02  0.83726139783E+02  0.47000000000E+01 0.  1.
          5    1    5    5  503    0 -0.53437715055E+02  0.18706812661E+02 -0.16147217337E+03  0.17117501863E+03  0.47000000000E+01 0.  1.
         -5    1    5    5    0  503  0.96091635312E+01 -0.49414905145E+02 -0.17299094590E+02  0.53437042844E+02  0.47000000000E+01 0.  1.
<mgrwt>
<rscale>  0 0.27228273E+03</rscale>
<asrwt>0</asrwt>
<pdfrwt beam="1">  1        2 0.62937792E-01 0.27228273E+03</pdfrwt>
<pdfrwt beam="2">  1       -2 0.69701477E-02 0.27228273E+03</pdfrwt>
<totfact> 0.90706827E+03</totfact>
</mgrwt>
</event>
<event>
 9    1  0.8285222E-001  0.2739041E+03  0.7818608E-02  0.1099066E+00
          2   -1    0    0  501    0  0.00000000000E+00  0.00000000000E+00  0.19598784823E+03  0.19598784823E+03  0.00000000000E+00 0.  1.
         -2   -1    0    0    0  501 -0.00000000000E+00 -0.00000000000E+00 -0.95699104280E+02  0.95699104280E+02  0.00000000000E+00 0.  1.
         35    2    1    2    0    0  0.00000000000E+00  0.35527136788E-14  0.10028874395E+03  0.29168695251E+03  0.27390408193E+03 0.  0.
         25    2    3    3    0    0 -0.35356332431E+02  0.52237754991E+01  0.89487301048E+02  0.15874225245E+03  0.12614978236E+03 0.  0.
         25    2    3    3    0    0  0.35356332431E+02 -0.52237754991E+01  0.10801442900E+02  0.13294470006E+03  0.12759413792E+03 0.  0.
          5    1    4    4  502    0 -0.16139551992E+02  0.17818944930E+01 -0.31687749805E+02  0.35914673522E+02  0.47000000000E+01 0.  1.
         -5    1    4    4    0  502 -0.19216780439E+02  0.34418810061E+01  0.12117505085E+03  0.12282757892E+03  0.47000000000E+01 0.  1.
          5    1    5    5  503    0  0.68125315620E+02  0.26555280409E+02  0.34851393994E+02  0.81135388144E+02  0.47000000000E+01 0.  1.
         -5    1    5    5    0  503 -0.32768983189E+02 -0.31779055908E+02 -0.24049951094E+02  0.51809311917E+02  0.47000000000E+01 0.  1.
<mgrwt>
<rscale>  0 0.27390408E+03</rscale>
<asrwt>0</asrwt>
<pdfrwt beam="1">  1        2 0.30151977E-01 0.27390408E+03</pdfrwt>
<pdfrwt beam="2">  1       -2 0.14722939E-01 0.27390408E+03</pdfrwt>
<totfact> 0.61101919E+03</totfact>
</mgrwt>
</event>
<event>
 9    1  0.8285222E-001  0.2758184E+03  0.7818608E-02  0.1097995E+00
         -2   -1    0    0    0  501 -0.00000000000E+00  0.00000000000E+00  0.32350776975E+02  0.32350776975E+02  0.00000000000E+00 0. -1.
          2   -1    0    0  501    0  0.00000000000E+00 -0.00000000000E+00 -0.58789767403E+03  0.58789767403E+03  0.00000000000E+00 0. -1.
         35    2    1    2    0    0  0.35527136788E-14  0.00000000000E+00 -0.55554689706E+03  0.62024845101E+03  0.27581839342E+03 0.  0.
         25    2    3    3    0    0  0.10933499030E+02  0.46304088853E+02 -0.35242636889E+03  0.37704999587E+03  0.12529462817E+03 0.  0.
         25    2    3    3    0    0 -0.10933499030E+02 -0.46304088853E+02 -0.20312052817E+03  0.24319845514E+03  0.12499571823E+03 0.  0.
          5    1    4    4  502    0  0.11847841544E+02  0.69161550445E+02 -0.34565197025E+03  0.35273370401E+03  0.47000000000E+01 0.  1.
         -5    1    4    4    0  502 -0.91434251370E+00 -0.22857461593E+02 -0.67743986434E+01  0.24316291857E+02  0.47000000000E+01 0.  1.
          5    1    5    5  503    0  0.55599237930E+01 -0.85591596035E+02 -0.10190916979E+03  0.13328316830E+03  0.47000000000E+01 0.  1.
         -5    1    5    5    0  503 -0.16493422823E+02  0.39287507182E+02 -0.10121135838E+03  0.10991528685E+03  0.47000000000E+01 0.  1.
<mgrwt>
<rscale>  0 0.27581839E+03</rscale>
<asrwt>0</asrwt>
<pdfrwt beam="1">  1        2 0.90445782E-01 0.27581839E+03</pdfrwt>
<pdfrwt beam="2">  1       -2 0.49770434E-02 0.27581839E+03</pdfrwt>
<totfact> 0.10141638E+04</totfact>
</mgrwt>
</event>
<event>
 9    1  0.8285222E-001  0.2786173E+03  0.7818608E-02  0.1096447E+00
         -1   -1    0    0    0  501 -0.00000000000E+00  0.00000000000E+00  0.75059766335E+02  0.75059766335E+02  0.00000000000E+00 0. -1.
          1   -1    0    0  501    0  0.00000000000E+00 -0.00000000000E+00 -0.25855254698E+03  0.25855254698E+03  0.00000000000E+00 0. -1.
         35    2    1    2    0    0  0.00000000000E+00  0.00000000000E+00 -0.18349278065E+03  0.33361231332E+03  0.27861725547E+03 0.  0.
         25    2    3    3    0    0  0.45491625598E+01  0.25152100942E+02 -0.25080498667E+02  0.12812957842E+03  0.12302371475E+03 0.  0.
         25    2    3    3    0    0 -0.45491625598E+01 -0.25152100942E+02 -0.15841228198E+03  0.20548273489E+03  0.12835645755E+03 0.  0.
          5    1    4    4  502    0 -0.51938384107E+02  0.19197218560E+02  0.16050667498E+02  0.57843261243E+02  0.47000000000E+01 0.  1.
         -5    1    4    4    0  502  0.56487546667E+02  0.59548823817E+01 -0.41131166165E+02  0.70286317180E+02  0.47000000000E+01 0.  1.
          5    1    5    5  503    0  0.57206034158E+02  0.35880057234E+01 -0.10121778988E+03  0.11641535602E+03  0.47000000000E+01 0.  1.
         -5    1    5    5    0  503 -0.61755196718E+02 -0.28740106665E+02 -0.57194492098E+02  0.89067378873E+02  0.47000000000E+01 0.  1.
<mgrwt>
<rscale>  0 0.27861726E+03</rscale>
<asrwt>0</asrwt>
<pdfrwt beam="1">  1        1 0.39777315E-01 0.27861726E+03</pdfrwt>
<pdfrwt beam="2">  1       -1 0.11547656E-01 0.27861726E+03</pdfrwt>
<totfact> 0.51186310E+03</totfact>
</mgrwt>
</event>
<event>
 9    1  0.8285222E-001  0.3318870E+03  0.7818608E-02  0.1070305E+00
          2   -1    0    0  501    0  0.00000000000E+00  0.00000000000E+00  0.64075868108E+03  0.64075868108E+03  0.00000000000E+00 0. -1.
         -2   -1    0    0    0  501 -0.00000000000E+00 -0.00000000000E+00 -0.42975999692E+02  0.42975999692E+02  0.00000000000E+00 0. -1.
         35    2    1    2    0    0  0.00000000000E+00  0.71054273576E-14  0.59778268139E+03  0.68373468078E+03  0.33188699812E+03 0.  0.
         25    2    3    3    0    0 -0.10282034974E+03  0.35564621300E+02  0.29473286616E+03  0.33818783415E+03  0.12516661761E+03 0.  0.
         25    2    3    3    0    0  0.10282034974E+03 -0.35564621300E+02  0.30304981523E+03  0.34554684663E+03  0.12540560631E+03 0.  0.
          5    1    4    4  502    0 -0.97053635734E+02  0.39202048118E+02  0.10520888606E+03  0.14848302425E+03  0.47000000000E+01 0.  1.
         -5    1    4    4    0  502 -0.57667140041E+01 -0.36374268183E+01  0.18952398010E+03  0.18970480989E+03  0.47000000000E+01 0.  1.
          5    1    5    5  503    0 -0.41652626750E+01 -0.52522067275E+02  0.63801566802E+02  0.82877300212E+02  0.47000000000E+01 0.  1.
         -5    1    5    5    0  503  0.10698561241E+03  0.16957445976E+02  0.23924824843E+03  0.26266954642E+03  0.47000000000E+01 0.  1.
<mgrwt>
<rscale>  0 0.33188700E+03</rscale>
<asrwt>0</asrwt>
<pdfrwt beam="1">  1        2 0.98578252E-01 0.33188700E+03</pdfrwt>
<pdfrwt beam="2">  1       -2 0.66116927E-02 0.33188700E+03</pdfrwt>
<totfact> 0.59615352E+03</totfact>
</mgrwt>
</event>
<event>
 9    1  0.8285222E-001  0.2757197E+03  0.7818608E-02  0.1098050E+00
         -2   -1    0    0    0  501 -0.00000000000E+00  0.00000000000E+00  0.23069192469E+02  0.23069192469E+02  0.00000000000E+00 0.  1.
          2   -1    0    0  501    0  0.00000000000E+00 -0.00000000000E+00 -0.82384052949E+03  0.82384052949E+03  0.00000000000E+00 0.  1.
         35    2    1    2    0    0  0.17763568394E-14  0.00000000000E+00 -0.80077133702E+03  0.84690972196E+03  0.27571968184E+03 0.  0.
         25    2    3    3    0    0 -0.14968349283E+02 -0.52437867394E+02 -0.45182211026E+03  0.47203283928E+03  0.12529166224E+03 0.  0.
         25    2    3    3    0    0  0.14968349283E+02  0.52437867394E+02 -0.34894922677E+03  0.37487688268E+03  0.12567152776E+03 0.  0.
          5    1    4    4  502    0 -0.39618080639E+02  0.29187017320E+02 -0.13023483039E+03  0.13930066526E+03  0.47000000000E+01 0. -1.
         -5    1    4    4    0  502  0.24649731356E+02 -0.81624884715E+02 -0.32158727986E+03  0.33273217402E+03  0.47000000000E+01 0. -1.
          5    1    5    5  503    0  0.58118525278E+01  0.55606159676E+02 -0.35703107203E+03  0.36141264369E+03  0.47000000000E+01 0. -1.
         -5    1    5    5    0  503  0.91564967553E+01 -0.31682922813E+01  0.80818452614E+01  0.13464238992E+02  0.47000000000E+01 0. -1.
<mgrwt>
<rscale>  0 0.27571968E+03</rscale>
<asrwt>0</asrwt>
<pdfrwt beam="1">  1        2 0.12674469E+00 0.27571968E+03</pdfrwt>
<pdfrwt beam="2">  1       -2 0.35491068E-02 0.27571968E+03</pdfrwt>
<totfact> 0.11206974E+04</totfact>
</mgrwt>
</event>
<event>
 9    1  0.8285222E-001  0.2748894E+03  0.7818608E-02  0.1098513E+00
         -2   -1    0    0    0  501 -0.00000000000E+00  0.00000000000E+00  0.18440015625E+02  0.18440015625E+02  0.00000000000E+00 0. -1.
          2   -1    0    0  501    0  0.00000000000E+00 -0.00000000000E+00 -0.10244595099E+04  0.10244595099E+04  0.00000000000E+00 0. -1.
         35    2    1    2    0    0  0.00000000000E+00  0.14210854715E-13 -0.10060194943E+04  0.10428995255E+04  0.27488942773E+03 0.  0.
         25    2    3    3    0    0 -0.34545828526E+02  0.34087064761E+02 -0.58676376891E+03  0.60246683979E+03  0.12774674280E+03 0.  0.
         25    2    3    3    0    0  0.34545828526E+02 -0.34087064761E+02 -0.41925572538E+03  0.44043268574E+03  0.12589775675E+03 0.  0.
          5    1    4    4  502    0  0.68859425464E+01  0.51118728963E+02 -0.91365372928E+02  0.10502505428E+03  0.47000000000E+01 0.  1.
         -5    1    4    4    0  502 -0.41431771073E+02 -0.17031664202E+02 -0.49539839598E+03  0.49744178552E+03  0.47000000000E+01 0.  1.
          5    1    5    5  503    0 -0.10597960981E+02 -0.57546760101E+02 -0.34704491675E+03  0.35197473008E+03  0.47000000000E+01 0. -1.
         -5    1    5    5    0  503  0.45143789507E+02  0.23459695340E+02 -0.72210808629E+02  0.88457955659E+02  0.47000000000E+01 0. -1.
<mgrwt>
<rscale>  0 0.27488943E+03</rscale>
<asrwt>0</asrwt>
<pdfrwt beam="1">  1        2 0.15760916E+00 0.27488943E+03</pdfrwt>
<pdfrwt beam="2">  1       -2 0.28369254E-02 0.27488943E+03</pdfrwt>
<totfact> 0.11650400E+04</totfact>
</mgrwt>
</event>
<event>
 9    1  0.8285222E-001  0.2801453E+03  0.7818608E-02  0.1095610E+00
         -3   -1    0    0    0  501 -0.00000000000E+00  0.00000000000E+00  0.32168409856E+02  0.32168409856E+02  0.00000000000E+00 0. -1.
          3   -1    0    0  501    0  0.00000000000E+00 -0.00000000000E+00 -0.60992583922E+03  0.60992583922E+03  0.00000000000E+00 0. -1.
         35    2    1    2    0    0  0.71054273576E-14 -0.35527136788E-14 -0.57775742936E+03  0.64209424908E+03  0.28014527929E+03 0.  0.
         25    2    3    3    0    0 -0.60728904256E+02  0.11454982266E+02 -0.21063401839E+03  0.24945377910E+03  0.11849591460E+03 0.  0.
         25    2    3    3    0    0  0.60728904256E+02 -0.11454982266E+02 -0.36712341098E+03  0.39264046997E+03  0.12477068303E+03 0.  0.
          5    1    4    4  502    0 -0.78679003908E+02  0.40935159441E+02 -0.18796956276E+03  0.20789593420E+03  0.47000000000E+01 0. -1.
         -5    1    4    4    0  502  0.17950099652E+02 -0.29480177175E+02 -0.22664455630E+02  0.41557844901E+02  0.47000000000E+01 0. -1.
          5    1    5    5  503    0  0.57627370157E+02 -0.15581464174E+02 -0.57760915237E+02  0.83199213614E+02  0.47000000000E+01 0.  1.
         -5    1    5    5    0  503  0.31015340986E+01  0.41264819082E+01 -0.30936249574E+03  0.30944125636E+03  0.47000000000E+01 0.  1.
<mgrwt>
<rscale>  0 0.28014528E+03</rscale>
<asrwt>0</asrwt>
<pdfrwt beam="1">  1        3 0.93834748E-01 0.28014528E+03</pdfrwt>
<pdfrwt beam="2">  1       -3 0.49489859E-02 0.28014528E+03</pdfrwt>
<totfact> 0.61735457E+02</totfact>
</mgrwt>
</event>
<event>
 9    1  0.8285222E-001  0.2726127E+03  0.7818608E-02  0.1099794E+00
          1   -1    0    0  501    0  0.00000000000E+00  0.00000000000E+00  0.31836433380E+02  0.31836433380E+02  0.00000000000E+00 0. -1.
         -1   -1    0    0    0  501 -0.00000000000E+00 -0.00000000000E+00 -0.58358988095E+03  0.58358988095E+03  0.00000000000E+00 0. -1.
         35    2    1    2    0    0  0.00000000000E+00  0.00000000000E+00 -0.55175344757E+03  0.61542631433E+03  0.27261269498E+03 0.  0.
         25    2    3    3    0    0  0.23464170339E+02  0.27201873967E+02 -0.37564800006E+03  0.39733319673E+03  0.12438544948E+03 0.  0.
         25    2    3    3    0    0 -0.23464170339E+02 -0.27201873967E+02 -0.17610544752E+03  0.21809311760E+03  0.12353529885E+03 0.  0.
          5    1    4    4  502    0 -0.49387300909E+02  0.17621928839E+01 -0.18656479221E+03  0.19305626773E+03  0.47000000000E+01 0. -1.
         -5    1    4    4    0  502  0.72851471248E+02  0.25439681083E+02 -0.18908320784E+03  0.20427692901E+03  0.47000000000E+01 0. -1.
          5    1    5    5  503    0 -0.67987259337E+02 -0.73522448533E+01 -0.56429998793E+02  0.88784895676E+02  0.47000000000E+01 0. -1.
         -5    1    5    5    0  503  0.44523088998E+02 -0.19849629113E+02 -0.11967544873E+03  0.12930822193E+03  0.47000000000E+01 0. -1.
<mgrwt>
<rscale>  0 0.27261269E+03</rscale>
<asrwt>0</asrwt>
<pdfrwt beam="1">  1        1 0.48979131E-02 0.27261269E+03</pdfrwt>
<pdfrwt beam="2">  1       -1 0.89783053E-01 0.27261269E+03</pdfrwt>
<totfact> 0.21841428E+03</totfact>
</mgrwt>
</event>
<event>
 9    1  0.8285222E-001  0.2733054E+03  0.7818608E-02  0.1099403E+00
          1   -1    0    0  501    0  0.00000000000E+00  0.00000000000E+00  0.21690733394E+03  0.21690733394E+03  0.00000000000E+00 0. -1.
         -1   -1    0    0    0  501 -0.00000000000E+00 -0.00000000000E+00 -0.86091850389E+02  0.86091850389E+02  0.00000000000E+00 0. -1.
         35    2    1    2    0    0 -0.71054273576E-14  0.00000000000E+00  0.13081548355E+03  0.30299918433E+03  0.27330535115E+03 0.  0.
         25    2    3    3    0    0  0.29108388311E+02  0.40494981999E+02  0.93769645013E+02  0.16400185770E+03  0.12496688028E+03 0.  0.
         25    2    3    3    0    0 -0.29108388311E+02 -0.40494981999E+02  0.37045838536E+02  0.13899732663E+03  0.12434114693E+03 0.  0.
          5    1    4    4  502    0  0.30140775293E+02  0.21150650670E+02  0.12307974214E+03  0.12855554941E+03  0.47000000000E+01 0. -1.
         -5    1    4    4    0  502 -0.10323869817E+01  0.19344331329E+02 -0.29310097130E+02  0.35446308287E+02  0.47000000000E+01 0. -1.
          5    1    5    5  503    0  0.32731971597E+02 -0.46260840992E+02 -0.13889940736E+02  0.58536038708E+02  0.47000000000E+01 0.  1.
         -5    1    5    5    0  503 -0.61840359909E+02  0.57658589930E+01  0.50935779271E+02  0.80461287919E+02  0.47000000000E+01 0.  1.
<mgrwt>
<rscale>  0 0.27330535E+03</rscale>
<asrwt>0</asrwt>
<pdfrwt beam="1">  1        1 0.33370359E-01 0.27330535E+03</pdfrwt>
<pdfrwt beam="2">  1       -1 0.13244900E-01 0.27330535E+03</pdfrwt>
<totfact> 0.51461489E+03</totfact>
</mgrwt>
</event>
<event>
 9    1  0.8285222E-001  0.2753287E+03  0.7818608E-02  0.1098268E+00
         -2   -1    0    0    0  501 -0.00000000000E+00  0.00000000000E+00  0.79747407446E+01  0.79747407446E+01  0.00000000000E+00 0. -1.
          2   -1    0    0  501    0  0.00000000000E+00 -0.00000000000E+00 -0.23764369673E+04  0.23764369673E+04  0.00000000000E+00 0. -1.
         35    2    1    2    0    0  0.00000000000E+00  0.00000000000E+00 -0.23684622266E+04  0.23844117081E+04  0.27532866694E+03 0.  0.
         25    2    3    3    0    0  0.53057595344E+02 -0.16859871563E+02 -0.10470411180E+04  0.10559259044E+04  0.12484009410E+03 0.  0.
         25    2    3    3    0    0 -0.53057595344E+02  0.16859871563E+02 -0.13214211086E+04  0.13284858037E+04  0.12498568187E+03 0.  0.
          5    1    4    4  502    0  0.89139023127E+02 -0.32464140884E+02 -0.64776813734E+03  0.65469484161E+03  0.47000000000E+01 0. -1.
         -5    1    4    4    0  502 -0.36081427783E+02  0.15604269321E+02 -0.39927298067E+03  0.40123106279E+03  0.47000000000E+01 0. -1.
          5    1    5    5  503    0 -0.59523261950E+02  0.63761612796E+02 -0.95546246660E+03  0.95944732897E+03  0.47000000000E+01 0. -1.
         -5    1    5    5    0  503  0.64656666064E+01 -0.46901741233E+02 -0.36595864199E+03  0.36903847471E+03  0.47000000000E+01 0. -1.
<mgrwt>
<rscale>  0 0.27532867E+03</rscale>
<asrwt>0</asrwt>
<pdfrwt beam="1">  1        2 0.36560590E+00 0.27532867E+03</pdfrwt>
<pdfrwt beam="2">  1       -2 0.12268825E-02 0.27532867E+03</pdfrwt>
<totfact> 0.74120671E+03</totfact>
</mgrwt>
</event>
<event>
 9    1  0.8285222E-001  0.2769706E+03  0.7818608E-02  0.1097355E+00
         -4   -1    0    0    0  501 -0.00000000000E+00  0.00000000000E+00  0.17719315162E+04  0.17719315162E+04  0.00000000000E+00 0.  1.
          4   -1    0    0  501    0  0.00000000000E+00 -0.00000000000E+00 -0.10823321107E+02  0.10823321107E+02  0.00000000000E+00 0.  1.
         35    2    1    2    0    0  0.00000000000E+00  0.00000000000E+00  0.17611081951E+04  0.17827548373E+04  0.27697063946E+03 0.  0.
         25    2    3    3    0    0  0.36015933682E+02  0.15296843512E+02  0.61609042890E+03  0.62990686234E+03  0.12523616786E+03 0.  0.
         25    2    3    3    0    0 -0.36015933682E+02 -0.15296843512E+02  0.11450177662E+04  0.11528479750E+04  0.12830287443E+03 0.  0.
          5    1    4    4  502    0  0.44708281109E+02  0.97043808693E+01  0.61681708020E+03  0.61852922795E+03  0.47000000000E+01 0.  1.
         -5    1    4    4    0  502 -0.86923474272E+01  0.55924626430E+01 -0.72665129607E+00  0.11377634390E+02  0.47000000000E+01 0.  1.
          5    1    5    5  503    0 -0.26736558854E+02  0.13974255864E+02  0.10835165316E+04  0.10839466259E+04  0.47000000000E+01 0.  1.
         -5    1    5    5    0  503 -0.92793748280E+01 -0.29271099376E+02  0.61501234594E+02  0.68901349134E+02  0.47000000000E+01 0.  1.
<mgrwt>
<rscale>  0 0.27697064E+03</rscale>
<asrwt>0</asrwt>
<pdfrwt beam="1">  1        4 0.16651277E-02 0.27697064E+03</pdfrwt>
<pdfrwt beam="2">  1       -4 0.27260462E+00 0.27697064E+03</pdfrwt>
<totfact> 0.13272808E+02</totfact>
</mgrwt>
</event>
<event>
 9    1  0.8285222E-001  0.2642640E+03  0.7818608E-02  0.1104608E+00
          4   -1    0    0  501    0  0.00000000000E+00  0.00000000000E+00  0.17861088117E+04  0.17861088117E+04  0.00000000000E+00 0.  1.
         -4   -1    0    0    0  501 -0.00000000000E+00 -0.00000000000E+00 -0.97748070611E+01  0.97748070611E+01  0.00000000000E+00 0.  1.
         35    2    1    2    0    0 -0.71054273576E-14 -0.17763568394E-14  0.17763340047E+04  0.17958836188E+04  0.26426402725E+03 0.  0.
         25    2    3    3    0    0 -0.42395186975E+02 -0.95124277379E+01  0.84434607750E+03  0.85457760540E+03  0.12447789725E+03 0.  0.
         25    2    3    3    0    0  0.42395186975E+02  0.95124277379E+01  0.93198792717E+03  0.94130601339E+03  0.12477049449E+03 0.  0.
          5    1    4    4  502    0  0.33653114741E+02 -0.69131653611E+01  0.90984303877E+02  0.97368154645E+02  0.47000000000E+01 0. -1.
         -5    1    4    4    0  502 -0.76048301715E+02 -0.25992623768E+01  0.75336177362E+03  0.75720945076E+03  0.47000000000E+01 0. -1.
          5    1    5    5  503    0  0.33096632612E+02 -0.10060388263E+02  0.90788321459E+03  0.90855413699E+03  0.47000000000E+01 0. -1.
         -5    1    5    5    0  503  0.92985543629E+01  0.19572816001E+02  0.24104712584E+02  0.32751876407E+02  0.47000000000E+01 0. -1.
<mgrwt>
<rscale>  0 0.26426403E+03</rscale>
<asrwt>0</asrwt>
<pdfrwt beam="1">  1        4 0.27478571E+00 0.26426403E+03</pdfrwt>
<pdfrwt beam="2">  1       -4 0.15038179E-02 0.26426403E+03</pdfrwt>
<totfact> 0.15023821E+02</totfact>
</mgrwt>
</event>
<event>
 9    1  0.8285222E-001  0.2839494E+03  0.7818608E-02  0.1093551E+00
         -1   -1    0    0    0  501 -0.00000000000E+00  0.00000000000E+00  0.54896944508E+02  0.54896944508E+02  0.00000000000E+00 0.  1.
          1   -1    0    0  501    0  0.00000000000E+00 -0.00000000000E+00 -0.36717560293E+03  0.36717560293E+03  0.00000000000E+00 0.  1.
         35    2    1    2    0    0  0.71054273576E-14 -0.71054273576E-14 -0.31227865842E+03  0.42207254744E+03  0.28394942295E+03 0.  0.
         25    2    3    3    0    0 -0.42346122274E+02 -0.23027632160E+02 -0.86600142641E+02  0.15995027155E+03  0.12554297571E+03 0.  0.
         25    2    3    3    0    0  0.42346122274E+02  0.23027632160E+02 -0.22567851578E+03  0.26212227588E+03  0.12431343095E+03 0.  0.
          5    1    4    4  502    0 -0.58791539696E+02 -0.65180019886E+02 -0.66468160410E+02  0.11020429429E+03  0.47000000000E+01 0.  1.
         -5    1    4    4    0  502  0.16445417422E+02  0.42152387726E+02 -0.20131982230E+02  0.49745977261E+02  0.47000000000E+01 0.  1.
          5    1    5    5  503    0 -0.20501816373E+02 -0.34727343570E+02 -0.36786465603E+02  0.54787287920E+02  0.47000000000E+01 0. -1.
         -5    1    5    5    0  503  0.62847938647E+02  0.57754975730E+02 -0.18889205018E+03  0.20733498797E+03  0.47000000000E+01 0. -1.
<mgrwt>
<rscale>  0 0.28394942E+03</rscale>
<asrwt>0</asrwt>
<pdfrwt beam="1">  1        1 0.56488552E-01 0.28394942E+03</pdfrwt>
<pdfrwt beam="2">  1       -1 0.84456841E-02 0.28394942E+03</pdfrwt>
<totfact> 0.53359906E+03</totfact>
</mgrwt>
</event>
<event>
 9    1  0.8285222E-001  0.2746828E+03  0.7818608E-02  0.1098629E+00
          1   -1    0    0  501    0  0.00000000000E+00  0.00000000000E+00  0.31556904088E+02  0.31556904088E+02  0.00000000000E+00 0.  1.
         -1   -1    0    0    0  501 -0.00000000000E+00 -0.00000000000E+00 -0.59773478168E+03  0.59773478168E+03  0.00000000000E+00 0.  1.
         35    2    1    2    0    0  0.35527136788E-14  0.00000000000E+00 -0.56617787760E+03  0.62929168577E+03  0.27468279288E+03 0.  0.
         25    2    3    3    0    0 -0.20046281862E+01 -0.27651985444E+02 -0.40415466421E+03  0.42280366725E+03  0.12105080591E+03 0.  0.
         25    2    3    3    0    0  0.20046281862E+01  0.27651985444E+02 -0.16202321339E+03  0.20648801852E+03  0.12496851316E+03 0.  0.
          5    1    4    4  502    0 -0.46924803253E+02 -0.48155337984E+02 -0.15924749257E+03  0.17292405161E+03  0.47000000000E+01 0. -1.
         -5    1    4    4    0  502  0.44920175067E+02  0.20503352540E+02 -0.24490717164E+03  0.24987961564E+03  0.47000000000E+01 0. -1.
          5    1    5    5  503    0  0.31103091931E+02 -0.21730189502E+02 -0.13963404274E+03  0.14477347601E+03  0.47000000000E+01 0.  1.
         -5    1    5    5    0  503 -0.29098463744E+02  0.49382174946E+02 -0.22389170646E+02  0.61714542507E+02  0.47000000000E+01 0.  1.
<mgrwt>
<rscale>  0 0.27468279E+03</rscale>
<asrwt>0</asrwt>
<pdfrwt beam="1">  1        1 0.48549089E-02 0.27468279E+03</pdfrwt>
<pdfrwt beam="2">  1       -1 0.91959187E-01 0.27468279E+03</pdfrwt>
<totfact> 0.21001134E+03</totfact>
</mgrwt>
</event>
<event>
 9    1  0.8285222E-001  0.2780813E+03  0.7818608E-02  0.1096742E+00
          2   -1    0    0  501    0  0.00000000000E+00  0.00000000000E+00  0.49802890021E+04  0.49802890021E+04  0.00000000000E+00 0.  1.
         -2   -1    0    0    0  501 -0.00000000000E+00 -0.00000000000E+00 -0.38817623912E+01  0.38817623912E+01  0.00000000000E+00 0.  1.
         35    2    1    2    0    0 -0.14210854715E-13  0.71054273576E-14  0.49764072397E+04  0.49841707645E+04  0.27808127262E+03 0.  0.
         25    2    3    3    0    0 -0.48049927634E+02  0.32864712813E+02  0.27459890466E+04  0.27494438886E+04  0.12488782076E+03 0.  0.
         25    2    3    3    0    0  0.48049927634E+02 -0.32864712813E+02  0.22304181931E+04  0.22347268758E+04  0.12589681751E+03 0.  0.
          5    1    4    4  502    0 -0.55962436504E+02 -0.32328568516E+02  0.18002339720E+04  0.18013998375E+04  0.47000000000E+01 0.  1.
         -5    1    4    4    0  502  0.79125088707E+01  0.65193281329E+02  0.94575507459E+03  0.94804405111E+03  0.47000000000E+01 0.  1.
          5    1    5    5  503    0 -0.17306208270E+02  0.23410853970E+02  0.17292952993E+03  0.17542601075E+03  0.47000000000E+01 0. -1.
         -5    1    5    5    0  503  0.65356135903E+02 -0.56275566782E+02  0.20574886631E+04  0.20593008651E+04  0.47000000000E+01 0. -1.
<mgrwt>
<rscale>  0 0.27808127E+03</rscale>
<asrwt>0</asrwt>
<pdfrwt beam="1">  1        2 0.76619319E+00 0.27808127E+03</pdfrwt>
<pdfrwt beam="2">  1       -2 0.59719820E-03 0.27808127E+03</pdfrwt>
<totfact> 0.23998087E+02</totfact>
</mgrwt>
</event>
<event>
 9    1  0.8285222E-001  0.2759683E+03  0.7818608E-02  0.1097912E+00
          2   -1    0    0  501    0  0.00000000000E+00  0.00000000000E+00  0.17370864950E+04  0.17370864950E+04  0.00000000000E+00 0. -1.
         -2   -1    0    0    0  501 -0.00000000000E+00 -0.00000000000E+00 -0.10960669469E+02  0.10960669469E+02  0.00000000000E+00 0. -1.
         35    2    1    2    0    0  0.35527136788E-14  0.35527136788E-14  0.17261258255E+04  0.17480471644E+04  0.27596833812E+03 0.  0.
         25    2    3    3    0    0 -0.23885308804E+02  0.18533219025E+02  0.55279182356E+03  0.56774575987E+03  0.12586683227E+03 0.  0.
         25    2    3    3    0    0  0.23885308804E+02 -0.18533219025E+02  0.11733340019E+04  0.11803014046E+04  0.12443768459E+03 0.  0.
          5    1    4    4  502    0  0.27680196096E+02  0.57901203767E+02  0.26687986129E+03  0.27452812791E+03  0.47000000000E+01 0. -1.
         -5    1    4    4    0  502 -0.51565504900E+02 -0.39367984742E+02  0.28591196227E+03  0.29321763196E+03  0.47000000000E+01 0. -1.
          5    1    5    5  503    0  0.47481802081E+02  0.11015615929E+02  0.18934169375E+03  0.19557155293E+03  0.47000000000E+01 0.  1.
         -5    1    5    5    0  503 -0.23596493277E+02 -0.29548834953E+02  0.98399230819E+03  0.98472985164E+03  0.47000000000E+01 0.  1.
<mgrwt>
<rscale>  0 0.27596834E+03</rscale>
<asrwt>0</asrwt>
<pdfrwt beam="1">  1        2 0.26724386E+00 0.27596834E+03</pdfrwt>
<pdfrwt beam="2">  1       -2 0.16862582E-02 0.27596834E+03</pdfrwt>
<totfact> 0.10149803E+04</totfact>
</mgrwt>
</event>
<event>
 9    1  0.8285222E-001  0.2751240E+03  0.7818608E-02  0.1098382E+00
         -1   -1    0    0    0  501 -0.00000000000E+00  0.00000000000E+00  0.14749916032E+02  0.14749916032E+02  0.00000000000E+00 0.  1.
          1   -1    0    0  501    0  0.00000000000E+00 -0.00000000000E+00 -0.12829432915E+04  0.12829432915E+04  0.00000000000E+00 0.  1.
         35    2    1    2    0    0  0.00000000000E+00  0.35527136788E-14 -0.12681933755E+04  0.12976932076E+04  0.27512401439E+03 0.  0.
         25    2    3    3    0    0 -0.19723329785E+02  0.50108826665E+01 -0.44337862049E+03  0.46169674700E+03  0.12714230767E+03 0.  0.
         25    2    3    3    0    0  0.19723329785E+02 -0.50108826665E+01 -0.82481475499E+03  0.83599646055E+03  0.13474636660E+03 0.  0.
          5    1    4    4  502    0  0.25868012396E+02  0.35951806330E+02 -0.62056578305E+02  0.76385832159E+02  0.47000000000E+01 0. -1.
         -5    1    4    4    0  502 -0.45591342181E+02 -0.30940923663E+02 -0.38132204219E+03  0.38531091484E+03  0.47000000000E+01 0. -1.
          5    1    5    5  503    0 -0.10291033537E+02  0.38744488039E+02 -0.68792032583E+03  0.68910340691E+03  0.47000000000E+01 0. -1.
         -5    1    5    5    0  503  0.30014363322E+02 -0.43755370705E+02 -0.13689442917E+03  0.14689305364E+03  0.47000000000E+01 0. -1.
<mgrwt>
<rscale>  0 0.27512401E+03</rscale>
<asrwt>0</asrwt>
<pdfrwt beam="1">  1        1 0.19737593E+00 0.27512401E+03</pdfrwt>
<pdfrwt beam="2">  1       -1 0.22692174E-02 0.27512401E+03</pdfrwt>
<totfact> 0.57107027E+03</totfact>
</mgrwt>
</event>
<event>
 9    1  0.8285222E-001  0.2778162E+03  0.7818608E-02  0.1096888E+00
          2   -1    0    0  501    0  0.00000000000E+00  0.00000000000E+00  0.44093340980E+04  0.44093340980E+04  0.00000000000E+00 0.  1.
         -2   -1    0    0    0  501 -0.00000000000E+00 -0.00000000000E+00 -0.43760474098E+01  0.43760474098E+01  0.00000000000E+00 0.  1.
         35    2    1    2    0    0 -0.26645352591E-14  0.00000000000E+00  0.44049580505E+04  0.44137101454E+04  0.27781616266E+03 0.  0.
         25    2    3    3    0    0 -0.14348637141E+01  0.38695895938E+02  0.14596957462E+04  0.14655331534E+04  0.12480513159E+03 0.  0.
         25    2    3    3    0    0  0.14348637141E+01 -0.38695895938E+02  0.29452623043E+04  0.29481769920E+04  0.12521223465E+03 0.  0.
          5    1    4    4  502    0 -0.31819193450E+02 -0.92869904887E+01  0.11590816176E+04  0.11595650027E+04  0.47000000000E+01 0. -1.
         -5    1    4    4    0  502  0.30384329736E+02  0.47982886426E+02  0.30061412860E+03  0.30596815063E+03  0.47000000000E+01 0. -1.
          5    1    5    5  503    0 -0.61155099976E+01 -0.77682398961E+01  0.20517659196E+02  0.23255308050E+02  0.47000000000E+01 0.  1.
         -5    1    5    5    0  503  0.75503737117E+01 -0.30927656042E+02  0.29247446451E+04  0.29249216839E+04  0.47000000000E+01 0.  1.
<mgrwt>
<rscale>  0 0.27781616E+03</rscale>
<asrwt>0</asrwt>
<pdfrwt beam="1">  1        2 0.67835554E+00 0.27781616E+03</pdfrwt>
<pdfrwt beam="2">  1       -2 0.67324159E-03 0.27781616E+03</pdfrwt>
<totfact> 0.77613765E+02</totfact>
</mgrwt>
</event>
<event>
 9    1  0.8285222E-001  0.2751233E+03  0.7818608E-02  0.1098383E+00
          1   -1    0    0  501    0  0.00000000000E+00  0.00000000000E+00  0.44342414943E+03  0.44342414943E+03  0.00000000000E+00 0.  1.
         -1   -1    0    0    0  501 -0.00000000000E+00 -0.00000000000E+00 -0.42675195133E+02  0.42675195133E+02  0.00000000000E+00 0.  1.
         35    2    1    2    0    0  0.71054273576E-14  0.71054273576E-14  0.40074895430E+03  0.48609934456E+03  0.27512333310E+03 0.  0.
         25    2    3    3    0    0  0.50493810276E+02  0.16684378602E+02  0.24299187056E+03  0.27830458530E+03  0.12482147121E+03 0.  0.
         25    2    3    3    0    0 -0.50493810276E+02 -0.16684378602E+02  0.15775708374E+03  0.20779475927E+03  0.12435180394E+03 0.  0.
          5    1    4    4  502    0 -0.70849325842E+01 -0.44929955036E+02  0.12576220173E+03  0.13381748209E+03  0.47000000000E+01 0.  1.
         -5    1    4    4    0  502  0.57578742860E+02  0.61614333638E+02  0.11722966883E+03  0.14448710321E+03  0.47000000000E+01 0.  1.
          5    1    5    5  503    0  0.18828499434E+02 -0.51121236496E+02  0.87350614860E+02  0.10305393310E+03  0.47000000000E+01 0.  1.
         -5    1    5    5    0  503 -0.69322309710E+02  0.34436857894E+02  0.70406468880E+02  0.10474082616E+03  0.47000000000E+01 0.  1.
<mgrwt>
<rscale>  0 0.27512333E+03</rscale>
<asrwt>0</asrwt>
<pdfrwt beam="1">  1        1 0.68219097E-01 0.27512333E+03</pdfrwt>
<pdfrwt beam="2">  1       -1 0.65654149E-02 0.27512333E+03</pdfrwt>
<totfact> 0.61381736E+03</totfact>
</mgrwt>
</event>
<event>
 9    1  0.8285222E-001  0.2619162E+03  0.7818608E-02  0.1105997E+00
         -2   -1    0    0    0  501 -0.00000000000E+00  0.00000000000E+00  0.67738967320E+02  0.67738967320E+02  0.00000000000E+00 0.  1.
          2   -1    0    0  501    0  0.00000000000E+00 -0.00000000000E+00 -0.25317803008E+03  0.25317803008E+03  0.00000000000E+00 0.  1.
         35    2    1    2    0    0 -0.71054273576E-14  0.00000000000E+00 -0.18543906276E+03  0.32091699740E+03  0.26191615686E+03 0.  0.
         25    2    3    3    0    0 -0.11104777369E+02  0.31238044981E+02 -0.67408810960E+02  0.14599698072E+03  0.12518801480E+03 0.  0.
         25    2    3    3    0    0  0.11104777369E+02 -0.31238044981E+02 -0.11803025180E+03  0.17492001669E+03  0.12476674381E+03 0.  0.
          5    1    4    4  502    0 -0.46244053423E+02  0.61239915296E+02 -0.19595434106E+02  0.79340473532E+02  0.47000000000E+01 0.  1.
         -5    1    4    4    0  502  0.35139276054E+02 -0.30001870315E+02 -0.47813376854E+02  0.66656507185E+02  0.47000000000E+01 0.  1.
          5    1    5    5  503    0  0.49425836518E+02 -0.61414721688E+02 -0.61411401449E+02  0.10004064966E+03  0.47000000000E+01 0. -1.
         -5    1    5    5    0  503 -0.38321059149E+02  0.30176676707E+02 -0.56618850354E+02  0.74879367030E+02  0.47000000000E+01 0. -1.
<mgrwt>
<rscale>  0 0.26191616E+03</rscale>
<asrwt>0</asrwt>
<pdfrwt beam="1">  1        2 0.38950466E-01 0.26191616E+03</pdfrwt>
<pdfrwt beam="2">  1       -2 0.10421380E-01 0.26191616E+03</pdfrwt>
<totfact> 0.80813038E+03</totfact>
</mgrwt>
</event>
<event>
 9    1  0.8285222E-001  0.2926633E+03  0.7818608E-02  0.1088967E+00
          1   -1    0    0  501    0  0.00000000000E+00  0.00000000000E+00  0.66067636872E+03  0.66067636872E+03  0.00000000000E+00 0. -1.
         -1   -1    0    0    0  501 -0.00000000000E+00 -0.00000000000E+00 -0.32410651664E+02  0.32410651664E+02  0.00000000000E+00 0. -1.
         35    2    1    2    0    0  0.71054273576E-14  0.71054273576E-14  0.62826571705E+03  0.69308702038E+03  0.29266329902E+03 0.  0.
         25    2    3    3    0    0 -0.59799048528E+02  0.32536458650E+02  0.39562461413E+03  0.42050891176E+03  0.12519729318E+03 0.  0.
         25    2    3    3    0    0  0.59799048528E+02 -0.32536458650E+02  0.23264110293E+03  0.27257810862E+03  0.12466914287E+03 0.  0.
          5    1    4    4  502    0  0.31539253928E+02 -0.12925947425E+02  0.54770732432E+02  0.64681742295E+02  0.47000000000E+01 0.  1.
         -5    1    4    4    0  502 -0.91338302456E+02  0.45462406075E+02  0.34085388170E+03  0.35582716946E+03  0.47000000000E+01 0.  1.
          5    1    5    5  503    0 -0.11161800751E+02  0.18620054731E+02 -0.18185993832E+01  0.22286532658E+02  0.47000000000E+01 0. -1.
         -5    1    5    5    0  503  0.70960849279E+02 -0.51156513381E+02  0.23445970231E+03  0.25029157596E+03  0.47000000000E+01 0. -1.
<mgrwt>
<rscale>  0 0.29266330E+03</rscale>
<asrwt>0</asrwt>
<pdfrwt beam="1">  1        1 0.10164251E+00 0.29266330E+03</pdfrwt>
<pdfrwt beam="2">  1       -1 0.49862546E-02 0.29266330E+03</pdfrwt>
<totfact> 0.54153483E+03</totfact>
</mgrwt>
</event>
<event>
 9    1  0.8285222E-001  0.2745618E+03  0.7818608E-02  0.1098697E+00
          1   -1    0    0  501    0  0.00000000000E+00  0.00000000000E+00  0.98118593849E+02  0.98118593849E+02  0.00000000000E+00 0.  1.
         -1   -1    0    0    0  501 -0.00000000000E+00 -0.00000000000E+00 -0.19207412073E+03  0.19207412073E+03  0.00000000000E+00 0.  1.
         35    2    1    2    0    0 -0.35527136788E-14 -0.35527136788E-14 -0.93955526880E+02  0.29019271458E+03  0.27456177914E+03 0.  0.
         25    2    3    3    0    0  0.21977827145E+02 -0.82472877365E+01  0.78748068790E+01  0.12739026743E+03  0.12496089393E+03 0.  0.
         25    2    3    3    0    0 -0.21977827145E+02  0.82472877365E+01 -0.10183033376E+03  0.16280244715E+03  0.12483660234E+03 0.  0.
          5    1    4    4  502    0  0.78372386866E+01  0.22976549619E+02 -0.52372101035E+02  0.57916069527E+02  0.47000000000E+01 0.  1.
         -5    1    4    4    0  502  0.14140588459E+02 -0.31223837356E+02  0.60246907914E+02  0.69474197903E+02  0.47000000000E+01 0.  1.
          5    1    5    5  503    0 -0.10468742170E+02 -0.12605644081E+01 -0.13003498394E+03  0.13054643095E+03  0.47000000000E+01 0.  1.
         -5    1    5    5    0  503 -0.11509084976E+02  0.95078521446E+01  0.28204650179E+02  0.32256016200E+02  0.47000000000E+01 0.  1.
<mgrwt>
<rscale>  0 0.27456178E+03</rscale>
<asrwt>0</asrwt>
<pdfrwt beam="1">  1        1 0.15095168E-01 0.27456178E+03</pdfrwt>
<pdfrwt beam="2">  1       -1 0.29549865E-01 0.27456178E+03</pdfrwt>
<totfact> 0.38532639E+03</totfact>
</mgrwt>
</event>
<event>
 9    1  0.8285222E-001  0.2744124E+03  0.7818608E-02  0.1098781E+00
          2   -1    0    0  501    0  0.00000000000E+00  0.00000000000E+00  0.38489768801E+03  0.38489768801E+03  0.00000000000E+00 0. -1.
         -2   -1    0    0    0  501 -0.00000000000E+00 -0.00000000000E+00 -0.48910496324E+02  0.48910496324E+02  0.00000000000E+00 0. -1.
         35    2    1    2    0    0  0.35527136788E-14 -0.14210854715E-13  0.33598719169E+03  0.43380818433E+03  0.27441236819E+03 0.  0.
         25    2    3    3    0    0  0.14062678835E+02  0.32621681202E+02  0.18704933366E+03  0.23601816812E+03  0.13948186061E+03 0.  0.
         25    2    3    3    0    0 -0.14062678835E+02 -0.32621681202E+02  0.14893785803E+03  0.19779001622E+03  0.12520571848E+03 0.  0.
          5    1    4    4  502    0  0.56318959745E+02 -0.33193302699E+02  0.87942014138E+02  0.10967911570E+03  0.47000000000E+01 0. -1.
         -5    1    4    4    0  502 -0.42256280910E+02  0.65814983900E+02  0.99107319519E+02  0.12633905241E+03  0.47000000000E+01 0. -1.
          5    1    5    5  503    0  0.30086383676E+02  0.54791410750E+00 -0.78867523253E+01  0.31460793932E+02  0.47000000000E+01 0.  1.
         -5    1    5    5    0  503 -0.44149062511E+02 -0.33169595309E+02  0.15682461035E+03  0.16632922229E+03  0.47000000000E+01 0.  1.
<mgrwt>
<rscale>  0 0.27441237E+03</rscale>
<asrwt>0</asrwt>
<pdfrwt beam="1">  1        2 0.59215027E-01 0.27441237E+03</pdfrwt>
<pdfrwt beam="2">  1       -2 0.75246920E-02 0.27441237E+03</pdfrwt>
<totfact> 0.86087628E+03</totfact>
</mgrwt>
</event>
<event>
 9    1  0.8285222E-001  0.2652285E+03  0.7818608E-02  0.1104042E+00
          2   -1    0    0  501    0  0.00000000000E+00  0.00000000000E+00  0.10137415118E+04  0.10137415118E+04  0.00000000000E+00 0. -1.
         -2   -1    0    0    0  501 -0.00000000000E+00 -0.00000000000E+00 -0.17348155300E+02  0.17348155300E+02  0.00000000000E+00 0. -1.
         35    2    1    2    0    0 -0.35527136788E-14  0.00000000000E+00  0.99639335648E+03  0.10310896671E+04  0.26522854432E+03 0.  0.
         25    2    3    3    0    0  0.19868727396E+02 -0.40079195088E+02  0.46168442699E+03  0.48065505135E+03  0.12599865102E+03 0.  0.
         25    2    3    3    0    0 -0.19868727396E+02  0.40079195088E+02  0.53470892949E+03  0.55043461573E+03  0.12273352722E+03 0.  0.
          5    1    4    4  502    0  0.73473312894E+02 -0.20995874846E+02  0.25784623485E+03  0.26897197864E+03  0.47000000000E+01 0.  1.
         -5    1    4    4    0  502 -0.53604585498E+02 -0.19083320242E+02  0.20383819214E+03  0.21168307271E+03  0.47000000000E+01 0.  1.
          5    1    5    5  503    0  0.20491291759E+02  0.61504436258E+02  0.15671191589E+03  0.16965672194E+03  0.47000000000E+01 0.  1.
         -5    1    5    5    0  503 -0.40360019154E+02 -0.21425241170E+02  0.37799701360E+03  0.38077789379E+03  0.47000000000E+01 0.  1.
<mgrwt>
<rscale>  0 0.26522854E+03</rscale>
<asrwt>0</asrwt>
<pdfrwt beam="1">  1        2 0.15596019E+00 0.26522854E+03</pdfrwt>
<pdfrwt beam="2">  1       -2 0.26689478E-02 0.26522854E+03</pdfrwt>
<totfact> 0.12931752E+04</totfact>
</mgrwt>
</event>
<event>
 9    1  0.8285222E-001  0.2717274E+03  0.7818608E-02  0.1100295E+00
          2   -1    0    0  501    0  0.00000000000E+00  0.00000000000E+00  0.23934922465E+04  0.23934922465E+04  0.00000000000E+00 0. -1.
         -2   -1    0    0    0  501 -0.00000000000E+00 -0.00000000000E+00 -0.77121366635E+01  0.77121366635E+01  0.00000000000E+00 0. -1.
         35    2    1    2    0    0  0.00000000000E+00  0.17763568394E-14  0.23857801098E+04  0.24012043831E+04  0.27172735827E+03 0.  0.
         25    2    3    3    0    0 -0.25573939749E+02 -0.51497086045E+01  0.76651606748E+03  0.77689708707E+03  0.12386143991E+03 0.  0.
         25    2    3    3    0    0  0.25573939749E+02  0.51497086045E+01  0.16192640423E+04  0.16243072961E+04  0.12521025273E+03 0.  0.
          5    1    4    4  502    0 -0.67922959592E+01 -0.13662724153E+02  0.74971826919E+03  0.74988824399E+03  0.47000000000E+01 0. -1.
         -5    1    4    4    0  502 -0.18781643790E+02  0.85130155487E+01  0.16797798297E+02  0.27008843085E+02  0.47000000000E+01 0. -1.
          5    1    5    5  503    0  0.13454329209E+02 -0.38105009856E+02  0.18894067396E+03  0.19327099893E+03  0.47000000000E+01 0.  1.
         -5    1    5    5    0  503  0.12119610540E+02  0.43254718460E+02  0.14303233684E+04  0.14310362971E+04  0.47000000000E+01 0.  1.
<mgrwt>
<rscale>  0 0.27172736E+03</rscale>
<asrwt>0</asrwt>
<pdfrwt beam="1">  1        2 0.36822898E+00 0.27172736E+03</pdfrwt>
<pdfrwt beam="2">  1       -2 0.11864845E-02 0.27172736E+03</pdfrwt>
<totfact> 0.76192102E+03</totfact>
</mgrwt>
</event>
<event>
 9    1  0.8285222E-001  0.2774116E+03  0.7818608E-02  0.1097111E+00
         -2   -1    0    0    0  501 -0.00000000000E+00  0.00000000000E+00  0.52326501660E+03  0.52326501660E+03  0.00000000000E+00 0.  1.
          2   -1    0    0  501    0  0.00000000000E+00 -0.00000000000E+00 -0.36767796654E+02  0.36767796654E+02  0.00000000000E+00 0.  1.
         35    2    1    2    0    0  0.00000000000E+00  0.35527136788E-14  0.48649721995E+03  0.56003281326E+03  0.27741161999E+03 0.  0.
         25    2    3    3    0    0  0.25864439023E+02 -0.10851263415E+02  0.13580669426E+03  0.18656175939E+03  0.12480029141E+03 0.  0.
         25    2    3    3    0    0 -0.25864439023E+02  0.10851263415E+02  0.35069052569E+03  0.37347105386E+03  0.12533979474E+03 0.  0.
          5    1    4    4  502    0  0.28833431636E+02 -0.34896211008E+02  0.15091319791E+03  0.15762612609E+03  0.47000000000E+01 0. -1.
         -5    1    4    4    0  502 -0.29689926131E+01  0.24044947593E+02 -0.15106503651E+02  0.28935633299E+02  0.47000000000E+01 0. -1.
          5    1    5    5  503    0  0.29849740488E+02  0.50311087242E+02  0.18877688841E+03  0.19768919067E+03  0.47000000000E+01 0.  1.
         -5    1    5    5    0  503 -0.55714179511E+02 -0.39459823827E+02  0.16191363727E+03  0.17578186320E+03  0.47000000000E+01 0.  1.
<mgrwt>
<rscale>  0 0.27741162E+03</rscale>
<asrwt>0</asrwt>
<pdfrwt beam="1">  1        2 0.56565845E-02 0.27741162E+03</pdfrwt>
<pdfrwt beam="2">  1       -2 0.80502305E-01 0.27741162E+03</pdfrwt>
<totfact> 0.18727555E+03</totfact>
</mgrwt>
</event>
<event>
 9    1  0.8285222E-001  0.2868938E+03  0.7818608E-02  0.1091982E+00
         -2   -1    0    0    0  501 -0.00000000000E+00  0.00000000000E+00  0.12153458664E+03  0.12153458664E+03  0.00000000000E+00 0. -1.
          2   -1    0    0  501    0  0.00000000000E+00 -0.00000000000E+00 -0.16930991485E+03  0.16930991485E+03  0.00000000000E+00 0. -1.
         35    2    1    2    0    0 -0.71054273576E-14  0.00000000000E+00 -0.47775328206E+02  0.29084450149E+03  0.28689378184E+03 0.  0.
         25    2    3    3    0    0  0.40386618594E+02 -0.26097950961E+02 -0.73904580286E+02  0.15349077195E+03  0.12563975518E+03 0.  0.
         25    2    3    3    0    0 -0.40386618594E+02  0.26097950961E+02  0.26129252080E+02  0.13735372953E+03  0.12598066200E+03 0.  0.
          5    1    4    4  502    0 -0.25586438161E+02 -0.55262805956E+02 -0.43932647080E+02  0.75238361355E+02  0.47000000000E+01 0.  1.
         -5    1    4    4    0  502  0.65973056754E+02  0.29164854995E+02 -0.29971933206E+02  0.78252410599E+02  0.47000000000E+01 0.  1.
          5    1    5    5  503    0 -0.13270049238E+02 -0.17235669066E+01  0.74100225729E+02  0.75445333473E+02  0.47000000000E+01 0. -1.
         -5    1    5    5    0  503 -0.27116569356E+02  0.27821517868E+02 -0.47970973649E+02  0.61908396062E+02  0.47000000000E+01 0. -1.
<mgrwt>
<rscale>  0 0.28689378E+03</rscale>
<asrwt>0</asrwt>
<pdfrwt beam="1">  1        2 0.26047679E-01 0.28689378E+03</pdfrwt>
<pdfrwt beam="2">  1       -2 0.18697629E-01 0.28689378E+03</pdfrwt>
<totfact> 0.48241914E+03</totfact>
</mgrwt>
</event>
<event>
 9    1  0.8285222E-001  0.2974208E+03  0.7818608E-02  0.1086537E+00
         -2   -1    0    0    0  501 -0.00000000000E+00  0.00000000000E+00  0.52408609138E+02  0.52408609138E+02  0.00000000000E+00 0. -1.
          2   -1    0    0  501    0  0.00000000000E+00 -0.00000000000E+00 -0.42196864036E+03  0.42196864036E+03  0.00000000000E+00 0. -1.
         35    2    1    2    0    0 -0.35527136788E-14  0.35527136788E-14 -0.36956003122E+03  0.47437724950E+03  0.29742084353E+03 0.  0.
         25    2    3    3    0    0  0.11335386045E+02  0.29457967501E+02 -0.60590659272E+02  0.14009427566E+03  0.12230664436E+03 0.  0.
         25    2    3    3    0    0 -0.11335386045E+02 -0.29457967501E+02 -0.30896937195E+03  0.33428297384E+03  0.12363968202E+03 0.  0.
          5    1    4    4  502    0 -0.93265652176E+01  0.43983526946E+02  0.24354358155E+02  0.51349393594E+02  0.47000000000E+01 0.  1.
         -5    1    4    4    0  502  0.20661951262E+02 -0.14525559445E+02 -0.84945017426E+02  0.88744882065E+02  0.47000000000E+01 0.  1.
          5    1    5    5  503    0  0.74131231279E+01 -0.67489419051E+00 -0.29769500827E+03  0.29782514640E+03  0.47000000000E+01 0. -1.
         -5    1    5    5    0  503 -0.18748509173E+02 -0.28783073310E+02 -0.11274363677E+02  0.36457827441E+02  0.47000000000E+01 0. -1.
<mgrwt>
<rscale>  0 0.29742084E+03</rscale>
<asrwt>0</asrwt>
<pdfrwt beam="1">  1        2 0.64918251E-01 0.29742084E+03</pdfrwt>
<pdfrwt beam="2">  1       -2 0.80628631E-02 0.29742084E+03</pdfrwt>
<totfact> 0.70115274E+03</totfact>
</mgrwt>
</event>
<event>
 9    1  0.8285222E-001  0.2792312E+03  0.7818608E-02  0.1096110E+00
         -3   -1    0    0    0  501 -0.00000000000E+00  0.00000000000E+00  0.29780466368E+03  0.29780466368E+03  0.00000000000E+00 0. -1.
          3   -1    0    0  501    0  0.00000000000E+00 -0.00000000000E+00 -0.65454030975E+02  0.65454030975E+02  0.00000000000E+00 0. -1.
         35    2    1    2    0    0  0.00000000000E+00 -0.35527136788E-14  0.23235063271E+03  0.36325869466E+03  0.27923119941E+03 0.  0.
         25    2    3    3    0    0  0.40963547643E+02 -0.22132627702E+02  0.17171754700E+03  0.21674620518E+03  0.12379069460E+03 0.  0.
         25    2    3    3    0    0 -0.40963547643E+02  0.22132627702E+02  0.60633085705E+02  0.14651248947E+03  0.12498669147E+03 0.  0.
          5    1    4    4  502    0  0.68510698536E+02 -0.27912648699E+02  0.44699348984E+02  0.86561848241E+02  0.47000000000E+01 0.  1.
         -5    1    4    4    0  502 -0.27547150892E+02  0.57800209972E+01  0.12701819802E+03  0.13018435694E+03  0.47000000000E+01 0.  1.
          5    1    5    5  503    0  0.15771538195E+02  0.35153215368E+02  0.76683715238E+02  0.85947496476E+02  0.47000000000E+01 0. -1.
         -5    1    5    5    0  503 -0.56735085838E+02 -0.13020587666E+02 -0.16050629534E+02  0.60564992996E+02  0.47000000000E+01 0. -1.
<mgrwt>
<rscale>  0 0.27923120E+03</rscale>
<asrwt>0</asrwt>
<pdfrwt beam="1">  1        3 0.10069851E-01 0.27923120E+03</pdfrwt>
<pdfrwt beam="2">  1       -3 0.45816101E-01 0.27923120E+03</pdfrwt>
<totfact> 0.88339321E+02</totfact>
</mgrwt>
</event>
<event>
 9    1  0.8285222E-001  0.2739282E+03  0.7818608E-02  0.1099052E+00
          1   -1    0    0  501    0  0.00000000000E+00  0.00000000000E+00  0.76011313391E+02  0.76011313391E+02  0.00000000000E+00 0.  1.
         -1   -1    0    0    0  501 -0.00000000000E+00 -0.00000000000E+00 -0.24679435944E+03  0.24679435944E+03  0.00000000000E+00 0.  1.
         35    2    1    2    0    0  0.35527136788E-14  0.00000000000E+00 -0.17078304605E+03  0.32280567284E+03  0.27392819058E+03 0.  0.
         25    2    3    3    0    0  0.28251908234E+01 -0.22371862719E+02 -0.25693467917E+02  0.12933111817E+03  0.12473131880E+03 0.  0.
         25    2    3    3    0    0 -0.28251908234E+01  0.22371862719E+02 -0.14508957814E+03  0.19347455466E+03  0.12598783939E+03 0.  0.
          5    1    4    4  502    0 -0.22162726368E+02  0.42787548390E+02  0.11994629604E+02  0.49879072532E+02  0.47000000000E+01 0. -1.
         -5    1    4    4    0  502  0.24987917191E+02 -0.65159411110E+02 -0.37688097521E+02  0.79452045640E+02  0.47000000000E+01 0. -1.
          5    1    5    5  503    0  0.31149169299E+02  0.10100870540E+02  0.96858103611E+01  0.34470324281E+02  0.47000000000E+01 0. -1.
         -5    1    5    5    0  503 -0.33974360123E+02  0.12270992179E+02 -0.15477538850E+03  0.15900423038E+03  0.47000000000E+01 0. -1.
<mgrwt>
<rscale>  0 0.27392819E+03</rscale>
<asrwt>0</asrwt>
<pdfrwt beam="1">  1        1 0.11694048E-01 0.27392819E+03</pdfrwt>
<pdfrwt beam="2">  1       -1 0.37968364E-01 0.27392819E+03</pdfrwt>
<totfact> 0.35019624E+03</totfact>
</mgrwt>
</event>
<event>
 9    1  0.8285222E-001  0.2957549E+03  0.7818608E-02  0.1087382E+00
         -2   -1    0    0    0  501 -0.00000000000E+00  0.00000000000E+00  0.22039514688E+02  0.22039514688E+02  0.00000000000E+00 0. -1.
          2   -1    0    0  501    0  0.00000000000E+00 -0.00000000000E+00 -0.99220612534E+03  0.99220612534E+03  0.00000000000E+00 0. -1.
         35    2    1    2    0    0  0.71054273576E-14  0.00000000000E+00 -0.97016661065E+03  0.10142456400E+04  0.29575490848E+03 0.  0.
         25    2    3    3    0    0  0.47185290100E+01 -0.73613624327E+02 -0.57981880602E+03  0.59774509893E+03  0.12517238224E+03 0.  0.
         25    2    3    3    0    0 -0.47185290100E+01  0.73613624327E+02 -0.39034780463E+03  0.41650054110E+03  0.12514016922E+03 0.  0.
          5    1    4    4  502    0  0.48035443609E+02 -0.67464831188E+02 -0.49783767170E+03  0.50470124297E+03  0.47000000000E+01 0.  1.
         -5    1    4    4    0  502 -0.43316914599E+02 -0.61487931391E+01 -0.81981134316E+02  0.93043855956E+02  0.47000000000E+01 0.  1.
          5    1    5    5  503    0  0.53534207137E+02  0.20249715786E+02 -0.97582122741E+02  0.11322686520E+03  0.47000000000E+01 0.  1.
         -5    1    5    5    0  503 -0.58252736147E+02  0.53363908541E+02 -0.29276568189E+03  0.30327367590E+03  0.47000000000E+01 0.  1.
<mgrwt>
<rscale>  0 0.29575491E+03</rscale>
<asrwt>0</asrwt>
<pdfrwt beam="1">  1        2 0.15264710E+00 0.29575491E+03</pdfrwt>
<pdfrwt beam="2">  1       -2 0.33906945E-02 0.29575491E+03</pdfrwt>
<totfact> 0.93634360E+03</totfact>
</mgrwt>
</event>
<event>
 9    1  0.8285222E-001  0.2752588E+03  0.7818608E-02  0.1098307E+00
         -2   -1    0    0    0  501 -0.00000000000E+00  0.00000000000E+00  0.24962529835E+03  0.24962529835E+03  0.00000000000E+00 0. -1.
          2   -1    0    0  501    0  0.00000000000E+00 -0.00000000000E+00 -0.75881151558E+02  0.75881151558E+02  0.00000000000E+00 0. -1.
         35    2    1    2    0    0  0.71054273576E-14 -0.35527136788E-14  0.17374414679E+03  0.32550644991E+03  0.27525882436E+03 0.  0.
         25    2    3    3    0    0 -0.18944807306E+02  0.21514932418E+02  0.29812642601E+02  0.13175031419E+03  0.12509018183E+03 0.  0.
         25    2    3    3    0    0  0.18944807306E+02 -0.21514932418E+02  0.14393150419E+03  0.19375613571E+03  0.12650440382E+03 0.  0.
          5    1    4    4  502    0 -0.45427394232E+02  0.14050989073E+02  0.68821870057E+02  0.83783162024E+02  0.47000000000E+01 0.  1.
         -5    1    4    4    0  502  0.26482586926E+02  0.74639433449E+01 -0.39009227457E+02  0.47967152170E+02  0.47000000000E+01 0.  1.
          5    1    5    5  503    0  0.12673172635E+02 -0.16888662223E+02 -0.20066519052E+02  0.29505785927E+02  0.47000000000E+01 0. -1.
         -5    1    5    5    0  503  0.62716346707E+01 -0.46262701952E+01  0.16399802324E+03  0.16425034978E+03  0.47000000000E+01 0. -1.
<mgrwt>
<rscale>  0 0.27525882E+03</rscale>
<asrwt>0</asrwt>
<pdfrwt beam="1">  1        2 0.11674023E-01 0.27525882E+03</pdfrwt>
<pdfrwt beam="2">  1       -2 0.38403892E-01 0.27525882E+03</pdfrwt>
<totfact> 0.33896699E+03</totfact>
</mgrwt>
</event>
<event>
 9    1  0.8285222E-001  0.2791865E+03  0.7818608E-02  0.1096134E+00
         -2   -1    0    0    0  501 -0.00000000000E+00  0.00000000000E+00  0.18596166164E+02  0.18596166164E+02  0.00000000000E+00 0.  1.
          2   -1    0    0  501    0  0.00000000000E+00 -0.00000000000E+00 -0.10478650609E+04  0.10478650609E+04  0.00000000000E+00 0.  1.
         35    2    1    2    0    0  0.35527136788E-14 -0.71054273576E-14 -0.10292688947E+04  0.10664612271E+04  0.27918648097E+03 0.  0.
         25    2    3    3    0    0 -0.22788649590E+01 -0.20023999905E+02 -0.74188675767E+03  0.75276632511E+03  0.12591673920E+03 0.  0.
         25    2    3    3    0    0  0.22788649590E+01  0.20023999905E+02 -0.28738213705E+03  0.31369490194E+03  0.12413639680E+03 0.  0.
          5    1    4    4  502    0  0.25481667697E+02 -0.64717625273E+02 -0.31486853354E+03  0.32249336400E+03  0.47000000000E+01 0. -1.
         -5    1    4    4    0  502 -0.27760532656E+02  0.44693625368E+02 -0.42701822413E+03  0.43027296111E+03  0.47000000000E+01 0. -1.
          5    1    5    5  503    0 -0.46061331600E+02 -0.25142444129E+02 -0.78546179959E+02  0.94580025120E+02  0.47000000000E+01 0. -1.
         -5    1    5    5    0  503  0.48340196559E+02  0.45166444034E+02 -0.20883595709E+03  0.21911487682E+03  0.47000000000E+01 0. -1.
<mgrwt>
<rscale>  0 0.27918648E+03</rscale>
<asrwt>0</asrwt>
<pdfrwt beam="1">  1        2 0.16121003E+00 0.27918648E+03</pdfrwt>
<pdfrwt beam="2">  1       -2 0.28609482E-02 0.27918648E+03</pdfrwt>
<totfact> 0.11142793E+04</totfact>
</mgrwt>
</event>
<event>
 9    1  0.8285222E-001  0.2839250E+03  0.7818608E-02  0.1093564E+00
          2   -1    0    0  501    0  0.00000000000E+00  0.00000000000E+00  0.48752769084E+03  0.48752769084E+03  0.00000000000E+00 0.  1.
         -2   -1    0    0    0  501 -0.00000000000E+00 -0.00000000000E+00 -0.41337847357E+02  0.41337847357E+02  0.00000000000E+00 0.  1.
         35    2    1    2    0    0  0.00000000000E+00  0.35527136788E-14  0.44618984348E+03  0.52886553819E+03  0.28392495675E+03 0.  0.
         25    2    3    3    0    0 -0.65390598590E+02  0.12905324085E+02  0.23918372376E+03  0.27792545449E+03  0.12486483399E+03 0.  0.
         25    2    3    3    0    0  0.65390598590E+02 -0.12905324085E+02  0.20700611972E+03  0.25094008371E+03  0.12520748474E+03 0.  0.
          5    1    4    4  502    0  0.31566677105E+01 -0.46907611707E+02  0.55457737857E+02  0.72855605655E+02  0.47000000000E+01 0. -1.
         -5    1    4    4    0  502 -0.68547266301E+02  0.59812935791E+02  0.18372598590E+03  0.20506984883E+03  0.47000000000E+01 0. -1.
          5    1    5    5  503    0 -0.20996601544E+01  0.22563900425E+02 -0.66163742710E+01  0.24070824324E+02  0.47000000000E+01 0. -1.
         -5    1    5    5    0  503  0.67490258745E+02 -0.35469224510E+02  0.21362249399E+03  0.22686925938E+03  0.47000000000E+01 0. -1.
<mgrwt>
<rscale>  0 0.28392496E+03</rscale>
<asrwt>0</asrwt>
<pdfrwt beam="1">  1        2 0.75004256E-01 0.28392496E+03</pdfrwt>
<pdfrwt beam="2">  1       -2 0.63596692E-02 0.28392496E+03</pdfrwt>
<totfact> 0.86282387E+03</totfact>
</mgrwt>
</event>
<event>
 9    1  0.8285222E-001  0.2767504E+03  0.7818608E-02  0.1097477E+00
          2   -1    0    0  501    0  0.00000000000E+00  0.00000000000E+00  0.15923069730E+03  0.15923069730E+03  0.00000000000E+00 0. -1.
         -2   -1    0    0    0  501 -0.00000000000E+00 -0.00000000000E+00 -0.12025124220E+03  0.12025124220E+03  0.00000000000E+00 0. -1.
         35    2    1    2    0    0  0.17763568394E-14  0.71054273576E-14  0.38979455099E+02  0.27948193949E+03  0.27675035065E+03 0.  0.
         25    2    3    3    0    0 -0.15840851424E+02  0.56874733378E+02  0.11541739134E+02  0.13861792847E+03  0.12488414824E+03 0.  0.
         25    2    3    3    0    0  0.15840851424E+02 -0.56874733378E+02  0.27437715965E+02  0.14086401102E+03  0.12491666611E+03 0.  0.
          5    1    4    4  502    0 -0.38724352917E+02  0.65022831298E+02  0.51470448688E+02  0.91645191838E+02  0.47000000000E+01 0.  1.
         -5    1    4    4    0  502  0.22883501493E+02 -0.81480979199E+01 -0.39928709555E+02  0.46972736635E+02  0.47000000000E+01 0.  1.
          5    1    5    5  503    0 -0.39302661189E+01 -0.81690449755E+02 -0.19315230066E+02  0.84166173048E+02  0.47000000000E+01 0. -1.
         -5    1    5    5    0  503  0.19771117543E+02  0.24815716377E+02  0.46752946031E+02  0.56697837972E+02  0.47000000000E+01 0. -1.
<mgrwt>
<rscale>  0 0.27675035E+03</rscale>
<asrwt>0</asrwt>
<pdfrwt beam="1">  1        2 0.24497030E-01 0.27675035E+03</pdfrwt>
<pdfrwt beam="2">  1       -2 0.18500191E-01 0.27675035E+03</pdfrwt>
<totfact> 0.52542506E+03</totfact>
</mgrwt>
</event>
<event>
 9    1  0.8285222E-001  0.2759363E+03  0.7818608E-02  0.1097929E+00
         -2   -1    0    0    0  501 -0.00000000000E+00  0.00000000000E+00  0.84863668135E+01  0.84863668135E+01  0.00000000000E+00 0.  1.
          2   -1    0    0  501    0  0.00000000000E+00 -0.00000000000E+00 -0.22430347825E+04  0.22430347825E+04  0.00000000000E+00 0.  1.
         35    2    1    2    0    0  0.14210854715E-13  0.71054273576E-14 -0.22345484157E+04  0.22515211493E+04  0.27593634005E+03 0.  0.
         25    2    3    3    0    0  0.43876910431E+02 -0.10794589856E+01 -0.11172838146E+04  0.11251208589E+04  0.12508987274E+03 0.  0.
         25    2    3    3    0    0 -0.43876910431E+02  0.10794589856E+01 -0.11172646011E+04  0.11264002904E+04  0.13627573850E+03 0.  0.
          5    1    4    4  502    0  0.25709073356E+02 -0.62559065144E+02 -0.52522833028E+03  0.52958614220E+03  0.47000000000E+01 0.  1.
         -5    1    4    4    0  502  0.18167837075E+02  0.61479606158E+02 -0.59205548432E+03  0.59553471669E+03  0.47000000000E+01 0.  1.
          5    1    5    5  503    0 -0.35986234047E+02  0.47668523283E+02 -0.22397632863E+03  0.23185077731E+03  0.47000000000E+01 0.  1.
         -5    1    5    5    0  503 -0.78906763838E+01 -0.46589064297E+02 -0.89328827243E+03  0.89454951307E+03  0.47000000000E+01 0.  1.
<mgrwt>
<rscale>  0 0.27593634E+03</rscale>
<asrwt>0</asrwt>
<pdfrwt beam="1">  1        2 0.34508240E+00 0.27593634E+03</pdfrwt>
<pdfrwt beam="2">  1       -2 0.13055944E-02 0.27593634E+03</pdfrwt>
<totfact> 0.79834747E+03</totfact>
</mgrwt>
</event>
<event>
 9    1  0.8285222E-001  0.2750903E+03  0.7818608E-02  0.1098401E+00
          2   -1    0    0  501    0  0.00000000000E+00  0.00000000000E+00  0.15647893527E+04  0.15647893527E+04  0.00000000000E+00 0. -1.
         -2   -1    0    0    0  501 -0.00000000000E+00 -0.00000000000E+00 -0.12090236311E+02  0.12090236311E+02  0.00000000000E+00 0. -1.
         35    2    1    2    0    0 -0.14210854715E-13  0.00000000000E+00  0.15526991164E+04  0.15768795890E+04  0.27509033462E+03 0.  0.
         25    2    3    3    0    0 -0.54709063831E+02 -0.11075458900E+02  0.93062889564E+03  0.94061548740E+03  0.12478624232E+03 0.  0.
         25    2    3    3    0    0  0.54709063831E+02  0.11075458900E+02  0.62207022071E+03  0.63626410157E+03  0.12142857985E+03 0.  0.
          5    1    4    4  502    0 -0.70487739185E+02  0.16113580935E+02  0.86135790266E+03  0.86440019397E+03  0.47000000000E+01 0. -1.
         -5    1    4    4    0  502  0.15778675354E+02 -0.27189039835E+02  0.69270992982E+02  0.76215293425E+02  0.47000000000E+01 0. -1.
          5    1    5    5  503    0  0.34430340569E+02 -0.51496072989E+02  0.21161490234E+03  0.22054534857E+03  0.47000000000E+01 0. -1.
         -5    1    5    5    0  503  0.20278723263E+02  0.62571531889E+02  0.41045531837E+03  0.41571875300E+03  0.47000000000E+01 0. -1.
<mgrwt>
<rscale>  0 0.27509033E+03</rscale>
<asrwt>0</asrwt>
<pdfrwt beam="1">  1        2 0.24073666E+00 0.27509033E+03</pdfrwt>
<pdfrwt beam="2">  1       -2 0.18600376E-02 0.27509033E+03</pdfrwt>
<totfact> 0.10838018E+04</totfact>
</mgrwt>
</event>
<event>
 9    1  0.8285222E-001  0.2747896E+03  0.7818608E-02  0.1098569E+00
          1   -1    0    0  501    0  0.00000000000E+00  0.00000000000E+00  0.67891773957E+03  0.67891773957E+03  0.00000000000E+00 0. -1.
         -1   -1    0    0    0  501 -0.00000000000E+00 -0.00000000000E+00 -0.27805031092E+02  0.27805031092E+02  0.00000000000E+00 0. -1.
         35    2    1    2    0    0  0.71054273576E-14  0.17763568394E-14  0.65111270848E+03  0.70672277067E+03  0.27478958392E+03 0.  0.
         25    2    3    3    0    0 -0.55995191329E+02 -0.10227514960E+02  0.27874377118E+03  0.31058669196E+03  0.12460312892E+03 0.  0.
         25    2    3    3    0    0  0.55995191329E+02  0.10227514960E+02  0.37236893730E+03  0.39613607870E+03  0.12257693042E+03 0.  0.
          5    1    4    4  502    0  0.16376591869E+02 -0.50596674448E+02  0.95220067554E+02  0.10916577986E+03  0.47000000000E+01 0.  1.
         -5    1    4    4    0  502 -0.72371783198E+02  0.40369159488E+02  0.18352370363E+03  0.20142091211E+03  0.47000000000E+01 0.  1.
          5    1    5    5  503    0  0.78674384021E+02 -0.13964060537E+02  0.34093197881E+03  0.35020188158E+03  0.47000000000E+01 0. -1.
         -5    1    5    5    0  503 -0.22679192692E+02  0.24191575497E+02  0.31436958492E+02  0.45934197124E+02  0.47000000000E+01 0. -1.
<mgrwt>
<rscale>  0 0.27478958E+03</rscale>
<asrwt>0</asrwt>
<pdfrwt beam="1">  1        1 0.10444887E+00 0.27478958E+03</pdfrwt>
<pdfrwt beam="2">  1       -1 0.42776976E-02 0.27478958E+03</pdfrwt>
<totfact> 0.65384252E+03</totfact>
</mgrwt>
</event>
<event>
 9    1  0.8285222E-001  0.2786597E+03  0.7818608E-02  0.1096423E+00
         -1   -1    0    0    0  501 -0.00000000000E+00  0.00000000000E+00  0.16946854759E+03  0.16946854759E+03  0.00000000000E+00 0. -1.
          1   -1    0    0  501    0  0.00000000000E+00 -0.00000000000E+00 -0.11455110830E+03  0.11455110830E+03  0.00000000000E+00 0. -1.
         35    2    1    2    0    0  0.17763568394E-14 -0.14210854715E-13  0.54917439294E+02  0.28401965590E+03  0.27865972044E+03 0.  0.
         25    2    3    3    0    0  0.75793665386E+01 -0.64323756890E+02  0.27930804542E+02  0.14325876940E+03  0.12469142982E+03 0.  0.
         25    2    3    3    0    0 -0.75793665386E+01  0.64323756890E+02  0.26986634751E+02  0.14076088649E+03  0.12202604728E+03 0.  0.
          5    1    4    4  502    0  0.90012070180E+01 -0.10165811269E+03  0.14048213083E+02  0.10312534070E+03  0.47000000000E+01 0. -1.
         -5    1    4    4    0  502 -0.14218404794E+01  0.37334355803E+02  0.13882591459E+02  0.40133428700E+02  0.47000000000E+01 0. -1.
          5    1    5    5  503    0  0.49694879916E+02  0.41658027503E+02 -0.14155907072E+02  0.66539101665E+02  0.47000000000E+01 0. -1.
         -5    1    5    5    0  503 -0.57274246454E+02  0.22665729387E+02  0.41142541823E+02  0.74221784829E+02  0.47000000000E+01 0. -1.
<mgrwt>
<rscale>  0 0.27865972E+03</rscale>
<asrwt>0</asrwt>
<pdfrwt beam="1">  1        1 0.17623247E-01 0.27865972E+03</pdfrwt>
<pdfrwt beam="2">  1       -1 0.26072084E-01 0.27865972E+03</pdfrwt>
<totfact> 0.38889588E+03</totfact>
</mgrwt>
</event>
<event>
 9    1  0.8285222E-001  0.2742875E+03  0.7818608E-02  0.1098851E+00
          2   -1    0    0  501    0  0.00000000000E+00  0.00000000000E+00  0.66318899136E+03  0.66318899136E+03  0.00000000000E+00 0.  1.
         -2   -1    0    0    0  501 -0.00000000000E+00 -0.00000000000E+00 -0.28360546517E+02  0.28360546517E+02  0.00000000000E+00 0.  1.
         35    2    1    2    0    0 -0.35527136788E-14  0.00000000000E+00  0.63482844484E+03  0.69154953788E+03  0.27428745680E+03 0.  0.
         25    2    3    3    0    0 -0.16650410470E+02  0.43007635179E+02  0.39539462681E+03  0.41743569100E+03  0.12565330220E+03 0.  0.
         25    2    3    3    0    0  0.16650410470E+02 -0.43007635179E+02  0.23943381803E+03  0.27411384688E+03  0.12523160537E+03 0.  0.
          5    1    4    4  502    0 -0.42201034084E+02 -0.31828021482E+02  0.12830270910E+03  0.13884388856E+03  0.47000000000E+01 0.  1.
         -5    1    4    4    0  502  0.25550623613E+02  0.74835656661E+02  0.26709191772E+03  0.27859180244E+03  0.47000000000E+01 0.  1.
          5    1    5    5  503    0 -0.47677506357E+00 -0.39451861325E+02  0.62436164250E+01  0.40221255855E+02  0.47000000000E+01 0. -1.
         -5    1    5    5    0  503  0.17127185534E+02 -0.35557738538E+01  0.23319020160E+03  0.23389259102E+03  0.47000000000E+01 0. -1.
<mgrwt>
<rscale>  0 0.27428746E+03</rscale>
<asrwt>0</asrwt>
<pdfrwt beam="1">  1        2 0.10202906E+00 0.27428746E+03</pdfrwt>
<pdfrwt beam="2">  1       -2 0.43631615E-02 0.27428746E+03</pdfrwt>
<totfact> 0.10744106E+04</totfact>
</mgrwt>
</event>
<event>
 9    1  0.8285222E-001  0.2698970E+03  0.7818608E-02  0.1101339E+00
         -2   -1    0    0    0  501 -0.00000000000E+00  0.00000000000E+00  0.27092648038E+02  0.27092648038E+02  0.00000000000E+00 0. -1.
          2   -1    0    0  501    0  0.00000000000E+00 -0.00000000000E+00 -0.67217865525E+03  0.67217865525E+03  0.00000000000E+00 0. -1.
         35    2    1    2    0    0  0.00000000000E+00  0.00000000000E+00 -0.64508600721E+03  0.69927130329E+03  0.26989701536E+03 0.  0.
         25    2    3    3    0    0 -0.81274592147E+01  0.37530786266E+02 -0.25422612313E+03  0.28708156829E+03  0.12771174440E+03 0.  0.
         25    2    3    3    0    0  0.81274592147E+01 -0.37530786266E+02 -0.39085988408E+03  0.41218973501E+03  0.12511719765E+03 0.  0.
          5    1    4    4  502    0 -0.43736293874E+02  0.20315915836E+02 -0.25193428423E+02  0.54611341989E+02  0.47000000000E+01 0. -1.
         -5    1    4    4    0  502  0.35608834660E+02  0.17214870431E+02 -0.22903269471E+03  0.23247022630E+03  0.47000000000E+01 0. -1.
          5    1    5    5  503    0 -0.31564813632E+02 -0.48958909361E+02 -0.82854934815E+02  0.10139202379E+03  0.47000000000E+01 0. -1.
         -5    1    5    5    0  503  0.39692272847E+02  0.11428123095E+02 -0.30800494927E+03  0.31079771121E+03  0.47000000000E+01 0. -1.
<mgrwt>
<rscale>  0 0.26989702E+03</rscale>
<asrwt>0</asrwt>
<pdfrwt beam="1">  1        2 0.10341209E+00 0.26989702E+03</pdfrwt>
<pdfrwt beam="2">  1       -2 0.41681002E-02 0.26989702E+03</pdfrwt>
<totfact> 0.11320625E+04</totfact>
</mgrwt>
</event>
<event>
 9    1  0.8285222E-001  0.2758002E+03  0.7818608E-02  0.1098005E+00
          2   -1    0    0  501    0  0.00000000000E+00  0.00000000000E+00  0.25180557346E+04  0.25180557346E+04  0.00000000000E+00 0. -1.
         -2   -1    0    0    0  501 -0.00000000000E+00 -0.00000000000E+00 -0.75520327497E+01  0.75520327497E+01  0.00000000000E+00 0. -1.
         35    2    1    2    0    0  0.00000000000E+00  0.71054273576E-14  0.25105037019E+04  0.25256077674E+04  0.27580021300E+03 0.  0.
         25    2    3    3    0    0  0.54460463772E+02 -0.84162050024E+01  0.14729896323E+04  0.14791635482E+04  0.12324597719E+03 0.  0.
         25    2    3    3    0    0 -0.54460463772E+02  0.84162050024E+01  0.10375140696E+04  0.10464442192E+04  0.12479296702E+03 0.  0.
          5    1    4    4  502    0  0.30485676569E+02 -0.23425466666E+02  0.12487375377E+03  0.13074277550E+03  0.47000000000E+01 0.  1.
         -5    1    4    4    0  502  0.23974787203E+02  0.15009261664E+02  0.13481158785E+04  0.13484207727E+04  0.47000000000E+01 0.  1.
          5    1    5    5  503    0 -0.15747753230E+02 -0.28821554830E+02  0.70379385151E+02  0.77807593517E+02  0.47000000000E+01 0.  1.
         -5    1    5    5    0  503 -0.38712710542E+02  0.37237759832E+02  0.96713468443E+03  0.96863662565E+03  0.47000000000E+01 0.  1.
<mgrwt>
<rscale>  0 0.27580021E+03</rscale>
<asrwt>0</asrwt>
<pdfrwt beam="1">  1        2 0.38739252E+00 0.27580021E+03</pdfrwt>
<pdfrwt beam="2">  1       -2 0.11618532E-02 0.27580021E+03</pdfrwt>
<totfact> 0.67181815E+03</totfact>
</mgrwt>
</event>
<event>
 9    1  0.8285222E-001  0.2741188E+03  0.7818608E-02  0.1098945E+00
          4   -1    0    0  501    0  0.00000000000E+00  0.00000000000E+00  0.40623921051E+02  0.40623921051E+02  0.00000000000E+00 0.  1.
         -4   -1    0    0    0  501 -0.00000000000E+00 -0.00000000000E+00 -0.46241902666E+03  0.46241902666E+03  0.00000000000E+00 0.  1.
         35    2    1    2    0    0 -0.26645352591E-14  0.71054273576E-14 -0.42179510560E+03  0.50304294771E+03  0.27411876281E+03 0.  0.
         25    2    3    3    0    0 -0.57803113553E+01  0.53278846978E+02 -0.17931166597E+03  0.22520101123E+03  0.12526282117E+03 0.  0.
         25    2    3    3    0    0  0.57803113553E+01 -0.53278846978E+02 -0.24248343963E+03  0.27784193648E+03  0.12460287171E+03 0.  0.
          5    1    4    4  502    0 -0.42323874606E+02 -0.22946243531E+02 -0.89757770648E+02  0.10196267869E+03  0.47000000000E+01 0. -1.
         -5    1    4    4    0  502  0.36543563251E+02  0.76225090509E+02 -0.89553895327E+02  0.12323833254E+03  0.47000000000E+01 0. -1.
          5    1    5    5  503    0  0.81088929391E+01 -0.89530314352E+02 -0.21152201782E+03  0.22988058934E+03  0.47000000000E+01 0. -1.
         -5    1    5    5    0  503 -0.23285815837E+01  0.36251467373E+02 -0.30961421805E+02  0.47961347136E+02  0.47000000000E+01 0. -1.
<mgrwt>
<rscale>  0 0.27411876E+03</rscale>
<asrwt>0</asrwt>
<pdfrwt beam="1">  1        4 0.62498346E-02 0.27411876E+03</pdfrwt>
<pdfrwt beam="2">  1       -4 0.71141382E-01 0.27411876E+03</pdfrwt>
<totfact> 0.57227114E+02</totfact>
</mgrwt>
</event>
<event>
 9    1  0.8285222E-001  0.2789815E+03  0.7818608E-02  0.1096247E+00
          1   -1    0    0  501    0  0.00000000000E+00  0.00000000000E+00  0.10670823016E+04  0.10670823016E+04  0.00000000000E+00 0. -1.
         -1   -1    0    0    0  501 -0.00000000000E+00 -0.00000000000E+00 -0.18234460505E+02  0.18234460505E+02  0.00000000000E+00 0. -1.
         35    2    1    2    0    0 -0.71054273576E-14 -0.71054273576E-14  0.10488478411E+04  0.10853167621E+04  0.27898150536E+03 0.  0.
         25    2    3    3    0    0 -0.19921231181E+02  0.26667638013E+02  0.32193512821E+03  0.34694070212E+03  0.12497041907E+03 0.  0.
         25    2    3    3    0    0  0.19921231181E+02 -0.26667638013E+02  0.72691271286E+03  0.73837605996E+03  0.12525611935E+03 0.  0.
          5    1    4    4  502    0  0.33079197276E+02  0.38001162063E+02  0.25835074531E+03  0.26325941429E+03  0.47000000000E+01 0. -1.
         -5    1    4    4    0  502 -0.53000428457E+02 -0.11333524050E+02  0.63584382898E+02  0.83681287828E+02  0.47000000000E+01 0. -1.
          5    1    5    5  503    0 -0.14954633758E+02 -0.62785849995E+02  0.23060183724E+03  0.23950991915E+03  0.47000000000E+01 0.  1.
         -5    1    5    5    0  503  0.34875864939E+02  0.36118211982E+02  0.49631087562E+03  0.49886614082E+03  0.47000000000E+01 0.  1.
<mgrwt>
<rscale>  0 0.27898151E+03</rscale>
<asrwt>0</asrwt>
<pdfrwt beam="1">  1        1 0.16416646E+00 0.27898151E+03</pdfrwt>
<pdfrwt beam="2">  1       -1 0.28053024E-02 0.27898151E+03</pdfrwt>
<totfact> 0.59395603E+03</totfact>
</mgrwt>
</event>
<event>
 9    1  0.8285222E-001  0.2727574E+03  0.7818608E-02  0.1099712E+00
          2   -1    0    0  501    0  0.00000000000E+00  0.00000000000E+00  0.16702671618E+04  0.16702671618E+04  0.00000000000E+00 0. -1.
         -2   -1    0    0    0  501 -0.00000000000E+00 -0.00000000000E+00 -0.11135434215E+02  0.11135434215E+02  0.00000000000E+00 0. -1.
         35    2    1    2    0    0 -0.88817841970E-15  0.14210854715E-13  0.16591317276E+04  0.16814025961E+04  0.27275740211E+03 0.  0.
         25    2    3    3    0    0 -0.63486617320E+01 -0.46228789456E+02  0.10167056730E+04  0.10254566913E+04  0.12527407465E+03 0.  0.
         25    2    3    3    0    0  0.63486617320E+01  0.46228789456E+02  0.64242605466E+03  0.65594590477E+03  0.12400156370E+03 0.  0.
          5    1    4    4  502    0  0.14071275553E+02 -0.85435226673E+02  0.75992553307E+03  0.76485690464E+03  0.47000000000E+01 0.  1.
         -5    1    4    4    0  502 -0.20419937285E+02  0.39206437217E+02  0.25678013989E+03  0.26059978664E+03  0.47000000000E+01 0.  1.
          5    1    5    5  503    0  0.30382606922E+01  0.81919608663E+02  0.28198764778E+03  0.29369912634E+03  0.47000000000E+01 0. -1.
         -5    1    5    5    0  503  0.33104010398E+01 -0.35690819207E+02  0.36043840688E+03  0.36224677843E+03  0.47000000000E+01 0. -1.
<mgrwt>
<rscale>  0 0.27275740E+03</rscale>
<asrwt>0</asrwt>
<pdfrwt beam="1">  1        2 0.25696398E+00 0.27275740E+03</pdfrwt>
<pdfrwt beam="2">  1       -2 0.17131451E-02 0.27275740E+03</pdfrwt>
<totfact> 0.10751890E+04</totfact>
</mgrwt>
</event>
<event>
 9    1  0.8285222E-001  0.2758460E+03  0.7818608E-02  0.1097980E+00
         -2   -1    0    0    0  501 -0.00000000000E+00  0.00000000000E+00  0.14009711916E+02  0.14009711916E+02  0.00000000000E+00 0.  1.
          2   -1    0    0  501    0  0.00000000000E+00 -0.00000000000E+00 -0.13578262698E+04  0.13578262698E+04  0.00000000000E+00 0.  1.
         35    2    1    2    0    0  0.00000000000E+00 -0.71054273576E-14 -0.13438165579E+04  0.13718359817E+04  0.27584600684E+03 0.  0.
         25    2    3    3    0    0  0.48185086922E+02 -0.35658088213E+02 -0.65003736725E+03  0.66433020941E+03  0.12325885950E+03 0.  0.
         25    2    3    3    0    0 -0.48185086922E+02  0.35658088213E+02 -0.69377919065E+03  0.70750577233E+03  0.12506618506E+03 0.  0.
          5    1    4    4  502    0  0.47026188351E+02 -0.74577645610E+02 -0.54702567828E+03  0.55410510764E+03  0.47000000000E+01 0.  1.
         -5    1    4    4    0  502  0.11588985704E+01  0.38919557396E+02 -0.10301168897E+03  0.11022510177E+03  0.47000000000E+01 0.  1.
          5    1    5    5  503    0 -0.36845473183E+02  0.10917644683E+02 -0.66983585429E+03  0.67095375814E+03  0.47000000000E+01 0. -1.
         -5    1    5    5    0  503 -0.11339613738E+02  0.24740443530E+02 -0.23943336357E+02  0.36552014195E+02  0.47000000000E+01 0. -1.
<mgrwt>
<rscale>  0 0.27584601E+03</rscale>
<asrwt>0</asrwt>
<pdfrwt beam="1">  1        2 0.20889635E+00 0.27584601E+03</pdfrwt>
<pdfrwt beam="2">  1       -2 0.21553403E-02 0.27584601E+03</pdfrwt>
<totfact> 0.11278691E+04</totfact>
</mgrwt>
</event>
<event>
 9    1  0.8285222E-001  0.3055129E+03  0.7818608E-02  0.1082517E+00
          1   -1    0    0  501    0  0.00000000000E+00  0.00000000000E+00  0.14649965120E+04  0.14649965120E+04  0.00000000000E+00 0. -1.
         -1   -1    0    0    0  501 -0.00000000000E+00 -0.00000000000E+00 -0.15928043907E+02  0.15928043907E+02  0.00000000000E+00 0. -1.
         35    2    1    2    0    0  0.00000000000E+00  0.00000000000E+00  0.14490684681E+04  0.14809245559E+04  0.30551287218E+03 0.  0.
         25    2    3    3    0    0 -0.48221231533E+02  0.73065278586E+02  0.77696879433E+03  0.79171268125E+03  0.12435690646E+03 0.  0.
         25    2    3    3    0    0  0.48221231533E+02 -0.73065278586E+02  0.67209967380E+03  0.68921187469E+03  0.12502485589E+03 0.  0.
          5    1    4    4  502    0 -0.24542418053E+02  0.10606323939E+03  0.49948500652E+03  0.51123292419E+03  0.47000000000E+01 0. -1.
         -5    1    4    4    0  502 -0.23678813481E+02 -0.32997960807E+02  0.27748378781E+03  0.28047975707E+03  0.47000000000E+01 0. -1.
          5    1    5    5  503    0 -0.19378258703E+02 -0.40934193783E+02  0.77379898682E+02  0.89782313687E+02  0.47000000000E+01 0.  1.
         -5    1    5    5    0  503  0.67599490237E+02 -0.32131084803E+02  0.59471977512E+03  0.59942956100E+03  0.47000000000E+01 0.  1.
<mgrwt>
<rscale>  0 0.30551287E+03</rscale>
<asrwt>0</asrwt>
<pdfrwt beam="1">  1        1 0.22538397E+00 0.30551287E+03</pdfrwt>
<pdfrwt beam="2">  1       -1 0.24504695E-02 0.30551287E+03</pdfrwt>
<totfact> 0.38449408E+03</totfact>
</mgrwt>
</event>
<event>
 9    1  0.8285222E-001  0.2770293E+03  0.7818608E-02  0.1097323E+00
          2   -1    0    0  501    0  0.00000000000E+00  0.00000000000E+00  0.80697270286E+03  0.80697270286E+03  0.00000000000E+00 0. -1.
         -2   -1    0    0    0  501 -0.00000000000E+00 -0.00000000000E+00 -0.23775667316E+02  0.23775667316E+02  0.00000000000E+00 0. -1.
         35    2    1    2    0    0 -0.71054273576E-14  0.00000000000E+00  0.78319703554E+03  0.83074837018E+03  0.27702934513E+03 0.  0.
         25    2    3    3    0    0  0.37177384030E+02 -0.25905700765E+02  0.24166544919E+03  0.27300786299E+03  0.11865007671E+03 0.  0.
         25    2    3    3    0    0 -0.37177384030E+02  0.25905700765E+02  0.54153158635E+03  0.55774050719E+03  0.12555776012E+03 0.  0.
          5    1    4    4  502    0  0.68897357004E+02 -0.50909237765E+02  0.17546196492E+03  0.19531407380E+03  0.47000000000E+01 0. -1.
         -5    1    4    4    0  502 -0.31719972974E+02  0.25003537000E+02  0.66203484270E+02  0.77693789182E+02  0.47000000000E+01 0. -1.
          5    1    5    5  503    0 -0.67896781564E+02 -0.14127342783E+02  0.42526910662E+03  0.43091235513E+03  0.47000000000E+01 0.  1.
         -5    1    5    5    0  503  0.30719397534E+02  0.40033043549E+02  0.11626247974E+03  0.12682815206E+03  0.47000000000E+01 0.  1.
<mgrwt>
<rscale>  0 0.27702935E+03</rscale>
<asrwt>0</asrwt>
<pdfrwt beam="1">  1        2 0.12414963E+00 0.27702935E+03</pdfrwt>
<pdfrwt beam="2">  1       -2 0.36577956E-02 0.27702935E+03</pdfrwt>
<totfact> 0.11001672E+04</totfact>
</mgrwt>
</event>
<event>
 9    1  0.8285222E-001  0.2788057E+03  0.7818608E-02  0.1096343E+00
         -1   -1    0    0    0  501 -0.00000000000E+00  0.00000000000E+00  0.53598275908E+02  0.53598275908E+02  0.00000000000E+00 0.  1.
          1   -1    0    0  501    0  0.00000000000E+00 -0.00000000000E+00 -0.36257049246E+03  0.36257049246E+03  0.00000000000E+00 0.  1.
         35    2    1    2    0    0  0.00000000000E+00 -0.71054273576E-14 -0.30897221656E+03  0.41616876837E+03  0.27880569070E+03 0.  0.
         25    2    3    3    0    0  0.18408490869E+02 -0.43145006041E+02 -0.21317424277E+03  0.25183723045E+03  0.12561197706E+03 0.  0.
         25    2    3    3    0    0 -0.18408490869E+02  0.43145006041E+02 -0.95797973790E+02  0.16433153792E+03  0.12500895364E+03 0.  0.
          5    1    4    4  502    0  0.47670518380E+01  0.44254289470E+02 -0.59418021461E+02  0.74389234397E+02  0.47000000000E+01 0.  1.
         -5    1    4    4    0  502  0.13641439031E+02 -0.87399295511E+02 -0.15375622131E+03  0.17744799606E+03  0.47000000000E+01 0.  1.
          5    1    5    5  503    0 -0.50720208492E+02  0.73156998846E+02 -0.65528003557E+02  0.11063677182E+03  0.47000000000E+01 0. -1.
         -5    1    5    5    0  503  0.32311717623E+02 -0.30011992805E+02 -0.30269970233E+02  0.53694766093E+02  0.47000000000E+01 0. -1.
<mgrwt>
<rscale>  0 0.27880569E+03</rscale>
<asrwt>0</asrwt>
<pdfrwt beam="1">  1        1 0.55780076E-01 0.27880569E+03</pdfrwt>
<pdfrwt beam="2">  1       -1 0.82458886E-02 0.27880569E+03</pdfrwt>
<totfact> 0.56219182E+03</totfact>
</mgrwt>
</event>
<event>
 9    1  0.8285222E-001  0.2795284E+03  0.7818608E-02  0.1095947E+00
         -1   -1    0    0    0  501 -0.00000000000E+00  0.00000000000E+00  0.22193369503E+02  0.22193369503E+02  0.00000000000E+00 0. -1.
          1   -1    0    0  501    0  0.00000000000E+00 -0.00000000000E+00 -0.88017452116E+03  0.88017452116E+03  0.00000000000E+00 0. -1.
         35    2    1    2    0    0  0.00000000000E+00  0.17763568394E-14 -0.85798115166E+03  0.90236789066E+03  0.27952844847E+03 0.  0.
         25    2    3    3    0    0  0.57024188146E+02  0.59919512075E+00 -0.50399040920E+03  0.52265835266E+03  0.12614794477E+03 0.  0.
         25    2    3    3    0    0 -0.57024188146E+02 -0.59919512075E+00 -0.35399074246E+03  0.37970953801E+03  0.12497107841E+03 0.  0.
          5    1    4    4  502    0  0.26189836809E+02 -0.80073798193E+01 -0.48363349260E+03  0.48443107957E+03  0.47000000000E+01 0.  1.
         -5    1    4    4    0  502  0.30834351337E+02  0.86065749401E+01 -0.20356916595E+02  0.38227273089E+02  0.47000000000E+01 0.  1.
          5    1    5    5  503    0  0.25178574967E+02  0.11349573019E+02 -0.17378905831E+02  0.32968011966E+02  0.47000000000E+01 0. -1.
         -5    1    5    5    0  503 -0.82202763113E+02 -0.11948768140E+02 -0.33661183663E+03  0.34674152604E+03  0.47000000000E+01 0. -1.
<mgrwt>
<rscale>  0 0.27952845E+03</rscale>
<asrwt>0</asrwt>
<pdfrwt beam="1">  1        1 0.13541146E+00 0.27952845E+03</pdfrwt>
<pdfrwt beam="2">  1       -1 0.34143646E-02 0.27952845E+03</pdfrwt>
<totfact> 0.61605755E+03</totfact>
</mgrwt>
</event>
<event>
 9    1  0.8285222E-001  0.2742220E+03  0.7818608E-02  0.1098887E+00
         -2   -1    0    0    0  501 -0.00000000000E+00  0.00000000000E+00  0.12527751249E+02  0.12527751249E+02  0.00000000000E+00 0. -1.
          2   -1    0    0  501    0  0.00000000000E+00 -0.00000000000E+00 -0.15006223215E+04  0.15006223215E+04  0.00000000000E+00 0. -1.
         35    2    1    2    0    0 -0.71054273576E-14  0.00000000000E+00 -0.14880945703E+04  0.15131500728E+04  0.27422197696E+03 0.  0.
         25    2    3    3    0    0  0.39849910144E+02 -0.20600004798E+02 -0.88904451286E+03  0.89892846832E+03  0.12513940135E+03 0.  0.
         25    2    3    3    0    0 -0.39849910144E+02  0.20600004798E+02 -0.59905005741E+03  0.61422160445E+03  0.12804230767E+03 0.  0.
          5    1    4    4  502    0  0.82400292508E+02  0.32661515707E+01 -0.49444595310E+03  0.50129768251E+03  0.47000000000E+01 0.  1.
         -5    1    4    4    0  502 -0.42550382364E+02 -0.23866156369E+02 -0.39459855976E+03  0.39763078581E+03  0.47000000000E+01 0.  1.
          5    1    5    5  503    0  0.44338083262E+02  0.18420821691E+02 -0.15886649323E+03  0.16602965088E+03  0.47000000000E+01 0.  1.
         -5    1    5    5    0  503 -0.84187993406E+02  0.21791831076E+01 -0.44018356418E+03  0.44819195357E+03  0.47000000000E+01 0.  1.
<mgrwt>
<rscale>  0 0.27422198E+03</rscale>
<asrwt>0</asrwt>
<pdfrwt beam="1">  1        2 0.23086490E+00 0.27422198E+03</pdfrwt>
<pdfrwt beam="2">  1       -2 0.19273469E-02 0.27422198E+03</pdfrwt>
<totfact> 0.11129064E+04</totfact>
</mgrwt>
</event>
<event>
 9    1  0.8285222E-001  0.2801357E+03  0.7818608E-02  0.1095615E+00
          2   -1    0    0  501    0  0.00000000000E+00  0.00000000000E+00  0.21416783162E+04  0.21416783162E+04  0.00000000000E+00 0.  1.
         -2   -1    0    0    0  501 -0.00000000000E+00 -0.00000000000E+00 -0.91605752893E+01  0.91605752893E+01  0.00000000000E+00 0.  1.
         35    2    1    2    0    0  0.00000000000E+00  0.35527136788E-14  0.21325177410E+04  0.21508388915E+04  0.28013572040E+03 0.  0.
         25    2    3    3    0    0 -0.31005704255E+01 -0.23148457409E+02  0.60477737032E+03  0.61777146910E+03  0.12385659355E+03 0.  0.
         25    2    3    3    0    0  0.31005704255E+01  0.23148457409E+02  0.15277403706E+04  0.15330674224E+04  0.12553731333E+03 0.  0.
          5    1    4    4  502    0  0.16202289203E+02 -0.71327318249E+00  0.55191027633E+01  0.17764386546E+02  0.47000000000E+01 0. -1.
         -5    1    4    4    0  502 -0.19302859629E+02 -0.22435184226E+02  0.59925826756E+03  0.60000708255E+03  0.47000000000E+01 0. -1.
          5    1    5    5  503    0  0.26829419937E+02  0.20839259887E+02  0.14702824580E+04  0.14706823889E+04  0.47000000000E+01 0.  1.
         -5    1    5    5    0  503 -0.23728849511E+02  0.23091975215E+01  0.57457912608E+02  0.62385033570E+02  0.47000000000E+01 0.  1.
<mgrwt>
<rscale>  0 0.28013572E+03</rscale>
<asrwt>0</asrwt>
<pdfrwt beam="1">  1        2 0.32948857E+00 0.28013572E+03</pdfrwt>
<pdfrwt beam="2">  1       -2 0.14093210E-02 0.28013572E+03</pdfrwt>
<totfact> 0.80841646E+03</totfact>
</mgrwt>
</event>
<event>
 9    1  0.8285222E-001  0.2671606E+03  0.7818608E-02  0.1102916E+00
          2   -1    0    0  501    0  0.00000000000E+00  0.00000000000E+00  0.20023549019E+04  0.20023549019E+04  0.00000000000E+00 0.  1.
         -2   -1    0    0    0  501 -0.00000000000E+00 -0.00000000000E+00 -0.89113585105E+01  0.89113585105E+01  0.00000000000E+00 0.  1.
         35    2    1    2    0    0  0.35527136788E-14  0.00000000000E+00  0.19934435434E+04  0.20112662604E+04  0.26716064378E+03 0.  0.
         25    2    3    3    0    0 -0.29929587021E+02  0.12473079699E+02  0.11440399772E+04  0.11518613692E+04  0.13002225356E+03 0.  0.
         25    2    3    3    0    0  0.29929587021E+02 -0.12473079699E+02  0.84940356615E+03  0.85940489122E+03  0.12664513794E+03 0.  0.
          5    1    4    4  502    0 -0.60944720986E+02  0.46192520077E+01  0.10606645264E+04  0.10624344328E+04  0.47000000000E+01 0.  1.
         -5    1    4    4    0  502  0.31015133965E+02  0.78538276914E+01  0.83375450847E+02  0.89426936369E+02  0.47000000000E+01 0.  1.
          5    1    5    5  503    0 -0.32944333670E+01  0.51264818928E+02  0.49999216749E+03  0.50264619018E+03  0.47000000000E+01 0. -1.
         -5    1    5    5    0  503  0.33224020388E+02 -0.63737898627E+02  0.34941139867E+03  0.35675870104E+03  0.47000000000E+01 0. -1.
<mgrwt>
<rscale>  0 0.26716064E+03</rscale>
<asrwt>0</asrwt>
<pdfrwt beam="1">  1        2 0.30805424E+00 0.26716064E+03</pdfrwt>
<pdfrwt beam="2">  1       -2 0.13709798E-02 0.26716064E+03</pdfrwt>
<totfact> 0.99653760E+03</totfact>
</mgrwt>
</event>
<event>
 9    1  0.8285222E-001  0.2747583E+03  0.7818608E-02  0.1098587E+00
         -1   -1    0    0    0  501 -0.00000000000E+00  0.00000000000E+00  0.64886414840E+03  0.64886414840E+03  0.00000000000E+00 0.  1.
          1   -1    0    0  501    0  0.00000000000E+00 -0.00000000000E+00 -0.29086254479E+02  0.29086254479E+02  0.00000000000E+00 0.  1.
         35    2    1    2    0    0 -0.71054273576E-14  0.00000000000E+00  0.61977789392E+03  0.67795040287E+03  0.27475827735E+03 0.  0.
         25    2    3    3    0    0 -0.42739070959E+02  0.36286543184E+02  0.26809806031E+03  0.30109096889E+03  0.12504343326E+03 0.  0.
         25    2    3    3    0    0  0.42739070959E+02 -0.36286543184E+02  0.35167983360E+03  0.37685943399E+03  0.12329227964E+03 0.  0.
          5    1    4    4  502    0 -0.51676689599E+02 -0.22145714471E+02  0.21229736154E+03  0.21966604798E+03  0.47000000000E+01 0. -1.
         -5    1    4    4    0  502  0.89376186401E+01  0.58432257655E+02  0.55800698769E+02  0.81424920907E+02  0.47000000000E+01 0. -1.
          5    1    5    5  503    0 -0.67559137597E+00 -0.65838289830E+02  0.28117168136E+03  0.28881610279E+03  0.47000000000E+01 0.  1.
         -5    1    5    5    0  503  0.43414662335E+02  0.29551746646E+02  0.70508152246E+02  0.88043331198E+02  0.47000000000E+01 0.  1.
<mgrwt>
<rscale>  0 0.27475828E+03</rscale>
<asrwt>0</asrwt>
<pdfrwt beam="1">  1        1 0.44748089E-02 0.27475828E+03</pdfrwt>
<pdfrwt beam="2">  1       -1 0.99825243E-01 0.27475828E+03</pdfrwt>
<totfact> 0.19643881E+03</totfact>
</mgrwt>
</event>
<event>
 9    1  0.8285222E-001  0.2733921E+03  0.7818608E-02  0.1099354E+00
         -1   -1    0    0    0  501 -0.00000000000E+00  0.00000000000E+00  0.15970612154E+04  0.15970612154E+04  0.00000000000E+00 0. -1.
          1   -1    0    0  501    0  0.00000000000E+00 -0.00000000000E+00 -0.11700119962E+02  0.11700119962E+02  0.00000000000E+00 0. -1.
         35    2    1    2    0    0  0.35527136788E-14  0.71054273576E-14  0.15853610954E+04  0.16087613353E+04  0.27339208333E+03 0.  0.
         25    2    3    3    0    0  0.25369636849E+02 -0.44852535684E+02  0.66313028815E+03  0.67675145439E+03  0.12488147792E+03 0.  0.
         25    2    3    3    0    0 -0.25369636849E+02  0.44852535684E+02  0.92223080727E+03  0.93200988095E+03  0.12440815039E+03 0.  0.
          5    1    4    4  502    0  0.67218644917E+02 -0.60077829487E+02  0.43550913058E+03  0.44476733765E+03  0.47000000000E+01 0.  1.
         -5    1    4    4    0  502 -0.41849008069E+02  0.15225293803E+02  0.22762115757E+03  0.23198411675E+03  0.47000000000E+01 0.  1.
          5    1    5    5  503    0  0.18762881580E+02  0.21174387891E+02  0.45154573490E+02  0.53492297902E+02  0.47000000000E+01 0.  1.
         -5    1    5    5    0  503 -0.44132518429E+02  0.23678147793E+02  0.87707623378E+03  0.87851758305E+03  0.47000000000E+01 0.  1.
<mgrwt>
<rscale>  0 0.27339208E+03</rscale>
<asrwt>0</asrwt>
<pdfrwt beam="1">  1        1 0.18000197E-02 0.27339208E+03</pdfrwt>
<pdfrwt beam="2">  1       -1 0.24570155E+00 0.27339208E+03</pdfrwt>
<totfact> 0.59327431E+02</totfact>
</mgrwt>
</event>
<event>
 9    1  0.8285222E-001  0.2752417E+03  0.7818608E-02  0.1098317E+00
          2   -1    0    0  501    0  0.00000000000E+00  0.00000000000E+00  0.13942814255E+02  0.13942814255E+02  0.00000000000E+00 0. -1.
         -2   -1    0    0    0  501 -0.00000000000E+00 -0.00000000000E+00 -0.13583696393E+04  0.13583696393E+04  0.00000000000E+00 0. -1.
         35    2    1    2    0    0  0.35527136788E-14  0.14210854715E-13 -0.13444268251E+04  0.13723124536E+04  0.27524167977E+03 0.  0.
         25    2    3    3    0    0 -0.31442157602E+02 -0.46892772014E+02 -0.62308200026E+03  0.63799831665E+03  0.12499252641E+03 0.  0.
         25    2    3    3    0    0  0.31442157602E+02  0.46892772014E+02 -0.72134482483E+03  0.73431413695E+03  0.12526513510E+03 0.  0.
          5    1    4    4  502    0 -0.18307553421E+02  0.22037304639E+01 -0.77399407712E+01  0.20543116204E+02  0.47000000000E+01 0. -1.
         -5    1    4    4    0  502 -0.13134604181E+02 -0.49096502478E+02 -0.61534205949E+03  0.61745520045E+03  0.47000000000E+01 0. -1.
          5    1    5    5  503    0  0.76316938620E+02  0.78344358974E+01 -0.44622108759E+03  0.45279244972E+03  0.47000000000E+01 0.  1.
         -5    1    5    5    0  503 -0.44874781018E+02  0.39058336117E+02 -0.27512373724E+03  0.28152168723E+03  0.47000000000E+01 0.  1.
<mgrwt>
<rscale>  0 0.27524168E+03</rscale>
<asrwt>0</asrwt>
<pdfrwt beam="1">  1        2 0.21450477E-02 0.27524168E+03</pdfrwt>
<pdfrwt beam="2">  1       -2 0.20898000E+00 0.27524168E+03</pdfrwt>
<totfact> 0.62966539E+02</totfact>
</mgrwt>
</event>
<event>
 9    1  0.8285222E-001  0.2756800E+03  0.7818608E-02  0.1098072E+00
         -2   -1    0    0    0  501 -0.00000000000E+00  0.00000000000E+00  0.28049460287E+03  0.28049460287E+03  0.00000000000E+00 0. -1.
          2   -1    0    0  501    0  0.00000000000E+00 -0.00000000000E+00 -0.67737021180E+02  0.67737021180E+02  0.00000000000E+00 0. -1.
         35    2    1    2    0    0  0.14210854715E-13  0.71054273576E-14  0.21275758169E+03  0.34823162405E+03  0.27568002362E+03 0.  0.
         25    2    3    3    0    0 -0.53203768689E+02 -0.14358959196E+02  0.82519917394E+02  0.15963983882E+03  0.12505407094E+03 0.  0.
         25    2    3    3    0    0  0.53203768689E+02  0.14358959196E+02  0.13023766430E+03  0.18859178523E+03  0.12477255926E+03 0.  0.
          5    1    4    4  502    0 -0.15496658490E+02  0.52160147757E+02  0.12889630995E+02  0.56116486219E+02  0.47000000000E+01 0.  1.
         -5    1    4    4    0  502 -0.37707110199E+02 -0.66519106953E+02  0.69630286398E+02  0.10352335260E+03  0.47000000000E+01 0.  1.
          5    1    5    5  503    0  0.27151457130E+02  0.10843672437E+02  0.15155549885E+03  0.15442132653E+03  0.47000000000E+01 0.  1.
         -5    1    5    5    0  503  0.26052311559E+02  0.35152867589E+01 -0.21317834546E+02  0.34170458708E+02  0.47000000000E+01 0.  1.
<mgrwt>
<rscale>  0 0.27568002E+03</rscale>
<asrwt>0</asrwt>
<pdfrwt beam="1">  1        2 0.10421080E-01 0.27568002E+03</pdfrwt>
<pdfrwt beam="2">  1       -2 0.43153015E-01 0.27568002E+03</pdfrwt>
<totfact> 0.31169878E+03</totfact>
</mgrwt>
</event>
<event>
 9    1  0.8285222E-001  0.2777371E+03  0.7818608E-02  0.1096931E+00
         -1   -1    0    0    0  501 -0.00000000000E+00  0.00000000000E+00  0.16923088857E+03  0.16923088857E+03  0.00000000000E+00 0. -1.
          1   -1    0    0  501    0  0.00000000000E+00 -0.00000000000E+00 -0.11395363022E+03  0.11395363022E+03  0.00000000000E+00 0. -1.
         35    2    1    2    0    0  0.35527136788E-14 -0.71054273576E-14  0.55277258349E+02  0.28318451879E+03  0.27773709942E+03 0.  0.
         25    2    3    3    0    0  0.27103458316E+02 -0.19714295667E+02  0.79414651911E+02  0.15179023306E+03  0.12494133426E+03 0.  0.
         25    2    3    3    0    0 -0.27103458316E+02  0.19714295667E+02 -0.24137393562E+02  0.13139428574E+03  0.12473409177E+03 0.  0.
          5    1    4    4  502    0 -0.34372486483E+02 -0.27444892084E+02  0.77959410445E+02  0.89635091374E+02  0.47000000000E+01 0. -1.
         -5    1    4    4    0  502  0.61475944799E+02  0.77305964172E+01  0.14552414658E+01  0.62155141683E+02  0.47000000000E+01 0. -1.
          5    1    5    5  503    0 -0.17956748255E+02 -0.33921397551E+02 -0.56085503448E+02  0.68123268541E+02  0.47000000000E+01 0.  1.
         -5    1    5    5    0  503 -0.91467100611E+01  0.53635693218E+02  0.31948109886E+02  0.63271017197E+02  0.47000000000E+01 0.  1.
<mgrwt>
<rscale>  0 0.27773710E+03</rscale>
<asrwt>0</asrwt>
<pdfrwt beam="1">  1        1 0.17531328E-01 0.27773710E+03</pdfrwt>
<pdfrwt beam="2">  1       -1 0.26035522E-01 0.27773710E+03</pdfrwt>
<totfact> 0.39242977E+03</totfact>
</mgrwt>
</event>
<event>
 9    1  0.8285222E-001  0.2742612E+03  0.7818608E-02  0.1098865E+00
          2   -1    0    0  501    0  0.00000000000E+00  0.00000000000E+00  0.27222288784E+03  0.27222288784E+03  0.00000000000E+00 0.  1.
         -2   -1    0    0    0  501 -0.00000000000E+00 -0.00000000000E+00 -0.69078711761E+02  0.69078711761E+02  0.00000000000E+00 0.  1.
         35    2    1    2    0    0  0.00000000000E+00  0.00000000000E+00  0.20314417608E+03  0.34130159960E+03  0.27426123608E+03 0.  0.
         25    2    3    3    0    0  0.92286768040E+01  0.54695964259E+02  0.11168510231E+03  0.17662071449E+03  0.12507796660E+03 0.  0.
         25    2    3    3    0    0 -0.92286768040E+01 -0.54695964259E+02  0.91459073766E+02  0.16468088510E+03  0.12521267812E+03 0.  0.
          5    1    4    4  502    0 -0.31660050464E+02  0.13024613687E+02 -0.14523615545E+02  0.37483659981E+02  0.47000000000E+01 0.  1.
         -5    1    4    4    0  502  0.40888727268E+02  0.41671350572E+02  0.12620871785E+03  0.13913705451E+03  0.47000000000E+01 0.  1.
          5    1    5    5  503    0 -0.56726110933E+02  0.70400634471E+01  0.51153281244E+02  0.76851560406E+02  0.47000000000E+01 0.  1.
         -5    1    5    5    0  503  0.47497434129E+02 -0.61736027706E+02  0.40305792522E+02  0.87829324696E+02  0.47000000000E+01 0.  1.
<mgrwt>
<rscale>  0 0.27426124E+03</rscale>
<asrwt>0</asrwt>
<pdfrwt beam="1">  1        2 0.41880444E-01 0.27426124E+03</pdfrwt>
<pdfrwt beam="2">  1       -2 0.10627494E-01 0.27426124E+03</pdfrwt>
<totfact> 0.72574920E+03</totfact>
</mgrwt>
</event>
<event>
 9    1  0.8285222E-001  0.2746556E+03  0.7818608E-02  0.1098644E+00
         -1   -1    0    0    0  501 -0.00000000000E+00  0.00000000000E+00  0.11908280367E+04  0.11908280367E+04  0.00000000000E+00 0. -1.
          1   -1    0    0  501    0  0.00000000000E+00 -0.00000000000E+00 -0.15836813285E+02  0.15836813285E+02  0.00000000000E+00 0. -1.
         35    2    1    2    0    0 -0.71054273576E-14 -0.17763568394E-14  0.11749912234E+04  0.12066648500E+04  0.27465557538E+03 0.  0.
         25    2    3    3    0    0 -0.36010901627E+02  0.12952580334E+02  0.78072888610E+03  0.79136018660E+03  0.12348601931E+03 0.  0.
         25    2    3    3    0    0  0.36010901627E+02 -0.12952580334E+02  0.39426233730E+03  0.41530466337E+03  0.12478228414E+03 0.  0.
          5    1    4    4  502    0  0.13056879945E+02  0.21018825327E+02  0.30876986581E+02  0.39846598755E+02  0.47000000000E+01 0. -1.
         -5    1    4    4    0  502 -0.49067781573E+02 -0.80662449932E+01  0.74985189952E+03  0.75151358784E+03  0.47000000000E+01 0. -1.
          5    1    5    5  503    0  0.71641614799E+02 -0.68211128703E+01  0.13108719588E+03  0.14961614711E+03  0.47000000000E+01 0. -1.
         -5    1    5    5    0  503 -0.35630713172E+02 -0.61314674638E+01  0.26317514142E+03  0.26568851627E+03  0.47000000000E+01 0. -1.
<mgrwt>
<rscale>  0 0.27465558E+03</rscale>
<asrwt>0</asrwt>
<pdfrwt beam="1">  1        1 0.24364337E-02 0.27465558E+03</pdfrwt>
<pdfrwt beam="2">  1       -1 0.18320424E+00 0.27465558E+03</pdfrwt>
<totfact> 0.99348584E+02</totfact>
</mgrwt>
</event>
<event>
 9    1  0.8285222E-001  0.2746037E+03  0.7818608E-02  0.1098673E+00
          1   -1    0    0  501    0  0.00000000000E+00  0.00000000000E+00  0.36679505001E+02  0.36679505001E+02  0.00000000000E+00 0.  1.
         -1   -1    0    0    0  501 -0.00000000000E+00 -0.00000000000E+00 -0.51395994439E+03  0.51395994439E+03  0.00000000000E+00 0.  1.
         35    2    1    2    0    0  0.00000000000E+00  0.00000000000E+00 -0.47728043939E+03  0.55063944939E+03  0.27460368789E+03 0.  0.
         25    2    3    3    0    0  0.90593263517E+01  0.27884593130E+02 -0.14275147721E+03  0.19229276822E+03  0.12545478284E+03 0.  0.
         25    2    3    3    0    0 -0.90593263517E+01 -0.27884593130E+02 -0.33452896218E+03  0.35834668117E+03  0.12507236082E+03 0.  0.
          5    1    4    4  502    0 -0.57324698784E+02  0.13467286898E+02 -0.81828893893E+02  0.10092346993E+03  0.47000000000E+01 0. -1.
         -5    1    4    4    0  502  0.66384025136E+02  0.14417306232E+02 -0.60922583319E+02  0.91369298293E+02  0.47000000000E+01 0. -1.
          5    1    5    5  503    0 -0.89236477875E+01 -0.33366935558E+02 -0.34437554787E+03  0.34613522192E+03  0.47000000000E+01 0.  1.
         -5    1    5    5    0  503 -0.13567856417E+00  0.54823424283E+01  0.98465856958E+01  0.12211459251E+02  0.47000000000E+01 0.  1.
<mgrwt>
<rscale>  0 0.27460369E+03</rscale>
<asrwt>0</asrwt>
<pdfrwt beam="1">  1        1 0.56430011E-02 0.27460369E+03</pdfrwt>
<pdfrwt beam="2">  1       -1 0.79070756E-01 0.27460369E+03</pdfrwt>
<totfact> 0.23468184E+03</totfact>
</mgrwt>
</event>
<event>
 9    1  0.8285222E-001  0.2730639E+03  0.7818608E-02  0.1099539E+00
          1   -1    0    0  501    0  0.00000000000E+00  0.00000000000E+00  0.62773508103E+02  0.62773508103E+02  0.00000000000E+00 0. -1.
         -1   -1    0    0    0  501 -0.00000000000E+00 -0.00000000000E+00 -0.29695602539E+03  0.29695602539E+03  0.00000000000E+00 0. -1.
         35    2    1    2    0    0  0.71054273576E-14  0.00000000000E+00 -0.23418251728E+03  0.35972953349E+03  0.27306388605E+03 0.  0.
         25    2    3    3    0    0  0.55298453475E+02  0.46002566749E+01 -0.11212967246E+03  0.17641676372E+03  0.12438138830E+03 0.  0.
         25    2    3    3    0    0 -0.55298453475E+02 -0.46002566749E+01 -0.12205284482E+03  0.18331276977E+03  0.12501037283E+03 0.  0.
          5    1    4    4  502    0  0.12340769980E+02 -0.53416676043E+02 -0.80389576646E+02  0.97417708434E+02  0.47000000000E+01 0. -1.
         -5    1    4    4    0  502  0.42957683495E+02  0.58016932718E+02 -0.31740095818E+02  0.78999055284E+02  0.47000000000E+01 0. -1.
          5    1    5    5  503    0  0.29795312390E+02  0.20955680313E+01  0.45235478699E+01  0.30572937888E+02  0.47000000000E+01 0. -1.
         -5    1    5    5    0  503 -0.85093765864E+02 -0.66958247062E+01 -0.12657639269E+03  0.15273983188E+03  0.47000000000E+01 0. -1.
<mgrwt>
<rscale>  0 0.27306389E+03</rscale>
<asrwt>0</asrwt>
<pdfrwt beam="1">  1        1 0.96574628E-02 0.27306389E+03</pdfrwt>
<pdfrwt beam="2">  1       -1 0.45685542E-01 0.27306389E+03</pdfrwt>
<totfact> 0.32502394E+03</totfact>
</mgrwt>
</event>
<event>
 9    1  0.8285222E-001  0.2694038E+03  0.7818608E-02  0.1101621E+00
          1   -1    0    0  501    0  0.00000000000E+00  0.00000000000E+00  0.16038515341E+02  0.16038515341E+02  0.00000000000E+00 0. -1.
         -1   -1    0    0    0  501 -0.00000000000E+00 -0.00000000000E+00 -0.11313139525E+04  0.11313139525E+04  0.00000000000E+00 0. -1.
         35    2    1    2    0    0 -0.35527136788E-14 -0.71054273576E-14 -0.11152754372E+04  0.11473524678E+04  0.26940375783E+03 0.  0.
         25    2    3    3    0    0 -0.19815618598E+02  0.19939483983E+02 -0.71480222217E+03  0.72618129251E+03  0.12492722282E+03 0.  0.
         25    2    3    3    0    0  0.19815618598E+02 -0.19939483983E+02 -0.40047321499E+03  0.42117117534E+03  0.12734253512E+03 0.  0.
          5    1    4    4  502    0 -0.21020228944E+02  0.64596520532E+02 -0.58238915527E+03  0.58635635809E+03  0.47000000000E+01 0.  1.
         -5    1    4    4    0  502  0.12046103465E+01 -0.44657036549E+02 -0.13241306690E+03  0.13982493442E+03  0.47000000000E+01 0.  1.
          5    1    5    5  503    0  0.16145587368E+02 -0.36556437068E+02 -0.29785161796E+02  0.50062949831E+02  0.47000000000E+01 0. -1.
         -5    1    5    5    0  503  0.36700312295E+01  0.16616953085E+02 -0.37068805320E+03  0.37110822551E+03  0.47000000000E+01 0. -1.
<mgrwt>
<rscale>  0 0.26940376E+03</rscale>
<asrwt>0</asrwt>
<pdfrwt beam="1">  1        1 0.24674639E-02 0.26940376E+03</pdfrwt>
<pdfrwt beam="2">  1       -1 0.17404830E+00 0.26940376E+03</pdfrwt>
<totfact> 0.11307421E+03</totfact>
</mgrwt>
</event>
<event>
 9    1  0.8285222E-001  0.2997486E+03  0.7818608E-02  0.1085366E+00
          1   -1    0    0  501    0  0.00000000000E+00  0.00000000000E+00  0.22625753949E+03  0.22625753949E+03  0.00000000000E+00 0.  1.
         -1   -1    0    0    0  501 -0.00000000000E+00 -0.00000000000E+00 -0.99277590180E+02  0.99277590180E+02  0.00000000000E+00 0.  1.
         35    2    1    2    0    0  0.00000000000E+00  0.00000000000E+00  0.12697994931E+03  0.32553512967E+03  0.29974858319E+03 0.  0.
         25    2    3    3    0    0 -0.74021385497E+02  0.13528444540E+02  0.10034271605E+03  0.17707134813E+03  0.12499366921E+03 0.  0.
         25    2    3    3    0    0  0.74021385497E+02 -0.13528444540E+02  0.26637233266E+02  0.14846378154E+03  0.12517894356E+03 0.  0.
          5    1    4    4  502    0  0.26025571968E+02 -0.26221966708E+02  0.34649315827E+02  0.50868330242E+02  0.47000000000E+01 0.  1.
         -5    1    4    4    0  502 -0.10004695746E+03  0.39750411249E+02  0.65693400220E+02  0.12620301789E+03  0.47000000000E+01 0.  1.
          5    1    5    5  503    0  0.10573018953E+03 -0.19796209473E+02  0.37544816067E+02  0.11402835657E+03  0.47000000000E+01 0. -1.
         -5    1    5    5    0  503 -0.31708804034E+02  0.62677649333E+01 -0.10907582801E+02  0.34435424974E+02  0.47000000000E+01 0. -1.
<mgrwt>
<rscale>  0 0.29974858E+03</rscale>
<asrwt>0</asrwt>
<pdfrwt beam="1">  1        1 0.34808852E-01 0.29974858E+03</pdfrwt>
<pdfrwt beam="2">  1       -1 0.15273476E-01 0.29974858E+03</pdfrwt>
<totfact> 0.39048182E+03</totfact>
</mgrwt>
</event>
<event>
 9    1  0.8285222E-001  0.2720084E+03  0.7818608E-02  0.1100136E+00
         -2   -1    0    0    0  501 -0.00000000000E+00  0.00000000000E+00  0.26919517933E+02  0.26919517933E+02  0.00000000000E+00 0. -1.
          2   -1    0    0  501    0  0.00000000000E+00 -0.00000000000E+00 -0.68712776365E+03  0.68712776365E+03  0.00000000000E+00 0. -1.
         35    2    1    2    0    0  0.35527136788E-14  0.14210854715E-13 -0.66020824572E+03  0.71404728159E+03  0.27200844219E+03 0.  0.
         25    2    3    3    0    0  0.19502682731E+02 -0.49635616998E+02 -0.32440724375E+03  0.35176458322E+03  0.12511679785E+03 0.  0.
         25    2    3    3    0    0 -0.19502682731E+02  0.49635616998E+02 -0.33580100197E+03  0.36228269837E+03  0.12506954665E+03 0.  0.
          5    1    4    4  502    0 -0.50278266966E+02 -0.61030341566E+00 -0.12700831401E+03  0.13668020496E+03  0.47000000000E+01 0. -1.
         -5    1    4    4    0  502  0.69780949697E+02 -0.49025313582E+02 -0.19739892973E+03  0.21508437826E+03  0.47000000000E+01 0. -1.
          5    1    5    5  503    0  0.14463185850E+02 -0.38375736579E+02 -0.92641359137E+02  0.10142185329E+03  0.47000000000E+01 0. -1.
         -5    1    5    5    0  503 -0.33965868580E+02  0.88011353577E+02 -0.24315964284E+03  0.26086084507E+03  0.47000000000E+01 0. -1.
<mgrwt>
<rscale>  0 0.27200844E+03</rscale>
<asrwt>0</asrwt>
<pdfrwt beam="1">  1        2 0.10571198E+00 0.27200844E+03</pdfrwt>
<pdfrwt beam="2">  1       -2 0.41414637E-02 0.27200844E+03</pdfrwt>
<totfact> 0.11135560E+04</totfact>
</mgrwt>
</event>
<event>
 9    1  0.8285222E-001  0.2738366E+03  0.7818608E-02  0.1099104E+00
         -1   -1    0    0    0  501 -0.00000000000E+00  0.00000000000E+00  0.29132763824E+03  0.29132763824E+03  0.00000000000E+00 0. -1.
          1   -1    0    0  501    0  0.00000000000E+00 -0.00000000000E+00 -0.64348945937E+02  0.64348945937E+02  0.00000000000E+00 0. -1.
         35    2    1    2    0    0  0.00000000000E+00  0.00000000000E+00  0.22697869231E+03  0.35567658418E+03  0.27383664067E+03 0.  0.
         25    2    3    3    0    0  0.29326780837E+02 -0.43607903348E+02  0.11743010133E+03  0.17914917313E+03  0.12467112025E+03 0.  0.
         25    2    3    3    0    0 -0.29326780837E+02  0.43607903348E+02  0.10954859098E+03  0.17652741106E+03  0.12805984445E+03 0.  0.
          5    1    4    4  502    0  0.59638403859E+02  0.20930781925E+02  0.47869498862E+02  0.79425535995E+02  0.47000000000E+01 0. -1.
         -5    1    4    4    0  502 -0.30311623022E+02 -0.64538685274E+02  0.69560602466E+02  0.99723637130E+02  0.47000000000E+01 0. -1.
          5    1    5    5  503    0 -0.52961529891E+01 -0.79392355191E+01 -0.26737279349E+02  0.28775906660E+02  0.47000000000E+01 0. -1.
         -5    1    5    5    0  503 -0.24030627848E+02  0.51547138868E+02  0.13628587033E+03  0.14775150440E+03  0.47000000000E+01 0. -1.
<mgrwt>
<rscale>  0 0.27383664E+03</rscale>
<asrwt>0</asrwt>
<pdfrwt beam="1">  1        1 0.98998380E-02 0.27383664E+03</pdfrwt>
<pdfrwt beam="2">  1       -1 0.44819636E-01 0.27383664E+03</pdfrwt>
<totfact> 0.32549131E+03</totfact>
</mgrwt>
</event>
<event>
 9    1  0.8285222E-001  0.2718348E+03  0.7818608E-02  0.1100234E+00
          1   -1    0    0  501    0  0.00000000000E+00  0.00000000000E+00  0.36608406080E+03  0.36608406080E+03  0.00000000000E+00 0.  1.
         -1   -1    0    0    0  501 -0.00000000000E+00 -0.00000000000E+00 -0.50462566876E+02  0.50462566876E+02  0.00000000000E+00 0.  1.
         35    2    1    2    0    0 -0.71054273576E-14  0.17763568394E-14  0.31562149392E+03  0.41654662767E+03  0.27183481308E+03 0.  0.
         25    2    3    3    0    0  0.34723178799E+02  0.80486206445E+01  0.22044972144E+03  0.25529412259E+03  0.12371956153E+03 0.  0.
         25    2    3    3    0    0 -0.34723178799E+02 -0.80486206445E+01  0.95171772477E+02  0.16125250508E+03  0.12519674388E+03 0.  0.
          5    1    4    4  502    0 -0.35685686186E+02 -0.15711130079E+02  0.26062159434E+02  0.47134212216E+02  0.47000000000E+01 0.  1.
         -5    1    4    4    0  502  0.70408864985E+02  0.23759750724E+02  0.19438756201E+03  0.20815991037E+03  0.47000000000E+01 0.  1.
          5    1    5    5  503    0  0.22866129453E+01  0.42605485666E+02 -0.47388066466E+01  0.43185672347E+02  0.47000000000E+01 0.  1.
         -5    1    5    5    0  503 -0.37009791744E+02 -0.50654106311E+02  0.99910579124E+02  0.11806683273E+03  0.47000000000E+01 0.  1.
<mgrwt>
<rscale>  0 0.27183481E+03</rscale>
<asrwt>0</asrwt>
<pdfrwt beam="1">  1        1 0.56320623E-01 0.27183481E+03</pdfrwt>
<pdfrwt beam="2">  1       -1 0.77634721E-02 0.27183481E+03</pdfrwt>
<totfact> 0.60840683E+03</totfact>
</mgrwt>
</event>
<event>
 9    1  0.8285222E-001  0.2767979E+03  0.7818608E-02  0.1097451E+00
          2   -1    0    0  501    0  0.00000000000E+00  0.00000000000E+00  0.14253648884E+04  0.14253648884E+04  0.00000000000E+00 0.  1.
         -2   -1    0    0    0  501 -0.00000000000E+00 -0.00000000000E+00 -0.13438155712E+02  0.13438155712E+02  0.00000000000E+00 0.  1.
         35    2    1    2    0    0  0.00000000000E+00  0.00000000000E+00  0.14119267327E+04  0.14388030442E+04  0.27679794303E+03 0.  0.
         25    2    3    3    0    0 -0.10494055670E+02 -0.20235226670E+02  0.98123455204E+03  0.98941565432E+03  0.12490997273E+03 0.  0.
         25    2    3    3    0    0  0.10494055670E+02  0.20235226670E+02  0.43069218069E+03  0.44938738984E+03  0.12622868942E+03 0.  0.
          5    1    4    4  502    0 -0.42286824394E+02 -0.51617534801E+02  0.79627350123E+03  0.79907829665E+03  0.47000000000E+01 0. -1.
         -5    1    4    4    0  502  0.31792768724E+02  0.31382308131E+02  0.18496105081E+03  0.19033735766E+03  0.47000000000E+01 0. -1.
          5    1    5    5  503    0 -0.13130110519E+02  0.47568158542E+02  0.39596550432E+03  0.39905626185E+03  0.47000000000E+01 0.  1.
         -5    1    5    5    0  503  0.23624166189E+02 -0.27332931872E+02  0.34726676372E+02  0.50331127990E+02  0.47000000000E+01 0.  1.
<mgrwt>
<rscale>  0 0.27679794E+03</rscale>
<asrwt>0</asrwt>
<pdfrwt beam="1">  1        2 0.21928679E+00 0.27679794E+03</pdfrwt>
<pdfrwt beam="2">  1       -2 0.20674097E-02 0.27679794E+03</pdfrwt>
<totfact> 0.11020650E+04</totfact>
</mgrwt>
</event>
<event>
 9    1  0.8285222E-001  0.2755801E+03  0.7818608E-02  0.1098128E+00
         -2   -1    0    0    0  501 -0.00000000000E+00  0.00000000000E+00  0.14528958054E+04  0.14528958054E+04  0.00000000000E+00 0. -1.
          2   -1    0    0  501    0  0.00000000000E+00 -0.00000000000E+00 -0.13067761323E+02  0.13067761323E+02  0.00000000000E+00 0. -1.
         35    2    1    2    0    0 -0.35527136788E-14  0.00000000000E+00  0.14398280441E+04  0.14659635667E+04  0.27558008355E+03 0.  0.
         25    2    3    3    0    0  0.15863504598E+02  0.50071646488E+02  0.74631432209E+03  0.75929738528E+03  0.12957095113E+03 0.  0.
         25    2    3    3    0    0 -0.15863504598E+02 -0.50071646488E+02  0.69351372196E+03  0.70666618141E+03  0.12512788999E+03 0.  0.
          5    1    4    4  502    0 -0.31054749840E+02  0.63465587804E+02  0.22981538560E+03  0.24047760765E+03  0.47000000000E+01 0.  1.
         -5    1    4    4    0  502  0.46918254438E+02 -0.13393941315E+02  0.51649893650E+03  0.51881977763E+03  0.47000000000E+01 0.  1.
          5    1    5    5  503    0  0.44404194527E+02  0.39690298383E+01  0.38779247415E+03  0.39037492068E+03  0.47000000000E+01 0. -1.
         -5    1    5    5    0  503 -0.60267699125E+02 -0.54040676327E+02  0.30572124781E+03  0.31629126074E+03  0.47000000000E+01 0. -1.
<mgrwt>
<rscale>  0 0.27558008E+03</rscale>
<asrwt>0</asrwt>
<pdfrwt beam="1">  1        2 0.20104260E-02 0.27558008E+03</pdfrwt>
<pdfrwt beam="2">  1       -2 0.22352230E+00 0.27558008E+03</pdfrwt>
<totfact> 0.56093052E+02</totfact>
</mgrwt>
</event>
<event>
 9    1  0.8285222E-001  0.2744079E+03  0.7818608E-02  0.1098783E+00
         -2   -1    0    0    0  501 -0.00000000000E+00  0.00000000000E+00  0.28364797931E+03  0.28364797931E+03  0.00000000000E+00 0. -1.
          2   -1    0    0  501    0  0.00000000000E+00 -0.00000000000E+00 -0.66367193918E+02  0.66367193918E+02  0.00000000000E+00 0. -1.
         35    2    1    2    0    0 -0.14210854715E-13  0.35527136788E-14  0.21728078539E+03  0.35001517323E+03  0.27440787487E+03 0.  0.
         25    2    3    3    0    0  0.46947069832E+02 -0.23905727907E+02  0.87409404089E+02  0.16176463563E+03  0.12550650272E+03 0.  0.
         25    2    3    3    0    0 -0.46947069832E+02  0.23905727907E+02  0.12987138130E+03  0.18825053760E+03  0.12568284701E+03 0.  0.
          5    1    4    4  502    0 -0.67796376943E+01  0.59058934560E+01  0.98611319324E+02  0.99131858470E+02  0.47000000000E+01 0.  1.
         -5    1    4    4    0  502  0.53726707526E+02 -0.29811621363E+02 -0.11201915235E+02  0.62632777160E+02  0.47000000000E+01 0.  1.
          5    1    5    5  503    0 -0.86811243712E+02  0.16000195405E+02  0.11425658058E+03  0.14446056380E+03  0.47000000000E+01 0. -1.
         -5    1    5    5    0  503  0.39864173881E+02  0.79055325015E+01  0.15614800718E+02  0.43789973793E+02  0.47000000000E+01 0. -1.
<mgrwt>
<rscale>  0 0.27440787E+03</rscale>
<asrwt>0</asrwt>
<pdfrwt beam="1">  1        2 0.10210338E-01 0.27440787E+03</pdfrwt>
<pdfrwt beam="2">  1       -2 0.43638150E-01 0.27440787E+03</pdfrwt>
<totfact> 0.31278180E+03</totfact>
</mgrwt>
</event>
<event>
 9    1  0.8285222E-001  0.2750832E+03  0.7818608E-02  0.1098405E+00
         -1   -1    0    0    0  501 -0.00000000000E+00  0.00000000000E+00  0.60588339852E+03  0.60588339852E+03  0.00000000000E+00 0. -1.
          1   -1    0    0  501    0  0.00000000000E+00 -0.00000000000E+00 -0.31223316744E+02  0.31223316744E+02  0.00000000000E+00 0. -1.
         35    2    1    2    0    0 -0.14210854715E-13  0.00000000000E+00  0.57466008178E+03  0.63710671527E+03  0.27508318205E+03 0.  0.
         25    2    3    3    0    0  0.42870741492E+02  0.25556990482E+02  0.35475527962E+03  0.37939502844E+03  0.12489282986E+03 0.  0.
         25    2    3    3    0    0 -0.42870741492E+02 -0.25556990482E+02  0.21990480216E+03  0.25771168683E+03  0.12476430289E+03 0.  0.
          5    1    4    4  502    0  0.58928376219E+02  0.39011250175E+01  0.34544495819E+03  0.35048834708E+03  0.47000000000E+01 0. -1.
         -5    1    4    4    0  502 -0.16057634728E+02  0.21655865464E+02  0.93103214237E+01  0.28906681357E+02  0.47000000000E+01 0. -1.
          5    1    5    5  503    0  0.30087501639E+02  0.26073198195E+02  0.10265366078E+03  0.11020405388E+03  0.47000000000E+01 0. -1.
         -5    1    5    5    0  503 -0.72958243130E+02 -0.51630188677E+02  0.11725114138E+03  0.14750763295E+03  0.47000000000E+01 0. -1.
<mgrwt>
<rscale>  0 0.27508318E+03</rscale>
<asrwt>0</asrwt>
<pdfrwt beam="1">  1        1 0.48035876E-02 0.27508318E+03</pdfrwt>
<pdfrwt beam="2">  1       -1 0.93212822E-01 0.27508318E+03</pdfrwt>
<totfact> 0.20696892E+03</totfact>
</mgrwt>
</event>
<event>
 9    1  0.8285222E-001  0.2759466E+03  0.7818608E-02  0.1097924E+00
          2   -1    0    0  501    0  0.00000000000E+00  0.00000000000E+00  0.12150891805E+03  0.12150891805E+03  0.00000000000E+00 0. -1.
         -2   -1    0    0    0  501 -0.00000000000E+00 -0.00000000000E+00 -0.15666860382E+03  0.15666860382E+03  0.00000000000E+00 0. -1.
         35    2    1    2    0    0  0.00000000000E+00  0.00000000000E+00 -0.35159685769E+02  0.27817752187E+03  0.27594660746E+03 0.  0.
         25    2    3    3    0    0 -0.32459363764E+02 -0.23672088028E+02  0.26842532856E+02  0.13313842599E+03  0.12406184287E+03 0.  0.
         25    2    3    3    0    0  0.32459363764E+02  0.23672088028E+02 -0.62002218626E+02  0.14503909588E+03  0.12481220362E+03 0.  0.
          5    1    4    4  502    0  0.22648994764E+02  0.38740511592E+02  0.20336975661E+02  0.49492290120E+02  0.47000000000E+01 0.  1.
         -5    1    4    4    0  502 -0.55108358529E+02 -0.62412599620E+02  0.65055571958E+01  0.83646135867E+02  0.47000000000E+01 0.  1.
          5    1    5    5  503    0  0.33205910068E+02  0.56584989109E+02  0.92350968877E+01  0.66421912577E+02  0.47000000000E+01 0.  1.
         -5    1    5    5    0  503 -0.74654630336E+00 -0.32912901081E+02 -0.71237315513E+02  0.78617183303E+02  0.47000000000E+01 0.  1.
<mgrwt>
<rscale>  0 0.27594661E+03</rscale>
<asrwt>0</asrwt>
<pdfrwt beam="1">  1        2 0.18693680E-01 0.27594661E+03</pdfrwt>
<pdfrwt beam="2">  1       -2 0.24102862E-01 0.27594661E+03</pdfrwt>
<totfact> 0.45280255E+03</totfact>
</mgrwt>
</event>
<event>
 9    1  0.8285222E-001  0.2780436E+03  0.7818608E-02  0.1096762E+00
         -2   -1    0    0    0  501 -0.00000000000E+00  0.00000000000E+00  0.17102779180E+02  0.17102779180E+02  0.00000000000E+00 0. -1.
          2   -1    0    0  501    0  0.00000000000E+00 -0.00000000000E+00 -0.11300541831E+04  0.11300541831E+04  0.00000000000E+00 0. -1.
         35    2    1    2    0    0  0.00000000000E+00  0.14210854715E-13 -0.11129514040E+04  0.11471569623E+04  0.27804364518E+03 0.  0.
         25    2    3    3    0    0 -0.83101789375E+00  0.35212735064E+02 -0.35394946564E+03  0.37712931566E+03  0.12532226139E+03 0.  0.
         25    2    3    3    0    0  0.83101789375E+00 -0.35212735064E+02 -0.75900193832E+03  0.77002764667E+03  0.12497202466E+03 0.  0.
          5    1    4    4  502    0  0.55742967171E+02  0.42664667209E+02 -0.15734690427E+03  0.17235919036E+03  0.47000000000E+01 0. -1.
         -5    1    4    4    0  502 -0.56573985064E+02 -0.74519321457E+01 -0.19660256136E+03  0.20477012530E+03  0.47000000000E+01 0. -1.
          5    1    5    5  503    0  0.74868084100E+01  0.46338067048E+02 -0.31713850969E+03  0.32062781085E+03  0.47000000000E+01 0.  1.
         -5    1    5    5    0  503 -0.66557905162E+01 -0.81550802112E+02 -0.44186342863E+03  0.44939983582E+03  0.47000000000E+01 0.  1.
<mgrwt>
<rscale>  0 0.27804365E+03</rscale>
<asrwt>0</asrwt>
<pdfrwt beam="1">  1        2 0.17385453E+00 0.27804365E+03</pdfrwt>
<pdfrwt beam="2">  1       -2 0.26311962E-02 0.27804365E+03</pdfrwt>
<totfact> 0.11282192E+04</totfact>
</mgrwt>
</event>
<event>
 9    1  0.8285222E-001  0.2776443E+03  0.7818608E-02  0.1096983E+00
          1   -1    0    0  501    0  0.00000000000E+00  0.00000000000E+00  0.21589771962E+03  0.21589771962E+03  0.00000000000E+00 0.  1.
         -1   -1    0    0    0  501 -0.00000000000E+00 -0.00000000000E+00 -0.89262599353E+02  0.89262599353E+02  0.00000000000E+00 0.  1.
         35    2    1    2    0    0 -0.71054273576E-14 -0.17763568394E-14  0.12663512026E+03  0.30516031897E+03  0.27764431669E+03 0.  0.
         25    2    3    3    0    0  0.37594770194E+02 -0.68634450414E+01  0.12646746092E+02  0.13134015707E+03  0.12501929070E+03 0.  0.
         25    2    3    3    0    0 -0.37594770194E+02  0.68634450414E+01  0.11398837417E+03  0.17382016190E+03  0.12553734749E+03 0.  0.
          5    1    4    4  502    0 -0.18108995723E+02 -0.21594251743E+01  0.56869233142E+02  0.59906581620E+02  0.47000000000E+01 0.  1.
         -5    1    4    4    0  502  0.55703765918E+02 -0.47040198671E+01 -0.44222487050E+02  0.71433575448E+02  0.47000000000E+01 0.  1.
          5    1    5    5  503    0 -0.25602441511E+02  0.31176016018E+02  0.13385672195E+03  0.13988259719E+03  0.47000000000E+01 0. -1.
         -5    1    5    5    0  503 -0.11992328683E+02 -0.24312570976E+02 -0.19868347782E+02  0.33937564708E+02  0.47000000000E+01 0. -1.
<mgrwt>
<rscale>  0 0.27764432E+03</rscale>
<asrwt>0</asrwt>
<pdfrwt beam="1">  1        1 0.33215034E-01 0.27764432E+03</pdfrwt>
<pdfrwt beam="2">  1       -1 0.13732708E-01 0.27764432E+03</pdfrwt>
<totfact> 0.48923442E+03</totfact>
</mgrwt>
</event>
<event>
 9    1  0.8285222E-001  0.2808938E+03  0.7818608E-02  0.1095202E+00
         -1   -1    0    0    0  501 -0.00000000000E+00  0.00000000000E+00  0.65270550172E+02  0.65270550172E+02  0.00000000000E+00 0.  1.
          1   -1    0    0  501    0  0.00000000000E+00 -0.00000000000E+00 -0.30220879172E+03  0.30220879172E+03  0.00000000000E+00 0.  1.
         35    2    1    2    0    0 -0.71054273576E-14  0.00000000000E+00 -0.23693824155E+03  0.36747934189E+03  0.28089381697E+03 0.  0.
         25    2    3    3    0    0  0.45507902736E+02 -0.26550536574E+02 -0.16293236157E+03  0.21281625359E+03  0.12636416874E+03 0.  0.
         25    2    3    3    0    0 -0.45507902736E+02  0.26550536574E+02 -0.74005879982E+02  0.15466308831E+03  0.12517148401E+03 0.  0.
          5    1    4    4  502    0  0.40199434374E+01  0.43323311041E+02 -0.19530205098E+02  0.47922730890E+02  0.47000000000E+01 0.  1.
         -5    1    4    4    0  502  0.41487959298E+02 -0.69873847615E+02 -0.14340215647E+03  0.16489352270E+03  0.47000000000E+01 0.  1.
          5    1    5    5  503    0 -0.32622344700E+02  0.42100507780E+02  0.20983123846E+02  0.57437371244E+02  0.47000000000E+01 0. -1.
         -5    1    5    5    0  503 -0.12885558035E+02 -0.15549971206E+02 -0.94989003828E+02  0.97225717064E+02  0.47000000000E+01 0. -1.
<mgrwt>
<rscale>  0 0.28089382E+03</rscale>
<asrwt>0</asrwt>
<pdfrwt beam="1">  1        1 0.46493660E-01 0.28089382E+03</pdfrwt>
<pdfrwt beam="2">  1       -1 0.10041623E-01 0.28089382E+03</pdfrwt>
<totfact> 0.52285103E+03</totfact>
</mgrwt>
</event>
<event>
 9    1  0.8285222E-001  0.2724318E+03  0.7818608E-02  0.1099896E+00
         -1   -1    0    0    0  501 -0.00000000000E+00  0.00000000000E+00  0.45536819389E+02  0.45536819389E+02  0.00000000000E+00 0. -1.
          1   -1    0    0  501    0  0.00000000000E+00 -0.00000000000E+00 -0.40746738412E+03  0.40746738412E+03  0.00000000000E+00 0. -1.
         35    2    1    2    0    0  0.71054273576E-14  0.14210854715E-13 -0.36193056473E+03  0.45300420351E+03  0.27243177992E+03 0.  0.
         25    2    3    3    0    0 -0.85667343226E+01 -0.52231286889E+02 -0.16969731730E+03  0.21738482917E+03  0.12512988527E+03 0.  0.
         25    2    3    3    0    0  0.85667343226E+01  0.52231286889E+02 -0.19223324742E+03  0.23561937433E+03  0.12554430246E+03 0.  0.
          5    1    4    4  502    0  0.57191184991E+02 -0.31944370583E+02 -0.68329381147E+02  0.94774832000E+02  0.47000000000E+01 0.  1.
         -5    1    4    4    0  502 -0.65757919313E+02 -0.20286916306E+02 -0.10136793616E+03  0.12260999717E+03  0.47000000000E+01 0.  1.
          5    1    5    5  503    0  0.15749031917E+02  0.75488405544E+02 -0.19587734159E+03  0.21056247131E+03  0.47000000000E+01 0. -1.
         -5    1    5    5    0  503 -0.71822975940E+01 -0.23257118655E+02  0.36440941627E+01  0.25056903023E+02  0.47000000000E+01 0. -1.
<mgrwt>
<rscale>  0 0.27243178E+03</rscale>
<asrwt>0</asrwt>
<pdfrwt beam="1">  1        1 0.62687292E-01 0.27243178E+03</pdfrwt>
<pdfrwt beam="2">  1       -1 0.70056643E-02 0.27243178E+03</pdfrwt>
<totfact> 0.62036636E+03</totfact>
</mgrwt>
</event>
<event>
 9    1  0.8285222E-001  0.2773958E+03  0.7818608E-02  0.1097120E+00
          2   -1    0    0  501    0  0.00000000000E+00  0.00000000000E+00  0.75487313779E+03  0.75487313779E+03  0.00000000000E+00 0. -1.
         -2   -1    0    0    0  501 -0.00000000000E+00 -0.00000000000E+00 -0.25483891978E+02  0.25483891978E+02  0.00000000000E+00 0. -1.
         35    2    1    2    0    0 -0.71054273576E-14  0.00000000000E+00  0.72938924581E+03  0.78035702977E+03  0.27739578584E+03 0.  0.
         25    2    3    3    0    0  0.16903859985E+02 -0.74144300969E+01  0.52888310372E+03  0.54369678222E+03  0.12469217833E+03 0.  0.
         25    2    3    3    0    0 -0.16903859985E+02  0.74144300969E+01  0.20050614209E+03  0.23666024755E+03  0.12435692783E+03 0.  0.
          5    1    4    4  502    0 -0.41153203271E+02 -0.25729388575E+02  0.10916060876E+03  0.11955633015E+03  0.47000000000E+01 0.  1.
         -5    1    4    4    0  502  0.58057063256E+02  0.18314958478E+02  0.41972249496E+03  0.42414045206E+03  0.47000000000E+01 0.  1.
          5    1    5    5  503    0 -0.52915684399E+02 -0.34183259916E+02  0.14595099302E+03  0.15903567926E+03  0.47000000000E+01 0.  1.
         -5    1    5    5    0  503  0.36011824414E+02  0.41597690013E+02  0.54555149067E+02  0.77624568287E+02  0.47000000000E+01 0.  1.
<mgrwt>
<rscale>  0 0.27739579E+03</rscale>
<asrwt>0</asrwt>
<pdfrwt beam="1">  1        2 0.11613431E+00 0.27739579E+03</pdfrwt>
<pdfrwt beam="2">  1       -2 0.39205993E-02 0.27739579E+03</pdfrwt>
<totfact> 0.10784580E+04</totfact>
</mgrwt>
</event>
<event>
 9    1  0.8285222E-001  0.2777446E+03  0.7818608E-02  0.1096927E+00
         -2   -1    0    0    0  501 -0.00000000000E+00  0.00000000000E+00  0.20971337112E+02  0.20971337112E+02  0.00000000000E+00 0.  1.
          2   -1    0    0  501    0  0.00000000000E+00 -0.00000000000E+00 -0.91961279570E+03  0.91961279570E+03  0.00000000000E+00 0.  1.
         35    2    1    2    0    0 -0.35527136788E-14  0.71054273576E-14 -0.89864145859E+03  0.94058413281E+03  0.27774455855E+03 0.  0.
         25    2    3    3    0    0 -0.13669421753E+01 -0.46305440519E+02 -0.31587883328E+03  0.34279137117E+03  0.12482157058E+03 0.  0.
         25    2    3    3    0    0  0.13669421753E+01  0.46305440519E+02 -0.58276262531E+03  0.59779276164E+03  0.12489133702E+03 0.  0.
          5    1    4    4  502    0  0.14618557255E+02 -0.61550937376E+02 -0.31375895444E+03  0.32010778122E+03  0.47000000000E+01 0. -1.
         -5    1    4    4    0  502 -0.15985499430E+02  0.15245496858E+02 -0.21198788356E+01  0.22683589944E+02  0.47000000000E+01 0. -1.
          5    1    5    5  503    0  0.52647779157E+02  0.77199203784E+01 -0.13103371021E+03  0.14150374211E+03  0.47000000000E+01 0. -1.
         -5    1    5    5    0  503 -0.51280836981E+02  0.38585520140E+02 -0.45172891510E+03  0.45628901953E+03  0.47000000000E+01 0. -1.
<mgrwt>
<rscale>  0 0.27774456E+03</rscale>
<asrwt>0</asrwt>
<pdfrwt beam="1">  1        2 0.14147891E+00 0.27774456E+03</pdfrwt>
<pdfrwt beam="2">  1       -2 0.32263592E-02 0.27774456E+03</pdfrwt>
<totfact> 0.11180650E+04</totfact>
</mgrwt>
</event>
<event>
 9    1  0.8285222E-001  0.2747386E+03  0.7818608E-02  0.1098598E+00
          1   -1    0    0  501    0  0.00000000000E+00  0.00000000000E+00  0.60514546330E+03  0.60514546330E+03  0.00000000000E+00 0. -1.
         -1   -1    0    0    0  501 -0.00000000000E+00 -0.00000000000E+00 -0.31183111963E+02  0.31183111963E+02  0.00000000000E+00 0. -1.
         35    2    1    2    0    0 -0.71054273576E-14  0.00000000000E+00  0.57396235134E+03  0.63632857526E+03  0.27473855744E+03 0.  0.
         25    2    3    3    0    0  0.27178331986E+02 -0.36232313194E+02  0.35436689198E+03  0.37958043923E+03  0.12827304261E+03 0.  0.
         25    2    3    3    0    0 -0.27178331986E+02  0.36232313194E+02  0.21959545935E+03  0.25674813604E+03  0.12508396117E+03 0.  0.
          5    1    4    4  502    0  0.25450108507E+02  0.33759525165E+02  0.25141973158E+03  0.25499291165E+03  0.47000000000E+01 0. -1.
         -5    1    4    4    0  502  0.17282234795E+01 -0.69991838359E+02  0.10294716040E+03  0.12458752758E+03  0.47000000000E+01 0. -1.
          5    1    5    5  503    0  0.25664606964E+02  0.66443426422E+02  0.13041270464E+03  0.14867065782E+03  0.47000000000E+01 0.  1.
         -5    1    5    5    0  503 -0.52842938950E+02 -0.30211113228E+02  0.89182754720E+02  0.10807747822E+03  0.47000000000E+01 0.  1.
<mgrwt>
<rscale>  0 0.27473856E+03</rscale>
<asrwt>0</asrwt>
<pdfrwt beam="1">  1        1 0.93099294E-01 0.27473856E+03</pdfrwt>
<pdfrwt beam="2">  1       -1 0.47974023E-02 0.27473856E+03</pdfrwt>
<totfact> 0.64850378E+03</totfact>
</mgrwt>
</event>
<event>
 9    1  0.8285222E-001  0.2763172E+03  0.7818608E-02  0.1097718E+00
         -2   -1    0    0    0  501 -0.00000000000E+00  0.00000000000E+00  0.17647711429E+02  0.17647711429E+02  0.00000000000E+00 0.  1.
          2   -1    0    0  501    0  0.00000000000E+00 -0.00000000000E+00 -0.10816022245E+04  0.10816022245E+04  0.00000000000E+00 0.  1.
         35    2    1    2    0    0 -0.71054273576E-14  0.00000000000E+00 -0.10639545131E+04  0.10992499359E+04  0.27631723753E+03 0.  0.
         25    2    3    3    0    0 -0.11701198838E+02 -0.34688593911E+02 -0.34455215315E+03  0.36858327165E+03  0.12568701326E+03 0.  0.
         25    2    3    3    0    0  0.11701198838E+02  0.34688593911E+02 -0.71940235991E+03  0.73066666427E+03  0.12244918218E+03 0.  0.
          5    1    4    4  502    0  0.34457248318E+02 -0.65137615443E+02 -0.16791355620E+03  0.18343190361E+03  0.47000000000E+01 0. -1.
         -5    1    4    4    0  502 -0.46158447156E+02  0.30449021533E+02 -0.17663859695E+03  0.18515136804E+03  0.47000000000E+01 0. -1.
          5    1    5    5  503    0  0.53984930808E+02  0.38224379553E+02 -0.60385085343E+03  0.60748120887E+03  0.47000000000E+01 0.  1.
         -5    1    5    5    0  503 -0.42283731970E+02 -0.35357856420E+01 -0.11555150649E+03  0.12318545540E+03  0.47000000000E+01 0.  1.
<mgrwt>
<rscale>  0 0.27631724E+03</rscale>
<asrwt>0</asrwt>
<pdfrwt beam="1">  1        2 0.16640034E+00 0.27631724E+03</pdfrwt>
<pdfrwt beam="2">  1       -2 0.27150326E-02 0.27631724E+03</pdfrwt>
<totfact> 0.11495404E+04</totfact>
</mgrwt>
</event>
<event>
 9    1  0.8285222E-001  0.2726691E+03  0.7818608E-02  0.1099762E+00
          2   -1    0    0  501    0  0.00000000000E+00  0.00000000000E+00  0.13683456750E+04  0.13683456750E+04  0.00000000000E+00 0. -1.
         -2   -1    0    0    0  501 -0.00000000000E+00 -0.00000000000E+00 -0.13583631331E+02  0.13583631331E+02  0.00000000000E+00 0. -1.
         35    2    1    2    0    0  0.35527136788E-14  0.00000000000E+00  0.13547620437E+04  0.13819293064E+04  0.27266905349E+03 0.  0.
         25    2    3    3    0    0 -0.12503834633E+02  0.50622933738E+02  0.72832383894E+03  0.74087499746E+03  0.12538389126E+03 0.  0.
         25    2    3    3    0    0  0.12503834633E+02 -0.50622933738E+02  0.62643820475E+03  0.64105430890E+03  0.12572499863E+03 0.  0.
          5    1    4    4  502    0 -0.16247588472E+02 -0.40123429606E+02  0.19022337045E+03  0.19514326635E+03  0.47000000000E+01 0. -1.
         -5    1    4    4    0  502  0.37437538385E+01  0.90746363343E+02  0.53810046849E+03  0.54573173111E+03  0.47000000000E+01 0. -1.
          5    1    5    5  503    0  0.56322947669E+02 -0.39223057284E+02  0.18679517602E+03  0.19906092143E+03  0.47000000000E+01 0. -1.
         -5    1    5    5    0  503 -0.43819113036E+02 -0.11399876453E+02  0.43964302873E+03  0.44199338746E+03  0.47000000000E+01 0. -1.
<mgrwt>
<rscale>  0 0.27266905E+03</rscale>
<asrwt>0</asrwt>
<pdfrwt beam="1">  1        2 0.21051461E+00 0.27266905E+03</pdfrwt>
<pdfrwt beam="2">  1       -2 0.20897905E-02 0.27266905E+03</pdfrwt>
<totfact> 0.11645285E+04</totfact>
</mgrwt>
</event>
<event>
 9    1  0.8285222E-001  0.2785263E+03  0.7818608E-02  0.1096497E+00
          3   -1    0    0  501    0  0.00000000000E+00  0.00000000000E+00  0.31264172083E+03  0.31264172083E+03  0.00000000000E+00 0. -1.
         -3   -1    0    0    0  501 -0.00000000000E+00 -0.00000000000E+00 -0.62033380099E+02  0.62033380099E+02  0.00000000000E+00 0. -1.
         35    2    1    2    0    0  0.00000000000E+00  0.00000000000E+00  0.25060834073E+03  0.37467510093E+03  0.27852628388E+03 0.  0.
         25    2    3    3    0    0  0.11072894083E+02 -0.66681138164E+02  0.91525667085E+02  0.16139567045E+03  0.11446672676E+03 0.  0.
         25    2    3    3    0    0 -0.11072894083E+02  0.66681138164E+02  0.15908267365E+03  0.21327943048E+03  0.12494732987E+03 0.  0.
          5    1    4    4  502    0 -0.10216992452E+02  0.25256579557E+02 -0.29183705826E+01  0.27800874672E+02  0.47000000000E+01 0.  1.
         -5    1    4    4    0  502  0.21289886535E+02 -0.91937717720E+02  0.94444037667E+02  0.13359479578E+03  0.47000000000E+01 0.  1.
          5    1    5    5  503    0 -0.24153368435E+02  0.46257669558E+02  0.10649948418E+00  0.52395214875E+02  0.47000000000E+01 0. -1.
         -5    1    5    5    0  503  0.13080474351E+02  0.20423468605E+02  0.15897617416E+03  0.16088421560E+03  0.47000000000E+01 0. -1.
<mgrwt>
<rscale>  0 0.27852628E+03</rscale>
<asrwt>0</asrwt>
<pdfrwt beam="1">  1        3 0.48098725E-01 0.27852628E+03</pdfrwt>
<pdfrwt beam="2">  1       -3 0.95435971E-02 0.27852628E+03</pdfrwt>
<totfact> 0.87693198E+02</totfact>
</mgrwt>
</event>
<event>
 9    1  0.8285222E-001  0.2760286E+03  0.7818608E-02  0.1097878E+00
          2   -1    0    0  501    0  0.00000000000E+00  0.00000000000E+00  0.10756464500E+04  0.10756464500E+04  0.00000000000E+00 0.  1.
         -2   -1    0    0    0  501 -0.00000000000E+00 -0.00000000000E+00 -0.17708368645E+02  0.17708368645E+02  0.00000000000E+00 0.  1.
         35    2    1    2    0    0  0.00000000000E+00 -0.71054273576E-14  0.10579380814E+04  0.10933548187E+04  0.27602857728E+03 0.  0.
         25    2    3    3    0    0  0.24020413541E+02  0.20780359811E+02  0.73084212189E+03  0.74199581884E+03  0.12417239805E+03 0.  0.
         25    2    3    3    0    0 -0.24020413541E+02 -0.20780359811E+02  0.32709595948E+03  0.35135899981E+03  0.12430839240E+03 0.  0.
          5    1    4    4  502    0 -0.27987853268E+02 -0.39356929919E+02  0.27444629348E+03  0.27870261188E+03  0.47000000000E+01 0.  1.
         -5    1    4    4    0  502  0.52008266809E+02  0.60137289730E+02  0.45639582841E+03  0.46329320696E+03  0.47000000000E+01 0.  1.
          5    1    5    5  503    0 -0.49962180740E+02 -0.98605507388E+01  0.31698569843E+03  0.32108483766E+03  0.47000000000E+01 0. -1.
         -5    1    5    5    0  503  0.25941767199E+02 -0.10919809072E+02  0.10110261048E+02  0.30274162152E+02  0.47000000000E+01 0. -1.
<mgrwt>
<rscale>  0 0.27602858E+03</rscale>
<asrwt>0</asrwt>
<pdfrwt beam="1">  1        2 0.16548402E+00 0.27602858E+03</pdfrwt>
<pdfrwt beam="2">  1       -2 0.27243653E-02 0.27602858E+03</pdfrwt>
<totfact> 0.11529949E+04</totfact>
</mgrwt>
</event>
<event>
 9    1  0.8285222E-001  0.2769314E+03  0.7818608E-02  0.1097377E+00
         -1   -1    0    0    0  501 -0.00000000000E+00  0.00000000000E+00  0.23192840782E+03  0.23192840782E+03  0.00000000000E+00 0. -1.
          1   -1    0    0  501    0  0.00000000000E+00 -0.00000000000E+00 -0.82666654113E+02  0.82666654113E+02  0.00000000000E+00 0. -1.
         35    2    1    2    0    0 -0.71054273576E-14  0.00000000000E+00  0.14926175370E+03  0.31459506193E+03  0.27693136672E+03 0.  0.
         25    2    3    3    0    0 -0.40501639524E+02  0.37425041621E+02  0.99264118594E+02  0.16925855677E+03  0.12551524710E+03 0.  0.
         25    2    3    3    0    0  0.40501639524E+02 -0.37425041621E+02  0.49997635110E+02  0.14533650516E+03  0.12482755974E+03 0.  0.
          5    1    4    4  502    0 -0.67219558448E+02 -0.22418156722E+02  0.45297032911E+02  0.84231549786E+02  0.47000000000E+01 0. -1.
         -5    1    4    4    0  502  0.26717918924E+02  0.59843198343E+02  0.53967085683E+02  0.85027006985E+02  0.47000000000E+01 0. -1.
          5    1    5    5  503    0  0.30937254035E+02  0.42499587067E+02  0.34983078885E+02  0.63318515430E+02  0.47000000000E+01 0.  1.
         -5    1    5    5    0  503  0.95643854893E+01 -0.79924628688E+02  0.15014556225E+02  0.82017989730E+02  0.47000000000E+01 0.  1.
<mgrwt>
<rscale>  0 0.27693137E+03</rscale>
<asrwt>0</asrwt>
<pdfrwt beam="1">  1        1 0.12717947E-01 0.27693137E+03</pdfrwt>
<pdfrwt beam="2">  1       -1 0.35681293E-01 0.27693137E+03</pdfrwt>
<totfact> 0.34934039E+03</totfact>
</mgrwt>
</event>
<event>
 9    1  0.8285222E-001  0.2754900E+03  0.7818608E-02  0.1098178E+00
          2   -1    0    0  501    0  0.00000000000E+00  0.00000000000E+00  0.14932336061E+03  0.14932336061E+03  0.00000000000E+00 0.  1.
         -2   -1    0    0    0  501 -0.00000000000E+00 -0.00000000000E+00 -0.12706441794E+03  0.12706441794E+03  0.00000000000E+00 0.  1.
         35    2    1    2    0    0  0.71054273576E-14  0.35527136788E-14  0.22258942674E+02  0.27638777855E+03  0.27549000636E+03 0.  0.
         25    2    3    3    0    0 -0.51611493265E+02  0.17920260170E+02 -0.94848401368E+01  0.13670111205E+03  0.12494938928E+03 0.  0.
         25    2    3    3    0    0  0.51611493265E+02 -0.17920260170E+02  0.31743782811E+02  0.13968666650E+03  0.12457854988E+03 0.  0.
          5    1    4    4  502    0  0.39827030115E+02 -0.77641440678E+01 -0.78383387348E+01  0.41593314547E+02  0.47000000000E+01 0. -1.
         -5    1    4    4    0  502 -0.91438523380E+02  0.25684404237E+02 -0.16465014020E+01  0.95107797503E+02  0.47000000000E+01 0. -1.
          5    1    5    5  503    0  0.71806882991E+02 -0.19627181219E+01 -0.25802213845E+02  0.76471726452E+02  0.47000000000E+01 0.  1.
         -5    1    5    5    0  503 -0.20195389726E+02 -0.15957542048E+02  0.57545996655E+02  0.63214940049E+02  0.47000000000E+01 0.  1.
<mgrwt>
<rscale>  0 0.27549001E+03</rscale>
<asrwt>0</asrwt>
<pdfrwt beam="1">  1        2 0.22972825E-01 0.27549001E+03</pdfrwt>
<pdfrwt beam="2">  1       -2 0.19548372E-01 0.27549001E+03</pdfrwt>
<totfact> 0.51418089E+03</totfact>
</mgrwt>
</event>
<event>
 9    1  0.8285222E-001  0.2791466E+03  0.7818608E-02  0.1096156E+00
          2   -1    0    0  501    0  0.00000000000E+00  0.00000000000E+00  0.23651715602E+04  0.23651715602E+04  0.00000000000E+00 0. -1.
         -2   -1    0    0    0  501 -0.00000000000E+00 -0.00000000000E+00 -0.82364867495E+01  0.82364867495E+01  0.00000000000E+00 0. -1.
         35    2    1    2    0    0 -0.71054273576E-14  0.00000000000E+00  0.23569350735E+04  0.23734080470E+04  0.27914658670E+03 0.  0.
         25    2    3    3    0    0  0.39713492932E+02  0.41643762096E+02  0.13751007037E+04  0.13819393811E+04  0.12467214371E+03 0.  0.
         25    2    3    3    0    0 -0.39713492932E+02 -0.41643762096E+02  0.98183436977E+03  0.99146866582E+03  0.12529972544E+03 0.  0.
          5    1    4    4  502    0  0.45896035328E+02  0.82348305093E+02  0.10432272813E+04  0.10474888734E+04  0.47000000000E+01 0. -1.
         -5    1    4    4    0  502 -0.61825423967E+01 -0.40704542997E+02  0.33187342237E+03  0.33445050774E+03  0.47000000000E+01 0. -1.
          5    1    5    5  503    0 -0.10190691045E+02 -0.61842620200E+02  0.89804538494E+03  0.90024216923E+03  0.47000000000E+01 0.  1.
         -5    1    5    5    0  503 -0.29522801887E+02  0.20198858104E+02  0.83788984829E+02  0.91226496582E+02  0.47000000000E+01 0.  1.
<mgrwt>
<rscale>  0 0.27914659E+03</rscale>
<asrwt>0</asrwt>
<pdfrwt beam="1">  1        2 0.36387201E+00 0.27914659E+03</pdfrwt>
<pdfrwt beam="2">  1       -2 0.12671537E-02 0.27914659E+03</pdfrwt>
<totfact> 0.71707230E+03</totfact>
</mgrwt>
</event>
<event>
 9    1  0.8285222E-001  0.2847483E+03  0.7818608E-02  0.1093123E+00
         -1   -1    0    0    0  501 -0.00000000000E+00  0.00000000000E+00  0.10143801408E+04  0.10143801408E+04  0.00000000000E+00 0. -1.
          1   -1    0    0  501    0  0.00000000000E+00 -0.00000000000E+00 -0.19983038330E+02  0.19983038330E+02  0.00000000000E+00 0. -1.
         35    2    1    2    0    0  0.00000000000E+00  0.71054273576E-14  0.99439710249E+03  0.10343631791E+04  0.28474829050E+03 0.  0.
         25    2    3    3    0    0  0.21965997257E+02  0.50757747935E+02  0.63980277377E+03  0.65425719536E+03  0.12508410913E+03 0.  0.
         25    2    3    3    0    0 -0.21965997257E+02 -0.50757747935E+02  0.35459432872E+03  0.38010598378E+03  0.12523804109E+03 0.  0.
          5    1    4    4  502    0  0.43730575543E+02 -0.17544364289E+02  0.42781019210E+03  0.43042283677E+03  0.47000000000E+01 0.  1.
         -5    1    4    4    0  502 -0.21764578286E+02  0.68302112224E+02  0.21199258167E+03  0.22383435859E+03  0.47000000000E+01 0.  1.
          5    1    5    5  503    0 -0.29461738651E+01 -0.66327377904E+02  0.34788791892E+03  0.35419781921E+03  0.47000000000E+01 0. -1.
         -5    1    5    5    0  503 -0.19019823391E+02  0.15569629969E+02  0.67064097978E+01  0.25908164574E+02  0.47000000000E+01 0. -1.
<mgrwt>
<rscale>  0 0.28474829E+03</rscale>
<asrwt>0</asrwt>
<pdfrwt beam="1">  1        1 0.30743144E-02 0.28474829E+03</pdfrwt>
<pdfrwt beam="2">  1       -1 0.15605844E+00 0.28474829E+03</pdfrwt>
<totfact> 0.11211932E+03</totfact>
</mgrwt>
</event>
<event>
 9    1  0.8285222E-001  0.2708904E+03  0.7818608E-02  0.1100771E+00
         -2   -1    0    0    0  501 -0.00000000000E+00  0.00000000000E+00  0.42652914043E+02  0.42652914043E+02  0.00000000000E+00 0.  1.
          2   -1    0    0  501    0  0.00000000000E+00 -0.00000000000E+00 -0.43010889200E+03  0.43010889200E+03  0.00000000000E+00 0.  1.
         35    2    1    2    0    0  0.00000000000E+00 -0.35527136788E-14 -0.38745597795E+03  0.47276180604E+03  0.27089036601E+03 0.  0.
         25    2    3    3    0    0 -0.32510892464E+02 -0.20897659507E+02 -0.21998348502E+03  0.25595861143E+03  0.12501362638E+03 0.  0.
         25    2    3    3    0    0  0.32510892464E+02  0.20897659507E+02 -0.16747249294E+03  0.21680319461E+03  0.13214733824E+03 0.  0.
          5    1    4    4  502    0 -0.54339626323E+02 -0.15524153529E+02 -0.29176147526E+02  0.63774069309E+02  0.47000000000E+01 0. -1.
         -5    1    4    4    0  502  0.21828733859E+02 -0.53735059777E+01 -0.19080733749E+03  0.19218454212E+03  0.47000000000E+01 0. -1.
          5    1    5    5  503    0 -0.68387792631E+01 -0.34598044520E+02  0.42901979029E+00  0.35581844309E+02  0.47000000000E+01 0. -1.
         -5    1    5    5    0  503  0.39349671727E+02  0.55495704027E+02 -0.16790151273E+03  0.18122135030E+03  0.47000000000E+01 0. -1.
<mgrwt>
<rscale>  0 0.27089037E+03</rscale>
<asrwt>0</asrwt>
<pdfrwt beam="1">  1        2 0.66170601E-01 0.27089037E+03</pdfrwt>
<pdfrwt beam="2">  1       -2 0.65619866E-02 0.27089037E+03</pdfrwt>
<totfact> 0.94252156E+03</totfact>
</mgrwt>
</event>
<event>
 9    1  0.8285222E-001  0.2743320E+03  0.7818608E-02  0.1098826E+00
          2   -1    0    0  501    0  0.00000000000E+00  0.00000000000E+00  0.98155324173E+03  0.98155324173E+03  0.00000000000E+00 0. -1.
         -2   -1    0    0    0  501 -0.00000000000E+00 -0.00000000000E+00 -0.19168097115E+02  0.19168097115E+02  0.00000000000E+00 0. -1.
         35    2    1    2    0    0  0.35527136788E-14 -0.71054273576E-14  0.96238514461E+03  0.10007213388E+04  0.27433197306E+03 0.  0.
         25    2    3    3    0    0  0.42143463471E+01  0.47108770222E+02  0.60112964175E+03  0.61568709733E+03  0.12440562158E+03 0.  0.
         25    2    3    3    0    0 -0.42143463471E+01 -0.47108770222E+02  0.36125550286E+03  0.38503424151E+03  0.12453446046E+03 0.  0.
          5    1    4    4  502    0 -0.38612623264E+02  0.53437909392E+02  0.51450246080E+03  0.51873058229E+03  0.47000000000E+01 0.  1.
         -5    1    4    4    0  502  0.42826969612E+02 -0.63291391697E+01  0.86627180948E+02  0.96956515035E+02  0.47000000000E+01 0.  1.
          5    1    5    5  503    0  0.16572957935E+02  0.38532243552E+02  0.15601954344E+03  0.16162792044E+03  0.47000000000E+01 0.  1.
         -5    1    5    5    0  503 -0.20787304282E+02 -0.85641013774E+02  0.20523595942E+03  0.22340632108E+03  0.47000000000E+01 0.  1.
<mgrwt>
<rscale>  0 0.27433197E+03</rscale>
<asrwt>0</asrwt>
<pdfrwt beam="1">  1        2 0.15100815E+00 0.27433197E+03</pdfrwt>
<pdfrwt beam="2">  1       -2 0.29489388E-02 0.27433197E+03</pdfrwt>
<totfact> 0.11683226E+04</totfact>
</mgrwt>
</event>
<event>
 9    1  0.8285222E-001  0.2725437E+03  0.7818608E-02  0.1099833E+00
          1   -1    0    0  501    0  0.00000000000E+00  0.00000000000E+00  0.14340193933E+02  0.14340193933E+02  0.00000000000E+00 0. -1.
         -1   -1    0    0    0  501 -0.00000000000E+00 -0.00000000000E+00 -0.12949626573E+04  0.12949626573E+04  0.00000000000E+00 0. -1.
         35    2    1    2    0    0 -0.71054273576E-14  0.17763568394E-14 -0.12806224634E+04  0.13093028512E+04  0.27254368927E+03 0.  0.
         25    2    3    3    0    0 -0.46138438230E+02  0.20187514939E+01 -0.48410593944E+03  0.50193342232E+03  0.12428100820E+03 0.  0.
         25    2    3    3    0    0  0.46138438230E+02 -0.20187514939E+01 -0.79651652391E+03  0.80736942890E+03  0.12358798896E+03 0.  0.
          5    1    4    4  502    0 -0.86676679001E+02  0.17020446536E+02 -0.30045913546E+03  0.31320971307E+03  0.47000000000E+01 0.  1.
         -5    1    4    4    0  502  0.40538240771E+02 -0.15001695042E+02 -0.18364680398E+03  0.18872370925E+03  0.47000000000E+01 0.  1.
          5    1    5    5  503    0  0.39831419313E+02  0.58454495479E+02 -0.41590544739E+03  0.42190390041E+03  0.47000000000E+01 0. -1.
         -5    1    5    5    0  503  0.63070189169E+01 -0.60473246973E+02 -0.38061107652E+03  0.38546552849E+03  0.47000000000E+01 0. -1.
<mgrwt>
<rscale>  0 0.27254369E+03</rscale>
<asrwt>0</asrwt>
<pdfrwt beam="1">  1        1 0.22061843E-02 0.27254369E+03</pdfrwt>
<pdfrwt beam="2">  1       -1 0.19922497E+00 0.27254369E+03</pdfrwt>
<totfact> 0.88936470E+02</totfact>
</mgrwt>
</event>
<event>
 9    1  0.8285222E-001  0.2775183E+03  0.7818608E-02  0.1097052E+00
         -1   -1    0    0    0  501 -0.00000000000E+00  0.00000000000E+00  0.87571304488E+02  0.87571304488E+02  0.00000000000E+00 0. -1.
          1   -1    0    0  501    0  0.00000000000E+00 -0.00000000000E+00 -0.21986768554E+03  0.21986768554E+03  0.00000000000E+00 0. -1.
         35    2    1    2    0    0  0.00000000000E+00  0.00000000000E+00 -0.13229638105E+03  0.30743899003E+03  0.27751828795E+03 0.  0.
         25    2    3    3    0    0 -0.33468283788E+02 -0.37089384957E+02 -0.10050109628E+03  0.16809433542E+03  0.12513787097E+03 0.  0.
         25    2    3    3    0    0  0.33468283788E+02  0.37089384957E+02 -0.31795284771E+02  0.13934465461E+03  0.12613581623E+03 0.  0.
          5    1    4    4  502    0 -0.22187015712E+02  0.45507440377E+02 -0.44385694164E+02  0.67493485925E+02  0.47000000000E+01 0.  1.
         -5    1    4    4    0  502 -0.11281268075E+02 -0.82596825334E+02 -0.56115402116E+02  0.10060084950E+03  0.47000000000E+01 0.  1.
          5    1    5    5  503    0  0.79845044092E+02  0.14116236627E+02 -0.32215167049E+02  0.87375089073E+02  0.47000000000E+01 0.  1.
         -5    1    5    5    0  503 -0.46376760304E+02  0.22973148330E+02  0.41988227787E+00  0.51969565532E+02  0.47000000000E+01 0.  1.
<mgrwt>
<rscale>  0 0.27751829E+03</rscale>
<asrwt>0</asrwt>
<pdfrwt beam="1">  1        1 0.33825798E-01 0.27751829E+03</pdfrwt>
<pdfrwt beam="2">  1       -1 0.13472508E-01 0.27751829E+03</pdfrwt>
<totfact> 0.49277332E+03</totfact>
</mgrwt>
</event>
<event>
 9    1  0.8285222E-001  0.2715822E+03  0.7818608E-02  0.1100377E+00
         -1   -1    0    0    0  501 -0.00000000000E+00  0.00000000000E+00  0.81268798250E+02  0.81268798250E+02  0.00000000000E+00 0. -1.
          1   -1    0    0  501    0  0.00000000000E+00 -0.00000000000E+00 -0.22689176981E+03  0.22689176981E+03  0.00000000000E+00 0. -1.
         35    2    1    2    0    0  0.00000000000E+00  0.00000000000E+00 -0.14562297156E+03  0.30816056806E+03  0.27158218988E+03 0.  0.
         25    2    3    3    0    0  0.18900986250E+01 -0.41640838771E+02 -0.11160315727E+03  0.17151221440E+03  0.12338412802E+03 0.  0.
         25    2    3    3    0    0 -0.18900986250E+01  0.41640838771E+02 -0.34019814290E+02  0.13664835367E+03  0.12561008267E+03 0.  0.
          5    1    4    4  502    0  0.23602208258E+02  0.24205689002E+01 -0.11916187680E+03  0.12159180182E+03  0.47000000000E+01 0.  1.
         -5    1    4    4    0  502 -0.21712109633E+02 -0.44061407671E+02  0.75587195256E+01  0.49920412574E+02  0.47000000000E+01 0.  1.
          5    1    5    5  503    0 -0.20860782582E+02 -0.17611668748E+01  0.41880763433E+02  0.47057011214E+02  0.47000000000E+01 0. -1.
         -5    1    5    5    0  503  0.18970683957E+02  0.43402005645E+02 -0.75900577722E+02  0.89591342452E+02  0.47000000000E+01 0. -1.
<mgrwt>
<rscale>  0 0.27158219E+03</rscale>
<asrwt>0</asrwt>
<pdfrwt beam="1">  1        1 0.34906426E-01 0.27158219E+03</pdfrwt>
<pdfrwt beam="2">  1       -1 0.12502892E-01 0.27158219E+03</pdfrwt>
<totfact> 0.53224479E+03</totfact>
</mgrwt>
</event>
<event>
 9    1  0.8285222E-001  0.2604711E+03  0.7818608E-02  0.1106861E+00
         -2   -1    0    0    0  501 -0.00000000000E+00  0.00000000000E+00  0.31738994176E+02  0.31738994176E+02  0.00000000000E+00 0. -1.
          2   -1    0    0  501    0  0.00000000000E+00 -0.00000000000E+00 -0.53439922807E+03  0.53439922807E+03  0.00000000000E+00 0. -1.
         35    2    1    2    0    0  0.00000000000E+00  0.00000000000E+00 -0.50266023389E+03  0.56613822224E+03  0.26047106547E+03 0.  0.
         25    2    3    3    0    0  0.12893048689E+02 -0.21896681751E+02 -0.19932754639E+03  0.23703781802E+03  0.12573687226E+03 0.  0.
         25    2    3    3    0    0 -0.12893048689E+02  0.21896681751E+02 -0.30333268750E+03  0.32910040422E+03  0.12510260340E+03 0.  0.
          5    1    4    4  502    0 -0.18582447746E+02 -0.41975527232E+02 -0.19354138196E+03  0.19896635088E+03  0.47000000000E+01 0.  1.
         -5    1    4    4    0  502  0.31475496435E+02  0.20078845481E+02 -0.57861644303E+01  0.38071467144E+02  0.47000000000E+01 0.  1.
          5    1    5    5  503    0  0.30573475890E+01 -0.15995392797E+02 -0.28206689923E+03  0.28257569889E+03  0.47000000000E+01 0. -1.
         -5    1    5    5    0  503 -0.15950396278E+02  0.37892074548E+02 -0.21265788272E+02  0.46524705328E+02  0.47000000000E+01 0. -1.
<mgrwt>
<rscale>  0 0.26047107E+03</rscale>
<asrwt>0</asrwt>
<pdfrwt beam="1">  1        2 0.82215259E-01 0.26047107E+03</pdfrwt>
<pdfrwt beam="2">  1       -2 0.48829226E-02 0.26047107E+03</pdfrwt>
<totfact> 0.11615404E+04</totfact>
</mgrwt>
</event>
<event>
 9    1  0.8285222E-001  0.2715359E+03  0.7818608E-02  0.1100404E+00
          1   -1    0    0  501    0  0.00000000000E+00  0.00000000000E+00  0.13810027041E+03  0.13810027041E+03  0.00000000000E+00 0.  1.
         -1   -1    0    0    0  501 -0.00000000000E+00 -0.00000000000E+00 -0.13347497319E+03  0.13347497319E+03  0.00000000000E+00 0.  1.
         35    2    1    2    0    0 -0.35527136788E-14  0.71054273576E-14  0.46252972161E+01  0.27157524360E+03  0.27153585318E+03 0.  0.
         25    2    3    3    0    0 -0.25092332169E+02  0.38797934106E+02 -0.28050120243E+02  0.13580476203E+03  0.12458418568E+03 0.  0.
         25    2    3    3    0    0  0.25092332169E+02 -0.38797934106E+02  0.32675417459E+02  0.13577048157E+03  0.12341408321E+03 0.  0.
          5    1    4    4  502    0 -0.20892393401E+02  0.28374477834E+02 -0.77293959663E+02  0.85076725929E+02  0.47000000000E+01 0.  1.
         -5    1    4    4    0  502 -0.41999387680E+01  0.10423456272E+02  0.49243839420E+02  0.50728036105E+02  0.47000000000E+01 0.  1.
          5    1    5    5  503    0 -0.14895373570E+02 -0.33979758624E+02  0.70827028951E+02  0.80094033361E+02  0.47000000000E+01 0.  1.
         -5    1    5    5    0  503  0.39987705738E+02 -0.48181754817E+01 -0.38151611492E+02  0.55676448204E+02  0.47000000000E+01 0.  1.
<mgrwt>
<rscale>  0 0.27153585E+03</rscale>
<asrwt>0</asrwt>
<pdfrwt beam="1">  1        1 0.21246196E-01 0.27153585E+03</pdfrwt>
<pdfrwt beam="2">  1       -1 0.20534611E-01 0.27153585E+03</pdfrwt>
<totfact> 0.45259400E+03</totfact>
</mgrwt>
</event>
<event>
 9    1  0.8285222E-001  0.2770541E+03  0.7818608E-02  0.1097309E+00
         -2   -1    0    0    0  501 -0.00000000000E+00  0.00000000000E+00  0.78932465597E+02  0.78932465597E+02  0.00000000000E+00 0. -1.
          2   -1    0    0  501    0  0.00000000000E+00 -0.00000000000E+00 -0.24311596366E+03  0.24311596366E+03  0.00000000000E+00 0. -1.
         35    2    1    2    0    0  0.14210854715E-13 -0.71054273576E-14 -0.16418349807E+03  0.32204842926E+03  0.27705409174E+03 0.  0.
         25    2    3    3    0    0 -0.41044063519E+02  0.39230300777E+02 -0.60105865729E+02  0.14990844061E+03  0.12504476728E+03 0.  0.
         25    2    3    3    0    0  0.41044063519E+02 -0.39230300777E+02 -0.10407763234E+03  0.17213998864E+03  0.12480541049E+03 0.  0.
          5    1    4    4  502    0  0.41266893159E+02 -0.27361967512E+01 -0.34107785211E+02  0.53813327863E+02  0.47000000000E+01 0. -1.
         -5    1    4    4    0  502 -0.82310956679E+02  0.41966497528E+02 -0.25998080519E+02  0.96095112752E+02  0.47000000000E+01 0. -1.
          5    1    5    5  503    0  0.28250009067E+02 -0.83739196542E+02 -0.53559661431E+02  0.10344584758E+03  0.47000000000E+01 0. -1.
         -5    1    5    5    0  503  0.12794054452E+02  0.44508895765E+02 -0.50517970905E+02  0.68694141059E+02  0.47000000000E+01 0. -1.
<mgrwt>
<rscale>  0 0.27705409E+03</rscale>
<asrwt>0</asrwt>
<pdfrwt beam="1">  1        2 0.37402455E-01 0.27705409E+03</pdfrwt>
<pdfrwt beam="2">  1       -2 0.12143456E-01 0.27705409E+03</pdfrwt>
<totfact> 0.66204050E+03</totfact>
</mgrwt>
</event>
<event>
 9    1  0.8285222E-001  0.2869812E+03  0.7818608E-02  0.1091936E+00
          3   -1    0    0  501    0  0.00000000000E+00  0.00000000000E+00  0.82052824223E+02  0.82052824223E+02  0.00000000000E+00 0.  1.
         -3   -1    0    0    0  501 -0.00000000000E+00 -0.00000000000E+00 -0.25093043584E+03  0.25093043584E+03  0.00000000000E+00 0.  1.
         35    2    1    2    0    0  0.00000000000E+00 -0.17763568394E-14 -0.16887761162E+03  0.33298326006E+03  0.28698119063E+03 0.  0.
         25    2    3    3    0    0  0.64200428528E+02 -0.20826973807E+01 -0.50709285265E+02  0.14940161884E+03  0.12499351763E+03 0.  0.
         25    2    3    3    0    0 -0.64200428528E+02  0.20826973807E+01 -0.11816832635E+03  0.18358164122E+03  0.12494972184E+03 0.  0.
          5    1    4    4  502    0  0.56001603407E+02  0.54504556607E+02 -0.97128551879E+01  0.78888249004E+02  0.47000000000E+01 0. -1.
         -5    1    4    4    0  502  0.81988251214E+01 -0.56587253987E+02 -0.40996430077E+02  0.70513369840E+02  0.47000000000E+01 0. -1.
          5    1    5    5  503    0 -0.86718412978E+02 -0.46701541145E+01 -0.29668866415E+02  0.91892464996E+02  0.47000000000E+01 0.  1.
         -5    1    5    5    0  503  0.22517984449E+02  0.67528514953E+01 -0.88499459940E+02  0.91689176224E+02  0.47000000000E+01 0.  1.
<mgrwt>
<rscale>  0 0.28698119E+03</rscale>
<asrwt>0</asrwt>
<pdfrwt beam="1">  1        3 0.12623511E-01 0.28698119E+03</pdfrwt>
<pdfrwt beam="2">  1       -3 0.38604682E-01 0.28698119E+03</pdfrwt>
<totfact> 0.84691658E+02</totfact>
</mgrwt>
</event>
<event>
 9    1  0.8285222E-001  0.2730293E+03  0.7818608E-02  0.1099558E+00
          2   -1    0    0  501    0  0.00000000000E+00  0.00000000000E+00  0.58581182888E+03  0.58581182888E+03  0.00000000000E+00 0. -1.
         -2   -1    0    0    0  501 -0.00000000000E+00 -0.00000000000E+00 -0.31812680097E+02  0.31812680097E+02  0.00000000000E+00 0. -1.
         35    2    1    2    0    0  0.00000000000E+00 -0.71054273576E-14  0.55399914878E+03  0.61762450898E+03  0.27302926077E+03 0.  0.
         25    2    3    3    0    0  0.12022950901E+02  0.49621132690E+02  0.23414953171E+03  0.27041371891E+03  0.12526279581E+03 0.  0.
         25    2    3    3    0    0 -0.12022950901E+02 -0.49621132690E+02  0.31984961707E+03  0.34721079007E+03  0.12507896323E+03 0.  0.
          5    1    4    4  502    0 -0.24510856863E+02  0.30317975957E+02  0.22425409377E+03  0.22766631359E+03  0.47000000000E+01 0. -1.
         -5    1    4    4    0  502  0.36533807764E+02  0.19303156733E+02  0.98954379436E+01  0.42747405321E+02  0.47000000000E+01 0. -1.
          5    1    5    5  503    0 -0.13352444507E+02 -0.91481964171E+02  0.23156424185E+03  0.24938188716E+03  0.47000000000E+01 0.  1.
         -5    1    5    5    0  503  0.13294936060E+01  0.41860831481E+02  0.88285375223E+02  0.97828902906E+02  0.47000000000E+01 0.  1.
<mgrwt>
<rscale>  0 0.27302926E+03</rscale>
<asrwt>0</asrwt>
<pdfrwt beam="1">  1        2 0.90124889E-01 0.27302926E+03</pdfrwt>
<pdfrwt beam="2">  1       -2 0.48942589E-02 0.27302926E+03</pdfrwt>
<totfact> 0.10442044E+04</totfact>
</mgrwt>
</event>
<event>
 9    1  0.8285222E-001  0.2761322E+03  0.7818608E-02  0.1097820E+00
          2   -1    0    0  501    0  0.00000000000E+00  0.00000000000E+00  0.10532460732E+04  0.10532460732E+04  0.00000000000E+00 0.  1.
         -2   -1    0    0    0  501 -0.00000000000E+00 -0.00000000000E+00 -0.18098570926E+02  0.18098570926E+02  0.00000000000E+00 0.  1.
         35    2    1    2    0    0  0.71054273576E-14  0.00000000000E+00  0.10351475023E+04  0.10713446442E+04  0.27613220572E+03 0.  0.
         25    2    3    3    0    0 -0.35126426615E+02 -0.39251429334E+02  0.42011645458E+03  0.44136085283E+03  0.12460748955E+03 0.  0.
         25    2    3    3    0    0  0.35126426615E+02  0.39251429334E+02  0.61503104773E+03  0.62998379133E+03  0.12586439972E+03 0.  0.
          5    1    4    4  502    0  0.35930593764E+02  0.47350791734E+01  0.23974773447E+03  0.24251699884E+03  0.47000000000E+01 0. -1.
         -5    1    4    4    0  502 -0.71057020380E+02 -0.43986508508E+02  0.18036872012E+03  0.19884385400E+03  0.47000000000E+01 0. -1.
          5    1    5    5  503    0  0.39962024935E+02  0.41876932931E+02  0.61900812968E+03  0.62172646361E+03  0.47000000000E+01 0. -1.
         -5    1    5    5    0  503 -0.48355983194E+01 -0.26255035965E+01 -0.39770819477E+01  0.82573277191E+01  0.47000000000E+01 0. -1.
<mgrwt>
<rscale>  0 0.27613221E+03</rscale>
<asrwt>0</asrwt>
<pdfrwt beam="1">  1        2 0.16203781E+00 0.27613221E+03</pdfrwt>
<pdfrwt beam="2">  1       -2 0.27843963E-02 0.27613221E+03</pdfrwt>
<totfact> 0.11511336E+04</totfact>
</mgrwt>
</event>
<event>
 9    1  0.8285222E-001  0.2761158E+03  0.7818608E-02  0.1097830E+00
          2   -1    0    0  501    0  0.00000000000E+00  0.00000000000E+00  0.43700213274E+02  0.43700213274E+02  0.00000000000E+00 0. -1.
         -2   -1    0    0    0  501 -0.00000000000E+00 -0.00000000000E+00 -0.43615300148E+03  0.43615300148E+03  0.00000000000E+00 0. -1.
         35    2    1    2    0    0  0.71054273576E-14  0.00000000000E+00 -0.39245278821E+03  0.47985321476E+03  0.27611576692E+03 0.  0.
         25    2    3    3    0    0 -0.49298978354E+02 -0.42464374997E+02 -0.16299753568E+03  0.21062777576E+03  0.11645707739E+03 0.  0.
         25    2    3    3    0    0  0.49298978354E+02  0.42464374997E+02 -0.22945525253E+03  0.26922543900E+03  0.12489600345E+03 0.  0.
          5    1    4    4  502    0 -0.13815450408E+02 -0.76433564051E+02 -0.12917756515E+03  0.15080414359E+03  0.47000000000E+01 0.  1.
         -5    1    4    4    0  502 -0.35483527946E+02  0.33969189054E+02 -0.33819970527E+02  0.59823632178E+02  0.47000000000E+01 0.  1.
          5    1    5    5  503    0  0.44780728968E+02  0.64526580226E+02 -0.23301965533E+03  0.24594560986E+03  0.47000000000E+01 0.  1.
         -5    1    5    5    0  503  0.45182493855E+01 -0.22062205229E+02  0.35644027985E+01  0.23279829132E+02  0.47000000000E+01 0.  1.
<mgrwt>
<rscale>  0 0.27611577E+03</rscale>
<asrwt>0</asrwt>
<pdfrwt beam="1">  1        2 0.67231095E-02 0.27611577E+03</pdfrwt>
<pdfrwt beam="2">  1       -2 0.67100465E-01 0.27611577E+03</pdfrwt>
<totfact> 0.22184155E+03</totfact>
</mgrwt>
</event>
<event>
 9    1  0.8285222E-001  0.2861299E+03  0.7818608E-02  0.1092387E+00
         -1   -1    0    0    0  501 -0.00000000000E+00  0.00000000000E+00  0.30664031205E+03  0.30664031205E+03  0.00000000000E+00 0.  1.
          1   -1    0    0  501    0  0.00000000000E+00 -0.00000000000E+00 -0.66747862182E+02  0.66747862182E+02  0.00000000000E+00 0.  1.
         35    2    1    2    0    0  0.00000000000E+00  0.00000000000E+00  0.23989244987E+03  0.37338817423E+03  0.28612993753E+03 0.  0.
         25    2    3    3    0    0  0.56426273806E+02  0.35294904143E+02  0.14110169582E+03  0.19954109096E+03  0.12440781240E+03 0.  0.
         25    2    3    3    0    0 -0.56426273806E+02 -0.35294904143E+02  0.98790754050E+02  0.17384708327E+03  0.12662361803E+03 0.  0.
          5    1    4    4  502    0  0.28449663214E+02  0.71247818148E+02  0.35959223202E+02  0.84857472630E+02  0.47000000000E+01 0.  1.
         -5    1    4    4    0  502  0.27976610591E+02 -0.35952914005E+02  0.10514247262E+03  0.11468361833E+03  0.47000000000E+01 0.  1.
          5    1    5    5  503    0  0.25283439903E+02  0.21133088921E+02 -0.57410175611E+00  0.33290830172E+02  0.47000000000E+01 0.  1.
         -5    1    5    5    0  503 -0.81709713709E+02 -0.56427993065E+02  0.99364855806E+02  0.14055625310E+03  0.47000000000E+01 0.  1.
<mgrwt>
<rscale>  0 0.28612994E+03</rscale>
<asrwt>0</asrwt>
<pdfrwt beam="1">  1        1 0.10268902E-01 0.28612994E+03</pdfrwt>
<pdfrwt beam="2">  1       -1 0.47175432E-01 0.28612994E+03</pdfrwt>
<totfact> 0.28258253E+03</totfact>
</mgrwt>
</event>
<event>
 9    1  0.8285222E-001  0.2722591E+03  0.7818608E-02  0.1099994E+00
         -1   -1    0    0    0  501 -0.00000000000E+00  0.00000000000E+00  0.10678133434E+03  0.10678133434E+03  0.00000000000E+00 0.  1.
          1   -1    0    0  501    0  0.00000000000E+00 -0.00000000000E+00 -0.17354399171E+03  0.17354399171E+03  0.00000000000E+00 0.  1.
         35    2    1    2    0    0 -0.71054273576E-14  0.71054273576E-14 -0.66762657374E+02  0.28032532605E+03  0.27225913393E+03 0.  0.
         25    2    3    3    0    0 -0.70107228829E+01  0.54921448631E+02 -0.22637786537E+02  0.13682514436E+03  0.12305744591E+03 0.  0.
         25    2    3    3    0    0  0.70107228829E+01 -0.54921448631E+02 -0.44124870836E+02  0.14350018169E+03  0.12481899761E+03 0.  0.
          5    1    4    4  502    0  0.52908834383E+02 -0.47228068854E+00 -0.11269102322E+02  0.54301477622E+02  0.47000000000E+01 0.  1.
         -5    1    4    4    0  502 -0.59919557266E+02  0.55393729320E+02 -0.11368684215E+02  0.82523666736E+02  0.47000000000E+01 0.  1.
          5    1    5    5  503    0 -0.23851013124E+02  0.34276021548E+02 -0.12348486361E+02  0.43798305853E+02  0.47000000000E+01 0.  1.
         -5    1    5    5    0  503  0.30861736007E+02 -0.89197470179E+02 -0.31776384475E+02  0.99701875839E+02  0.47000000000E+01 0.  1.
<mgrwt>
<rscale>  0 0.27225913E+03</rscale>
<asrwt>0</asrwt>
<pdfrwt beam="1">  1        1 0.26699076E-01 0.27225913E+03</pdfrwt>
<pdfrwt beam="2">  1       -1 0.16427898E-01 0.27225913E+03</pdfrwt>
<totfact> 0.48469382E+03</totfact>
</mgrwt>
</event>
<event>
 9    1  0.8285222E-001  0.2729013E+03  0.7818608E-02  0.1099631E+00
         -1   -1    0    0    0  501 -0.00000000000E+00  0.00000000000E+00  0.64335617791E+02  0.64335617791E+02  0.00000000000E+00 0.  1.
          1   -1    0    0  501    0  0.00000000000E+00 -0.00000000000E+00 -0.28940072731E+03  0.28940072731E+03  0.00000000000E+00 0.  1.
         35    2    1    2    0    0  0.00000000000E+00 -0.71054273576E-14 -0.22506510952E+03  0.35373634510E+03  0.27290126112E+03 0.  0.
         25    2    3    3    0    0  0.26093186271E+01  0.43694197849E+02 -0.15674199617E+03  0.20502951326E+03  0.12471189389E+03 0.  0.
         25    2    3    3    0    0 -0.26093186271E+01 -0.43694197849E+02 -0.68323113349E+02  0.14870683183E+03  0.12461814694E+03 0.  0.
          5    1    4    4  502    0 -0.29296861892E+02 -0.34610863378E+02 -0.38994078174E+02  0.59990383505E+02  0.47000000000E+01 0.  1.
         -5    1    4    4    0  502  0.31906180519E+02  0.78305061227E+02 -0.11774791799E+03  0.14503912976E+03  0.47000000000E+01 0.  1.
          5    1    5    5  503    0 -0.45687536971E+02 -0.92184793744E+01  0.14535247862E+02  0.49047883001E+02  0.47000000000E+01 0. -1.
         -5    1    5    5    0  503  0.43078218344E+02 -0.34475718474E+02 -0.82858361211E+02  0.99658948834E+02  0.47000000000E+01 0. -1.
<mgrwt>
<rscale>  0 0.27290126E+03</rscale>
<asrwt>0</asrwt>
<pdfrwt beam="1">  1        1 0.44523188E-01 0.27290126E+03</pdfrwt>
<pdfrwt beam="2">  1       -1 0.98977874E-02 0.27290126E+03</pdfrwt>
<totfact> 0.56403333E+03</totfact>
</mgrwt>
</event>
<event>
 9    1  0.8285222E-001  0.2729393E+03  0.7818608E-02  0.1099609E+00
          2   -1    0    0  501    0  0.00000000000E+00  0.00000000000E+00  0.26897532096E+04  0.26897532096E+04  0.00000000000E+00 0. -1.
         -2   -1    0    0    0  501 -0.00000000000E+00 -0.00000000000E+00 -0.69240428229E+01  0.69240428229E+01  0.00000000000E+00 0. -1.
         35    2    1    2    0    0 -0.71054273576E-14 -0.17763568394E-14  0.26828291668E+04  0.26966772524E+04  0.27293930759E+03 0.  0.
         25    2    3    3    0    0  0.36305426768E+02  0.11458083468E+02  0.17393229938E+04  0.17442094869E+04  0.12479136979E+03 0.  0.
         25    2    3    3    0    0 -0.36305426768E+02 -0.11458083468E+02  0.94350617303E+03  0.95246776551E+03  0.12466584977E+03 0.  0.
          5    1    4    4  502    0  0.38927545045E+02  0.18921298101E+02  0.19261169192E+03  0.19747081595E+03  0.47000000000E+01 0.  1.
         -5    1    4    4    0  502 -0.26221182765E+01 -0.74632146334E+01  0.15467113018E+04  0.15467386710E+04  0.47000000000E+01 0.  1.
          5    1    5    5  503    0 -0.12256081772E+02  0.38208305197E+02  0.11103601831E+03  0.11815740979E+03  0.47000000000E+01 0.  1.
         -5    1    5    5    0  503 -0.24049344996E+02 -0.49666388665E+02  0.83247015472E+03  0.83431035572E+03  0.47000000000E+01 0.  1.
<mgrwt>
<rscale>  0 0.27293931E+03</rscale>
<asrwt>0</asrwt>
<pdfrwt beam="1">  1        2 0.41380735E+00 0.27293931E+03</pdfrwt>
<pdfrwt beam="2">  1       -2 0.10652395E-02 0.27293931E+03</pdfrwt>
<totfact> 0.61200868E+03</totfact>
</mgrwt>
</event>
<event>
 9    1  0.8285222E-001  0.2758890E+03  0.7818608E-02  0.1097956E+00
         -2   -1    0    0    0  501 -0.00000000000E+00  0.00000000000E+00  0.13010278307E+02  0.13010278307E+02  0.00000000000E+00 0. -1.
          2   -1    0    0  501    0  0.00000000000E+00 -0.00000000000E+00 -0.14625885326E+04  0.14625885326E+04  0.00000000000E+00 0. -1.
         35    2    1    2    0    0  0.71054273576E-14  0.00000000000E+00 -0.14495782543E+04  0.14755988109E+04  0.27588899113E+03 0.  0.
         25    2    3    3    0    0 -0.39234315530E+02  0.36870269110E+02 -0.85118338580E+03  0.86196139805E+03  0.12476196212E+03 0.  0.
         25    2    3    3    0    0  0.39234315530E+02 -0.36870269110E+02 -0.59839486847E+03  0.61363741284E+03  0.12480267453E+03 0.  0.
          5    1    4    4  502    0  0.23155781760E+02  0.61168304509E+02 -0.51370588399E+03  0.51787409373E+03  0.47000000000E+01 0. -1.
         -5    1    4    4    0  502 -0.62390097290E+02 -0.24298035399E+02 -0.33747750181E+03  0.34408730432E+03  0.47000000000E+01 0. -1.
          5    1    5    5  503    0 -0.15996344469E+02 -0.44633935040E+02 -0.87033085019E+02  0.99221565607E+02  0.47000000000E+01 0.  1.
         -5    1    5    5    0  503  0.55230659999E+02  0.77636659299E+01 -0.51136178345E+03  0.51441584723E+03  0.47000000000E+01 0.  1.
<mgrwt>
<rscale>  0 0.27588899E+03</rscale>
<asrwt>0</asrwt>
<pdfrwt beam="1">  1        2 0.22501366E+00 0.27588899E+03</pdfrwt>
<pdfrwt beam="2">  1       -2 0.20015809E-02 0.27588899E+03</pdfrwt>
<totfact> 0.11035307E+04</totfact>
</mgrwt>
</event>
<event>
 9    1  0.8285222E-001  0.2756876E+03  0.7818608E-02  0.1098068E+00
          1   -1    0    0  501    0  0.00000000000E+00  0.00000000000E+00  0.42277173701E+03  0.42277173701E+03  0.00000000000E+00 0.  1.
         -1   -1    0    0    0  501 -0.00000000000E+00 -0.00000000000E+00 -0.44943662352E+02  0.44943662352E+02  0.00000000000E+00 0.  1.
         35    2    1    2    0    0  0.35527136788E-14  0.71054273576E-14  0.37782807466E+03  0.46771539936E+03  0.27568757825E+03 0.  0.
         25    2    3    3    0    0 -0.23915478577E+02 -0.51261364894E+02  0.19256305610E+03  0.23675941310E+03  0.12559781634E+03 0.  0.
         25    2    3    3    0    0  0.23915478577E+02  0.51261364894E+02  0.18526501855E+03  0.23095598626E+03  0.12576908541E+03 0.  0.
          5    1    4    4  502    0 -0.63818340238E+02 -0.64055938659E+02  0.15856110723E+03  0.18259150735E+03  0.47000000000E+01 0.  1.
         -5    1    4    4    0  502  0.39902861661E+02  0.12794573765E+02  0.34001948870E+02  0.54167905751E+02  0.47000000000E+01 0.  1.
          5    1    5    5  503    0 -0.28375619965E+02 -0.13886878191E+02  0.12185794719E+03  0.12597408657E+03  0.47000000000E+01 0.  1.
         -5    1    5    5    0  503  0.52291098542E+02  0.65148243084E+02  0.63407071361E+02  0.10498189969E+03  0.47000000000E+01 0.  1.
<mgrwt>
<rscale>  0 0.27568758E+03</rscale>
<asrwt>0</asrwt>
<pdfrwt beam="1">  1        1 0.65041803E-01 0.27568758E+03</pdfrwt>
<pdfrwt beam="2">  1       -1 0.69144099E-02 0.27568758E+03</pdfrwt>
<totfact> 0.60370098E+03</totfact>
</mgrwt>
</event>
<event>
 9    1  0.8285222E-001  0.2750332E+03  0.7818608E-02  0.1098433E+00
          3   -1    0    0  501    0  0.00000000000E+00  0.00000000000E+00  0.36482051038E+02  0.36482051038E+02  0.00000000000E+00 0. -1.
         -3   -1    0    0    0  501 -0.00000000000E+00 -0.00000000000E+00 -0.51835945969E+03  0.51835945969E+03  0.00000000000E+00 0. -1.
         35    2    1    2    0    0  0.35527136788E-14 -0.35527136788E-14 -0.48187740865E+03  0.55484151073E+03  0.27503320719E+03 0.  0.
         25    2    3    3    0    0 -0.31386749531E+02  0.26060320996E+02 -0.18140579290E+03  0.22473597802E+03  0.12622967060E+03 0.  0.
         25    2    3    3    0    0  0.31386749531E+02 -0.26060320996E+02 -0.30047161575E+03  0.33010553271E+03  0.13046916295E+03 0.  0.
          5    1    4    4  502    0  0.22628434527E+02 -0.17804496420E+02 -0.14131004671E+03  0.14429021257E+03  0.47000000000E+01 0. -1.
         -5    1    4    4    0  502 -0.54015184058E+02  0.43864817416E+02 -0.40095746196E+02  0.80445765449E+02  0.47000000000E+01 0. -1.
          5    1    5    5  503    0  0.56308970660E+02 -0.36810848506E+02 -0.29423241953E+03  0.30186179859E+03  0.47000000000E+01 0.  1.
         -5    1    5    5    0  503 -0.24922221129E+02  0.10750527510E+02 -0.62391962182E+01  0.28243734123E+02  0.47000000000E+01 0.  1.
<mgrwt>
<rscale>  0 0.27503321E+03</rscale>
<asrwt>0</asrwt>
<pdfrwt beam="1">  1        3 0.56126234E-02 0.27503321E+03</pdfrwt>
<pdfrwt beam="2">  1       -3 0.79747606E-01 0.27503321E+03</pdfrwt>
<totfact> 0.72252167E+02</totfact>
</mgrwt>
</event>
<event>
 9    1  0.8285222E-001  0.2715155E+03  0.7818608E-02  0.1100415E+00
          2   -1    0    0  501    0  0.00000000000E+00  0.00000000000E+00  0.98424421294E+02  0.98424421294E+02  0.00000000000E+00 0.  1.
         -2   -1    0    0    0  501 -0.00000000000E+00 -0.00000000000E+00 -0.18725193377E+03  0.18725193377E+03  0.00000000000E+00 0.  1.
         35    2    1    2    0    0  0.35527136788E-14  0.71054273576E-14 -0.88827512479E+02  0.28567635507E+03  0.27151547446E+03 0.  0.
         25    2    3    3    0    0 -0.87713836158E+01 -0.48609895481E+02 -0.23747537261E+02  0.13664401207E+03  0.12517100862E+03 0.  0.
         25    2    3    3    0    0  0.87713836158E+01  0.48609895481E+02 -0.65079975218E+02  0.14903234300E+03  0.12464099236E+03 0.  0.
          5    1    4    4  502    0  0.37012478481E+01  0.32439881453E+02  0.24765523855E+02  0.41248834118E+02  0.47000000000E+01 0. -1.
         -5    1    4    4    0  502 -0.12472631464E+02 -0.81049776934E+02 -0.48513061116E+02  0.95395177947E+02  0.47000000000E+01 0. -1.
          5    1    5    5  503    0  0.48724772243E+02  0.70652612136E+02 -0.29142845947E+02  0.90759520171E+02  0.47000000000E+01 0. -1.
         -5    1    5    5    0  503 -0.39953388627E+02 -0.22042716655E+02 -0.35937129271E+02  0.58272822830E+02  0.47000000000E+01 0. -1.
<mgrwt>
<rscale>  0 0.27151547E+03</rscale>
<asrwt>0</asrwt>
<pdfrwt beam="1">  1        2 0.15142219E-01 0.27151547E+03</pdfrwt>
<pdfrwt beam="2">  1       -2 0.28807990E-01 0.27151547E+03</pdfrwt>
<totfact> 0.42160825E+03</totfact>
</mgrwt>
</event>
<event>
 9    1  0.8285222E-001  0.2726013E+03  0.7818608E-02  0.1099800E+00
          4   -1    0    0  501    0  0.00000000000E+00  0.00000000000E+00  0.47636386655E+03  0.47636386655E+03  0.00000000000E+00 0.  1.
         -4   -1    0    0    0  501 -0.00000000000E+00 -0.00000000000E+00 -0.38999325513E+02  0.38999325513E+02  0.00000000000E+00 0.  1.
         35    2    1    2    0    0  0.00000000000E+00  0.00000000000E+00  0.43736454103E+03  0.51536319206E+03  0.27260131690E+03 0.  0.
         25    2    3    3    0    0 -0.25734806937E+01  0.90591852436E+01  0.11846865579E+03  0.17268489202E+03  0.12528590459E+03 0.  0.
         25    2    3    3    0    0  0.25734806937E+01 -0.90591852436E+01  0.31889588525E+03  0.34267830004E+03  0.12508053426E+03 0.  0.
          5    1    4    4  502    0  0.57014293863E+01  0.42570913719E+02 -0.58279730286E+01  0.43598672704E+02  0.47000000000E+01 0.  1.
         -5    1    4    4    0  502 -0.82749100800E+01 -0.33511728475E+02  0.12429662882E+03  0.12908621932E+03  0.47000000000E+01 0.  1.
          5    1    5    5  503    0 -0.23159442060E+00  0.55125040520E+02  0.97521802965E+02  0.11212232508E+03  0.47000000000E+01 0. -1.
         -5    1    5    5    0  503  0.28050751143E+01 -0.64184225763E+02  0.22137408228E+03  0.23055597496E+03  0.47000000000E+01 0. -1.
<mgrwt>
<rscale>  0 0.27260132E+03</rscale>
<asrwt>0</asrwt>
<pdfrwt beam="1">  1        4 0.73286745E-01 0.27260132E+03</pdfrwt>
<pdfrwt beam="2">  1       -4 0.59998966E-02 0.27260132E+03</pdfrwt>
<totfact> 0.57289052E+02</totfact>
</mgrwt>
</event>
<event>
 9    1  0.8285222E-001  0.2896473E+03  0.7818608E-02  0.1090533E+00
          2   -1    0    0  501    0  0.00000000000E+00  0.00000000000E+00  0.69949335406E+03  0.69949335406E+03  0.00000000000E+00 0.  1.
         -2   -1    0    0    0  501 -0.00000000000E+00 -0.00000000000E+00 -0.29984405496E+02  0.29984405496E+02  0.00000000000E+00 0.  1.
         35    2    1    2    0    0  0.00000000000E+00  0.00000000000E+00  0.66950894857E+03  0.72947775956E+03  0.28964731913E+03 0.  0.
         25    2    3    3    0    0 -0.11606312994E+02 -0.56294733394E+02  0.44087013193E+03  0.46231601341E+03  0.12675101385E+03 0.  0.
         25    2    3    3    0    0  0.11606312994E+02  0.56294733394E+02  0.22863881663E+03  0.26716174615E+03  0.12568168771E+03 0.  0.
          5    1    4    4  502    0 -0.27462451261E+02 -0.91370214960E+02  0.25180592891E+03  0.26931583363E+03  0.47000000000E+01 0. -1.
         -5    1    4    4    0  502  0.15856138268E+02  0.35075481567E+02  0.18906420302E+03  0.19300017977E+03  0.47000000000E+01 0. -1.
          5    1    5    5  503    0  0.21825780303E+02  0.28339593578E+02 -0.46922193608E+00  0.36080568444E+02  0.47000000000E+01 0. -1.
         -5    1    5    5    0  503 -0.10219467309E+02  0.27955139816E+02  0.22910803857E+03  0.23108117771E+03  0.47000000000E+01 0. -1.
<mgrwt>
<rscale>  0 0.28964732E+03</rscale>
<asrwt>0</asrwt>
<pdfrwt beam="1">  1        2 0.10761435E+00 0.28964732E+03</pdfrwt>
<pdfrwt beam="2">  1       -2 0.46129860E-02 0.28964732E+03</pdfrwt>
<totfact> 0.92792367E+03</totfact>
</mgrwt>
</event>
<event>
 9    1  0.8285222E-001  0.2731840E+03  0.7818608E-02  0.1099471E+00
          2   -1    0    0  501    0  0.00000000000E+00  0.00000000000E+00  0.98754921906E+03  0.98754921906E+03  0.00000000000E+00 0.  1.
         -2   -1    0    0    0  501 -0.00000000000E+00 -0.00000000000E+00 -0.18892605960E+02  0.18892605960E+02  0.00000000000E+00 0.  1.
         35    2    1    2    0    0  0.00000000000E+00  0.00000000000E+00  0.96865661310E+03  0.10064418250E+04  0.27318402781E+03 0.  0.
         25    2    3    3    0    0  0.44147555704E+02 -0.32636682015E+02  0.47105809414E+03  0.49037853661E+03  0.12474462484E+03 0.  0.
         25    2    3    3    0    0 -0.44147555704E+02  0.32636682015E+02  0.49759851896E+03  0.51606328841E+03  0.12531110041E+03 0.  0.
          5    1    4    4  502    0  0.74660681250E+02 -0.44095751209E+02  0.42486741872E+03  0.43365085736E+03  0.47000000000E+01 0. -1.
         -5    1    4    4    0  502 -0.30513125546E+02  0.11459069195E+02  0.46190675424E+02  0.56727679254E+02  0.47000000000E+01 0. -1.
          5    1    5    5  503    0 -0.81129190821E+02  0.10363081013E+01  0.38216139477E+03  0.39070761599E+03  0.47000000000E+01 0.  1.
         -5    1    5    5    0  503  0.36981635116E+02  0.31600373913E+02  0.11543712418E+03  0.12535567242E+03  0.47000000000E+01 0.  1.
<mgrwt>
<rscale>  0 0.27318403E+03</rscale>
<asrwt>0</asrwt>
<pdfrwt beam="1">  1        2 0.15193061E+00 0.27318403E+03</pdfrwt>
<pdfrwt beam="2">  1       -2 0.29065555E-02 0.27318403E+03</pdfrwt>
<totfact> 0.11834590E+04</totfact>
</mgrwt>
</event>
<event>
 9    1  0.8285222E-001  0.2702992E+03  0.7818608E-02  0.1101109E+00
         -2   -1    0    0    0  501 -0.00000000000E+00  0.00000000000E+00  0.11618687330E+04  0.11618687330E+04  0.00000000000E+00 0. -1.
          2   -1    0    0  501    0  0.00000000000E+00 -0.00000000000E+00 -0.15720716181E+02  0.15720716181E+02  0.00000000000E+00 0. -1.
         35    2    1    2    0    0  0.00000000000E+00  0.00000000000E+00  0.11461480168E+04  0.11775894491E+04  0.27029915716E+03 0.  0.
         25    2    3    3    0    0 -0.42487441845E+02 -0.22388897268E+02  0.60310091078E+03  0.61817132059E+03  0.12688036722E+03 0.  0.
         25    2    3    3    0    0  0.42487441845E+02  0.22388897268E+02  0.54304710600E+03  0.55941812855E+03  0.12546727772E+03 0.  0.
          5    1    4    4  502    0 -0.78206273664E+02 -0.30055898243E+02  0.26254650372E+03  0.27563079450E+03  0.47000000000E+01 0. -1.
         -5    1    4    4    0  502  0.35718831818E+02  0.76670009747E+01  0.34055440705E+03  0.34254052609E+03  0.47000000000E+01 0. -1.
          5    1    5    5  503    0 -0.19198998498E+02 -0.28904879507E+02  0.32767947995E+03  0.32954517927E+03  0.47000000000E+01 0. -1.
         -5    1    5    5    0  503  0.61686440343E+02  0.51293776775E+02  0.21536762605E+03  0.22987294928E+03  0.47000000000E+01 0. -1.
<mgrwt>
<rscale>  0 0.27029916E+03</rscale>
<asrwt>0</asrwt>
<pdfrwt beam="1">  1        2 0.24185726E-02 0.27029916E+03</pdfrwt>
<pdfrwt beam="2">  1       -2 0.17874897E+00 0.27029916E+03</pdfrwt>
<totfact> 0.83519750E+02</totfact>
</mgrwt>
</event>
<event>
 9    1  0.8285222E-001  0.2659496E+03  0.7818608E-02  0.1103620E+00
         -1   -1    0    0    0  501 -0.00000000000E+00  0.00000000000E+00  0.98240759322E+01  0.98240759322E+01  0.00000000000E+00 0. -1.
          1   -1    0    0  501    0  0.00000000000E+00 -0.00000000000E+00 -0.17998936635E+04  0.17998936635E+04  0.00000000000E+00 0. -1.
         35    2    1    2    0    0  0.35527136788E-14  0.71054273576E-14 -0.17900695876E+04  0.18097177395E+04  0.26594955928E+03 0.  0.
         25    2    3    3    0    0 -0.27113678138E+02 -0.31472129480E+02 -0.10349434022E+04  0.10432151005E+04  0.12435535193E+03 0.  0.
         25    2    3    3    0    0  0.27113678138E+02  0.31472129480E+02 -0.75512618536E+03  0.76650263899E+03  0.12484027105E+03 0.  0.
          5    1    4    4  502    0 -0.27417332502E+02  0.45225442735E+02 -0.49304144577E+03  0.49589213347E+03  0.47000000000E+01 0.  1.
         -5    1    4    4    0  502  0.30365436325E+00 -0.76697572215E+02 -0.54190195646E+03  0.54732296700E+03  0.47000000000E+01 0.  1.
          5    1    5    5  503    0 -0.18730987501E+02  0.35754035507E+02 -0.79411408401E+02  0.89204611607E+02  0.47000000000E+01 0.  1.
         -5    1    5    5    0  503  0.45844665639E+02 -0.42819060274E+01 -0.67571477696E+03  0.67729802738E+03  0.47000000000E+01 0.  1.
<mgrwt>
<rscale>  0 0.26594956E+03</rscale>
<asrwt>0</asrwt>
<pdfrwt beam="1">  1        1 0.27690669E+00 0.26594956E+03</pdfrwt>
<pdfrwt beam="2">  1       -1 0.15113964E-02 0.26594956E+03</pdfrwt>
<totfact> 0.46968467E+03</totfact>
</mgrwt>
</event>
<event>
 9    1  0.8285222E-001  0.2764995E+03  0.7818608E-02  0.1097616E+00
         -3   -1    0    0    0  501 -0.00000000000E+00  0.00000000000E+00  0.26824617646E+03  0.26824617646E+03  0.00000000000E+00 0. -1.
          3   -1    0    0  501    0  0.00000000000E+00 -0.00000000000E+00 -0.71251670606E+02  0.71251670606E+02  0.00000000000E+00 0. -1.
         35    2    1    2    0    0  0.71054273576E-14  0.00000000000E+00  0.19699450585E+03  0.33949784706E+03  0.27649946261E+03 0.  0.
         25    2    3    3    0    0 -0.44014669955E+02 -0.18777792617E+01  0.51856854983E+02  0.14220165516E+03  0.12486536788E+03 0.  0.
         25    2    3    3    0    0  0.44014669955E+02  0.18777792617E+01  0.14513765087E+03  0.19729619190E+03  0.12617461081E+03 0.  0.
          5    1    4    4  502    0  0.38804952223E+02 -0.91506268412E+01  0.42408404069E+02  0.58396241525E+02  0.47000000000E+01 0.  1.
         -5    1    4    4    0  502 -0.82819622178E+02  0.72728475795E+01  0.94484509140E+01  0.83805413633E+02  0.47000000000E+01 0.  1.
          5    1    5    5  503    0 -0.13744983276E+02 -0.12787151189E+02  0.13534557727E+03  0.13672216750E+03  0.47000000000E+01 0. -1.
         -5    1    5    5    0  503  0.57759653231E+02  0.14664930451E+02  0.97920735983E+01  0.60574024399E+02  0.47000000000E+01 0. -1.
<mgrwt>
<rscale>  0 0.27649946E+03</rscale>
<asrwt>0</asrwt>
<pdfrwt beam="1">  1        3 0.10961796E-01 0.27649946E+03</pdfrwt>
<pdfrwt beam="2">  1       -3 0.41268642E-01 0.27649946E+03</pdfrwt>
<totfact> 0.94074138E+02</totfact>
</mgrwt>
</event>
<event>
 9    1  0.8285222E-001  0.2755396E+03  0.7818608E-02  0.1098150E+00
         -1   -1    0    0    0  501 -0.00000000000E+00  0.00000000000E+00  0.84604636161E+01  0.84604636161E+01  0.00000000000E+00 0.  1.
          1   -1    0    0  501    0  0.00000000000E+00 -0.00000000000E+00 -0.22434367186E+04  0.22434367186E+04  0.00000000000E+00 0.  1.
         35    2    1    2    0    0  0.00000000000E+00  0.00000000000E+00 -0.22349762550E+04  0.22518971822E+04  0.27553957779E+03 0.  0.
         25    2    3    3    0    0 -0.11260487370E+02 -0.44921635652E+02 -0.83465870576E+03  0.84522429651E+03  0.12491678984E+03 0.  0.
         25    2    3    3    0    0  0.11260487370E+02  0.44921635652E+02 -0.14003175492E+04  0.14066728857E+04  0.12527815768E+03 0.  0.
          5    1    4    4  502    0 -0.16449486317E+02  0.39448488085E+02 -0.40710072338E+03  0.40936518879E+03  0.47000000000E+01 0.  1.
         -5    1    4    4    0  502  0.51889989473E+01 -0.84370123737E+02 -0.42755798238E+03  0.43585910772E+03  0.47000000000E+01 0.  1.
          5    1    5    5  503    0 -0.37319533038E+01 -0.61286902236E+01 -0.11779141416E+04  0.11779453736E+04  0.47000000000E+01 0.  1.
         -5    1    5    5    0  503  0.14992440674E+02  0.51050325876E+02 -0.22240340761E+03  0.22872751205E+03  0.47000000000E+01 0.  1.
<mgrwt>
<rscale>  0 0.27553958E+03</rscale>
<asrwt>0</asrwt>
<pdfrwt beam="1">  1        1 0.34514422E+00 0.27553958E+03</pdfrwt>
<pdfrwt beam="2">  1       -1 0.13016094E-02 0.27553958E+03</pdfrwt>
<totfact> 0.30041341E+03</totfact>
</mgrwt>
</event>
<event>
 9    1  0.8285222E-001  0.2741672E+03  0.7818608E-02  0.1098918E+00
          1   -1    0    0  501    0  0.00000000000E+00  0.00000000000E+00  0.55387089124E+02  0.55387089124E+02  0.00000000000E+00 0. -1.
         -1   -1    0    0    0  501 -0.00000000000E+00 -0.00000000000E+00 -0.33928321672E+03  0.33928321672E+03  0.00000000000E+00 0. -1.
         35    2    1    2    0    0  0.00000000000E+00  0.10658141036E-13 -0.28389612759E+03  0.39467030584E+03  0.27416717355E+03 0.  0.
         25    2    3    3    0    0 -0.13739259735E+02  0.19166870270E+02 -0.69933663495E+02  0.14562236618E+03  0.12553493565E+03 0.  0.
         25    2    3    3    0    0  0.13739259735E+02 -0.19166870270E+02 -0.21396246410E+03  0.24904793966E+03  0.12525495612E+03 0.  0.
          5    1    4    4  502    0 -0.20982392632E+02  0.73743834436E+01 -0.10510501908E+03  0.10753509831E+03  0.47000000000E+01 0. -1.
         -5    1    4    4    0  502  0.72431328969E+01  0.11792486826E+02  0.35171355589E+02  0.38087267869E+02  0.47000000000E+01 0. -1.
          5    1    5    5  503    0  0.27184712495E+02 -0.68991240100E+02 -0.14333359448E+03  0.16144785261E+03  0.47000000000E+01 0.  1.
         -5    1    5    5    0  503 -0.13445452760E+02  0.49824369831E+02 -0.70628869615E+02  0.87600087055E+02  0.47000000000E+01 0.  1.
<mgrwt>
<rscale>  0 0.27416717E+03</rscale>
<asrwt>0</asrwt>
<pdfrwt beam="1">  1        1 0.85210904E-02 0.27416717E+03</pdfrwt>
<pdfrwt beam="2">  1       -1 0.52197419E-01 0.27416717E+03</pdfrwt>
<totfact> 0.30123028E+03</totfact>
</mgrwt>
</event>
<event>
 9    1  0.8285222E-001  0.2773215E+03  0.7818608E-02  0.1097161E+00
         -3   -1    0    0    0  501 -0.00000000000E+00  0.00000000000E+00  0.13690814240E+02  0.13690814240E+02  0.00000000000E+00 0.  1.
          3   -1    0    0  501    0  0.00000000000E+00 -0.00000000000E+00 -0.14043584285E+04  0.14043584285E+04  0.00000000000E+00 0.  1.
         35    2    1    2    0    0  0.00000000000E+00  0.00000000000E+00 -0.13906676142E+04  0.14180492427E+04  0.27732154889E+03 0.  0.
         25    2    3    3    0    0  0.13132514658E+02  0.43276212366E+02 -0.51708717519E+03  0.53437267127E+03  0.12700280139E+03 0.  0.
         25    2    3    3    0    0 -0.13132514658E+02 -0.43276212366E+02 -0.87358043903E+03  0.88367657142E+03  0.12528449996E+03 0.  0.
          5    1    4    4  502    0  0.32066386351E+02 -0.72244545056E+01 -0.43359588733E+03  0.43486541526E+03  0.47000000000E+01 0. -1.
         -5    1    4    4    0  502 -0.18933871693E+02  0.50500666871E+02 -0.83491287856E+02  0.99507256015E+02  0.47000000000E+01 0. -1.
          5    1    5    5  503    0 -0.24299999949E+02 -0.14603797364E+02 -0.82790209859E+03  0.82840070965E+03  0.47000000000E+01 0. -1.
         -5    1    5    5    0  503  0.11167485291E+02 -0.28672415002E+02 -0.45678340436E+02  0.55275861773E+02  0.47000000000E+01 0. -1.
<mgrwt>
<rscale>  0 0.27732155E+03</rscale>
<asrwt>0</asrwt>
<pdfrwt beam="1">  1        3 0.21605523E+00 0.27732155E+03</pdfrwt>
<pdfrwt beam="2">  1       -3 0.21062783E-02 0.27732155E+03</pdfrwt>
<totfact> 0.28713544E+02</totfact>
</mgrwt>
</event>
<event>
 9    1  0.8285222E-001  0.2720744E+03  0.7818608E-02  0.1100098E+00
         -2   -1    0    0    0  501 -0.00000000000E+00  0.00000000000E+00  0.12977432870E+03  0.12977432870E+03  0.00000000000E+00 0.  1.
          2   -1    0    0  501    0  0.00000000000E+00 -0.00000000000E+00 -0.14260227369E+03  0.14260227369E+03  0.00000000000E+00 0.  1.
         35    2    1    2    0    0  0.00000000000E+00  0.35527136788E-14 -0.12827944987E+02  0.27237660239E+03  0.27207435998E+03 0.  0.
         25    2    3    3    0    0  0.42983137156E+02  0.24817271930E+02 -0.27493481763E+02  0.13767671177E+03  0.12544137419E+03 0.  0.
         25    2    3    3    0    0 -0.42983137156E+02 -0.24817271930E+02  0.14665536776E+02  0.13469989062E+03  0.12436050618E+03 0.  0.
          5    1    4    4  502    0  0.79024272829E+02 -0.34252877342E+00 -0.43903987958E+02  0.90524047527E+02  0.47000000000E+01 0.  1.
         -5    1    4    4    0  502 -0.36041135673E+02  0.25159800703E+02  0.16410506194E+02  0.47152664247E+02  0.47000000000E+01 0.  1.
          5    1    5    5  503    0 -0.48987716380E+02  0.37575409642E+02  0.31720889295E+02  0.69570198962E+02  0.47000000000E+01 0.  1.
         -5    1    5    5    0  503  0.60045792239E+01 -0.62392681572E+02 -0.17055352518E+02  0.65129691654E+02  0.47000000000E+01 0.  1.
<mgrwt>
<rscale>  0 0.27207436E+03</rscale>
<asrwt>0</asrwt>
<pdfrwt beam="1">  1        2 0.21938811E-01 0.27207436E+03</pdfrwt>
<pdfrwt beam="2">  1       -2 0.19965282E-01 0.27207436E+03</pdfrwt>
<totfact> 0.52224923E+03</totfact>
</mgrwt>
</event>
<event>
 9    1  0.8285222E-001  0.2743740E+03  0.7818608E-02  0.1098802E+00
          2   -1    0    0  501    0  0.00000000000E+00  0.00000000000E+00  0.25282927396E+03  0.25282927396E+03  0.00000000000E+00 0. -1.
         -2   -1    0    0    0  501 -0.00000000000E+00 -0.00000000000E+00 -0.74438638204E+02  0.74438638204E+02  0.00000000000E+00 0. -1.
         35    2    1    2    0    0 -0.71054273576E-14  0.71054273576E-14  0.17839063575E+03  0.32726791216E+03  0.27437395541E+03 0.  0.
         25    2    3    3    0    0  0.41090403764E+02  0.31358899608E+02  0.12304396386E+03  0.18133008617E+03  0.12275577885E+03 0.  0.
         25    2    3    3    0    0 -0.41090403764E+02 -0.31358899608E+02  0.55346671891E+02  0.14593782599E+03  0.12475092424E+03 0.  0.
          5    1    4    4  502    0  0.26667452447E+01 -0.45580951202E+02  0.54511209145E+02  0.71262167839E+02  0.47000000000E+01 0.  1.
         -5    1    4    4    0  502  0.38423658520E+02  0.76939850810E+02  0.68532754716E+02  0.11006791833E+03  0.47000000000E+01 0.  1.
          5    1    5    5  503    0  0.82944022953E+01 -0.61794300813E+02  0.61139862534E+02  0.87450017228E+02  0.47000000000E+01 0. -1.
         -5    1    5    5    0  503 -0.49384806059E+02  0.30435401205E+02 -0.57931906434E+01  0.58487808763E+02  0.47000000000E+01 0. -1.
<mgrwt>
<rscale>  0 0.27437396E+03</rscale>
<asrwt>0</asrwt>
<pdfrwt beam="1">  1        2 0.38896811E-01 0.27437396E+03</pdfrwt>
<pdfrwt beam="2">  1       -2 0.11452098E-01 0.27437396E+03</pdfrwt>
<totfact> 0.69722440E+03</totfact>
</mgrwt>
</event>
<event>
 9    1  0.8285222E-001  0.2764516E+03  0.7818608E-02  0.1097643E+00
          1   -1    0    0  501    0  0.00000000000E+00  0.00000000000E+00  0.58750372578E+02  0.58750372578E+02  0.00000000000E+00 0. -1.
         -1   -1    0    0    0  501 -0.00000000000E+00 -0.00000000000E+00 -0.32521277686E+03  0.32521277686E+03  0.00000000000E+00 0. -1.
         35    2    1    2    0    0  0.00000000000E+00  0.71054273576E-14 -0.26646240428E+03  0.38396314944E+03  0.27645160016E+03 0.  0.
         25    2    3    3    0    0  0.29525687828E+02 -0.25032931465E+02 -0.19488199802E+03  0.23486732582E+03  0.12524078285E+03 0.  0.
         25    2    3    3    0    0 -0.29525687828E+02  0.25032931465E+02 -0.71580406260E+02  0.14909582361E+03  0.12492956479E+03 0.  0.
          5    1    4    4  502    0 -0.34067925281E+02 -0.43111251690E+02 -0.45694015269E+02  0.71618688808E+02  0.47000000000E+01 0.  1.
         -5    1    4    4    0  502  0.63593613109E+02  0.18078320225E+02 -0.14918798275E+03  0.16324863702E+03  0.47000000000E+01 0.  1.
          5    1    5    5  503    0 -0.12783258415E+02  0.71302361992E+02 -0.15291651059E+02  0.74184655512E+02  0.47000000000E+01 0. -1.
         -5    1    5    5    0  503 -0.16742429413E+02 -0.46269430527E+02 -0.56288755201E+02  0.74911168099E+02  0.47000000000E+01 0. -1.
<mgrwt>
<rscale>  0 0.27645160E+03</rscale>
<asrwt>0</asrwt>
<pdfrwt beam="1">  1        1 0.90385188E-02 0.27645160E+03</pdfrwt>
<pdfrwt beam="2">  1       -1 0.50032735E-01 0.27645160E+03</pdfrwt>
<totfact> 0.30095648E+03</totfact>
</mgrwt>
</event>
<event>
 9    1  0.8285222E-001  0.2893928E+03  0.7818608E-02  0.1090667E+00
         -2   -1    0    0    0  501 -0.00000000000E+00  0.00000000000E+00  0.98303997629E+03  0.98303997629E+03  0.00000000000E+00 0. -1.
          2   -1    0    0  501    0  0.00000000000E+00 -0.00000000000E+00 -0.21298273361E+02  0.21298273361E+02  0.00000000000E+00 0. -1.
         35    2    1    2    0    0  0.00000000000E+00  0.00000000000E+00  0.96174170293E+03  0.10043382496E+04  0.28939284124E+03 0.  0.
         25    2    3    3    0    0 -0.70047563997E+02  0.23688331901E+02  0.46798268578E+03  0.49007783176E+03  0.12530238905E+03 0.  0.
         25    2    3    3    0    0  0.70047563997E+02 -0.23688331901E+02  0.49375901715E+03  0.51426041789E+03  0.12328021781E+03 0.  0.
          5    1    4    4  502    0 -0.75622907589E+02 -0.36394977832E+02  0.24455013264E+03  0.25859287681E+03  0.47000000000E+01 0.  1.
         -5    1    4    4    0  502  0.55753435920E+01  0.60083309733E+02  0.22343255314E+03  0.23148495495E+03  0.47000000000E+01 0.  1.
          5    1    5    5  503    0  0.25252257895E+02 -0.69977692773E+02  0.32798187438E+03  0.33634618169E+03  0.47000000000E+01 0. -1.
         -5    1    5    5    0  503  0.44795306102E+02  0.46289360873E+02  0.16577714277E+03  0.17791423620E+03  0.47000000000E+01 0. -1.
<mgrwt>
<rscale>  0 0.28939284E+03</rscale>
<asrwt>0</asrwt>
<pdfrwt beam="1">  1        2 0.32766582E-02 0.28939284E+03</pdfrwt>
<pdfrwt beam="2">  1       -2 0.15123688E+00 0.28939284E+03</pdfrwt>
<totfact> 0.86369995E+02</totfact>
</mgrwt>
</event>
<event>
 9    1  0.8285222E-001  0.2736662E+03  0.7818608E-02  0.1099200E+00
         -1   -1    0    0    0  501 -0.00000000000E+00  0.00000000000E+00  0.71760578445E+02  0.71760578445E+02  0.00000000000E+00 0.  1.
          1   -1    0    0  501    0  0.00000000000E+00 -0.00000000000E+00 -0.26091336839E+03  0.26091336839E+03  0.00000000000E+00 0.  1.
         35    2    1    2    0    0 -0.35527136788E-14  0.00000000000E+00 -0.18915278994E+03  0.33267394684E+03  0.27366617796E+03 0.  0.
         25    2    3    3    0    0 -0.33043617525E+01  0.54914434122E+02 -0.11560476575E+03  0.17754223022E+03  0.12300515340E+03 0.  0.
         25    2    3    3    0    0  0.33043617525E+01 -0.54914434122E+02 -0.73548024191E+02  0.15513171662E+03  0.12502009341E+03 0.  0.
          5    1    4    4  502    0  0.46482805675E+02  0.64931915684E+02 -0.90207715463E+02  0.12056669037E+03  0.47000000000E+01 0. -1.
         -5    1    4    4    0  502 -0.49787167427E+02 -0.10017481562E+02 -0.25397050291E+02  0.56975539846E+02  0.47000000000E+01 0. -1.
          5    1    5    5  503    0  0.23978677620E+02 -0.86762061126E+02 -0.25427509619E+02  0.93655114525E+02  0.47000000000E+01 0.  1.
         -5    1    5    5    0  503 -0.20674315868E+02  0.31847627004E+02 -0.48120514572E+02  0.61476602095E+02  0.47000000000E+01 0.  1.
<mgrwt>
<rscale>  0 0.27366618E+03</rscale>
<asrwt>0</asrwt>
<pdfrwt beam="1">  1        1 0.40140519E-01 0.27366618E+03</pdfrwt>
<pdfrwt beam="2">  1       -1 0.11040089E-01 0.27366618E+03</pdfrwt>
<totfact> 0.54241841E+03</totfact>
</mgrwt>
</event>
<event>
 9    1  0.8285222E-001  0.2842682E+03  0.7818608E-02  0.1093380E+00
         -2   -1    0    0    0  501 -0.00000000000E+00  0.00000000000E+00  0.17880416706E+02  0.17880416706E+02  0.00000000000E+00 0.  1.
          2   -1    0    0  501    0  0.00000000000E+00 -0.00000000000E+00 -0.11298449837E+04  0.11298449837E+04  0.00000000000E+00 0.  1.
         35    2    1    2    0    0  0.14210854715E-13  0.00000000000E+00 -0.11119645670E+04  0.11477254004E+04  0.28426817705E+03 0.  0.
         25    2    3    3    0    0  0.63666670488E+02 -0.16146757862E+02 -0.62413300405E+03  0.63994811393E+03  0.12520950067E+03 0.  0.
         25    2    3    3    0    0 -0.63666670488E+02  0.16146757862E+02 -0.48783156292E+03  0.50777728645E+03  0.12467548330E+03 0.  0.
          5    1    4    4  502    0 -0.12884117841E+02 -0.14154667132E+02 -0.44039429024E+03  0.44083508931E+03  0.47000000000E+01 0.  1.
         -5    1    4    4    0  502  0.76550788329E+02 -0.19920907299E+01 -0.18373871381E+03  0.19911302462E+03  0.47000000000E+01 0.  1.
          5    1    5    5  503    0 -0.74337436942E+02  0.12205815624E+02 -0.48956362965E+03  0.49534803315E+03  0.47000000000E+01 0.  1.
         -5    1    5    5    0  503  0.10670766454E+02  0.39409422374E+01  0.17320667351E+01  0.12429253300E+02  0.47000000000E+01 0.  1.
<mgrwt>
<rscale>  0 0.28426818E+03</rscale>
<asrwt>0</asrwt>
<pdfrwt beam="1">  1        2 0.17382227E+00 0.28426818E+03</pdfrwt>
<pdfrwt beam="2">  1       -2 0.27508338E-02 0.28426818E+03</pdfrwt>
<totfact> 0.10571030E+04</totfact>
</mgrwt>
</event>
<event>
 9    1  0.8285222E-001  0.2764820E+03  0.7818608E-02  0.1097626E+00
          1   -1    0    0  501    0  0.00000000000E+00  0.00000000000E+00  0.11039081221E+04  0.11039081221E+04  0.00000000000E+00 0. -1.
         -1   -1    0    0    0  501 -0.00000000000E+00 -0.00000000000E+00 -0.17311738293E+02  0.17311738293E+02  0.00000000000E+00 0. -1.
         35    2    1    2    0    0  0.00000000000E+00  0.00000000000E+00  0.10865963838E+04  0.11212198604E+04  0.27648195970E+03 0.  0.
         25    2    3    3    0    0  0.13200703573E+02  0.28821404831E+02  0.74929642849E+03  0.76029181655E+03  0.12487424322E+03 0.  0.
         25    2    3    3    0    0 -0.13200703573E+02 -0.28821404831E+02  0.33729995534E+03  0.36092804386E+03  0.12447032186E+03 0.  0.
          5    1    4    4  502    0 -0.39146367281E+02  0.14006340497E+02  0.96060079232E+02  0.10477711805E+03  0.47000000000E+01 0. -1.
         -5    1    4    4    0  502  0.52347070854E+02  0.14815064334E+02  0.65323634926E+03  0.65551469850E+03  0.47000000000E+01 0. -1.
          5    1    5    5  503    0 -0.44052613349E+02 -0.13725980972E+02  0.31777290006E+03  0.32113975355E+03  0.47000000000E+01 0.  1.
         -5    1    5    5    0  503  0.30851909777E+02 -0.15095423859E+02  0.19527055281E+02  0.39788290316E+02  0.47000000000E+01 0.  1.
<mgrwt>
<rscale>  0 0.27648196E+03</rscale>
<asrwt>0</asrwt>
<pdfrwt beam="1">  1        1 0.16983196E+00 0.27648196E+03</pdfrwt>
<pdfrwt beam="2">  1       -1 0.26633452E-02 0.27648196E+03</pdfrwt>
<totfact> 0.60284223E+03</totfact>
</mgrwt>
</event>
<event>
 9    1  0.8285222E-001  0.2760258E+03  0.7818608E-02  0.1097880E+00
          2   -1    0    0  501    0  0.00000000000E+00  0.00000000000E+00  0.11837557293E+04  0.11837557293E+04  0.00000000000E+00 0. -1.
         -2   -1    0    0    0  501 -0.00000000000E+00 -0.00000000000E+00 -0.16090783136E+02  0.16090783136E+02  0.00000000000E+00 0. -1.
         35    2    1    2    0    0 -0.71054273576E-14  0.26645352591E-14  0.11676649461E+04  0.11998465124E+04  0.27602577217E+03 0.  0.
         25    2    3    3    0    0  0.33004626491E+02  0.19114684262E+01  0.79412154434E+03  0.80435140687E+03  0.12352813231E+03 0.  0.
         25    2    3    3    0    0 -0.33004626491E+02 -0.19114684262E+01  0.37354340179E+03  0.39549510553E+03  0.12565327849E+03 0.  0.
          5    1    4    4  502    0  0.76348248447E+02  0.39495510956E+01  0.62553042993E+03  0.63020239826E+03  0.47000000000E+01 0. -1.
         -5    1    4    4    0  502 -0.43343621956E+02 -0.20380826693E+01  0.16859111441E+03  0.17414900862E+03  0.47000000000E+01 0. -1.
          5    1    5    5  503    0 -0.12982833061E+02  0.30645310747E+02  0.34723447394E+03  0.34885750517E+03  0.47000000000E+01 0. -1.
         -5    1    5    5    0  503 -0.20021793430E+02 -0.32556779173E+02  0.26308927854E+02  0.46637600358E+02  0.47000000000E+01 0. -1.
<mgrwt>
<rscale>  0 0.27602577E+03</rscale>
<asrwt>0</asrwt>
<pdfrwt beam="1">  1        2 0.18211620E+00 0.27602577E+03</pdfrwt>
<pdfrwt beam="2">  1       -2 0.24755060E-02 0.27602577E+03</pdfrwt>
<totfact> 0.11497444E+04</totfact>
</mgrwt>
</event>
<event>
 9    1  0.8285222E-001  0.2709869E+03  0.7818608E-02  0.1100716E+00
          2   -1    0    0  501    0  0.00000000000E+00  0.00000000000E+00  0.19685897254E+04  0.19685897254E+04  0.00000000000E+00 0. -1.
         -2   -1    0    0    0  501 -0.00000000000E+00 -0.00000000000E+00 -0.93257001932E+01  0.93257001932E+01  0.00000000000E+00 0. -1.
         35    2    1    2    0    0  0.71054273576E-14  0.00000000000E+00  0.19592640252E+04  0.19779154256E+04  0.27098691911E+03 0.  0.
         25    2    3    3    0    0  0.37529046329E+02  0.34285092127E+02  0.10756793351E+04  0.10840596564E+04  0.12456086836E+03 0.  0.
         25    2    3    3    0    0 -0.37529046329E+02 -0.34285092127E+02  0.88358469011E+03  0.89385576914E+03  0.12518919512E+03 0.  0.
          5    1    4    4  502    0  0.82489401367E+02  0.29883796039E+02  0.63589629852E+03  0.64193748534E+03  0.47000000000E+01 0. -1.
         -5    1    4    4    0  502 -0.44960355038E+02  0.44012960882E+01  0.43978303655E+03  0.44212217109E+03  0.47000000000E+01 0. -1.
          5    1    5    5  503    0 -0.14100796929E+02 -0.60461801960E+02  0.80776472693E+03  0.81016072853E+03  0.47000000000E+01 0.  1.
         -5    1    5    5    0  503 -0.23428249400E+02  0.26176709833E+02  0.75819963175E+02  0.83695040614E+02  0.47000000000E+01 0.  1.
<mgrwt>
<rscale>  0 0.27098692E+03</rscale>
<asrwt>0</asrwt>
<pdfrwt beam="1">  1        2 0.30285963E+00 0.27098692E+03</pdfrwt>
<pdfrwt beam="2">  1       -2 0.14347247E-02 0.27098692E+03</pdfrwt>
<totfact> 0.97159818E+03</totfact>
</mgrwt>
</event>
<event>
 9    1  0.8285222E-001  0.2773252E+03  0.7818608E-02  0.1097159E+00
         -1   -1    0    0    0  501 -0.00000000000E+00  0.00000000000E+00  0.85050020524E+02  0.85050020524E+02  0.00000000000E+00 0. -1.
          1   -1    0    0  501    0  0.00000000000E+00 -0.00000000000E+00 -0.22607065220E+03  0.22607065220E+03  0.00000000000E+00 0. -1.
         35    2    1    2    0    0  0.35527136788E-14  0.71054273576E-14 -0.14102063168E+03  0.31112067272E+03  0.27732517815E+03 0.  0.
         25    2    3    3    0    0  0.24774366656E+02  0.77747813880E+01 -0.29783312293E+02  0.14027389894E+03  0.13459385040E+03 0.  0.
         25    2    3    3    0    0 -0.24774366656E+02 -0.77747813880E+01 -0.11123731938E+03  0.17084677378E+03  0.12704590674E+03 0.  0.
          5    1    4    4  502    0  0.62807417115E+01 -0.16842799198E+02  0.50687490891E+02  0.53985547456E+02  0.47000000000E+01 0.  1.
         -5    1    4    4    0  502  0.18493624945E+02  0.24617580586E+02 -0.80470803184E+02  0.86288351489E+02  0.47000000000E+01 0.  1.
          5    1    5    5  503    0 -0.45425754904E+02  0.24595298505E+02 -0.12039584740E+03  0.13109415696E+03  0.47000000000E+01 0. -1.
         -5    1    5    5    0  503  0.20651388248E+02 -0.32370079893E+02  0.91585280175E+01  0.39752616823E+02  0.47000000000E+01 0. -1.
<mgrwt>
<rscale>  0 0.27732518E+03</rscale>
<asrwt>0</asrwt>
<pdfrwt beam="1">  1        1 0.34780100E-01 0.27732518E+03</pdfrwt>
<pdfrwt beam="2">  1       -1 0.13084619E-01 0.27732518E+03</pdfrwt>
<totfact> 0.49820058E+03</totfact>
</mgrwt>
</event>
<event>
 9    1  0.8285222E-001  0.2772629E+03  0.7818608E-02  0.1097193E+00
         -1   -1    0    0    0  501 -0.00000000000E+00  0.00000000000E+00  0.32620228228E+02  0.32620228228E+02  0.00000000000E+00 0.  1.
          1   -1    0    0  501    0  0.00000000000E+00 -0.00000000000E+00 -0.58916446571E+03  0.58916446571E+03  0.00000000000E+00 0.  1.
         35    2    1    2    0    0  0.00000000000E+00  0.71054273576E-14 -0.55654423748E+03  0.62178469394E+03  0.27726290293E+03 0.  0.
         25    2    3    3    0    0 -0.31285067781E+01 -0.33456748867E+02 -0.38648061172E+03  0.40786265661E+03  0.12591879058E+03 0.  0.
         25    2    3    3    0    0  0.31285067781E+01  0.33456748867E+02 -0.17006362576E+03  0.21392203733E+03  0.12534695708E+03 0.  0.
          5    1    4    4  502    0 -0.54946842470E+02 -0.13061544164E+02 -0.91459506652E+02  0.10759503144E+03  0.47000000000E+01 0. -1.
         -5    1    4    4    0  502  0.51818335692E+02 -0.20395204703E+02 -0.29502110507E+03  0.30026762517E+03  0.47000000000E+01 0. -1.
          5    1    5    5  503    0  0.37192251267E+02  0.66723861082E+02 -0.13281110465E+03  0.15328475694E+03  0.47000000000E+01 0. -1.
         -5    1    5    5    0  503 -0.34063744489E+02 -0.33267112215E+02 -0.37252521112E+02  0.60637280388E+02  0.47000000000E+01 0. -1.
<mgrwt>
<rscale>  0 0.27726290E+03</rscale>
<asrwt>0</asrwt>
<pdfrwt beam="1">  1        1 0.90640687E-01 0.27726290E+03</pdfrwt>
<pdfrwt beam="2">  1       -1 0.50184966E-02 0.27726290E+03</pdfrwt>
<totfact> 0.62928988E+03</totfact>
</mgrwt>
</event>
<event>
 9    1  0.8285222E-001  0.2650008E+03  0.7818608E-02  0.1104175E+00
          2   -1    0    0  501    0  0.00000000000E+00  0.00000000000E+00  0.28567924298E+03  0.28567924298E+03  0.00000000000E+00 0. -1.
         -2   -1    0    0    0  501 -0.00000000000E+00 -0.00000000000E+00 -0.61454771921E+02  0.61454771921E+02  0.00000000000E+00 0. -1.
         35    2    1    2    0    0  0.00000000000E+00  0.00000000000E+00  0.22422447106E+03  0.34713401490E+03  0.26500077524E+03 0.  0.
         25    2    3    3    0    0 -0.19476877188E+02 -0.22504333224E+02  0.73608259607E+02  0.14872266420E+03  0.12575556133E+03 0.  0.
         25    2    3    3    0    0  0.19476877188E+02  0.22504333224E+02  0.15061621145E+03  0.19841135070E+03  0.12568224686E+03 0.  0.
          5    1    4    4  502    0  0.80629709840E+01 -0.69685508937E+02  0.22646946100E+02  0.73865119133E+02  0.47000000000E+01 0. -1.
         -5    1    4    4    0  502 -0.27539848172E+02  0.47181175713E+02  0.50961313508E+02  0.74857545067E+02  0.47000000000E+01 0. -1.
          5    1    5    5  503    0  0.57046178186E+02  0.54359640094E+02  0.82067963367E+02  0.11387044185E+03  0.47000000000E+01 0.  1.
         -5    1    5    5    0  503 -0.37569300998E+02 -0.31855306871E+02  0.68548248086E+02  0.84540908848E+02  0.47000000000E+01 0.  1.
<mgrwt>
<rscale>  0 0.26500078E+03</rscale>
<asrwt>0</asrwt>
<pdfrwt beam="1">  1        2 0.43950652E-01 0.26500078E+03</pdfrwt>
<pdfrwt beam="2">  1       -2 0.94545804E-02 0.26500078E+03</pdfrwt>
<totfact> 0.82865615E+03</totfact>
</mgrwt>
</event>
<event>
 9    1  0.8285222E-001  0.2767439E+03  0.7818608E-02  0.1097481E+00
          2   -1    0    0  501    0  0.00000000000E+00  0.00000000000E+00  0.13214273457E+04  0.13214273457E+04  0.00000000000E+00 0. -1.
         -2   -1    0    0    0  501 -0.00000000000E+00 -0.00000000000E+00 -0.14489484065E+02  0.14489484065E+02  0.00000000000E+00 0. -1.
         35    2    1    2    0    0  0.35527136788E-14  0.00000000000E+00  0.13069378616E+04  0.13359168298E+04  0.27674392834E+03 0.  0.
         25    2    3    3    0    0 -0.27172274394E+02  0.34333539707E+01  0.92889579503E+03  0.93759317239E+03  0.12443246552E+03 0.  0.
         25    2    3    3    0    0  0.27172274394E+02 -0.34333539707E+01  0.37804206661E+03  0.39832365738E+03  0.12245738641E+03 0.  0.
          5    1    4    4  502    0 -0.19427731580E+02 -0.44217928695E+02  0.16067940892E+03  0.16784702685E+03  0.47000000000E+01 0.  1.
         -5    1    4    4    0  502 -0.77445428142E+01  0.47651282666E+02  0.76821638611E+03  0.76974614554E+03  0.47000000000E+01 0.  1.
          5    1    5    5  503    0  0.69468774601E+02 -0.28438172261E+02  0.25113955970E+03  0.26215989154E+03  0.47000000000E+01 0. -1.
         -5    1    5    5    0  503 -0.42296500207E+02  0.25004818290E+02  0.12690250691E+03  0.13616376584E+03  0.47000000000E+01 0. -1.
<mgrwt>
<rscale>  0 0.27674393E+03</rscale>
<asrwt>0</asrwt>
<pdfrwt beam="1">  1        2 0.20329642E+00 0.27674393E+03</pdfrwt>
<pdfrwt beam="2">  1       -2 0.22291524E-02 0.27674393E+03</pdfrwt>
<totfact> 0.11238762E+04</totfact>
</mgrwt>
</event>
<event>
 9    1  0.8285222E-001  0.2690490E+03  0.7818608E-02  0.1101825E+00
         -1   -1    0    0    0  501 -0.00000000000E+00  0.00000000000E+00  0.21911494032E+02  0.21911494032E+02  0.00000000000E+00 0. -1.
          1   -1    0    0  501    0  0.00000000000E+00 -0.00000000000E+00 -0.82590618980E+03  0.82590618980E+03  0.00000000000E+00 0. -1.
         35    2    1    2    0    0  0.00000000000E+00 -0.71054273576E-14 -0.80399469577E+03  0.84781768383E+03  0.26904898103E+03 0.  0.
         25    2    3    3    0    0  0.18794536606E+02  0.35053370590E+02 -0.30549276583E+03  0.33239591899E+03  0.12481684017E+03 0.  0.
         25    2    3    3    0    0 -0.18794536606E+02 -0.35053370590E+02 -0.49850192994E+03  0.51542176485E+03  0.12479362214E+03 0.  0.
          5    1    4    4  502    0 -0.37252778344E+02  0.57274496226E+01 -0.26574038358E+02  0.46355611183E+02  0.47000000000E+01 0.  1.
         -5    1    4    4    0  502  0.56047314950E+02  0.29325920967E+02 -0.27891872747E+03  0.28604030780E+03  0.47000000000E+01 0.  1.
          5    1    5    5  503    0  0.11326975043E+01  0.44683154132E+02 -0.12175177546E+03  0.12978232581E+03  0.47000000000E+01 0.  1.
         -5    1    5    5    0  503 -0.19927234110E+02 -0.79736524722E+02 -0.37675015448E+03  0.38563943903E+03  0.47000000000E+01 0.  1.
<mgrwt>
<rscale>  0 0.26904898E+03</rscale>
<asrwt>0</asrwt>
<pdfrwt beam="1">  1        1 0.12706250E+00 0.26904898E+03</pdfrwt>
<pdfrwt beam="2">  1       -1 0.33709988E-02 0.26904898E+03</pdfrwt>
<totfact> 0.69382097E+03</totfact>
</mgrwt>
</event>
<event>
 9    1  0.8285222E-001  0.2742156E+03  0.7818608E-02  0.1098891E+00
         -2   -1    0    0    0  501 -0.00000000000E+00  0.00000000000E+00  0.59021184374E+02  0.59021184374E+02  0.00000000000E+00 0. -1.
          2   -1    0    0  501    0  0.00000000000E+00 -0.00000000000E+00 -0.31850517740E+03  0.31850517740E+03  0.00000000000E+00 0. -1.
         35    2    1    2    0    0 -0.14210854715E-13  0.35527136788E-14 -0.25948399302E+03  0.37752636177E+03  0.27421562902E+03 0.  0.
         25    2    3    3    0    0 -0.52234568996E+02 -0.20377950398E+02 -0.11768570062E+03  0.18030098884E+03  0.12455846574E+03 0.  0.
         25    2    3    3    0    0  0.52234568996E+02  0.20377950398E+02 -0.14179829241E+03  0.19722537293E+03  0.12508949171E+03 0.  0.
          5    1    4    4  502    0 -0.57474232752E+02 -0.46992719367E+02 -0.13028407095E+03  0.15002543867E+03  0.47000000000E+01 0.  1.
         -5    1    4    4    0  502  0.52396637564E+01  0.26614768970E+02  0.12598370333E+02  0.30275550179E+02  0.47000000000E+01 0.  1.
          5    1    5    5  503    0  0.73788891665E+02  0.53820437903E+01 -0.15164104438E+03  0.16879236733E+03  0.47000000000E+01 0.  1.
         -5    1    5    5    0  503 -0.21554322669E+02  0.14995906607E+02  0.98427519737E+01  0.28433005594E+02  0.47000000000E+01 0.  1.
<mgrwt>
<rscale>  0 0.27421563E+03</rscale>
<asrwt>0</asrwt>
<pdfrwt beam="1">  1        2 0.49000796E-01 0.27421563E+03</pdfrwt>
<pdfrwt beam="2">  1       -2 0.90801822E-02 0.27421563E+03</pdfrwt>
<totfact> 0.78686073E+03</totfact>
</mgrwt>
</event>
<event>
 9    1  0.8285222E-001  0.2733864E+03  0.7818608E-02  0.1099357E+00
          2   -1    0    0  501    0  0.00000000000E+00  0.00000000000E+00  0.27612328747E+03  0.27612328747E+03  0.00000000000E+00 0.  1.
         -2   -1    0    0    0  501 -0.00000000000E+00 -0.00000000000E+00 -0.67669171410E+02  0.67669171410E+02  0.00000000000E+00 0.  1.
         35    2    1    2    0    0  0.00000000000E+00 -0.71054273576E-14  0.20845411606E+03  0.34379245888E+03  0.27338642300E+03 0.  0.
         25    2    3    3    0    0 -0.19151613116E+02  0.27505942991E+02  0.78081486760E+02  0.15942034490E+03  0.13488797800E+03 0.  0.
         25    2    3    3    0    0  0.19151613116E+02 -0.27505942991E+02  0.13037262930E+03  0.18437211397E+03  0.12598687533E+03 0.  0.
          5    1    4    4  502    0 -0.96162682312E+01  0.81538600864E+02  0.34451486612E+02  0.89162834047E+02  0.47000000000E+01 0.  1.
         -5    1    4    4    0  502 -0.95353448853E+01 -0.54032657873E+02  0.43630000148E+02  0.70257510857E+02  0.47000000000E+01 0.  1.
          5    1    5    5  503    0  0.26914379835E+02  0.44117192066E+02  0.83447535826E+02  0.98266432280E+02  0.47000000000E+01 0. -1.
         -5    1    5    5    0  503 -0.77627667190E+01 -0.71623135057E+02  0.46925093470E+02  0.86105681692E+02  0.47000000000E+01 0. -1.
<mgrwt>
<rscale>  0 0.27338642E+03</rscale>
<asrwt>0</asrwt>
<pdfrwt beam="1">  1        2 0.42480505E-01 0.27338642E+03</pdfrwt>
<pdfrwt beam="2">  1       -2 0.10410642E-01 0.27338642E+03</pdfrwt>
<totfact> 0.73854073E+03</totfact>
</mgrwt>
</event>
<event>
 9    1  0.8285222E-001  0.2738904E+03  0.7818608E-02  0.1099073E+00
         -1   -1    0    0    0  501 -0.00000000000E+00  0.00000000000E+00  0.14162731731E+02  0.14162731731E+02  0.00000000000E+00 0. -1.
          1   -1    0    0  501    0  0.00000000000E+00 -0.00000000000E+00 -0.13241788365E+04  0.13241788365E+04  0.00000000000E+00 0. -1.
         35    2    1    2    0    0 -0.71054273576E-14  0.71054273576E-14 -0.13100161047E+04  0.13383415682E+04  0.27389041330E+03 0.  0.
         25    2    3    3    0    0 -0.26215292395E+02 -0.32972889548E+02 -0.84606553434E+03  0.85626842196E+03  0.12487701569E+03 0.  0.
         25    2    3    3    0    0  0.26215292395E+02  0.32972889548E+02 -0.46395057038E+03  0.48207314622E+03  0.12397553610E+03 0.  0.
          5    1    4    4  502    0  0.32927679037E+02  0.26681677420E+02 -0.40594198314E+03  0.40817536382E+03  0.47000000000E+01 0.  1.
         -5    1    4    4    0  502 -0.59142971432E+02 -0.59654566968E+02 -0.44012355120E+03  0.44809305814E+03  0.47000000000E+01 0.  1.
          5    1    5    5  503    0  0.38291008770E+02 -0.40731417555E+02 -0.19955566164E+03  0.20729158647E+03  0.47000000000E+01 0.  1.
         -5    1    5    5    0  503 -0.12075716375E+02  0.73704307103E+02 -0.26439490874E+03  0.27478155976E+03  0.47000000000E+01 0.  1.
<mgrwt>
<rscale>  0 0.27389041E+03</rscale>
<asrwt>0</asrwt>
<pdfrwt beam="1">  1        1 0.20371985E+00 0.27389041E+03</pdfrwt>
<pdfrwt beam="2">  1       -1 0.21788815E-02 0.27389041E+03</pdfrwt>
<totfact> 0.56799268E+03</totfact>
</mgrwt>
</event>
<event>
 9    1  0.8285222E-001  0.2752127E+03  0.7818608E-02  0.1098333E+00
          2   -1    0    0  501    0  0.00000000000E+00  0.00000000000E+00  0.74882838690E+02  0.74882838690E+02  0.00000000000E+00 0. -1.
         -2   -1    0    0    0  501 -0.00000000000E+00 -0.00000000000E+00 -0.25286847144E+03  0.25286847144E+03  0.00000000000E+00 0. -1.
         35    2    1    2    0    0  0.00000000000E+00 -0.35527136788E-14 -0.17798563275E+03  0.32775131013E+03  0.27521271015E+03 0.  0.
         25    2    3    3    0    0 -0.37814997848E+02  0.26808214610E+01 -0.40569996905E+02  0.13772135303E+03  0.12603208150E+03 0.  0.
         25    2    3    3    0    0  0.37814997848E+02 -0.26808214610E+01 -0.13741563585E+03  0.19002995710E+03  0.12566290922E+03 0.  0.
          5    1    4    4  502    0  0.16050199202E+02 -0.25810329747E+02 -0.64995085355E+02  0.71904333224E+02  0.47000000000E+01 0.  1.
         -5    1    4    4    0  502 -0.53865197050E+02  0.28491151208E+02  0.24425088451E+02  0.65817019807E+02  0.47000000000E+01 0.  1.
          5    1    5    5  503    0  0.64733030063E+01  0.58187608796E+02 -0.40769061730E+02  0.71497607397E+02  0.47000000000E+01 0.  1.
         -5    1    5    5    0  503  0.31341694842E+02 -0.60868430257E+02 -0.96646574117E+02  0.11853234970E+03  0.47000000000E+01 0.  1.
<mgrwt>
<rscale>  0 0.27521271E+03</rscale>
<asrwt>0</asrwt>
<pdfrwt beam="1">  1        2 0.11520437E-01 0.27521271E+03</pdfrwt>
<pdfrwt beam="2">  1       -2 0.38902842E-01 0.27521271E+03</pdfrwt>
<totfact> 0.33615933E+03</totfact>
</mgrwt>
</event>
<event>
 9    1  0.8285222E-001  0.2807347E+03  0.7818608E-02  0.1095288E+00
         -4   -1    0    0    0  501 -0.00000000000E+00  0.00000000000E+00  0.98896035387E+02  0.98896035387E+02  0.00000000000E+00 0.  1.
          4   -1    0    0  501    0  0.00000000000E+00 -0.00000000000E+00 -0.19922937621E+03  0.19922937621E+03  0.00000000000E+00 0.  1.
         35    2    1    2    0    0  0.53290705182E-14  0.71054273576E-14 -0.10033334082E+03  0.29812541160E+03  0.28073471777E+03 0.  0.
         25    2    3    3    0    0  0.70832358431E+01  0.61452443823E+02 -0.23352367101E+02  0.13885103220E+03  0.12209709666E+03 0.  0.
         25    2    3    3    0    0 -0.70832358431E+01 -0.61452443823E+02 -0.76980973722E+02  0.15927437940E+03  0.12496272459E+03 0.  0.
          5    1    4    4  502    0 -0.72764496243E+01  0.25585922219E+01  0.45850997728E+02  0.46732184905E+02  0.47000000000E+01 0.  1.
         -5    1    4    4    0  502  0.14359685467E+02  0.58893851601E+02 -0.69203364830E+02  0.92118847294E+02  0.47000000000E+01 0.  1.
          5    1    5    5  503    0  0.35739381669E+02  0.12435303593E+02 -0.61489808260E+02  0.72353484349E+02  0.47000000000E+01 0. -1.
         -5    1    5    5    0  503 -0.42822617512E+02 -0.73887747416E+02 -0.15491165462E+02  0.86920895049E+02  0.47000000000E+01 0. -1.
<mgrwt>
<rscale>  0 0.28073472E+03</rscale>
<asrwt>0</asrwt>
<pdfrwt beam="1">  1        4 0.30650673E-01 0.28073472E+03</pdfrwt>
<pdfrwt beam="2">  1       -4 0.15214775E-01 0.28073472E+03</pdfrwt>
<totfact> 0.70551848E+02</totfact>
</mgrwt>
</event>
<event>
 9    1  0.8285222E-001  0.2860713E+03  0.7818608E-02  0.1092418E+00
          1   -1    0    0  501    0  0.00000000000E+00  0.00000000000E+00  0.53750882166E+03  0.53750882166E+03  0.00000000000E+00 0. -1.
         -1   -1    0    0    0  501 -0.00000000000E+00 -0.00000000000E+00 -0.38062995072E+02  0.38062995072E+02  0.00000000000E+00 0. -1.
         35    2    1    2    0    0  0.14210854715E-13 -0.17763568394E-14  0.49944582659E+03  0.57557181673E+03  0.28607128923E+03 0.  0.
         25    2    3    3    0    0 -0.68054813466E+02  0.78142107305E+01  0.28136216536E+03  0.31524635366E+03  0.12459163645E+03 0.  0.
         25    2    3    3    0    0  0.68054813466E+02 -0.78142107305E+01  0.21808366123E+03  0.26032546307E+03  0.12456461739E+03 0.  0.
          5    1    4    4  502    0 -0.39231418947E+02 -0.13232019050E+02  0.27567017942E+03  0.27880159322E+03  0.47000000000E+01 0. -1.
         -5    1    4    4    0  502 -0.28823394519E+02  0.21046229781E+02  0.56919859435E+01  0.36444760440E+02  0.47000000000E+01 0. -1.
          5    1    5    5  503    0  0.50713860153E+02  0.46879372717E+02  0.58348489990E+02  0.90532908282E+02  0.47000000000E+01 0. -1.
         -5    1    5    5    0  503  0.17340953313E+02 -0.54693583448E+02  0.15973517124E+03  0.16979255479E+03  0.47000000000E+01 0. -1.
<mgrwt>
<rscale>  0 0.28607129E+03</rscale>
<asrwt>0</asrwt>
<pdfrwt beam="1">  1        1 0.82693660E-01 0.28607129E+03</pdfrwt>
<pdfrwt beam="2">  1       -1 0.58558458E-02 0.28607129E+03</pdfrwt>
<totfact> 0.56613823E+03</totfact>
</mgrwt>
</event>
<event>
 9    1  0.8285222E-001  0.2747740E+03  0.7818608E-02  0.1098578E+00
         -1   -1    0    0    0  501 -0.00000000000E+00  0.00000000000E+00  0.14898270487E+02  0.14898270487E+02  0.00000000000E+00 0.  1.
          1   -1    0    0  501    0  0.00000000000E+00 -0.00000000000E+00 -0.12669383224E+04  0.12669383224E+04  0.00000000000E+00 0.  1.
         35    2    1    2    0    0 -0.35527136788E-14  0.71054273576E-14 -0.12520400519E+04  0.12818365929E+04  0.27477401491E+03 0.  0.
         25    2    3    3    0    0  0.23001773223E+02  0.45917085613E+02 -0.75228895539E+03  0.76404300481E+03  0.12322978730E+03 0.  0.
         25    2    3    3    0    0 -0.23001773223E+02 -0.45917085613E+02 -0.49975109652E+03  0.51779358807E+03  0.12538572906E+03 0.  0.
          5    1    4    4  502    0  0.37393983207E+02 -0.30635227368E+02 -0.41564251454E+03  0.41847056889E+03  0.47000000000E+01 0. -1.
         -5    1    4    4    0  502 -0.14392209984E+02  0.76552312981E+02 -0.33664644085E+03  0.34557243592E+03  0.47000000000E+01 0. -1.
          5    1    5    5  503    0 -0.57284671387E+01 -0.88679872407E+02 -0.31691964481E+03  0.32917637578E+03  0.47000000000E+01 0. -1.
         -5    1    5    5    0  503 -0.17273306085E+02  0.42762786794E+02 -0.18283145170E+03  0.18861721228E+03  0.47000000000E+01 0. -1.
<mgrwt>
<rscale>  0 0.27477401E+03</rscale>
<asrwt>0</asrwt>
<pdfrwt beam="1">  1        1 0.19491365E+00 0.27477401E+03</pdfrwt>
<pdfrwt beam="2">  1       -1 0.22920408E-02 0.27477401E+03</pdfrwt>
<totfact> 0.57717803E+03</totfact>
</mgrwt>
</event>
<event>
 9    1  0.8285222E-001  0.2768659E+03  0.7818608E-02  0.1097413E+00
         -2   -1    0    0    0  501 -0.00000000000E+00  0.00000000000E+00  0.55043736229E+02  0.55043736229E+02  0.00000000000E+00 0. -1.
          2   -1    0    0  501    0  0.00000000000E+00 -0.00000000000E+00 -0.34815379669E+03  0.34815379669E+03  0.00000000000E+00 0. -1.
         35    2    1    2    0    0  0.71054273576E-14 -0.35527136788E-14 -0.29311006047E+03  0.40319753292E+03  0.27686592967E+03 0.  0.
         25    2    3    3    0    0  0.35350193900E+02  0.31048198788E+02 -0.93932485471E+02  0.16331870796E+03  0.12504423892E+03 0.  0.
         25    2    3    3    0    0 -0.35350193900E+02 -0.31048198788E+02 -0.19917757500E+03  0.23987882496E+03  0.12512600620E+03 0.  0.
          5    1    4    4  502    0 -0.16354865453E+02  0.12600110626E+02  0.24689183473E+02  0.32525223940E+02  0.47000000000E+01 0. -1.
         -5    1    4    4    0  502  0.51705059353E+02  0.18448088162E+02 -0.11862166894E+03  0.13079348402E+03  0.47000000000E+01 0. -1.
          5    1    5    5  503    0  0.28768791300E+00  0.42118931775E+02 -0.29510022594E+02  0.51643185530E+02  0.47000000000E+01 0. -1.
         -5    1    5    5    0  503 -0.35637881813E+02 -0.73167130563E+02 -0.16966755240E+03  0.18823563943E+03  0.47000000000E+01 0. -1.
<mgrwt>
<rscale>  0 0.27686593E+03</rscale>
<asrwt>0</asrwt>
<pdfrwt beam="1">  1        2 0.53562123E-01 0.27686593E+03</pdfrwt>
<pdfrwt beam="2">  1       -2 0.84682670E-02 0.27686593E+03</pdfrwt>
<totfact> 0.79811456E+03</totfact>
</mgrwt>
</event>
<event>
 9    1  0.8285222E-001  0.2844656E+03  0.7818608E-02  0.1093275E+00
         -1   -1    0    0    0  501 -0.00000000000E+00  0.00000000000E+00  0.80266204912E+01  0.80266204912E+01  0.00000000000E+00 0.  1.
          1   -1    0    0  501    0  0.00000000000E+00 -0.00000000000E+00 -0.25203844260E+04  0.25203844260E+04  0.00000000000E+00 0.  1.
         35    2    1    2    0    0  0.71054273576E-14  0.00000000000E+00 -0.25123578056E+04  0.25284110465E+04  0.28446559918E+03 0.  0.
         25    2    3    3    0    0  0.44280700981E+02  0.44710850737E+02 -0.97437574986E+03  0.98419314518E+03  0.12356457611E+03 0.  0.
         25    2    3    3    0    0 -0.44280700981E+02 -0.44710850737E+02 -0.15379820557E+04  0.15442179014E+04  0.12353251617E+03 0.  0.
          5    1    4    4  502    0  0.81832289118E+02  0.26024038868E+02 -0.45154628775E+03  0.45966282656E+03  0.47000000000E+01 0. -1.
         -5    1    4    4    0  502 -0.37551588137E+02  0.18686811869E+02 -0.52282946211E+03  0.52453031863E+03  0.47000000000E+01 0. -1.
          5    1    5    5  503    0 -0.28658086990E+02 -0.22342833520E+02 -0.10950547218E+03  0.11547305571E+03  0.47000000000E+01 0.  1.
         -5    1    5    5    0  503 -0.15622613991E+02 -0.22368017217E+02 -0.14284765835E+04  0.14287448456E+04  0.47000000000E+01 0.  1.
<mgrwt>
<rscale>  0 0.28446560E+03</rscale>
<asrwt>0</asrwt>
<pdfrwt beam="1">  1        1 0.38775239E+00 0.28446560E+03</pdfrwt>
<pdfrwt beam="2">  1       -1 0.12348617E-02 0.28446560E+03</pdfrwt>
<totfact> 0.21276473E+03</totfact>
</mgrwt>
</event>
<event>
 9    1  0.8285222E-001  0.2753767E+03  0.7818608E-02  0.1098241E+00
         -1   -1    0    0    0  501 -0.00000000000E+00  0.00000000000E+00  0.19845473516E+02  0.19845473516E+02  0.00000000000E+00 0. -1.
          1   -1    0    0  501    0  0.00000000000E+00 -0.00000000000E+00 -0.95528477638E+03  0.95528477638E+03  0.00000000000E+00 0. -1.
         35    2    1    2    0    0 -0.35527136788E-14  0.00000000000E+00 -0.93543930287E+03  0.97513024990E+03  0.27537667825E+03 0.  0.
         25    2    3    3    0    0  0.26678575887E+02 -0.27336094928E+02 -0.31539629279E+03  0.34156945378E+03  0.12544266320E+03 0.  0.
         25    2    3    3    0    0 -0.26678575887E+02  0.27336094928E+02 -0.62004301008E+03  0.63356079612E+03  0.12444653286E+03 0.  0.
          5    1    4    4  502    0 -0.18441122207E+02  0.25520296306E+02 -0.18945569718E+02  0.37045716672E+02  0.47000000000E+01 0.  1.
         -5    1    4    4    0  502  0.45119698094E+02 -0.52856391234E+02 -0.29645072307E+03  0.30452373711E+03  0.47000000000E+01 0.  1.
          5    1    5    5  503    0 -0.26905277075E+02  0.47041112809E+02 -0.60707417436E+03  0.60950627840E+03  0.47000000000E+01 0. -1.
         -5    1    5    5    0  503  0.22670118781E+00 -0.19705017881E+02 -0.12968835712E+02  0.24054517722E+02  0.47000000000E+01 0. -1.
<mgrwt>
<rscale>  0 0.27537668E+03</rscale>
<asrwt>0</asrwt>
<pdfrwt beam="1">  1        1 0.14696692E+00 0.27537668E+03</pdfrwt>
<pdfrwt beam="2">  1       -1 0.30531491E-02 0.27537668E+03</pdfrwt>
<totfact> 0.63501808E+03</totfact>
</mgrwt>
</event>
<event>
 9    1  0.8285222E-001  0.2778421E+03  0.7818608E-02  0.1096873E+00
         -1   -1    0    0    0  501 -0.00000000000E+00  0.00000000000E+00  0.43102247021E+02  0.43102247021E+02  0.00000000000E+00 0.  1.
          1   -1    0    0  501    0  0.00000000000E+00 -0.00000000000E+00 -0.44775063098E+03  0.44775063098E+03  0.00000000000E+00 0.  1.
         35    2    1    2    0    0  0.35527136788E-14  0.00000000000E+00 -0.40464838396E+03  0.49085287800E+03  0.27784210120E+03 0.  0.
         25    2    3    3    0    0 -0.23786128257E+02  0.28481579660E+02 -0.12600850042E+03  0.18367179389E+03  0.12837525235E+03 0.  0.
         25    2    3    3    0    0  0.23786128257E+02 -0.28481579660E+02 -0.27863988354E+03  0.30718108412E+03  0.12386707981E+03 0.  0.
          5    1    4    4  502    0  0.10392456746E+02 -0.78570539359E+01  0.22786941000E+02  0.26665917083E+02  0.47000000000E+01 0. -1.
         -5    1    4    4    0  502 -0.34178585003E+02  0.36338633595E+02 -0.14879544142E+03  0.15700587680E+03  0.47000000000E+01 0. -1.
          5    1    5    5  503    0  0.24266807952E+02 -0.68846573494E+02 -0.99536203444E+02  0.12352438806E+03  0.47000000000E+01 0.  1.
         -5    1    5    5    0  503 -0.48067969537E+00  0.40364993835E+02 -0.17910368010E+03  0.18365669605E+03  0.47000000000E+01 0.  1.
<mgrwt>
<rscale>  0 0.27784210E+03</rscale>
<asrwt>0</asrwt>
<pdfrwt beam="1">  1        1 0.68884710E-01 0.27784210E+03</pdfrwt>
<pdfrwt beam="2">  1       -1 0.66311151E-02 0.27784210E+03</pdfrwt>
<totfact> 0.59721676E+03</totfact>
</mgrwt>
</event>
<event>
 9    1  0.8285222E-001  0.2730187E+03  0.7818608E-02  0.1099564E+00
         -1   -1    0    0    0  501 -0.00000000000E+00  0.00000000000E+00  0.13660517463E+02  0.13660517463E+02  0.00000000000E+00 0.  1.
          1   -1    0    0  501    0  0.00000000000E+00 -0.00000000000E+00 -0.13641360908E+04  0.13641360908E+04  0.00000000000E+00 0.  1.
         35    2    1    2    0    0  0.00000000000E+00  0.71054273576E-14 -0.13504755734E+04  0.13777966083E+04  0.27301871651E+03 0.  0.
         25    2    3    3    0    0  0.31592773905E+02 -0.22725648935E+02 -0.85810639830E+03  0.86796502545E+03  0.12450757453E+03 0.  0.
         25    2    3    3    0    0 -0.31592773905E+02  0.22725648935E+02 -0.49236917505E+03  0.50983158283E+03  0.12643686103E+03 0.  0.
          5    1    4    4  502    0 -0.22228369399E+02  0.40403913412E+02 -0.36069309300E+03  0.36365942029E+03  0.47000000000E+01 0. -1.
         -5    1    4    4    0  502  0.53821143304E+02 -0.63129562346E+02 -0.49741330530E+03  0.50430560516E+03  0.47000000000E+01 0. -1.
          5    1    5    5  503    0  0.38538415806E+02  0.24272039097E+02 -0.32625240871E+03  0.32944964040E+03  0.47000000000E+01 0.  1.
         -5    1    5    5    0  503 -0.70131189711E+02 -0.15463901620E+01 -0.16611676634E+03  0.18038194243E+03  0.47000000000E+01 0.  1.
<mgrwt>
<rscale>  0 0.27301872E+03</rscale>
<asrwt>0</asrwt>
<pdfrwt beam="1">  1        1 0.20986718E+00 0.27301872E+03</pdfrwt>
<pdfrwt beam="2">  1       -1 0.21016172E-02 0.27301872E+03</pdfrwt>
<totfact> 0.56259322E+03</totfact>
</mgrwt>
</event>
<event>
 9    1  0.8285222E-001  0.2769160E+03  0.7818608E-02  0.1097385E+00
         -2   -1    0    0    0  501 -0.00000000000E+00  0.00000000000E+00  0.97373543438E+02  0.97373543438E+02  0.00000000000E+00 0.  1.
          2   -1    0    0  501    0  0.00000000000E+00 -0.00000000000E+00 -0.19687709824E+03  0.19687709824E+03  0.00000000000E+00 0.  1.
         35    2    1    2    0    0  0.00000000000E+00  0.00000000000E+00 -0.99503554805E+02  0.29425064168E+03  0.27691602104E+03 0.  0.
         25    2    3    3    0    0  0.19764318115E+02 -0.14034698098E+02 -0.10965931174E+03  0.16793672849E+03  0.12485983783E+03 0.  0.
         25    2    3    3    0    0 -0.19764318115E+02  0.14034698098E+02  0.10155756935E+02  0.12631391319E+03  0.12354944049E+03 0.  0.
          5    1    4    4  502    0  0.24415149368E+02 -0.66607698808E+01  0.23233752026E+02  0.34675100682E+02  0.47000000000E+01 0.  1.
         -5    1    4    4    0  502 -0.46508312534E+01 -0.73739282174E+01 -0.13289306377E+03  0.13326162781E+03  0.47000000000E+01 0.  1.
          5    1    5    5  503    0 -0.41675398506E+01  0.60007357988E+02 -0.25901020366E+02  0.65659761324E+02  0.47000000000E+01 0. -1.
         -5    1    5    5    0  503 -0.15596778264E+02 -0.45972659890E+02  0.36056777300E+02  0.60654151868E+02  0.47000000000E+01 0. -1.
<mgrwt>
<rscale>  0 0.27691602E+03</rscale>
<asrwt>0</asrwt>
<pdfrwt beam="1">  1        2 0.30288784E-01 0.27691602E+03</pdfrwt>
<pdfrwt beam="2">  1       -2 0.14980545E-01 0.27691602E+03</pdfrwt>
<totfact> 0.59106917E+03</totfact>
</mgrwt>
</event>
<event>
 9    1  0.8285222E-001  0.2750114E+03  0.7818608E-02  0.1098445E+00
          1   -1    0    0  501    0  0.00000000000E+00  0.00000000000E+00  0.53979288120E+02  0.53979288120E+02  0.00000000000E+00 0.  1.
         -1   -1    0    0    0  501 -0.00000000000E+00 -0.00000000000E+00 -0.35027902827E+03  0.35027902827E+03  0.00000000000E+00 0.  1.
         35    2    1    2    0    0  0.00000000000E+00  0.00000000000E+00 -0.29629974015E+03  0.40425831639E+03  0.27501136405E+03 0.  0.
         25    2    3    3    0    0 -0.95294518688E+01  0.41361641536E+02 -0.85304946762E+02  0.15689452692E+03  0.12464895824E+03 0.  0.
         25    2    3    3    0    0  0.95294518688E+01 -0.41361641536E+02 -0.21099479339E+03  0.24736378948E+03  0.12193623605E+03 0.  0.
          5    1    4    4  502    0 -0.34739492700E+02  0.69686514631E+02 -0.18872568266E+02  0.80257750451E+02  0.47000000000E+01 0. -1.
         -5    1    4    4    0  502  0.25210040831E+02 -0.28324873095E+02 -0.66432378496E+02  0.76636776467E+02  0.47000000000E+01 0. -1.
          5    1    5    5  503    0  0.36526011066E+02  0.20020645950E+02 -0.15282138290E+03  0.15846589797E+03  0.47000000000E+01 0. -1.
         -5    1    5    5    0  503 -0.26996559197E+02 -0.61382287487E+02 -0.58173410491E+02  0.88897891504E+02  0.47000000000E+01 0. -1.
<mgrwt>
<rscale>  0 0.27501136E+03</rscale>
<asrwt>0</asrwt>
<pdfrwt beam="1">  1        1 0.83045060E-02 0.27501136E+03</pdfrwt>
<pdfrwt beam="2">  1       -1 0.53889081E-01 0.27501136E+03</pdfrwt>
<totfact> 0.29388625E+03</totfact>
</mgrwt>
</event>
<event>
 9    1  0.8285222E-001  0.2774181E+03  0.7818608E-02  0.1097108E+00
         -1   -1    0    0    0  501 -0.00000000000E+00  0.00000000000E+00  0.12260847587E+03  0.12260847587E+03  0.00000000000E+00 0.  1.
          1   -1    0    0  501    0  0.00000000000E+00 -0.00000000000E+00 -0.15692387511E+03  0.15692387511E+03  0.00000000000E+00 0.  1.
         35    2    1    2    0    0 -0.71054273576E-14  0.00000000000E+00 -0.34315399236E+02  0.27953235098E+03  0.27741807551E+03 0.  0.
         25    2    3    3    0    0  0.41538015790E+02 -0.38994662123E+02  0.30517567742E+01  0.13712740001E+03  0.12469410645E+03 0.  0.
         25    2    3    3    0    0 -0.41538015790E+02  0.38994662123E+02 -0.37367156010E+02  0.14240495098E+03  0.12504749211E+03 0.  0.
          5    1    4    4  502    0 -0.39162043605E+02 -0.92861494729E+01 -0.23702219277E+02  0.46944471773E+02  0.47000000000E+01 0.  1.
         -5    1    4    4    0  502  0.80700059395E+02 -0.29708512650E+02  0.26753976052E+02  0.90182928234E+02  0.47000000000E+01 0.  1.
          5    1    5    5  503    0 -0.66473355023E+02  0.67979121848E+01  0.21783083138E+02  0.70437995777E+02  0.47000000000E+01 0.  1.
         -5    1    5    5    0  503  0.24935339233E+02  0.32196749938E+02 -0.59150239148E+02  0.71966955199E+02  0.47000000000E+01 0.  1.
<mgrwt>
<rscale>  0 0.27741808E+03</rscale>
<asrwt>0</asrwt>
<pdfrwt beam="1">  1        1 0.24142134E-01 0.27741808E+03</pdfrwt>
<pdfrwt beam="2">  1       -1 0.18862843E-01 0.27741808E+03</pdfrwt>
<totfact> 0.44143513E+03</totfact>
</mgrwt>
</event>
<event>
 9    1  0.8285222E-001  0.2737600E+03  0.7818608E-02  0.1099147E+00
          2   -1    0    0  501    0  0.00000000000E+00  0.00000000000E+00  0.18144447390E+04  0.18144447390E+04  0.00000000000E+00 0. -1.
         -2   -1    0    0    0  501 -0.00000000000E+00 -0.00000000000E+00 -0.10326099739E+02  0.10326099739E+02  0.00000000000E+00 0. -1.
         35    2    1    2    0    0  0.00000000000E+00 -0.17763568394E-14  0.18041186393E+04  0.18247708388E+04  0.27376002153E+03 0.  0.
         25    2    3    3    0    0 -0.25989176043E+02  0.33421706153E+01  0.56392142965E+03  0.57804294098E+03  0.12425640996E+03 0.  0.
         25    2    3    3    0    0  0.25989176043E+02 -0.33421706153E+01  0.12401972096E+04  0.12467278978E+04  0.12471858307E+03 0.  0.
          5    1    4    4  502    0 -0.62798375624E+02  0.38912690183E+02  0.37601265282E+03  0.38323026827E+03  0.47000000000E+01 0.  1.
         -5    1    4    4    0  502  0.36809199581E+02 -0.35570519568E+02  0.18790877683E+03  0.19481267271E+03  0.47000000000E+01 0.  1.
          5    1    5    5  503    0 -0.35563784415E+02 -0.18298011332E+02  0.17230367404E+03  0.17694701486E+03  0.47000000000E+01 0.  1.
         -5    1    5    5    0  503  0.61552960457E+02  0.14955840717E+02  0.10678935356E+04  0.10697808829E+04  0.47000000000E+01 0.  1.
<mgrwt>
<rscale>  0 0.27376002E+03</rscale>
<asrwt>0</asrwt>
<pdfrwt beam="1">  1        2 0.27914509E+00 0.27376002E+03</pdfrwt>
<pdfrwt beam="2">  1       -2 0.15886322E-02 0.27376002E+03</pdfrwt>
<totfact> 0.10085941E+04</totfact>
</mgrwt>
</event>
<event>
 9    1  0.8285222E-001  0.2659055E+03  0.7818608E-02  0.1103646E+00
         -1   -1    0    0    0  501 -0.00000000000E+00  0.00000000000E+00  0.74422680168E+02  0.74422680168E+02  0.00000000000E+00 0. -1.
          1   -1    0    0  501    0  0.00000000000E+00 -0.00000000000E+00 -0.23751409617E+03  0.23751409617E+03  0.00000000000E+00 0. -1.
         35    2    1    2    0    0  0.14210854715E-13  0.00000000000E+00 -0.16309141601E+03  0.31193677634E+03  0.26590551416E+03 0.  0.
         25    2    3    3    0    0 -0.41305474580E+02  0.96931620577E+01 -0.93985501864E+02  0.16215845747E+03  0.12514787712E+03 0.  0.
         25    2    3    3    0    0  0.41305474580E+02 -0.96931620577E+01 -0.69105914142E+02  0.14977831887E+03  0.12592782780E+03 0.  0.
          5    1    4    4  502    0 -0.20079953219E+00 -0.28005335012E+02 -0.10176091352E+03  0.10564900677E+03  0.47000000000E+01 0.  1.
         -5    1    4    4    0  502 -0.41104675048E+02  0.37698497070E+02  0.77754116596E+01  0.56509450702E+02  0.47000000000E+01 0.  1.
          5    1    5    5  503    0 -0.26879173286E+02  0.26087994092E+02 -0.61626772251E+02  0.72270481183E+02  0.47000000000E+01 0.  1.
         -5    1    5    5    0  503  0.68184647867E+02 -0.35781156149E+02 -0.74791418908E+01  0.77507837691E+02  0.47000000000E+01 0.  1.
<mgrwt>
<rscale>  0 0.26590551E+03</rscale>
<asrwt>0</asrwt>
<pdfrwt beam="1">  1        1 0.36540631E-01 0.26590551E+03</pdfrwt>
<pdfrwt beam="2">  1       -1 0.11449643E-01 0.26590551E+03</pdfrwt>
<totfact> 0.57611694E+03</totfact>
</mgrwt>
</event>
<event>
 9    1  0.8285222E-001  0.2744414E+03  0.7818608E-02  0.1098764E+00
          1   -1    0    0  501    0  0.00000000000E+00  0.00000000000E+00  0.12543587208E+03  0.12543587208E+03  0.00000000000E+00 0.  1.
         -1   -1    0    0    0  501 -0.00000000000E+00 -0.00000000000E+00 -0.15011272138E+03  0.15011272138E+03  0.00000000000E+00 0.  1.
         35    2    1    2    0    0  0.71054273576E-14  0.71054273576E-14 -0.24676849297E+02  0.27554859346E+03  0.27444139715E+03 0.  0.
         25    2    3    3    0    0 -0.15463984770E+02 -0.49239769440E+02  0.26561465938E+00  0.13519372422E+03  0.12495432284E+03 0.  0.
         25    2    3    3    0    0  0.15463984770E+02  0.49239769440E+02 -0.24942463956E+02  0.14035486924E+03  0.12811585809E+03 0.  0.
          5    1    4    4  502    0 -0.29281672338E+02 -0.23860292754E+02  0.58627634169E+02  0.69900067193E+02  0.47000000000E+01 0.  1.
         -5    1    4    4    0  502  0.13817687568E+02 -0.25379476686E+02 -0.58362019510E+02  0.65293657026E+02  0.47000000000E+01 0.  1.
          5    1    5    5  503    0  0.43403669842E+00 -0.29033594114E+02  0.31100485174E+02  0.42807337608E+02  0.47000000000E+01 0.  1.
         -5    1    5    5    0  503  0.15029948071E+02  0.78273363554E+02 -0.56042949131E+02  0.97547531636E+02  0.47000000000E+01 0.  1.
<mgrwt>
<rscale>  0 0.27444140E+03</rscale>
<asrwt>0</asrwt>
<pdfrwt beam="1">  1        1 0.19297827E-01 0.27444140E+03</pdfrwt>
<pdfrwt beam="2">  1       -1 0.23094265E-01 0.27444140E+03</pdfrwt>
<totfact> 0.42267940E+03</totfact>
</mgrwt>
</event>
<event>
 9    1  0.8285222E-001  0.2792749E+03  0.7818608E-02  0.1096086E+00
          1   -1    0    0  501    0  0.00000000000E+00  0.00000000000E+00  0.78582654984E+02  0.78582654984E+02  0.00000000000E+00 0.  1.
         -1   -1    0    0    0  501 -0.00000000000E+00 -0.00000000000E+00 -0.24812883058E+03  0.24812883058E+03  0.00000000000E+00 0.  1.
         35    2    1    2    0    0 -0.26645352591E-14  0.35527136788E-14 -0.16954617560E+03  0.32671148557E+03  0.27927493468E+03 0.  0.
         25    2    3    3    0    0  0.78390116681E+01 -0.29796310193E+02 -0.14500771620E+03  0.19440141075E+03  0.12575929603E+03 0.  0.
         25    2    3    3    0    0 -0.78390116681E+01  0.29796310193E+02 -0.24538459395E+02  0.13231007481E+03  0.12631132056E+03 0.  0.
          5    1    4    4  502    0 -0.34534096266E+01  0.35648242191E+02 -0.14438609677E+01  0.36151043468E+02  0.47000000000E+01 0.  1.
         -5    1    4    4    0  502  0.11292421295E+02 -0.65444552384E+02 -0.14356385524E+03  0.15825036728E+03  0.47000000000E+01 0.  1.
          5    1    5    5  503    0  0.31091467858E+02  0.32206798241E+02 -0.62935638773E+02  0.77375331045E+02  0.47000000000E+01 0. -1.
         -5    1    5    5    0  503 -0.38930479526E+02 -0.24104880474E+01  0.38397179378E+02  0.54934743769E+02  0.47000000000E+01 0. -1.
<mgrwt>
<rscale>  0 0.27927493E+03</rscale>
<asrwt>0</asrwt>
<pdfrwt beam="1">  1        1 0.12089640E-01 0.27927493E+03</pdfrwt>
<pdfrwt beam="2">  1       -1 0.38173665E-01 0.27927493E+03</pdfrwt>
<totfact> 0.33203799E+03</totfact>
</mgrwt>
</event>
<event>
 9    1  0.8285222E-001  0.2782235E+03  0.7818608E-02  0.1096663E+00
          2   -1    0    0  501    0  0.00000000000E+00  0.00000000000E+00  0.18008441344E+04  0.18008441344E+04  0.00000000000E+00 0. -1.
         -2   -1    0    0    0  501 -0.00000000000E+00 -0.00000000000E+00 -0.10746112819E+02  0.10746112819E+02  0.00000000000E+00 0. -1.
         35    2    1    2    0    0  0.71054273576E-14  0.35527136788E-14  0.17900980216E+04  0.18115902473E+04  0.27822346585E+03 0.  0.
         25    2    3    3    0    0  0.57032432990E+02  0.16625994316E+02  0.93761232697E+03  0.94797390065E+03  0.12652477434E+03 0.  0.
         25    2    3    3    0    0 -0.57032432990E+02 -0.16625994316E+02  0.85248569465E+03  0.86361634661E+03  0.12478867117E+03 0.  0.
          5    1    4    4  502    0 -0.33195538185E+02 -0.16324518551E+02  0.15248064639E+03  0.15697410992E+03  0.47000000000E+01 0.  1.
         -5    1    4    4    0  502  0.90227971176E+02  0.32950512867E+02  0.78513168058E+03  0.79099979073E+03  0.47000000000E+01 0.  1.
          5    1    5    5  503    0 -0.55689279620E+01  0.78201894881E+01  0.71013130546E+03  0.71021174963E+03  0.47000000000E+01 0.  1.
         -5    1    5    5    0  503 -0.51463505028E+02 -0.24446183805E+02  0.14235438919E+03  0.15340459698E+03  0.47000000000E+01 0.  1.
<mgrwt>
<rscale>  0 0.27822347E+03</rscale>
<asrwt>0</asrwt>
<pdfrwt beam="1">  1        2 0.27705270E+00 0.27822347E+03</pdfrwt>
<pdfrwt beam="2">  1       -2 0.16532496E-02 0.27822347E+03</pdfrwt>
<totfact> 0.96735693E+03</totfact>
</mgrwt>
</event>
<event>
 9    1  0.8285222E-001  0.2694148E+03  0.7818608E-02  0.1101615E+00
         -4   -1    0    0    0  501 -0.00000000000E+00  0.00000000000E+00  0.33704352365E+03  0.33704352365E+03  0.00000000000E+00 0.  1.
          4   -1    0    0  501    0  0.00000000000E+00 -0.00000000000E+00 -0.53838974272E+02  0.53838974272E+02  0.00000000000E+00 0.  1.
         35    2    1    2    0    0  0.00000000000E+00  0.35527136788E-14  0.28320454938E+03  0.39088249792E+03  0.26941475534E+03 0.  0.
         25    2    3    3    0    0  0.46346977089E+02  0.10525056665E+02  0.11532768228E+03  0.17664164128E+03  0.12507188346E+03 0.  0.
         25    2    3    3    0    0 -0.46346977089E+02 -0.10525056665E+02  0.16787686710E+03  0.21424085664E+03  0.12432893084E+03 0.  0.
          5    1    4    4  502    0  0.44343588868E+02  0.29764012645E+02 -0.57666635129E+01  0.53922117267E+02  0.47000000000E+01 0. -1.
         -5    1    4    4    0  502  0.20033882204E+01 -0.19238955980E+02  0.12109434579E+03  0.12271952402E+03  0.47000000000E+01 0. -1.
          5    1    5    5  503    0 -0.29321785895E+02  0.14911865907E+02  0.17845045688E+03  0.18151800581E+03  0.47000000000E+01 0.  1.
         -5    1    5    5    0  503 -0.17025191194E+02 -0.25436922572E+02 -0.10573589786E+02  0.32722850825E+02  0.47000000000E+01 0.  1.
<mgrwt>
<rscale>  0 0.26941476E+03</rscale>
<asrwt>0</asrwt>
<pdfrwt beam="1">  1        4 0.82829193E-02 0.26941476E+03</pdfrwt>
<pdfrwt beam="2">  1       -4 0.51852848E-01 0.26941476E+03</pdfrwt>
<totfact> 0.70099908E+02</totfact>
</mgrwt>
</event>
<event>
 9    1  0.8285222E-001  0.2750345E+03  0.7818608E-02  0.1098432E+00
         -1   -1    0    0    0  501 -0.00000000000E+00  0.00000000000E+00  0.40622283966E+03  0.40622283966E+03  0.00000000000E+00 0. -1.
          1   -1    0    0  501    0  0.00000000000E+00 -0.00000000000E+00 -0.46553246255E+02  0.46553246255E+02  0.00000000000E+00 0. -1.
         35    2    1    2    0    0  0.00000000000E+00  0.00000000000E+00  0.35966959340E+03  0.45277608591E+03  0.27503448430E+03 0.  0.
         25    2    3    3    0    0 -0.21144759898E+02 -0.28526690198E+02  0.24372049420E+03  0.27606050712E+03  0.12469503347E+03 0.  0.
         25    2    3    3    0    0  0.21144759898E+02  0.28526690198E+02  0.11594909920E+03  0.17671557879E+03  0.12854310272E+03 0.  0.
          5    1    4    4  502    0  0.10271104682E+02 -0.63557825593E+01 -0.11855692883E+02  0.17565278736E+02  0.47000000000E+01 0.  1.
         -5    1    4    4    0  502 -0.31415864580E+02 -0.22170907639E+02  0.25557618708E+03  0.25849522838E+03  0.47000000000E+01 0.  1.
          5    1    5    5  503    0 -0.23862522753E+02  0.19887947315E+02  0.12575012264E+03  0.12961533006E+03  0.47000000000E+01 0.  1.
         -5    1    5    5    0  503  0.45007282651E+02  0.86387428837E+01 -0.98010234447E+01  0.47100248734E+02  0.47000000000E+01 0.  1.
<mgrwt>
<rscale>  0 0.27503448E+03</rscale>
<asrwt>0</asrwt>
<pdfrwt beam="1">  1        1 0.71620381E-02 0.27503448E+03</pdfrwt>
<pdfrwt beam="2">  1       -1 0.62495819E-01 0.27503448E+03</pdfrwt>
<totfact> 0.27092247E+03</totfact>
</mgrwt>
</event>
<event>
 9    1  0.8285222E-001  0.2750691E+03  0.7818608E-02  0.1098413E+00
          1   -1    0    0  501    0  0.00000000000E+00  0.00000000000E+00  0.24680052609E+03  0.24680052609E+03  0.00000000000E+00 0. -1.
         -1   -1    0    0    0  501 -0.00000000000E+00 -0.00000000000E+00 -0.76643871251E+02  0.76643871251E+02  0.00000000000E+00 0. -1.
         35    2    1    2    0    0  0.71054273576E-14  0.53290705182E-14  0.17015665484E+03  0.32344439734E+03  0.27506906585E+03 0.  0.
         25    2    3    3    0    0 -0.35741624143E+02 -0.93391160035E+01  0.13640315504E+03  0.18874961746E+03  0.12512359729E+03 0.  0.
         25    2    3    3    0    0  0.35741624143E+02  0.93391160035E+01  0.33753499797E+02  0.13469477989E+03  0.12505479677E+03 0.  0.
          5    1    4    4  502    0 -0.18178738178E+02  0.25079787683E+02 -0.13324010604E+02  0.34045286466E+02  0.47000000000E+01 0.  1.
         -5    1    4    4    0  502 -0.17562885965E+02 -0.34418903687E+02  0.14972716565E+03  0.15470433099E+03  0.47000000000E+01 0.  1.
          5    1    5    5  503    0 -0.15514645472E+02  0.33773391148E+01 -0.40726294438E+02  0.43963981875E+02  0.47000000000E+01 0. -1.
         -5    1    5    5    0  503  0.51256269615E+02  0.59617768888E+01  0.74479794235E+02  0.90730798012E+02  0.47000000000E+01 0. -1.
<mgrwt>
<rscale>  0 0.27506907E+03</rscale>
<asrwt>0</asrwt>
<pdfrwt beam="1">  1        1 0.37969311E-01 0.27506907E+03</pdfrwt>
<pdfrwt beam="2">  1       -1 0.11791365E-01 0.27506907E+03</pdfrwt>
<totfact> 0.52504265E+03</totfact>
</mgrwt>
</event>
<event>
 9    1  0.8285222E-001  0.2757711E+03  0.7818608E-02  0.1098021E+00
          1   -1    0    0  501    0  0.00000000000E+00  0.00000000000E+00  0.25402552529E+03  0.25402552529E+03  0.00000000000E+00 0.  1.
         -1   -1    0    0    0  501 -0.00000000000E+00 -0.00000000000E+00 -0.74844548158E+02  0.74844548158E+02  0.00000000000E+00 0.  1.
         35    2    1    2    0    0 -0.71054273576E-14  0.35527136788E-14  0.17918097713E+03  0.32887007344E+03  0.27577110553E+03 0.  0.
         25    2    3    3    0    0 -0.33513476803E+02  0.20794106574E+02  0.13635666678E+03  0.19002357082E+03  0.12633395781E+03 0.  0.
         25    2    3    3    0    0  0.33513476803E+02 -0.20794106574E+02  0.42824310350E+02  0.13884650262E+03  0.12605110764E+03 0.  0.
          5    1    4    4  502    0 -0.13563558760E+02 -0.44847137667E+01  0.15281595188E+03  0.15355418566E+03  0.47000000000E+01 0.  1.
         -5    1    4    4    0  502 -0.19949918042E+02  0.25278820341E+02 -0.16459285106E+02  0.36469385160E+02  0.47000000000E+01 0.  1.
          5    1    5    5  503    0 -0.41614278102E+02 -0.89674469546E+01 -0.12577268462E+02  0.44636766558E+02  0.47000000000E+01 0.  1.
         -5    1    5    5    0  503  0.75127754904E+02 -0.11826659620E+02  0.55401578813E+02  0.94209736066E+02  0.47000000000E+01 0.  1.
<mgrwt>
<rscale>  0 0.27577111E+03</rscale>
<asrwt>0</asrwt>
<pdfrwt beam="1">  1        1 0.39080850E-01 0.27577111E+03</pdfrwt>
<pdfrwt beam="2">  1       -1 0.11514546E-01 0.27577111E+03</pdfrwt>
<totfact> 0.52551339E+03</totfact>
</mgrwt>
</event>
<event>
 9    1  0.8285222E-001  0.2756686E+03  0.7818608E-02  0.1098078E+00
         -4   -1    0    0    0  501 -0.00000000000E+00  0.00000000000E+00  0.31786001943E+02  0.31786001943E+02  0.00000000000E+00 0.  1.
          4   -1    0    0  501    0  0.00000000000E+00 -0.00000000000E+00 -0.59769353688E+03  0.59769353688E+03  0.00000000000E+00 0.  1.
         35    2    1    2    0    0  0.00000000000E+00  0.00000000000E+00 -0.56590753494E+03  0.62947953883E+03  0.27566855406E+03 0.  0.
         25    2    3    3    0    0 -0.38658456789E+02  0.20188478636E+01 -0.38169863919E+03  0.40356948892E+03  0.12520355106E+03 0.  0.
         25    2    3    3    0    0  0.38658456789E+02 -0.20188478636E+01 -0.18420889575E+03  0.22591004991E+03  0.12491549683E+03 0.  0.
          5    1    4    4  502    0 -0.72137380859E+02 -0.34985962471E+02 -0.21556764114E+03  0.23004199007E+03  0.47000000000E+01 0.  1.
         -5    1    4    4    0  502  0.33478924070E+02  0.37004810335E+02 -0.16613099805E+03  0.17352749885E+03  0.47000000000E+01 0.  1.
          5    1    5    5  503    0  0.52857720012E+02 -0.51449218606E+02 -0.76028463601E+02  0.10603479588E+03  0.47000000000E+01 0. -1.
         -5    1    5    5    0  503 -0.14199263223E+02  0.49430370742E+02 -0.10818043215E+03  0.11987525403E+03  0.47000000000E+01 0. -1.
<mgrwt>
<rscale>  0 0.27566855E+03</rscale>
<asrwt>0</asrwt>
<pdfrwt beam="1">  1        4 0.91952846E-01 0.27566855E+03</pdfrwt>
<pdfrwt beam="2">  1       -4 0.48901544E-02 0.27566855E+03</pdfrwt>
<totfact> 0.48084299E+02</totfact>
</mgrwt>
</event>
<event>
 9    1  0.8285222E-001  0.3033071E+03  0.7818608E-02  0.1083599E+00
         -2   -1    0    0    0  501 -0.00000000000E+00  0.00000000000E+00  0.14912220080E+03  0.14912220080E+03  0.00000000000E+00 0.  1.
          2   -1    0    0  501    0  0.00000000000E+00 -0.00000000000E+00 -0.15422785599E+03  0.15422785599E+03  0.00000000000E+00 0.  1.
         35    2    1    2    0    0  0.00000000000E+00  0.00000000000E+00 -0.51056551877E+01  0.30335005678E+03  0.30330708735E+03 0.  0.
         25    2    3    3    0    0  0.31986444244E+02 -0.38505153412E+02 -0.70056506794E+02  0.15382901286E+03  0.12747419974E+03 0.  0.
         25    2    3    3    0    0 -0.31986444244E+02  0.38505153412E+02  0.64950851606E+02  0.14952104392E+03  0.12502859671E+03 0.  0.
          5    1    4    4  502    0 -0.16209846576E+02  0.40239833863E+02 -0.30718195084E+02  0.53363853539E+02  0.47000000000E+01 0. -1.
         -5    1    4    4    0  502  0.48196290820E+02 -0.78744987275E+02 -0.39338311710E+02  0.10046515932E+03  0.47000000000E+01 0. -1.
          5    1    5    5  503    0  0.31962077671E+02 -0.91071922263E+01  0.60919505321E+02  0.69554234148E+02  0.47000000000E+01 0. -1.
         -5    1    5    5    0  503 -0.63948521915E+02  0.47612345638E+02  0.40313462848E+01  0.79966809773E+02  0.47000000000E+01 0. -1.
<mgrwt>
<rscale>  0 0.30330709E+03</rscale>
<asrwt>0</asrwt>
<pdfrwt beam="1">  1        2 0.23727362E-01 0.30330709E+03</pdfrwt>
<pdfrwt beam="2">  1       -2 0.22941877E-01 0.30330709E+03</pdfrwt>
<totfact> 0.37719671E+03</totfact>
</mgrwt>
</event>
<event>
 9    1  0.8285222E-001  0.2779914E+03  0.7818608E-02  0.1096791E+00
         -3   -1    0    0    0  501 -0.00000000000E+00  0.00000000000E+00  0.20662733296E+03  0.20662733296E+03  0.00000000000E+00 0. -1.
          3   -1    0    0  501    0  0.00000000000E+00 -0.00000000000E+00 -0.93500733644E+02  0.93500733644E+02  0.00000000000E+00 0. -1.
         35    2    1    2    0    0  0.00000000000E+00  0.00000000000E+00  0.11312659931E+03  0.30012806660E+03  0.27799141873E+03 0.  0.
         25    2    3    3    0    0 -0.16186509597E+02 -0.21761107136E+02 -0.19644392358E+01  0.12774139500E+03  0.12481368554E+03 0.  0.
         25    2    3    3    0    0  0.16186509597E+02  0.21761107136E+02  0.11509103855E+03  0.17238667160E+03  0.12544189298E+03 0.  0.
          5    1    4    4  502    0 -0.91534151123E+01 -0.73180598703E+02 -0.11426724384E+02  0.74778640432E+02  0.47000000000E+01 0. -1.
         -5    1    4    4    0  502 -0.70330944846E+01  0.51419491567E+02  0.94622851477E+01  0.52962754566E+02  0.47000000000E+01 0. -1.
          5    1    5    5  503    0 -0.83643647166E+01 -0.48146578979E+02  0.70082039796E+02  0.85566570379E+02  0.47000000000E+01 0.  1.
         -5    1    5    5    0  503  0.24550874314E+02  0.69907686115E+02  0.45008998753E+02  0.86820101222E+02  0.47000000000E+01 0.  1.
<mgrwt>
<rscale>  0 0.27799142E+03</rscale>
<asrwt>0</asrwt>
<pdfrwt beam="1">  1        3 0.14384728E-01 0.27799142E+03</pdfrwt>
<pdfrwt beam="2">  1       -3 0.31788820E-01 0.27799142E+03</pdfrwt>
<totfact> 0.97832775E+02</totfact>
</mgrwt>
</event>
<event>
 9    1  0.8285222E-001  0.2771056E+03  0.7818608E-02  0.1097280E+00
          1   -1    0    0  501    0  0.00000000000E+00  0.00000000000E+00  0.27788427069E+04  0.27788427069E+04  0.00000000000E+00 0. -1.
         -1   -1    0    0    0  501 -0.00000000000E+00 -0.00000000000E+00 -0.69082276635E+01  0.69082276635E+01  0.00000000000E+00 0. -1.
         35    2    1    2    0    0  0.00000000000E+00  0.00000000000E+00  0.27719344792E+04  0.27857509345E+04  0.27710559763E+03 0.  0.
         25    2    3    3    0    0  0.57939699279E+02 -0.11238190615E+02  0.12810787095E+04  0.12885501934E+04  0.12536201694E+03 0.  0.
         25    2    3    3    0    0 -0.57939699279E+02  0.11238190615E+02  0.14908557697E+04  0.14972007411E+04  0.12440187904E+03 0.  0.
          5    1    4    4  502    0 -0.30318595796E+02 -0.34246375101E+02  0.51443350180E+03  0.51648421973E+03  0.47000000000E+01 0. -1.
         -5    1    4    4    0  502  0.88258295075E+02  0.23008184486E+02  0.76664520772E+03  0.77206597369E+03  0.47000000000E+01 0. -1.
          5    1    5    5  503    0 -0.11749500130E+02 -0.27052549703E+02  0.85667162103E+02  0.90723998267E+02  0.47000000000E+01 0.  1.
         -5    1    5    5    0  503 -0.46190199149E+02  0.38290740318E+02  0.14051886076E+04  0.14064767429E+04  0.47000000000E+01 0.  1.
<mgrwt>
<rscale>  0 0.27710560E+03</rscale>
<asrwt>0</asrwt>
<pdfrwt beam="1">  1        1 0.42751337E+00 0.27710560E+03</pdfrwt>
<pdfrwt beam="2">  1       -1 0.10628065E-02 0.27710560E+03</pdfrwt>
<totfact> 0.17718285E+03</totfact>
</mgrwt>
</event>
<event>
 9    1  0.8285222E-001  0.2781426E+03  0.7818608E-02  0.1096708E+00
          2   -1    0    0  501    0  0.00000000000E+00  0.00000000000E+00  0.48463262429E+03  0.48463262429E+03  0.00000000000E+00 0.  1.
         -2   -1    0    0    0  501 -0.00000000000E+00 -0.00000000000E+00 -0.39908234318E+02  0.39908234318E+02  0.00000000000E+00 0.  1.
         35    2    1    2    0    0  0.35527136788E-14  0.17763568394E-14  0.44472438997E+03  0.52454085861E+03  0.27814264203E+03 0.  0.
         25    2    3    3    0    0  0.28870976970E+02  0.14898928096E+02  0.12482824399E+03  0.17972152373E+03  0.12514880832E+03 0.  0.
         25    2    3    3    0    0 -0.28870976970E+02 -0.14898928096E+02  0.31989614598E+03  0.34481933488E+03  0.12454444237E+03 0.  0.
          5    1    4    4  502    0 -0.12897697449E+02  0.71771226804E+01 -0.21940388148E+02  0.26857630602E+02  0.47000000000E+01 0.  1.
         -5    1    4    4    0  502  0.41768674419E+02  0.77218054159E+01  0.14676863214E+03  0.15286389312E+03  0.47000000000E+01 0.  1.
          5    1    5    5  503    0 -0.10143365977E+02 -0.86969362166E+01  0.32384825471E+03  0.32415784219E+03  0.47000000000E+01 0.  1.
         -5    1    5    5    0  503 -0.18727610993E+02 -0.62019918797E+01 -0.39521087315E+01  0.20661492691E+02  0.47000000000E+01 0.  1.
<mgrwt>
<rscale>  0 0.27814264E+03</rscale>
<asrwt>0</asrwt>
<pdfrwt beam="1">  1        2 0.74558861E-01 0.27814264E+03</pdfrwt>
<pdfrwt beam="2">  1       -2 0.61397287E-02 0.27814264E+03</pdfrwt>
<totfact> 0.91623394E+03</totfact>
</mgrwt>
</event>
<event>
 9    1  0.8285222E-001  0.2782506E+03  0.7818608E-02  0.1096648E+00
          2   -1    0    0  501    0  0.00000000000E+00  0.00000000000E+00  0.93105729738E+03  0.93105729738E+03  0.00000000000E+00 0. -1.
         -2   -1    0    0    0  501 -0.00000000000E+00 -0.00000000000E+00 -0.20789109090E+02  0.20789109090E+02  0.00000000000E+00 0. -1.
         35    2    1    2    0    0 -0.71054273576E-14  0.00000000000E+00  0.91026818829E+03  0.95184640647E+03  0.27825061886E+03 0.  0.
         25    2    3    3    0    0  0.24810822834E+02  0.56650669569E+02  0.40502143850E+03  0.42767877797E+03  0.12264540833E+03 0.  0.
         25    2    3    3    0    0 -0.24810822834E+02 -0.56650669569E+02  0.50524674978E+03  0.52416762850E+03  0.12511014870E+03 0.  0.
          5    1    4    4  502    0  0.52656970674E+01  0.25021118632E+02  0.57160767621E+01  0.26618555122E+02  0.47000000000E+01 0. -1.
         -5    1    4    4    0  502  0.19545125766E+02  0.31629550937E+02  0.39930536174E+03  0.40106022284E+03  0.47000000000E+01 0. -1.
          5    1    5    5  503    0  0.31350957338E+02 -0.74062722274E+02  0.29518525504E+03  0.30598136242E+03  0.47000000000E+01 0. -1.
         -5    1    5    5    0  503 -0.56161780171E+02  0.17412052705E+02  0.21006149474E+03  0.21818626608E+03  0.47000000000E+01 0. -1.
<mgrwt>
<rscale>  0 0.27825062E+03</rscale>
<asrwt>0</asrwt>
<pdfrwt beam="1">  1        2 0.14323955E+00 0.27825062E+03</pdfrwt>
<pdfrwt beam="2">  1       -2 0.31983252E-02 0.27825062E+03</pdfrwt>
<totfact> 0.11139338E+04</totfact>
</mgrwt>
</event>
<event>
 9    1  0.8285222E-001  0.2746526E+03  0.7818608E-02  0.1098646E+00
          1   -1    0    0  501    0  0.00000000000E+00  0.00000000000E+00  0.19698817666E+03  0.19698817666E+03  0.00000000000E+00 0. -1.
         -1   -1    0    0    0  501 -0.00000000000E+00 -0.00000000000E+00 -0.95734267470E+02  0.95734267470E+02  0.00000000000E+00 0. -1.
         35    2    1    2    0    0 -0.14210854715E-13  0.00000000000E+00  0.10125390919E+03  0.29272244413E+03  0.27465264458E+03 0.  0.
         25    2    3    3    0    0 -0.36923610517E+02  0.19337094320E+02  0.97829016209E+02  0.16082197991E+03  0.12064790334E+03 0.  0.
         25    2    3    3    0    0  0.36923610517E+02 -0.19337094320E+02  0.34248929856E+01  0.13190046423E+03  0.12509486936E+03 0.  0.
          5    1    4    4  502    0 -0.78294241532E+02  0.27250605031E+02  0.78401806049E+02  0.11419946113E+03  0.47000000000E+01 0. -1.
         -5    1    4    4    0  502  0.41370631015E+02 -0.79135107115E+01  0.19427210160E+02  0.46622518775E+02  0.47000000000E+01 0. -1.
          5    1    5    5  503    0  0.79574047227E+02 -0.18325557345E+02 -0.18271062846E+02  0.83807975644E+02  0.47000000000E+01 0.  1.
         -5    1    5    5    0  503 -0.42650436709E+02 -0.10115369744E+01  0.21695955832E+02  0.48092488582E+02  0.47000000000E+01 0.  1.
<mgrwt>
<rscale>  0 0.27465264E+03</rscale>
<asrwt>0</asrwt>
<pdfrwt beam="1">  1        1 0.30305873E-01 0.27465264E+03</pdfrwt>
<pdfrwt beam="2">  1       -1 0.14728349E-01 0.27465264E+03</pdfrwt>
<totfact> 0.49143255E+03</totfact>
</mgrwt>
</event>
<event>
 9    1  0.8285222E-001  0.2725452E+03  0.7818608E-02  0.1099832E+00
          1   -1    0    0  501    0  0.00000000000E+00  0.00000000000E+00  0.29516250048E+03  0.29516250048E+03  0.00000000000E+00 0.  1.
         -1   -1    0    0    0  501 -0.00000000000E+00 -0.00000000000E+00 -0.62915266914E+02  0.62915266914E+02  0.00000000000E+00 0.  1.
         35    2    1    2    0    0  0.17763568394E-14 -0.71054273576E-14  0.23224723357E+03  0.35807776739E+03  0.27254524395E+03 0.  0.
         25    2    3    3    0    0  0.96603195410E+01  0.15459634358E+02  0.49924258745E+02  0.13615912144E+03  0.12535769890E+03 0.  0.
         25    2    3    3    0    0 -0.96603195410E+01 -0.15459634358E+02  0.18232297482E+03  0.22191864595E+03  0.12519543204E+03 0.  0.
          5    1    4    4  502    0  0.13945631563E+02  0.68190858679E+02  0.44554835481E+02  0.82774979383E+02  0.47000000000E+01 0.  1.
         -5    1    4    4    0  502 -0.42853120218E+01 -0.52731224321E+02  0.53694232636E+01  0.53384142062E+02  0.47000000000E+01 0.  1.
          5    1    5    5  503    0  0.17138087762E+00 -0.46829954778E+02  0.18274325307E+03  0.18870681116E+03  0.47000000000E+01 0.  1.
         -5    1    5    5    0  503 -0.98317004187E+01  0.31370320420E+02 -0.42027824494E+00  0.33211834791E+02  0.47000000000E+01 0.  1.
<mgrwt>
<rscale>  0 0.27254524E+03</rscale>
<asrwt>0</asrwt>
<pdfrwt beam="1">  1        1 0.45409615E-01 0.27254524E+03</pdfrwt>
<pdfrwt beam="2">  1       -1 0.96792720E-02 0.27254524E+03</pdfrwt>
<totfact> 0.56949907E+03</totfact>
</mgrwt>
</event>
<event>
 8    1  0.8285222E-001  0.3952597E+03  0.7818608E-02  0.1045434E+00
          1   -1    0    0  501    0  0.00000000000E+00  0.00000000000E+00  0.28989868968E+03  0.28989868968E+03  0.00000000000E+00 0. -1.
         -1   -1    0    0    0  501 -0.00000000000E+00 -0.00000000000E+00 -0.13472830266E+03  0.13472830266E+03  0.00000000000E+00 0. -1.
         25    2    1    2    0    0  0.10256631704E+03 -0.10975667154E+03  0.46345343450E+02  0.20097941858E+03  0.12521365537E+03 0.  0.
         25    2    1    2    0    0 -0.10256631704E+03  0.10975667154E+03  0.10882504357E+03  0.22364757376E+03  0.12493586676E+03 0.  0.
          5    1    3    3  502    0  0.12551641787E+03 -0.61734063117E+02  0.19906524749E+02  0.14136415893E+03  0.47000000000E+01 0. -1.
         -5    1    3    3    0  502 -0.22950100827E+02 -0.48022608427E+02  0.26438818702E+02  0.59615259644E+02  0.47000000000E+01 0. -1.
          5    1    4    4  503    0 -0.20182493734E+01  0.66041946130E+02 -0.38639597611E+01  0.66352333524E+02  0.47000000000E+01 0.  1.
         -5    1    4    4    0  503 -0.10054806766E+03  0.43714725415E+02  0.11268900333E+03  0.15729524024E+03  0.47000000000E+01 0.  1.
<mgrwt>
<rscale>  0 0.39525970E+03</rscale>
<asrwt>0</asrwt>
<pdfrwt beam="1">  1        1 0.44599798E-01 0.39525970E+03</pdfrwt>
<pdfrwt beam="2">  1       -1 0.20727431E-01 0.39525970E+03</pdfrwt>
<totfact> 0.17485680E+03</totfact>
</mgrwt>
</event>
<event>
 9    1  0.8285222E-001  0.2752816E+03  0.7818608E-02  0.1098294E+00
          2   -1    0    0  501    0  0.00000000000E+00  0.00000000000E+00  0.45822795039E+03  0.45822795039E+03  0.00000000000E+00 0. -1.
         -2   -1    0    0    0  501 -0.00000000000E+00 -0.00000000000E+00 -0.41344024308E+02  0.41344024308E+02  0.00000000000E+00 0. -1.
         35    2    1    2    0    0  0.00000000000E+00  0.00000000000E+00  0.41688392608E+03  0.49957197469E+03  0.27528158325E+03 0.  0.
         25    2    3    3    0    0 -0.23054346034E+02 -0.30731211923E+02  0.13172815069E+03  0.18579328872E+03  0.12526344316E+03 0.  0.
         25    2    3    3    0    0  0.23054346034E+02  0.30731211923E+02  0.28515577539E+03  0.31377868597E+03  0.12516923454E+03 0.  0.
          5    1    4    4  502    0 -0.32020034678E+02 -0.38080840915E+02  0.15308862939E+03  0.16103928562E+03  0.47000000000E+01 0. -1.
         -5    1    4    4    0  502  0.89656886437E+01  0.73496289924E+01 -0.21360478700E+02  0.24754003100E+02  0.47000000000E+01 0. -1.
          5    1    5    5  503    0  0.66985171595E+01 -0.18194708784E+02  0.25086310449E+03  0.25165513060E+03  0.47000000000E+01 0.  1.
         -5    1    5    5    0  503  0.16355828874E+02  0.48925920707E+02  0.34292670897E+02  0.62123555375E+02  0.47000000000E+01 0.  1.
<mgrwt>
<rscale>  0 0.27528158E+03</rscale>
<asrwt>0</asrwt>
<pdfrwt beam="1">  1        2 0.70496604E-01 0.27528158E+03</pdfrwt>
<pdfrwt beam="2">  1       -2 0.63606195E-02 0.27528158E+03</pdfrwt>
<totfact> 0.92298437E+03</totfact>
</mgrwt>
</event>
<event>
 9    1  0.8285222E-001  0.2735909E+03  0.7818608E-02  0.1099242E+00
         -2   -1    0    0    0  501 -0.00000000000E+00  0.00000000000E+00  0.10356157061E+02  0.10356157061E+02  0.00000000000E+00 0.  1.
          2   -1    0    0  501    0  0.00000000000E+00 -0.00000000000E+00 -0.18069444548E+04  0.18069444548E+04  0.00000000000E+00 0.  1.
         35    2    1    2    0    0  0.00000000000E+00  0.00000000000E+00 -0.17965882978E+04  0.18173006119E+04  0.27359093973E+03 0.  0.
         25    2    3    3    0    0  0.45872370867E+02 -0.29376605622E+02 -0.89163828522E+03  0.90202747254E+03  0.12516976542E+03 0.  0.
         25    2    3    3    0    0 -0.45872370867E+02  0.29376605622E+02 -0.90495001253E+03  0.91527313934E+03  0.12579004351E+03 0.  0.
          5    1    4    4  502    0  0.27698073836E+02  0.72838114616E+01 -0.40138068991E+02  0.49531725045E+02  0.47000000000E+01 0.  1.
         -5    1    4    4    0  502  0.18174297032E+02 -0.36660417084E+02 -0.85150021623E+03  0.85249574749E+03  0.47000000000E+01 0.  1.
          5    1    5    5  503    0 -0.24473525608E+02 -0.14732614677E+02 -0.42529966427E+02  0.51447948795E+02  0.47000000000E+01 0.  1.
         -5    1    5    5    0  503 -0.21398845260E+02  0.44109220299E+02 -0.86242004611E+03  0.86382519055E+03  0.47000000000E+01 0.  1.
<mgrwt>
<rscale>  0 0.27359094E+03</rscale>
<asrwt>0</asrwt>
<pdfrwt beam="1">  1        2 0.27799127E+00 0.27359094E+03</pdfrwt>
<pdfrwt beam="2">  1       -2 0.15932560E-02 0.27359094E+03</pdfrwt>
<totfact> 0.10134470E+04</totfact>
</mgrwt>
</event>
<event>
 9    1  0.8285222E-001  0.2731463E+03  0.7818608E-02  0.1099492E+00
         -2   -1    0    0    0  501 -0.00000000000E+00  0.00000000000E+00  0.97073855652E+02  0.97073855652E+02  0.00000000000E+00 0. -1.
          2   -1    0    0  501    0  0.00000000000E+00 -0.00000000000E+00 -0.19214463912E+03  0.19214463912E+03  0.00000000000E+00 0. -1.
         35    2    1    2    0    0  0.35527136788E-14  0.00000000000E+00 -0.95070783464E+02  0.28921849477E+03  0.27314626823E+03 0.  0.
         25    2    3    3    0    0  0.99639495800E+01  0.46491727167E+02 -0.86630836300E+02  0.15836796764E+03  0.12375277932E+03 0.  0.
         25    2    3    3    0    0 -0.99639495800E+01 -0.46491727167E+02 -0.84399471645E+01  0.13085052713E+03  0.12161359610E+03 0.  0.
          5    1    4    4  502    0  0.27876750171E+02 -0.17738826018E+02  0.15106717331E+02  0.36634438130E+02  0.47000000000E+01 0. -1.
         -5    1    4    4    0  502 -0.17912800591E+02  0.64230553184E+02 -0.10173755363E+03  0.12173352951E+03  0.47000000000E+01 0. -1.
          5    1    5    5  503    0 -0.62950789468E+02 -0.30358070529E+02  0.13053248246E+02  0.71252309651E+02  0.47000000000E+01 0.  1.
         -5    1    5    5    0  503  0.52986839888E+02 -0.16133656638E+02 -0.21493195410E+02  0.59598217480E+02  0.47000000000E+01 0.  1.
<mgrwt>
<rscale>  0 0.27314627E+03</rscale>
<asrwt>0</asrwt>
<pdfrwt beam="1">  1        2 0.29560714E-01 0.27314627E+03</pdfrwt>
<pdfrwt beam="2">  1       -2 0.14934439E-01 0.27314627E+03</pdfrwt>
<totfact> 0.60986339E+03</totfact>
</mgrwt>
</event>
<event>
 9    1  0.8285222E-001  0.2751231E+03  0.7818608E-02  0.1098383E+00
         -2   -1    0    0    0  501 -0.00000000000E+00  0.00000000000E+00  0.77597603857E+01  0.77597603857E+01  0.00000000000E+00 0. -1.
          2   -1    0    0  501    0  0.00000000000E+00 -0.00000000000E+00 -0.24386294555E+04  0.24386294555E+04  0.00000000000E+00 0. -1.
         35    2    1    2    0    0  0.00000000000E+00 -0.71054273576E-14 -0.24308696951E+04  0.24463892159E+04  0.27512310150E+03 0.  0.
         25    2    3    3    0    0  0.30792987288E+01  0.56431134365E+02 -0.13119102391E+04  0.13190567233E+04  0.12493281765E+03 0.  0.
         25    2    3    3    0    0 -0.30792987288E+01 -0.56431134365E+02 -0.11189594561E+04  0.11273324926E+04  0.12495731087E+03 0.  0.
          5    1    4    4  502    0 -0.56712197120E+02  0.19284623239E+02 -0.80815928108E+03  0.81038983433E+03  0.47000000000E+01 0. -1.
         -5    1    4    4    0  502  0.59791495849E+02  0.37146511126E+02 -0.50375095800E+03  0.50866688898E+03  0.47000000000E+01 0. -1.
          5    1    5    5  503    0  0.34259793301E+02 -0.49085531336E+02 -0.10107220070E+04  0.10125039201E+04  0.47000000000E+01 0.  1.
         -5    1    5    5    0  503 -0.37339092030E+02 -0.73456030285E+01 -0.10823744910E+03  0.11482857251E+03  0.47000000000E+01 0.  1.
<mgrwt>
<rscale>  0 0.27512310E+03</rscale>
<asrwt>0</asrwt>
<pdfrwt beam="1">  1        2 0.37517309E+00 0.27512310E+03</pdfrwt>
<pdfrwt beam="2">  1       -2 0.11938114E-02 0.27512310E+03</pdfrwt>
<totfact> 0.71369358E+03</totfact>
</mgrwt>
</event>
<event>
 9    1  0.8285222E-001  0.2826325E+03  0.7818608E-02  0.1094260E+00
         -2   -1    0    0    0  501 -0.00000000000E+00  0.00000000000E+00  0.45680169935E+02  0.45680169935E+02  0.00000000000E+00 0. -1.
          2   -1    0    0  501    0  0.00000000000E+00 -0.00000000000E+00 -0.43717612975E+03  0.43717612975E+03  0.00000000000E+00 0. -1.
         35    2    1    2    0    0  0.71054273576E-14 -0.71054273576E-14 -0.39149595982E+03  0.48285629969E+03  0.28263248149E+03 0.  0.
         25    2    3    3    0    0  0.54192902619E+02 -0.34205095845E+02 -0.22140087828E+03  0.26212478752E+03  0.12483667752E+03 0.  0.
         25    2    3    3    0    0 -0.54192902619E+02  0.34205095845E+02 -0.17009508153E+03  0.22073151216E+03  0.12523260128E+03 0.  0.
          5    1    4    4  502    0  0.60328378544E+02  0.34206845645E+02 -0.89348142177E+02  0.11320248256E+03  0.47000000000E+01 0.  1.
         -5    1    4    4    0  502 -0.61354759249E+01 -0.68411941491E+02 -0.13205273611E+03  0.14892230497E+03  0.47000000000E+01 0.  1.
          5    1    5    5  503    0 -0.71042166218E+02  0.28728850335E+02 -0.34961954609E+02  0.84360918040E+02  0.47000000000E+01 0. -1.
         -5    1    5    5    0  503  0.16849263599E+02  0.54762455105E+01 -0.13513312692E+03  0.13637059412E+03  0.47000000000E+01 0. -1.
<mgrwt>
<rscale>  0 0.28263248E+03</rscale>
<asrwt>0</asrwt>
<pdfrwt beam="1">  1        2 0.67257866E-01 0.28263248E+03</pdfrwt>
<pdfrwt beam="2">  1       -2 0.70277185E-02 0.28263248E+03</pdfrwt>
<totfact> 0.83405474E+03</totfact>
</mgrwt>
</event>
<event>
 9    1  0.8285222E-001  0.2738264E+03  0.7818608E-02  0.1099109E+00
         -2   -1    0    0    0  501 -0.00000000000E+00  0.00000000000E+00  0.32976150286E+02  0.32976150286E+02  0.00000000000E+00 0.  1.
          2   -1    0    0  501    0  0.00000000000E+00 -0.00000000000E+00 -0.56844793343E+03  0.56844793343E+03  0.00000000000E+00 0.  1.
         35    2    1    2    0    0  0.00000000000E+00  0.00000000000E+00 -0.53547178314E+03  0.60142408371E+03  0.27382640108E+03 0.  0.
         25    2    3    3    0    0 -0.37078322061E+02  0.10182045609E+02 -0.18622754990E+03  0.22830604379E+03  0.12635059663E+03 0.  0.
         25    2    3    3    0    0  0.37078322061E+02 -0.10182045609E+02 -0.34924423324E+03  0.37311803992E+03  0.12556695921E+03 0.  0.
          5    1    4    4  502    0 -0.72534701649E+02 -0.28544117220E+02 -0.12630211852E+03  0.14849365210E+03  0.47000000000E+01 0. -1.
         -5    1    4    4    0  502  0.35456379588E+02  0.38726162830E+02 -0.59925431383E+02  0.79812391691E+02  0.47000000000E+01 0. -1.
          5    1    5    5  503    0  0.57666943705E+02 -0.94877113943E+00 -0.61467944496E+02  0.84420227218E+02  0.47000000000E+01 0. -1.
         -5    1    5    5    0  503 -0.20588621644E+02 -0.92332744701E+01 -0.28777628874E+03  0.28869781270E+03  0.47000000000E+01 0. -1.
<mgrwt>
<rscale>  0 0.27382640E+03</rscale>
<asrwt>0</asrwt>
<pdfrwt beam="1">  1        2 0.87453519E-01 0.27382640E+03</pdfrwt>
<pdfrwt beam="2">  1       -2 0.50732544E-02 0.27382640E+03</pdfrwt>
<totfact> 0.10236918E+04</totfact>
</mgrwt>
</event>
<event>
 9    1  0.8285222E-001  0.2742727E+03  0.7818608E-02  0.1098859E+00
          1   -1    0    0  501    0  0.00000000000E+00  0.00000000000E+00  0.51744833375E+03  0.51744833375E+03  0.00000000000E+00 0.  1.
         -1   -1    0    0    0  501 -0.00000000000E+00 -0.00000000000E+00 -0.36344458644E+02  0.36344458644E+02  0.00000000000E+00 0.  1.
         35    2    1    2    0    0 -0.35527136788E-14  0.00000000000E+00  0.48110387510E+03  0.55379279239E+03  0.27427270784E+03 0.  0.
         25    2    3    3    0    0 -0.24900139365E+02 -0.22112105743E+02  0.15011841205E+03  0.19852996361E+03  0.12557725373E+03 0.  0.
         25    2    3    3    0    0  0.24900139365E+02  0.22112105743E+02  0.33098546306E+03  0.35526282879E+03  0.12470500632E+03 0.  0.
          5    1    4    4  502    0  0.41736941074E+01 -0.71179593320E+02  0.96766188885E+02  0.12029023044E+03  0.47000000000E+01 0. -1.
         -5    1    4    4    0  502 -0.29073833472E+02  0.49067487576E+02  0.53352223162E+02  0.78239733168E+02  0.47000000000E+01 0. -1.
          5    1    5    5  503    0 -0.36549119524E+01 -0.48176113804E+02  0.85979190413E+02  0.98736049681E+02  0.47000000000E+01 0. -1.
         -5    1    5    5    0  503  0.28555051317E+02  0.70288219547E+02  0.24500627264E+03  0.25652677911E+03  0.47000000000E+01 0. -1.
<mgrwt>
<rscale>  0 0.27427271E+03</rscale>
<asrwt>0</asrwt>
<pdfrwt beam="1">  1        1 0.79607431E-01 0.27427271E+03</pdfrwt>
<pdfrwt beam="2">  1       -1 0.55914556E-02 0.27427271E+03</pdfrwt>
<totfact> 0.63803340E+03</totfact>
</mgrwt>
</event>
<event>
 9    1  0.8285222E-001  0.2759117E+03  0.7818608E-02  0.1097943E+00
          2   -1    0    0  501    0  0.00000000000E+00  0.00000000000E+00  0.34471834754E+03  0.34471834754E+03  0.00000000000E+00 0.  1.
         -2   -1    0    0    0  501 -0.00000000000E+00 -0.00000000000E+00 -0.55209753010E+02  0.55209753010E+02  0.00000000000E+00 0.  1.
         35    2    1    2    0    0 -0.71054273576E-14  0.71054273576E-14  0.28950859453E+03  0.39992810055E+03  0.27591168751E+03 0.  0.
         25    2    3    3    0    0  0.26767710221E+02  0.42077954607E+02  0.10231631217E+03  0.16924064124E+03  0.12524656616E+03 0.  0.
         25    2    3    3    0    0 -0.26767710221E+02 -0.42077954607E+02  0.18719228236E+03  0.23068745932E+03  0.12525449587E+03 0.  0.
          5    1    4    4  502    0  0.15509776297E+02  0.44799411731E+02  0.13022229549E+03  0.13866317714E+03  0.47000000000E+01 0.  1.
         -5    1    4    4    0  502  0.11257933924E+02 -0.27214571246E+01 -0.27905983321E+02  0.30577464091E+02  0.47000000000E+01 0.  1.
          5    1    5    5  503    0 -0.62391372549E+02 -0.10818919105E+02  0.37820583688E+02  0.73906826002E+02  0.47000000000E+01 0.  1.
         -5    1    5    5    0  503  0.35623662328E+02 -0.31259035501E+02  0.14937169867E+03  0.15678063331E+03  0.47000000000E+01 0.  1.
<mgrwt>
<rscale>  0 0.27591169E+03</rscale>
<asrwt>0</asrwt>
<pdfrwt beam="1">  1        2 0.53033591E-01 0.27591169E+03</pdfrwt>
<pdfrwt beam="2">  1       -2 0.84938084E-02 0.27591169E+03</pdfrwt>
<totfact> 0.80279244E+03</totfact>
</mgrwt>
</event>
<event>
 9    1  0.8285222E-001  0.2749467E+03  0.7818608E-02  0.1098481E+00
         -2   -1    0    0    0  501 -0.00000000000E+00  0.00000000000E+00  0.16923803002E+03  0.16923803002E+03  0.00000000000E+00 0.  1.
          2   -1    0    0  501    0  0.00000000000E+00 -0.00000000000E+00 -0.11167069138E+03  0.11167069138E+03  0.00000000000E+00 0.  1.
         35    2    1    2    0    0 -0.71054273576E-14  0.71054273576E-14  0.57567338636E+02  0.28090872140E+03  0.27494674263E+03 0.  0.
         25    2    3    3    0    0 -0.20910188049E+02  0.19749246556E+02  0.79243394836E+02  0.15168014643E+03  0.12609552923E+03 0.  0.
         25    2    3    3    0    0  0.20910188049E+02 -0.19749246556E+02 -0.21676056200E+02  0.12922857498E+03  0.12410843837E+03 0.  0.
          5    1    4    4  502    0 -0.43099095019E+02  0.45414208689E+02 -0.27234388116E+01  0.62844963690E+02  0.47000000000E+01 0.  1.
         -5    1    4    4    0  502  0.22188906970E+02 -0.25664962132E+02  0.81966833648E+02  0.88835182737E+02  0.47000000000E+01 0.  1.
          5    1    5    5  503    0  0.48549604474E+02  0.30527796880E+02 -0.38524822515E+02  0.69247833372E+02  0.47000000000E+01 0.  1.
         -5    1    5    5    0  503 -0.27639416425E+02 -0.50277043436E+02  0.16848766315E+02  0.59980741604E+02  0.47000000000E+01 0.  1.
<mgrwt>
<rscale>  0 0.27494674E+03</rscale>
<asrwt>0</asrwt>
<pdfrwt beam="1">  1        2 0.17180106E-01 0.27494674E+03</pdfrwt>
<pdfrwt beam="2">  1       -2 0.26036620E-01 0.27494674E+03</pdfrwt>
<totfact> 0.43577225E+03</totfact>
</mgrwt>
</event>
<event>
 9    1  0.8285222E-001  0.2769623E+03  0.7818608E-02  0.1097360E+00
          2   -1    0    0  501    0  0.00000000000E+00  0.00000000000E+00  0.21013530628E+03  0.21013530628E+03  0.00000000000E+00 0.  1.
         -2   -1    0    0    0  501 -0.00000000000E+00 -0.00000000000E+00 -0.91260399288E+02  0.91260399288E+02  0.00000000000E+00 0.  1.
         35    2    1    2    0    0  0.00000000000E+00  0.35527136788E-14  0.11887490699E+03  0.30139570557E+03  0.27696232203E+03 0.  0.
         25    2    3    3    0    0 -0.53890338655E+02  0.23079080956E+02  0.52592457627E+02  0.14778604102E+03  0.12505172827E+03 0.  0.
         25    2    3    3    0    0  0.53890338655E+02 -0.23079080956E+02  0.66282449362E+02  0.15360966454E+03  0.12556175122E+03 0.  0.
          5    1    4    4  502    0  0.12010789172E+01 -0.28038475266E+02  0.65475571819E+02  0.71391450404E+02  0.47000000000E+01 0. -1.
         -5    1    4    4    0  502 -0.55091417572E+02  0.51117556222E+02 -0.12883114192E+02  0.76394590617E+02  0.47000000000E+01 0. -1.
          5    1    5    5  503    0  0.49464557776E+02 -0.70261817087E+01  0.10213688242E+03  0.11379869268E+03  0.47000000000E+01 0. -1.
         -5    1    5    5    0  503  0.44257808793E+01 -0.16052899247E+02 -0.35854433060E+02  0.39810971863E+02  0.47000000000E+01 0. -1.
<mgrwt>
<rscale>  0 0.27696232E+03</rscale>
<asrwt>0</asrwt>
<pdfrwt beam="1">  1        2 0.32328509E-01 0.27696232E+03</pdfrwt>
<pdfrwt beam="2">  1       -2 0.14040061E-01 0.27696232E+03</pdfrwt>
<totfact> 0.61239744E+03</totfact>
</mgrwt>
</event>
<event>
 9    1  0.8285222E-001  0.2744810E+03  0.7818608E-02  0.1098742E+00
          2   -1    0    0  501    0  0.00000000000E+00  0.00000000000E+00  0.27861802488E+04  0.27861802488E+04  0.00000000000E+00 0.  1.
         -2   -1    0    0    0  501 -0.00000000000E+00 -0.00000000000E+00 -0.67601357211E+01  0.67601357211E+01  0.00000000000E+00 0.  1.
         35    2    1    2    0    0  0.00000000000E+00  0.00000000000E+00  0.27794201130E+04  0.27929403845E+04  0.27448101300E+03 0.  0.
         25    2    3    3    0    0 -0.54091724784E+02 -0.62032126283E+01  0.15264837242E+04  0.15325650930E+04  0.12505522566E+03 0.  0.
         25    2    3    3    0    0  0.54091724784E+02  0.62032126283E+01  0.12529363888E+04  0.12603752915E+04  0.12542681686E+03 0.  0.
          5    1    4    4  502    0 -0.32094292398E+02 -0.63091765452E+02  0.62626561001E+03  0.63027082969E+03  0.47000000000E+01 0.  1.
         -5    1    4    4    0  502 -0.21997432386E+02  0.56888552823E+02  0.90021811420E+03  0.90229426331E+03  0.47000000000E+01 0.  1.
          5    1    5    5  503    0 -0.29032002393E+02  0.31134906693E+02  0.24647076499E+03  0.25016428117E+03  0.47000000000E+01 0.  1.
         -5    1    5    5    0  503  0.83123727177E+02 -0.24931694065E+02  0.10064656238E+04  0.10102110103E+04  0.47000000000E+01 0.  1.
<mgrwt>
<rscale>  0 0.27448101E+03</rscale>
<asrwt>0</asrwt>
<pdfrwt beam="1">  1        2 0.42864220E+00 0.27448101E+03</pdfrwt>
<pdfrwt beam="2">  1       -2 0.10400231E-02 0.27448101E+03</pdfrwt>
<totfact> 0.55875978E+03</totfact>
</mgrwt>
</event>
<event>
 9    1  0.8285222E-001  0.2757094E+03  0.7818608E-02  0.1098056E+00
         -2   -1    0    0    0  501 -0.00000000000E+00  0.00000000000E+00  0.10640034531E+02  0.10640034531E+02  0.00000000000E+00 0.  1.
          2   -1    0    0  501    0  0.00000000000E+00 -0.00000000000E+00 -0.17860766279E+04  0.17860766279E+04  0.00000000000E+00 0.  1.
         35    2    1    2    0    0  0.00000000000E+00 -0.14210854715E-13 -0.17754365934E+04  0.17967166624E+04  0.27570939046E+03 0.  0.
         25    2    3    3    0    0  0.32677745098E+01  0.57082805656E+02 -0.92602563054E+03  0.93622664666E+03  0.12541028841E+03 0.  0.
         25    2    3    3    0    0 -0.32677745098E+01 -0.57082805656E+02 -0.84941096283E+03  0.86049001578E+03  0.12519967422E+03 0.  0.
          5    1    4    4  502    0  0.58515991970E+01 -0.32736735490E+02 -0.48240285519E+03  0.48357061507E+03  0.47000000000E+01 0. -1.
         -5    1    4    4    0  502 -0.25838246871E+01  0.89819541147E+02 -0.44362277535E+03  0.45265603159E+03  0.47000000000E+01 0. -1.
          5    1    5    5  503    0  0.18332341378E+02 -0.88010457935E+02 -0.72015084655E+03  0.72575563879E+03  0.47000000000E+01 0.  1.
         -5    1    5    5    0  503 -0.21600115887E+02  0.30927652279E+02 -0.12926011628E+03  0.13473437699E+03  0.47000000000E+01 0.  1.
<mgrwt>
<rscale>  0 0.27570939E+03</rscale>
<asrwt>0</asrwt>
<pdfrwt beam="1">  1        2 0.27478114E+00 0.27570939E+03</pdfrwt>
<pdfrwt beam="2">  1       -2 0.16369277E-02 0.27570939E+03</pdfrwt>
<totfact> 0.99908716E+03</totfact>
</mgrwt>
</event>
<event>
 9    1  0.8285222E-001  0.2752009E+03  0.7818608E-02  0.1098339E+00
         -1   -1    0    0    0  501 -0.00000000000E+00  0.00000000000E+00  0.67858627429E+02  0.67858627429E+02  0.00000000000E+00 0.  1.
          1   -1    0    0  501    0  0.00000000000E+00 -0.00000000000E+00 -0.27901955546E+03  0.27901955546E+03  0.00000000000E+00 0.  1.
         35    2    1    2    0    0  0.00000000000E+00 -0.35527136788E-14 -0.21116092803E+03  0.34687818288E+03  0.27520090159E+03 0.  0.
         25    2    3    3    0    0 -0.20075960838E+02 -0.28036284209E+02 -0.15219827740E+03  0.20374916293E+03  0.13099743629E+03 0.  0.
         25    2    3    3    0    0  0.20075960838E+02  0.28036284209E+02 -0.58962650625E+02  0.14312901996E+03  0.12577855441E+03 0.  0.
          5    1    4    4  502    0  0.10606853169E+02 -0.12986885719E+02 -0.16576762545E+03  0.16667981337E+03  0.47000000000E+01 0. -1.
         -5    1    4    4    0  502 -0.30682814006E+02 -0.15049398490E+02  0.13569348053E+02  0.37069349561E+02  0.47000000000E+01 0. -1.
          5    1    5    5  503    0  0.11139836648E+01  0.67008267593E+02  0.31369076836E+01  0.67255327486E+02  0.47000000000E+01 0.  1.
         -5    1    5    5    0  503  0.18961977173E+02 -0.38971983384E+02 -0.62099558309E+02  0.75873692472E+02  0.47000000000E+01 0.  1.
<mgrwt>
<rscale>  0 0.27520090E+03</rscale>
<asrwt>0</asrwt>
<pdfrwt beam="1">  1        1 0.42926085E-01 0.27520090E+03</pdfrwt>
<pdfrwt beam="2">  1       -1 0.10439789E-01 0.27520090E+03</pdfrwt>
<totfact> 0.54391662E+03</totfact>
</mgrwt>
</event>
<event>
 9    1  0.8285222E-001  0.2728865E+03  0.7818608E-02  0.1099639E+00
          2   -1    0    0  501    0  0.00000000000E+00  0.00000000000E+00  0.68130411918E+03  0.68130411918E+03  0.00000000000E+00 0. -1.
         -2   -1    0    0    0  501 -0.00000000000E+00 -0.00000000000E+00 -0.27325176588E+02  0.27325176588E+02  0.00000000000E+00 0. -1.
         35    2    1    2    0    0  0.00000000000E+00  0.00000000000E+00  0.65397894259E+03  0.70862929576E+03  0.27288646259E+03 0.  0.
         25    2    3    3    0    0 -0.46238814600E+02 -0.11357005251E+02  0.39327667984E+03  0.41556226026E+03  0.12553260813E+03 0.  0.
         25    2    3    3    0    0  0.46238814600E+02  0.11357005251E+02  0.26070226275E+03  0.29306703551E+03  0.12512237191E+03 0.  0.
          5    1    4    4  502    0  0.22253829979E+02 -0.91539357929E+01  0.10500279391E+02  0.26671583315E+02  0.47000000000E+01 0. -1.
         -5    1    4    4    0  502 -0.68492644578E+02 -0.22030694576E+01  0.38277640045E+03  0.38889067694E+03  0.47000000000E+01 0. -1.
          5    1    5    5  503    0  0.78567020407E+02  0.24611657017E+02  0.23607092931E+03  0.25006016081E+03  0.47000000000E+01 0. -1.
         -5    1    5    5    0  503 -0.32328205808E+02 -0.13254651766E+02  0.24631333440E+02  0.43006874697E+02  0.47000000000E+01 0. -1.
<mgrwt>
<rscale>  0 0.27288646E+03</rscale>
<asrwt>0</asrwt>
<pdfrwt beam="1">  1        2 0.10481601E+00 0.27288646E+03</pdfrwt>
<pdfrwt beam="2">  1       -2 0.42038738E-02 0.27288646E+03</pdfrwt>
<totfact> 0.11000968E+04</totfact>
</mgrwt>
</event>
<event>
 9    1  0.8285222E-001  0.2758513E+03  0.7818608E-02  0.1097977E+00
          1   -1    0    0  501    0  0.00000000000E+00  0.00000000000E+00  0.22575829392E+03  0.22575829392E+03  0.00000000000E+00 0.  1.
         -1   -1    0    0    0  501 -0.00000000000E+00 -0.00000000000E+00 -0.84264804145E+02  0.84264804145E+02  0.00000000000E+00 0.  1.
         35    2    1    2    0    0 -0.35527136788E-14  0.00000000000E+00  0.14149348978E+03  0.31002309807E+03  0.27585125283E+03 0.  0.
         25    2    3    3    0    0  0.16766989847E+02  0.54818168180E+02  0.70859724070E+02  0.15476811130E+03  0.12508358913E+03 0.  0.
         25    2    3    3    0    0 -0.16766989847E+02 -0.54818168180E+02  0.70633765709E+02  0.15525498677E+03  0.12581263270E+03 0.  0.
          5    1    4    4  502    0 -0.49910165223E+00  0.35038133538E+02  0.10537462615E+03  0.11114774735E+03  0.47000000000E+01 0. -1.
         -5    1    4    4    0  502  0.17266091499E+02  0.19780034641E+02 -0.34514902080E+02  0.43620363956E+02  0.47000000000E+01 0. -1.
          5    1    5    5  503    0 -0.17899745134E+02 -0.85630568099E+02  0.11445745657E+02  0.88352080692E+02  0.47000000000E+01 0. -1.
         -5    1    5    5    0  503  0.11327552877E+01  0.30812399920E+02  0.59188020052E+02  0.66902906073E+02  0.47000000000E+01 0. -1.
<mgrwt>
<rscale>  0 0.27585125E+03</rscale>
<asrwt>0</asrwt>
<pdfrwt beam="1">  1        1 0.34732045E-01 0.27585125E+03</pdfrwt>
<pdfrwt beam="2">  1       -1 0.12963816E-01 0.27585125E+03</pdfrwt>
<totfact> 0.50630674E+03</totfact>
</mgrwt>
</event>
<event>
 9    1  0.8285222E-001  0.2768686E+03  0.7818608E-02  0.1097412E+00
          1   -1    0    0  501    0  0.00000000000E+00  0.00000000000E+00  0.25715141917E+03  0.25715141917E+03  0.00000000000E+00 0.  1.
         -1   -1    0    0    0  501 -0.00000000000E+00 -0.00000000000E+00 -0.74524423684E+02  0.74524423684E+02  0.00000000000E+00 0.  1.
         35    2    1    2    0    0  0.35527136788E-14  0.00000000000E+00  0.18262699549E+03  0.33167584286E+03  0.27686864260E+03 0.  0.
         25    2    3    3    0    0 -0.19172285930E+02 -0.25270320104E+02  0.34858308516E+02  0.13358626026E+03  0.12499608647E+03 0.  0.
         25    2    3    3    0    0  0.19172285930E+02  0.25270320104E+02  0.14776868697E+03  0.19808958259E+03  0.12805363039E+03 0.  0.
          5    1    4    4  502    0  0.31173807900E+02 -0.55956934031E+02  0.37511672354E+02  0.74378762614E+02  0.47000000000E+01 0. -1.
         -5    1    4    4    0  502 -0.50346093829E+02  0.30686613927E+02 -0.26533638381E+01  0.59207497649E+02  0.47000000000E+01 0. -1.
          5    1    5    5  503    0 -0.40231521748E+01 -0.41050305796E+02  0.90019444091E+01  0.42478681271E+02  0.47000000000E+01 0.  1.
         -5    1    5    5    0  503  0.23195438104E+02  0.66320625900E+02  0.13876674256E+03  0.15561090132E+03  0.47000000000E+01 0.  1.
<mgrwt>
<rscale>  0 0.27686864E+03</rscale>
<asrwt>0</asrwt>
<pdfrwt beam="1">  1        1 0.39561756E-01 0.27686864E+03</pdfrwt>
<pdfrwt beam="2">  1       -1 0.11465296E-01 0.27686864E+03</pdfrwt>
<totfact> 0.52104088E+03</totfact>
</mgrwt>
</event>
<event>
 9    1  0.8285222E-001  0.2761639E+03  0.7818608E-02  0.1097803E+00
         -1   -1    0    0    0  501 -0.00000000000E+00  0.00000000000E+00  0.60032840719E+02  0.60032840719E+02  0.00000000000E+00 0. -1.
          1   -1    0    0  501    0  0.00000000000E+00 -0.00000000000E+00 -0.31760322528E+03  0.31760322528E+03  0.00000000000E+00 0. -1.
         35    2    1    2    0    0  0.00000000000E+00 -0.71054273576E-14 -0.25757038456E+03  0.37763606600E+03  0.27616389217E+03 0.  0.
         25    2    3    3    0    0 -0.43072883104E+02 -0.38664503050E+02 -0.14460204168E+03  0.19953244504E+03  0.12471258601E+03 0.  0.
         25    2    3    3    0    0  0.43072883104E+02  0.38664503050E+02 -0.11296834288E+03  0.17810362096E+03  0.12493532828E+03 0.  0.
          5    1    4    4  502    0 -0.44155829012E+02  0.16591125404E+02 -0.13520778170E+03  0.14327678427E+03  0.47000000000E+01 0.  1.
         -5    1    4    4    0  502  0.10829459078E+01 -0.55255628454E+02 -0.93942599791E+01  0.56255660767E+02  0.47000000000E+01 0.  1.
          5    1    5    5  503    0  0.47997993714E+02 -0.37140053237E+02 -0.59249200097E+02  0.84945562964E+02  0.47000000000E+01 0. -1.
         -5    1    5    5    0  503 -0.49251106104E+01  0.75804556288E+02 -0.53719142780E+02  0.93158057996E+02  0.47000000000E+01 0. -1.
<mgrwt>
<rscale>  0 0.27616389E+03</rscale>
<asrwt>0</asrwt>
<pdfrwt beam="1">  1        1 0.48862034E-01 0.27616389E+03</pdfrwt>
<pdfrwt beam="2">  1       -1 0.92358218E-02 0.27616389E+03</pdfrwt>
<totfact> 0.55847822E+03</totfact>
</mgrwt>
</event>
<event>
 9    1  0.8285222E-001  0.2736951E+03  0.7818608E-02  0.1099183E+00
          2   -1    0    0  501    0  0.00000000000E+00  0.00000000000E+00  0.13892208811E+03  0.13892208811E+03  0.00000000000E+00 0. -1.
         -2   -1    0    0    0  501 -0.00000000000E+00 -0.00000000000E+00 -0.13480403187E+03  0.13480403187E+03  0.00000000000E+00 0. -1.
         35    2    1    2    0    0 -0.71054273576E-14  0.35527136788E-14  0.41180562392E+01  0.27372611997E+03  0.27369514129E+03 0.  0.
         25    2    3    3    0    0 -0.53637939150E+02  0.79225961688E+01 -0.83293381090E+01  0.13699149493E+03  0.12552886427E+03 0.  0.
         25    2    3    3    0    0  0.53637939150E+02 -0.79225961688E+01  0.12447394348E+02  0.13673462504E+03  0.12490646105E+03 0.  0.
          5    1    4    4  502    0 -0.52804296062E+02 -0.29105399944E+02  0.42505068369E+02  0.73920151688E+02  0.47000000000E+01 0. -1.
         -5    1    4    4    0  502 -0.83364308807E+00  0.37027996113E+02 -0.50834406478E+02  0.63071343247E+02  0.47000000000E+01 0. -1.
          5    1    5    5  503    0  0.69378160712E+02  0.17969074873E+02 -0.35270194916E+02  0.80014332997E+02  0.47000000000E+01 0.  1.
         -5    1    5    5    0  503 -0.15740221562E+02 -0.25891671042E+02  0.47717589264E+02  0.56720292042E+02  0.47000000000E+01 0.  1.
<mgrwt>
<rscale>  0 0.27369514E+03</rscale>
<asrwt>0</asrwt>
<pdfrwt beam="1">  1        2 0.21372629E-01 0.27369514E+03</pdfrwt>
<pdfrwt beam="2">  1       -2 0.20739082E-01 0.27369514E+03</pdfrwt>
<totfact> 0.50413044E+03</totfact>
</mgrwt>
</event>
<event>
 9    1  0.8285222E-001  0.2740386E+03  0.7818608E-02  0.1098990E+00
         -1   -1    0    0    0  501 -0.00000000000E+00  0.00000000000E+00  0.27852268523E+03  0.27852268523E+03  0.00000000000E+00 0.  1.
          1   -1    0    0  501    0  0.00000000000E+00 -0.00000000000E+00 -0.67406655188E+02  0.67406655188E+02  0.00000000000E+00 0.  1.
         35    2    1    2    0    0  0.00000000000E+00 -0.35527136788E-14  0.21111603004E+03  0.34592934041E+03  0.27403855645E+03 0.  0.
         25    2    3    3    0    0 -0.14334343295E+01 -0.22857969342E+02  0.17218999379E+03  0.21395499130E+03  0.12491117981E+03 0.  0.
         25    2    3    3    0    0  0.14334343295E+01  0.22857969342E+02  0.38926036244E+02  0.13197434911E+03  0.12400585079E+03 0.  0.
          5    1    4    4  502    0  0.44483645902E+02  0.31105148110E+02  0.91276124388E+02  0.10630026282E+03  0.47000000000E+01 0.  1.
         -5    1    4    4    0  502 -0.45917080232E+02 -0.53963117452E+02  0.80913869407E+02  0.10765472848E+03  0.47000000000E+01 0.  1.
          5    1    5    5  503    0  0.48331863017E+02  0.50268792066E+02  0.32477154452E+02  0.77069942259E+02  0.47000000000E+01 0. -1.
         -5    1    5    5    0  503 -0.46898428688E+02 -0.27410822724E+02  0.64488817921E+01  0.54904406856E+02  0.47000000000E+01 0. -1.
<mgrwt>
<rscale>  0 0.27403856E+03</rscale>
<asrwt>0</asrwt>
<pdfrwt beam="1">  1        1 0.10370255E-01 0.27403856E+03</pdfrwt>
<pdfrwt beam="2">  1       -1 0.42849643E-01 0.27403856E+03</pdfrwt>
<totfact> 0.33165067E+03</totfact>
</mgrwt>
</event>
<event>
 9    1  0.8285222E-001  0.2700048E+03  0.7818608E-02  0.1101277E+00
          2   -1    0    0  501    0  0.00000000000E+00  0.00000000000E+00  0.16777199481E+04  0.16777199481E+04  0.00000000000E+00 0.  1.
         -2   -1    0    0    0  501 -0.00000000000E+00 -0.00000000000E+00 -0.10863341678E+02  0.10863341678E+02  0.00000000000E+00 0.  1.
         35    2    1    2    0    0 -0.35527136788E-14  0.00000000000E+00  0.16668566064E+04  0.16885832897E+04  0.27000477800E+03 0.  0.
         25    2    3    3    0    0 -0.24436853218E+02 -0.25108721787E+02  0.58869896300E+03  0.60241621174E+03  0.12292768369E+03 0.  0.
         25    2    3    3    0    0  0.24436853218E+02  0.25108721787E+02  0.10781576434E+04  0.10861670780E+04  0.12691497017E+03 0.  0.
          5    1    4    4  502    0  0.48066999827E+02  0.10196117292E+01  0.28445908768E+03  0.28853169435E+03  0.47000000000E+01 0. -1.
         -5    1    4    4    0  502 -0.72503853045E+02 -0.26128333517E+02  0.30423987532E+03  0.31388451739E+03  0.47000000000E+01 0. -1.
          5    1    5    5  503    0  0.21086504589E+02  0.67549060379E+02  0.90562157771E+03  0.90839421412E+03  0.47000000000E+01 0. -1.
         -5    1    5    5    0  503  0.33503486286E+01 -0.42440338592E+02  0.17253606566E+03  0.17777286387E+03  0.47000000000E+01 0. -1.
<mgrwt>
<rscale>  0 0.27000478E+03</rscale>
<asrwt>0</asrwt>
<pdfrwt beam="1">  1        2 0.25811056E+00 0.27000478E+03</pdfrwt>
<pdfrwt beam="2">  1       -2 0.16712847E-02 0.27000478E+03</pdfrwt>
<totfact> 0.11046413E+04</totfact>
</mgrwt>
</event>
<event>
 9    1  0.8285222E-001  0.2745173E+03  0.7818608E-02  0.1098722E+00
         -1   -1    0    0    0  501 -0.00000000000E+00  0.00000000000E+00  0.72203312135E+02  0.72203312135E+02  0.00000000000E+00 0.  1.
          1   -1    0    0  501    0  0.00000000000E+00 -0.00000000000E+00 -0.26092905971E+03  0.26092905971E+03  0.00000000000E+00 0.  1.
         35    2    1    2    0    0 -0.35527136788E-14  0.00000000000E+00 -0.18872574758E+03  0.33313237184E+03  0.27451733893E+03 0.  0.
         25    2    3    3    0    0 -0.15537167983E+02  0.26584992475E+02 -0.30415510864E+02  0.13020433916E+03  0.12280024927E+03 0.  0.
         25    2    3    3    0    0  0.15537167983E+02 -0.26584992475E+02 -0.15831023671E+03  0.20292803268E+03  0.12316448346E+03 0.  0.
          5    1    4    4  502    0  0.41485727894E+02  0.48759218774E+02 -0.23898589552E+02  0.68496420468E+02  0.47000000000E+01 0.  1.
         -5    1    4    4    0  502 -0.57022895877E+02 -0.22174226300E+02 -0.65169213121E+01  0.61707918695E+02  0.47000000000E+01 0.  1.
          5    1    5    5  503    0  0.17667914639E+02  0.41645115032E+02 -0.22252574492E+02  0.50633367311E+02  0.47000000000E+01 0.  1.
         -5    1    5    5    0  503 -0.21307466562E+01 -0.68230107507E+02 -0.13605766222E+03  0.15229466537E+03  0.47000000000E+01 0.  1.
<mgrwt>
<rscale>  0 0.27451734E+03</rscale>
<asrwt>0</asrwt>
<pdfrwt beam="1">  1        1 0.40142932E-01 0.27451734E+03</pdfrwt>
<pdfrwt beam="2">  1       -1 0.11108202E-01 0.27451734E+03</pdfrwt>
<totfact> 0.53727168E+03</totfact>
</mgrwt>
</event>
<event>
 9    1  0.8285222E-001  0.2747390E+03  0.7818608E-02  0.1098598E+00
         -1   -1    0    0    0  501 -0.00000000000E+00  0.00000000000E+00  0.27790707689E+03  0.27790707689E+03  0.00000000000E+00 0.  1.
          1   -1    0    0  501    0  0.00000000000E+00 -0.00000000000E+00 -0.67901780487E+02  0.67901780487E+02  0.00000000000E+00 0.  1.
         35    2    1    2    0    0  0.71054273576E-14 -0.88817841970E-15  0.21000529640E+03  0.34580885737E+03  0.27473904222E+03 0.  0.
         25    2    3    3    0    0  0.47510775154E+02 -0.43771208257E+01  0.65812777407E+02  0.14884667771E+03  0.12468993084E+03 0.  0.
         25    2    3    3    0    0 -0.47510775154E+02  0.43771208257E+01  0.14419251899E+03  0.19696217966E+03  0.12540408583E+03 0.  0.
          5    1    4    4  502    0 -0.14486317428E+02  0.26776957901E+01 -0.30381968158E+02  0.34090723614E+02  0.47000000000E+01 0. -1.
         -5    1    4    4    0  502  0.61997092583E+02 -0.70548166158E+01  0.96194745566E+02  0.11475595410E+03  0.47000000000E+01 0. -1.
          5    1    5    5  503    0 -0.11660485804E+02  0.12139790207E+02 -0.21206165666E+02  0.27479681543E+02  0.47000000000E+01 0.  1.
         -5    1    5    5    0  503 -0.35850289350E+02 -0.77626693809E+01  0.16539868466E+03  0.16948249812E+03  0.47000000000E+01 0.  1.
<mgrwt>
<rscale>  0 0.27473904E+03</rscale>
<asrwt>0</asrwt>
<pdfrwt beam="1">  1        1 0.10446428E-01 0.27473904E+03</pdfrwt>
<pdfrwt beam="2">  1       -1 0.42754934E-01 0.27473904E+03</pdfrwt>
<totfact> 0.32974266E+03</totfact>
</mgrwt>
</event>
<event>
 9    1  0.8285222E-001  0.2739619E+03  0.7818608E-02  0.1099033E+00
          1   -1    0    0  501    0  0.00000000000E+00  0.00000000000E+00  0.73027955970E+02  0.73027955970E+02  0.00000000000E+00 0. -1.
         -1   -1    0    0    0  501 -0.00000000000E+00 -0.00000000000E+00 -0.25693961699E+03  0.25693961699E+03  0.00000000000E+00 0. -1.
         35    2    1    2    0    0  0.00000000000E+00  0.00000000000E+00 -0.18391166102E+03  0.32996757295E+03  0.27396185892E+03 0.  0.
         25    2    3    3    0    0 -0.33152644843E+02  0.17782797716E+02 -0.36558649666E+02  0.13385933756E+03  0.12315218890E+03 0.  0.
         25    2    3    3    0    0  0.33152644843E+02 -0.17782797716E+02 -0.14735301135E+03  0.19610823540E+03  0.12381520214E+03 0.  0.
          5    1    4    4  502    0  0.42707318626E+02  0.28361758603E+02 -0.86490744831E+01  0.52203456828E+02  0.47000000000E+01 0.  1.
         -5    1    4    4    0  502 -0.75859963470E+02 -0.10578960887E+02 -0.27909575183E+02  0.81655880731E+02  0.47000000000E+01 0.  1.
          5    1    5    5  503    0  0.62495487969E+02 -0.46481659830E+02 -0.12930946813E+03  0.15102734608E+03  0.47000000000E+01 0.  1.
         -5    1    5    5    0  503 -0.29342843126E+02  0.28698862114E+02 -0.18043543222E+02  0.45080889315E+02  0.47000000000E+01 0.  1.
<mgrwt>
<rscale>  0 0.27396186E+03</rscale>
<asrwt>0</asrwt>
<pdfrwt beam="1">  1        1 0.11235070E-01 0.27396186E+03</pdfrwt>
<pdfrwt beam="2">  1       -1 0.39529171E-01 0.27396186E+03</pdfrwt>
<totfact> 0.34404972E+03</totfact>
</mgrwt>
</event>
<event>
 9    1  0.8285222E-001  0.2765496E+03  0.7818608E-02  0.1097589E+00
          2   -1    0    0  501    0  0.00000000000E+00  0.00000000000E+00  0.11974190186E+04  0.11974190186E+04  0.00000000000E+00 0. -1.
         -2   -1    0    0    0  501 -0.00000000000E+00 -0.00000000000E+00 -0.15967608560E+02  0.15967608560E+02  0.00000000000E+00 0. -1.
         35    2    1    2    0    0  0.71054273576E-14 -0.17763568394E-14  0.11814514100E+04  0.12133866272E+04  0.27654958450E+03 0.  0.
         25    2    3    3    0    0 -0.56808614164E+02  0.15075286009E+02  0.58117154598E+03  0.59733587690E+03  0.12488114785E+03 0.  0.
         25    2    3    3    0    0  0.56808614164E+02 -0.15075286009E+02  0.60027986407E+03  0.61605075026E+03  0.12541183677E+03 0.  0.
          5    1    4    4  502    0 -0.17729163565E+02 -0.30784732010E+02  0.43866139877E+02  0.56642309216E+02  0.47000000000E+01 0. -1.
         -5    1    4    4    0  502 -0.39079450600E+02  0.45860018019E+02  0.53730540610E+03  0.54069356769E+03  0.47000000000E+01 0. -1.
          5    1    5    5  503    0 -0.11685275255E+02 -0.10087997323E+02  0.45502172259E+03  0.45530777654E+03  0.47000000000E+01 0. -1.
         -5    1    5    5    0  503  0.68493889419E+02 -0.49872886864E+01  0.14525814147E+03  0.16074297372E+03  0.47000000000E+01 0. -1.
<mgrwt>
<rscale>  0 0.27654958E+03</rscale>
<asrwt>0</asrwt>
<pdfrwt beam="1">  1        2 0.18421824E+00 0.27654958E+03</pdfrwt>
<pdfrwt beam="2">  1       -2 0.24565561E-02 0.27654958E+03</pdfrwt>
<totfact> 0.11422836E+04</totfact>
</mgrwt>
</event>
<event>
 9    1  0.8285222E-001  0.2728142E+03  0.7818608E-02  0.1099680E+00
         -2   -1    0    0    0  501 -0.00000000000E+00  0.00000000000E+00  0.77697329996E+01  0.77697329996E+01  0.00000000000E+00 0. -1.
          2   -1    0    0  501    0  0.00000000000E+00 -0.00000000000E+00 -0.23947924197E+04  0.23947924197E+04  0.00000000000E+00 0. -1.
         35    2    1    2    0    0 -0.13322676296E-14 -0.71054273576E-14 -0.23870226867E+04  0.24025621527E+04  0.27281420558E+03 0.  0.
         25    2    3    3    0    0  0.33636191769E+01 -0.34861846331E+02 -0.15633305278E+04  0.15687305320E+04  0.12524568137E+03 0.  0.
         25    2    3    3    0    0 -0.33636191769E+01  0.34861846331E+02 -0.82369215896E+03  0.83383162074E+03  0.12481881563E+03 0.  0.
          5    1    4    4  502    0  0.17032323766E+02 -0.49822609293E+02 -0.26436657394E+03  0.26960001459E+03  0.47000000000E+01 0.  1.
         -5    1    4    4    0  502 -0.13668704589E+02  0.14960762962E+02 -0.12989639538E+04  0.12991305174E+04  0.47000000000E+01 0.  1.
          5    1    5    5  503    0 -0.47236927073E+01  0.14712565924E+02 -0.80713677857E+03  0.80729836008E+03  0.47000000000E+01 0. -1.
         -5    1    5    5    0  503  0.13600735305E+01  0.20149280408E+02 -0.16555380393E+02  0.26533260654E+02  0.47000000000E+01 0. -1.
<mgrwt>
<rscale>  0 0.27281421E+03</rscale>
<asrwt>0</asrwt>
<pdfrwt beam="1">  1        2 0.36842968E+00 0.27281421E+03</pdfrwt>
<pdfrwt beam="2">  1       -2 0.11953433E-02 0.27281421E+03</pdfrwt>
<totfact> 0.75248368E+03</totfact>
</mgrwt>
</event>
<event>
 9    1  0.8285222E-001  0.2755427E+03  0.7818608E-02  0.1098149E+00
         -2   -1    0    0    0  501 -0.00000000000E+00  0.00000000000E+00  0.11102733575E+03  0.11102733575E+03  0.00000000000E+00 0. -1.
          2   -1    0    0  501    0  0.00000000000E+00 -0.00000000000E+00 -0.17095743772E+03  0.17095743772E+03  0.00000000000E+00 0. -1.
         35    2    1    2    0    0  0.71054273576E-14  0.00000000000E+00 -0.59930101968E+02  0.28198477347E+03  0.27554272872E+03 0.  0.
         25    2    3    3    0    0  0.46686688806E+02 -0.34056021478E+02 -0.28265008925E+02  0.14059689552E+03  0.12501646608E+03 0.  0.
         25    2    3    3    0    0 -0.46686688806E+02  0.34056021478E+02 -0.31665093043E+02  0.14138787795E+03  0.12509354261E+03 0.  0.
          5    1    4    4  502    0  0.23611120404E+02 -0.65712656968E+02  0.24996069201E+02  0.74313738757E+02  0.47000000000E+01 0.  1.
         -5    1    4    4    0  502  0.23075568402E+02  0.31656635490E+02 -0.53261078126E+02  0.66283156766E+02  0.47000000000E+01 0.  1.
          5    1    5    5  503    0 -0.58345229590E+02  0.64624710382E+02 -0.53009981319E+02  0.10204247707E+03  0.47000000000E+01 0.  1.
         -5    1    5    5    0  503  0.11658540784E+02 -0.30568688904E+02  0.21344888275E+02  0.39345400875E+02  0.47000000000E+01 0.  1.
<mgrwt>
<rscale>  0 0.27554273E+03</rscale>
<asrwt>0</asrwt>
<pdfrwt beam="1">  1        2 0.26301144E-01 0.27554273E+03</pdfrwt>
<pdfrwt beam="2">  1       -2 0.17081128E-01 0.27554273E+03</pdfrwt>
<totfact> 0.55513113E+03</totfact>
</mgrwt>
</event>
<event>
 9    1  0.8285222E-001  0.2735985E+03  0.7818608E-02  0.1099238E+00
          3   -1    0    0  501    0  0.00000000000E+00  0.00000000000E+00  0.21790188093E+03  0.21790188093E+03  0.00000000000E+00 0. -1.
         -3   -1    0    0    0  501 -0.00000000000E+00 -0.00000000000E+00 -0.85882842164E+02  0.85882842164E+02  0.00000000000E+00 0. -1.
         35    2    1    2    0    0  0.00000000000E+00  0.00000000000E+00  0.13201903876E+03  0.30378472309E+03  0.27359848572E+03 0.  0.
         25    2    3    3    0    0  0.92989597052E+01 -0.53979014884E+02  0.51012549814E+02  0.14562890107E+03  0.12492114268E+03 0.  0.
         25    2    3    3    0    0 -0.92989597052E+01  0.53979014884E+02  0.81006488947E+02  0.15815582202E+03  0.12430208401E+03 0.  0.
          5    1    4    4  502    0  0.62932764718E+02 -0.46140106550E+01  0.21186663022E+02  0.66729203947E+02  0.47000000000E+01 0.  1.
         -5    1    4    4    0  502 -0.53633805013E+02 -0.49365004229E+02  0.29825886792E+02  0.78899697120E+02  0.47000000000E+01 0.  1.
          5    1    5    5  503    0  0.55920259417E+02  0.40127181160E+02  0.41986945983E+02  0.80760508382E+02  0.47000000000E+01 0.  1.
         -5    1    5    5    0  503 -0.65219219122E+02  0.13851833723E+02  0.39019542964E+02  0.77395313640E+02  0.47000000000E+01 0.  1.
<mgrwt>
<rscale>  0 0.27359849E+03</rscale>
<asrwt>0</asrwt>
<pdfrwt beam="1">  1        3 0.33523366E-01 0.27359849E+03</pdfrwt>
<pdfrwt beam="2">  1       -3 0.13212745E-01 0.27359849E+03</pdfrwt>
<totfact> 0.10221207E+03</totfact>
</mgrwt>
</event>
<event>
 9    1  0.8285222E-001  0.2742854E+03  0.7818608E-02  0.1098852E+00
          2   -1    0    0  501    0  0.00000000000E+00  0.00000000000E+00  0.15804851783E+04  0.15804851783E+04  0.00000000000E+00 0.  1.
         -2   -1    0    0    0  501 -0.00000000000E+00 -0.00000000000E+00 -0.11900217576E+02  0.11900217576E+02  0.00000000000E+00 0.  1.
         35    2    1    2    0    0  0.00000000000E+00  0.17763568394E-14  0.15685849607E+04  0.15923853959E+04  0.27428538056E+03 0.  0.
         25    2    3    3    0    0  0.53284924055E+02  0.15728780245E+02  0.81820935434E+03  0.82960926404E+03  0.12529288004E+03 0.  0.
         25    2    3    3    0    0 -0.53284924055E+02 -0.15728780245E+02  0.75037560636E+03  0.76277613181E+03  0.12520862186E+03 0.  0.
          5    1    4    4  502    0  0.57335871065E+02  0.50497834743E+02  0.28098360528E+03  0.29122381404E+03  0.47000000000E+01 0.  1.
         -5    1    4    4    0  502 -0.40509470091E+01 -0.34769054497E+02  0.53722574906E+03  0.53838545000E+03  0.47000000000E+01 0.  1.
          5    1    5    5  503    0 -0.55533430128E+02  0.67636953623E+01  0.72947776824E+03  0.73163489105E+03  0.47000000000E+01 0.  1.
         -5    1    5    5    0  503  0.22485060727E+01 -0.22492475608E+02  0.20897838113E+02  0.31141240764E+02  0.47000000000E+01 0.  1.
<mgrwt>
<rscale>  0 0.27428538E+03</rscale>
<asrwt>0</asrwt>
<pdfrwt beam="1">  1        2 0.24315140E+00 0.27428538E+03</pdfrwt>
<pdfrwt beam="2">  1       -2 0.18308040E-02 0.27428538E+03</pdfrwt>
<totfact> 0.10881557E+04</totfact>
</mgrwt>
</event>
<event>
 9    1  0.8285222E-001  0.2751153E+03  0.7818608E-02  0.1098387E+00
          2   -1    0    0  501    0  0.00000000000E+00  0.00000000000E+00  0.11102939686E+03  0.11102939686E+03  0.00000000000E+00 0.  1.
         -2   -1    0    0    0  501 -0.00000000000E+00 -0.00000000000E+00 -0.17042429059E+03  0.17042429059E+03  0.00000000000E+00 0.  1.
         35    2    1    2    0    0 -0.71054273576E-14 -0.10658141036E-13 -0.59394893727E+02  0.28145368744E+03  0.27511529360E+03 0.  0.
         25    2    3    3    0    0  0.50513591539E+02 -0.15481556749E+02 -0.47795503354E+02  0.14508557918E+03  0.12638874006E+03 0.  0.
         25    2    3    3    0    0 -0.50513591539E+02  0.15481556749E+02 -0.11599390373E+02  0.13636810827E+03  0.12518152246E+03 0.  0.
          5    1    4    4  502    0  0.80849076680E+02 -0.41792170893E+02 -0.13617535842E+02  0.92144918636E+02  0.47000000000E+01 0. -1.
         -5    1    4    4    0  502 -0.30335485142E+02  0.26310614144E+02 -0.34177967512E+02  0.52940660542E+02  0.47000000000E+01 0. -1.
          5    1    5    5  503    0 -0.14322329159E+02  0.68680894838E+02 -0.14474702300E+02  0.71789981439E+02  0.47000000000E+01 0.  1.
         -5    1    5    5    0  503 -0.36191262380E+02 -0.53199338089E+02  0.28753119273E+01  0.64578126827E+02  0.47000000000E+01 0.  1.
<mgrwt>
<rscale>  0 0.27511529E+03</rscale>
<asrwt>0</asrwt>
<pdfrwt beam="1">  1        2 0.17081446E-01 0.27511529E+03</pdfrwt>
<pdfrwt beam="2">  1       -2 0.26219122E-01 0.27511529E+03</pdfrwt>
<totfact> 0.43331043E+03</totfact>
</mgrwt>
</event>
<event>
 9    1  0.8285222E-001  0.2761371E+03  0.7818608E-02  0.1097818E+00
         -1   -1    0    0    0  501 -0.00000000000E+00  0.00000000000E+00  0.33997906173E+03  0.33997906173E+03  0.00000000000E+00 0. -1.
          1   -1    0    0  501    0  0.00000000000E+00 -0.00000000000E+00 -0.56070871125E+02  0.56070871125E+02  0.00000000000E+00 0. -1.
         35    2    1    2    0    0  0.35527136788E-14 -0.53290705182E-14  0.28390819060E+03  0.39604993285E+03  0.27613708303E+03 0.  0.
         25    2    3    3    0    0  0.90423660887E+01 -0.14701287030E+02  0.22152236020E+03  0.25512044004E+03  0.12536502955E+03 0.  0.
         25    2    3    3    0    0 -0.90423660887E+01  0.14701287030E+02  0.62385830403E+02  0.14092949281E+03  0.12518481491E+03 0.  0.
          5    1    4    4  502    0  0.11285430655E+02 -0.52992735169E+02  0.20669427205E+03  0.21372927507E+03  0.47000000000E+01 0. -1.
         -5    1    4    4    0  502 -0.22430645659E+01  0.38291448139E+02  0.14828088155E+02  0.41391164970E+02  0.47000000000E+01 0. -1.
          5    1    5    5  503    0  0.41372129003E+02 -0.11844400122E+02 -0.14019208165E+02  0.45503528106E+02  0.47000000000E+01 0. -1.
         -5    1    5    5    0  503 -0.50414495092E+02  0.26545687152E+02  0.76405038567E+02  0.95425964707E+02  0.47000000000E+01 0. -1.
<mgrwt>
<rscale>  0 0.27613708E+03</rscale>
<asrwt>0</asrwt>
<pdfrwt beam="1">  1        1 0.86262881E-02 0.27613708E+03</pdfrwt>
<pdfrwt beam="2">  1       -1 0.52304470E-01 0.27613708E+03</pdfrwt>
<totfact> 0.29518848E+03</totfact>
</mgrwt>
</event>
<event>
 9    1  0.8285222E-001  0.2751612E+03  0.7818608E-02  0.1098362E+00
         -2   -1    0    0    0  501 -0.00000000000E+00  0.00000000000E+00  0.15721154503E+02  0.15721154503E+02  0.00000000000E+00 0. -1.
          2   -1    0    0  501    0  0.00000000000E+00 -0.00000000000E+00 -0.12040096745E+04  0.12040096745E+04  0.00000000000E+00 0. -1.
         35    2    1    2    0    0  0.00000000000E+00  0.00000000000E+00 -0.11882885200E+04  0.12197308290E+04  0.27516120450E+03 0.  0.
         25    2    3    3    0    0  0.31684326004E+02  0.11649117960E+01 -0.44981193067E+03  0.47050146049E+03  0.13429667834E+03 0.  0.
         25    2    3    3    0    0 -0.31684326004E+02 -0.11649117960E+01 -0.73847658935E+03  0.74922936854E+03  0.12244068004E+03 0.  0.
          5    1    4    4  502    0  0.42850028044E+01  0.58036042523E+02 -0.10697999296E+03  0.12187433025E+03  0.47000000000E+01 0.  1.
         -5    1    4    4    0  502  0.27399323200E+02 -0.56871130727E+02 -0.34283193771E+03  0.34862713023E+03  0.47000000000E+01 0.  1.
          5    1    5    5  503    0 -0.62160742388E+02  0.13620644647E+02 -0.66643600633E+03  0.66948377156E+03  0.47000000000E+01 0. -1.
         -5    1    5    5    0  503  0.30476416384E+02 -0.14785556443E+02 -0.72040583027E+02  0.79745596981E+02  0.47000000000E+01 0. -1.
<mgrwt>
<rscale>  0 0.27516120E+03</rscale>
<asrwt>0</asrwt>
<pdfrwt beam="1">  1        2 0.18523225E+00 0.27516120E+03</pdfrwt>
<pdfrwt beam="2">  1       -2 0.24186393E-02 0.27516120E+03</pdfrwt>
<totfact> 0.11586715E+04</totfact>
</mgrwt>
</event>
<event>
 9    1  0.8285222E-001  0.2747839E+03  0.7818608E-02  0.1098572E+00
          2   -1    0    0  501    0  0.00000000000E+00  0.00000000000E+00  0.16631988456E+03  0.16631988456E+03  0.00000000000E+00 0. -1.
         -2   -1    0    0    0  501 -0.00000000000E+00 -0.00000000000E+00 -0.11349546877E+03  0.11349546877E+03  0.00000000000E+00 0. -1.
         35    2    1    2    0    0 -0.71054273576E-14  0.00000000000E+00  0.52824415785E+02  0.27981535333E+03  0.27478393886E+03 0.  0.
         25    2    3    3    0    0 -0.55125197605E+02 -0.13257409281E+02  0.44547098693E+02  0.14329361821E+03  0.12383081485E+03 0.  0.
         25    2    3    3    0    0  0.55125197605E+02  0.13257409281E+02  0.82773170917E+01  0.13652173511E+03  0.12391579346E+03 0.  0.
          5    1    4    4  502    0  0.13867560367E+02  0.21542997588E+02  0.59042203899E+02  0.64532796444E+02  0.47000000000E+01 0. -1.
         -5    1    4    4    0  502 -0.68992757972E+02 -0.34800406870E+02 -0.14495105206E+02  0.78760821769E+02  0.47000000000E+01 0. -1.
          5    1    5    5  503    0  0.50893607846E+02  0.56370406272E+02  0.36717957333E+02  0.84487161235E+02  0.47000000000E+01 0.  1.
         -5    1    5    5    0  503  0.42315897587E+01 -0.43112996990E+02 -0.28440640242E+02  0.52034573878E+02  0.47000000000E+01 0.  1.
<mgrwt>
<rscale>  0 0.27478394E+03</rscale>
<asrwt>0</asrwt>
<pdfrwt beam="1">  1        2 0.25587674E-01 0.27478394E+03</pdfrwt>
<pdfrwt beam="2">  1       -2 0.17460841E-01 0.27478394E+03</pdfrwt>
<totfact> 0.55159671E+03</totfact>
</mgrwt>
</event>
<event>
 9    1  0.8285222E-001  0.2735833E+03  0.7818608E-02  0.1099246E+00
          2   -1    0    0  501    0  0.00000000000E+00  0.00000000000E+00  0.22488501001E+03  0.22488501001E+03  0.00000000000E+00 0. -1.
         -2   -1    0    0    0  501 -0.00000000000E+00 -0.00000000000E+00 -0.83206800480E+02  0.83206800480E+02  0.00000000000E+00 0. -1.
         35    2    1    2    0    0  0.71054273576E-14 -0.71054273576E-14  0.14167820953E+03  0.30809181049E+03  0.27358334861E+03 0.  0.
         25    2    3    3    0    0  0.15767551903E+02  0.49955463181E+02  0.50367886091E+02  0.14481306916E+03  0.12525868056E+03 0.  0.
         25    2    3    3    0    0 -0.15767551903E+02 -0.49955463181E+02  0.91310323437E+02  0.16327874132E+03  0.12481269249E+03 0.  0.
          5    1    4    4  502    0 -0.50499784874E+02  0.51231923102E+01  0.16112185173E+01  0.51001582298E+02  0.47000000000E+01 0.  1.
         -5    1    4    4    0  502  0.66267336777E+02  0.44832270870E+02  0.48756667574E+02  0.93811486865E+02  0.47000000000E+01 0.  1.
          5    1    5    5  503    0 -0.13857585566E+02 -0.58851856176E+02 -0.99908393910E+01  0.61461211547E+02  0.47000000000E+01 0. -1.
         -5    1    5    5    0  503 -0.19099663372E+01  0.88963929952E+01  0.10130116283E+03  0.10181752978E+03  0.47000000000E+01 0. -1.
<mgrwt>
<rscale>  0 0.27358335E+03</rscale>
<asrwt>0</asrwt>
<pdfrwt beam="1">  1        2 0.34597694E-01 0.27358335E+03</pdfrwt>
<pdfrwt beam="2">  1       -2 0.12801046E-01 0.27358335E+03</pdfrwt>
<totfact> 0.66110687E+03</totfact>
</mgrwt>
</event>
<event>
 9    1  0.8285222E-001  0.2761017E+03  0.7818608E-02  0.1097837E+00
          4   -1    0    0  501    0  0.00000000000E+00  0.00000000000E+00  0.13644578403E+02  0.13644578403E+02  0.00000000000E+00 0.  1.
         -4   -1    0    0    0  501 -0.00000000000E+00 -0.00000000000E+00 -0.13967474932E+04  0.13967474932E+04  0.00000000000E+00 0.  1.
         35    2    1    2    0    0  0.35527136788E-14  0.88817841970E-14 -0.13831029148E+04  0.14103920716E+04  0.27610165288E+03 0.  0.
         25    2    3    3    0    0 -0.23232941338E+02  0.15815244895E+02 -0.95816538945E+03  0.96661666806E+03  0.12440650266E+03 0.  0.
         25    2    3    3    0    0  0.23232941338E+02 -0.15815244895E+02 -0.42493752532E+03  0.44377540352E+03  0.12479910578E+03 0.  0.
          5    1    4    4  502    0 -0.29226734538E+00 -0.53259569540E+02 -0.47027007852E+03  0.47329980343E+03  0.47000000000E+01 0. -1.
         -5    1    4    4    0  502 -0.22940673992E+02  0.69074814435E+02 -0.48789531093E+03  0.49331686464E+03  0.47000000000E+01 0. -1.
          5    1    5    5  503    0  0.19879691421E+02 -0.14650932518E+02 -0.43303411967E+03  0.43376317358E+03  0.47000000000E+01 0. -1.
         -5    1    5    5    0  503  0.33532499162E+01 -0.11643123767E+01  0.80965943469E+01  0.10012229938E+02  0.47000000000E+01 0. -1.
<mgrwt>
<rscale>  0 0.27610165E+03</rscale>
<asrwt>0</asrwt>
<pdfrwt beam="1">  1        4 0.20991660E-02 0.27610165E+03</pdfrwt>
<pdfrwt beam="2">  1       -4 0.21488422E+00 0.27610165E+03</pdfrwt>
<totfact> 0.20500324E+02</totfact>
</mgrwt>
</event>
<event>
 9    1  0.8285222E-001  0.2765008E+03  0.7818608E-02  0.1097616E+00
          1   -1    0    0  501    0  0.00000000000E+00  0.00000000000E+00  0.94336778086E+03  0.94336778086E+03  0.00000000000E+00 0. -1.
         -1   -1    0    0    0  501 -0.00000000000E+00 -0.00000000000E+00 -0.20260568455E+02  0.20260568455E+02  0.00000000000E+00 0. -1.
         35    2    1    2    0    0  0.00000000000E+00 -0.14210854715E-13  0.92310721241E+03  0.96362834932E+03  0.27650075951E+03 0.  0.
         25    2    3    3    0    0 -0.10281052795E+02 -0.44015341995E+02  0.32035180904E+03  0.34709891726E+03  0.12573514396E+03 0.  0.
         25    2    3    3    0    0  0.10281052795E+02  0.44015341995E+02  0.60275540336E+03  0.61652943206E+03  0.12145539895E+03 0.  0.
          5    1    4    4  502    0  0.23713060094E+01  0.42189877351E+02  0.14701003264E+03  0.15303479519E+03  0.47000000000E+01 0. -1.
         -5    1    4    4    0  502 -0.12652358804E+02 -0.86205219346E+02  0.17334177640E+03  0.19406412207E+03  0.47000000000E+01 0. -1.
          5    1    5    5  503    0  0.62914452315E+02  0.15551359503E+02  0.39378666062E+03  0.39911163498E+03  0.47000000000E+01 0. -1.
         -5    1    5    5    0  503 -0.52633399520E+02  0.28463982491E+02  0.20896874274E+03  0.21741779708E+03  0.47000000000E+01 0. -1.
<mgrwt>
<rscale>  0 0.27650076E+03</rscale>
<asrwt>0</asrwt>
<pdfrwt beam="1">  1        1 0.14513347E+00 0.27650076E+03</pdfrwt>
<pdfrwt beam="2">  1       -1 0.31170113E-02 0.27650076E+03</pdfrwt>
<totfact> 0.62904022E+03</totfact>
</mgrwt>
</event>
<event>
 9    1  0.8285222E-001  0.2754128E+03  0.7818608E-02  0.1098221E+00
          2   -1    0    0  501    0  0.00000000000E+00  0.00000000000E+00  0.24913402849E+03  0.24913402849E+03  0.00000000000E+00 0. -1.
         -2   -1    0    0    0  501 -0.00000000000E+00 -0.00000000000E+00 -0.76115882007E+02  0.76115882007E+02  0.00000000000E+00 0. -1.
         35    2    1    2    0    0 -0.14210854715E-13  0.00000000000E+00  0.17301814649E+03  0.32524991050E+03  0.27541282698E+03 0.  0.
         25    2    3    3    0    0 -0.52976309720E+02 -0.27224742427E+02  0.75358421467E+02  0.15780522326E+03  0.12520351757E+03 0.  0.
         25    2    3    3    0    0  0.52976309720E+02  0.27224742427E+02  0.97659725019E+02  0.16744468724E+03  0.12228092820E+03 0.  0.
          5    1    4    4  502    0  0.35433067054E+02 -0.11478100993E+01  0.51108707083E+02  0.62377958034E+02  0.47000000000E+01 0.  1.
         -5    1    4    4    0  502 -0.88409376774E+02 -0.26076932328E+02  0.24249714384E+02  0.95427265228E+02  0.47000000000E+01 0.  1.
          5    1    5    5  503    0  0.51944513211E+02 -0.12416419298E+02  0.11267693807E+03  0.12478213932E+03  0.47000000000E+01 0.  1.
         -5    1    5    5    0  503  0.10317965086E+01  0.39641161725E+02 -0.15017213049E+02  0.42662547916E+02  0.47000000000E+01 0.  1.
<mgrwt>
<rscale>  0 0.27541283E+03</rscale>
<asrwt>0</asrwt>
<pdfrwt beam="1">  1        2 0.38328312E-01 0.27541283E+03</pdfrwt>
<pdfrwt beam="2">  1       -2 0.11710136E-01 0.27541283E+03</pdfrwt>
<totfact> 0.68354952E+03</totfact>
</mgrwt>
</event>
<event>
 9    1  0.8285222E-001  0.2749940E+03  0.7818608E-02  0.1098455E+00
          2   -1    0    0  501    0  0.00000000000E+00  0.00000000000E+00  0.19712206477E+04  0.19712206477E+04  0.00000000000E+00 0. -1.
         -2   -1    0    0    0  501 -0.00000000000E+00 -0.00000000000E+00 -0.95907225887E+01  0.95907225887E+01  0.00000000000E+00 0. -1.
         35    2    1    2    0    0  0.71054273576E-14  0.71054273576E-14  0.19616299252E+04  0.19808113703E+04  0.27499403916E+03 0.  0.
         25    2    3    3    0    0 -0.53196879176E+02 -0.22876249908E+02  0.88539209186E+03  0.89592338718E+03  0.12412223252E+03 0.  0.
         25    2    3    3    0    0  0.53196879176E+02  0.22876249908E+02  0.10762378333E+04  0.10848879831E+04  0.12385810997E+03 0.  0.
          5    1    4    4  502    0 -0.37931330852E+02  0.24648246736E+02  0.75273984253E+03  0.75411251313E+03  0.47000000000E+01 0.  1.
         -5    1    4    4    0  502 -0.15265548324E+02 -0.47524496643E+02  0.13265224932E+03  0.14181087405E+03  0.47000000000E+01 0.  1.
          5    1    5    5  503    0  0.32373986782E+02 -0.24653258243E+02  0.90434051130E+03  0.90526775516E+03  0.47000000000E+01 0.  1.
         -5    1    5    5    0  503  0.20822892394E+02  0.47529508151E+02  0.17189732199E+03  0.17962022799E+03  0.47000000000E+01 0.  1.
<mgrwt>
<rscale>  0 0.27499404E+03</rscale>
<asrwt>0</asrwt>
<pdfrwt beam="1">  1        2 0.30326439E+00 0.27499404E+03</pdfrwt>
<pdfrwt beam="2">  1       -2 0.14754973E-02 0.27499404E+03</pdfrwt>
<totfact> 0.92978615E+03</totfact>
</mgrwt>
</event>
<event>
 9    1  0.8285222E-001  0.2816988E+03  0.7818608E-02  0.1094765E+00
         -2   -1    0    0    0  501 -0.00000000000E+00  0.00000000000E+00  0.97280237809E+01  0.97280237809E+01  0.00000000000E+00 0.  1.
          2   -1    0    0  501    0  0.00000000000E+00 -0.00000000000E+00 -0.20393193999E+04  0.20393193999E+04  0.00000000000E+00 0.  1.
         35    2    1    2    0    0  0.00000000000E+00 -0.71054273576E-14 -0.20295913761E+04  0.20490474237E+04  0.28169875839E+03 0.  0.
         25    2    3    3    0    0 -0.55785137449E+02  0.23703672902E+01 -0.82493559800E+03  0.83656078493E+03  0.12726981510E+03 0.  0.
         25    2    3    3    0    0  0.55785137449E+02 -0.23703672902E+01 -0.12046557781E+04  0.12124866387E+04  0.12574062665E+03 0.  0.
          5    1    4    4  502    0 -0.70870171417E+02  0.51161599230E+02 -0.50058353013E+03  0.50817915253E+03  0.47000000000E+01 0.  1.
         -5    1    4    4    0  502  0.15085033967E+02 -0.48791231940E+02 -0.32435206787E+03  0.32838163239E+03  0.47000000000E+01 0.  1.
          5    1    5    5  503    0  0.64943504326E+02 -0.29915795500E+02 -0.34673007619E+03  0.35405712718E+03  0.47000000000E+01 0. -1.
         -5    1    5    5    0  503 -0.91583668766E+01  0.27545428210E+02 -0.85792570191E+03  0.85842951155E+03  0.47000000000E+01 0. -1.
<mgrwt>
<rscale>  0 0.28169876E+03</rscale>
<asrwt>0</asrwt>
<pdfrwt beam="1">  1        2 0.31374118E+00 0.28169876E+03</pdfrwt>
<pdfrwt beam="2">  1       -2 0.14966203E-02 0.28169876E+03</pdfrwt>
<totfact> 0.83865322E+03</totfact>
</mgrwt>
</event>
<event>
 9    1  0.8285222E-001  0.2752098E+03  0.7818608E-02  0.1098334E+00
          1   -1    0    0  501    0  0.00000000000E+00  0.00000000000E+00  0.47619935757E+03  0.47619935757E+03  0.00000000000E+00 0. -1.
         -1   -1    0    0    0  501 -0.00000000000E+00 -0.00000000000E+00 -0.39762984696E+02  0.39762984696E+02  0.00000000000E+00 0. -1.
         35    2    1    2    0    0  0.00000000000E+00  0.00000000000E+00  0.43643637287E+03  0.51596234226E+03  0.27520979465E+03 0.  0.
         25    2    3    3    0    0  0.15555719371E+02 -0.21753235483E+02  0.31573880541E+03  0.34047408829E+03  0.12456495452E+03 0.  0.
         25    2    3    3    0    0 -0.15555719371E+02  0.21753235483E+02  0.12069756746E+03  0.17548825398E+03  0.12455135822E+03 0.  0.
          5    1    4    4  502    0 -0.37482399176E+02  0.18747679113E+02  0.45333618146E+02  0.61916335925E+02  0.47000000000E+01 0.  1.
         -5    1    4    4    0  502  0.53038118548E+02 -0.40500914597E+02  0.27040518726E+03  0.27855775236E+03  0.47000000000E+01 0.  1.
          5    1    5    5  503    0  0.53256358731E+01  0.60380172640E+02  0.11614328555E+03  0.13109340344E+03  0.47000000000E+01 0.  1.
         -5    1    5    5    0  503 -0.20881355245E+02 -0.38626937156E+02  0.45542819113E+01  0.44394850542E+02  0.47000000000E+01 0.  1.
<mgrwt>
<rscale>  0 0.27520979E+03</rscale>
<asrwt>0</asrwt>
<pdfrwt beam="1">  1        1 0.73261436E-01 0.27520979E+03</pdfrwt>
<pdfrwt beam="2">  1       -1 0.61173826E-02 0.27520979E+03</pdfrwt>
<totfact> 0.62220790E+03</totfact>
</mgrwt>
</event>
<event>
 9    1  0.8285222E-001  0.2763112E+03  0.7818608E-02  0.1097721E+00
         -2   -1    0    0    0  501 -0.00000000000E+00  0.00000000000E+00  0.91944762275E+01  0.91944762275E+01  0.00000000000E+00 0. -1.
          2   -1    0    0  501    0  0.00000000000E+00 -0.00000000000E+00 -0.20759177219E+04  0.20759177219E+04  0.00000000000E+00 0. -1.
         35    2    1    2    0    0  0.00000000000E+00 -0.35527136788E-14 -0.20667232457E+04  0.20851121982E+04  0.27631124584E+03 0.  0.
         25    2    3    3    0    0  0.44494304311E+02 -0.11753742778E+02 -0.13094145502E+04  0.13163223419E+04  0.12657073105E+03 0.  0.
         25    2    3    3    0    0 -0.44494304311E+02  0.11753742778E+02 -0.75730869551E+03  0.76878985626E+03  0.12411079403E+03 0.  0.
          5    1    4    4  502    0  0.20347936913E+02  0.55535328910E+02 -0.44390959457E+03  0.44785715295E+03  0.47000000000E+01 0. -1.
         -5    1    4    4    0  502  0.24146367399E+02 -0.67289071688E+02 -0.86550495562E+03  0.86846518896E+03  0.47000000000E+01 0. -1.
          5    1    5    5  503    0 -0.39604677947E+02  0.16633840259E+02 -0.75969926406E+02  0.87399856266E+02  0.47000000000E+01 0. -1.
         -5    1    5    5    0  503 -0.48896263640E+01 -0.48800974812E+01 -0.68133876911E+03  0.68138999999E+03  0.47000000000E+01 0. -1.
<mgrwt>
<rscale>  0 0.27631125E+03</rscale>
<asrwt>0</asrwt>
<pdfrwt beam="1">  1        2 0.31937191E+00 0.27631125E+03</pdfrwt>
<pdfrwt beam="2">  1       -2 0.14145350E-02 0.27631125E+03</pdfrwt>
<totfact> 0.87105640E+03</totfact>
</mgrwt>
</event>
<event>
 9    1  0.8285222E-001  0.2729064E+03  0.7818608E-02  0.1099628E+00
          2   -1    0    0  501    0  0.00000000000E+00  0.00000000000E+00  0.16986118944E+03  0.16986118944E+03  0.00000000000E+00 0. -1.
         -2   -1    0    0    0  501 -0.00000000000E+00 -0.00000000000E+00 -0.10961584738E+03  0.10961584738E+03  0.00000000000E+00 0. -1.
         35    2    1    2    0    0 -0.71054273576E-14 -0.71054273576E-14  0.60245342058E+02  0.27947703682E+03  0.27290641779E+03 0.  0.
         25    2    3    3    0    0 -0.33947049488E+01  0.47231731095E+02  0.52956885329E+02  0.14428409626E+03  0.12558307325E+03 0.  0.
         25    2    3    3    0    0  0.33947049488E+01 -0.47231731095E+02  0.72884567288E+01  0.13519294056E+03  0.12641854742E+03 0.  0.
          5    1    4    4  502    0  0.60761701203E+02  0.18412752187E+02  0.22951871812E+02  0.67674900782E+02  0.47000000000E+01 0. -1.
         -5    1    4    4    0  502 -0.64156406152E+02  0.28818978908E+02  0.30005013517E+02  0.76609195478E+02  0.47000000000E+01 0. -1.
          5    1    5    5  503    0 -0.57658529018E+02 -0.62082786618E+01  0.17562311487E+02  0.60774776653E+02  0.47000000000E+01 0. -1.
         -5    1    5    5    0  503  0.61053233967E+02 -0.41023452433E+02 -0.10273854758E+02  0.74418163905E+02  0.47000000000E+01 0. -1.
<mgrwt>
<rscale>  0 0.27290642E+03</rscale>
<asrwt>0</asrwt>
<pdfrwt beam="1">  1        2 0.26132491E-01 0.27290642E+03</pdfrwt>
<pdfrwt beam="2">  1       -2 0.16863977E-01 0.27290642E+03</pdfrwt>
<totfact> 0.57103216E+03</totfact>
</mgrwt>
</event>
<event>
 9    1  0.8285222E-001  0.2741987E+03  0.7818608E-02  0.1098900E+00
         -2   -1    0    0    0  501 -0.00000000000E+00  0.00000000000E+00  0.35619907970E+02  0.35619907970E+02  0.00000000000E+00 0. -1.
          2   -1    0    0  501    0  0.00000000000E+00 -0.00000000000E+00 -0.52768902065E+03  0.52768902065E+03  0.00000000000E+00 0. -1.
         35    2    1    2    0    0  0.00000000000E+00  0.00000000000E+00 -0.49206911268E+03  0.56330892862E+03  0.27419871883E+03 0.  0.
         25    2    3    3    0    0  0.29953152557E+02  0.21524804299E+02 -0.16144750075E+03  0.20784428312E+03  0.12559236433E+03 0.  0.
         25    2    3    3    0    0 -0.29953152557E+02 -0.21524804299E+02 -0.33062161193E+03  0.35546464550E+03  0.12523559948E+03 0.  0.
          5    1    4    4  502    0  0.93282574328E+01  0.17855606051E+02 -0.17895173691E+03  0.18014342396E+03  0.47000000000E+01 0. -1.
         -5    1    4    4    0  502  0.20624895124E+02  0.36691982478E+01  0.17504236157E+02  0.27700859158E+02  0.47000000000E+01 0. -1.
          5    1    5    5  503    0 -0.40250708361E+02  0.40879762496E+02 -0.22515862379E+03  0.23240002231E+03  0.47000000000E+01 0.  1.
         -5    1    5    5    0  503  0.10297555804E+02 -0.62404566795E+02 -0.10546298814E+03  0.12306462319E+03  0.47000000000E+01 0.  1.
<mgrwt>
<rscale>  0 0.27419872E+03</rscale>
<asrwt>0</asrwt>
<pdfrwt beam="1">  1        2 0.81182922E-01 0.27419872E+03</pdfrwt>
<pdfrwt beam="2">  1       -2 0.54799861E-02 0.27419872E+03</pdfrwt>
<totfact> 0.99066639E+03</totfact>
</mgrwt>
</event>
<event>
 9    1  0.8285222E-001  0.2741729E+03  0.7818608E-02  0.1098915E+00
         -1   -1    0    0    0  501 -0.00000000000E+00  0.00000000000E+00  0.29292216095E+02  0.29292216095E+02  0.00000000000E+00 0. -1.
          1   -1    0    0  501    0  0.00000000000E+00 -0.00000000000E+00 -0.64155946618E+03  0.64155946618E+03  0.00000000000E+00 0. -1.
         35    2    1    2    0    0  0.00000000000E+00  0.17763568394E-14 -0.61226725008E+03  0.67085168227E+03  0.27417292734E+03 0.  0.
         25    2    3    3    0    0 -0.51831322917E+02 -0.14508499078E+02 -0.34292702152E+03  0.36970272997E+03  0.12721707384E+03 0.  0.
         25    2    3    3    0    0  0.51831322917E+02  0.14508499078E+02 -0.26934022856E+03  0.30114895231E+03  0.12348906904E+03 0.  0.
          5    1    4    4  502    0  0.36057723637E+02  0.16513188133E+01 -0.18166787083E+03  0.18527868625E+03  0.47000000000E+01 0.  1.
         -5    1    4    4    0  502 -0.87889046554E+02 -0.16159817891E+02 -0.16125915069E+03  0.18442404371E+03  0.47000000000E+01 0.  1.
          5    1    5    5  503    0  0.31191861088E+02 -0.38446707987E+02 -0.37196239819E+02  0.62102591008E+02  0.47000000000E+01 0. -1.
         -5    1    5    5    0  503  0.20639461829E+02  0.52955207065E+02 -0.23214398874E+03  0.23904636130E+03  0.47000000000E+01 0. -1.
<mgrwt>
<rscale>  0 0.27417293E+03</rscale>
<asrwt>0</asrwt>
<pdfrwt beam="1">  1        1 0.98701442E-01 0.27417293E+03</pdfrwt>
<pdfrwt beam="2">  1       -1 0.45064954E-02 0.27417293E+03</pdfrwt>
<totfact> 0.65592137E+03</totfact>
</mgrwt>
</event>
<event>
 9    1  0.8285222E-001  0.2742720E+03  0.7818608E-02  0.1098859E+00
          2   -1    0    0  501    0  0.00000000000E+00  0.00000000000E+00  0.12614088654E+04  0.12614088654E+04  0.00000000000E+00 0. -1.
         -2   -1    0    0    0  501 -0.00000000000E+00 -0.00000000000E+00 -0.14908955848E+02  0.14908955848E+02  0.00000000000E+00 0. -1.
         35    2    1    2    0    0 -0.35527136788E-14  0.00000000000E+00  0.12464999095E+04  0.12763178212E+04  0.27427204801E+03 0.  0.
         25    2    3    3    0    0  0.13187355599E+02  0.61477638665E+01  0.88099208718E+03  0.88947213375E+03  0.12166313197E+03 0.  0.
         25    2    3    3    0    0 -0.13187355599E+02 -0.61477638665E+01  0.36550782235E+03  0.38684568748E+03  0.12586467486E+03 0.  0.
          5    1    4    4  502    0  0.13888337667E+02 -0.29207177726E+02  0.80348985747E+03  0.80415420549E+03  0.47000000000E+01 0. -1.
         -5    1    4    4    0  502 -0.70098206820E+00  0.35354941592E+02  0.77502229713E+02  0.85317928253E+02  0.47000000000E+01 0. -1.
          5    1    5    5  503    0  0.22001288344E+02  0.29701279296E+02  0.30758411281E+02  0.48315551794E+02  0.47000000000E+01 0.  1.
         -5    1    5    5    0  503 -0.35188643944E+02 -0.35849043163E+02  0.33474941107E+03  0.33853013569E+03  0.47000000000E+01 0.  1.
<mgrwt>
<rscale>  0 0.27427205E+03</rscale>
<asrwt>0</asrwt>
<pdfrwt beam="1">  1        2 0.19406282E+00 0.27427205E+03</pdfrwt>
<pdfrwt beam="2">  1       -2 0.22936865E-02 0.27427205E+03</pdfrwt>
<totfact> 0.11631499E+04</totfact>
</mgrwt>
</event>
<event>
 9    1  0.8285222E-001  0.2758132E+03  0.7818608E-02  0.1097998E+00
          2   -1    0    0  501    0  0.00000000000E+00  0.00000000000E+00  0.26689383951E+02  0.26689383951E+02  0.00000000000E+00 0.  1.
         -2   -1    0    0    0  501 -0.00000000000E+00 -0.00000000000E+00 -0.71257652027E+03  0.71257652027E+03  0.00000000000E+00 0.  1.
         35    2    1    2    0    0  0.71054273576E-14  0.00000000000E+00 -0.68588713632E+03  0.73926590422E+03  0.27581318564E+03 0.  0.
         25    2    3    3    0    0 -0.31773331156E+02 -0.37425297073E+02 -0.39502142443E+03  0.41907156577E+03  0.13102997385E+03 0.  0.
         25    2    3    3    0    0  0.31773331156E+02  0.37425297073E+02 -0.29086571189E+03  0.32019433845E+03  0.12454458875E+03 0.  0.
          5    1    4    4  502    0 -0.16737410532E+01  0.24708345734E+02 -0.87987961009E+01  0.26698549976E+02  0.47000000000E+01 0.  1.
         -5    1    4    4    0  502 -0.30099590102E+02 -0.62133642807E+02 -0.38622262833E+03  0.39237301580E+03  0.47000000000E+01 0.  1.
          5    1    5    5  503    0  0.45180541956E+02  0.77351181120E+02 -0.17174579072E+03  0.19376065963E+03  0.47000000000E+01 0.  1.
         -5    1    5    5    0  503 -0.13407210801E+02 -0.39925884047E+02 -0.11911992117E+03  0.12643367881E+03  0.47000000000E+01 0.  1.
<mgrwt>
<rscale>  0 0.27581319E+03</rscale>
<asrwt>0</asrwt>
<pdfrwt beam="1">  1        2 0.41060593E-02 0.27581319E+03</pdfrwt>
<pdfrwt beam="2">  1       -2 0.10962715E+00 0.27581319E+03</pdfrwt>
<totfact> 0.14118683E+03</totfact>
</mgrwt>
</event>
<event>
 9    1  0.8285222E-001  0.2751919E+03  0.7818608E-02  0.1098344E+00
          1   -1    0    0  501    0  0.00000000000E+00  0.00000000000E+00  0.39856530979E+03  0.39856530979E+03  0.00000000000E+00 0.  1.
         -1   -1    0    0    0  501 -0.00000000000E+00 -0.00000000000E+00 -0.47501994164E+02  0.47501994164E+02  0.00000000000E+00 0.  1.
         35    2    1    2    0    0  0.00000000000E+00  0.00000000000E+00  0.35106331562E+03  0.44606730395E+03  0.27519191136E+03 0.  0.
         25    2    3    3    0    0 -0.57350241088E+02  0.47910128812E+01  0.17060314040E+03  0.21927899584E+03  0.12516326356E+03 0.  0.
         25    2    3    3    0    0  0.57350241088E+02 -0.47910128812E+01  0.18046017523E+03  0.22678830811E+03  0.12471991781E+03 0.  0.
          5    1    4    4  502    0  0.32289903544E+01  0.51125780390E+02  0.30805941765E+02  0.59961386301E+02  0.47000000000E+01 0.  1.
         -5    1    4    4    0  502 -0.60579231442E+02 -0.46334767509E+02  0.13979719863E+03  0.15931760954E+03  0.47000000000E+01 0.  1.
          5    1    5    5  503    0 -0.27938204509E+02 -0.36353428094E+02  0.66593298347E+02  0.80986865540E+02  0.47000000000E+01 0.  1.
         -5    1    5    5    0  503  0.85288445597E+02  0.31562415213E+02  0.11386687688E+03  0.14580144257E+03  0.47000000000E+01 0.  1.
<mgrwt>
<rscale>  0 0.27519191E+03</rscale>
<asrwt>0</asrwt>
<pdfrwt beam="1">  1        1 0.61317738E-01 0.27519191E+03</pdfrwt>
<pdfrwt beam="2">  1       -1 0.73079994E-02 0.27519191E+03</pdfrwt>
<totfact> 0.59871969E+03</totfact>
</mgrwt>
</event>
<event>
 9    1  0.8285222E-001  0.2764225E+03  0.7818608E-02  0.1097659E+00
          1   -1    0    0  501    0  0.00000000000E+00  0.00000000000E+00  0.23921846159E+04  0.23921846159E+04  0.00000000000E+00 0.  1.
         -1   -1    0    0    0  501 -0.00000000000E+00 -0.00000000000E+00 -0.79853148695E+01  0.79853148695E+01  0.00000000000E+00 0.  1.
         35    2    1    2    0    0 -0.71054273576E-14  0.00000000000E+00  0.23841993011E+04  0.24001699308E+04  0.27642248378E+03 0.  0.
         25    2    3    3    0    0  0.40146764537E+02  0.43319031420E+02  0.11866138850E+04  0.11946355602E+04  0.12495322540E+03 0.  0.
         25    2    3    3    0    0 -0.40146764537E+02 -0.43319031420E+02  0.11975854161E+04  0.12055343706E+04  0.12495594682E+03 0.  0.
          5    1    4    4  502    0  0.15476938017E+02  0.37098841274E+02  0.10232393413E+03  0.11003698074E+03  0.47000000000E+01 0.  1.
         -5    1    4    4    0  502  0.24669826520E+02  0.62201901462E+01  0.10842899509E+04  0.10845985795E+04  0.47000000000E+01 0.  1.
          5    1    5    5  503    0 -0.40398146751E+02 -0.21821056650E+02  0.13408662593E+03  0.14180790538E+03  0.47000000000E+01 0.  1.
         -5    1    5    5    0  503  0.25138221423E+00 -0.21497974770E+02  0.10634987901E+04  0.10637264652E+04  0.47000000000E+01 0.  1.
<mgrwt>
<rscale>  0 0.27642248E+03</rscale>
<asrwt>0</asrwt>
<pdfrwt beam="1">  1        1 0.36802783E+00 0.27642248E+03</pdfrwt>
<pdfrwt beam="2">  1       -1 0.12285119E-02 0.27642248E+03</pdfrwt>
<totfact> 0.26086054E+03</totfact>
</mgrwt>
</event>
<event>
 9    1  0.8285222E-001  0.2673991E+03  0.7818608E-02  0.1102777E+00
          2   -1    0    0  501    0  0.00000000000E+00  0.00000000000E+00  0.47155762956E+04  0.47155762956E+04  0.00000000000E+00 0. -1.
         -2   -1    0    0    0  501 -0.00000000000E+00 -0.00000000000E+00 -0.37907491755E+01  0.37907491755E+01  0.00000000000E+00 0. -1.
         35    2    1    2    0    0  0.35527136788E-14  0.00000000000E+00  0.47117855465E+04  0.47193670448E+04  0.26739907969E+03 0.  0.
         25    2    3    3    0    0  0.40756865370E+01 -0.12257427714E+02  0.24449448471E+04  0.24482018859E+04  0.12557990744E+03 0.  0.
         25    2    3    3    0    0 -0.40756865370E+01  0.12257427714E+02  0.22668406994E+04  0.22711651589E+04  0.13949038278E+03 0.  0.
          5    1    4    4  502    0 -0.12126568972E+02 -0.54577755270E+02  0.20278907436E+04  0.20286667403E+04  0.47000000000E+01 0. -1.
         -5    1    4    4    0  502  0.16202255509E+02  0.42320327556E+02  0.41705410345E+03  0.41953514562E+03  0.47000000000E+01 0. -1.
          5    1    5    5  503    0 -0.61779776206E+02 -0.27655556816E+02  0.13009012601E+04  0.13026694704E+04  0.47000000000E+01 0.  1.
         -5    1    5    5    0  503  0.57704089669E+02  0.39912984531E+02  0.96593943930E+03  0.96849568853E+03  0.47000000000E+01 0.  1.
<mgrwt>
<rscale>  0 0.26739908E+03</rscale>
<asrwt>0</asrwt>
<pdfrwt beam="1">  1        2 0.72546858E+00 0.26739908E+03</pdfrwt>
<pdfrwt beam="2">  1       -2 0.58319596E-03 0.26739908E+03</pdfrwt>
<totfact> 0.48817256E+02</totfact>
</mgrwt>
</event>
<event>
 9    1  0.8285222E-001  0.2624526E+03  0.7818608E-02  0.1105679E+00
          1   -1    0    0  501    0  0.00000000000E+00  0.00000000000E+00  0.34368990997E+04  0.34368990997E+04  0.00000000000E+00 0. -1.
         -1   -1    0    0    0  501 -0.00000000000E+00 -0.00000000000E+00 -0.50104282051E+01  0.50104282051E+01  0.00000000000E+00 0. -1.
         35    2    1    2    0    0  0.10658141036E-13  0.00000000000E+00  0.34318886715E+04  0.34419095279E+04  0.26245255714E+03 0.  0.
         25    2    3    3    0    0 -0.30177396766E+02  0.98613384775E+01  0.20347739031E+04  0.20388231771E+04  0.12444753720E+03 0.  0.
         25    2    3    3    0    0  0.30177396766E+02 -0.98613384775E+01  0.13971147684E+04  0.14030863508E+04  0.12535433956E+03 0.  0.
          5    1    4    4  502    0  0.55523113701E+01 -0.54239135446E+02  0.92079034874E+03  0.92241512797E+03  0.47000000000E+01 0. -1.
         -5    1    4    4    0  502 -0.35729708136E+02  0.64100473924E+02  0.11139835543E+04  0.11164080491E+04  0.47000000000E+01 0. -1.
          5    1    5    5  503    0  0.33614271264E+02 -0.54546213847E+02  0.11568364092E+04  0.11586189090E+04  0.47000000000E+01 0. -1.
         -5    1    5    5    0  503 -0.34368744984E+01  0.44684875369E+02  0.24027835927E+03  0.24446744185E+03  0.47000000000E+01 0. -1.
<mgrwt>
<rscale>  0 0.26245256E+03</rscale>
<asrwt>0</asrwt>
<pdfrwt beam="1">  1        1 0.52875182E+00 0.26245256E+03</pdfrwt>
<pdfrwt beam="2">  1       -1 0.77083785E-03 0.26245256E+03</pdfrwt>
<totfact> 0.96070186E+02</totfact>
</mgrwt>
</event>
<event>
 9    1  0.8285222E-001  0.2742145E+03  0.7818608E-02  0.1098891E+00
         -1   -1    0    0    0  501 -0.00000000000E+00  0.00000000000E+00  0.96226964249E+01  0.96226964249E+01  0.00000000000E+00 0. -1.
          1   -1    0    0  501    0  0.00000000000E+00 -0.00000000000E+00 -0.19535484816E+04  0.19535484816E+04  0.00000000000E+00 0. -1.
         35    2    1    2    0    0 -0.35527136788E-14  0.00000000000E+00 -0.19439257851E+04  0.19631711780E+04  0.27421454367E+03 0.  0.
         25    2    3    3    0    0 -0.21231671389E+02 -0.52683329887E+02 -0.10877579897E+04  0.10960913569E+04  0.12236217279E+03 0.  0.
         25    2    3    3    0    0  0.21231671389E+02  0.52683329887E+02 -0.85616779542E+03  0.86707982110E+03  0.12481107774E+03 0.  0.
          5    1    4    4  502    0 -0.43979220657E+02 -0.26588110326E+02 -0.16980323312E+03  0.17747204692E+03  0.47000000000E+01 0. -1.
         -5    1    4    4    0  502  0.22747549268E+02 -0.26095219561E+02 -0.91795475659E+03  0.91861930996E+03  0.47000000000E+01 0. -1.
          5    1    5    5  503    0 -0.32988040425E+02  0.31262670781E+02 -0.67842035817E+03  0.67995723231E+03  0.47000000000E+01 0.  1.
         -5    1    5    5    0  503  0.54219711814E+02  0.21420659106E+02 -0.17774743726E+03  0.18712258879E+03  0.47000000000E+01 0.  1.
<mgrwt>
<rscale>  0 0.27421454E+03</rscale>
<asrwt>0</asrwt>
<pdfrwt beam="1">  1        1 0.30054620E+00 0.27421454E+03</pdfrwt>
<pdfrwt beam="2">  1       -1 0.14804135E-02 0.27421454E+03</pdfrwt>
<totfact> 0.38475490E+03</totfact>
</mgrwt>
</event>
<event>
 9    1  0.8285222E-001  0.2745584E+03  0.7818608E-02  0.1098699E+00
         -1   -1    0    0    0  501 -0.00000000000E+00  0.00000000000E+00  0.46343646071E+02  0.46343646071E+02  0.00000000000E+00 0. -1.
          1   -1    0    0  501    0  0.00000000000E+00 -0.00000000000E+00 -0.40664852274E+03  0.40664852274E+03  0.00000000000E+00 0. -1.
         35    2    1    2    0    0  0.00000000000E+00  0.35527136788E-14 -0.36030487667E+03  0.45299216881E+03  0.27455837422E+03 0.  0.
         25    2    3    3    0    0 -0.34070526619E+02  0.17596796144E+02 -0.93056105219E+02  0.16106885789E+03  0.12575090554E+03 0.  0.
         25    2    3    3    0    0  0.34070526619E+02 -0.17596796144E+02 -0.26724877145E+03  0.29192331092E+03  0.11102641848E+03 0.  0.
          5    1    4    4  502    0 -0.64204705163E+02  0.25013331448E+02 -0.10649148882E+03  0.12692690064E+03  0.47000000000E+01 0. -1.
         -5    1    4    4    0  502  0.30134178544E+02 -0.74165353038E+01  0.13435383599E+02  0.34141957250E+02  0.47000000000E+01 0. -1.
          5    1    5    5  503    0 -0.11191610243E+02 -0.49652637256E+02 -0.68143074206E+02  0.85183361571E+02  0.47000000000E+01 0.  1.
         -5    1    5    5    0  503  0.45262136862E+02  0.32055841112E+02 -0.19910569724E+03  0.20673994935E+03  0.47000000000E+01 0.  1.
<mgrwt>
<rscale>  0 0.27455837E+03</rscale>
<asrwt>0</asrwt>
<pdfrwt beam="1">  1        1 0.62561309E-01 0.27455837E+03</pdfrwt>
<pdfrwt beam="2">  1       -1 0.71297919E-02 0.27455837E+03</pdfrwt>
<totfact> 0.60575432E+03</totfact>
</mgrwt>
</event>
<event>
 9    1  0.8285222E-001  0.2740076E+03  0.7818608E-02  0.1099008E+00
         -2   -1    0    0    0  501 -0.00000000000E+00  0.00000000000E+00  0.17855881517E+03  0.17855881517E+03  0.00000000000E+00 0. -1.
          2   -1    0    0  501    0  0.00000000000E+00 -0.00000000000E+00 -0.10511968065E+03  0.10511968065E+03  0.00000000000E+00 0. -1.
         35    2    1    2    0    0 -0.14210854715E-13  0.00000000000E+00  0.73439134520E+02  0.28367849581E+03  0.27400763221E+03 0.  0.
         25    2    3    3    0    0  0.39690432547E+02  0.25408477106E+02  0.66045399400E+02  0.14968593941E+03  0.12578936573E+03 0.  0.
         25    2    3    3    0    0 -0.39690432547E+02 -0.25408477106E+02  0.73937351199E+01  0.13399255640E+03  0.12521348453E+03 0.  0.
          5    1    4    4  502    0  0.49750890832E+02  0.52624862927E+02 -0.50566495870E+01  0.72747419485E+02  0.47000000000E+01 0. -1.
         -5    1    4    4    0  502 -0.10060458285E+02 -0.27216385821E+02  0.71102048987E+02  0.76938519925E+02  0.47000000000E+01 0. -1.
          5    1    5    5  503    0 -0.67638836388E+02 -0.54876658766E+02 -0.13189736572E+02  0.88218586568E+02  0.47000000000E+01 0. -1.
         -5    1    5    5    0  503  0.27948403841E+02  0.29468181660E+02  0.20583471691E+02  0.45773969835E+02  0.47000000000E+01 0. -1.
<mgrwt>
<rscale>  0 0.27400763E+03</rscale>
<asrwt>0</asrwt>
<pdfrwt beam="1">  1        2 0.16172259E-01 0.27400763E+03</pdfrwt>
<pdfrwt beam="2">  1       -2 0.27470587E-01 0.27400763E+03</pdfrwt>
<totfact> 0.42505047E+03</totfact>
</mgrwt>
</event>
<event>
 9    1  0.8285222E-001  0.2758427E+03  0.7818608E-02  0.1097981E+00
          1   -1    0    0  501    0  0.00000000000E+00  0.00000000000E+00  0.76489726876E+03  0.76489726876E+03  0.00000000000E+00 0. -1.
         -1   -1    0    0    0  501 -0.00000000000E+00 -0.00000000000E+00 -0.24869091688E+02  0.24869091688E+02  0.00000000000E+00 0. -1.
         35    2    1    2    0    0  0.00000000000E+00  0.00000000000E+00  0.74002817707E+03  0.78976636045E+03  0.27584271104E+03 0.  0.
         25    2    3    3    0    0  0.34666043147E+02  0.43779716519E+02  0.42108865942E+03  0.44266429298E+03  0.12456973573E+03 0.  0.
         25    2    3    3    0    0 -0.34666043147E+02 -0.43779716519E+02  0.31893951765E+03  0.34710206747E+03  0.12505611219E+03 0.  0.
          5    1    4    4  502    0  0.42293294659E+01  0.59190903972E+02  0.79359214539E+02  0.99203957951E+02  0.47000000000E+01 0. -1.
         -5    1    4    4    0  502  0.30436713681E+02 -0.15411187454E+02  0.34172944488E+03  0.34346033503E+03  0.47000000000E+01 0. -1.
          5    1    5    5  503    0 -0.19155543944E+02 -0.38707607591E+02  0.32587524284E+03  0.32875823586E+03  0.47000000000E+01 0.  1.
         -5    1    5    5    0  503 -0.15510499203E+02 -0.50721089277E+01 -0.69357251842E+01  0.18343831615E+02  0.47000000000E+01 0.  1.
<mgrwt>
<rscale>  0 0.27584271E+03</rscale>
<asrwt>0</asrwt>
<pdfrwt beam="1">  1        1 0.11767648E+00 0.27584271E+03</pdfrwt>
<pdfrwt beam="2">  1       -1 0.38260147E-02 0.27584271E+03</pdfrwt>
<totfact> 0.64743576E+03</totfact>
</mgrwt>
</event>
<event>
 9    1  0.8285222E-001  0.2741410E+03  0.7818608E-02  0.1098933E+00
          1   -1    0    0  501    0  0.00000000000E+00  0.00000000000E+00  0.13098390874E+04  0.13098390874E+04  0.00000000000E+00 0. -1.
         -1   -1    0    0    0  501 -0.00000000000E+00 -0.00000000000E+00 -0.14343995541E+02  0.14343995541E+02  0.00000000000E+00 0. -1.
         35    2    1    2    0    0  0.14210854715E-13  0.00000000000E+00  0.12954950919E+04  0.13241830830E+04  0.27414102961E+03 0.  0.
         25    2    3    3    0    0  0.47387967955E+02 -0.11370058866E+02  0.50341400340E+03  0.52084707265E+03  0.12442313499E+03 0.  0.
         25    2    3    3    0    0 -0.47387967955E+02  0.11370058866E+02  0.79208108849E+03  0.80333601032E+03  0.12482546612E+03 0.  0.
          5    1    4    4  502    0  0.70979790031E+01  0.13634768644E+02  0.44576130816E+03  0.44605103079E+03  0.47000000000E+01 0.  1.
         -5    1    4    4    0  502  0.40289988951E+02 -0.25004827509E+02  0.57652695244E+02  0.74796041856E+02  0.47000000000E+01 0.  1.
          5    1    5    5  503    0  0.40409090898E+02 -0.18529154473E+01  0.16336981468E+03  0.16836898251E+03  0.47000000000E+01 0. -1.
         -5    1    5    5    0  503 -0.87797058853E+02  0.13222974313E+02  0.62871127381E+03  0.63496702781E+03  0.47000000000E+01 0. -1.
<mgrwt>
<rscale>  0 0.27414103E+03</rscale>
<asrwt>0</asrwt>
<pdfrwt beam="1">  1        1 0.20151361E+00 0.27414103E+03</pdfrwt>
<pdfrwt beam="2">  1       -1 0.22067696E-02 0.27414103E+03</pdfrwt>
<totfact> 0.57020105E+03</totfact>
</mgrwt>
</event>
<event>
 9    1  0.8285222E-001  0.2731960E+03  0.7818608E-02  0.1099464E+00
          2   -1    0    0  501    0  0.00000000000E+00  0.00000000000E+00  0.53456893773E+02  0.53456893773E+02  0.00000000000E+00 0.  1.
         -2   -1    0    0    0  501 -0.00000000000E+00 -0.00000000000E+00 -0.34904793283E+03  0.34904793283E+03  0.00000000000E+00 0.  1.
         35    2    1    2    0    0 -0.35527136788E-14 -0.17763568394E-14 -0.29559103906E+03  0.40250482660E+03  0.27319603414E+03 0.  0.
         25    2    3    3    0    0  0.11084597652E+02 -0.15092656114E+02 -0.22485838670E+03  0.25733976504E+03  0.12374087452E+03 0.  0.
         25    2    3    3    0    0 -0.11084597652E+02  0.15092656114E+02 -0.70732652357E+02  0.14516506157E+03  0.12537595629E+03 0.  0.
          5    1    4    4  502    0  0.25954660762E+02 -0.20037725486E+02 -0.12652109930E+01  0.33148840354E+02  0.47000000000E+01 0. -1.
         -5    1    4    4    0  502 -0.14870063110E+02  0.49450693726E+01 -0.22359317570E+03  0.22419092468E+03  0.47000000000E+01 0. -1.
          5    1    5    5  503    0 -0.59793930246E+02  0.17067725094E+02 -0.41328922203E+01  0.62496336951E+02  0.47000000000E+01 0. -1.
         -5    1    5    5    0  503  0.48709332594E+02 -0.19750689807E+01 -0.66599760137E+02  0.82668724615E+02  0.47000000000E+01 0. -1.
<mgrwt>
<rscale>  0 0.27319603E+03</rscale>
<asrwt>0</asrwt>
<pdfrwt beam="1">  1        2 0.82241374E-02 0.27319603E+03</pdfrwt>
<pdfrwt beam="2">  1       -2 0.53699683E-01 0.27319603E+03</pdfrwt>
<totfact> 0.27186578E+03</totfact>
</mgrwt>
</event>
<event>
 9    1  0.8285222E-001  0.2771307E+03  0.7818608E-02  0.1097266E+00
         -2   -1    0    0    0  501 -0.00000000000E+00  0.00000000000E+00  0.38018200255E+02  0.38018200255E+02  0.00000000000E+00 0. -1.
          2   -1    0    0  501    0  0.00000000000E+00 -0.00000000000E+00 -0.50503080967E+03  0.50503080967E+03  0.00000000000E+00 0. -1.
         35    2    1    2    0    0  0.00000000000E+00  0.00000000000E+00 -0.46701260942E+03  0.54304900993E+03  0.27713074501E+03 0.  0.
         25    2    3    3    0    0 -0.53730606391E+02 -0.22949799864E+01 -0.18247404410E+03  0.22745821036E+03  0.12469248451E+03 0.  0.
         25    2    3    3    0    0  0.53730606391E+02  0.22949799864E+01 -0.28453856531E+03  0.31559079957E+03  0.12547156102E+03 0.  0.
          5    1    4    4  502    0  0.38806345489E+02  0.14191576221E+02 -0.51993253467E+02  0.66578687971E+02  0.47000000000E+01 0.  1.
         -5    1    4    4    0  502 -0.92536951881E+02 -0.16486556208E+02 -0.13048079064E+03  0.16087952239E+03  0.47000000000E+01 0.  1.
          5    1    5    5  503    0 -0.90166866545E+01 -0.28105678443E+02 -0.88325052011E+01  0.31166214835E+02  0.47000000000E+01 0. -1.
         -5    1    5    5    0  503  0.62747293046E+02  0.30400658430E+02 -0.27570606011E+03  0.28442458473E+03  0.47000000000E+01 0. -1.
<mgrwt>
<rscale>  0 0.27713075E+03</rscale>
<asrwt>0</asrwt>
<pdfrwt beam="1">  1        2 0.77697049E-01 0.27713075E+03</pdfrwt>
<pdfrwt beam="2">  1       -2 0.58489538E-02 0.27713075E+03</pdfrwt>
<totfact> 0.94248221E+03</totfact>
</mgrwt>
</event>
<event>
 9    1  0.8285222E-001  0.2735095E+03  0.7818608E-02  0.1099288E+00
          2   -1    0    0  501    0  0.00000000000E+00  0.00000000000E+00  0.10037386513E+03  0.10037386513E+03  0.00000000000E+00 0.  1.
         -2   -1    0    0    0  501 -0.00000000000E+00 -0.00000000000E+00 -0.18632200513E+03  0.18632200513E+03  0.00000000000E+00 0.  1.
         35    2    1    2    0    0  0.00000000000E+00  0.00000000000E+00 -0.85948140007E+02  0.28669587026E+03  0.27350948659E+03 0.  0.
         25    2    3    3    0    0 -0.17543854244E+02  0.42884833707E+02 -0.12826370102E+02  0.13441099583E+03  0.12551854144E+03 0.  0.
         25    2    3    3    0    0  0.17543854244E+02 -0.42884833707E+02 -0.73121769905E+02  0.15228487444E+03  0.12528764490E+03 0.  0.
          5    1    4    4  502    0 -0.21108433983E+01  0.82062797825E+02 -0.31575066685E+02  0.88078563129E+02  0.47000000000E+01 0. -1.
         -5    1    4    4    0  502 -0.15433010846E+02 -0.39177964117E+02  0.18748696583E+02  0.46332432698E+02  0.47000000000E+01 0. -1.
          5    1    5    5  503    0  0.51111078877E+02  0.36541295521E+01  0.87510946287E+01  0.52195466316E+02  0.47000000000E+01 0.  1.
         -5    1    5    5    0  503 -0.33567224633E+02 -0.46538963259E+02 -0.81872864534E+02  0.10008940812E+03  0.47000000000E+01 0.  1.
<mgrwt>
<rscale>  0 0.27350949E+03</rscale>
<asrwt>0</asrwt>
<pdfrwt beam="1">  1        2 0.15442133E-01 0.27350949E+03</pdfrwt>
<pdfrwt beam="2">  1       -2 0.28664924E-01 0.27350949E+03</pdfrwt>
<totfact> 0.41575901E+03</totfact>
</mgrwt>
</event>
<event>
 9    1  0.8285222E-001  0.2746628E+03  0.7818608E-02  0.1098640E+00
         -1   -1    0    0    0  501 -0.00000000000E+00  0.00000000000E+00  0.42548466317E+02  0.42548466317E+02  0.00000000000E+00 0.  1.
          1   -1    0    0  501    0  0.00000000000E+00 -0.00000000000E+00 -0.44325731710E+03  0.44325731710E+03  0.00000000000E+00 0.  1.
         35    2    1    2    0    0  0.71054273576E-14 -0.53290705182E-14 -0.40070885078E+03  0.48580578341E+03  0.27466284078E+03 0.  0.
         25    2    3    3    0    0 -0.54221412020E+02  0.14903803258E+02 -0.18623360961E+03  0.23048056155E+03  0.12359711579E+03 0.  0.
         25    2    3    3    0    0  0.54221412020E+02 -0.14903803258E+02 -0.21447524117E+03  0.25532522186E+03  0.12660669402E+03 0.  0.
          5    1    4    4  502    0 -0.69518290110E+02  0.29401038858E+02 -0.45835908977E+02  0.88432088619E+02  0.47000000000E+01 0.  1.
         -5    1    4    4    0  502  0.15296878090E+02 -0.14497235600E+02 -0.14039770063E+03  0.14204847293E+03  0.47000000000E+01 0.  1.
          5    1    5    5  503    0  0.50660800489E+02 -0.66907805404E+02 -0.15317210919E+03  0.17471965019E+03  0.47000000000E+01 0. -1.
         -5    1    5    5    0  503  0.35606115311E+01  0.52004002146E+02 -0.61303131985E+02  0.80605571673E+02  0.47000000000E+01 0. -1.
<mgrwt>
<rscale>  0 0.27466284E+03</rscale>
<asrwt>0</asrwt>
<pdfrwt beam="1">  1        1 0.68193431E-01 0.27466284E+03</pdfrwt>
<pdfrwt beam="2">  1       -1 0.65459181E-02 0.27466284E+03</pdfrwt>
<totfact> 0.61685671E+03</totfact>
</mgrwt>
</event>
<event>
 9    1  0.8285222E-001  0.2744274E+03  0.7818608E-02  0.1098772E+00
         -2   -1    0    0    0  501 -0.00000000000E+00  0.00000000000E+00  0.15845618243E+02  0.15845618243E+02  0.00000000000E+00 0. -1.
          2   -1    0    0  501    0  0.00000000000E+00 -0.00000000000E+00 -0.11881898364E+04  0.11881898364E+04  0.00000000000E+00 0. -1.
         35    2    1    2    0    0  0.71054273576E-14  0.35527136788E-14 -0.11723442181E+04  0.12040354546E+04  0.27442742244E+03 0.  0.
         25    2    3    3    0    0 -0.39233969636E+02 -0.44642497932E+01 -0.75036650783E+03  0.76171294051E+03  0.12488984655E+03 0.  0.
         25    2    3    3    0    0  0.39233969636E+02  0.44642497932E+01 -0.42197771029E+03  0.44232251409E+03  0.12658903820E+03 0.  0.
          5    1    4    4  502    0 -0.63252242947E+02 -0.15100034706E+02 -0.19314306910E+03  0.20385090735E+03  0.47000000000E+01 0. -1.
         -5    1    4    4    0  502  0.24018273312E+02  0.10635784913E+02 -0.55722343872E+03  0.55786203316E+03  0.47000000000E+01 0. -1.
          5    1    5    5  503    0 -0.12310294551E+02  0.49761742708E+02 -0.27841558511E+03  0.28313442465E+03  0.47000000000E+01 0.  1.
         -5    1    5    5    0  503  0.51544264187E+02 -0.45297492915E+02 -0.14356212518E+03  0.15918808944E+03  0.47000000000E+01 0.  1.
<mgrwt>
<rscale>  0 0.27442742E+03</rscale>
<asrwt>0</asrwt>
<pdfrwt beam="1">  1        2 0.18279844E+00 0.27442742E+03</pdfrwt>
<pdfrwt beam="2">  1       -2 0.24377874E-02 0.27442742E+03</pdfrwt>
<totfact> 0.11691335E+04</totfact>
</mgrwt>
</event>
<event>
 9    1  0.8285222E-001  0.2616945E+03  0.7818608E-02  0.1106129E+00
         -1   -1    0    0    0  501 -0.00000000000E+00  0.00000000000E+00  0.60502944178E+02  0.60502944178E+02  0.00000000000E+00 0. -1.
          1   -1    0    0  501    0  0.00000000000E+00 -0.00000000000E+00 -0.28297794819E+03  0.28297794819E+03  0.00000000000E+00 0. -1.
         35    2    1    2    0    0  0.00000000000E+00 -0.71054273576E-14 -0.22247500401E+03  0.34348089236E+03  0.26169447073E+03 0.  0.
         25    2    3    3    0    0  0.18360441632E+02 -0.38403630404E+02 -0.12544128322E+03  0.18218170538E+03  0.12507083430E+03 0.  0.
         25    2    3    3    0    0 -0.18360441632E+02  0.38403630404E+02 -0.97033720784E+02  0.16129918699E+03  0.12161389768E+03 0.  0.
          5    1    4    4  502    0 -0.96400071906E+01 -0.51320508400E+02 -0.13870750466E+03  0.14828548873E+03  0.47000000000E+01 0. -1.
         -5    1    4    4    0  502  0.28000448823E+02  0.12916877997E+02  0.13266221434E+02  0.33896216641E+02  0.47000000000E+01 0. -1.
          5    1    5    5  503    0  0.17305187399E+02  0.67061609867E+02 -0.91678914095E+02  0.11499496649E+03  0.47000000000E+01 0.  1.
         -5    1    5    5    0  503 -0.35665629031E+02 -0.28657979464E+02 -0.53548066890E+01  0.46304220496E+02  0.47000000000E+01 0.  1.
<mgrwt>
<rscale>  0 0.26169447E+03</rscale>
<asrwt>0</asrwt>
<pdfrwt beam="1">  1        1 0.43535070E-01 0.26169447E+03</pdfrwt>
<pdfrwt beam="2">  1       -1 0.93081451E-02 0.26169447E+03</pdfrwt>
<totfact> 0.63680756E+03</totfact>
</mgrwt>
</event>
<event>
 9    1  0.8285222E-001  0.2717822E+03  0.7818608E-02  0.1100264E+00
          1   -1    0    0  501    0  0.00000000000E+00  0.00000000000E+00  0.24902498839E+02  0.24902498839E+02  0.00000000000E+00 0. -1.
         -1   -1    0    0    0  501 -0.00000000000E+00 -0.00000000000E+00 -0.74154794516E+03  0.74154794516E+03  0.00000000000E+00 0. -1.
         35    2    1    2    0    0  0.00000000000E+00  0.35527136788E-14 -0.71664544633E+03  0.76645044400E+03  0.27178224257E+03 0.  0.
         25    2    3    3    0    0 -0.11914366210E+02  0.13350383610E+02 -0.22132551184E+03  0.25525071132E+03  0.12588788097E+03 0.  0.
         25    2    3    3    0    0  0.11914366210E+02 -0.13350383610E+02 -0.49531993449E+03  0.51119973268E+03  0.12515248432E+03 0.  0.
          5    1    4    4  502    0 -0.15500416098E+02 -0.74848531296E+01  0.11624782088E+02  0.21295809076E+02  0.47000000000E+01 0.  1.
         -5    1    4    4    0  502  0.35860498887E+01  0.20835236740E+02 -0.23295029393E+03  0.23395490224E+03  0.47000000000E+01 0.  1.
          5    1    5    5  503    0  0.48858628134E+02  0.30229708287E+02 -0.35453886445E+03  0.35919479007E+03  0.47000000000E+01 0.  1.
         -5    1    5    5    0  503 -0.36944261925E+02 -0.43580091897E+02 -0.14078107003E+03  0.15200494261E+03  0.47000000000E+01 0.  1.
<mgrwt>
<rscale>  0 0.27178224E+03</rscale>
<asrwt>0</asrwt>
<pdfrwt beam="1">  1        1 0.38311540E-02 0.27178224E+03</pdfrwt>
<pdfrwt beam="2">  1       -1 0.11408429E+00 0.27178224E+03</pdfrwt>
<totfact> 0.17984853E+03</totfact>
</mgrwt>
</event>
<event>
 9    1  0.8285222E-001  0.2770969E+03  0.7818608E-02  0.1097285E+00
          2   -1    0    0  501    0  0.00000000000E+00  0.00000000000E+00  0.17109728310E+04  0.17109728310E+04  0.00000000000E+00 0. -1.
         -2   -1    0    0    0  501 -0.00000000000E+00 -0.00000000000E+00 -0.11219153168E+02  0.11219153168E+02  0.00000000000E+00 0. -1.
         35    2    1    2    0    0 -0.35527136788E-14  0.00000000000E+00  0.16997536778E+04  0.17221919841E+04  0.27709685134E+03 0.  0.
         25    2    3    3    0    0  0.24862866391E+02  0.43337519696E+02  0.64779715034E+03  0.66158240967E+03  0.12471501138E+03 0.  0.
         25    2    3    3    0    0 -0.24862866391E+02 -0.43337519696E+02  0.10519565275E+04  0.10606095745E+04  0.12563371774E+03 0.  0.
          5    1    4    4  502    0  0.59350109911E+01 -0.10162097796E+02  0.53571250427E+03  0.53586236089E+03  0.47000000000E+01 0. -1.
         -5    1    4    4    0  502  0.18927855400E+02  0.53499617492E+02  0.11208464607E+03  0.12572004879E+03  0.47000000000E+01 0. -1.
          5    1    5    5  503    0 -0.72518818165E+01  0.81377566357E+01  0.88233259854E+03  0.88241244173E+03  0.47000000000E+01 0. -1.
         -5    1    5    5    0  503 -0.17610984575E+02 -0.51475276332E+02  0.16962392891E+03  0.17819713272E+03  0.47000000000E+01 0. -1.
<mgrwt>
<rscale>  0 0.27709685E+03</rscale>
<asrwt>0</asrwt>
<pdfrwt beam="1">  1        2 0.26322638E+00 0.27709685E+03</pdfrwt>
<pdfrwt beam="2">  1       -2 0.17260249E-02 0.27709685E+03</pdfrwt>
<totfact> 0.10124680E+04</totfact>
</mgrwt>
</event>
<event>
 9    1  0.8285222E-001  0.2748714E+03  0.7818608E-02  0.1098524E+00
          2   -1    0    0  501    0  0.00000000000E+00  0.00000000000E+00  0.68926613580E+03  0.68926613580E+03  0.00000000000E+00 0.  1.
         -2   -1    0    0    0  501 -0.00000000000E+00 -0.00000000000E+00 -0.27403884722E+02  0.27403884722E+02  0.00000000000E+00 0.  1.
         35    2    1    2    0    0 -0.71054273576E-14 -0.71054273576E-14  0.66186225108E+03  0.71667002052E+03  0.27487138613E+03 0.  0.
         25    2    3    3    0    0 -0.17625055045E+02 -0.51437655248E+02  0.39014108291E+03  0.41301969005E+03  0.12417215811E+03 0.  0.
         25    2    3    3    0    0  0.17625055045E+02  0.51437655248E+02  0.27172116817E+03  0.30365033048E+03  0.12415576919E+03 0.  0.
          5    1    4    4  502    0  0.16766385120E+02 -0.58993235769E+02  0.80310187515E+02  0.10115893315E+03  0.47000000000E+01 0.  1.
         -5    1    4    4    0  502 -0.34391440165E+02  0.75555805211E+01  0.30983089539E+03  0.31186075690E+03  0.47000000000E+01 0.  1.
          5    1    5    5  503    0 -0.46731464329E+02  0.40154013483E+02  0.80250092046E+02  0.10128347264E+03  0.47000000000E+01 0.  1.
         -5    1    5    5    0  503  0.64356519375E+02  0.11283641764E+02  0.19147107613E+03  0.20236685784E+03  0.47000000000E+01 0.  1.
<mgrwt>
<rscale>  0 0.27487139E+03</rscale>
<asrwt>0</asrwt>
<pdfrwt beam="1">  1        2 0.10604093E+00 0.27487139E+03</pdfrwt>
<pdfrwt beam="2">  1       -2 0.42159828E-02 0.27487139E+03</pdfrwt>
<totfact> 0.10803963E+04</totfact>
</mgrwt>
</event>
<event>
 9    1  0.8285222E-001  0.2753931E+03  0.7818608E-02  0.1098232E+00
         -2   -1    0    0    0  501 -0.00000000000E+00  0.00000000000E+00  0.78742669989E+02  0.78742669989E+02  0.00000000000E+00 0.  1.
          2   -1    0    0  501    0  0.00000000000E+00 -0.00000000000E+00 -0.24078867545E+03  0.24078867545E+03  0.00000000000E+00 0.  1.
         35    2    1    2    0    0  0.00000000000E+00  0.71054273576E-14 -0.16204600546E+03  0.31953134544E+03  0.27539312415E+03 0.  0.
         25    2    3    3    0    0 -0.33640103327E+02  0.11773927809E+02 -0.27616729344E+02  0.13272004491E+03  0.12482645815E+03 0.  0.
         25    2    3    3    0    0  0.33640103327E+02 -0.11773927809E+02 -0.13442927611E+03  0.18681130052E+03  0.12472750217E+03 0.  0.
          5    1    4    4  502    0 -0.52364848521E+02  0.30341950563E+02  0.31082834255E+02  0.68197829217E+02  0.47000000000E+01 0. -1.
         -5    1    4    4    0  502  0.18724745194E+02 -0.18568022754E+02 -0.58699563599E+02  0.64522215695E+02  0.47000000000E+01 0. -1.
          5    1    5    5  503    0 -0.19379088465E+01 -0.49650328474E+02 -0.12390977117E+03  0.13358380141E+03  0.47000000000E+01 0. -1.
         -5    1    5    5    0  503  0.35578012174E+02  0.37876400665E+02 -0.10519504947E+02  0.53227499114E+02  0.47000000000E+01 0. -1.
<mgrwt>
<rscale>  0 0.27539312E+03</rscale>
<asrwt>0</asrwt>
<pdfrwt beam="1">  1        2 0.37044412E-01 0.27539312E+03</pdfrwt>
<pdfrwt beam="2">  1       -2 0.12114257E-01 0.27539312E+03</pdfrwt>
<totfact> 0.67142905E+03</totfact>
</mgrwt>
</event>
<event>
 9    1  0.8285222E-001  0.2728090E+03  0.7818608E-02  0.1099683E+00
          3   -1    0    0  501    0  0.00000000000E+00  0.00000000000E+00  0.81776174616E+02  0.81776174616E+02  0.00000000000E+00 0. -1.
         -3   -1    0    0    0  501 -0.00000000000E+00 -0.00000000000E+00 -0.22752572354E+03  0.22752572354E+03  0.00000000000E+00 0. -1.
         35    2    1    2    0    0  0.00000000000E+00 -0.14210854715E-13 -0.14574954893E+03  0.30930189816E+03  0.27280896831E+03 0.  0.
         25    2    3    3    0    0 -0.17716916364E+02 -0.41556614225E+02 -0.41829572799E+02  0.13937172946E+03  0.12503569291E+03 0.  0.
         25    2    3    3    0    0  0.17716916364E+02  0.41556614225E+02 -0.10391997613E+03  0.16993016870E+03  0.12663356381E+03 0.  0.
          5    1    4    4  502    0 -0.54355775233E+02 -0.60647455310E+02 -0.51772737627E+02  0.96618686071E+02  0.47000000000E+01 0.  1.
         -5    1    4    4    0  502  0.36638858869E+02  0.19090841085E+02  0.99431648279E+01  0.42753043393E+02  0.47000000000E+01 0.  1.
          5    1    5    5  503    0  0.22311520899E+02 -0.37666891190E+02 -0.70081524814E+01  0.44584782807E+02  0.47000000000E+01 0. -1.
         -5    1    5    5    0  503 -0.45946045349E+01  0.79223505414E+02 -0.96911823647E+02  0.12534538589E+03  0.47000000000E+01 0. -1.
<mgrwt>
<rscale>  0 0.27280897E+03</rscale>
<asrwt>0</asrwt>
<pdfrwt beam="1">  1        3 0.12580950E-01 0.27280897E+03</pdfrwt>
<pdfrwt beam="2">  1       -3 0.35003958E-01 0.27280897E+03</pdfrwt>
<totfact> 0.10228771E+03</totfact>
</mgrwt>
</event>
<event>
 9    1  0.8285222E-001  0.2741436E+03  0.7818608E-02  0.1098931E+00
         -2   -1    0    0    0  501 -0.00000000000E+00  0.00000000000E+00  0.14794656310E+02  0.14794656310E+02  0.00000000000E+00 0.  1.
          2   -1    0    0  501    0  0.00000000000E+00 -0.00000000000E+00 -0.12699640771E+04  0.12699640771E+04  0.00000000000E+00 0.  1.
         35    2    1    2    0    0 -0.14210854715E-13  0.00000000000E+00 -0.12551694208E+04  0.12847587334E+04  0.27414362693E+03 0.  0.
         25    2    3    3    0    0 -0.20604425101E+02  0.47315742059E+02 -0.55511222591E+03  0.57153989254E+03  0.12587670014E+03 0.  0.
         25    2    3    3    0    0  0.20604425101E+02 -0.47315742059E+02 -0.70005719491E+03  0.71321884089E+03  0.12624467148E+03 0.  0.
          5    1    4    4  502    0  0.34438497441E+02  0.12032970275E+02 -0.49358781503E+02  0.61556330228E+02  0.47000000000E+01 0.  1.
         -5    1    4    4    0  502 -0.55042922542E+02  0.35282771784E+02 -0.50575344440E+03  0.50998356232E+03  0.47000000000E+01 0.  1.
          5    1    5    5  503    0  0.71049354315E+02 -0.22499873078E+02 -0.29754827414E+03  0.30677568431E+03  0.47000000000E+01 0. -1.
         -5    1    5    5    0  503 -0.50444929214E+02 -0.24815868981E+02 -0.40250892076E+03  0.40644315658E+03  0.47000000000E+01 0. -1.
<mgrwt>
<rscale>  0 0.27414363E+03</rscale>
<asrwt>0</asrwt>
<pdfrwt beam="1">  1        2 0.19537909E+00 0.27414363E+03</pdfrwt>
<pdfrwt beam="2">  1       -2 0.22761010E-02 0.27414363E+03</pdfrwt>
<totfact> 0.11635590E+04</totfact>
</mgrwt>
</event>
<event>
 9    1  0.8285222E-001  0.2721882E+03  0.7818608E-02  0.1100034E+00
          2   -1    0    0  501    0  0.00000000000E+00  0.00000000000E+00  0.24902618341E+03  0.24902618341E+03  0.00000000000E+00 0. -1.
         -2   -1    0    0    0  501 -0.00000000000E+00 -0.00000000000E+00 -0.74376105820E+02  0.74376105820E+02  0.00000000000E+00 0. -1.
         35    2    1    2    0    0 -0.71054273576E-14  0.53290705182E-14  0.17465007759E+03  0.32340228923E+03  0.27218815381E+03 0.  0.
         25    2    3    3    0    0 -0.47913853228E+02  0.10736710126E+01  0.59152891016E+02  0.14631637850E+03  0.12495010205E+03 0.  0.
         25    2    3    3    0    0  0.47913853228E+02 -0.10736710126E+01  0.11549718657E+03  0.17708591073E+03  0.12539110643E+03 0.  0.
          5    1    4    4  502    0 -0.77622253628E+01 -0.49586278561E+02 -0.10158441458E+02  0.51423098866E+02  0.47000000000E+01 0.  1.
         -5    1    4    4    0  502 -0.40151627865E+02  0.50659949573E+02  0.69311332473E+02  0.94893279637E+02  0.47000000000E+01 0.  1.
          5    1    5    5  503    0  0.88520467770E+02  0.14338910424E+02  0.68673901459E+02  0.11304721274E+03  0.47000000000E+01 0. -1.
         -5    1    5    5    0  503 -0.40606614542E+02 -0.15412581437E+02  0.46823285114E+02  0.64038697988E+02  0.47000000000E+01 0. -1.
<mgrwt>
<rscale>  0 0.27218815E+03</rscale>
<asrwt>0</asrwt>
<pdfrwt beam="1">  1        2 0.38311720E-01 0.27218815E+03</pdfrwt>
<pdfrwt beam="2">  1       -2 0.11442478E-01 0.27218815E+03</pdfrwt>
<totfact> 0.70947941E+03</totfact>
</mgrwt>
</event>
<event>
 9    1  0.8285222E-001  0.3214104E+03  0.7818608E-02  0.1075002E+00
          1   -1    0    0  501    0  0.00000000000E+00  0.00000000000E+00  0.12017087231E+03  0.12017087231E+03  0.00000000000E+00 0.  1.
         -1   -1    0    0    0  501 -0.00000000000E+00 -0.00000000000E+00 -0.21491203343E+03  0.21491203343E+03  0.00000000000E+00 0.  1.
         35    2    1    2    0    0  0.00000000000E+00  0.00000000000E+00 -0.94741161118E+02  0.33508290574E+03  0.32141043248E+03 0.  0.
         25    2    3    3    0    0  0.59397563283E+02 -0.42991206431E+02 -0.12049900818E+03  0.18821439633E+03  0.12461273475E+03 0.  0.
         25    2    3    3    0    0 -0.59397563283E+02  0.42991206431E+02  0.25757847062E+02  0.14686850940E+03  0.12462173973E+03 0.  0.
          5    1    4    4  502    0  0.52964662749E+02 -0.84689934728E+02 -0.69101783794E+02  0.12155158192E+03  0.47000000000E+01 0.  1.
         -5    1    4    4    0  502  0.64329005347E+01  0.41698728297E+02 -0.51397224386E+02  0.66662814412E+02  0.47000000000E+01 0.  1.
          5    1    5    5  503    0 -0.56335191652E+02  0.84583524834E+02  0.10771435431E+02  0.10230415589E+03  0.47000000000E+01 0.  1.
         -5    1    5    5    0  503 -0.30623716313E+01 -0.41592318403E+02  0.14986411631E+02  0.44564353509E+02  0.47000000000E+01 0.  1.
<mgrwt>
<rscale>  0 0.32141043E+03</rscale>
<asrwt>0</asrwt>
<pdfrwt beam="1">  1        1 0.18487827E-01 0.32141043E+03</pdfrwt>
<pdfrwt beam="2">  1       -1 0.33063389E-01 0.32141043E+03</pdfrwt>
<totfact> 0.24473992E+03</totfact>
</mgrwt>
</event>
<event>
 9    1  0.8285222E-001  0.2754782E+03  0.7818608E-02  0.1098185E+00
          2   -1    0    0  501    0  0.00000000000E+00  0.00000000000E+00  0.44119182666E+03  0.44119182666E+03  0.00000000000E+00 0.  1.
         -2   -1    0    0    0  501 -0.00000000000E+00 -0.00000000000E+00 -0.43001836187E+02  0.43001836187E+02  0.00000000000E+00 0.  1.
         35    2    1    2    0    0  0.71054273576E-14 -0.14210854715E-13  0.39818999047E+03  0.48419366285E+03  0.27547819265E+03 0.  0.
         25    2    3    3    0    0 -0.21436768621E+02  0.52980908941E+02  0.21920719798E+03  0.25859600825E+03  0.12471402516E+03 0.  0.
         25    2    3    3    0    0  0.21436768621E+02 -0.52980908941E+02  0.17898279249E+03  0.22559765460E+03  0.12487173416E+03 0.  0.
          5    1    4    4  502    0 -0.60785376790E+02  0.95943918125E+01  0.49850966228E+02  0.79335510458E+02  0.47000000000E+01 0. -1.
         -5    1    4    4    0  502  0.39348608169E+02  0.43386517128E+02  0.16935623175E+03  0.17926049779E+03  0.47000000000E+01 0. -1.
          5    1    5    5  503    0  0.26947415357E+02  0.36196707574E+02  0.41030335500E+02  0.61171425232E+02  0.47000000000E+01 0. -1.
         -5    1    5    5    0  503 -0.55106467366E+01 -0.89177616515E+02  0.13795245699E+03  0.16442622937E+03  0.47000000000E+01 0. -1.
<mgrwt>
<rscale>  0 0.27547819E+03</rscale>
<asrwt>0</asrwt>
<pdfrwt beam="1">  1        2 0.67875663E-01 0.27547819E+03</pdfrwt>
<pdfrwt beam="2">  1       -2 0.66156674E-02 0.27547819E+03</pdfrwt>
<totfact> 0.90574137E+03</totfact>
</mgrwt>
</event>
<event>
 9    1  0.8285222E-001  0.2853425E+03  0.7818608E-02  0.1092806E+00
          2   -1    0    0  501    0  0.00000000000E+00  0.00000000000E+00  0.50172817020E+03  0.50172817020E+03  0.00000000000E+00 0.  1.
         -2   -1    0    0    0  501 -0.00000000000E+00 -0.00000000000E+00 -0.40569947489E+02  0.40569947489E+02  0.00000000000E+00 0.  1.
         35    2    1    2    0    0  0.00000000000E+00  0.00000000000E+00  0.46115822271E+03  0.54229811769E+03  0.28534249959E+03 0.  0.
         25    2    3    3    0    0 -0.47212498196E+02  0.46411555077E+02  0.17906993248E+03  0.22692123663E+03  0.12265461461E+03 0.  0.
         25    2    3    3    0    0  0.47212498196E+02 -0.46411555077E+02  0.28208829023E+03  0.31537688106E+03  0.12452197071E+03 0.  0.
          5    1    4    4  502    0  0.19173402975E+02  0.27459627862E+02  0.14666124519E+03  0.15051000426E+03  0.47000000000E+01 0. -1.
         -5    1    4    4    0  502 -0.66385901171E+02  0.18951927215E+02  0.32408687291E+02  0.76411232364E+02  0.47000000000E+01 0. -1.
          5    1    5    5  503    0  0.10760133948E+02  0.40445342537E+02  0.12764766523E+03  0.13441585715E+03  0.47000000000E+01 0. -1.
         -5    1    5    5    0  503  0.36452364248E+02 -0.86856897614E+02  0.15444062501E+03  0.18096102391E+03  0.47000000000E+01 0. -1.
<mgrwt>
<rscale>  0 0.28534250E+03</rscale>
<asrwt>0</asrwt>
<pdfrwt beam="1">  1        2 0.77188945E-01 0.28534250E+03</pdfrwt>
<pdfrwt beam="2">  1       -2 0.62415307E-02 0.28534250E+03</pdfrwt>
<totfact> 0.86019014E+03</totfact>
</mgrwt>
</event>
<event>
 9    1  0.8285222E-001  0.2693420E+03  0.7818608E-02  0.1101657E+00
         -2   -1    0    0    0  501 -0.00000000000E+00  0.00000000000E+00  0.17115217869E+03  0.17115217869E+03  0.00000000000E+00 0. -1.
          2   -1    0    0  501    0  0.00000000000E+00 -0.00000000000E+00 -0.10596580029E+03  0.10596580029E+03  0.00000000000E+00 0. -1.
         35    2    1    2    0    0  0.00000000000E+00  0.00000000000E+00  0.65186378406E+02  0.27711797898E+03  0.26934199514E+03 0.  0.
         25    2    3    3    0    0 -0.36951637616E+02 -0.32816362000E+02  0.46509407347E+02  0.14052420410E+03  0.12305116752E+03 0.  0.
         25    2    3    3    0    0  0.36951637616E+02  0.32816362000E+02  0.18676971059E+02  0.13659377488E+03  0.12596306185E+03 0.  0.
          5    1    4    4  502    0 -0.16683144733E+02  0.11593632993E+02  0.78993411144E+02  0.81699379731E+02  0.47000000000E+01 0.  1.
         -5    1    4    4    0  502 -0.20268492883E+02 -0.44409994992E+02 -0.32484003797E+02  0.58824824366E+02  0.47000000000E+01 0.  1.
          5    1    5    5  503    0 -0.65383125626E+01 -0.14260945831E+02 -0.43925120641E+02  0.46878890030E+02  0.47000000000E+01 0. -1.
         -5    1    5    5    0  503  0.43489950179E+02  0.47077307831E+02  0.62602091700E+02  0.89714884854E+02  0.47000000000E+01 0. -1.
<mgrwt>
<rscale>  0 0.26934200E+03</rscale>
<asrwt>0</asrwt>
<pdfrwt beam="1">  1        2 0.16302431E-01 0.26934200E+03</pdfrwt>
<pdfrwt beam="2">  1       -2 0.26331104E-01 0.26934200E+03</pdfrwt>
<totfact> 0.45385810E+03</totfact>
</mgrwt>
</event>
<event>
 9    1  0.8285222E-001  0.2740814E+03  0.7818608E-02  0.1098966E+00
         -2   -1    0    0    0  501 -0.00000000000E+00  0.00000000000E+00  0.96002527592E+01  0.96002527592E+01  0.00000000000E+00 0.  1.
          2   -1    0    0  501    0  0.00000000000E+00 -0.00000000000E+00 -0.19562145502E+04  0.19562145502E+04  0.00000000000E+00 0.  1.
         35    2    1    2    0    0  0.00000000000E+00  0.00000000000E+00 -0.19466142975E+04  0.19658148030E+04  0.27408140494E+03 0.  0.
         25    2    3    3    0    0 -0.32052235950E+02 -0.44506963374E+02 -0.97424679650E+03  0.98381164903E+03  0.12538071885E+03 0.  0.
         25    2    3    3    0    0  0.32052235950E+02  0.44506963374E+02 -0.97236750096E+03  0.98200315394E+03  0.12579118340E+03 0.  0.
          5    1    4    4  502    0 -0.59937346088E+01  0.42032739481E+02 -0.42709156206E+03  0.42922251621E+03  0.47000000000E+01 0. -1.
         -5    1    4    4    0  502 -0.26058501341E+02 -0.86539702855E+02 -0.54715523444E+03  0.55458913282E+03  0.47000000000E+01 0. -1.
          5    1    5    5  503    0 -0.21713199792E+02  0.72811095881E+02 -0.56357130821E+03  0.56868939516E+03  0.47000000000E+01 0. -1.
         -5    1    5    5    0  503  0.53765435742E+02 -0.28304132507E+02 -0.40879619275E+03  0.41331375879E+03  0.47000000000E+01 0. -1.
<mgrwt>
<rscale>  0 0.27408140E+03</rscale>
<asrwt>0</asrwt>
<pdfrwt beam="1">  1        2 0.30095644E+00 0.27408140E+03</pdfrwt>
<pdfrwt beam="2">  1       -2 0.14769602E-02 0.27408140E+03</pdfrwt>
<totfact> 0.94541528E+03</totfact>
</mgrwt>
</event>
<event>
 9    1  0.8285222E-001  0.2744428E+03  0.7818608E-02  0.1098763E+00
         -4   -1    0    0    0  501 -0.00000000000E+00  0.00000000000E+00  0.12859000383E+03  0.12859000383E+03  0.00000000000E+00 0.  1.
          4   -1    0    0  501    0  0.00000000000E+00 -0.00000000000E+00 -0.14643217944E+03  0.14643217944E+03  0.00000000000E+00 0.  1.
         35    2    1    2    0    0  0.00000000000E+00  0.00000000000E+00 -0.17842175611E+02  0.27502218327E+03  0.27444281383E+03 0.  0.
         25    2    3    3    0    0 -0.33928053361E+02 -0.27344886249E+02 -0.39866648334E+00  0.13353250010E+03  0.12622168609E+03 0.  0.
         25    2    3    3    0    0  0.33928053361E+02  0.27344886249E+02 -0.17443509128E+02  0.14148968317E+03  0.13347733450E+03 0.  0.
          5    1    4    4  502    0 -0.70727634197E+02 -0.51581152516E+02  0.93416282648E+01  0.88161043282E+02  0.47000000000E+01 0.  1.
         -5    1    4    4    0  502  0.36799580836E+02  0.24236266267E+02 -0.97402947481E+01  0.45371456821E+02  0.47000000000E+01 0.  1.
          5    1    5    5  503    0 -0.11843403156E+02 -0.46574999672E+02 -0.24476183626E+02  0.54135666225E+02  0.47000000000E+01 0.  1.
         -5    1    5    5    0  503  0.45771456517E+02  0.73919885920E+02  0.70326744978E+01  0.87354016947E+02  0.47000000000E+01 0.  1.
<mgrwt>
<rscale>  0 0.27444281E+03</rscale>
<asrwt>0</asrwt>
<pdfrwt beam="1">  1        4 0.22528028E-01 0.27444281E+03</pdfrwt>
<pdfrwt beam="2">  1       -4 0.19783078E-01 0.27444281E+03</pdfrwt>
<totfact> 0.78351569E+02</totfact>
</mgrwt>
</event>
<event>
 9    1  0.8285222E-001  0.2750815E+03  0.7818608E-02  0.1098406E+00
         -3   -1    0    0    0  501 -0.00000000000E+00  0.00000000000E+00  0.67083082557E+02  0.67083082557E+02  0.00000000000E+00 0.  1.
          3   -1    0    0  501    0  0.00000000000E+00 -0.00000000000E+00 -0.28200032631E+03  0.28200032631E+03  0.00000000000E+00 0.  1.
         35    2    1    2    0    0  0.00000000000E+00  0.71054273576E-14 -0.21491724376E+03  0.34908340887E+03  0.27508145100E+03 0.  0.
         25    2    3    3    0    0  0.22486143438E+01 -0.42223338337E+02 -0.75115725972E+02  0.15227393816E+03  0.12552734120E+03 0.  0.
         25    2    3    3    0    0 -0.22486143438E+01  0.42223338337E+02 -0.13980151778E+03  0.19680947071E+03  0.13191526378E+03 0.  0.
          5    1    4    4  502    0 -0.32929316430E+02 -0.72690955915E+02 -0.25084586416E+02  0.83783300413E+02  0.47000000000E+01 0. -1.
         -5    1    4    4    0  502  0.35177930774E+02  0.30467617578E+02 -0.50031139556E+02  0.68490637752E+02  0.47000000000E+01 0. -1.
          5    1    5    5  503    0 -0.41135918997E+02  0.76151721739E+02 -0.89309441207E+02  0.12445687946E+03  0.47000000000E+01 0. -1.
         -5    1    5    5    0  503  0.38887304653E+02 -0.33928383402E+02 -0.50492076577E+02  0.72352591249E+02  0.47000000000E+01 0. -1.
<mgrwt>
<rscale>  0 0.27508145E+03</rscale>
<asrwt>0</asrwt>
<pdfrwt beam="1">  1        3 0.43384665E-01 0.27508145E+03</pdfrwt>
<pdfrwt beam="2">  1       -3 0.10320474E-01 0.27508145E+03</pdfrwt>
<totfact> 0.94336325E+02</totfact>
</mgrwt>
</event>
<event>
 9    1  0.8285222E-001  0.2792920E+03  0.7818608E-02  0.1096076E+00
          2   -1    0    0  501    0  0.00000000000E+00  0.00000000000E+00  0.30103634859E+03  0.30103634859E+03  0.00000000000E+00 0.  1.
         -2   -1    0    0    0  501 -0.00000000000E+00 -0.00000000000E+00 -0.64779584261E+02  0.64779584261E+02  0.00000000000E+00 0.  1.
         35    2    1    2    0    0  0.00000000000E+00  0.00000000000E+00  0.23625676433E+03  0.36581593286E+03  0.27929203003E+03 0.  0.
         25    2    3    3    0    0 -0.40680652608E+02 -0.36917505016E+01  0.37102754258E+02  0.12710978960E+03  0.11450650514E+03 0.  0.
         25    2    3    3    0    0  0.40680652608E+02  0.36917505016E+01  0.19915401008E+03  0.23870614326E+03  0.12509899513E+03 0.  0.
          5    1    4    4  502    0  0.12418614873E+02  0.43448632818E+02 -0.28118772279E+01  0.45519252440E+02  0.47000000000E+01 0.  1.
         -5    1    4    4    0  502 -0.53099267481E+02 -0.47140383320E+02  0.39914631486E+02  0.81590537155E+02  0.47000000000E+01 0.  1.
          5    1    5    5  503    0 -0.12617763858E+02 -0.36842053528E+02  0.13816845556E+02  0.41587739708E+02  0.47000000000E+01 0. -1.
         -5    1    5    5    0  503  0.53298416466E+02  0.40533804029E+02  0.18533716452E+03  0.19711840355E+03  0.47000000000E+01 0. -1.
<mgrwt>
<rscale>  0 0.27929203E+03</rscale>
<asrwt>0</asrwt>
<pdfrwt beam="1">  1        2 0.46313284E-01 0.27929203E+03</pdfrwt>
<pdfrwt beam="2">  1       -2 0.99660901E-02 0.27929203E+03</pdfrwt>
<totfact> 0.72201053E+03</totfact>
</mgrwt>
</event>
<event>
 9    1  0.8285222E-001  0.2727687E+03  0.7818608E-02  0.1099705E+00
         -2   -1    0    0    0  501 -0.00000000000E+00  0.00000000000E+00  0.29621869492E+02  0.29621869492E+02  0.00000000000E+00 0.  1.
          2   -1    0    0  501    0  0.00000000000E+00 -0.00000000000E+00 -0.62793779985E+03  0.62793779985E+03  0.00000000000E+00 0.  1.
         35    2    1    2    0    0 -0.71054273576E-14  0.00000000000E+00 -0.59831593035E+03  0.65755966934E+03  0.27276870463E+03 0.  0.
         25    2    3    3    0    0 -0.40942927317E+02 -0.15192492649E+02 -0.38063596531E+03  0.40290055616E+03  0.12465145379E+03 0.  0.
         25    2    3    3    0    0  0.40942927317E+02  0.15192492649E+02 -0.21767996504E+03  0.25465911318E+03  0.12473797183E+03 0.  0.
          5    1    4    4  502    0  0.58590417208E+01 -0.58541429979E+02 -0.25708421612E+03  0.26377227219E+03  0.47000000000E+01 0. -1.
         -5    1    4    4    0  502 -0.46801969038E+02  0.43348937331E+02 -0.12355174919E+03  0.13912828397E+03  0.47000000000E+01 0. -1.
          5    1    5    5  503    0  0.21465767994E+01 -0.31893798222E+02 -0.17982650226E+03  0.18270600174E+03  0.47000000000E+01 0. -1.
         -5    1    5    5    0  503  0.38796350518E+02  0.47086290870E+02 -0.37853462783E+02  0.71953111441E+02  0.47000000000E+01 0. -1.
<mgrwt>
<rscale>  0 0.27276870E+03</rscale>
<asrwt>0</asrwt>
<pdfrwt beam="1">  1        2 0.96605811E-01 0.27276870E+03</pdfrwt>
<pdfrwt beam="2">  1       -2 0.45572109E-02 0.27276870E+03</pdfrwt>
<totfact> 0.10730131E+04</totfact>
</mgrwt>
</event>
<event>
 9    1  0.8285222E-001  0.2720308E+03  0.7818608E-02  0.1100123E+00
          1   -1    0    0  501    0  0.00000000000E+00  0.00000000000E+00  0.30608053975E+04  0.30608053975E+04  0.00000000000E+00 0. -1.
         -1   -1    0    0    0  501 -0.00000000000E+00 -0.00000000000E+00 -0.60442216237E+01  0.60442216237E+01  0.00000000000E+00 0. -1.
         35    2    1    2    0    0  0.71054273576E-14  0.00000000000E+00  0.30547611759E+04  0.30668496192E+04  0.27203077892E+03 0.  0.
         25    2    3    3    0    0 -0.12229664546E+02 -0.40923663147E+02  0.11579403049E+04  0.11655062963E+04  0.12551839014E+03 0.  0.
         25    2    3    3    0    0  0.12229664546E+02  0.40923663147E+02  0.18968208711E+04  0.19013433228E+04  0.12390602693E+03 0.  0.
          5    1    4    4  502    0 -0.52882851652E+02  0.21226243365E+02  0.43359120882E+03  0.43734491626E+03  0.47000000000E+01 0. -1.
         -5    1    4    4    0  502  0.40653187106E+02 -0.62149906512E+02  0.72434909603E+03  0.72816138007E+03  0.47000000000E+01 0. -1.
          5    1    5    5  503    0 -0.44177215171E+02  0.53204701390E+02  0.80124915648E+03  0.80424167223E+03  0.47000000000E+01 0. -1.
         -5    1    5    5    0  503  0.56406879717E+02 -0.12281038243E+02  0.10955717146E+04  0.10971016506E+04  0.47000000000E+01 0. -1.
<mgrwt>
<rscale>  0 0.27203078E+03</rscale>
<asrwt>0</asrwt>
<pdfrwt beam="1">  1        1 0.47089190E+00 0.27203078E+03</pdfrwt>
<pdfrwt beam="2">  1       -1 0.92988269E-03 0.27203078E+03</pdfrwt>
<totfact> 0.13711849E+03</totfact>
</mgrwt>
</event>
<event>
 9    1  0.8285222E-001  0.2775429E+03  0.7818608E-02  0.1097039E+00
         -2   -1    0    0    0  501 -0.00000000000E+00  0.00000000000E+00  0.12007684160E+02  0.12007684160E+02  0.00000000000E+00 0.  1.
          2   -1    0    0  501    0  0.00000000000E+00 -0.00000000000E+00 -0.16037665462E+04  0.16037665462E+04  0.00000000000E+00 0.  1.
         35    2    1    2    0    0  0.13322676296E-14  0.00000000000E+00 -0.15917588621E+04  0.16157742304E+04  0.27754294914E+03 0.  0.
         25    2    3    3    0    0  0.39004949607E+00  0.20425311428E+02 -0.11210245809E+04  0.11281547931E+04  0.12497912145E+03 0.  0.
         25    2    3    3    0    0 -0.39004949607E+00 -0.20425311428E+02 -0.47073428122E+03  0.48761943731E+03  0.12555718474E+03 0.  0.
          5    1    4    4  502    0 -0.23619276681E+01  0.59565821441E+02 -0.28544287298E+03  0.29163914264E+03  0.47000000000E+01 0. -1.
         -5    1    4    4    0  502  0.27519771642E+01 -0.39140510013E+02 -0.83558170787E+03  0.83651565044E+03  0.47000000000E+01 0. -1.
          5    1    5    5  503    0  0.41793775414E+02  0.36108099606E+02 -0.17584257812E+03  0.18437249469E+03  0.47000000000E+01 0. -1.
         -5    1    5    5    0  503 -0.42183824910E+02 -0.56533411034E+02 -0.29489170311E+03  0.30324694262E+03  0.47000000000E+01 0. -1.
<mgrwt>
<rscale>  0 0.27754295E+03</rscale>
<asrwt>0</asrwt>
<pdfrwt beam="1">  1        2 0.24673319E+00 0.27754295E+03</pdfrwt>
<pdfrwt beam="2">  1       -2 0.18473370E-02 0.27754295E+03</pdfrwt>
<totfact> 0.10440088E+04</totfact>
</mgrwt>
</event>
<event>
 9    1  0.8285222E-001  0.2747466E+03  0.7818608E-02  0.1098593E+00
          2   -1    0    0  501    0  0.00000000000E+00  0.00000000000E+00  0.20146189109E+04  0.20146189109E+04  0.00000000000E+00 0. -1.
         -2   -1    0    0    0  501 -0.00000000000E+00 -0.00000000000E+00 -0.93672405814E+01  0.93672405814E+01  0.00000000000E+00 0. -1.
         35    2    1    2    0    0  0.00000000000E+00 -0.71054273576E-14  0.20052516703E+04  0.20239861515E+04  0.27474657427E+03 0.  0.
         25    2    3    3    0    0 -0.44273539979E+02  0.33508984240E+02  0.92460613234E+03  0.93477761453E+03  0.12581609715E+03 0.  0.
         25    2    3    3    0    0  0.44273539979E+02 -0.33508984240E+02  0.10806455380E+04  0.10892085370E+04  0.12448879405E+03 0.  0.
          5    1    4    4  502    0 -0.19696218079E+02  0.21185193087E+02  0.88930024407E+03  0.88978298900E+03  0.47000000000E+01 0.  1.
         -5    1    4    4    0  502 -0.24577321900E+02  0.12323791153E+02  0.35305888270E+02  0.44994625531E+02  0.47000000000E+01 0.  1.
          5    1    5    5  503    0  0.80680489075E+02 -0.42865960868E+02  0.58415921803E+03  0.59127904912E+03  0.47000000000E+01 0.  1.
         -5    1    5    5    0  503 -0.36406949096E+02  0.93569766272E+01  0.49648631996E+03  0.49792948784E+03  0.47000000000E+01 0.  1.
<mgrwt>
<rscale>  0 0.27474657E+03</rscale>
<asrwt>0</asrwt>
<pdfrwt beam="1">  1        2 0.30994103E+00 0.27474657E+03</pdfrwt>
<pdfrwt beam="2">  1       -2 0.14411155E-02 0.27474657E+03</pdfrwt>
<totfact> 0.91311044E+03</totfact>
</mgrwt>
</event>
<event>
 9    1  0.8285222E-001  0.2774384E+03  0.7818608E-02  0.1097096E+00
         -2   -1    0    0    0  501 -0.00000000000E+00  0.00000000000E+00  0.41198278750E+02  0.41198278750E+02  0.00000000000E+00 0. -1.
          2   -1    0    0  501    0  0.00000000000E+00 -0.00000000000E+00 -0.46708312286E+03  0.46708312286E+03  0.00000000000E+00 0. -1.
         35    2    1    2    0    0  0.00000000000E+00 -0.14210854715E-13 -0.42588484411E+03  0.50828140161E+03  0.27743843061E+03 0.  0.
         25    2    3    3    0    0  0.18275547093E+01 -0.59309363699E+02 -0.18936744990E+03  0.23420784337E+03  0.12438787014E+03 0.  0.
         25    2    3    3    0    0 -0.18275547093E+01  0.59309363699E+02 -0.23651739422E+03  0.27407355824E+03  0.12511953077E+03 0.  0.
          5    1    4    4  502    0 -0.26693595008E+02 -0.90900317023E+02 -0.13530337711E+03  0.16524076224E+03  0.47000000000E+01 0.  1.
         -5    1    4    4    0  502  0.28521149717E+02  0.31590953324E+02 -0.54064072789E+02  0.68967081131E+02  0.47000000000E+01 0.  1.
          5    1    5    5  503    0 -0.23163410370E+02  0.94074115978E+02 -0.15613611495E+03  0.18381256559E+03  0.47000000000E+01 0.  1.
         -5    1    5    5    0  503  0.21335855660E+02 -0.34764752280E+02 -0.80381279263E+02  0.90260992648E+02  0.47000000000E+01 0.  1.
<mgrwt>
<rscale>  0 0.27743843E+03</rscale>
<asrwt>0</asrwt>
<pdfrwt beam="1">  1        2 0.71858941E-01 0.27743843E+03</pdfrwt>
<pdfrwt beam="2">  1       -2 0.63381968E-02 0.27743843E+03</pdfrwt>
<totfact> 0.90885777E+03</totfact>
</mgrwt>
</event>
<event>
 9    1  0.8285222E-001  0.2726548E+03  0.7818608E-02  0.1099770E+00
         -2   -1    0    0    0  501 -0.00000000000E+00  0.00000000000E+00  0.39420530228E+02  0.39420530228E+02  0.00000000000E+00 0.  1.
          2   -1    0    0  501    0  0.00000000000E+00 -0.00000000000E+00 -0.47145877707E+03  0.47145877707E+03  0.00000000000E+00 0.  1.
         35    2    1    2    0    0 -0.71054273576E-14  0.00000000000E+00 -0.43203824684E+03  0.51087930730E+03  0.27265476319E+03 0.  0.
         25    2    3    3    0    0  0.39387759579E+02 -0.15469565757E+02 -0.26835855132E+03  0.29941259610E+03  0.12586058782E+03 0.  0.
         25    2    3    3    0    0 -0.39387759579E+02  0.15469565757E+02 -0.16367969552E+03  0.21146671120E+03  0.12702922557E+03 0.  0.
          5    1    4    4  502    0 -0.25281650677E+02  0.39878846015E+02 -0.10106771776E+03  0.11165239717E+03  0.47000000000E+01 0. -1.
         -5    1    4    4    0  502  0.64669410256E+02 -0.55348411773E+02 -0.16729083356E+03  0.18776019893E+03  0.47000000000E+01 0. -1.
          5    1    5    5  503    0  0.44607559245E+02 -0.86891094046E+01 -0.46308076827E+02  0.65052770452E+02  0.47000000000E+01 0. -1.
         -5    1    5    5    0  503 -0.83995318824E+02  0.24158675162E+02 -0.11737161869E+03  0.14641394075E+03  0.47000000000E+01 0. -1.
<mgrwt>
<rscale>  0 0.27265476E+03</rscale>
<asrwt>0</asrwt>
<pdfrwt beam="1">  1        2 0.72532121E-01 0.27265476E+03</pdfrwt>
<pdfrwt beam="2">  1       -2 0.60646968E-02 0.27265476E+03</pdfrwt>
<totfact> 0.96198362E+03</totfact>
</mgrwt>
</event>
<event>
 9    1  0.8285222E-001  0.2750524E+03  0.7818608E-02  0.1098422E+00
          2   -1    0    0  501    0  0.00000000000E+00  0.00000000000E+00  0.21559045146E+04  0.21559045146E+04  0.00000000000E+00 0. -1.
         -2   -1    0    0    0  501 -0.00000000000E+00 -0.00000000000E+00 -0.87728620676E+01  0.87728620676E+01  0.00000000000E+00 0. -1.
         35    2    1    2    0    0  0.35527136788E-14  0.71054273576E-14  0.21471316525E+04  0.21646773767E+04  0.27505238001E+03 0.  0.
         25    2    3    3    0    0 -0.17948351120E+02  0.51696256844E+02  0.11359160210E+04  0.11439736136E+04  0.12399909522E+03 0.  0.
         25    2    3    3    0    0  0.17948351120E+02 -0.51696256844E+02  0.10112156316E+04  0.10207037631E+04  0.12761062716E+03 0.  0.
          5    1    4    4  502    0  0.26698209551E+02 -0.29681250760E+02  0.25213650411E+03  0.25532073505E+03  0.47000000000E+01 0.  1.
         -5    1    4    4    0  502 -0.44646560671E+02  0.81377507604E+02  0.88377951685E+03  0.88865287853E+03  0.47000000000E+01 0.  1.
          5    1    5    5  503    0 -0.54690727847E+02 -0.28536383516E+02  0.49993837491E+03  0.50375179365E+03  0.47000000000E+01 0. -1.
         -5    1    5    5    0  503  0.72639078967E+02 -0.23159873328E+02  0.51127725668E+03  0.51695196945E+03  0.47000000000E+01 0. -1.
<mgrwt>
<rscale>  0 0.27505238E+03</rscale>
<asrwt>0</asrwt>
<pdfrwt beam="1">  1        2 0.33167719E+00 0.27505238E+03</pdfrwt>
<pdfrwt beam="2">  1       -2 0.13496728E-02 0.27505238E+03</pdfrwt>
<totfact> 0.84624276E+03</totfact>
</mgrwt>
</event>
<event>
 9    1  0.8285222E-001  0.2747990E+03  0.7818608E-02  0.1098564E+00
          1   -1    0    0  501    0  0.00000000000E+00  0.00000000000E+00  0.74728507297E+03  0.74728507297E+03  0.00000000000E+00 0.  1.
         -1   -1    0    0    0  501 -0.00000000000E+00 -0.00000000000E+00 -0.25262940234E+02  0.25262940234E+02  0.00000000000E+00 0.  1.
         35    2    1    2    0    0  0.71054273576E-14  0.00000000000E+00  0.72202213274E+03  0.77254801320E+03  0.27479896751E+03 0.  0.
         25    2    3    3    0    0  0.55428600852E+02  0.41166938661E+01  0.38613500610E+03  0.40895937600E+03  0.12271206675E+03 0.  0.
         25    2    3    3    0    0 -0.55428600852E+02 -0.41166938661E+01  0.33588712664E+03  0.36358863720E+03  0.12762154325E+03 0.  0.
          5    1    4    4  502    0  0.56895354204E+02  0.19645658589E+02  0.38790257877E+03  0.39257296627E+03  0.47000000000E+01 0. -1.
         -5    1    4    4    0  502 -0.14667533518E+01 -0.15528964723E+02 -0.17675726701E+01  0.16386409732E+02  0.47000000000E+01 0. -1.
          5    1    5    5  503    0 -0.21015588124E+02 -0.64572722671E+02  0.19175634791E+03  0.20347942997E+03  0.47000000000E+01 0.  1.
         -5    1    5    5    0  503 -0.34413012728E+02  0.60456028804E+02  0.14413077873E+03  0.16010920723E+03  0.47000000000E+01 0.  1.
<mgrwt>
<rscale>  0 0.27479897E+03</rscale>
<asrwt>0</asrwt>
<pdfrwt beam="1">  1        1 0.11496692E+00 0.27479897E+03</pdfrwt>
<pdfrwt beam="2">  1       -1 0.38866068E-02 0.27479897E+03</pdfrwt>
<totfact> 0.65496532E+03</totfact>
</mgrwt>
</event>
<event>
 9    1  0.8285222E-001  0.2764509E+03  0.7818608E-02  0.1097643E+00
          2   -1    0    0  501    0  0.00000000000E+00  0.00000000000E+00  0.13610964737E+04  0.13610964737E+04  0.00000000000E+00 0. -1.
         -2   -1    0    0    0  501 -0.00000000000E+00 -0.00000000000E+00 -0.14037418186E+02  0.14037418186E+02  0.00000000000E+00 0. -1.
         35    2    1    2    0    0  0.00000000000E+00  0.35527136788E-14  0.13470590555E+04  0.13751338919E+04  0.27645093882E+03 0.  0.
         25    2    3    3    0    0 -0.12880395362E+02  0.64741876665E+01  0.44911666103E+03  0.46840251542E+03  0.13223963681E+03 0.  0.
         25    2    3    3    0    0  0.12880395362E+02 -0.64741876665E+01  0.89794239449E+03  0.90673137647E+03  0.12511365061E+03 0.  0.
          5    1    4    4  502    0 -0.49013707023E+02  0.40219301105E+02  0.36676639812E+03  0.37223596877E+03  0.47000000000E+01 0.  1.
         -5    1    4    4    0  502  0.36133311661E+02 -0.33745113439E+02  0.82350262911E+02  0.96166546648E+02  0.47000000000E+01 0.  1.
          5    1    5    5  503    0 -0.25822132179E+02  0.29917481106E+02  0.10986400443E+03  0.11685044996E+03  0.47000000000E+01 0. -1.
         -5    1    5    5    0  503  0.38702527541E+02 -0.36391668772E+02  0.78807839006E+03  0.78988092651E+03  0.47000000000E+01 0. -1.
<mgrwt>
<rscale>  0 0.27645094E+03</rscale>
<asrwt>0</asrwt>
<pdfrwt beam="1">  1        2 0.20939935E+00 0.27645094E+03</pdfrwt>
<pdfrwt beam="2">  1       -2 0.21596039E-02 0.27645094E+03</pdfrwt>
<totfact> 0.11200233E+04</totfact>
</mgrwt>
</event>
<event>
 9    1  0.8285222E-001  0.2753095E+03  0.7818608E-02  0.1098279E+00
          1   -1    0    0  501    0  0.00000000000E+00  0.00000000000E+00  0.59978688611E+03  0.59978688611E+03  0.00000000000E+00 0. -1.
         -1   -1    0    0    0  501 -0.00000000000E+00 -0.00000000000E+00 -0.31592606309E+02  0.31592606309E+02  0.00000000000E+00 0. -1.
         35    2    1    2    0    0  0.00000000000E+00  0.71054273576E-14  0.56819427980E+03  0.63137949241E+03  0.27530950555E+03 0.  0.
         25    2    3    3    0    0  0.18065286296E+02  0.32462990248E+02  0.18215052016E+03  0.22368863956E+03  0.12440898347E+03 0.  0.
         25    2    3    3    0    0 -0.18065286296E+02 -0.32462990248E+02  0.38604375964E+03  0.40769085286E+03  0.12570539703E+03 0.  0.
          5    1    4    4  502    0 -0.38717947945E+02 -0.26750986976E+02  0.58572447535E+02  0.75282909133E+02  0.47000000000E+01 0. -1.
         -5    1    4    4    0  502  0.56783234240E+02  0.59213977224E+02  0.12357807262E+03  0.14840573042E+03  0.47000000000E+01 0. -1.
          5    1    5    5  503    0  0.46844368682E+02 -0.21683884895E+02  0.26320489186E+03  0.26826011787E+03  0.47000000000E+01 0. -1.
         -5    1    5    5    0  503 -0.64909654978E+02 -0.10779105353E+02  0.12283886778E+03  0.13943073499E+03  0.47000000000E+01 0. -1.
<mgrwt>
<rscale>  0 0.27530951E+03</rscale>
<asrwt>0</asrwt>
<pdfrwt beam="1">  1        1 0.92274897E-01 0.27530951E+03</pdfrwt>
<pdfrwt beam="2">  1       -1 0.48604014E-02 0.27530951E+03</pdfrwt>
<totfact> 0.64391880E+03</totfact>
</mgrwt>
</event>
<event>
 9    1  0.8285222E-001  0.2744127E+03  0.7818608E-02  0.1098780E+00
         -2   -1    0    0    0  501 -0.00000000000E+00  0.00000000000E+00  0.22842613319E+02  0.22842613319E+02  0.00000000000E+00 0. -1.
          2   -1    0    0  501    0  0.00000000000E+00 -0.00000000000E+00 -0.82414286941E+03  0.82414286941E+03  0.00000000000E+00 0. -1.
         35    2    1    2    0    0  0.00000000000E+00 -0.71054273576E-14 -0.80130025609E+03  0.84698548273E+03  0.27441265923E+03 0.  0.
         25    2    3    3    0    0  0.25455262784E+02 -0.75457862301E+01 -0.55266247573E+03  0.56714309958E+03  0.12454145504E+03 0.  0.
         25    2    3    3    0    0 -0.25455262784E+02  0.75457862301E+01 -0.24863778036E+03  0.27984238315E+03  0.12564276459E+03 0.  0.
          5    1    4    4  502    0  0.99964366207E+01  0.52828671900E+02 -0.14502315756E+03  0.15474043928E+03  0.47000000000E+01 0.  1.
         -5    1    4    4    0  502  0.15458826164E+02 -0.60374458130E+02 -0.40763931817E+03  0.41240266030E+03  0.47000000000E+01 0.  1.
          5    1    5    5  503    0 -0.29965066625E+02 -0.37235346197E+02 -0.22241548614E+03  0.22754145710E+03  0.47000000000E+01 0. -1.
         -5    1    5    5    0  503  0.45098038405E+01  0.44781132427E+02 -0.26222294224E+02  0.52300926057E+02  0.47000000000E+01 0. -1.
<mgrwt>
<rscale>  0 0.27441266E+03</rscale>
<asrwt>0</asrwt>
<pdfrwt beam="1">  1        2 0.12679119E+00 0.27441266E+03</pdfrwt>
<pdfrwt beam="2">  1       -2 0.35142488E-02 0.27441266E+03</pdfrwt>
<totfact> 0.11366535E+04</totfact>
</mgrwt>
</event>
<event>
 9    1  0.8285222E-001  0.2741558E+03  0.7818608E-02  0.1098924E+00
          1   -1    0    0  501    0  0.00000000000E+00  0.00000000000E+00  0.66675642389E+03  0.66675642389E+03  0.00000000000E+00 0.  1.
         -1   -1    0    0    0  501 -0.00000000000E+00 -0.00000000000E+00 -0.28181728561E+02  0.28181728561E+02  0.00000000000E+00 0.  1.
         35    2    1    2    0    0 -0.14210854715E-13 -0.35527136788E-14  0.63857469533E+03  0.69493815245E+03  0.27415578458E+03 0.  0.
         25    2    3    3    0    0  0.32232524491E+02  0.29242685304E+02  0.23156576927E+03  0.26669817506E+03  0.12494455091E+03 0.  0.
         25    2    3    3    0    0 -0.32232524491E+02 -0.29242685304E+02  0.40700892605E+03  0.42823997739E+03  0.12585365337E+03 0.  0.
          5    1    4    4  502    0  0.63172135697E+02 -0.20333786143E+02  0.79160127010E+02  0.10340501581E+03  0.47000000000E+01 0.  1.
         -5    1    4    4    0  502 -0.30939611207E+02  0.49576471447E+02  0.15240564226E+03  0.16329315925E+03  0.47000000000E+01 0.  1.
          5    1    5    5  503    0  0.28639869878E+02 -0.54292998728E+02  0.25847959373E+03  0.26570992122E+03  0.47000000000E+01 0.  1.
         -5    1    5    5    0  503 -0.60872394369E+02  0.25050313424E+02  0.14852933232E+03  0.16253005617E+03  0.47000000000E+01 0.  1.
<mgrwt>
<rscale>  0 0.27415578E+03</rscale>
<asrwt>0</asrwt>
<pdfrwt beam="1">  1        1 0.10257790E+00 0.27415578E+03</pdfrwt>
<pdfrwt beam="2">  1       -1 0.43356511E-02 0.27415578E+03</pdfrwt>
<totfact> 0.65770988E+03</totfact>
</mgrwt>
</event>
<event>
 9    1  0.8285222E-001  0.2905565E+03  0.7818608E-02  0.1090059E+00
          1   -1    0    0  501    0  0.00000000000E+00  0.00000000000E+00  0.93550002184E+03  0.93550002184E+03  0.00000000000E+00 0. -1.
         -1   -1    0    0    0  501 -0.00000000000E+00 -0.00000000000E+00 -0.22560948980E+02  0.22560948980E+02  0.00000000000E+00 0. -1.
         35    2    1    2    0    0  0.71054273576E-14  0.71054273576E-14  0.91293907286E+03  0.95806097083E+03  0.29055648858E+03 0.  0.
         25    2    3    3    0    0 -0.39891835885E+02 -0.54332136351E+02  0.55399158255E+03  0.57224283022E+03  0.12653791368E+03 0.  0.
         25    2    3    3    0    0  0.39891835885E+02  0.54332136351E+02  0.35894749032E+03  0.38581814060E+03  0.12437442342E+03 0.  0.
          5    1    4    4  502    0 -0.51355151992E+02 -0.64025779299E+02  0.54986872159E+03  0.55598053296E+03  0.47000000000E+01 0.  1.
         -5    1    4    4    0  502  0.11463316107E+02  0.96936429486E+01  0.41228609610E+01  0.16262297264E+02  0.47000000000E+01 0.  1.
          5    1    5    5  503    0  0.84501423852E+02  0.28890464691E+02  0.21223026173E+03  0.23030180976E+03  0.47000000000E+01 0.  1.
         -5    1    5    5    0  503 -0.44609587967E+02  0.25441671660E+02  0.14671722858E+03  0.15551633084E+03  0.47000000000E+01 0.  1.
<mgrwt>
<rscale>  0 0.29055649E+03</rscale>
<asrwt>0</asrwt>
<pdfrwt beam="1">  1        1 0.14392305E+00 0.29055649E+03</pdfrwt>
<pdfrwt beam="2">  1       -1 0.34709160E-02 0.29055649E+03</pdfrwt>
<totfact> 0.54452812E+03</totfact>
</mgrwt>
</event>
<event>
 9    1  0.8285222E-001  0.2659702E+03  0.7818608E-02  0.1103608E+00
          2   -1    0    0  501    0  0.00000000000E+00  0.00000000000E+00  0.18875522878E+04  0.18875522878E+04  0.00000000000E+00 0. -1.
         -2   -1    0    0    0  501 -0.00000000000E+00 -0.00000000000E+00 -0.93692947799E+01  0.93692947799E+01  0.00000000000E+00 0. -1.
         35    2    1    2    0    0  0.35527136788E-14  0.00000000000E+00  0.18781829930E+04  0.18969215826E+04  0.26597017725E+03 0.  0.
         25    2    3    3    0    0  0.26451221871E+02  0.28340239670E+02  0.77845400178E+03  0.78934759903E+03  0.12480449869E+03 0.  0.
         25    2    3    3    0    0 -0.26451221871E+02 -0.28340239670E+02  0.10997289912E+04  0.11075739835E+04  0.12575149513E+03 0.  0.
          5    1    4    4  502    0 -0.10277663694E+02  0.27666777649E+02  0.39829261479E+02  0.49794989973E+02  0.47000000000E+01 0.  1.
         -5    1    4    4    0  502  0.36728885565E+02  0.67346202064E+00  0.73862474030E+03  0.73955260906E+03  0.47000000000E+01 0.  1.
          5    1    5    5  503    0  0.32032832866E+02 -0.40452231015E+02  0.81319161180E+03  0.81484058127E+03  0.47000000000E+01 0. -1.
         -5    1    5    5    0  503 -0.58484054737E+02  0.12111991345E+02  0.28653737942E+03  0.29273340225E+03  0.47000000000E+01 0. -1.
<mgrwt>
<rscale>  0 0.26597018E+03</rscale>
<asrwt>0</asrwt>
<pdfrwt beam="1">  1        2 0.29039236E+00 0.26597018E+03</pdfrwt>
<pdfrwt beam="2">  1       -2 0.14414315E-02 0.26597018E+03</pdfrwt>
<totfact> 0.10639992E+04</totfact>
</mgrwt>
</event>
<event>
 9    1  0.8285222E-001  0.2729287E+03  0.7818608E-02  0.1099615E+00
          1   -1    0    0  501    0  0.00000000000E+00  0.00000000000E+00  0.78796853452E+02  0.78796853452E+02  0.00000000000E+00 0. -1.
         -1   -1    0    0    0  501 -0.00000000000E+00 -0.00000000000E+00 -0.23633573919E+03  0.23633573919E+03  0.00000000000E+00 0. -1.
         35    2    1    2    0    0 -0.71054273576E-14  0.00000000000E+00 -0.15753888574E+03  0.31513259264E+03  0.27292865446E+03 0.  0.
         25    2    3    3    0    0  0.40412572943E+02  0.12813533145E+02 -0.36067665704E+02  0.13576199430E+03  0.12382681415E+03 0.  0.
         25    2    3    3    0    0 -0.40412572943E+02 -0.12813533145E+02 -0.12147122004E+03  0.17937059835E+03  0.12498476535E+03 0.  0.
          5    1    4    4  502    0  0.19514191515E+02  0.59072561861E+02  0.14398390876E+02  0.64029484576E+02  0.47000000000E+01 0.  1.
         -5    1    4    4    0  502  0.20898381428E+02 -0.46259028716E+02 -0.50466056580E+02  0.71732509721E+02  0.47000000000E+01 0.  1.
          5    1    5    5  503    0  0.21352546957E+02 -0.48088330403E+02 -0.22539636754E+02  0.57432952279E+02  0.47000000000E+01 0.  1.
         -5    1    5    5    0  503 -0.61765119900E+02  0.35274797258E+02 -0.98931583281E+02  0.12193764607E+03  0.47000000000E+01 0.  1.
<mgrwt>
<rscale>  0 0.27292865E+03</rscale>
<asrwt>0</asrwt>
<pdfrwt beam="1">  1        1 0.12122593E-01 0.27292865E+03</pdfrwt>
<pdfrwt beam="2">  1       -1 0.36359345E-01 0.27292865E+03</pdfrwt>
<totfact> 0.36011533E+03</totfact>
</mgrwt>
</event>
<event>
 9    1  0.8285222E-001  0.2793292E+03  0.7818608E-02  0.1096056E+00
          2   -1    0    0  501    0  0.00000000000E+00  0.00000000000E+00  0.53340679532E+03  0.53340679532E+03  0.00000000000E+00 0.  1.
         -2   -1    0    0    0  501 -0.00000000000E+00 -0.00000000000E+00 -0.36569076847E+02  0.36569076847E+02  0.00000000000E+00 0.  1.
         35    2    1    2    0    0  0.17763568394E-14  0.00000000000E+00  0.49683771847E+03  0.56997587217E+03  0.27932915415E+03 0.  0.
         25    2    3    3    0    0 -0.13961435479E+01  0.29818792952E+02  0.34536266254E+03  0.36842271875E+03  0.12477508320E+03 0.  0.
         25    2    3    3    0    0  0.13961435479E+01 -0.29818792952E+02  0.15147505594E+03  0.20155315342E+03  0.12956801863E+03 0.  0.
          5    1    4    4  502    0 -0.19591555095E+02 -0.45285455694E+02  0.16121915764E+03  0.16866626313E+03  0.47000000000E+01 0.  1.
         -5    1    4    4    0  502  0.18195411547E+02  0.75104248646E+02  0.18414350490E+03  0.19975645562E+03  0.47000000000E+01 0.  1.
          5    1    5    5  503    0 -0.15239025153E+02 -0.57255882985E+02  0.15770359930E+03  0.16853183455E+03  0.47000000000E+01 0.  1.
         -5    1    5    5    0  503  0.16635168701E+02  0.27437090033E+02 -0.62285433665E+01  0.33021318866E+02  0.47000000000E+01 0.  1.
<mgrwt>
<rscale>  0 0.27932915E+03</rscale>
<asrwt>0</asrwt>
<pdfrwt beam="1">  1        2 0.82062578E-01 0.27932915E+03</pdfrwt>
<pdfrwt beam="2">  1       -2 0.56260122E-02 0.27932915E+03</pdfrwt>
<totfact> 0.94077874E+03</totfact>
</mgrwt>
</event>
<event>
 9    1  0.8285222E-001  0.2725410E+03  0.7818608E-02  0.1099834E+00
         -1   -1    0    0    0  501 -0.00000000000E+00  0.00000000000E+00  0.22873715151E+02  0.22873715151E+02  0.00000000000E+00 0.  1.
          1   -1    0    0  501    0  0.00000000000E+00 -0.00000000000E+00 -0.81183367550E+03  0.81183367550E+03  0.00000000000E+00 0.  1.
         35    2    1    2    0    0  0.00000000000E+00  0.17763568394E-14 -0.78895996035E+03  0.83470739065E+03  0.27254102255E+03 0.  0.
         25    2    3    3    0    0  0.40448175033E+02 -0.61290626466E+01 -0.27021236437E+03  0.30065482468E+03  0.12531951752E+03 0.  0.
         25    2    3    3    0    0 -0.40448175033E+02  0.61290626466E+01 -0.51874759597E+03  0.53405256597E+03  0.12016428178E+03 0.  0.
          5    1    4    4  502    0  0.51569067821E+02  0.24567192814E+02 -0.44545448821E+02  0.72589963007E+02  0.47000000000E+01 0. -1.
         -5    1    4    4    0  502 -0.11120892789E+02 -0.30696255461E+02 -0.22566691555E+03  0.22806486168E+03  0.47000000000E+01 0. -1.
          5    1    5    5  503    0 -0.34194885526E+02 -0.74319060996E+01 -0.51710745318E+03  0.51831142333E+03  0.47000000000E+01 0. -1.
         -5    1    5    5    0  503 -0.62532895064E+01  0.13560968746E+02 -0.16401427928E+01  0.15741142632E+02  0.47000000000E+01 0. -1.
<mgrwt>
<rscale>  0 0.27254102E+03</rscale>
<asrwt>0</asrwt>
<pdfrwt beam="1">  1        1 0.12489748E+00 0.27254102E+03</pdfrwt>
<pdfrwt beam="2">  1       -1 0.35190333E-02 0.27254102E+03</pdfrwt>
<totfact> 0.66891552E+03</totfact>
</mgrwt>
</event>
<event>
 9    1  0.8285222E-001  0.2778798E+03  0.7818608E-02  0.1096853E+00
          1   -1    0    0  501    0  0.00000000000E+00  0.00000000000E+00  0.46261547118E+03  0.46261547118E+03  0.00000000000E+00 0.  1.
         -1   -1    0    0    0  501 -0.00000000000E+00 -0.00000000000E+00 -0.41728607152E+02  0.41728607152E+02  0.00000000000E+00 0.  1.
         35    2    1    2    0    0  0.00000000000E+00  0.71054273576E-14  0.42088686403E+03  0.50434407833E+03  0.27787982481E+03 0.  0.
         25    2    3    3    0    0 -0.38226150893E+02  0.39343141993E+02  0.26239983418E+03  0.29540762931E+03  0.12410831175E+03 0.  0.
         25    2    3    3    0    0  0.38226150893E+02 -0.39343141993E+02  0.15848702985E+03  0.20893644902E+03  0.12460810433E+03 0.  0.
          5    1    4    4  502    0  0.38310272815E+02 -0.39385118657E+01  0.37813380399E+02  0.54176845756E+02  0.47000000000E+01 0. -1.
         -5    1    4    4    0  502 -0.76536423708E+02  0.43281653859E+02  0.22458645378E+03  0.24123078356E+03  0.47000000000E+01 0. -1.
          5    1    5    5  503    0  0.25900432567E+02 -0.81835480835E+02  0.13083930605E+03  0.15655316138E+03  0.47000000000E+01 0.  1.
         -5    1    5    5    0  503  0.12325718326E+02  0.42492338842E+02  0.27647723804E+02  0.52383287641E+02  0.47000000000E+01 0.  1.
<mgrwt>
<rscale>  0 0.27787982E+03</rscale>
<asrwt>0</asrwt>
<pdfrwt beam="1">  1        1 0.71171607E-01 0.27787982E+03</pdfrwt>
<pdfrwt beam="2">  1       -1 0.64197860E-02 0.27787982E+03</pdfrwt>
<totfact> 0.60103338E+03</totfact>
</mgrwt>
</event>
<event>
 9    1  0.8285222E-001  0.2705889E+03  0.7818608E-02  0.1100943E+00
         -1   -1    0    0    0  501 -0.00000000000E+00  0.00000000000E+00  0.60577948577E+02  0.60577948577E+02  0.00000000000E+00 0.  1.
          1   -1    0    0  501    0  0.00000000000E+00 -0.00000000000E+00 -0.30216576767E+03  0.30216576767E+03  0.00000000000E+00 0.  1.
         35    2    1    2    0    0  0.00000000000E+00  0.00000000000E+00 -0.24158781909E+03  0.36274371625E+03  0.27058885665E+03 0.  0.
         25    2    3    3    0    0 -0.28052118603E+02  0.53904728067E+02 -0.13275915035E+03  0.19214083704E+03  0.12490183422E+03 0.  0.
         25    2    3    3    0    0  0.28052118603E+02 -0.53904728067E+02 -0.10882866875E+03  0.17060287921E+03  0.11648614590E+03 0.  0.
          5    1    4    4  502    0 -0.59310859013E+02 -0.16483462304E+02 -0.59453848341E+02  0.85710749669E+02  0.47000000000E+01 0.  1.
         -5    1    4    4    0  502  0.31258740410E+02  0.70388190371E+02 -0.73305302006E+02  0.10643008737E+03  0.47000000000E+01 0.  1.
          5    1    5    5  503    0 -0.21299914126E+02 -0.63204580487E+02 -0.98605756207E+02  0.11913727584E+03  0.47000000000E+01 0. -1.
         -5    1    5    5    0  503  0.49352032729E+02  0.92998524199E+01 -0.10222912540E+02  0.51465603371E+02  0.47000000000E+01 0. -1.
<mgrwt>
<rscale>  0 0.27058886E+03</rscale>
<asrwt>0</asrwt>
<pdfrwt beam="1">  1        1 0.46487042E-01 0.27058886E+03</pdfrwt>
<pdfrwt beam="2">  1       -1 0.93196843E-02 0.27058886E+03</pdfrwt>
<totfact> 0.58602624E+03</totfact>
</mgrwt>
</event>
<event>
 9    1  0.8285222E-001  0.2713119E+03  0.7818608E-02  0.1100531E+00
         -2   -1    0    0    0  501 -0.00000000000E+00  0.00000000000E+00  0.69651040684E+02  0.69651040684E+02  0.00000000000E+00 0.  1.
          2   -1    0    0  501    0  0.00000000000E+00 -0.00000000000E+00 -0.26421048969E+03  0.26421048969E+03  0.00000000000E+00 0.  1.
         35    2    1    2    0    0 -0.71054273576E-14  0.00000000000E+00 -0.19455944900E+03  0.33386153037E+03  0.27131189112E+03 0.  0.
         25    2    3    3    0    0  0.51880791355E+02 -0.62321276135E+00 -0.10403840084E+03  0.17110641480E+03  0.12554445998E+03 0.  0.
         25    2    3    3    0    0 -0.51880791355E+02  0.62321276135E+00 -0.90521048163E+02  0.16275511557E+03  0.12491261977E+03 0.  0.
          5    1    4    4  502    0  0.28730448123E+02 -0.43748808131E+02  0.36975002136E+01  0.52679771925E+02  0.47000000000E+01 0.  1.
         -5    1    4    4    0  502  0.23150343232E+02  0.43125595370E+02 -0.10773590105E+03  0.11842664288E+03  0.47000000000E+01 0.  1.
          5    1    5    5  503    0 -0.12078249332E+02  0.60057960102E+02 -0.27530812952E+02  0.67326654011E+02  0.47000000000E+01 0. -1.
         -5    1    5    5    0  503 -0.39802542024E+02 -0.59434747341E+02 -0.62990235211E+02  0.95428461556E+02  0.47000000000E+01 0. -1.
<mgrwt>
<rscale>  0 0.27131189E+03</rscale>
<asrwt>0</asrwt>
<pdfrwt beam="1">  1        2 0.40647768E-01 0.27131189E+03</pdfrwt>
<pdfrwt beam="2">  1       -2 0.10715545E-01 0.27131189E+03</pdfrwt>
<totfact> 0.73934388E+03</totfact>
</mgrwt>
</event>
<event>
 9    1  0.8285222E-001  0.2707547E+03  0.7818608E-02  0.1100848E+00
         -4   -1    0    0    0  501 -0.00000000000E+00  0.00000000000E+00  0.34628293096E+02  0.34628293096E+02  0.00000000000E+00 0. -1.
          4   -1    0    0  501    0  0.00000000000E+00 -0.00000000000E+00 -0.52925014506E+03  0.52925014506E+03  0.00000000000E+00 0. -1.
         35    2    1    2    0    0  0.71054273576E-14 -0.71054273576E-14 -0.49462185196E+03  0.56387843816E+03  0.27075471663E+03 0.  0.
         25    2    3    3    0    0  0.29974827447E+02 -0.41459054006E+02 -0.30935675487E+03  0.33746476674E+03  0.12475385191E+03 0.  0.
         25    2    3    3    0    0 -0.29974827447E+02  0.41459054006E+02 -0.18526509709E+03  0.22641367142E+03  0.11967727840E+03 0.  0.
          5    1    4    4  502    0 -0.14146498675E+02  0.25636490447E+01  0.57776425278E+01  0.16191568002E+02  0.47000000000E+01 0.  1.
         -5    1    4    4    0  502  0.44121326122E+02 -0.44022703050E+02 -0.31513439740E+03  0.32127319874E+03  0.47000000000E+01 0.  1.
          5    1    5    5  503    0  0.41477864784E+02  0.32393378911E+02 -0.11055266293E+03  0.12253050863E+03  0.47000000000E+01 0.  1.
         -5    1    5    5    0  503 -0.71452692230E+02  0.90656750952E+01 -0.74712434157E+02  0.10388316278E+03  0.47000000000E+01 0.  1.
<mgrwt>
<rscale>  0 0.27075472E+03</rscale>
<asrwt>0</asrwt>
<pdfrwt beam="1">  1        4 0.81423093E-01 0.27075472E+03</pdfrwt>
<pdfrwt beam="2">  1       -4 0.53274301E-02 0.27075472E+03</pdfrwt>
<totfact> 0.55010125E+02</totfact>
</mgrwt>
</event>
<event>
 9    1  0.8285222E-001  0.2608600E+03  0.7818608E-02  0.1106628E+00
          1   -1    0    0  501    0  0.00000000000E+00  0.00000000000E+00  0.10714525632E+04  0.10714525632E+04  0.00000000000E+00 0.  1.
         -1   -1    0    0    0  501 -0.00000000000E+00 -0.00000000000E+00 -0.15877498996E+02  0.15877498996E+02  0.00000000000E+00 0.  1.
         35    2    1    2    0    0  0.00000000000E+00 -0.44408920985E-15  0.10555750642E+04  0.10873300622E+04  0.26086001607E+03 0.  0.
         25    2    3    3    0    0  0.38346699184E+02 -0.13155515699E+01  0.57145034365E+03  0.58584673902E+03  0.12324246973E+03 0.  0.
         25    2    3    3    0    0 -0.38346699184E+02  0.13155515699E+01  0.48412472055E+03  0.50148332317E+03  0.12504630487E+03 0.  0.
          5    1    4    4  502    0  0.61381918363E+02  0.32188546594E+02  0.19173685535E+03  0.20393370034E+03  0.47000000000E+01 0. -1.
         -5    1    4    4    0  502 -0.23035219179E+02 -0.33504098164E+02  0.37971348830E+03  0.38191303868E+03  0.47000000000E+01 0. -1.
          5    1    5    5  503    0 -0.73921915545E+01  0.47378068332E+01 -0.51391214761E+01  0.11206778266E+02  0.47000000000E+01 0.  1.
         -5    1    5    5    0  503 -0.30954507629E+02 -0.34222552633E+01  0.48926384203E+03  0.49027654491E+03  0.47000000000E+01 0.  1.
<mgrwt>
<rscale>  0 0.26086002E+03</rscale>
<asrwt>0</asrwt>
<pdfrwt beam="1">  1        1 0.16483880E+00 0.26086002E+03</pdfrwt>
<pdfrwt beam="2">  1       -1 0.24426930E-02 0.26086002E+03</pdfrwt>
<totfact> 0.72164433E+03</totfact>
</mgrwt>
</event>
<event>
 9    1  0.8285222E-001  0.2750708E+03  0.7818608E-02  0.1098412E+00
          2   -1    0    0  501    0  0.00000000000E+00  0.00000000000E+00  0.64798866231E+03  0.64798866231E+03  0.00000000000E+00 0.  1.
         -2   -1    0    0    0  501 -0.00000000000E+00 -0.00000000000E+00 -0.29191838240E+02  0.29191838240E+02  0.00000000000E+00 0.  1.
         35    2    1    2    0    0 -0.71054273576E-14  0.00000000000E+00  0.61879682407E+03  0.67718050055E+03  0.27507075607E+03 0.  0.
         25    2    3    3    0    0  0.51990220431E+02  0.15598799294E+02  0.35221515496E+03  0.37753689781E+03  0.12462860129E+03 0.  0.
         25    2    3    3    0    0 -0.51990220431E+02 -0.15598799294E+02  0.26658166911E+03  0.29964360275E+03  0.12559536935E+03 0.  0.
          5    1    4    4  502    0  0.58850950544E+02  0.56894494100E+02  0.29686953604E+03  0.30798381332E+03  0.47000000000E+01 0. -1.
         -5    1    4    4    0  502 -0.68607301133E+01 -0.41295694806E+02  0.55345618921E+02  0.69553084482E+02  0.47000000000E+01 0. -1.
          5    1    5    5  503    0 -0.85017353055E+02  0.20289395133E+02  0.16133985362E+03  0.18355448304E+03  0.47000000000E+01 0.  1.
         -5    1    5    5    0  503  0.33027132624E+02 -0.35888194427E+02  0.10524181549E+03  0.11608911971E+03  0.47000000000E+01 0.  1.
<mgrwt>
<rscale>  0 0.27507076E+03</rscale>
<asrwt>0</asrwt>
<pdfrwt beam="1">  1        2 0.99690553E-01 0.27507076E+03</pdfrwt>
<pdfrwt beam="2">  1       -2 0.44910525E-02 0.27507076E+03</pdfrwt>
<totfact> 0.10573931E+04</totfact>
</mgrwt>
</event>
<event>
 9    1  0.8285222E-001  0.2769039E+03  0.7818608E-02  0.1097392E+00
          3   -1    0    0  501    0  0.00000000000E+00  0.00000000000E+00  0.26971329556E+02  0.26971329556E+02  0.00000000000E+00 0.  1.
         -3   -1    0    0    0  501 -0.00000000000E+00 -0.00000000000E+00 -0.71071538694E+03  0.71071538694E+03  0.00000000000E+00 0.  1.
         35    2    1    2    0    0  0.35527136788E-14 -0.14210854715E-13 -0.68374405739E+03  0.73768671650E+03  0.27690387445E+03 0.  0.
         25    2    3    3    0    0  0.16999606270E+02  0.53622271634E+02 -0.29717714919E+03  0.32733221292E+03  0.12517102296E+03 0.  0.
         25    2    3    3    0    0 -0.16999606270E+02 -0.53622271634E+02 -0.38656690820E+03  0.41035450358E+03  0.12566825161E+03 0.  0.
          5    1    4    4  502    0  0.59685777577E+02  0.60257281950E+02 -0.24568666370E+03  0.25995645557E+03  0.47000000000E+01 0.  1.
         -5    1    4    4    0  502 -0.42686171307E+02 -0.66350103156E+01 -0.51490485487E+02  0.67375757349E+02  0.47000000000E+01 0.  1.
          5    1    5    5  503    0 -0.27458614542E+02 -0.86382919152E+02 -0.34215134877E+03  0.35398533825E+03  0.47000000000E+01 0. -1.
         -5    1    5    5    0  503  0.10459008272E+02  0.32760647518E+02 -0.44415559432E+02  0.56369165326E+02  0.47000000000E+01 0. -1.
<mgrwt>
<rscale>  0 0.27690387E+03</rscale>
<asrwt>0</asrwt>
<pdfrwt beam="1">  1        3 0.41494364E-02 0.27690387E+03</pdfrwt>
<pdfrwt beam="2">  1       -3 0.10934080E+00 0.27690387E+03</pdfrwt>
<totfact> 0.57244006E+02</totfact>
</mgrwt>
</event>
<event>
 9    1  0.8285222E-001  0.2816646E+03  0.7818608E-02  0.1094783E+00
          2   -1    0    0  501    0  0.00000000000E+00  0.00000000000E+00  0.11283899214E+03  0.11283899214E+03  0.00000000000E+00 0. -1.
         -2   -1    0    0    0  501 -0.00000000000E+00 -0.00000000000E+00 -0.17577018610E+03  0.17577018610E+03  0.00000000000E+00 0. -1.
         35    2    1    2    0    0  0.00000000000E+00  0.00000000000E+00 -0.62931193951E+02  0.28860917824E+03  0.28166455686E+03 0.  0.
         25    2    3    3    0    0 -0.49840830535E+02 -0.27087635452E+02 -0.63948682507E+02  0.15126897751E+03  0.12479992460E+03 0.  0.
         25    2    3    3    0    0  0.49840830535E+02  0.27087635452E+02  0.10174885557E+01  0.13734020073E+03  0.12507376652E+03 0.  0.
          5    1    4    4  502    0 -0.17088769518E+02 -0.66771943476E+02 -0.71067903676E+02  0.99112337336E+02  0.47000000000E+01 0.  1.
         -5    1    4    4    0  502 -0.32752061016E+02  0.39684308025E+02  0.71192211691E+01  0.52156640174E+02  0.47000000000E+01 0.  1.
          5    1    5    5  503    0  0.13085213401E+02  0.20823073615E+02 -0.60373689050E+02  0.65359739397E+02  0.47000000000E+01 0.  1.
         -5    1    5    5    0  503  0.36755617134E+02  0.62645618362E+01  0.61391177606E+02  0.71980461333E+02  0.47000000000E+01 0.  1.
<mgrwt>
<rscale>  0 0.28166456E+03</rscale>
<asrwt>0</asrwt>
<pdfrwt beam="1">  1        2 0.17359845E-01 0.28166456E+03</pdfrwt>
<pdfrwt beam="2">  1       -2 0.27041567E-01 0.28166456E+03</pdfrwt>
<totfact> 0.40275381E+03</totfact>
</mgrwt>
</event>
<event>
 9    1  0.8285222E-001  0.2739950E+03  0.7818608E-02  0.1099015E+00
         -2   -1    0    0    0  501 -0.00000000000E+00  0.00000000000E+00  0.40353652578E+02  0.40353652578E+02  0.00000000000E+00 0. -1.
          2   -1    0    0  501    0  0.00000000000E+00 -0.00000000000E+00 -0.46509577121E+03  0.46509577121E+03  0.00000000000E+00 0. -1.
         35    2    1    2    0    0  0.00000000000E+00  0.17763568394E-14 -0.42474211864E+03  0.50544942379E+03  0.27399498657E+03 0.  0.
         25    2    3    3    0    0 -0.55491044742E+02 -0.71571686824E+01 -0.20013674714E+03  0.24260538175E+03  0.12518854815E+03 0.  0.
         25    2    3    3    0    0  0.55491044742E+02  0.71571686824E+01 -0.22460537150E+03  0.26284404204E+03  0.12453488034E+03 0.  0.
          5    1    4    4  502    0  0.24820746613E+02  0.12581244733E+02 -0.25247512740E+01  0.28334105782E+02  0.47000000000E+01 0.  1.
         -5    1    4    4    0  502 -0.80311791355E+02 -0.19738413416E+02 -0.19761199587E+03  0.21427127597E+03  0.47000000000E+01 0.  1.
          5    1    5    5  503    0  0.66687257673E+02 -0.21276377320E+01 -0.40682599932E+02  0.78287170823E+02  0.47000000000E+01 0. -1.
         -5    1    5    5    0  503 -0.11196212931E+02  0.92848064144E+01 -0.18392277156E+03  0.18455687122E+03  0.47000000000E+01 0. -1.
<mgrwt>
<rscale>  0 0.27399499E+03</rscale>
<asrwt>0</asrwt>
<pdfrwt beam="1">  1        2 0.71553199E-01 0.27399499E+03</pdfrwt>
<pdfrwt beam="2">  1       -2 0.62082540E-02 0.27399499E+03</pdfrwt>
<totfact> 0.94227380E+03</totfact>
</mgrwt>
</event>
<event>
 9    1  0.8285222E-001  0.2927923E+03  0.7818608E-02  0.1088900E+00
         -1   -1    0    0    0  501 -0.00000000000E+00  0.00000000000E+00  0.29996616107E+02  0.29996616107E+02  0.00000000000E+00 0.  1.
          1   -1    0    0  501    0  0.00000000000E+00 -0.00000000000E+00 -0.71447478023E+03  0.71447478023E+03  0.00000000000E+00 0.  1.
         35    2    1    2    0    0 -0.71054273576E-14  0.71054273576E-14 -0.68447816412E+03  0.74447139633E+03  0.29279225195E+03 0.  0.
         25    2    3    3    0    0  0.44058208598E+02 -0.39814434071E+02 -0.22840660305E+03  0.26773256702E+03  0.12643115210E+03 0.  0.
         25    2    3    3    0    0 -0.44058208598E+02  0.39814434071E+02 -0.45607156107E+03  0.47673882932E+03  0.12550827723E+03 0.  0.
          5    1    4    4  502    0  0.63363775800E+02  0.27468781212E+02 -0.12228625545E+03  0.14051875426E+03  0.47000000000E+01 0. -1.
         -5    1    4    4    0  502 -0.19305567203E+02 -0.67283215284E+02 -0.10612034759E+03  0.12721381276E+03  0.47000000000E+01 0. -1.
          5    1    5    5  503    0 -0.82961033746E+02  0.11076326785E+02 -0.21390394413E+03  0.22974378218E+03  0.47000000000E+01 0. -1.
         -5    1    5    5    0  503  0.38902825148E+02  0.28738107286E+02 -0.24216761694E+03  0.24699504714E+03  0.47000000000E+01 0. -1.
<mgrwt>
<rscale>  0 0.29279225E+03</rscale>
<asrwt>0</asrwt>
<pdfrwt beam="1">  1        1 0.10991919E+00 0.29279225E+03</pdfrwt>
<pdfrwt beam="2">  1       -1 0.46148643E-02 0.29279225E+03</pdfrwt>
<totfact> 0.54273471E+03</totfact>
</mgrwt>
</event>
<event>
 9    1  0.8285222E-001  0.2717953E+03  0.7818608E-02  0.1100257E+00
          2   -1    0    0  501    0  0.00000000000E+00  0.00000000000E+00  0.23795920600E+04  0.23795920600E+04  0.00000000000E+00 0.  1.
         -2   -1    0    0    0  501 -0.00000000000E+00 -0.00000000000E+00 -0.77610634209E+01  0.77610634209E+01  0.00000000000E+00 0.  1.
         35    2    1    2    0    0 -0.35527136788E-14  0.00000000000E+00  0.23718309966E+04  0.23873531234E+04  0.27179525304E+03 0.  0.
         25    2    3    3    0    0 -0.68291000969E+01 -0.45100309092E+02  0.14015842337E+04  0.14079078299E+04  0.12524144192E+03 0.  0.
         25    2    3    3    0    0  0.68291000969E+01  0.45100309092E+02  0.97024676286E+03  0.97944529352E+03  0.12591118968E+03 0.  0.
          5    1    4    4  502    0  0.22626332796E+02 -0.81609563888E+02  0.80187744011E+03  0.80635078645E+03  0.47000000000E+01 0. -1.
         -5    1    4    4    0  502 -0.29455432892E+02  0.36509254797E+02  0.59970679364E+03  0.60155704347E+03  0.47000000000E+01 0. -1.
          5    1    5    5  503    0  0.38535584156E+02  0.36514207699E+02  0.90185686951E+03  0.90343023067E+03  0.47000000000E+01 0. -1.
         -5    1    5    5    0  503 -0.31706484059E+02  0.85861013929E+01  0.68389893345E+02  0.76015062851E+02  0.47000000000E+01 0. -1.
<mgrwt>
<rscale>  0 0.27179525E+03</rscale>
<asrwt>0</asrwt>
<pdfrwt beam="1">  1        2 0.36609050E+00 0.27179525E+03</pdfrwt>
<pdfrwt beam="2">  1       -2 0.11940117E-02 0.27179525E+03</pdfrwt>
<totfact> 0.76811588E+03</totfact>
</mgrwt>
</event>
<event>
 9    1  0.8285222E-001  0.2775658E+03  0.7818608E-02  0.1097026E+00
         -2   -1    0    0    0  501 -0.00000000000E+00  0.00000000000E+00  0.12835475463E+02  0.12835475463E+02  0.00000000000E+00 0.  1.
          2   -1    0    0  501    0  0.00000000000E+00 -0.00000000000E+00 -0.15005831524E+04  0.15005831524E+04  0.00000000000E+00 0.  1.
         35    2    1    2    0    0  0.14210854715E-13  0.00000000000E+00 -0.14877476769E+04  0.15134186278E+04  0.27756583531E+03 0.  0.
         25    2    3    3    0    0  0.47268511291E+02  0.27026540444E+02 -0.88437323155E+03  0.89485824646E+03  0.12526181588E+03 0.  0.
         25    2    3    3    0    0 -0.47268511291E+02 -0.27026540444E+02 -0.60337444535E+03  0.61856038137E+03  0.12486584022E+03 0.  0.
          5    1    4    4  502    0 -0.29674456764E+02  0.36269492525E+02 -0.52955387497E+03  0.53164409708E+03  0.47000000000E+01 0.  1.
         -5    1    4    4    0  502  0.76942968055E+02 -0.92429520815E+01 -0.35481935659E+03  0.36321414937E+03  0.47000000000E+01 0.  1.
          5    1    5    5  503    0 -0.40780923457E+02 -0.30090212969E+02 -0.60708519041E+03  0.60921508768E+03  0.47000000000E+01 0. -1.
         -5    1    5    5    0  503 -0.64875878336E+01  0.30636725246E+01  0.37107450660E+01  0.93452936916E+01  0.47000000000E+01 0. -1.
<mgrwt>
<rscale>  0 0.27756584E+03</rscale>
<asrwt>0</asrwt>
<pdfrwt beam="1">  1        2 0.23085886E+00 0.27756584E+03</pdfrwt>
<pdfrwt beam="2">  1       -2 0.19746892E-02 0.27756584E+03</pdfrwt>
<totfact> 0.10742151E+04</totfact>
</mgrwt>
</event>
<event>
 9    1  0.8285222E-001  0.2738277E+03  0.7818608E-02  0.1099109E+00
         -3   -1    0    0    0  501 -0.00000000000E+00  0.00000000000E+00  0.33832394771E+03  0.33832394771E+03  0.00000000000E+00 0. -1.
          3   -1    0    0  501    0  0.00000000000E+00 -0.00000000000E+00 -0.55406686193E+02  0.55406686193E+02  0.00000000000E+00 0. -1.
         35    2    1    2    0    0  0.00000000000E+00  0.00000000000E+00  0.28291726152E+03  0.39373063390E+03  0.27382774733E+03 0.  0.
         25    2    3    3    0    0 -0.40877710393E+02  0.35501466542E+02  0.16349962193E+03  0.21289399560E+03  0.12514146259E+03 0.  0.
         25    2    3    3    0    0  0.40877710393E+02 -0.35501466542E+02  0.11941763959E+03  0.18083663830E+03  0.12453905321E+03 0.  0.
          5    1    4    4  502    0 -0.79850190910E+02  0.13246516069E+02  0.14057418382E+03  0.16227974098E+03  0.47000000000E+01 0. -1.
         -5    1    4    4    0  502  0.38972480517E+02  0.22254950473E+02  0.22925438105E+02  0.50614254617E+02  0.47000000000E+01 0. -1.
          5    1    5    5  503    0  0.73391648899E+02  0.66728768232E+01  0.99232424368E+02  0.12369327168E+03  0.47000000000E+01 0.  1.
         -5    1    5    5    0  503 -0.32513938505E+02 -0.42174343365E+02  0.20185215223E+02  0.57143366623E+02  0.47000000000E+01 0.  1.
<mgrwt>
<rscale>  0 0.27382775E+03</rscale>
<asrwt>0</asrwt>
<pdfrwt beam="1">  1        3 0.85241058E-02 0.27382775E+03</pdfrwt>
<pdfrwt beam="2">  1       -3 0.52049837E-01 0.27382775E+03</pdfrwt>
<totfact> 0.89968863E+02</totfact>
</mgrwt>
</event>
<event>
 9    1  0.8285222E-001  0.2767440E+03  0.7818608E-02  0.1097481E+00
         -2   -1    0    0    0  501 -0.00000000000E+00  0.00000000000E+00  0.13408120837E+02  0.13408120837E+02  0.00000000000E+00 0. -1.
          2   -1    0    0  501    0  0.00000000000E+00 -0.00000000000E+00 -0.14280014229E+04  0.14280014229E+04  0.00000000000E+00 0. -1.
         35    2    1    2    0    0  0.00000000000E+00 -0.71054273576E-14 -0.14145933021E+04  0.14414095438E+04  0.27674403794E+03 0.  0.
         25    2    3    3    0    0 -0.41153192471E+01  0.34512813851E+02 -0.95211354993E+03  0.96060626196E+03  0.12262181036E+03 0.  0.
         25    2    3    3    0    0  0.41153192471E+01 -0.34512813851E+02 -0.46247975215E+03  0.48080328180E+03  0.12679197320E+03 0.  0.
          5    1    4    4  502    0 -0.42929883545E+02  0.22758219953E+02 -0.83779780116E+03  0.83921877785E+03  0.47000000000E+01 0.  1.
         -5    1    4    4    0  502  0.38814564298E+02  0.11754593898E+02 -0.11431574877E+03  0.12138748410E+03  0.47000000000E+01 0.  1.
          5    1    5    5  503    0 -0.42920843854E+02 -0.45690275074E+02 -0.37934227239E+03  0.38451586404E+03  0.47000000000E+01 0. -1.
         -5    1    5    5    0  503  0.47036163101E+02  0.11177461223E+02 -0.83137479758E+02  0.96287417761E+02  0.47000000000E+01 0. -1.
<mgrwt>
<rscale>  0 0.27674404E+03</rscale>
<asrwt>0</asrwt>
<pdfrwt beam="1">  1        2 0.21969245E+00 0.27674404E+03</pdfrwt>
<pdfrwt beam="2">  1       -2 0.20627886E-02 0.27674404E+03</pdfrwt>
<totfact> 0.11020733E+04</totfact>
</mgrwt>
</event>
<event>
 9    1  0.8285222E-001  0.2678008E+03  0.7818608E-02  0.1102545E+00
         -1   -1    0    0    0  501 -0.00000000000E+00  0.00000000000E+00  0.22062483232E+02  0.22062483232E+02  0.00000000000E+00 0.  1.
          1   -1    0    0  501    0  0.00000000000E+00 -0.00000000000E+00 -0.81266090166E+03  0.81266090166E+03  0.00000000000E+00 0.  1.
         35    2    1    2    0    0  0.17763568394E-14  0.00000000000E+00 -0.79059841843E+03  0.83472338489E+03  0.26780080296E+03 0.  0.
         25    2    3    3    0    0  0.16287466329E+01 -0.24260894315E+02 -0.26502823168E+03  0.29395947327E+03  0.12482373384E+03 0.  0.
         25    2    3    3    0    0 -0.16287466329E+01  0.24260894315E+02 -0.52557018675E+03  0.54076391163E+03  0.12494135865E+03 0.  0.
          5    1    4    4  502    0  0.14798738974E+01  0.26416131951E+02 -0.23140759007E+03  0.23296258240E+03  0.47000000000E+01 0.  1.
         -5    1    4    4    0  502  0.14887273555E+00 -0.50677026267E+02 -0.33620641605E+02  0.60996890874E+02  0.47000000000E+01 0.  1.
          5    1    5    5  503    0 -0.40866725798E+02 -0.26498483359E+02 -0.35697255828E+03  0.36031063857E+03  0.47000000000E+01 0. -1.
         -5    1    5    5    0  503  0.39237979165E+02  0.50759377674E+02 -0.16859762847E+03  0.18045327306E+03  0.47000000000E+01 0. -1.
<mgrwt>
<rscale>  0 0.26780080E+03</rscale>
<asrwt>0</asrwt>
<pdfrwt beam="1">  1        1 0.12502476E+00 0.26780080E+03</pdfrwt>
<pdfrwt beam="2">  1       -1 0.33942279E-02 0.26780080E+03</pdfrwt>
<totfact> 0.70420681E+03</totfact>
</mgrwt>
</event>
<event>
 9    1  0.8285222E-001  0.2801784E+03  0.7818608E-02  0.1095592E+00
         -1   -1    0    0    0  501 -0.00000000000E+00  0.00000000000E+00  0.13758278995E+03  0.13758278995E+03  0.00000000000E+00 0.  1.
          1   -1    0    0  501    0  0.00000000000E+00 -0.00000000000E+00 -0.14264123736E+03  0.14264123736E+03  0.00000000000E+00 0.  1.
         35    2    1    2    0    0  0.71054273576E-14  0.71054273576E-14 -0.50584474110E+01  0.28022402732E+03  0.28017836747E+03 0.  0.
         25    2    3    3    0    0  0.60521919272E+02  0.19839723635E+02 -0.77909949708E+01  0.14074010832E+03  0.12526197005E+03 0.  0.
         25    2    3    3    0    0 -0.60521919272E+02 -0.19839723635E+02  0.27325475598E+01  0.13948391900E+03  0.12406361068E+03 0.  0.
          5    1    4    4  502    0  0.75871072999E+02  0.54554904284E+02  0.17086663069E+02  0.95114149075E+02  0.47000000000E+01 0. -1.
         -5    1    4    4    0  502 -0.15349153727E+02 -0.34715180649E+02 -0.24877658039E+02  0.45625959246E+02  0.47000000000E+01 0. -1.
          5    1    5    5  503    0 -0.15918313879E+01  0.32845898253E+02  0.39975292003E+02  0.51975964926E+02  0.47000000000E+01 0. -1.
         -5    1    5    5    0  503 -0.58930087884E+02 -0.52685621888E+02 -0.37242744443E+02  0.87507954070E+02  0.47000000000E+01 0. -1.
<mgrwt>
<rscale>  0 0.28017837E+03</rscale>
<asrwt>0</asrwt>
<pdfrwt beam="1">  1        1 0.21944806E-01 0.28017837E+03</pdfrwt>
<pdfrwt beam="2">  1       -1 0.21166583E-01 0.28017837E+03</pdfrwt>
<totfact> 0.41362842E+03</totfact>
</mgrwt>
</event>
<event>
 9    1  0.8285222E-001  0.2739921E+03  0.7818608E-02  0.1099016E+00
          2   -1    0    0  501    0  0.00000000000E+00  0.00000000000E+00  0.15714661909E+04  0.15714661909E+04  0.00000000000E+00 0. -1.
         -2   -1    0    0    0  501 -0.00000000000E+00 -0.00000000000E+00 -0.11942938788E+02  0.11942938788E+02  0.00000000000E+00 0. -1.
         35    2    1    2    0    0  0.00000000000E+00  0.17763568394E-14  0.15595232521E+04  0.15834091297E+04  0.27399214970E+03 0.  0.
         25    2    3    3    0    0 -0.36785682615E+02  0.10076256717E+02  0.10191942063E+04  0.10274776129E+04  0.12449376428E+03 0.  0.
         25    2    3    3    0    0  0.36785682615E+02 -0.10076256717E+02  0.54032904577E+03  0.55593151680E+03  0.12509858623E+03 0.  0.
          5    1    4    4  502    0  0.23951427402E+02 -0.30412076356E+01  0.77719390328E+03  0.77758303294E+03  0.47000000000E+01 0.  1.
         -5    1    4    4    0  502 -0.60737110017E+02  0.13117464353E+02  0.24200030304E+03  0.24989457992E+03  0.47000000000E+01 0.  1.
          5    1    5    5  503    0  0.49672228645E+02  0.95772238659E+01  0.52506384241E+03  0.52751604916E+03  0.47000000000E+01 0. -1.
         -5    1    5    5    0  503 -0.12886546030E+02 -0.19653480583E+02  0.15265203359E+02  0.28415467640E+02  0.47000000000E+01 0. -1.
<mgrwt>
<rscale>  0 0.27399215E+03</rscale>
<asrwt>0</asrwt>
<pdfrwt beam="1">  1        2 0.24176387E+00 0.27399215E+03</pdfrwt>
<pdfrwt beam="2">  1       -2 0.18373764E-02 0.27399215E+03</pdfrwt>
<totfact> 0.10944247E+04</totfact>
</mgrwt>
</event>
<event>
 9    1  0.8285222E-001  0.2758261E+03  0.7818608E-02  0.1097991E+00
         -2   -1    0    0    0  501 -0.00000000000E+00  0.00000000000E+00  0.17753799162E+02  0.17753799162E+02  0.00000000000E+00 0.  1.
          2   -1    0    0  501    0  0.00000000000E+00 -0.00000000000E+00 -0.10713206129E+04  0.10713206129E+04  0.00000000000E+00 0.  1.
         35    2    1    2    0    0  0.00000000000E+00  0.00000000000E+00 -0.10535668137E+04  0.10890744120E+04  0.27582611189E+03 0.  0.
         25    2    3    3    0    0  0.19002828725E+01  0.48058722696E+02 -0.68992050536E+03  0.70191205747E+03  0.11990404833E+03 0.  0.
         25    2    3    3    0    0 -0.19002828725E+01 -0.48058722696E+02 -0.36364630836E+03  0.38716235457E+03  0.12386605391E+03 0.  0.
          5    1    4    4  502    0 -0.59603859195E+01  0.19810037987E+02 -0.14175100997E+02  0.25514452642E+02  0.47000000000E+01 0. -1.
         -5    1    4    4    0  502  0.78606687920E+01  0.28248684709E+02 -0.67574540436E+03  0.67639760483E+03  0.47000000000E+01 0. -1.
          5    1    5    5  503    0 -0.22916612075E+02 -0.29000124543E+02 -0.19948586996E+02  0.42263630412E+02  0.47000000000E+01 0. -1.
         -5    1    5    5    0  503  0.21016329202E+02 -0.19058598153E+02 -0.34369772137E+03  0.34489872416E+03  0.47000000000E+01 0. -1.
<mgrwt>
<rscale>  0 0.27582611E+03</rscale>
<asrwt>0</asrwt>
<pdfrwt beam="1">  1        2 0.16481862E+00 0.27582611E+03</pdfrwt>
<pdfrwt beam="2">  1       -2 0.27313527E-02 0.27582611E+03</pdfrwt>
<totfact> 0.11554045E+04</totfact>
</mgrwt>
</event>
<event>
 9    1  0.8285222E-001  0.2773244E+03  0.7818608E-02  0.1097159E+00
         -1   -1    0    0    0  501 -0.00000000000E+00  0.00000000000E+00  0.18467818835E+02  0.18467818835E+02  0.00000000000E+00 0. -1.
          1   -1    0    0  501    0  0.00000000000E+00 -0.00000000000E+00 -0.10411197995E+04  0.10411197995E+04  0.00000000000E+00 0. -1.
         35    2    1    2    0    0  0.71054273576E-14  0.71054273576E-14 -0.10226519806E+04  0.10595876183E+04  0.27732444423E+03 0.  0.
         25    2    3    3    0    0 -0.60897599724E+01 -0.25512288727E+02 -0.72215230050E+03  0.73325017132E+03  0.12435395678E+03 0.  0.
         25    2    3    3    0    0  0.60897599724E+01  0.25512288727E+02 -0.30049968012E+03  0.32633744697E+03  0.12453156022E+03 0.  0.
          5    1    4    4  502    0 -0.18817861564E+02 -0.47363332769E+02 -0.11887359803E+03  0.12942341177E+03  0.47000000000E+01 0. -1.
         -5    1    4    4    0  502  0.12728101592E+02  0.21851044042E+02 -0.60327870247E+03  0.60382675955E+03  0.47000000000E+01 0. -1.
          5    1    5    5  503    0 -0.42286119394E+02 -0.79071899933E+01 -0.23173376203E+03  0.23573982695E+03  0.47000000000E+01 0. -1.
         -5    1    5    5    0  503  0.48375879366E+02  0.33419478721E+02 -0.68765918086E+02  0.90597620017E+02  0.47000000000E+01 0. -1.
<mgrwt>
<rscale>  0 0.27732444E+03</rscale>
<asrwt>0</asrwt>
<pdfrwt beam="1">  1        1 0.16017229E+00 0.27732444E+03</pdfrwt>
<pdfrwt beam="2">  1       -1 0.28412026E-02 0.27732444E+03</pdfrwt>
<totfact> 0.60897109E+03</totfact>
</mgrwt>
</event>
<event>
 9    1  0.8285222E-001  0.2732011E+03  0.7818608E-02  0.1099461E+00
          2   -1    0    0  501    0  0.00000000000E+00  0.00000000000E+00  0.77078278669E+03  0.77078278669E+03  0.00000000000E+00 0.  1.
         -2   -1    0    0    0  501 -0.00000000000E+00 -0.00000000000E+00 -0.24208773408E+02  0.24208773408E+02  0.00000000000E+00 0.  1.
         35    2    1    2    0    0  0.71054273576E-14  0.00000000000E+00  0.74657401328E+03  0.79499156010E+03  0.27320106757E+03 0.  0.
         25    2    3    3    0    0  0.40910095815E+02  0.28538215775E+02  0.42905166333E+03  0.45010258104E+03  0.12656594310E+03 0.  0.
         25    2    3    3    0    0 -0.40910095815E+02 -0.28538215775E+02  0.31752234994E+03  0.34488897905E+03  0.12505958363E+03 0.  0.
          5    1    4    4  502    0  0.64842453649E+02  0.12386882796E+02  0.10101774044E+03  0.12076693481E+03  0.47000000000E+01 0.  1.
         -5    1    4    4    0  502 -0.23932357834E+02  0.16151332978E+02  0.32803392289E+03  0.32933564623E+03  0.47000000000E+01 0.  1.
          5    1    5    5  503    0 -0.24929858461E+02 -0.24849207341E+02  0.32451401109E+03  0.32645124344E+03  0.47000000000E+01 0.  1.
         -5    1    5    5    0  503 -0.15980237354E+02 -0.36890084333E+01 -0.69916611430E+01  0.18437735616E+02  0.47000000000E+01 0.  1.
<mgrwt>
<rscale>  0 0.27320107E+03</rscale>
<asrwt>0</asrwt>
<pdfrwt beam="1">  1        2 0.11858195E+00 0.27320107E+03</pdfrwt>
<pdfrwt beam="2">  1       -2 0.37244273E-02 0.27320107E+03</pdfrwt>
<totfact> 0.11342738E+04</totfact>
</mgrwt>
</event>
<event>
 9    1  0.8285222E-001  0.2724554E+03  0.7818608E-02  0.1099882E+00
          2   -1    0    0  501    0  0.00000000000E+00  0.00000000000E+00  0.48705485565E+03  0.48705485565E+03  0.00000000000E+00 0.  1.
         -2   -1    0    0    0  501 -0.00000000000E+00 -0.00000000000E+00 -0.38102467153E+02  0.38102467153E+02  0.00000000000E+00 0.  1.
         35    2    1    2    0    0  0.00000000000E+00  0.14210854715E-13  0.44895238850E+03  0.52515732280E+03  0.27245543958E+03 0.  0.
         25    2    3    3    0    0  0.46736903215E+02  0.38066498905E+02  0.21013334303E+03  0.25199273216E+03  0.12534320384E+03 0.  0.
         25    2    3    3    0    0 -0.46736903215E+02 -0.38066498905E+02  0.23881904547E+03  0.27316459064E+03  0.11811418476E+03 0.  0.
          5    1    4    4  502    0  0.65307504421E+02  0.53815664076E+02  0.21078378291E+03  0.22718514250E+03  0.47000000000E+01 0.  1.
         -5    1    4    4    0  502 -0.18570601206E+02 -0.15749165171E+02 -0.65043988582E+00  0.24807589661E+02  0.47000000000E+01 0.  1.
          5    1    5    5  503    0  0.35528754419E+02 -0.90636618572E+01  0.32915629367E+02  0.49497181874E+02  0.47000000000E+01 0. -1.
         -5    1    5    5    0  503 -0.82265657634E+02 -0.29002837048E+02  0.20590341610E+03  0.22366740877E+03  0.47000000000E+01 0. -1.
<mgrwt>
<rscale>  0 0.27245544E+03</rscale>
<asrwt>0</asrwt>
<pdfrwt beam="1">  1        2 0.74931512E-01 0.27245544E+03</pdfrwt>
<pdfrwt beam="2">  1       -2 0.58619183E-02 0.27245544E+03</pdfrwt>
<totfact> 0.97746339E+03</totfact>
</mgrwt>
</event>
<event>
 9    1  0.8285222E-001  0.2777322E+03  0.7818608E-02  0.1096934E+00
         -1   -1    0    0    0  501 -0.00000000000E+00  0.00000000000E+00  0.34552719433E+02  0.34552719433E+02  0.00000000000E+00 0. -1.
          1   -1    0    0  501    0  0.00000000000E+00 -0.00000000000E+00 -0.55809770288E+03  0.55809770288E+03  0.00000000000E+00 0. -1.
         35    2    1    2    0    0  0.35527136788E-14  0.00000000000E+00 -0.52354498345E+03  0.59265042232E+03  0.27773219722E+03 0.  0.
         25    2    3    3    0    0  0.96254588819E+01  0.49003379324E+02 -0.33619753411E+03  0.36205550703E+03  0.12474545116E+03 0.  0.
         25    2    3    3    0    0 -0.96254588819E+01 -0.49003379324E+02 -0.18734744934E+03  0.23059491528E+03  0.12482374589E+03 0.  0.
          5    1    4    4  502    0  0.41536393035E+02 -0.22434921683E+02 -0.70029673124E+02  0.84586303709E+02  0.47000000000E+01 0.  1.
         -5    1    4    4    0  502 -0.31910934153E+02  0.71438301007E+02 -0.26616786099E+03  0.27746920333E+03  0.47000000000E+01 0.  1.
          5    1    5    5  503    0 -0.28293236828E+02 -0.63571600759E+02 -0.19349756571E+03  0.20568240958E+03  0.47000000000E+01 0.  1.
         -5    1    5    5    0  503  0.18667777946E+02  0.14568221435E+02  0.61501163729E+01  0.24912505707E+02  0.47000000000E+01 0.  1.
<mgrwt>
<rscale>  0 0.27773220E+03</rscale>
<asrwt>0</asrwt>
<pdfrwt beam="1">  1        1 0.85861175E-01 0.27773220E+03</pdfrwt>
<pdfrwt beam="2">  1       -1 0.53158036E-02 0.27773220E+03</pdfrwt>
<totfact> 0.62181394E+03</totfact>
</mgrwt>
</event>
<event>
 9    1  0.8285222E-001  0.2760284E+03  0.7818608E-02  0.1097878E+00
         -1   -1    0    0    0  501 -0.00000000000E+00  0.00000000000E+00  0.53028056905E+02  0.53028056905E+02  0.00000000000E+00 0.  1.
          1   -1    0    0  501    0  0.00000000000E+00 -0.00000000000E+00 -0.35920445126E+03  0.35920445126E+03  0.00000000000E+00 0.  1.
         35    2    1    2    0    0  0.00000000000E+00  0.00000000000E+00 -0.30617639435E+03  0.41223250816E+03  0.27602836145E+03 0.  0.
         25    2    3    3    0    0  0.28522899807E+02  0.48908595508E+02 -0.12884565269E+03  0.18961425755E+03  0.12706989385E+03 0.  0.
         25    2    3    3    0    0 -0.28522899807E+02 -0.48908595508E+02 -0.17733074167E+03  0.22261825061E+03  0.12209458234E+03 0.  0.
          5    1    4    4  502    0  0.35529136881E+02 -0.30027577010E+02 -0.11859790733E+02  0.48236081773E+02  0.47000000000E+01 0.  1.
         -5    1    4    4    0  502 -0.70062370737E+01  0.78936172518E+02 -0.11698586195E+03  0.14137817578E+03  0.47000000000E+01 0.  1.
          5    1    5    5  503    0  0.29732620422E+02 -0.59042180559E+02 -0.13289571216E+03  0.14850376464E+03  0.47000000000E+01 0. -1.
         -5    1    5    5    0  503 -0.58255520229E+02  0.10133585052E+02 -0.44435029511E+02  0.74114485972E+02  0.47000000000E+01 0. -1.
<mgrwt>
<rscale>  0 0.27602836E+03</rscale>
<asrwt>0</asrwt>
<pdfrwt beam="1">  1        1 0.55262225E-01 0.27602836E+03</pdfrwt>
<pdfrwt beam="2">  1       -1 0.81581624E-02 0.27602836E+03</pdfrwt>
<totfact> 0.57809953E+03</totfact>
</mgrwt>
</event>
<event>
 9    1  0.8285222E-001  0.2744494E+03  0.7818608E-02  0.1098760E+00
          2   -1    0    0  501    0  0.00000000000E+00  0.00000000000E+00  0.87219303855E+03  0.87219303855E+03  0.00000000000E+00 0.  1.
         -2   -1    0    0    0  501 -0.00000000000E+00 -0.00000000000E+00 -0.21589960082E+02  0.21589960082E+02  0.00000000000E+00 0.  1.
         35    2    1    2    0    0  0.00000000000E+00  0.71054273576E-14  0.85060307847E+03  0.89378299863E+03  0.27444936062E+03 0.  0.
         25    2    3    3    0    0  0.21081419528E+02 -0.51103243717E+02  0.40026570322E+03  0.42318166282E+03  0.12575419994E+03 0.  0.
         25    2    3    3    0    0 -0.21081419528E+02  0.51103243717E+02  0.45033737524E+03  0.47060133581E+03  0.12492356847E+03 0.  0.
          5    1    4    4  502    0 -0.32293037559E+02  0.23777913323E+02  0.75539678422E+02  0.85653735779E+02  0.47000000000E+01 0.  1.
         -5    1    4    4    0  502  0.53374457087E+02 -0.74881157040E+02  0.32472602480E+03  0.33752792704E+03  0.47000000000E+01 0.  1.
          5    1    5    5  503    0 -0.16564766527E+01  0.85634427123E+02  0.38161534365E+03  0.39113726431E+03  0.47000000000E+01 0. -1.
         -5    1    5    5    0  503 -0.19424942875E+02 -0.34531183406E+02  0.68722031592E+02  0.79464071500E+02  0.47000000000E+01 0. -1.
<mgrwt>
<rscale>  0 0.27444936E+03</rscale>
<asrwt>0</asrwt>
<pdfrwt beam="1">  1        2 0.13418352E+00 0.27444936E+03</pdfrwt>
<pdfrwt beam="2">  1       -2 0.33215330E-02 0.27444936E+03</pdfrwt>
<totfact> 0.11485900E+04</totfact>
</mgrwt>
</event>
<event>
 9    1  0.8285222E-001  0.2858034E+03  0.7818608E-02  0.1092561E+00
         -2   -1    0    0    0  501 -0.00000000000E+00  0.00000000000E+00  0.63738948477E+01  0.63738948477E+01  0.00000000000E+00 0. -1.
          2   -1    0    0  501    0  0.00000000000E+00 -0.00000000000E+00 -0.32038325277E+04  0.32038325277E+04  0.00000000000E+00 0. -1.
         35    2    1    2    0    0  0.35527136788E-14  0.71054273576E-14 -0.31974586329E+04  0.32102064226E+04  0.28580337046E+03 0.  0.
         25    2    3    3    0    0 -0.23443142891E+02  0.58469372762E+02 -0.13458426404E+04  0.13531427144E+04  0.12543741198E+03 0.  0.
         25    2    3    3    0    0  0.23443142891E+02 -0.58469372762E+02 -0.18516159924E+04  0.18570637081E+04  0.12741893149E+03 0.  0.
          5    1    4    4  502    0  0.23539738716E+02  0.60676287448E+02 -0.11431728959E+04  0.11450336637E+04  0.47000000000E+01 0. -1.
         -5    1    4    4    0  502 -0.46982881607E+02 -0.22069146859E+01 -0.20266974455E+03  0.20810905073E+03  0.47000000000E+01 0. -1.
          5    1    5    5  503    0  0.73653607977E+02 -0.39817257509E+02 -0.13424150580E+04  0.13450318011E+04  0.47000000000E+01 0. -1.
         -5    1    5    5    0  503 -0.50210465086E+02 -0.18652115253E+02 -0.50920093440E+03  0.51203190701E+03  0.47000000000E+01 0. -1.
<mgrwt>
<rscale>  0 0.28580337E+03</rscale>
<asrwt>0</asrwt>
<pdfrwt beam="1">  1        2 0.49289656E+00 0.28580337E+03</pdfrwt>
<pdfrwt beam="2">  1       -2 0.98060071E-03 0.28580337E+03</pdfrwt>
<totfact> 0.34369514E+03</totfact>
</mgrwt>
</event>
<event>
 9    1  0.8285222E-001  0.2716304E+03  0.7818608E-02  0.1100350E+00
          1   -1    0    0  501    0  0.00000000000E+00  0.00000000000E+00  0.22613358746E+03  0.22613358746E+03  0.00000000000E+00 0.  1.
         -1   -1    0    0    0  501 -0.00000000000E+00 -0.00000000000E+00 -0.81570237902E+02  0.81570237902E+02  0.00000000000E+00 0.  1.
         35    2    1    2    0    0  0.71054273576E-14  0.35527136788E-14  0.14456334956E+03  0.30770382536E+03  0.27163041455E+03 0.  0.
         25    2    3    3    0    0  0.43251361537E+02 -0.26536270559E+02  0.61227276895E+02  0.14928377577E+03  0.12634085777E+03 0.  0.
         25    2    3    3    0    0 -0.43251361537E+02  0.26536270559E+02  0.83336072666E+02  0.15842004960E+03  0.12480848199E+03 0.  0.
          5    1    4    4  502    0 -0.81034073605E+01 -0.29371243082E+02  0.86467455435E+02  0.91798943243E+02  0.47000000000E+01 0. -1.
         -5    1    4    4    0  502  0.51354768898E+02  0.28349725236E+01 -0.25240178540E+02  0.57484832525E+02  0.47000000000E+01 0. -1.
          5    1    5    5  503    0  0.55399780658E+01  0.25420722783E+02  0.10244231556E+03  0.10579897222E+03  0.47000000000E+01 0. -1.
         -5    1    5    5    0  503 -0.48791339603E+02  0.11155477760E+01 -0.19106242898E+02  0.52621077381E+02  0.47000000000E+01 0. -1.
<mgrwt>
<rscale>  0 0.27163041E+03</rscale>
<asrwt>0</asrwt>
<pdfrwt beam="1">  1        1 0.34789782E-01 0.27163041E+03</pdfrwt>
<pdfrwt beam="2">  1       -1 0.12549267E-01 0.27163041E+03</pdfrwt>
<totfact> 0.53140103E+03</totfact>
</mgrwt>
</event>
<event>
 9    1  0.8285222E-001  0.2880562E+03  0.7818608E-02  0.1091368E+00
         -1   -1    0    0    0  501 -0.00000000000E+00  0.00000000000E+00  0.20496380218E+02  0.20496380218E+02  0.00000000000E+00 0.  1.
          1   -1    0    0  501    0  0.00000000000E+00 -0.00000000000E+00 -0.10120856679E+04  0.10120856679E+04  0.00000000000E+00 0.  1.
         35    2    1    2    0    0  0.00000000000E+00  0.00000000000E+00 -0.99158928768E+03  0.10325820481E+04  0.28805619356E+03 0.  0.
         25    2    3    3    0    0  0.74785225496E+00  0.62934710806E+02 -0.63210853980E+03  0.64713621837E+03  0.12354247016E+03 0.  0.
         25    2    3    3    0    0 -0.74785225496E+00 -0.62934710806E+02 -0.35948074788E+03  0.38544582975E+03  0.12401912136E+03 0.  0.
          5    1    4    4  502    0  0.49982572313E+02 -0.69921254193E+01 -0.18072951066E+03  0.18770293918E+03  0.47000000000E+01 0. -1.
         -5    1    4    4    0  502 -0.49234720058E+02  0.69926836225E+02 -0.45137902914E+03  0.45943327919E+03  0.47000000000E+01 0. -1.
          5    1    5    5  503    0 -0.36843313589E+02 -0.37692393006E+02 -0.32508459284E+03  0.32936336887E+03  0.47000000000E+01 0.  1.
         -5    1    5    5    0  503  0.36095461334E+02 -0.25242317800E+02 -0.34396155039E+02  0.56082460879E+02  0.47000000000E+01 0.  1.
<mgrwt>
<rscale>  0 0.28805619E+03</rscale>
<asrwt>0</asrwt>
<pdfrwt beam="1">  1        1 0.15570550E+00 0.28805619E+03</pdfrwt>
<pdfrwt beam="2">  1       -1 0.31532890E-02 0.28805619E+03</pdfrwt>
<totfact> 0.54900737E+03</totfact>
</mgrwt>
</event>
<event>
 9    1  0.8285222E-001  0.2746332E+03  0.7818608E-02  0.1098657E+00
         -2   -1    0    0    0  501 -0.00000000000E+00  0.00000000000E+00  0.83534246655E+01  0.83534246655E+01  0.00000000000E+00 0. -1.
          2   -1    0    0  501    0  0.00000000000E+00 -0.00000000000E+00 -0.22572591052E+04  0.22572591052E+04  0.00000000000E+00 0. -1.
         35    2    1    2    0    0 -0.71054273576E-14  0.35527136788E-14 -0.22489056805E+04  0.22656125298E+04  0.27463316541E+03 0.  0.
         25    2    3    3    0    0 -0.38765359476E+02  0.16455862382E+02 -0.70466780561E+03  0.71607774091E+03  0.12015434351E+03 0.  0.
         25    2    3    3    0    0  0.38765359476E+02 -0.16455862382E+02 -0.15442378749E+04  0.15495347889E+04  0.12088796187E+03 0.  0.
          5    1    4    4  502    0 -0.68026044684E+02  0.15642716031E+02 -0.22806926602E+03  0.23855799593E+03  0.47000000000E+01 0.  1.
         -5    1    4    4    0  502  0.29260685208E+02  0.81314635111E+00 -0.47659853959E+03  0.47751974498E+03  0.47000000000E+01 0.  1.
          5    1    5    5  503    0  0.75339969317E+02  0.48944857177E+01 -0.66953650398E+03  0.67379617625E+03  0.47000000000E+01 0.  1.
         -5    1    5    5    0  503 -0.36574609841E+02 -0.21350348100E+02 -0.87470137092E+03  0.87573861268E+03  0.47000000000E+01 0.  1.
<mgrwt>
<rscale>  0 0.27463317E+03</rscale>
<asrwt>0</asrwt>
<pdfrwt beam="1">  1        2 0.34727024E+00 0.27463317E+03</pdfrwt>
<pdfrwt beam="2">  1       -2 0.12851437E-02 0.27463317E+03</pdfrwt>
<totfact> 0.80277784E+03</totfact>
</mgrwt>
</event>
<event>
 9    1  0.8285222E-001  0.2804165E+03  0.7818608E-02  0.1095462E+00
          2   -1    0    0  501    0  0.00000000000E+00  0.00000000000E+00  0.47176260661E+03  0.47176260661E+03  0.00000000000E+00 0. -1.
         -2   -1    0    0    0  501 -0.00000000000E+00 -0.00000000000E+00 -0.41670006088E+02  0.41670006088E+02  0.00000000000E+00 0. -1.
         35    2    1    2    0    0  0.71054273576E-14  0.00000000000E+00  0.43009260052E+03  0.51343261269E+03  0.28041648090E+03 0.  0.
         25    2    3    3    0    0  0.60114344855E+02  0.19437946068E+02  0.19887811367E+03  0.24338105799E+03  0.12526079630E+03 0.  0.
         25    2    3    3    0    0 -0.60114344855E+02 -0.19437946068E+02  0.23121448685E+03  0.27005155470E+03  0.12440311517E+03 0.  0.
          5    1    4    4  502    0 -0.21340279524E+02 -0.35767854329E+01 -0.48952405648E+01  0.22677175847E+02  0.47000000000E+01 0. -1.
         -5    1    4    4    0  502  0.81454624379E+02  0.23014731501E+02  0.20377335423E+03  0.22070388215E+03  0.47000000000E+01 0. -1.
          5    1    5    5  503    0 -0.31369245426E+02 -0.55336358000E+02  0.44682621173E+02  0.77876624928E+02  0.47000000000E+01 0. -1.
         -5    1    5    5    0  503 -0.28745099429E+02  0.35898411932E+02  0.18653186568E+03  0.19217492977E+03  0.47000000000E+01 0. -1.
<mgrwt>
<rscale>  0 0.28041648E+03</rscale>
<asrwt>0</asrwt>
<pdfrwt beam="1">  1        2 0.72578859E-01 0.28041648E+03</pdfrwt>
<pdfrwt beam="2">  1       -2 0.64107705E-02 0.28041648E+03</pdfrwt>
<totfact> 0.88360155E+03</totfact>
</mgrwt>
</event>
<event>
 9    1  0.8285222E-001  0.2755670E+03  0.7818608E-02  0.1098135E+00
         -3   -1    0    0    0  501 -0.00000000000E+00  0.00000000000E+00  0.54180208288E+01  0.54180208288E+01  0.00000000000E+00 0.  1.
          3   -1    0    0  501    0  0.00000000000E+00 -0.00000000000E+00 -0.35039155452E+04  0.35039155452E+04  0.00000000000E+00 0.  1.
         35    2    1    2    0    0 -0.71054273576E-14  0.35527136788E-14 -0.34984975244E+04  0.35093335661E+04  0.27556696033E+03 0.  0.
         25    2    3    3    0    0  0.35658151951E+02  0.16352855277E+02 -0.23170383185E+04  0.23207198553E+04  0.12464011178E+03 0.  0.
         25    2    3    3    0    0 -0.35658151951E+02 -0.16352855277E+02 -0.11814592059E+04  0.11886137108E+04  0.12416834800E+03 0.  0.
          5    1    4    4  502    0  0.66361101438E+02 -0.30930277317E+02 -0.11851750077E+04  0.11874436268E+04  0.47000000000E+01 0.  1.
         -5    1    4    4    0  502 -0.30702949487E+02  0.47283132594E+02 -0.11318633108E+04  0.11332762285E+04  0.47000000000E+01 0.  1.
          5    1    5    5  503    0 -0.61434148364E+02 -0.36680861153E+02 -0.10680795272E+04  0.10704838189E+04  0.47000000000E+01 0. -1.
         -5    1    5    5    0  503  0.25775996414E+02  0.20328005875E+02 -0.11337967866E+03  0.11812989184E+03  0.47000000000E+01 0. -1.
<mgrwt>
<rscale>  0 0.27556696E+03</rscale>
<asrwt>0</asrwt>
<pdfrwt beam="1">  1        3 0.53906419E+00 0.27556696E+03</pdfrwt>
<pdfrwt beam="2">  1       -3 0.83354127E-03 0.27556696E+03</pdfrwt>
<totfact> 0.25501044E+01</totfact>
</mgrwt>
</event>
<event>
 9    1  0.8285222E-001  0.2717422E+03  0.7818608E-02  0.1100287E+00
          4   -1    0    0  501    0  0.00000000000E+00  0.00000000000E+00  0.44149005464E+02  0.44149005464E+02  0.00000000000E+00 0. -1.
         -4   -1    0    0    0  501 -0.00000000000E+00 -0.00000000000E+00 -0.41815121327E+03  0.41815121327E+03  0.00000000000E+00 0. -1.
         35    2    1    2    0    0  0.00000000000E+00  0.35527136788E-14 -0.37400220781E+03  0.46230021874E+03  0.27174223227E+03 0.  0.
         25    2    3    3    0    0  0.28798937549E+02 -0.20630191425E+02 -0.11391293560E+03  0.17256684633E+03  0.12469232516E+03 0.  0.
         25    2    3    3    0    0 -0.28798937549E+02  0.20630191425E+02 -0.26008927221E+03  0.28973337240E+03  0.12265404178E+03 0.  0.
          5    1    4    4  502    0  0.46610002024E+02  0.23622782521E+02 -0.39538801909E+01  0.52614174053E+02  0.47000000000E+01 0.  1.
         -5    1    4    4    0  502 -0.17811064475E+02 -0.44252973946E+02 -0.10995905541E+03  0.11995267228E+03  0.47000000000E+01 0.  1.
          5    1    5    5  503    0 -0.57640344191E+01  0.25502918836E+02  0.19123297264E+01  0.26634000205E+02  0.47000000000E+01 0. -1.
         -5    1    5    5    0  503 -0.23034903130E+02 -0.48727274114E+01 -0.26200160193E+03  0.26309937220E+03  0.47000000000E+01 0. -1.
<mgrwt>
<rscale>  0 0.27174223E+03</rscale>
<asrwt>0</asrwt>
<pdfrwt beam="1">  1        4 0.67921544E-02 0.27174223E+03</pdfrwt>
<pdfrwt beam="2">  1       -4 0.64330959E-01 0.27174223E+03</pdfrwt>
<totfact> 0.61977500E+02</totfact>
</mgrwt>
</event>
<event>
 9    1  0.8285222E-001  0.2662052E+03  0.7818608E-02  0.1103471E+00
         -4   -1    0    0    0  501 -0.00000000000E+00  0.00000000000E+00  0.12362433328E+02  0.12362433328E+02  0.00000000000E+00 0. -1.
          4   -1    0    0  501    0  0.00000000000E+00 -0.00000000000E+00 -0.14330759891E+04  0.14330759891E+04  0.00000000000E+00 0. -1.
         35    2    1    2    0    0  0.71054273576E-14  0.71054273576E-14 -0.14207135557E+04  0.14454384224E+04  0.26620523187E+03 0.  0.
         25    2    3    3    0    0  0.30214219322E+01  0.70359408657E+01 -0.46693555729E+03  0.48350211613E+03  0.12524714843E+03 0.  0.
         25    2    3    3    0    0 -0.30214219322E+01 -0.70359408657E+01 -0.95377799845E+03  0.96193630626E+03  0.12478122263E+03 0.  0.
          5    1    4    4  502    0 -0.42983689084E+02  0.45603386839E+02 -0.28550874663E+03  0.29234329276E+03  0.47000000000E+01 0. -1.
         -5    1    4    4    0  502  0.46005111016E+02 -0.38567445973E+02 -0.18142681066E+03  0.19115882337E+03  0.47000000000E+01 0. -1.
          5    1    5    5  503    0 -0.45861718206E+02 -0.41330602770E+02 -0.67056976037E+03  0.67342216287E+03  0.47000000000E+01 0. -1.
         -5    1    5    5    0  503  0.42840296274E+02  0.34294661904E+02 -0.28320823808E+03  0.28851414339E+03  0.47000000000E+01 0. -1.
<mgrwt>
<rscale>  0 0.26620523E+03</rscale>
<asrwt>0</asrwt>
<pdfrwt beam="1">  1        4 0.22047333E+00 0.26620523E+03</pdfrwt>
<pdfrwt beam="2">  1       -4 0.19019119E-02 0.26620523E+03</pdfrwt>
<totfact> 0.22005979E+02</totfact>
</mgrwt>
</event>
<event>
 9    1  0.8285222E-001  0.2735473E+03  0.7818608E-02  0.1099266E+00
          1   -1    0    0  501    0  0.00000000000E+00  0.00000000000E+00  0.31742839447E+04  0.31742839447E+04  0.00000000000E+00 0.  1.
         -1   -1    0    0    0  501 -0.00000000000E+00 -0.00000000000E+00 -0.58933059250E+01  0.58933059250E+01  0.00000000000E+00 0.  1.
         35    2    1    2    0    0  0.00000000000E+00 -0.71054273576E-14  0.31683906387E+04  0.31801772506E+04  0.27354726377E+03 0.  0.
         25    2    3    3    0    0  0.11366715966E+02  0.55638668380E+02  0.13926574332E+04  0.13993722652E+04  0.12459192119E+03 0.  0.
         25    2    3    3    0    0 -0.11366715966E+02 -0.55638668380E+02  0.17757332055E+04  0.17808049854E+04  0.12170914073E+03 0.  0.
          5    1    4    4  502    0  0.43191188197E+02  0.59645916415E+01  0.10955848584E+04  0.10964621868E+04  0.47000000000E+01 0.  1.
         -5    1    4    4    0  502 -0.31824472231E+02  0.49674076738E+02  0.29707257482E+03  0.30291007848E+03  0.47000000000E+01 0.  1.
          5    1    5    5  503    0  0.10276363440E+02 -0.47805569563E+02  0.17147497790E+04  0.17154532552E+04  0.47000000000E+01 0. -1.
         -5    1    5    5    0  503 -0.21643079406E+02 -0.78330988170E+01  0.60983426501E+02  0.65351730130E+02  0.47000000000E+01 0. -1.
<mgrwt>
<rscale>  0 0.27354726E+03</rscale>
<asrwt>0</asrwt>
<pdfrwt beam="1">  1        1 0.48835001E+00 0.27354726E+03</pdfrwt>
<pdfrwt beam="2">  1       -1 0.90666499E-03 0.27354726E+03</pdfrwt>
<totfact> 0.11808519E+03</totfact>
</mgrwt>
</event>
<event>
 9    1  0.8285222E-001  0.2742774E+03  0.7818608E-02  0.1098856E+00
          4   -1    0    0  501    0  0.00000000000E+00  0.00000000000E+00  0.19355749205E+03  0.19355749205E+03  0.00000000000E+00 0. -1.
         -4   -1    0    0    0  501 -0.00000000000E+00 -0.00000000000E+00 -0.97165054842E+02  0.97165054842E+02  0.00000000000E+00 0. -1.
         35    2    1    2    0    0  0.71054273576E-14  0.00000000000E+00  0.96392437204E+02  0.29072254689E+03  0.27427740942E+03 0.  0.
         25    2    3    3    0    0 -0.44784032143E+02 -0.27284832062E+02  0.34654944887E+02  0.14170278566E+03  0.12699859315E+03 0.  0.
         25    2    3    3    0    0  0.44784032143E+02  0.27284832062E+02  0.61737492318E+02  0.14901976123E+03  0.12508117238E+03 0.  0.
          5    1    4    4  502    0  0.29852368015E+02  0.28457119263E+02  0.23672575749E+02  0.47785482685E+02  0.47000000000E+01 0.  1.
         -5    1    4    4    0  502 -0.74636400158E+02 -0.55741951326E+02  0.10982369137E+02  0.93917302974E+02  0.47000000000E+01 0.  1.
          5    1    5    5  503    0  0.67930947800E+02 -0.21919013996E+02  0.72545386815E+01  0.71901148635E+02  0.47000000000E+01 0. -1.
         -5    1    5    5    0  503 -0.23146915657E+02  0.49203846059E+02  0.54482953636E+02  0.77118612594E+02  0.47000000000E+01 0. -1.
<mgrwt>
<rscale>  0 0.27427741E+03</rscale>
<asrwt>0</asrwt>
<pdfrwt beam="1">  1        4 0.29778076E-01 0.27427741E+03</pdfrwt>
<pdfrwt beam="2">  1       -4 0.14948470E-01 0.27427741E+03</pdfrwt>
<totfact> 0.76660526E+02</totfact>
</mgrwt>
</event>
<event>
 9    1  0.8285222E-001  0.2900475E+03  0.7818608E-02  0.1090324E+00
          2   -1    0    0  501    0  0.00000000000E+00  0.00000000000E+00  0.39610969677E+03  0.39610969677E+03  0.00000000000E+00 0. -1.
         -2   -1    0    0    0  501 -0.00000000000E+00 -0.00000000000E+00 -0.53096137117E+02  0.53096137117E+02  0.00000000000E+00 0. -1.
         35    2    1    2    0    0 -0.71054273576E-14 -0.71054273576E-14  0.34301355965E+03  0.44920583388E+03  0.29004754626E+03 0.  0.
         25    2    3    3    0    0  0.40891359608E+02 -0.55889151394E+02  0.11887004429E+03  0.18378244799E+03  0.12186139760E+03 0.  0.
         25    2    3    3    0    0 -0.40891359608E+02  0.55889151394E+02  0.22414351536E+03  0.26542338590E+03  0.12415135025E+03 0.  0.
          5    1    4    4  502    0 -0.42745474425E+02 -0.14351185827E+02  0.51051483030E+02  0.68275003025E+02  0.47000000000E+01 0. -1.
         -5    1    4    4    0  502  0.83636834033E+02 -0.41537965567E+02  0.67818561261E+02  0.11550744496E+03  0.47000000000E+01 0. -1.
          5    1    5    5  503    0 -0.34319580792E+02  0.34649930270E+02  0.99092936155E+01  0.49987352335E+02  0.47000000000E+01 0.  1.
         -5    1    5    5    0  503 -0.65717788155E+01  0.21239221124E+02  0.21423422174E+03  0.21543603356E+03  0.47000000000E+01 0.  1.
<mgrwt>
<rscale>  0 0.29004755E+03</rscale>
<asrwt>0</asrwt>
<pdfrwt beam="1">  1        2 0.60939952E-01 0.29004755E+03</pdfrwt>
<pdfrwt beam="2">  1       -2 0.81686367E-02 0.29004755E+03</pdfrwt>
<totfact> 0.73550369E+03</totfact>
</mgrwt>
</event>
<event>
 9    1  0.8285222E-001  0.2743431E+03  0.7818608E-02  0.1098819E+00
          1   -1    0    0  501    0  0.00000000000E+00  0.00000000000E+00  0.18715322286E+04  0.18715322286E+04  0.00000000000E+00 0. -1.
         -1   -1    0    0    0  501 -0.00000000000E+00 -0.00000000000E+00 -0.10053809294E+02  0.10053809294E+02  0.00000000000E+00 0. -1.
         35    2    1    2    0    0  0.71054273576E-14  0.00000000000E+00  0.18614784193E+04  0.18815860379E+04  0.27434305615E+03 0.  0.
         25    2    3    3    0    0  0.52095894646E+02 -0.15373862981E+02  0.92256183326E+03  0.93269924499E+03  0.12592540455E+03 0.  0.
         25    2    3    3    0    0 -0.52095894646E+02  0.15373862981E+02  0.93891658606E+03  0.94888679292E+03  0.12598195227E+03 0.  0.
          5    1    4    4  502    0  0.50987544481E+02  0.46323818447E+02  0.62278889614E+03  0.62660491939E+03  0.47000000000E+01 0. -1.
         -5    1    4    4    0  502  0.11083501647E+01 -0.61697681428E+02  0.29977293712E+03  0.30609432560E+03  0.47000000000E+01 0. -1.
          5    1    5    5  503    0 -0.65643269150E+02  0.60656494906E+02  0.63694324291E+03  0.64320061711E+03  0.47000000000E+01 0.  1.
         -5    1    5    5    0  503  0.13547374504E+02 -0.45282631925E+02  0.30197334314E+03  0.30568617581E+03  0.47000000000E+01 0.  1.
<mgrwt>
<rscale>  0 0.27434306E+03</rscale>
<asrwt>0</asrwt>
<pdfrwt beam="1">  1        1 0.28792776E+00 0.27434306E+03</pdfrwt>
<pdfrwt beam="2">  1       -1 0.15467414E-02 0.27434306E+03</pdfrwt>
<totfact> 0.40804750E+03</totfact>
</mgrwt>
</event>
<event>
 9    1  0.8285222E-001  0.2738679E+03  0.7818608E-02  0.1099086E+00
         -1   -1    0    0    0  501 -0.00000000000E+00  0.00000000000E+00  0.30525114779E+02  0.30525114779E+02  0.00000000000E+00 0. -1.
          1   -1    0    0  501    0  0.00000000000E+00 -0.00000000000E+00 -0.61427788932E+03  0.61427788932E+03  0.00000000000E+00 0. -1.
         35    2    1    2    0    0  0.00000000000E+00  0.00000000000E+00 -0.58375277454E+03  0.64480300410E+03  0.27386787382E+03 0.  0.
         25    2    3    3    0    0 -0.56615016150E+02 -0.19807000111E+01 -0.30042604896E+03  0.33037170168E+03  0.12522167205E+03 0.  0.
         25    2    3    3    0    0  0.56615016150E+02  0.19807000111E+01 -0.28332672558E+03  0.31443130242E+03  0.12403155763E+03 0.  0.
          5    1    4    4  502    0 -0.58999197124E+02  0.26015792653E+02 -0.59807035561E+02  0.88072119489E+02  0.47000000000E+01 0. -1.
         -5    1    4    4    0  502  0.23841809739E+01 -0.27996492664E+02 -0.24061901340E+03  0.24229958219E+03  0.47000000000E+01 0. -1.
          5    1    5    5  503    0  0.64185505399E+02 -0.51305840619E+02 -0.16812457273E+03  0.18718982435E+03  0.47000000000E+01 0.  1.
         -5    1    5    5    0  503 -0.75704892493E+01  0.53286540630E+02 -0.11520215285E+03  0.12724147807E+03  0.47000000000E+01 0.  1.
<mgrwt>
<rscale>  0 0.27386787E+03</rscale>
<asrwt>0</asrwt>
<pdfrwt beam="1">  1        1 0.94504293E-01 0.27386787E+03</pdfrwt>
<pdfrwt beam="2">  1       -1 0.46961714E-02 0.27386787E+03</pdfrwt>
<totfact> 0.65561392E+03</totfact>
</mgrwt>
</event>
<event>
 9    1  0.8285222E-001  0.2712303E+03  0.7818608E-02  0.1100578E+00
          2   -1    0    0  501    0  0.00000000000E+00  0.00000000000E+00  0.16156288649E+03  0.16156288649E+03  0.00000000000E+00 0. -1.
         -2   -1    0    0    0  501 -0.00000000000E+00 -0.00000000000E+00 -0.11383474247E+03  0.11383474247E+03  0.00000000000E+00 0. -1.
         35    2    1    2    0    0 -0.35527136788E-14  0.71054273576E-14  0.47728144028E+02  0.27539762896E+03  0.27123030491E+03 0.  0.
         25    2    3    3    0    0 -0.79158673125E+01 -0.47595349877E+02  0.44346466045E+01  0.13436335813E+03  0.12532305308E+03 0.  0.
         25    2    3    3    0    0  0.79158673125E+01  0.47595349877E+02  0.43293497424E+02  0.14103427082E+03  0.12525318496E+03 0.  0.
          5    1    4    4  502    0  0.31516181461E+02  0.27334849007E+02 -0.19438179790E+02  0.46264419348E+02  0.47000000000E+01 0.  1.
         -5    1    4    4    0  502 -0.39432048773E+02 -0.74930198884E+02  0.23872826394E+02  0.88098938787E+02  0.47000000000E+01 0.  1.
          5    1    5    5  503    0 -0.40693695458E+02  0.10030874329E+02 -0.25022538200E+02  0.49038889749E+02  0.47000000000E+01 0. -1.
         -5    1    5    5    0  503  0.48609562771E+02  0.37564475548E+02  0.68316035623E+02  0.91995381076E+02  0.47000000000E+01 0. -1.
<mgrwt>
<rscale>  0 0.27123030E+03</rscale>
<asrwt>0</asrwt>
<pdfrwt beam="1">  1        2 0.24855829E-01 0.27123030E+03</pdfrwt>
<pdfrwt beam="2">  1       -2 0.17513037E-01 0.27123030E+03</pdfrwt>
<totfact> 0.56663955E+03</totfact>
</mgrwt>
</event>
<event>
 9    1  0.8285222E-001  0.2743084E+03  0.7818608E-02  0.1098839E+00
          2   -1    0    0  501    0  0.00000000000E+00  0.00000000000E+00  0.18747651353E+04  0.18747651353E+04  0.00000000000E+00 0.  1.
         -2   -1    0    0    0  501 -0.00000000000E+00 -0.00000000000E+00 -0.10033936721E+02  0.10033936721E+02  0.00000000000E+00 0.  1.
         35    2    1    2    0    0  0.00000000000E+00  0.00000000000E+00  0.18647311986E+04  0.18847990721E+04  0.27430840114E+03 0.  0.
         25    2    3    3    0    0  0.55066511541E+02  0.21646060466E+02  0.90175002271E+03  0.91243323414E+03  0.12601758087E+03 0.  0.
         25    2    3    3    0    0 -0.55066511541E+02 -0.21646060466E+02  0.96298117591E+03  0.97236583791E+03  0.12108552747E+03 0.  0.
          5    1    4    4  502    0  0.39509216063E+02 -0.46639650618E+02  0.57317804262E+03  0.57644721676E+03  0.47000000000E+01 0.  1.
         -5    1    4    4    0  502  0.15557295478E+02  0.68285711084E+02  0.32857198009E+03  0.33598601738E+03  0.47000000000E+01 0.  1.
          5    1    5    5  503    0 -0.88481879186E+02 -0.22995703445E+02  0.83503584655E+03  0.84003857075E+03  0.47000000000E+01 0. -1.
         -5    1    5    5    0  503  0.33415367645E+02  0.13496429786E+01  0.12794532935E+03  0.13232726716E+03  0.47000000000E+01 0. -1.
<mgrwt>
<rscale>  0 0.27430840E+03</rscale>
<asrwt>0</asrwt>
<pdfrwt beam="1">  1        2 0.28842513E+00 0.27430840E+03</pdfrwt>
<pdfrwt beam="2">  1       -2 0.15436841E-02 0.27430840E+03</pdfrwt>
<totfact> 0.97795686E+03</totfact>
</mgrwt>
</event>
<event>
 9    1  0.8285222E-001  0.2777970E+03  0.7818608E-02  0.1096898E+00
         -1   -1    0    0    0  501 -0.00000000000E+00  0.00000000000E+00  0.58369743934E+03  0.58369743934E+03  0.00000000000E+00 0.  1.
          1   -1    0    0  501    0  0.00000000000E+00 -0.00000000000E+00 -0.33052728016E+02  0.33052728016E+02  0.00000000000E+00 0.  1.
         35    2    1    2    0    0  0.00000000000E+00  0.71054273576E-14  0.55064471132E+03  0.61675016736E+03  0.27779699571E+03 0.  0.
         25    2    3    3    0    0 -0.49041408790E+02 -0.32673224026E+02  0.29230972759E+03  0.32379466470E+03  0.12619591397E+03 0.  0.
         25    2    3    3    0    0  0.49041408790E+02  0.32673224026E+02  0.25833498374E+03  0.29295550266E+03  0.12495344481E+03 0.  0.
          5    1    4    4  502    0 -0.48331832547E+02 -0.29173700851E+02  0.35364819271E+02  0.66781968381E+02  0.47000000000E+01 0. -1.
         -5    1    4    4    0  502 -0.70957624283E+00 -0.34995231747E+01  0.25694490831E+03  0.25701269632E+03  0.47000000000E+01 0. -1.
          5    1    5    5  503    0  0.86548172589E+01  0.39354055422E+02  0.10753601850E+02  0.41968768063E+02  0.47000000000E+01 0.  1.
         -5    1    5    5    0  503  0.40386591531E+02 -0.66808313969E+01  0.24758138189E+03  0.25098673459E+03  0.47000000000E+01 0.  1.
<mgrwt>
<rscale>  0 0.27779700E+03</rscale>
<asrwt>0</asrwt>
<pdfrwt beam="1">  1        1 0.50850355E-02 0.27779700E+03</pdfrwt>
<pdfrwt beam="2">  1       -1 0.89799599E-01 0.27779700E+03</pdfrwt>
<totfact> 0.20735468E+03</totfact>
</mgrwt>
</event>
<event>
 9    1  0.8285222E-001  0.2754473E+03  0.7818608E-02  0.1098202E+00
          2   -1    0    0  501    0  0.00000000000E+00  0.00000000000E+00  0.12640040515E+04  0.12640040515E+04  0.00000000000E+00 0. -1.
         -2   -1    0    0    0  501 -0.00000000000E+00 -0.00000000000E+00 -0.15006126627E+02  0.15006126627E+02  0.00000000000E+00 0. -1.
         35    2    1    2    0    0  0.35527136788E-14  0.00000000000E+00  0.12489979249E+04  0.12790101781E+04  0.27544730787E+03 0.  0.
         25    2    3    3    0    0 -0.17779256066E+02  0.34332058696E+02  0.41604951675E+03  0.43586842512E+03  0.12405358288E+03 0.  0.
         25    2    3    3    0    0  0.17779256066E+02 -0.34332058696E+02  0.83294840812E+03  0.84314175301E+03  0.12486061377E+03 0.  0.
          5    1    4    4  502    0 -0.62798731138E+02  0.46365567525E+02  0.19881201533E+03  0.21363930801E+03  0.47000000000E+01 0. -1.
         -5    1    4    4    0  502  0.45019475072E+02 -0.12033508829E+02  0.21723750142E+03  0.22222911711E+03  0.47000000000E+01 0. -1.
          5    1    5    5  503    0 -0.25828786743E+02 -0.17483124179E+02  0.52260817209E+02  0.61041533983E+02  0.47000000000E+01 0. -1.
         -5    1    5    5    0  503  0.43608042809E+02 -0.16848934517E+02  0.78068759091E+03  0.78210021902E+03  0.47000000000E+01 0. -1.
<mgrwt>
<rscale>  0 0.27544731E+03</rscale>
<asrwt>0</asrwt>
<pdfrwt beam="1">  1        2 0.19446208E+00 0.27544731E+03</pdfrwt>
<pdfrwt beam="2">  1       -2 0.23086359E-02 0.27544731E+03</pdfrwt>
<totfact> 0.11483353E+04</totfact>
</mgrwt>
</event>
<event>
 9    1  0.8285222E-001  0.2753462E+03  0.7818608E-02  0.1098258E+00
         -1   -1    0    0    0  501 -0.00000000000E+00  0.00000000000E+00  0.10982203357E+03  0.10982203357E+03  0.00000000000E+00 0. -1.
          1   -1    0    0  501    0  0.00000000000E+00 -0.00000000000E+00 -0.17258718699E+03  0.17258718699E+03  0.00000000000E+00 0. -1.
         35    2    1    2    0    0 -0.71054273576E-14  0.00000000000E+00 -0.62765153417E+02  0.28240922056E+03  0.27534615192E+03 0.  0.
         25    2    3    3    0    0 -0.20534091766E+01 -0.32263405366E+02  0.16910562203E+02  0.13020219869E+03  0.12498600568E+03 0.  0.
         25    2    3    3    0    0  0.20534091766E+01  0.32263405366E+02 -0.79675715620E+02  0.15220702187E+03  0.12559304930E+03 0.  0.
          5    1    4    4  502    0 -0.52947766787E+02 -0.45837549120E+02 -0.99451276840E+01  0.70891060661E+02  0.47000000000E+01 0. -1.
         -5    1    4    4    0  502  0.50894357610E+02  0.13574143754E+02  0.26855689887E+02  0.59311138031E+02  0.47000000000E+01 0. -1.
          5    1    5    5  503    0 -0.31132532391E+02  0.57892103855E+02 -0.87249128547E+02  0.10933997757E+03  0.47000000000E+01 0.  1.
         -5    1    5    5    0  503  0.33185941567E+02 -0.25628698489E+02  0.75734129266E+01  0.42867044304E+02  0.47000000000E+01 0.  1.
<mgrwt>
<rscale>  0 0.27534615E+03</rscale>
<asrwt>0</asrwt>
<pdfrwt beam="1">  1        1 0.26551875E-01 0.27534615E+03</pdfrwt>
<pdfrwt beam="2">  1       -1 0.16895697E-01 0.27534615E+03</pdfrwt>
<totfact> 0.46683769E+03</totfact>
</mgrwt>
</event>
<event>
 9    1  0.8285222E-001  0.2746395E+03  0.7818608E-02  0.1098653E+00
          2   -1    0    0  501    0  0.00000000000E+00  0.00000000000E+00  0.21466984578E+03  0.21466984578E+03  0.00000000000E+00 0. -1.
         -2   -1    0    0    0  501 -0.00000000000E+00 -0.00000000000E+00 -0.87840517539E+02  0.87840517539E+02  0.00000000000E+00 0. -1.
         35    2    1    2    0    0  0.00000000000E+00  0.26645352591E-14  0.12682932824E+03  0.30251036332E+03  0.27463947533E+03 0.  0.
         25    2    3    3    0    0  0.55602803570E+02  0.45038658172E+01  0.51266305282E+02  0.14616485818E+03  0.12499590048E+03 0.  0.
         25    2    3    3    0    0 -0.55602803570E+02 -0.45038658172E+01  0.75563022955E+02  0.15634550514E+03  0.12498875936E+03 0.  0.
          5    1    4    4  502    0  0.73728681092E+02  0.50425183188E+01  0.81802315083E+02  0.11034062787E+03  0.47000000000E+01 0. -1.
         -5    1    4    4    0  502 -0.18125877522E+02 -0.53865250158E+00 -0.30536009800E+02  0.35824230306E+02  0.47000000000E+01 0. -1.
          5    1    5    5  503    0 -0.45644006117E+02  0.56761844994E+02  0.52725587523E+02  0.90040879167E+02  0.47000000000E+01 0.  1.
         -5    1    5    5    0  503 -0.99587974531E+01 -0.61265710811E+02  0.22837435432E+02  0.66304625970E+02  0.47000000000E+01 0.  1.
<mgrwt>
<rscale>  0 0.27463948E+03</rscale>
<asrwt>0</asrwt>
<pdfrwt beam="1">  1        2 0.33026130E-01 0.27463948E+03</pdfrwt>
<pdfrwt beam="2">  1       -2 0.13513926E-01 0.27463948E+03</pdfrwt>
<totfact> 0.63672006E+03</totfact>
</mgrwt>
</event>
<event>
 9    1  0.8285222E-001  0.3045219E+03  0.7818608E-02  0.1083002E+00
         -2   -1    0    0    0  501 -0.00000000000E+00  0.00000000000E+00  0.37202226554E+02  0.37202226554E+02  0.00000000000E+00 0. -1.
          2   -1    0    0  501    0  0.00000000000E+00 -0.00000000000E+00 -0.62317217574E+03  0.62317217574E+03  0.00000000000E+00 0. -1.
         35    2    1    2    0    0  0.88817841970E-15  0.71054273576E-14 -0.58596994918E+03  0.66037440229E+03  0.30452187090E+03 0.  0.
         25    2    3    3    0    0 -0.46214146591E+01  0.54800387389E+02 -0.44014369759E+03  0.46051753210E+03  0.12379613450E+03 0.  0.
         25    2    3    3    0    0  0.46214146591E+01 -0.54800387389E+02 -0.14582625160E+03  0.19985687019E+03  0.12511208165E+03 0.  0.
          5    1    4    4  502    0  0.55220455002E+02  0.32128377325E+02 -0.14565366334E+03  0.15911822939E+03  0.47000000000E+01 0. -1.
         -5    1    4    4    0  502 -0.59841869661E+02  0.22672010063E+02 -0.29449003425E+03  0.30139930271E+03  0.47000000000E+01 0. -1.
          5    1    5    5  503    0  0.56388678406E+01 -0.47906862270E+02  0.50665870272E+01  0.48730119917E+02  0.47000000000E+01 0.  1.
         -5    1    5    5    0  503 -0.10174531816E+01 -0.68935251189E+01 -0.15089283863E+03  0.15112675027E+03  0.47000000000E+01 0.  1.
<mgrwt>
<rscale>  0 0.30452187E+03</rscale>
<asrwt>0</asrwt>
<pdfrwt beam="1">  1        2 0.95872636E-01 0.30452187E+03</pdfrwt>
<pdfrwt beam="2">  1       -2 0.57234199E-02 0.30452187E+03</pdfrwt>
<totfact> 0.76795467E+03</totfact>
</mgrwt>
</event>
<event>
 9    1  0.8285222E-001  0.3049697E+03  0.7818608E-02  0.1082782E+00
         -2   -1    0    0    0  501 -0.00000000000E+00  0.00000000000E+00  0.82790435181E+01  0.82790435181E+01  0.00000000000E+00 0. -1.
          2   -1    0    0  501    0  0.00000000000E+00 -0.00000000000E+00 -0.28084928832E+04  0.28084928832E+04  0.00000000000E+00 0. -1.
         35    2    1    2    0    0  0.71054273576E-14 -0.17763568394E-14 -0.28002138397E+04  0.28167719267E+04  0.30496973489E+03 0.  0.
         25    2    3    3    0    0  0.42928259372E+02 -0.38690819784E+01 -0.20994701768E+04  0.21036584333E+04  0.12548296843E+03 0.  0.
         25    2    3    3    0    0 -0.42928259372E+02  0.38690819784E+01 -0.70074366292E+03  0.71311349349E+03  0.12502547026E+03 0.  0.
          5    1    4    4  502    0 -0.17427577351E+02 -0.47265649715E+02 -0.12166390928E+04  0.12176906562E+04  0.47000000000E+01 0. -1.
         -5    1    4    4    0  502  0.60355836722E+02  0.43396567737E+02 -0.88283108398E+03  0.88596777704E+03  0.47000000000E+01 0. -1.
          5    1    5    5  503    0  0.36796322418E+02 -0.87180901659E+01 -0.10108012685E+03  0.10802433283E+03  0.47000000000E+01 0.  1.
         -5    1    5    5    0  503 -0.79724581790E+02  0.12587172144E+02 -0.59966353608E+03  0.60508916066E+03  0.47000000000E+01 0.  1.
<mgrwt>
<rscale>  0 0.30496973E+03</rscale>
<asrwt>0</asrwt>
<pdfrwt beam="1">  1        2 0.43207544E+00 0.30496973E+03</pdfrwt>
<pdfrwt beam="2">  1       -2 0.12737002E-02 0.30496973E+03</pdfrwt>
<totfact> 0.40303487E+03</totfact>
</mgrwt>
</event>
<event>
 9    1  0.8285222E-001  0.2733467E+03  0.7818608E-02  0.1099379E+00
          1   -1    0    0  501    0  0.00000000000E+00  0.00000000000E+00  0.14467438319E+03  0.14467438319E+03  0.00000000000E+00 0. -1.
         -1   -1    0    0    0  501 -0.00000000000E+00 -0.00000000000E+00 -0.12911477009E+03  0.12911477009E+03  0.00000000000E+00 0. -1.
         35    2    1    2    0    0  0.00000000000E+00 -0.17763568394E-14  0.15559613102E+02  0.27378915328E+03  0.27334666432E+03 0.  0.
         25    2    3    3    0    0  0.32682389992E+02  0.40605286765E+01 -0.37003825885E+02  0.13449523081E+03  0.12504022342E+03 0.  0.
         25    2    3    3    0    0 -0.32682389992E+02 -0.40605286765E+01  0.52563438987E+02  0.13929392247E+03  0.12472070882E+03 0.  0.
          5    1    4    4  502    0  0.60962753400E+02  0.17359464190E+02  0.22248735854E+02  0.67341699906E+02  0.47000000000E+01 0. -1.
         -5    1    4    4    0  502 -0.28280363408E+02 -0.13298935514E+02 -0.59252561740E+02  0.67153530905E+02  0.47000000000E+01 0. -1.
          5    1    5    5  503    0 -0.62623753479E+02 -0.35452807125E+02  0.15076055744E+01  0.72131816193E+02  0.47000000000E+01 0. -1.
         -5    1    5    5    0  503  0.29941363487E+02  0.31392278448E+02  0.51055833413E+02  0.67162106274E+02  0.47000000000E+01 0. -1.
<mgrwt>
<rscale>  0 0.27334666E+03</rscale>
<asrwt>0</asrwt>
<pdfrwt beam="1">  1        1 0.22257597E-01 0.27334666E+03</pdfrwt>
<pdfrwt beam="2">  1       -1 0.19863811E-01 0.27334666E+03</pdfrwt>
<totfact> 0.45016719E+03</totfact>
</mgrwt>
</event>
<event>
 9    1  0.8285222E-001  0.2761788E+03  0.7818608E-02  0.1097794E+00
         -1   -1    0    0    0  501 -0.00000000000E+00  0.00000000000E+00  0.62708601105E+03  0.62708601105E+03  0.00000000000E+00 0.  1.
          1   -1    0    0  501    0  0.00000000000E+00 -0.00000000000E+00 -0.30408398208E+02  0.30408398208E+02  0.00000000000E+00 0.  1.
         35    2    1    2    0    0  0.17763568394E-14 -0.71054273576E-14  0.59667761284E+03  0.65749440925E+03  0.27617879089E+03 0.  0.
         25    2    3    3    0    0  0.42033117440E+00  0.44496581658E+02  0.20947958074E+03  0.24802592557E+03  0.12512011249E+03 0.  0.
         25    2    3    3    0    0 -0.42033117440E+00 -0.44496581658E+02  0.38719803210E+03  0.40946848369E+03  0.12554680647E+03 0.  0.
          5    1    4    4  502    0  0.94404183774E+01 -0.41252967356E+02  0.99271806518E+02  0.10801810211E+03  0.47000000000E+01 0.  1.
         -5    1    4    4    0  502 -0.90200872030E+01  0.85749549014E+02  0.11020777423E+03  0.14000782346E+03  0.47000000000E+01 0.  1.
          5    1    5    5  503    0  0.22253700747E+02  0.35011532786E+02  0.20678210723E+03  0.21095488735E+03  0.47000000000E+01 0. -1.
         -5    1    5    5    0  503 -0.22674031922E+02 -0.79508114444E+02  0.18041592486E+03  0.19851359634E+03  0.47000000000E+01 0. -1.
<mgrwt>
<rscale>  0 0.27617879E+03</rscale>
<asrwt>0</asrwt>
<pdfrwt beam="1">  1        1 0.46782156E-02 0.27617879E+03</pdfrwt>
<pdfrwt beam="2">  1       -1 0.96474761E-01 0.27617879E+03</pdfrwt>
<totfact> 0.19917208E+03</totfact>
</mgrwt>
</event>
<event>
 9    1  0.8285222E-001  0.2748776E+03  0.7818608E-02  0.1098520E+00
          3   -1    0    0  501    0  0.00000000000E+00  0.00000000000E+00  0.72213781334E+02  0.72213781334E+02  0.00000000000E+00 0.  1.
         -3   -1    0    0    0  501 -0.00000000000E+00 -0.00000000000E+00 -0.26157636355E+03  0.26157636355E+03  0.00000000000E+00 0.  1.
         35    2    1    2    0    0  0.17763568394E-14  0.00000000000E+00 -0.18936258221E+03  0.33379014488E+03  0.27487756052E+03 0.  0.
         25    2    3    3    0    0 -0.45335840011E+00  0.42433900724E+02 -0.14340399369E+03  0.19422181338E+03  0.12392161201E+03 0.  0.
         25    2    3    3    0    0  0.45335840011E+00 -0.42433900724E+02 -0.45958588520E+02  0.13956833150E+03  0.12476492229E+03 0.  0.
          5    1    4    4  502    0  0.47475798346E+01  0.40727098419E+02  0.85074927175E+01  0.42139096956E+02  0.47000000000E+01 0.  1.
         -5    1    4    4    0  502 -0.52009382347E+01  0.17068023056E+01 -0.15191148641E+03  0.15208271643E+03  0.47000000000E+01 0.  1.
          5    1    5    5  503    0  0.53224568803E+02  0.12003755059E+02 -0.28022963385E+02  0.61516837830E+02  0.47000000000E+01 0.  1.
         -5    1    5    5    0  503 -0.52771210403E+02 -0.54437655783E+02 -0.17935625135E+02  0.78051493667E+02  0.47000000000E+01 0.  1.
<mgrwt>
<rscale>  0 0.27487756E+03</rscale>
<asrwt>0</asrwt>
<pdfrwt beam="1">  1        3 0.11109812E-01 0.27487756E+03</pdfrwt>
<pdfrwt beam="2">  1       -3 0.40242518E-01 0.27487756E+03</pdfrwt>
<totfact> 0.96549143E+02</totfact>
</mgrwt>
</event>
<event>
 9    1  0.8285222E-001  0.2770185E+03  0.7818608E-02  0.1097329E+00
         -2   -1    0    0    0  501 -0.00000000000E+00  0.00000000000E+00  0.25355726410E+02  0.25355726410E+02  0.00000000000E+00 0. -1.
          2   -1    0    0  501    0  0.00000000000E+00 -0.00000000000E+00 -0.75662658899E+03  0.75662658899E+03  0.00000000000E+00 0. -1.
         35    2    1    2    0    0 -0.71054273576E-14  0.00000000000E+00 -0.73127086258E+03  0.78198231540E+03  0.27701853212E+03 0.  0.
         25    2    3    3    0    0  0.41272876515E+02 -0.24966099439E+02 -0.26099917735E+03  0.29316842622E+03  0.12450059879E+03 0.  0.
         25    2    3    3    0    0 -0.41272876515E+02  0.24966099439E+02 -0.47027168522E+03  0.48881388917E+03  0.12432539511E+03 0.  0.
          5    1    4    4  502    0  0.55906604689E+02 -0.32347409481E+02 -0.50877291479E+02  0.82355887077E+02  0.47000000000E+01 0.  1.
         -5    1    4    4    0  502 -0.14633728173E+02  0.73813100421E+01 -0.21012188588E+03  0.21081253915E+03  0.47000000000E+01 0.  1.
          5    1    5    5  503    0 -0.48121534927E+02 -0.14174635606E+01 -0.45431156857E+03  0.45687939619E+03  0.47000000000E+01 0. -1.
         -5    1    5    5    0  503  0.68486584121E+01  0.26383562999E+02 -0.15960116658E+02  0.31934492986E+02  0.47000000000E+01 0. -1.
<mgrwt>
<rscale>  0 0.27701853E+03</rscale>
<asrwt>0</asrwt>
<pdfrwt beam="1">  1        2 0.11640409E+00 0.27701853E+03</pdfrwt>
<pdfrwt beam="2">  1       -2 0.39008811E-02 0.27701853E+03</pdfrwt>
<totfact> 0.10834735E+04</totfact>
</mgrwt>
</event>
<event>
 9    1  0.8285222E-001  0.2758711E+03  0.7818608E-02  0.1097966E+00
          2   -1    0    0  501    0  0.00000000000E+00  0.00000000000E+00  0.19100706306E+04  0.19100706306E+04  0.00000000000E+00 0.  1.
         -2   -1    0    0    0  501 -0.00000000000E+00 -0.00000000000E+00 -0.99610016666E+01  0.99610016666E+01  0.00000000000E+00 0.  1.
         35    2    1    2    0    0  0.00000000000E+00  0.00000000000E+00  0.19001096289E+04  0.19200316322E+04  0.27587110566E+03 0.  0.
         25    2    3    3    0    0 -0.48205901729E+02 -0.23542003661E+02  0.94173207256E+03  0.95216329604E+03  0.12991385974E+03 0.  0.
         25    2    3    3    0    0  0.48205901729E+02  0.23542003661E+02  0.95837755635E+03  0.96786833619E+03  0.12411100192E+03 0.  0.
          5    1    4    4  502    0  0.13406847407E+02 -0.17699518007E+02  0.26760233150E+02  0.35088695805E+02  0.47000000000E+01 0.  1.
         -5    1    4    4    0  502 -0.61612749136E+02 -0.58424856549E+01  0.91497183941E+03  0.91707460024E+03  0.47000000000E+01 0.  1.
          5    1    5    5  503    0  0.14034356962E+02  0.13751214258E+02  0.89360781979E+03  0.89383616209E+03  0.47000000000E+01 0.  1.
         -5    1    5    5    0  503  0.34171544767E+02  0.97907894036E+01  0.64769736558E+02  0.74032174105E+02  0.47000000000E+01 0.  1.
<mgrwt>
<rscale>  0 0.27587111E+03</rscale>
<asrwt>0</asrwt>
<pdfrwt beam="1">  1        2 0.29385673E+00 0.27587111E+03</pdfrwt>
<pdfrwt beam="2">  1       -2 0.15324633E-02 0.27587111E+03</pdfrwt>
<totfact> 0.94722664E+03</totfact>
</mgrwt>
</event>
<event>
 9    1  0.8285222E-001  0.2776087E+03  0.7818608E-02  0.1097002E+00
         -2   -1    0    0    0  501 -0.00000000000E+00  0.00000000000E+00  0.48645158031E+01  0.48645158031E+01  0.00000000000E+00 0. -1.
          2   -1    0    0  501    0  0.00000000000E+00 -0.00000000000E+00 -0.39606492282E+04  0.39606492282E+04  0.00000000000E+00 0. -1.
         35    2    1    2    0    0  0.00000000000E+00  0.35527136788E-14 -0.39557847124E+04  0.39655137440E+04  0.27760865088E+03 0.  0.
         25    2    3    3    0    0 -0.26655040121E+02 -0.13374696810E+02 -0.26886475723E+04  0.26918556404E+04  0.12795173758E+03 0.  0.
         25    2    3    3    0    0  0.26655040121E+02  0.13374696810E+02 -0.12671371401E+04  0.12736581036E+04  0.12521605061E+03 0.  0.
          5    1    4    4  502    0  0.39198542529E+02 -0.11999510520E+02 -0.19000744441E+04  0.19005224274E+04  0.47000000000E+01 0.  1.
         -5    1    4    4    0  502 -0.65853582651E+02 -0.13751862895E+01 -0.78857312823E+03  0.79133321304E+03  0.47000000000E+01 0.  1.
          5    1    5    5  503    0 -0.10927891543E+02 -0.31034031692E+02 -0.10675546327E+03  0.11180943106E+03  0.47000000000E+01 0.  1.
         -5    1    5    5    0  503  0.37582931665E+02  0.44408728502E+02 -0.11603816768E+04  0.11618486725E+04  0.47000000000E+01 0.  1.
<mgrwt>
<rscale>  0 0.27760865E+03</rscale>
<asrwt>0</asrwt>
<pdfrwt beam="1">  1        2 0.60933125E+00 0.27760865E+03</pdfrwt>
<pdfrwt beam="2">  1       -2 0.74838631E-03 0.27760865E+03</pdfrwt>
<totfact> 0.15546773E+03</totfact>
</mgrwt>
</event>
<event>
 9    1  0.8285222E-001  0.2714095E+03  0.7818608E-02  0.1100476E+00
         -2   -1    0    0    0  501 -0.00000000000E+00  0.00000000000E+00  0.27711180266E+02  0.27711180266E+02  0.00000000000E+00 0. -1.
          2   -1    0    0  501    0  0.00000000000E+00 -0.00000000000E+00 -0.66456112519E+03  0.66456112519E+03  0.00000000000E+00 0. -1.
         35    2    1    2    0    0  0.39968028887E-14  0.00000000000E+00 -0.63684994493E+03  0.69227230546E+03  0.27140945553E+03 0.  0.
         25    2    3    3    0    0  0.23308523759E+01  0.45554735970E+02 -0.24850941564E+03  0.28170290610E+03  0.12457500070E+03 0.  0.
         25    2    3    3    0    0 -0.23308523759E+01 -0.45554735970E+02 -0.38834052928E+03  0.41056939936E+03  0.12521261184E+03 0.  0.
          5    1    4    4  502    0  0.11623651536E+01  0.33836960835E+01 -0.23786775775E+03  0.23794108655E+03  0.47000000000E+01 0. -1.
         -5    1    4    4    0  502  0.11684872224E+01  0.42171039887E+02 -0.10641657894E+02  0.43761819549E+02  0.47000000000E+01 0. -1.
          5    1    5    5  503    0  0.36002544387E+02 -0.58265610441E+02 -0.34242672359E+03  0.34924091339E+03  0.47000000000E+01 0. -1.
         -5    1    5    5    0  503 -0.38333396763E+02  0.12710874471E+02 -0.45913805696E+02  0.61328485965E+02  0.47000000000E+01 0. -1.
<mgrwt>
<rscale>  0 0.27140946E+03</rscale>
<asrwt>0</asrwt>
<pdfrwt beam="1">  1        2 0.10224017E+00 0.27140946E+03</pdfrwt>
<pdfrwt beam="2">  1       -2 0.42632586E-02 0.27140946E+03</pdfrwt>
<totfact> 0.11094476E+04</totfact>
</mgrwt>
</event>
<event>
 9    1  0.8285222E-001  0.2689238E+03  0.7818608E-02  0.1101897E+00
         -2   -1    0    0    0  501 -0.00000000000E+00  0.00000000000E+00  0.18434551563E+03  0.18434551563E+03  0.00000000000E+00 0. -1.
          2   -1    0    0  501    0  0.00000000000E+00 -0.00000000000E+00 -0.98076729795E+02  0.98076729795E+02  0.00000000000E+00 0. -1.
         35    2    1    2    0    0 -0.71054273576E-14 -0.17763568394E-14  0.86268785838E+02  0.28242224543E+03  0.26892382063E+03 0.  0.
         25    2    3    3    0    0  0.50167559821E+02  0.10026719099E+02  0.38527207162E+02  0.13852853307E+03  0.12283521331E+03 0.  0.
         25    2    3    3    0    0 -0.50167559821E+02 -0.10026719099E+02  0.47741578676E+02  0.14389371236E+03  0.12573314188E+03 0.  0.
          5    1    4    4  502    0  0.22000613698E+02  0.19762308905E+01  0.82470596280E+02  0.85506852020E+02  0.47000000000E+01 0.  1.
         -5    1    4    4    0  502  0.28166946123E+02  0.80504882088E+01 -0.43943389118E+02  0.53021681051E+02  0.47000000000E+01 0.  1.
          5    1    5    5  503    0 -0.24118957125E+01 -0.26262271991E+00  0.83241916426E+02  0.83409788766E+02  0.47000000000E+01 0.  1.
         -5    1    5    5    0  503 -0.47755664109E+02 -0.97640963795E+01 -0.35500337750E+02  0.60483923591E+02  0.47000000000E+01 0.  1.
<mgrwt>
<rscale>  0 0.26892382E+03</rscale>
<asrwt>0</asrwt>
<pdfrwt beam="1">  1        2 0.15088728E-01 0.26892382E+03</pdfrwt>
<pdfrwt beam="2">  1       -2 0.28360849E-01 0.26892382E+03</pdfrwt>
<totfact> 0.43533772E+03</totfact>
</mgrwt>
</event>
<event>
 9    1  0.8285222E-001  0.2741761E+03  0.7818608E-02  0.1098913E+00
         -2   -1    0    0    0  501 -0.00000000000E+00  0.00000000000E+00  0.71967809878E+01  0.71967809878E+01  0.00000000000E+00 0.  1.
          2   -1    0    0  501    0  0.00000000000E+00 -0.00000000000E+00 -0.26113241929E+04  0.26113241929E+04  0.00000000000E+00 0.  1.
         35    2    1    2    0    0  0.88817841970E-15  0.00000000000E+00 -0.26041274119E+04  0.26185209739E+04  0.27417606245E+03 0.  0.
         25    2    3    3    0    0  0.53864157461E+01 -0.39548390522E+02 -0.89094347506E+03  0.90044245673E+03  0.12419039193E+03 0.  0.
         25    2    3    3    0    0 -0.53864157461E+01  0.39548390522E+02 -0.17131839369E+04  0.17180785172E+04  0.12329436723E+03 0.  0.
          5    1    4    4  502    0 -0.72370844527E+01 -0.66957804407E+02 -0.25560708339E+03  0.26437245325E+03  0.47000000000E+01 0.  1.
         -5    1    4    4    0  502  0.12623500199E+02  0.27409413886E+02 -0.63533639168E+03  0.63607000347E+03  0.47000000000E+01 0.  1.
          5    1    5    5  503    0 -0.27960224464E+02  0.42003746738E+02 -0.27037733376E+03  0.27508558941E+03  0.47000000000E+01 0. -1.
         -5    1    5    5    0  503  0.22573808718E+02 -0.24553562168E+01 -0.14428066031E+04  0.14429929278E+04  0.47000000000E+01 0. -1.
<mgrwt>
<rscale>  0 0.27417606E+03</rscale>
<asrwt>0</asrwt>
<pdfrwt beam="1">  1        2 0.40174151E+00 0.27417606E+03</pdfrwt>
<pdfrwt beam="2">  1       -2 0.11071989E-02 0.27417606E+03</pdfrwt>
<totfact> 0.64001023E+03</totfact>
</mgrwt>
</event>
<event>
 9    1  0.8285222E-001  0.2743113E+03  0.7818608E-02  0.1098837E+00
          2   -1    0    0  501    0  0.00000000000E+00  0.00000000000E+00  0.30196638021E+04  0.30196638021E+04  0.00000000000E+00 0. -1.
         -2   -1    0    0    0  501 -0.00000000000E+00 -0.00000000000E+00 -0.62297256995E+01  0.62297256995E+01  0.00000000000E+00 0. -1.
         35    2    1    2    0    0  0.00000000000E+00  0.00000000000E+00  0.30134340764E+04  0.30258935278E+04  0.27431133547E+03 0.  0.
         25    2    3    3    0    0 -0.23577612544E+02 -0.49501420644E+02  0.13613323571E+04  0.13682146486E+04  0.12561545924E+03 0.  0.
         25    2    3    3    0    0  0.23577612544E+02  0.49501420644E+02  0.16521017193E+04  0.16576788793E+04  0.12430961865E+03 0.  0.
          5    1    4    4  502    0  0.46287435013E+02 -0.80315297980E+01  0.75068397540E+03  0.75216723741E+03  0.47000000000E+01 0.  1.
         -5    1    4    4    0  502 -0.69865047557E+02 -0.41469890846E+02  0.61064838172E+03  0.61604741117E+03  0.47000000000E+01 0.  1.
          5    1    5    5  503    0  0.44345511088E+02 -0.29877023653E+02  0.65766087887E+03  0.65984777221E+03  0.47000000000E+01 0. -1.
         -5    1    5    5    0  503 -0.20767898544E+02  0.79378444297E+02  0.99444084046E+03  0.99783110705E+03  0.47000000000E+01 0. -1.
<mgrwt>
<rscale>  0 0.27431134E+03</rscale>
<asrwt>0</asrwt>
<pdfrwt beam="1">  1        2 0.46456249E+00 0.27431134E+03</pdfrwt>
<pdfrwt beam="2">  1       -2 0.95842175E-03 0.27431134E+03</pdfrwt>
<totfact> 0.46000872E+03</totfact>
</mgrwt>
</event>
<event>
 9    1  0.8285222E-001  0.2751729E+03  0.7818608E-02  0.1098355E+00
         -2   -1    0    0    0  501 -0.00000000000E+00  0.00000000000E+00  0.56176848438E+02  0.56176848438E+02  0.00000000000E+00 0. -1.
          2   -1    0    0  501    0  0.00000000000E+00 -0.00000000000E+00 -0.33697201239E+03  0.33697201239E+03  0.00000000000E+00 0. -1.
         35    2    1    2    0    0 -0.35527136788E-14  0.00000000000E+00 -0.28079516396E+03  0.39314886083E+03  0.27517285962E+03 0.  0.
         25    2    3    3    0    0 -0.29227684230E+02  0.21789551019E+02 -0.78188507997E+02  0.15241634689E+03  0.12565133489E+03 0.  0.
         25    2    3    3    0    0  0.29227684230E+02 -0.21789551019E+02 -0.20260665596E+03  0.24073251394E+03  0.12479440760E+03 0.  0.
          5    1    4    4  502    0 -0.46802159042E+02 -0.24212751856E+02  0.75406658815E+01  0.53438292313E+02  0.47000000000E+01 0. -1.
         -5    1    4    4    0  502  0.17574474812E+02  0.46002302875E+02 -0.85729173879E+02  0.98978054581E+02  0.47000000000E+01 0. -1.
          5    1    5    5  503    0  0.17071248368E+02 -0.36761662647E+02 -0.38475597618E+01  0.40984644411E+02  0.47000000000E+01 0. -1.
         -5    1    5    5    0  503  0.12156435862E+02  0.14972111627E+02 -0.19875909620E+03  0.19974786953E+03  0.47000000000E+01 0. -1.
<mgrwt>
<rscale>  0 0.27517286E+03</rscale>
<asrwt>0</asrwt>
<pdfrwt beam="1">  1        2 0.51841849E-01 0.27517286E+03</pdfrwt>
<pdfrwt beam="2">  1       -2 0.86425920E-02 0.27517286E+03</pdfrwt>
<totfact> 0.80050053E+03</totfact>
</mgrwt>
</event>
<event>
 9    1  0.8285222E-001  0.2660119E+03  0.7818608E-02  0.1103584E+00
          1   -1    0    0  501    0  0.00000000000E+00  0.00000000000E+00  0.11782633354E+03  0.11782633354E+03  0.00000000000E+00 0. -1.
         -1   -1    0    0    0  501 -0.00000000000E+00 -0.00000000000E+00 -0.15014121291E+03  0.15014121291E+03  0.00000000000E+00 0. -1.
         35    2    1    2    0    0  0.00000000000E+00  0.35527136788E-14 -0.32314879371E+02  0.26796754645E+03  0.26601194432E+03 0.  0.
         25    2    3    3    0    0 -0.39609861705E+02  0.63472903028E+00  0.52969276020E+01  0.13091475938E+03  0.12466464116E+03 0.  0.
         25    2    3    3    0    0  0.39609861705E+02 -0.63472903028E+00 -0.37611806973E+02  0.13705278707E+03  0.12569596013E+03 0.  0.
          5    1    4    4  502    0  0.37193929370E+02  0.29183408304E+02 -0.66655572685E+01  0.47974778331E+02  0.47000000000E+01 0. -1.
         -5    1    4    4    0  502 -0.76803791075E+02 -0.28548679274E+02  0.11962484871E+02  0.82939981046E+02  0.47000000000E+01 0. -1.
          5    1    5    5  503    0  0.45207040805E+02 -0.34105930659E+02 -0.69826291541E+02  0.90026063087E+02  0.47000000000E+01 0. -1.
         -5    1    5    5    0  503 -0.55971791003E+01  0.33471201629E+02  0.32214484569E+02  0.47026723981E+02  0.47000000000E+01 0. -1.
<mgrwt>
<rscale>  0 0.26601194E+03</rscale>
<asrwt>0</asrwt>
<pdfrwt beam="1">  1        1 0.18127128E-01 0.26601194E+03</pdfrwt>
<pdfrwt beam="2">  1       -1 0.23098648E-01 0.26601194E+03</pdfrwt>
<totfact> 0.45772470E+03</totfact>
</mgrwt>
</event>
<event>
 9    1  0.8285222E-001  0.2766039E+03  0.7818608E-02  0.1097558E+00
          1   -1    0    0  501    0  0.00000000000E+00  0.00000000000E+00  0.15273691428E+03  0.15273691428E+03  0.00000000000E+00 0. -1.
         -1   -1    0    0    0  501 -0.00000000000E+00 -0.00000000000E+00 -0.12523125546E+03  0.12523125546E+03  0.00000000000E+00 0. -1.
         35    2    1    2    0    0  0.00000000000E+00  0.14210854715E-13  0.27505658819E+02  0.27796816973E+03  0.27660394451E+03 0.  0.
         25    2    3    3    0    0 -0.49227149921E+01 -0.59258074625E+02  0.99331146332E+01  0.13873586591E+03  0.12495287588E+03 0.  0.
         25    2    3    3    0    0  0.49227149921E+01  0.59258074625E+02  0.17572544186E+02  0.13923230383E+03  0.12466389850E+03 0.  0.
          5    1    4    4  502    0 -0.49891234173E+02 -0.22257946121E+01  0.35657043071E+02  0.61543514114E+02  0.47000000000E+01 0. -1.
         -5    1    4    4    0  502  0.44968519181E+02 -0.57032280013E+02 -0.25723928438E+02  0.77192351792E+02  0.47000000000E+01 0. -1.
          5    1    5    5  503    0  0.52656706983E+02 -0.86525893578E+01 -0.27612436891E+01  0.53640568226E+02  0.47000000000E+01 0.  1.
         -5    1    5    5    0  503 -0.47733991991E+02  0.67910663983E+02  0.20333787875E+02  0.85591735602E+02  0.47000000000E+01 0.  1.
<mgrwt>
<rscale>  0 0.27660394E+03</rscale>
<asrwt>0</asrwt>
<pdfrwt beam="1">  1        1 0.23497987E-01 0.27660394E+03</pdfrwt>
<pdfrwt beam="2">  1       -1 0.19266347E-01 0.27660394E+03</pdfrwt>
<totfact> 0.44150469E+03</totfact>
</mgrwt>
</event>
<event>
 9    1  0.8285222E-001  0.2767601E+03  0.7818608E-02  0.1097472E+00
         -2   -1    0    0    0  501 -0.00000000000E+00  0.00000000000E+00  0.23759485691E+02  0.23759485691E+02  0.00000000000E+00 0. -1.
          2   -1    0    0  501    0  0.00000000000E+00 -0.00000000000E+00 -0.80595357617E+03  0.80595357617E+03  0.00000000000E+00 0. -1.
         35    2    1    2    0    0 -0.35527136788E-14  0.00000000000E+00 -0.78219409048E+03  0.82971306186E+03  0.27676013051E+03 0.  0.
         25    2    3    3    0    0 -0.31346361913E+02  0.26177532020E+02 -0.25355833774E+03  0.28502171414E+03  0.12360295023E+03 0.  0.
         25    2    3    3    0    0  0.31346361913E+02 -0.26177532020E+02 -0.52863575273E+03  0.54469134772E+03  0.12475996001E+03 0.  0.
          5    1    4    4  502    0 -0.36055514746E+02 -0.39428428300E+02 -0.17183875441E+03  0.18001457890E+03  0.47000000000E+01 0.  1.
         -5    1    4    4    0  502  0.47091528332E+01  0.65605960320E+02 -0.81719583337E+02  0.10500713524E+03  0.47000000000E+01 0.  1.
          5    1    5    5  503    0  0.57196674435E+02 -0.10166328334E+02 -0.49755482396E+03  0.50095679119E+03  0.47000000000E+01 0. -1.
         -5    1    5    5    0  503 -0.25850312522E+02 -0.16011203686E+02 -0.31080928778E+02  0.43734556528E+02  0.47000000000E+01 0. -1.
<mgrwt>
<rscale>  0 0.27676013E+03</rscale>
<asrwt>0</asrwt>
<pdfrwt beam="1">  1        2 0.12399285E+00 0.27676013E+03</pdfrwt>
<pdfrwt beam="2">  1       -2 0.36553059E-02 0.27676013E+03</pdfrwt>
<totfact> 0.11030328E+04</totfact>
</mgrwt>
</event>
<event>
 9    1  0.8285222E-001  0.2883167E+03  0.7818608E-02  0.1091231E+00
          3   -1    0    0  501    0  0.00000000000E+00  0.00000000000E+00  0.45712680687E+03  0.45712680687E+03  0.00000000000E+00 0.  1.
         -3   -1    0    0    0  501 -0.00000000000E+00 -0.00000000000E+00 -0.45461421840E+02  0.45461421840E+02  0.00000000000E+00 0.  1.
         35    2    1    2    0    0  0.00000000000E+00  0.35527136788E-14  0.41166538503E+03  0.50258822871E+03  0.28831673279E+03 0.  0.
         25    2    3    3    0    0  0.66243158302E+02  0.14183959793E+02  0.17971433872E+03  0.23075523998E+03  0.12791167460E+03 0.  0.
         25    2    3    3    0    0 -0.66243158302E+02 -0.14183959793E+02  0.23195104631E+03  0.27183298873E+03  0.12450921709E+03 0.  0.
          5    1    4    4  502    0  0.15122233276E+02 -0.45838267264E+01  0.17512947696E+03  0.17590371545E+03  0.47000000000E+01 0.  1.
         -5    1    4    4    0  502  0.51120925025E+02  0.18767786520E+02  0.45848617590E+01  0.54851524534E+02  0.47000000000E+01 0.  1.
          5    1    5    5  503    0 -0.95575055182E+02 -0.38576583442E+02  0.17415679351E+03  0.20242386887E+03  0.47000000000E+01 0. -1.
         -5    1    5    5    0  503  0.29331896880E+02  0.24392623649E+02  0.57794252797E+02  0.69409119858E+02  0.47000000000E+01 0. -1.
<mgrwt>
<rscale>  0 0.28831673E+03</rscale>
<asrwt>0</asrwt>
<pdfrwt beam="1">  1        3 0.70327198E-01 0.28831673E+03</pdfrwt>
<pdfrwt beam="2">  1       -3 0.69940652E-02 0.28831673E+03</pdfrwt>
<totfact> 0.66843745E+02</totfact>
</mgrwt>
</event>
<event>
 9    1  0.8285222E-001  0.2757521E+03  0.7818608E-02  0.1098032E+00
          2   -1    0    0  501    0  0.00000000000E+00  0.00000000000E+00  0.30099169291E+02  0.30099169291E+02  0.00000000000E+00 0.  1.
         -2   -1    0    0    0  501 -0.00000000000E+00 -0.00000000000E+00 -0.63157230099E+03  0.63157230099E+03  0.00000000000E+00 0.  1.
         35    2    1    2    0    0  0.71054273576E-14  0.00000000000E+00 -0.60147313169E+03  0.66167147028E+03  0.27575207420E+03 0.  0.
         25    2    3    3    0    0  0.41855225937E+02 -0.45599442434E+02 -0.33491039711E+03  0.36156265592E+03  0.12137302408E+03 0.  0.
         25    2    3    3    0    0 -0.41855225937E+02  0.45599442434E+02 -0.26656273459E+03  0.30010881436E+03  0.12320081127E+03 0.  0.
          5    1    4    4  502    0 -0.18656173497E+01  0.34918600989E+01  0.92739479588E+01  0.11125184304E+02  0.47000000000E+01 0.  1.
         -5    1    4    4    0  502  0.43720843286E+02 -0.49091302533E+02 -0.34418434507E+03  0.35043747161E+03  0.47000000000E+01 0.  1.
          5    1    5    5  503    0 -0.59218648863E+02  0.39804781488E+02 -0.27134948794E+03  0.28061344160E+03  0.47000000000E+01 0. -1.
         -5    1    5    5    0  503  0.17363422927E+02  0.57946609457E+01  0.47867533539E+01  0.19495372756E+02  0.47000000000E+01 0. -1.
<mgrwt>
<rscale>  0 0.27575207E+03</rscale>
<asrwt>0</asrwt>
<pdfrwt beam="1">  1        2 0.46306420E-02 0.27575207E+03</pdfrwt>
<pdfrwt beam="2">  1       -2 0.97164958E-01 0.27575207E+03</pdfrwt>
<totfact> 0.15954028E+03</totfact>
</mgrwt>
</event>
<event>
 9    1  0.8285222E-001  0.2888104E+03  0.7818608E-02  0.1090972E+00
          2   -1    0    0  501    0  0.00000000000E+00  0.00000000000E+00  0.92083288479E+03  0.92083288479E+03  0.00000000000E+00 0.  1.
         -2   -1    0    0    0  501 -0.00000000000E+00 -0.00000000000E+00 -0.22645652508E+02  0.22645652508E+02  0.00000000000E+00 0.  1.
         35    2    1    2    0    0  0.00000000000E+00  0.00000000000E+00  0.89818723228E+03  0.94347853730E+03  0.28881039820E+03 0.  0.
         25    2    3    3    0    0 -0.67521885559E+02 -0.20461244028E+02  0.42292786909E+03  0.44692042888E+03  0.12606355448E+03 0.  0.
         25    2    3    3    0    0  0.67521885559E+02  0.20461244028E+02  0.47525936320E+03  0.49655810841E+03  0.12538191731E+03 0.  0.
          5    1    4    4  502    0 -0.35918394326E+02 -0.49256863202E+02  0.38422267716E+03  0.38905722621E+03  0.47000000000E+01 0.  1.
         -5    1    4    4    0  502 -0.31603491233E+02  0.28795619174E+02  0.38705191930E+02  0.57863202677E+02  0.47000000000E+01 0.  1.
          5    1    5    5  503    0 -0.86777307038E+01  0.45343409834E+02  0.30263705182E+03  0.30617413829E+03  0.47000000000E+01 0. -1.
         -5    1    5    5    0  503  0.76199616263E+02 -0.24882165806E+02  0.17262231138E+03  0.19038397013E+03  0.47000000000E+01 0. -1.
<mgrwt>
<rscale>  0 0.28881040E+03</rscale>
<asrwt>0</asrwt>
<pdfrwt beam="1">  1        2 0.14166657E+00 0.28881040E+03</pdfrwt>
<pdfrwt beam="2">  1       -2 0.34839473E-02 0.28881040E+03</pdfrwt>
<totfact> 0.99612624E+03</totfact>
</mgrwt>
</event>
<event>
 9    1  0.8285222E-001  0.2563007E+03  0.7818608E-02  0.1109386E+00
          1   -1    0    0  501    0  0.00000000000E+00  0.00000000000E+00  0.12288857002E+03  0.12288857002E+03  0.00000000000E+00 0. -1.
         -1   -1    0    0    0  501 -0.00000000000E+00 -0.00000000000E+00 -0.13363741180E+03  0.13363741180E+03  0.00000000000E+00 0. -1.
         35    2    1    2    0    0 -0.71054273576E-14 -0.35527136788E-14 -0.10748841783E+02  0.25652598183E+03  0.25630068621E+03 0.  0.
         25    2    3    3    0    0 -0.36667508345E+02 -0.47491819703E+00 -0.29403515325E+01  0.12593128017E+03  0.12043799211E+03 0.  0.
         25    2    3    3    0    0  0.36667508345E+02  0.47491819703E+00 -0.78084902503E+01  0.13059470166E+03  0.12509704979E+03 0.  0.
          5    1    4    4  502    0 -0.69181162770E+02  0.86775474284E+01 -0.35848389520E+02  0.78539990723E+02  0.47000000000E+01 0. -1.
         -5    1    4    4    0  502  0.32513654425E+02 -0.91524656254E+01  0.32908037988E+02  0.47391289446E+02  0.47000000000E+01 0. -1.
          5    1    5    5  503    0  0.33319962031E+02 -0.44151143287E+02  0.37300101913E+02  0.66879974028E+02  0.47000000000E+01 0. -1.
         -5    1    5    5    0  503  0.33475463147E+01  0.44626061484E+02 -0.45108592163E+02  0.63714727629E+02  0.47000000000E+01 0. -1.
<mgrwt>
<rscale>  0 0.25630069E+03</rscale>
<asrwt>0</asrwt>
<pdfrwt beam="1">  1        1 0.18905934E-01 0.25630069E+03</pdfrwt>
<pdfrwt beam="2">  1       -1 0.20559602E-01 0.25630069E+03</pdfrwt>
<totfact> 0.52388707E+03</totfact>
</mgrwt>
</event>
<event>
 9    1  0.8285222E-001  0.2802571E+03  0.7818608E-02  0.1095549E+00
         -2   -1    0    0    0  501 -0.00000000000E+00  0.00000000000E+00  0.10308298355E+02  0.10308298355E+02  0.00000000000E+00 0. -1.
          2   -1    0    0  501    0  0.00000000000E+00 -0.00000000000E+00 -0.19048747145E+04  0.19048747145E+04  0.00000000000E+00 0. -1.
         35    2    1    2    0    0  0.14210854715E-13 -0.35527136788E-14 -0.18945664161E+04  0.19151830128E+04  0.28025714540E+03 0.  0.
         25    2    3    3    0    0  0.65791692360E+02 -0.87643469970E+01 -0.10347975635E+04  0.10435925481E+04  0.11778815080E+03 0.  0.
         25    2    3    3    0    0 -0.65791692360E+02  0.87643469970E+01 -0.85976885260E+03  0.87159046471E+03  0.12673633144E+03 0.  0.
          5    1    4    4  502    0  0.18352990265E+02 -0.36506884592E+02 -0.84350328905E+03  0.84450546091E+03  0.47000000000E+01 0.  1.
         -5    1    4    4    0  502  0.47438702095E+02  0.27742537595E+02 -0.19129427447E+03  0.19908708721E+03  0.47000000000E+01 0.  1.
          5    1    5    5  503    0 -0.10348922210E+03  0.21666513511E+01 -0.66734187089E+03  0.67533841599E+03  0.47000000000E+01 0. -1.
         -5    1    5    5    0  503  0.37697529736E+02  0.65976956459E+01 -0.19242698171E+03  0.19625204871E+03  0.47000000000E+01 0. -1.
<mgrwt>
<rscale>  0 0.28025715E+03</rscale>
<asrwt>0</asrwt>
<pdfrwt beam="1">  1        2 0.29305763E+00 0.28025715E+03</pdfrwt>
<pdfrwt beam="2">  1       -2 0.15858921E-02 0.28025715E+03</pdfrwt>
<totfact> 0.90669310E+03</totfact>
</mgrwt>
</event>
<event>
 9    1  0.8285222E-001  0.2856789E+03  0.7818608E-02  0.1092627E+00
          2   -1    0    0  501    0  0.00000000000E+00  0.00000000000E+00  0.47920215181E+03  0.47920215181E+03  0.00000000000E+00 0.  1.
         -2   -1    0    0    0  501 -0.00000000000E+00 -0.00000000000E+00 -0.42577248496E+02  0.42577248496E+02  0.00000000000E+00 0.  1.
         35    2    1    2    0    0  0.00000000000E+00 -0.71054273576E-14  0.43662490331E+03  0.52177940031E+03  0.28567890435E+03 0.  0.
         25    2    3    3    0    0 -0.13867078342E+02  0.41407052373E+02  0.31575812833E+03  0.34283218862E+03  0.12618983358E+03 0.  0.
         25    2    3    3    0    0  0.13867078342E+02 -0.41407052373E+02  0.12086677498E+03  0.17894721168E+03  0.12452504739E+03 0.  0.
          5    1    4    4  502    0  0.37483731147E+02 -0.11135287914E+02  0.35352821156E+02  0.52923876476E+02  0.47000000000E+01 0.  1.
         -5    1    4    4    0  502 -0.51350809489E+02  0.52542340287E+02  0.28040530718E+03  0.28990831214E+03  0.47000000000E+01 0.  1.
          5    1    5    5  503    0  0.63347336799E+02 -0.18181907992E+02  0.10081257465E+03  0.12053519015E+03  0.47000000000E+01 0.  1.
         -5    1    5    5    0  503 -0.49480258458E+02 -0.23225144381E+02  0.20054200335E+02  0.58412021533E+02  0.47000000000E+01 0.  1.
<mgrwt>
<rscale>  0 0.28567890E+03</rscale>
<asrwt>0</asrwt>
<pdfrwt beam="1">  1        2 0.73723404E-01 0.28567890E+03</pdfrwt>
<pdfrwt beam="2">  1       -2 0.65503463E-02 0.28567890E+03</pdfrwt>
<totfact> 0.84053912E+03</totfact>
</mgrwt>
</event>
<event>
 9    1  0.8285222E-001  0.2733840E+03  0.7818608E-02  0.1099358E+00
          1   -1    0    0  501    0  0.00000000000E+00  0.00000000000E+00  0.75052918491E+03  0.75052918491E+03  0.00000000000E+00 0.  1.
         -1   -1    0    0    0  501 -0.00000000000E+00 -0.00000000000E+00 -0.24895371149E+02  0.24895371149E+02  0.00000000000E+00 0.  1.
         35    2    1    2    0    0  0.00000000000E+00  0.00000000000E+00  0.72563381376E+03  0.77542455606E+03  0.27338399819E+03 0.  0.
         25    2    3    3    0    0 -0.44003967030E+02  0.21074250057E+02  0.28823937415E+03  0.31777549105E+03  0.12457468754E+03 0.  0.
         25    2    3    3    0    0  0.44003967030E+02 -0.21074250057E+02  0.43739443962E+03  0.45764906501E+03  0.12549222193E+03 0.  0.
          5    1    4    4  502    0 -0.31516405806E+02  0.60283451775E+02  0.25701651232E+03  0.26590779605E+03  0.47000000000E+01 0.  1.
         -5    1    4    4    0  502 -0.12487561224E+02 -0.39209201718E+02  0.31222861825E+02  0.51867695006E+02  0.47000000000E+01 0.  1.
          5    1    5    5  503    0  0.36697937300E+02 -0.66697478374E+02  0.35467782770E+03  0.36278608530E+03  0.47000000000E+01 0.  1.
         -5    1    5    5    0  503  0.73060297295E+01  0.45623228317E+02  0.82716611913E+02  0.94862979707E+02  0.47000000000E+01 0.  1.
<mgrwt>
<rscale>  0 0.27338400E+03</rscale>
<asrwt>0</asrwt>
<pdfrwt beam="1">  1        1 0.11546601E+00 0.27338400E+03</pdfrwt>
<pdfrwt beam="2">  1       -1 0.38300577E-02 0.27338400E+03</pdfrwt>
<totfact> 0.66496412E+03</totfact>
</mgrwt>
</event>
<event>
 9    1  0.8285222E-001  0.2756087E+03  0.7818608E-02  0.1098112E+00
         -2   -1    0    0    0  501 -0.00000000000E+00  0.00000000000E+00  0.81220695510E+01  0.81220695510E+01  0.00000000000E+00 0. -1.
          2   -1    0    0  501    0  0.00000000000E+00 -0.00000000000E+00 -0.23380792744E+04  0.23380792744E+04  0.00000000000E+00 0. -1.
         35    2    1    2    0    0  0.00000000000E+00 -0.71054273576E-14 -0.23299572049E+04  0.23462013440E+04  0.27560872615E+03 0.  0.
         25    2    3    3    0    0  0.34573283192E+02  0.33103941190E+02 -0.14625488887E+04  0.14685931477E+04  0.12419902836E+03 0.  0.
         25    2    3    3    0    0 -0.34573283192E+02 -0.33103941190E+02 -0.86740831615E+03  0.87760819630E+03  0.12453022309E+03 0.  0.
          5    1    4    4  502    0  0.41301438938E+02  0.61459544425E+02 -0.48901447031E+03  0.49461128842E+03  0.47000000000E+01 0.  1.
         -5    1    4    4    0  502 -0.67281557461E+01 -0.28355603235E+02 -0.97353441841E+03  0.97398185925E+03  0.47000000000E+01 0.  1.
          5    1    5    5  503    0  0.95759044650E+01  0.42351136016E+02 -0.21863118356E+03  0.22295066964E+03  0.47000000000E+01 0. -1.
         -5    1    5    5    0  503 -0.44149187657E+02 -0.75455077207E+02 -0.64877713258E+03  0.65465752666E+03  0.47000000000E+01 0. -1.
<mgrwt>
<rscale>  0 0.27560873E+03</rscale>
<asrwt>0</asrwt>
<pdfrwt beam="1">  1        2 0.35970444E+00 0.27560873E+03</pdfrwt>
<pdfrwt beam="2">  1       -2 0.12495494E-02 0.27560873E+03</pdfrwt>
<totfact> 0.75690156E+03</totfact>
</mgrwt>
</event>
<event>
 9    1  0.8285222E-001  0.2770700E+03  0.7818608E-02  0.1097300E+00
          2   -1    0    0  501    0  0.00000000000E+00  0.00000000000E+00  0.59567865299E+02  0.59567865299E+02  0.00000000000E+00 0.  1.
         -2   -1    0    0    0  501 -0.00000000000E+00 -0.00000000000E+00 -0.32218619658E+03  0.32218619658E+03  0.00000000000E+00 0.  1.
         35    2    1    2    0    0  0.00000000000E+00  0.00000000000E+00 -0.26261833128E+03  0.38175406188E+03  0.27706998364E+03 0.  0.
         25    2    3    3    0    0 -0.37055494698E+02  0.38433324505E+01 -0.19525257995E+03  0.23540936895E+03  0.12611946765E+03 0.  0.
         25    2    3    3    0    0  0.37055494698E+02 -0.38433324505E+01 -0.67365751334E+02  0.14634469293E+03  0.12446181665E+03 0.  0.
          5    1    4    4  502    0 -0.60593636893E+02  0.16515730530E+02 -0.33383672672E+02  0.71280556872E+02  0.47000000000E+01 0.  1.
         -5    1    4    4    0  502  0.23538142195E+02 -0.12672398080E+02 -0.16186890728E+03  0.16412881208E+03  0.47000000000E+01 0.  1.
          5    1    5    5  503    0  0.51056541854E+02  0.40088729224E+02 -0.75075833806E+02  0.99359687492E+02  0.47000000000E+01 0. -1.
         -5    1    5    5    0  503 -0.14001047156E+02 -0.43932061674E+02  0.77100824719E+01  0.46985005439E+02  0.47000000000E+01 0. -1.
<mgrwt>
<rscale>  0 0.27706998E+03</rscale>
<asrwt>0</asrwt>
<pdfrwt beam="1">  1        2 0.91642870E-02 0.27706998E+03</pdfrwt>
<pdfrwt beam="2">  1       -2 0.49567107E-01 0.27706998E+03</pdfrwt>
<totfact> 0.27867117E+03</totfact>
</mgrwt>
</event>
<event>
 9    1  0.8285222E-001  0.2747830E+03  0.7818608E-02  0.1098573E+00
          2   -1    0    0  501    0  0.00000000000E+00  0.00000000000E+00  0.10343022199E+04  0.10343022199E+04  0.00000000000E+00 0.  1.
         -2   -1    0    0    0  501 -0.00000000000E+00 -0.00000000000E+00 -0.18250396011E+02  0.18250396011E+02  0.00000000000E+00 0.  1.
         35    2    1    2    0    0  0.17763568394E-14 -0.71054273576E-14  0.10160518239E+04  0.10525526159E+04  0.27478300608E+03 0.  0.
         25    2    3    3    0    0  0.12303584386E+02 -0.36676518166E+02  0.35066072259E+03  0.37432506667E+03  0.12513899469E+03 0.  0.
         25    2    3    3    0    0 -0.12303584386E+02  0.36676518166E+02  0.66539110129E+03  0.67822754924E+03  0.12550197487E+03 0.  0.
          5    1    4    4  502    0  0.27475568774E+02  0.11046556825E+02  0.12567365105E+02  0.32510951429E+02  0.47000000000E+01 0. -1.
         -5    1    4    4    0  502 -0.15171984388E+02 -0.47723074992E+02  0.33809335749E+03  0.34181411524E+03  0.47000000000E+01 0. -1.
          5    1    5    5  503    0  0.19283060276E+02  0.75458639266E+02  0.47264079346E+03  0.47903784015E+03  0.47000000000E+01 0.  1.
         -5    1    5    5    0  503 -0.31586644663E+02 -0.38782121100E+02  0.19275030783E+03  0.19918970909E+03  0.47000000000E+01 0.  1.
<mgrwt>
<rscale>  0 0.27478301E+03</rscale>
<asrwt>0</asrwt>
<pdfrwt beam="1">  1        2 0.15912337E+00 0.27478301E+03</pdfrwt>
<pdfrwt beam="2">  1       -2 0.28077540E-02 0.27478301E+03</pdfrwt>
<totfact> 0.11669535E+04</totfact>
</mgrwt>
</event>
<event>
 9    1  0.8285222E-001  0.2735296E+03  0.7818608E-02  0.1099276E+00
         -2   -1    0    0    0  501 -0.00000000000E+00  0.00000000000E+00  0.12614556745E+02  0.12614556745E+02  0.00000000000E+00 0.  1.
          2   -1    0    0  501    0  0.00000000000E+00 -0.00000000000E+00 -0.14827800432E+04  0.14827800432E+04  0.00000000000E+00 0.  1.
         35    2    1    2    0    0  0.53290705182E-14  0.00000000000E+00 -0.14701654864E+04  0.14953945999E+04  0.27352961811E+03 0.  0.
         25    2    3    3    0    0  0.97552982036E+01  0.43272084489E+02 -0.55381628377E+03  0.56947933670E+03  0.12500639834E+03 0.  0.
         25    2    3    3    0    0 -0.97552982036E+01 -0.43272084489E+02 -0.91634920268E+03  0.92591526323E+03  0.12512223744E+03 0.  0.
          5    1    4    4  502    0 -0.82671364010E+01  0.43156628583E+02 -0.54826637676E+03  0.55004449822E+03  0.47000000000E+01 0.  1.
         -5    1    4    4    0  502  0.18022434605E+02  0.11545590629E+00 -0.55499070094E+01  0.19434838486E+02  0.47000000000E+01 0.  1.
          5    1    5    5  503    0  0.54883530363E+02 -0.32410954725E+02 -0.55198735256E+03  0.55567508427E+03  0.47000000000E+01 0.  1.
         -5    1    5    5    0  503 -0.64638828567E+02 -0.10861129764E+02 -0.36436185012E+03  0.37024017896E+03  0.47000000000E+01 0.  1.
<mgrwt>
<rscale>  0 0.27352962E+03</rscale>
<asrwt>0</asrwt>
<pdfrwt beam="1">  1        2 0.22812010E+00 0.27352962E+03</pdfrwt>
<pdfrwt beam="2">  1       -2 0.19407002E-02 0.27352962E+03</pdfrwt>
<totfact> 0.11261228E+04</totfact>
</mgrwt>
</event>
<event>
 9    1  0.8285222E-001  0.2704585E+03  0.7818608E-02  0.1101017E+00
          2   -1    0    0  501    0  0.00000000000E+00  0.00000000000E+00  0.16587046647E+04  0.16587046647E+04  0.00000000000E+00 0.  1.
         -2   -1    0    0    0  501 -0.00000000000E+00 -0.00000000000E+00 -0.11024840169E+02  0.11024840169E+02  0.00000000000E+00 0.  1.
         35    2    1    2    0    0 -0.35527136788E-14 -0.35527136788E-14  0.16476798245E+04  0.16697295049E+04  0.27045852781E+03 0.  0.
         25    2    3    3    0    0 -0.26957022943E+02  0.59623978213E+01  0.10565565393E+04  0.10648690582E+04  0.12989287484E+03 0.  0.
         25    2    3    3    0    0  0.26957022943E+02 -0.59623978213E+01  0.59112328518E+03  0.60486044670E+03  0.12516864792E+03 0.  0.
          5    1    4    4  502    0  0.89530828643E+01 -0.27476009563E+02  0.56832307561E+02  0.63930352549E+02  0.47000000000E+01 0.  1.
         -5    1    4    4    0  502 -0.35910105808E+02  0.33438407384E+02  0.99972423178E+03  0.10009387056E+04  0.47000000000E+01 0.  1.
          5    1    5    5  503    0  0.23194262328E+02 -0.64595472460E+02  0.29318991926E+03  0.30115273139E+03  0.47000000000E+01 0.  1.
         -5    1    5    5    0  503  0.37627606151E+01  0.58633074639E+02  0.29793336592E+03  0.30370771531E+03  0.47000000000E+01 0.  1.
<mgrwt>
<rscale>  0 0.27045853E+03</rscale>
<asrwt>0</asrwt>
<pdfrwt beam="1">  1        2 0.25518513E+00 0.27045853E+03</pdfrwt>
<pdfrwt beam="2">  1       -2 0.16961306E-02 0.27045853E+03</pdfrwt>
<totfact> 0.11062889E+04</totfact>
</mgrwt>
</event>
<event>
 9    1  0.8285222E-001  0.2775479E+03  0.7818608E-02  0.1097036E+00
          1   -1    0    0  501    0  0.00000000000E+00  0.00000000000E+00  0.94067450308E+02  0.94067450308E+02  0.00000000000E+00 0. -1.
         -1   -1    0    0    0  501 -0.00000000000E+00 -0.00000000000E+00 -0.20472773280E+03  0.20472773280E+03  0.00000000000E+00 0. -1.
         35    2    1    2    0    0  0.71054273576E-14 -0.71054273576E-14 -0.11066028250E+03  0.29879518311E+03  0.27754794780E+03 0.  0.
         25    2    3    3    0    0 -0.20128730241E+02 -0.28040033018E+02 -0.11155602142E+03  0.17096728697E+03  0.12487456933E+03 0.  0.
         25    2    3    3    0    0  0.20128730241E+02  0.28040033018E+02  0.89573892811E+00  0.12782789614E+03  0.12307623430E+03 0.  0.
          5    1    4    4  502    0 -0.41509843322E+02 -0.56755208960E+02 -0.21088068097E+02  0.73559618357E+02  0.47000000000E+01 0.  1.
         -5    1    4    4    0  502  0.21381113081E+02  0.28715175943E+02 -0.90467953328E+02  0.97407668616E+02  0.47000000000E+01 0.  1.
          5    1    5    5  503    0 -0.19551908871E+02  0.60614322418E+02  0.27829412827E+02  0.69663042146E+02  0.47000000000E+01 0.  1.
         -5    1    5    5    0  503  0.39680639112E+02 -0.32574289401E+02 -0.26933673899E+02  0.58164853992E+02  0.47000000000E+01 0.  1.
<mgrwt>
<rscale>  0 0.27754795E+03</rscale>
<asrwt>0</asrwt>
<pdfrwt beam="1">  1        1 0.14471916E-01 0.27754795E+03</pdfrwt>
<pdfrwt beam="2">  1       -1 0.31496574E-01 0.27754795E+03</pdfrwt>
<totfact> 0.36540328E+03</totfact>
</mgrwt>
</event>
<event>
 9    1  0.8285222E-001  0.2742136E+03  0.7818608E-02  0.1098892E+00
          2   -1    0    0  501    0  0.00000000000E+00  0.00000000000E+00  0.50961745429E+02  0.50961745429E+02  0.00000000000E+00 0. -1.
         -2   -1    0    0    0  501 -0.00000000000E+00 -0.00000000000E+00 -0.36887038856E+03  0.36887038856E+03  0.00000000000E+00 0. -1.
         35    2    1    2    0    0 -0.71054273576E-14  0.00000000000E+00 -0.31790864313E+03  0.41983213399E+03  0.27421363087E+03 0.  0.
         25    2    3    3    0    0 -0.33922104067E+02 -0.36926830007E+02 -0.14023791988E+03  0.19687035145E+03  0.12875154830E+03 0.  0.
         25    2    3    3    0    0  0.33922104067E+02  0.36926830007E+02 -0.17767072325E+03  0.22296178254E+03  0.12502308048E+03 0.  0.
          5    1    4    4  502    0 -0.73423625860E+02 -0.54937443150E+02 -0.11217216462E+03  0.14496149837E+03  0.47000000000E+01 0.  1.
         -5    1    4    4    0  502  0.39501521793E+02  0.18010613143E+02 -0.28065755257E+02  0.51908853078E+02  0.47000000000E+01 0.  1.
          5    1    5    5  503    0 -0.32513614035E+01  0.63951320659E+02 -0.16186558679E+03  0.17413472069E+03  0.47000000000E+01 0.  1.
         -5    1    5    5    0  503  0.37173465471E+02 -0.27024490652E+02 -0.15805136469E+02  0.48827061850E+02  0.47000000000E+01 0.  1.
<mgrwt>
<rscale>  0 0.27421363E+03</rscale>
<asrwt>0</asrwt>
<pdfrwt beam="1">  1        2 0.78402686E-02 0.27421363E+03</pdfrwt>
<pdfrwt beam="2">  1       -2 0.56749290E-01 0.27421363E+03</pdfrwt>
<totfact> 0.25818974E+03</totfact>
</mgrwt>
</event>
<event>
 9    1  0.8285222E-001  0.3044339E+03  0.7818608E-02  0.1083045E+00
          1   -1    0    0  501    0  0.00000000000E+00  0.00000000000E+00  0.21668810769E+02  0.21668810769E+02  0.00000000000E+00 0.  1.
         -1   -1    0    0    0  501 -0.00000000000E+00 -0.00000000000E+00 -0.10692788942E+04  0.10692788942E+04  0.00000000000E+00 0.  1.
         35    2    1    2    0    0  0.00000000000E+00 -0.71054273576E-14 -0.10476100834E+04  0.10909477049E+04  0.30443391413E+03 0.  0.
         25    2    3    3    0    0  0.23475010694E+02  0.42180016158E+02 -0.78121177320E+03  0.79257460060E+03  0.12470939431E+03 0.  0.
         25    2    3    3    0    0 -0.23475010694E+02 -0.42180016158E+02 -0.26639831021E+03  0.29837310435E+03  0.12541219968E+03 0.  0.
          5    1    4    4  502    0 -0.10325229517E+02 -0.22946642778E+02 -0.38504778637E+02  0.46237071245E+02  0.47000000000E+01 0.  1.
         -5    1    4    4    0  502  0.33800240212E+02  0.65126658936E+02 -0.74270699457E+03  0.74633752935E+03  0.47000000000E+01 0.  1.
          5    1    5    5  503    0 -0.61678500352E+02 -0.32645211205E+01 -0.65497701332E+02  0.90149505732E+02  0.47000000000E+01 0. -1.
         -5    1    5    5    0  503  0.38203489658E+02 -0.38915495038E+02 -0.20090060888E+03  0.20822359862E+03  0.47000000000E+01 0. -1.
<mgrwt>
<rscale>  0 0.30443391E+03</rscale>
<asrwt>0</asrwt>
<pdfrwt beam="1">  1        1 0.33336636E-02 0.30443391E+03</pdfrwt>
<pdfrwt beam="2">  1       -1 0.16450442E+00 0.30443391E+03</pdfrwt>
<totfact> 0.86731324E+02</totfact>
</mgrwt>
</event>
<event>
 9    1  0.8285222E-001  0.2730274E+03  0.7818608E-02  0.1099559E+00
         -2   -1    0    0    0  501 -0.00000000000E+00  0.00000000000E+00  0.87745656406E+01  0.87745656406E+01  0.00000000000E+00 0.  1.
          2   -1    0    0  501    0  0.00000000000E+00 -0.00000000000E+00 -0.21238652282E+04  0.21238652282E+04  0.00000000000E+00 0.  1.
         35    2    1    2    0    0  0.00000000000E+00  0.71054273576E-14 -0.21150906625E+04  0.21326397938E+04  0.27302743347E+03 0.  0.
         25    2    3    3    0    0 -0.37033293516E+02 -0.29788661250E+02 -0.84611769718E+03  0.85661654703E+03  0.12497168474E+03 0.  0.
         25    2    3    3    0    0  0.37033293516E+02  0.29788661250E+02 -0.12689729653E+04  0.12760232468E+04  0.12523621833E+03 0.  0.
          5    1    4    4  502    0  0.19365246957E+02 -0.10814596100E+01 -0.20665382173E+02  0.28728563573E+02  0.47000000000E+01 0. -1.
         -5    1    4    4    0  502 -0.56398540474E+02 -0.28707201640E+02 -0.82545231501E+03  0.82788798346E+03  0.47000000000E+01 0. -1.
          5    1    5    5  503    0  0.93687944339E+01  0.40842168032E+02 -0.13033609052E+03  0.13698701943E+03  0.47000000000E+01 0.  1.
         -5    1    5    5    0  503  0.27664499082E+02 -0.11053506782E+02 -0.11386368748E+04  0.11390362273E+04  0.47000000000E+01 0.  1.
<mgrwt>
<rscale>  0 0.27302743E+03</rscale>
<asrwt>0</asrwt>
<pdfrwt beam="1">  1        2 0.32674832E+00 0.27302743E+03</pdfrwt>
<pdfrwt beam="2">  1       -2 0.13499339E-02 0.27302743E+03</pdfrwt>
<totfact> 0.87967798E+03</totfact>
</mgrwt>
</event>
<event>
 9    1  0.8285222E-001  0.2894327E+03  0.7818608E-02  0.1090646E+00
         -2   -1    0    0    0  501 -0.00000000000E+00  0.00000000000E+00  0.11738247674E+03  0.11738247674E+03  0.00000000000E+00 0. -1.
          2   -1    0    0  501    0  0.00000000000E+00 -0.00000000000E+00 -0.17841522446E+03  0.17841522446E+03  0.00000000000E+00 0. -1.
         35    2    1    2    0    0  0.71054273576E-14 -0.71054273576E-14 -0.61032747720E+02  0.29579770119E+03  0.28943269293E+03 0.  0.
         25    2    3    3    0    0  0.45726011708E+02  0.41832200381E+02  0.93044505581E+01  0.13941663761E+03  0.12453764453E+03 0.  0.
         25    2    3    3    0    0 -0.45726011708E+02 -0.41832200381E+02 -0.70337198278E+02  0.15638106359E+03  0.12516754552E+03 0.  0.
          5    1    4    4  502    0 -0.11613301855E+02  0.31446085298E+01 -0.47851621330E+02  0.49564352177E+02  0.47000000000E+01 0.  1.
         -5    1    4    4    0  502  0.57339313564E+02  0.38687591851E+02  0.57156071888E+02  0.89852285429E+02  0.47000000000E+01 0.  1.
          5    1    5    5  503    0 -0.64294246067E+02  0.25746653268E+02 -0.35992245970E+02  0.78193171069E+02  0.47000000000E+01 0. -1.
         -5    1    5    5    0  503  0.18568234359E+02 -0.67578853648E+02 -0.34344952308E+02  0.78187892520E+02  0.47000000000E+01 0. -1.
<mgrwt>
<rscale>  0 0.28943269E+03</rscale>
<asrwt>0</asrwt>
<pdfrwt beam="1">  1        2 0.27448496E-01 0.28943269E+03</pdfrwt>
<pdfrwt beam="2">  1       -2 0.18058843E-01 0.28943269E+03</pdfrwt>
<totfact> 0.48285336E+03</totfact>
</mgrwt>
</event>
<event>
 9    1  0.8285222E-001  0.2752325E+03  0.7818608E-02  0.1098322E+00
          3   -1    0    0  501    0  0.00000000000E+00  0.00000000000E+00  0.29832059751E+03  0.29832059751E+03  0.00000000000E+00 0.  1.
         -3   -1    0    0    0  501 -0.00000000000E+00 -0.00000000000E+00 -0.63482833032E+02  0.63482833032E+02  0.00000000000E+00 0.  1.
         35    2    1    2    0    0  0.71054273576E-14 -0.14210854715E-13  0.23483776448E+03  0.36180343055E+03  0.27523253210E+03 0.  0.
         25    2    3    3    0    0  0.30180517798E+02 -0.34310238235E+02  0.70500148804E+02  0.15091379519E+03  0.12536605001E+03 0.  0.
         25    2    3    3    0    0 -0.30180517798E+02  0.34310238235E+02  0.16433761568E+03  0.21088963535E+03  0.12401423414E+03 0.  0.
          5    1    4    4  502    0  0.65732406614E+02 -0.22404586288E+02  0.85508382614E+02  0.11025646586E+03  0.47000000000E+01 0.  1.
         -5    1    4    4    0  502 -0.35551888816E+02 -0.11905651947E+02 -0.15008233810E+02  0.40657329336E+02  0.47000000000E+01 0.  1.
          5    1    5    5  503    0  0.45003185278E+02  0.34195836751E+02  0.75020540918E+02  0.94046868613E+02  0.47000000000E+01 0. -1.
         -5    1    5    5    0  503 -0.75183703076E+02  0.11440148350E+00  0.89317074759E+02  0.11684276674E+03  0.47000000000E+01 0. -1.
<mgrwt>
<rscale>  0 0.27523253E+03</rscale>
<asrwt>0</asrwt>
<pdfrwt beam="1">  1        3 0.45895476E-01 0.27523253E+03</pdfrwt>
<pdfrwt beam="2">  1       -3 0.97665899E-02 0.27523253E+03</pdfrwt>
<totfact> 0.92545268E+02</totfact>
</mgrwt>
</event>
<event>
 9    1  0.8285222E-001  0.2745317E+03  0.7818608E-02  0.1098714E+00
         -2   -1    0    0    0  501 -0.00000000000E+00  0.00000000000E+00  0.88283492484E+02  0.88283492484E+02  0.00000000000E+00 0.  1.
          2   -1    0    0  501    0  0.00000000000E+00 -0.00000000000E+00 -0.21342510360E+03  0.21342510360E+03  0.00000000000E+00 0.  1.
         35    2    1    2    0    0  0.00000000000E+00  0.71054273576E-14 -0.12514161111E+03  0.30170859608E+03  0.27453169966E+03 0.  0.
         25    2    3    3    0    0  0.70218360116E+01 -0.45417906822E+02 -0.23873272886E+02  0.13552886553E+03  0.12524395311E+03 0.  0.
         25    2    3    3    0    0 -0.70218360116E+01  0.45417906822E+02 -0.10126833823E+03  0.16617973055E+03  0.12348414505E+03 0.  0.
          5    1    4    4  502    0 -0.51387930261E+02  0.10216147627E+02 -0.89113195769E+01  0.53353450362E+02  0.47000000000E+01 0.  1.
         -5    1    4    4    0  502  0.58409766273E+02 -0.55634054449E+02 -0.14961953309E+02  0.82175415163E+02  0.47000000000E+01 0.  1.
          5    1    5    5  503    0 -0.53868377209E+02  0.23560445342E+02 -0.81127217085E+01  0.59538247382E+02  0.47000000000E+01 0.  1.
         -5    1    5    5    0  503  0.46846541197E+02  0.21857461480E+02 -0.93155616517E+02  0.10664148317E+03  0.47000000000E+01 0.  1.
<mgrwt>
<rscale>  0 0.27453170E+03</rscale>
<asrwt>0</asrwt>
<pdfrwt beam="1">  1        2 0.32834631E-01 0.27453170E+03</pdfrwt>
<pdfrwt beam="2">  1       -2 0.13582076E-01 0.27453170E+03</pdfrwt>
<totfact> 0.63551241E+03</totfact>
</mgrwt>
</event>
<event>
 9    1  0.8285222E-001  0.2717967E+03  0.7818608E-02  0.1100256E+00
          4   -1    0    0  501    0  0.00000000000E+00  0.00000000000E+00  0.27800019103E+02  0.27800019103E+02  0.00000000000E+00 0.  1.
         -4   -1    0    0    0  501 -0.00000000000E+00 -0.00000000000E+00 -0.66432916522E+03  0.66432916522E+03  0.00000000000E+00 0.  1.
         35    2    1    2    0    0 -0.35527136788E-14  0.00000000000E+00 -0.63652914612E+03  0.69212918433E+03  0.27179671436E+03 0.  0.
         25    2    3    3    0    0 -0.60901503497E+01  0.43443769317E+02 -0.39978282604E+03  0.42089322491E+03  0.12409813759E+03 0.  0.
         25    2    3    3    0    0  0.60901503497E+01 -0.43443769317E+02 -0.23674632008E+03  0.27123595942E+03  0.12488264325E+03 0.  0.
          5    1    4    4  502    0 -0.51454723408E+02 -0.12988434602E+02 -0.23295971043E+03  0.23897406695E+03  0.47000000000E+01 0. -1.
         -5    1    4    4    0  502  0.45364573058E+02  0.56432203920E+02 -0.16682311561E+03  0.18191915796E+03  0.47000000000E+01 0. -1.
          5    1    5    5  503    0  0.29869622887E+02 -0.21857598819E+01 -0.63310813874E+00  0.30322644073E+02  0.47000000000E+01 0. -1.
         -5    1    5    5    0  503 -0.23779472537E+02 -0.41258009435E+02 -0.23611321194E+03  0.24091331534E+03  0.47000000000E+01 0. -1.
<mgrwt>
<rscale>  0 0.27179671E+03</rscale>
<asrwt>0</asrwt>
<pdfrwt beam="1">  1        4 0.42769260E-02 0.27179671E+03</pdfrwt>
<pdfrwt beam="2">  1       -4 0.10220449E+00 0.27179671E+03</pdfrwt>
<totfact> 0.46599311E+02</totfact>
</mgrwt>
</event>
<event>
 9    1  0.8285222E-001  0.2753256E+03  0.7818608E-02  0.1098270E+00
         -2   -1    0    0    0  501 -0.00000000000E+00  0.00000000000E+00  0.28665244845E+02  0.28665244845E+02  0.00000000000E+00 0. -1.
          2   -1    0    0  501    0  0.00000000000E+00 -0.00000000000E+00 -0.66111598476E+03  0.66111598476E+03  0.00000000000E+00 0. -1.
         35    2    1    2    0    0  0.14210854715E-13 -0.35527136788E-14 -0.63245073992E+03  0.68978122961E+03  0.27532563683E+03 0.  0.
         25    2    3    3    0    0 -0.51063357663E+02 -0.22990019622E+02 -0.33845644238E+03  0.36522921421E+03  0.12531403760E+03 0.  0.
         25    2    3    3    0    0  0.51063357663E+02  0.22990019622E+02 -0.29399429754E+03  0.32455201540E+03  0.12556016972E+03 0.  0.
          5    1    4    4  502    0 -0.68867209877E+02 -0.64429329252E+01 -0.81136988765E+02  0.10672162352E+03  0.47000000000E+01 0. -1.
         -5    1    4    4    0  502  0.17803852214E+02 -0.16547086697E+02 -0.25731945362E+03  0.25850759069E+03  0.47000000000E+01 0. -1.
          5    1    5    5  503    0  0.75887183220E+02 -0.26094071770E+02 -0.14717604969E+03  0.16769807619E+03  0.47000000000E+01 0. -1.
         -5    1    5    5    0  503 -0.24823825557E+02  0.49084091392E+02 -0.14681824785E+03  0.15685393921E+03  0.47000000000E+01 0. -1.
<mgrwt>
<rscale>  0 0.27532564E+03</rscale>
<asrwt>0</asrwt>
<pdfrwt beam="1">  1        2 0.10171014E+00 0.27532564E+03</pdfrwt>
<pdfrwt beam="2">  1       -2 0.44100383E-02 0.27532564E+03</pdfrwt>
<totfact> 0.10613126E+04</totfact>
</mgrwt>
</event>
<event>
 9    1  0.8285222E-001  0.2791625E+03  0.7818608E-02  0.1096147E+00
          1   -1    0    0  501    0  0.00000000000E+00  0.00000000000E+00  0.26533131386E+03  0.26533131386E+03  0.00000000000E+00 0.  1.
         -1   -1    0    0    0  501 -0.00000000000E+00 -0.00000000000E+00 -0.73428694561E+02  0.73428694561E+02  0.00000000000E+00 0.  1.
         35    2    1    2    0    0  0.00000000000E+00 -0.35527136788E-14  0.19190261930E+03  0.33876000843E+03  0.27916254766E+03 0.  0.
         25    2    3    3    0    0  0.26725752780E+02 -0.16716695567E+02  0.36596562098E+02  0.13650406058E+03  0.12767277088E+03 0.  0.
         25    2    3    3    0    0 -0.26725752780E+02  0.16716695567E+02  0.15530605721E+03  0.20225594785E+03  0.12567331962E+03 0.  0.
          5    1    4    4  502    0 -0.12807244323E+02  0.16795314331E+02  0.70931949440E+02  0.74158880399E+02  0.47000000000E+01 0. -1.
         -5    1    4    4    0  502  0.39532997103E+02 -0.33512009898E+02 -0.34335387342E+02  0.62345180177E+02  0.47000000000E+01 0. -1.
          5    1    5    5  503    0  0.18053942824E+02  0.62368466149E+02  0.85640038687E+02  0.10757358713E+03  0.47000000000E+01 0.  1.
         -5    1    5    5    0  503 -0.44779695604E+02 -0.45651770582E+02  0.69666018518E+02  0.94682360722E+02  0.47000000000E+01 0.  1.
<mgrwt>
<rscale>  0 0.27916255E+03</rscale>
<asrwt>0</asrwt>
<pdfrwt beam="1">  1        1 0.40820202E-01 0.27916255E+03</pdfrwt>
<pdfrwt beam="2">  1       -1 0.11296722E-01 0.27916255E+03</pdfrwt>
<totfact> 0.51279261E+03</totfact>
</mgrwt>
</event>
<event>
 9    1  0.8285222E-001  0.2652040E+03  0.7818608E-02  0.1104056E+00
          1   -1    0    0  501    0  0.00000000000E+00  0.00000000000E+00  0.67406908781E+02  0.67406908781E+02  0.00000000000E+00 0. -1.
         -1   -1    0    0    0  501 -0.00000000000E+00 -0.00000000000E+00 -0.26085293782E+03  0.26085293782E+03  0.00000000000E+00 0. -1.
         35    2    1    2    0    0  0.00000000000E+00  0.00000000000E+00 -0.19344602904E+03  0.32825984660E+03  0.26520399835E+03 0.  0.
         25    2    3    3    0    0  0.12504044013E+02 -0.44200682595E+02 -0.67632083255E+02  0.14437145184E+03  0.11899145332E+03 0.  0.
         25    2    3    3    0    0 -0.12504044013E+02  0.44200682595E+02 -0.12581394578E+03  0.18388839476E+03  0.12599897347E+03 0.  0.
          5    1    4    4  502    0  0.62210815548E+02 -0.38415229398E+02 -0.22035669657E+02  0.76508667209E+02  0.47000000000E+01 0.  1.
         -5    1    4    4    0  502 -0.49706771535E+02 -0.57854531978E+01 -0.45596413599E+02  0.67862784633E+02  0.47000000000E+01 0.  1.
          5    1    5    5  503    0 -0.39535342926E+02  0.81322550170E+01 -0.13203389255E+03  0.13814563220E+03  0.47000000000E+01 0. -1.
         -5    1    5    5    0  503  0.27031298913E+02  0.36068427578E+02  0.62199467724E+01  0.45742762561E+02  0.47000000000E+01 0. -1.
<mgrwt>
<rscale>  0 0.26520400E+03</rscale>
<asrwt>0</asrwt>
<pdfrwt beam="1">  1        1 0.10370294E-01 0.26520400E+03</pdfrwt>
<pdfrwt beam="2">  1       -1 0.40131221E-01 0.26520400E+03</pdfrwt>
<totfact> 0.37247504E+03</totfact>
</mgrwt>
</event>
<event>
 9    1  0.8285222E-001  0.2735082E+03  0.7818608E-02  0.1099288E+00
         -1   -1    0    0    0  501 -0.00000000000E+00  0.00000000000E+00  0.13197757506E+03  0.13197757506E+03  0.00000000000E+00 0.  1.
          1   -1    0    0  501    0  0.00000000000E+00 -0.00000000000E+00 -0.14170349664E+03  0.14170349664E+03  0.00000000000E+00 0.  1.
         35    2    1    2    0    0  0.00000000000E+00  0.71054273576E-14 -0.97259215845E+01  0.27368107170E+03  0.27350819998E+03 0.  0.
         25    2    3    3    0    0  0.47748617566E+02 -0.27289047632E+02 -0.16233473254E+02  0.13697155771E+03  0.12439075274E+03 0.  0.
         25    2    3    3    0    0 -0.47748617566E+02  0.27289047632E+02  0.65075516694E+01  0.13670951399E+03  0.12499008116E+03 0.  0.
          5    1    4    4  502    0  0.72633323629E+02 -0.21781639566E+02 -0.52534236086E+02  0.92368693207E+02  0.47000000000E+01 0. -1.
         -5    1    4    4    0  502 -0.24884706064E+02 -0.55074080658E+01  0.36300762832E+02  0.44602864501E+02  0.47000000000E+01 0. -1.
          5    1    5    5  503    0 -0.57228914931E+02 -0.18769338654E+02  0.45348331994E+02  0.75538056583E+02  0.47000000000E+01 0. -1.
         -5    1    5    5    0  503  0.94802973653E+01  0.46058386286E+02 -0.38840780324E+02  0.61171457410E+02  0.47000000000E+01 0. -1.
<mgrwt>
<rscale>  0 0.27350820E+03</rscale>
<asrwt>0</asrwt>
<pdfrwt beam="1">  1        1 0.21800538E-01 0.27350820E+03</pdfrwt>
<pdfrwt beam="2">  1       -1 0.20304242E-01 0.27350820E+03</pdfrwt>
<totfact> 0.44610636E+03</totfact>
</mgrwt>
</event>
<event>
 9    1  0.8285222E-001  0.2856678E+03  0.7818608E-02  0.1092633E+00
          2   -1    0    0  501    0  0.00000000000E+00  0.00000000000E+00  0.56665099107E+03  0.56665099107E+03  0.00000000000E+00 0. -1.
         -2   -1    0    0    0  501 -0.00000000000E+00 -0.00000000000E+00 -0.36003680701E+02  0.36003680701E+02  0.00000000000E+00 0. -1.
         35    2    1    2    0    0  0.00000000000E+00 -0.71054273576E-14  0.53064731037E+03  0.60265467177E+03  0.28566778853E+03 0.  0.
         25    2    3    3    0    0  0.20862266628E+02  0.12552418927E+02  0.13497148783E+03  0.18672870868E+03  0.12671823360E+03 0.  0.
         25    2    3    3    0    0 -0.20862266628E+02 -0.12552418927E+02  0.39567582254E+03  0.41592596310E+03  0.12586601148E+03 0.  0.
          5    1    4    4  502    0  0.44146302010E+02 -0.40053169815E+02  0.10703411579E+03  0.12260319872E+03  0.47000000000E+01 0.  1.
         -5    1    4    4    0  502 -0.23284035383E+02  0.52605588742E+02  0.27937372041E+02  0.64125509956E+02  0.47000000000E+01 0.  1.
          5    1    5    5  503    0  0.10618831870E+02 -0.60608355748E+02  0.12780659305E+03  0.14192514789E+03  0.47000000000E+01 0. -1.
         -5    1    5    5    0  503 -0.31481098497E+02  0.48055936821E+02  0.26786922949E+03  0.27400081520E+03  0.47000000000E+01 0. -1.
<mgrwt>
<rscale>  0 0.28566779E+03</rscale>
<asrwt>0</asrwt>
<pdfrwt beam="1">  1        2 0.87177069E-01 0.28566779E+03</pdfrwt>
<pdfrwt beam="2">  1       -2 0.55390282E-02 0.28566779E+03</pdfrwt>
<totfact> 0.90000723E+03</totfact>
</mgrwt>
</event>
<event>
 9    1  0.8285222E-001  0.2727796E+03  0.7818608E-02  0.1099699E+00
          2   -1    0    0  501    0  0.00000000000E+00  0.00000000000E+00  0.25082713431E+03  0.25082713431E+03  0.00000000000E+00 0.  1.
         -2   -1    0    0    0  501 -0.00000000000E+00 -0.00000000000E+00 -0.74163319729E+02  0.74163319729E+02  0.00000000000E+00 0.  1.
         35    2    1    2    0    0  0.17763568394E-14 -0.71054273576E-14  0.17666381458E+03  0.32499045404E+03  0.27277956638E+03 0.  0.
         25    2    3    3    0    0  0.15158954779E+02  0.36271925123E+02  0.13093712953E+03  0.18593596530E+03  0.12602461997E+03 0.  0.
         25    2    3    3    0    0 -0.15158954779E+02 -0.36271925123E+02  0.45726685047E+02  0.13905448874E+03  0.12529874162E+03 0.  0.
          5    1    4    4  502    0  0.10993524005E+02  0.50677440014E+02 -0.19671177507E+01  0.52105854265E+02  0.47000000000E+01 0.  1.
         -5    1    4    4    0  502  0.41654307736E+01 -0.14405514891E+02  0.13290424729E+03  0.13383011103E+03  0.47000000000E+01 0.  1.
          5    1    5    5  503    0 -0.40079567747E+02  0.34928664697E+02  0.32020393293E+02  0.62239689547E+02  0.47000000000E+01 0. -1.
         -5    1    5    5    0  503  0.24920612968E+02 -0.71200589820E+02  0.13706291754E+02  0.76814799193E+02  0.47000000000E+01 0. -1.
<mgrwt>
<rscale>  0 0.27277957E+03</rscale>
<asrwt>0</asrwt>
<pdfrwt beam="1">  1        2 0.38588789E-01 0.27277957E+03</pdfrwt>
<pdfrwt beam="2">  1       -2 0.11409742E-01 0.27277957E+03</pdfrwt>
<totfact> 0.70728397E+03</totfact>
</mgrwt>
</event>
<event>
 9    1  0.8285222E-001  0.2795201E+03  0.7818608E-02  0.1095951E+00
          1   -1    0    0  501    0  0.00000000000E+00  0.00000000000E+00  0.38668010611E+03  0.38668010611E+03  0.00000000000E+00 0. -1.
         -1   -1    0    0    0  501 -0.00000000000E+00 -0.00000000000E+00 -0.50514281761E+02  0.50514281761E+02  0.00000000000E+00 0. -1.
         35    2    1    2    0    0  0.71054273576E-14  0.35527136788E-14  0.33616582435E+03  0.43719438787E+03  0.27952007321E+03 0.  0.
         25    2    3    3    0    0  0.55153045781E+02  0.19203588180E+02  0.13535040515E+03  0.19332854032E+03  0.12508219726E+03 0.  0.
         25    2    3    3    0    0 -0.55153045781E+02 -0.19203588180E+02  0.20081541920E+03  0.24386584755E+03  0.12543158596E+03 0.  0.
          5    1    4    4  502    0 -0.90622284097E+01  0.53186573818E+02  0.96867174327E+02  0.11097871454E+03  0.47000000000E+01 0.  1.
         -5    1    4    4    0  502  0.64215274191E+02 -0.33982985637E+02  0.38483230827E+02  0.82349825787E+02  0.47000000000E+01 0.  1.
          5    1    5    5  503    0 -0.78018735971E+02  0.18564096465E+02  0.17487299861E+03  0.19244273040E+03  0.47000000000E+01 0.  1.
         -5    1    5    5    0  503  0.22865690190E+02 -0.37767684646E+02  0.25942420581E+02  0.51423117146E+02  0.47000000000E+01 0.  1.
<mgrwt>
<rscale>  0 0.27952007E+03</rscale>
<asrwt>0</asrwt>
<pdfrwt beam="1">  1        1 0.59489245E-01 0.27952007E+03</pdfrwt>
<pdfrwt beam="2">  1       -1 0.77714282E-02 0.27952007E+03</pdfrwt>
<totfact> 0.56701023E+03</totfact>
</mgrwt>
</event>
<event>
 9    1  0.8285222E-001  0.2746069E+03  0.7818608E-02  0.1098672E+00
          2   -1    0    0  501    0  0.00000000000E+00  0.00000000000E+00  0.94671067125E+03  0.94671067125E+03  0.00000000000E+00 0.  1.
         -2   -1    0    0    0  501 -0.00000000000E+00 -0.00000000000E+00 -0.19913406127E+02  0.19913406127E+02  0.00000000000E+00 0.  1.
         35    2    1    2    0    0  0.00000000000E+00  0.00000000000E+00  0.92679726512E+03  0.96662407738E+03  0.27460687596E+03 0.  0.
         25    2    3    3    0    0 -0.35758324300E+02  0.34014893133E+02  0.56462788035E+03  0.58039820394E+03  0.12498704397E+03 0.  0.
         25    2    3    3    0    0  0.35758324300E+02 -0.34014893133E+02  0.36216938478E+03  0.38622587344E+03  0.12477215768E+03 0.  0.
          5    1    4    4  502    0 -0.49380162419E+02  0.70820809520E+02  0.28020785583E+03  0.29324481235E+03  0.47000000000E+01 0.  1.
         -5    1    4    4    0  502  0.13621838119E+02 -0.36805916386E+02  0.28442002451E+03  0.28715339158E+03  0.47000000000E+01 0.  1.
          5    1    5    5  503    0 -0.38013549714E+02 -0.15933442995E+02  0.23001717598E+03  0.23372825206E+03  0.47000000000E+01 0.  1.
         -5    1    5    5    0  503  0.73771874014E+02 -0.18081450138E+02  0.13215220880E+03  0.15249762138E+03  0.47000000000E+01 0.  1.
<mgrwt>
<rscale>  0 0.27460688E+03</rscale>
<asrwt>0</asrwt>
<pdfrwt beam="1">  1        2 0.14564776E+00 0.27460688E+03</pdfrwt>
<pdfrwt beam="2">  1       -2 0.30636017E-02 0.27460688E+03</pdfrwt>
<totfact> 0.11604940E+04</totfact>
</mgrwt>
</event>
<event>
 9    1  0.8285222E-001  0.2797646E+03  0.7818608E-02  0.1095818E+00
          3   -1    0    0  501    0  0.00000000000E+00  0.00000000000E+00  0.20518567219E+03  0.20518567219E+03  0.00000000000E+00 0. -1.
         -3   -1    0    0    0  501 -0.00000000000E+00 -0.00000000000E+00 -0.95362663806E+02  0.95362663806E+02  0.00000000000E+00 0. -1.
         35    2    1    2    0    0 -0.71054273576E-14 -0.14210854715E-13  0.10982300838E+03  0.30054833600E+03  0.27976456012E+03 0.  0.
         25    2    3    3    0    0 -0.46196980782E+02 -0.40914360864E+02  0.64047990931E+02  0.15399346896E+03  0.12571275743E+03 0.  0.
         25    2    3    3    0    0  0.46196980782E+02  0.40914360864E+02  0.45775017452E+02  0.14655486704E+03  0.12479916214E+03 0.  0.
          5    1    4    4  502    0 -0.31273138509E+02  0.33481826802E+02 -0.10802942231E+02  0.47305765812E+02  0.47000000000E+01 0. -1.
         -5    1    4    4    0  502 -0.14923842273E+02 -0.74396187666E+02  0.74850933162E+02  0.10668770315E+03  0.47000000000E+01 0. -1.
          5    1    5    5  503    0  0.26060674254E+02  0.73321160746E+02  0.66868272645E+02  0.10270641286E+03  0.47000000000E+01 0.  1.
         -5    1    5    5    0  503  0.20136306529E+02 -0.32406799882E+02 -0.21093255193E+02  0.43848454178E+02  0.47000000000E+01 0.  1.
<mgrwt>
<rscale>  0 0.27976456E+03</rscale>
<asrwt>0</asrwt>
<pdfrwt beam="1">  1        3 0.31567026E-01 0.27976456E+03</pdfrwt>
<pdfrwt beam="2">  1       -3 0.14671179E-01 0.27976456E+03</pdfrwt>
<totfact> 0.95901221E+02</totfact>
</mgrwt>
</event>
<event>
 9    1  0.8285222E-001  0.2802433E+03  0.7818608E-02  0.1095556E+00
         -2   -1    0    0    0  501 -0.00000000000E+00  0.00000000000E+00  0.52707059378E+02  0.52707059378E+02  0.00000000000E+00 0. -1.
          2   -1    0    0  501    0  0.00000000000E+00 -0.00000000000E+00 -0.37251320067E+03  0.37251320067E+03  0.00000000000E+00 0. -1.
         35    2    1    2    0    0  0.00000000000E+00  0.00000000000E+00 -0.31980614129E+03  0.42522026005E+03  0.28024328992E+03 0.  0.
         25    2    3    3    0    0  0.60991638168E+02 -0.11283155397E+02 -0.15732418991E+03  0.21157317171E+03  0.12714171910E+03 0.  0.
         25    2    3    3    0    0 -0.60991638168E+02  0.11283155397E+02 -0.16248195138E+03  0.21364708833E+03  0.12408627767E+03 0.  0.
          5    1    4    4  502    0  0.52816672459E+02  0.17551454422E+02 -0.47993014054E+01  0.56060482837E+02  0.47000000000E+01 0.  1.
         -5    1    4    4    0  502  0.81749657091E+01 -0.28834609819E+02 -0.15252488850E+03  0.15551268887E+03  0.47000000000E+01 0.  1.
          5    1    5    5  503    0  0.42968769196E+01 -0.12070583776E+01  0.19128476259E+02  0.20196750857E+02  0.47000000000E+01 0. -1.
         -5    1    5    5    0  503 -0.65288515088E+02  0.12490213775E+02 -0.18161042764E+03  0.19345033748E+03  0.47000000000E+01 0. -1.
<mgrwt>
<rscale>  0 0.28024329E+03</rscale>
<asrwt>0</asrwt>
<pdfrwt beam="1">  1        2 0.57309725E-01 0.28024329E+03</pdfrwt>
<pdfrwt beam="2">  1       -2 0.81087781E-02 0.28024329E+03</pdfrwt>
<totfact> 0.79435846E+03</totfact>
</mgrwt>
</event>
<event>
 9    1  0.8285222E-001  0.3103757E+03  0.7818608E-02  0.1080166E+00
         -2   -1    0    0    0  501 -0.00000000000E+00  0.00000000000E+00  0.10936491521E+02  0.10936491521E+02  0.00000000000E+00 0.  1.
          2   -1    0    0  501    0  0.00000000000E+00 -0.00000000000E+00 -0.22021013980E+04  0.22021013980E+04  0.00000000000E+00 0.  1.
         35    2    1    2    0    0  0.35527136788E-14 -0.14210854715E-13 -0.21911649065E+04  0.22130378896E+04  0.31037566444E+03 0.  0.
         25    2    3    3    0    0 -0.30218677121E+02 -0.82214862066E+02 -0.92176033111E+03  0.93436050918E+03  0.12535948753E+03 0.  0.
         25    2    3    3    0    0  0.30218677121E+02  0.82214862066E+02 -0.12694045754E+04  0.12786773804E+04  0.12631474594E+03 0.  0.
          5    1    4    4  502    0  0.12445606888E+02 -0.84348236349E+02 -0.32420556756E+03  0.33526237209E+03  0.47000000000E+01 0. -1.
         -5    1    4    4    0  502 -0.42664284009E+02  0.21333742835E+01 -0.59755476355E+03  0.59909813708E+03  0.47000000000E+01 0. -1.
          5    1    5    5  503    0 -0.45494943425E+02  0.14544406979E+02 -0.55583114134E+03  0.55789934337E+03  0.47000000000E+01 0.  1.
         -5    1    5    5    0  503  0.75713620546E+02  0.67670455087E+02 -0.71357343407E+03  0.72077803701E+03  0.47000000000E+01 0.  1.
<mgrwt>
<rscale>  0 0.31037566E+03</rscale>
<asrwt>0</asrwt>
<pdfrwt beam="1">  1        2 0.33878495E+00 0.31037566E+03</pdfrwt>
<pdfrwt beam="2">  1       -2 0.16825366E-02 0.31037566E+03</pdfrwt>
<totfact> 0.57892379E+03</totfact>
</mgrwt>
</event>
<event>
 9    1  0.8285222E-001  0.2741921E+03  0.7818608E-02  0.1098904E+00
          2   -1    0    0  501    0  0.00000000000E+00  0.00000000000E+00  0.39045243574E+02  0.39045243574E+02  0.00000000000E+00 0.  1.
         -2   -1    0    0    0  501 -0.00000000000E+00 -0.00000000000E+00 -0.48137317638E+03  0.48137317638E+03  0.00000000000E+00 0.  1.
         35    2    1    2    0    0 -0.35527136788E-14  0.17763568394E-14 -0.44232793281E+03  0.52041841995E+03  0.27419214374E+03 0.  0.
         25    2    3    3    0    0 -0.24056604700E+02 -0.54771450073E+01 -0.13962059783E+03  0.18995748238E+03  0.12641682810E+03 0.  0.
         25    2    3    3    0    0  0.24056604700E+02  0.54771450073E+01 -0.30270733498E+03  0.33046093757E+03  0.13024584932E+03 0.  0.
          5    1    4    4  502    0  0.32181005794E+02 -0.88217693623E+01  0.55647143040E+01  0.34154015780E+02  0.47000000000E+01 0.  1.
         -5    1    4    4    0  502 -0.56237610494E+02  0.33446243549E+01 -0.14518531213E+03  0.15580346660E+03  0.47000000000E+01 0.  1.
          5    1    5    5  503    0  0.50597562873E+02  0.24989557163E+02 -0.28896212797E+03  0.29445847371E+03  0.47000000000E+01 0.  1.
         -5    1    5    5    0  503 -0.26540958173E+02 -0.19512412155E+02 -0.13745207007E+02  0.36002463867E+02  0.47000000000E+01 0.  1.
<mgrwt>
<rscale>  0 0.27419214E+03</rscale>
<asrwt>0</asrwt>
<pdfrwt beam="1">  1        2 0.60069606E-02 0.27419214E+03</pdfrwt>
<pdfrwt beam="2">  1       -2 0.74057412E-01 0.27419214E+03</pdfrwt>
<totfact> 0.20775366E+03</totfact>
</mgrwt>
</event>
<event>
 9    1  0.8285222E-001  0.2725648E+03  0.7818608E-02  0.1099821E+00
          2   -1    0    0  501    0  0.00000000000E+00  0.00000000000E+00  0.23437772363E+03  0.23437772363E+03  0.00000000000E+00 0. -1.
         -2   -1    0    0    0  501 -0.00000000000E+00 -0.00000000000E+00 -0.79243409506E+02  0.79243409506E+02  0.00000000000E+00 0. -1.
         35    2    1    2    0    0  0.00000000000E+00  0.00000000000E+00  0.15513431412E+03  0.31362113313E+03  0.27256478080E+03 0.  0.
         25    2    3    3    0    0  0.90789284298E-01  0.50384460991E+02  0.97174048295E+02  0.16600169875E+03  0.12480050550E+03 0.  0.
         25    2    3    3    0    0 -0.90789284298E-01 -0.50384460991E+02  0.57960265826E+02  0.14761943439E+03  0.12606943659E+03 0.  0.
          5    1    4    4  502    0  0.37955474285E+02 -0.51532697707E+01  0.90385386347E+02  0.98279103998E+02  0.47000000000E+01 0.  1.
         -5    1    4    4    0  502 -0.37864685000E+02  0.55537730762E+02  0.67886619480E+01  0.67722594748E+02  0.47000000000E+01 0.  1.
          5    1    5    5  503    0 -0.52887372898E+02 -0.11084442426E+02  0.60920214120E+02  0.81567772830E+02  0.47000000000E+01 0. -1.
         -5    1    5    5    0  503  0.52796583614E+02 -0.39300018565E+02 -0.29599482946E+01  0.66051661557E+02  0.47000000000E+01 0. -1.
<mgrwt>
<rscale>  0 0.27256478E+03</rscale>
<asrwt>0</asrwt>
<pdfrwt beam="1">  1        2 0.36058111E-01 0.27256478E+03</pdfrwt>
<pdfrwt beam="2">  1       -2 0.12191294E-01 0.27256478E+03</pdfrwt>
<totfact> 0.68403282E+03</totfact>
</mgrwt>
</event>
<event>
 9    1  0.8285222E-001  0.2743126E+03  0.7818608E-02  0.1098836E+00
          2   -1    0    0  501    0  0.00000000000E+00  0.00000000000E+00  0.19527143114E+04  0.19527143114E+04  0.00000000000E+00 0.  1.
         -2   -1    0    0    0  501 -0.00000000000E+00 -0.00000000000E+00 -0.96336917799E+01  0.96336917799E+01  0.00000000000E+00 0.  1.
         35    2    1    2    0    0  0.35527136788E-14  0.00000000000E+00  0.19430806196E+04  0.19623480032E+04  0.27431257944E+03 0.  0.
         25    2    3    3    0    0  0.87042333974E+01  0.18962776470E+02  0.60221494670E+03  0.61550283484E+03  0.12548126194E+03 0.  0.
         25    2    3    3    0    0 -0.87042333974E+01 -0.18962776470E+02  0.13408656729E+04  0.13468451683E+04  0.12504320889E+03 0.  0.
          5    1    4    4  502    0 -0.33701738452E+02 -0.38988323972E+02  0.18386997551E+03  0.19101349291E+03  0.47000000000E+01 0.  1.
         -5    1    4    4    0  502  0.42405971849E+02  0.57951100442E+02  0.41834497119E+03  0.42448934193E+03  0.47000000000E+01 0.  1.
          5    1    5    5  503    0 -0.97460549768E+01 -0.66814487595E+02  0.10360714887E+04  0.10382800109E+04  0.47000000000E+01 0.  1.
         -5    1    5    5    0  503  0.10418215794E+01  0.47851711126E+02  0.30479418426E+03  0.30856515747E+03  0.47000000000E+01 0.  1.
<mgrwt>
<rscale>  0 0.27431258E+03</rscale>
<asrwt>0</asrwt>
<pdfrwt beam="1">  1        2 0.30041727E+00 0.27431258E+03</pdfrwt>
<pdfrwt beam="2">  1       -2 0.14821080E-02 0.27431258E+03</pdfrwt>
<totfact> 0.94462221E+03</totfact>
</mgrwt>
</event>
<event>
 9    1  0.8285222E-001  0.2730463E+03  0.7818608E-02  0.1099549E+00
          2   -1    0    0  501    0  0.00000000000E+00  0.00000000000E+00  0.27244356183E+03  0.27244356183E+03  0.00000000000E+00 0. -1.
         -2   -1    0    0    0  501 -0.00000000000E+00 -0.00000000000E+00 -0.68412571032E+02  0.68412571032E+02  0.00000000000E+00 0. -1.
         35    2    1    2    0    0  0.00000000000E+00  0.35527136788E-14  0.20403099080E+03  0.34085613286E+03  0.27304625635E+03 0.  0.
         25    2    3    3    0    0  0.47473039649E+02  0.27084012711E+02  0.93599068487E+02  0.16490550262E+03  0.12428115680E+03 0.  0.
         25    2    3    3    0    0 -0.47473039649E+02 -0.27084012711E+02  0.11043192231E+03  0.17595063024E+03  0.12560327057E+03 0.  0.
          5    1    4    4  502    0  0.14805637972E+02  0.25232079003E+02  0.11936910651E+03  0.12299161888E+03  0.47000000000E+01 0. -1.
         -5    1    4    4    0  502  0.32667401678E+02  0.18519337088E+01 -0.25770038020E+02  0.41913883743E+02  0.47000000000E+01 0. -1.
          5    1    5    5  503    0  0.28984836339E+02  0.12995160279E+02 -0.41874501656E+01  0.32382397489E+02  0.47000000000E+01 0. -1.
         -5    1    5    5    0  503 -0.76457875988E+02 -0.40079172990E+02  0.11461937248E+03  0.14356823275E+03  0.47000000000E+01 0. -1.
<mgrwt>
<rscale>  0 0.27304626E+03</rscale>
<asrwt>0</asrwt>
<pdfrwt beam="1">  1        2 0.41914394E-01 0.27304626E+03</pdfrwt>
<pdfrwt beam="2">  1       -2 0.10525011E-01 0.27304626E+03</pdfrwt>
<totfact> 0.73629721E+03</totfact>
</mgrwt>
</event>
<event>
 9    1  0.8285222E-001  0.2845220E+03  0.7818608E-02  0.1093244E+00
          2   -1    0    0  501    0  0.00000000000E+00  0.00000000000E+00  0.43299257808E+04  0.43299257808E+04  0.00000000000E+00 0. -1.
         -2   -1    0    0    0  501 -0.00000000000E+00 -0.00000000000E+00 -0.46740264622E+01  0.46740264622E+01  0.00000000000E+00 0. -1.
         35    2    1    2    0    0  0.00000000000E+00 -0.71054273576E-14  0.43252517544E+04  0.43345998073E+04  0.28452196878E+03 0.  0.
         25    2    3    3    0    0  0.44191268598E+02 -0.58820839078E+02  0.19783298668E+04  0.19835036199E+04  0.12282014737E+03 0.  0.
         25    2    3    3    0    0 -0.44191268598E+02  0.58820839078E+02  0.23469218875E+04  0.23510961875E+04  0.11915610397E+03 0.  0.
          5    1    4    4  502    0  0.38195938374E+02 -0.40053942910E+02  0.19336463922E+04  0.19344440308E+04  0.47000000000E+01 0.  1.
         -5    1    4    4    0  502  0.59953302238E+01 -0.18766896168E+02  0.44683474617E+02  0.49059589074E+02  0.47000000000E+01 0.  1.
          5    1    5    5  503    0 -0.29887735561E+02  0.47453972237E+02  0.22976069384E+04  0.22982960839E+04  0.47000000000E+01 0.  1.
         -5    1    5    5    0  503 -0.14303533037E+02  0.11366866841E+02  0.49314949167E+02  0.52800103508E+02  0.47000000000E+01 0.  1.
<mgrwt>
<rscale>  0 0.28452197E+03</rscale>
<asrwt>0</asrwt>
<pdfrwt beam="1">  1        2 0.66613922E+00 0.28452197E+03</pdfrwt>
<pdfrwt beam="2">  1       -2 0.71908446E-03 0.28452197E+03</pdfrwt>
<totfact> 0.82714581E+02</totfact>
</mgrwt>
</event>
<event>
 9    1  0.8285222E-001  0.2769375E+03  0.7818608E-02  0.1097373E+00
          2   -1    0    0  501    0  0.00000000000E+00  0.00000000000E+00  0.97054910336E+03  0.97054910336E+03  0.00000000000E+00 0.  1.
         -2   -1    0    0    0  501 -0.00000000000E+00 -0.00000000000E+00 -0.19755403580E+02  0.19755403580E+02  0.00000000000E+00 0.  1.
         35    2    1    2    0    0  0.00000000000E+00 -0.14210854715E-13  0.95079369978E+03  0.99030450694E+03  0.27693746032E+03 0.  0.
         25    2    3    3    0    0 -0.22175000874E+02 -0.50362873271E+02  0.55544400860E+03  0.57201676052E+03  0.12512784645E+03 0.  0.
         25    2    3    3    0    0  0.22175000874E+02  0.50362873271E+02  0.39534969118E+03  0.41828774643E+03  0.12504043675E+03 0.  0.
          5    1    4    4  502    0 -0.10564452181E+02 -0.87421601053E+02  0.46780189749E+03  0.47604080632E+03  0.47000000000E+01 0.  1.
         -5    1    4    4    0  502 -0.11610548693E+02  0.37058727782E+02  0.87642111104E+02  0.95975954200E+02  0.47000000000E+01 0.  1.
          5    1    5    5  503    0  0.83030213290E+01 -0.28791134876E+02  0.25044862084E+02  0.39334523353E+02  0.47000000000E+01 0. -1.
         -5    1    5    5    0  503  0.13871979545E+02  0.79154008147E+02  0.37030482910E+03  0.37895322307E+03  0.47000000000E+01 0. -1.
<mgrwt>
<rscale>  0 0.27693746E+03</rscale>
<asrwt>0</asrwt>
<pdfrwt beam="1">  1        2 0.14931521E+00 0.27693746E+03</pdfrwt>
<pdfrwt beam="2">  1       -2 0.30392936E-02 0.27693746E+03</pdfrwt>
<totfact> 0.11350265E+04</totfact>
</mgrwt>
</event>
<event>
 9    1  0.8285222E-001  0.2748942E+03  0.7818608E-02  0.1098511E+00
         -2   -1    0    0    0  501 -0.00000000000E+00  0.00000000000E+00  0.32237172847E+03  0.32237172847E+03  0.00000000000E+00 0. -1.
          2   -1    0    0  501    0  0.00000000000E+00 -0.00000000000E+00 -0.58602256150E+02  0.58602256150E+02  0.00000000000E+00 0. -1.
         35    2    1    2    0    0  0.00000000000E+00  0.00000000000E+00  0.26376947232E+03  0.38097398462E+03  0.27489423862E+03 0.  0.
         25    2    3    3    0    0  0.22806159931E+02  0.48269602019E+02  0.10621291864E+03  0.17258709852E+03  0.12512013059E+03 0.  0.
         25    2    3    3    0    0 -0.22806159931E+02 -0.48269602019E+02  0.15755655367E+03  0.20838688610E+03  0.12550279392E+03 0.  0.
          5    1    4    4  502    0 -0.27713951091E+02 -0.30756055331E+02  0.39292149176E+02  0.57270943868E+02  0.47000000000E+01 0.  1.
         -5    1    4    4    0  502  0.50520111021E+02  0.79025657350E+02  0.66920769464E+02  0.11531615465E+03  0.47000000000E+01 0.  1.
          5    1    5    5  503    0  0.13984369516E+02 -0.66145201369E+02  0.29569646369E+02  0.73940545314E+02  0.47000000000E+01 0. -1.
         -5    1    5    5    0  503 -0.36790529446E+02  0.17875599350E+02  0.12798690731E+03  0.13444634079E+03  0.47000000000E+01 0. -1.
<mgrwt>
<rscale>  0 0.27489424E+03</rscale>
<asrwt>0</asrwt>
<pdfrwt beam="1">  1        2 0.90157320E-02 0.27489424E+03</pdfrwt>
<pdfrwt beam="2">  1       -2 0.49595649E-01 0.27489424E+03</pdfrwt>
<totfact> 0.28405392E+03</totfact>
</mgrwt>
</event>
<event>
 9    1  0.8285222E-001  0.2760546E+03  0.7818608E-02  0.1097864E+00
          1   -1    0    0  501    0  0.00000000000E+00  0.00000000000E+00  0.20670284745E+04  0.20670284745E+04  0.00000000000E+00 0. -1.
         -1   -1    0    0    0  501 -0.00000000000E+00 -0.00000000000E+00 -0.92168710565E+01  0.92168710565E+01  0.00000000000E+00 0. -1.
         35    2    1    2    0    0  0.71054273576E-14  0.00000000000E+00  0.20578116034E+04  0.20762453455E+04  0.27605459547E+03 0.  0.
         25    2    3    3    0    0  0.45306703554E+02  0.39598794373E+02  0.10762295223E+04  0.10849828097E+04  0.12368084279E+03 0.  0.
         25    2    3    3    0    0 -0.45306703554E+02 -0.39598794373E+02  0.98158208113E+03  0.99126253580E+03  0.12440768053E+03 0.  0.
          5    1    4    4  502    0  0.91984755168E+01  0.59139716549E+01  0.93879564757E+03  0.93887110132E+03  0.47000000000E+01 0.  1.
         -5    1    4    4    0  502  0.36108228037E+02  0.33684822718E+02  0.13743387472E+03  0.14611170841E+03  0.47000000000E+01 0.  1.
          5    1    5    5  503    0 -0.17315685436E+02  0.16033176041E+02  0.34158116049E+02  0.41782323872E+02  0.47000000000E+01 0.  1.
         -5    1    5    5    0  503 -0.27991018118E+02 -0.55631970414E+02  0.94742396508E+03  0.94948021193E+03  0.47000000000E+01 0.  1.
<mgrwt>
<rscale>  0 0.27605460E+03</rscale>
<asrwt>0</asrwt>
<pdfrwt beam="1">  1        1 0.31800401E+00 0.27605460E+03</pdfrwt>
<pdfrwt beam="2">  1       -1 0.14179818E-02 0.27605460E+03</pdfrwt>
<totfact> 0.34569384E+03</totfact>
</mgrwt>
</event>
<event>
 9    1  0.8285222E-001  0.2769829E+03  0.7818608E-02  0.1097348E+00
         -2   -1    0    0    0  501 -0.00000000000E+00  0.00000000000E+00  0.20534365131E+02  0.20534365131E+02  0.00000000000E+00 0. -1.
          2   -1    0    0  501    0  0.00000000000E+00 -0.00000000000E+00 -0.93403830681E+03  0.93403830681E+03  0.00000000000E+00 0. -1.
         35    2    1    2    0    0 -0.14210854715E-13  0.00000000000E+00 -0.91350394168E+03  0.95457267194E+03  0.27698291383E+03 0.  0.
         25    2    3    3    0    0 -0.34306312284E+02  0.80645247749E+01 -0.61661505877E+03  0.63012081655E+03  0.12488455922E+03 0.  0.
         25    2    3    3    0    0  0.34306312284E+02 -0.80645247749E+01 -0.29688888291E+03  0.32445185539E+03  0.12603189297E+03 0.  0.
          5    1    4    4  502    0  0.17893557318E+02 -0.45302216266E+02 -0.34271752838E+03  0.34619339169E+03  0.47000000000E+01 0. -1.
         -5    1    4    4    0  502 -0.52199869602E+02  0.53366741041E+02 -0.27389753039E+03  0.28392742486E+03  0.47000000000E+01 0. -1.
          5    1    5    5  503    0  0.35560550429E+02  0.65116902135E+01 -0.10900347191E+02  0.38050787444E+02  0.47000000000E+01 0. -1.
         -5    1    5    5    0  503 -0.12542381449E+01 -0.14576214988E+02 -0.28598853572E+03  0.28640106794E+03  0.47000000000E+01 0. -1.
<mgrwt>
<rscale>  0 0.27698291E+03</rscale>
<asrwt>0</asrwt>
<pdfrwt beam="1">  1        2 0.14369819E+00 0.27698291E+03</pdfrwt>
<pdfrwt beam="2">  1       -2 0.31591332E-02 0.27698291E+03</pdfrwt>
<totfact> 0.11295148E+04</totfact>
</mgrwt>
</event>
<event>
 9    1  0.8285222E-001  0.2705958E+03  0.7818608E-02  0.1100939E+00
         -1   -1    0    0    0  501 -0.00000000000E+00  0.00000000000E+00  0.12173640901E+03  0.12173640901E+03  0.00000000000E+00 0. -1.
          1   -1    0    0  501    0  0.00000000000E+00 -0.00000000000E+00 -0.15037012824E+03  0.15037012824E+03  0.00000000000E+00 0. -1.
         35    2    1    2    0    0  0.00000000000E+00  0.00000000000E+00 -0.28633719235E+02  0.27210653725E+03  0.27059578293E+03 0.  0.
         25    2    3    3    0    0  0.38280563775E+02  0.32419225350E+02 -0.37094593185E+01  0.13542430044E+03  0.12573612578E+03 0.  0.
         25    2    3    3    0    0 -0.38280563775E+02 -0.32419225350E+02 -0.24924259917E+02  0.13668223681E+03  0.12467721280E+03 0.  0.
          5    1    4    4  502    0  0.16580511356E+02 -0.30778948301E+02  0.41608847596E+02  0.54549456584E+02  0.47000000000E+01 0.  1.
         -5    1    4    4    0  502  0.21700052419E+02  0.63198173651E+02 -0.45318306914E+02  0.80874843861E+02  0.47000000000E+01 0.  1.
          5    1    5    5  503    0 -0.53867909887E+02 -0.12420588668E+02 -0.67211607494E+02  0.87152239905E+02  0.47000000000E+01 0.  1.
         -5    1    5    5    0  503  0.15587346113E+02 -0.19998636682E+02  0.42287347578E+02  0.49529996902E+02  0.47000000000E+01 0.  1.
<mgrwt>
<rscale>  0 0.27059578E+03</rscale>
<asrwt>0</asrwt>
<pdfrwt beam="1">  1        1 0.23133866E-01 0.27059578E+03</pdfrwt>
<pdfrwt beam="2">  1       -1 0.18728678E-01 0.27059578E+03</pdfrwt>
<totfact> 0.47117848E+03</totfact>
</mgrwt>
</event>
<event>
 9    1  0.8285222E-001  0.2765647E+03  0.7818608E-02  0.1097580E+00
          1   -1    0    0  501    0  0.00000000000E+00  0.00000000000E+00  0.10793265470E+03  0.10793265470E+03  0.00000000000E+00 0.  1.
         -1   -1    0    0    0  501 -0.00000000000E+00 -0.00000000000E+00 -0.17716606900E+03  0.17716606900E+03  0.00000000000E+00 0.  1.
         35    2    1    2    0    0  0.71054273576E-14  0.71054273576E-14 -0.69233414296E+02  0.28509872370E+03  0.27656466983E+03 0.  0.
         25    2    3    3    0    0 -0.54012660339E+02 -0.19811698131E+02 -0.29795498918E+02  0.14050482661E+03  0.12467543336E+03 0.  0.
         25    2    3    3    0    0  0.54012660339E+02  0.19811698131E+02 -0.39437915377E+02  0.14459389709E+03  0.12665770820E+03 0.  0.
          5    1    4    4  502    0  0.31736424659E+01 -0.64221102594E+02 -0.95380413726E+01  0.65172741681E+02  0.47000000000E+01 0.  1.
         -5    1    4    4    0  502 -0.57186302805E+02  0.44409404463E+02 -0.20257457546E+02  0.75332084928E+02  0.47000000000E+01 0.  1.
          5    1    5    5  503    0  0.95340101587E+02  0.19730981456E+02 -0.25973430653E+02  0.10087495080E+03  0.47000000000E+01 0. -1.
         -5    1    5    5    0  503 -0.41327441247E+02  0.80716675349E-01 -0.13464484724E+02  0.43718946283E+02  0.47000000000E+01 0. -1.
<mgrwt>
<rscale>  0 0.27656467E+03</rscale>
<asrwt>0</asrwt>
<pdfrwt beam="1">  1        1 0.16605024E-01 0.27656467E+03</pdfrwt>
<pdfrwt beam="2">  1       -1 0.27256318E-01 0.27656467E+03</pdfrwt>
<totfact> 0.38998755E+03</totfact>
</mgrwt>
</event>
<event>
 9    1  0.8285222E-001  0.2769612E+03  0.7818608E-02  0.1097360E+00
          1   -1    0    0  501    0  0.00000000000E+00  0.00000000000E+00  0.87719907516E+03  0.87719907516E+03  0.00000000000E+00 0.  1.
         -1   -1    0    0    0  501 -0.00000000000E+00 -0.00000000000E+00 -0.21861494863E+02  0.21861494863E+02  0.00000000000E+00 0.  1.
         35    2    1    2    0    0  0.00000000000E+00 -0.35527136788E-14  0.85533758030E+03  0.89906057002E+03  0.27696124693E+03 0.  0.
         25    2    3    3    0    0 -0.35190915174E+01 -0.15067263543E+02  0.61104913364E+03  0.62409233085E+03  0.12597931282E+03 0.  0.
         25    2    3    3    0    0  0.35190915174E+01  0.15067263543E+02  0.24428844665E+03  0.27496823918E+03  0.12526484324E+03 0.  0.
          5    1    4    4  502    0 -0.95425956686E+01  0.15522862254E+02  0.83806732947E+01  0.20599661879E+02  0.47000000000E+01 0. -1.
         -5    1    4    4    0  502  0.60235041511E+01 -0.30590125797E+02  0.60266846035E+03  0.60349266897E+03  0.47000000000E+01 0. -1.
          5    1    5    5  503    0  0.10871808281E+02  0.55752150959E+02  0.48596348357E+02  0.74901225795E+02  0.47000000000E+01 0. -1.
         -5    1    5    5    0  503 -0.73527167641E+01 -0.40684887417E+02  0.19569209830E+03  0.20006701338E+03  0.47000000000E+01 0. -1.
<mgrwt>
<rscale>  0 0.27696125E+03</rscale>
<asrwt>0</asrwt>
<pdfrwt beam="1">  1        1 0.13495368E+00 0.27696125E+03</pdfrwt>
<pdfrwt beam="2">  1       -1 0.33633076E-02 0.27696125E+03</pdfrwt>
<totfact> 0.63326459E+03</totfact>
</mgrwt>
</event>
<event>
 9    1  0.8285222E-001  0.2784866E+03  0.7818608E-02  0.1096518E+00
          1   -1    0    0  501    0  0.00000000000E+00  0.00000000000E+00  0.93606800712E+03  0.93606800712E+03  0.00000000000E+00 0. -1.
         -1   -1    0    0    0  501 -0.00000000000E+00 -0.00000000000E+00 -0.20712915354E+02  0.20712915354E+02  0.00000000000E+00 0. -1.
         35    2    1    2    0    0  0.14210854715E-13  0.00000000000E+00  0.91535509177E+03  0.95678092248E+03  0.27848660576E+03 0.  0.
         25    2    3    3    0    0  0.49302500745E+02 -0.35498141041E+02  0.48721948888E+03  0.50661224400E+03  0.12482900637E+03 0.  0.
         25    2    3    3    0    0 -0.49302500745E+02  0.35498141041E+02  0.42813560289E+03  0.45016867848E+03  0.12514347774E+03 0.  0.
          5    1    4    4  502    0 -0.40345253151E+02 -0.88736784391E+00  0.10832773160E+03  0.11569578344E+03  0.47000000000E+01 0. -1.
         -5    1    4    4    0  502  0.89647753896E+02 -0.34610773197E+02  0.37889175728E+03  0.39091646056E+03  0.47000000000E+01 0. -1.
          5    1    5    5  503    0 -0.86610262593E+02  0.37530070725E+02  0.23309132089E+03  0.25152236018E+03  0.47000000000E+01 0.  1.
         -5    1    5    5    0  503  0.37307761848E+02 -0.20319296837E+01  0.19504428200E+03  0.19864631830E+03  0.47000000000E+01 0.  1.
<mgrwt>
<rscale>  0 0.27848661E+03</rscale>
<asrwt>0</asrwt>
<pdfrwt beam="1">  1        1 0.14401043E+00 0.27848661E+03</pdfrwt>
<pdfrwt beam="2">  1       -1 0.31866031E-02 0.27848661E+03</pdfrwt>
<totfact> 0.61687095E+03</totfact>
</mgrwt>
</event>
<event>
 9    1  0.8285222E-001  0.2751618E+03  0.7818608E-02  0.1098361E+00
          1   -1    0    0  501    0  0.00000000000E+00  0.00000000000E+00  0.35938490864E+02  0.35938490864E+02  0.00000000000E+00 0. -1.
         -1   -1    0    0    0  501 -0.00000000000E+00 -0.00000000000E+00 -0.52669149538E+03  0.52669149538E+03  0.00000000000E+00 0. -1.
         35    2    1    2    0    0  0.17763568394E-14  0.00000000000E+00 -0.49075300452E+03  0.56262998624E+03  0.27516175239E+03 0.  0.
         25    2    3    3    0    0  0.43682266087E+01  0.55761427190E+02 -0.20788665372E+03  0.24840552811E+03  0.12393557776E+03 0.  0.
         25    2    3    3    0    0 -0.43682266087E+01 -0.55761427190E+02 -0.28286635080E+03  0.31422445813E+03  0.12488082122E+03 0.  0.
          5    1    4    4  502    0 -0.20318393381E+01  0.60873494300E+02 -0.22265095835E+03  0.23087929733E+03  0.47000000000E+01 0.  1.
         -5    1    4    4    0  502  0.64000659468E+01 -0.51120671096E+01  0.14764304632E+02  0.17526230784E+02  0.47000000000E+01 0.  1.
          5    1    5    5  503    0  0.17860590092E+02 -0.89869578785E+02 -0.15686576129E+03  0.18172643983E+03  0.47000000000E+01 0.  1.
         -5    1    5    5    0  503 -0.22228816701E+02  0.34108151595E+02 -0.12600058951E+03  0.13249801830E+03  0.47000000000E+01 0.  1.
<mgrwt>
<rscale>  0 0.27516175E+03</rscale>
<asrwt>0</asrwt>
<pdfrwt beam="1">  1        1 0.55289987E-02 0.27516175E+03</pdfrwt>
<pdfrwt beam="2">  1       -1 0.81029460E-01 0.27516175E+03</pdfrwt>
<totfact> 0.22945569E+03</totfact>
</mgrwt>
</event>
<event>
 9    1  0.8285222E-001  0.2746957E+03  0.7818608E-02  0.1098622E+00
         -1   -1    0    0    0  501 -0.00000000000E+00  0.00000000000E+00  0.35398688369E+02  0.35398688369E+02  0.00000000000E+00 0.  1.
          1   -1    0    0  501    0  0.00000000000E+00 -0.00000000000E+00 -0.53291332209E+03  0.53291332209E+03  0.00000000000E+00 0.  1.
         35    2    1    2    0    0 -0.71054273576E-14  0.35527136788E-14 -0.49751463372E+03  0.56831201046E+03  0.27469570522E+03 0.  0.
         25    2    3    3    0    0 -0.61233274341E+02  0.14172985259E+02 -0.20251179760E+03  0.24191999714E+03  0.11646402643E+03 0.  0.
         25    2    3    3    0    0  0.61233274341E+02 -0.14172985259E+02 -0.29500283612E+03  0.32639201332E+03  0.12471842542E+03 0.  0.
          5    1    4    4  502    0 -0.36745676564E+02  0.77787326812E+01 -0.21134282372E+03  0.21470592113E+03  0.47000000000E+01 0. -1.
         -5    1    4    4    0  502 -0.24487597777E+02  0.63942525779E+01  0.88310261229E+01  0.27214076014E+02  0.47000000000E+01 0. -1.
          5    1    5    5  503    0  0.64672389638E+02  0.24015194340E+02 -0.71093031869E+02  0.99174375324E+02  0.47000000000E+01 0.  1.
         -5    1    5    5    0  503 -0.34391152962E+01 -0.38188179599E+02 -0.22390980425E+03  0.22721763799E+03  0.47000000000E+01 0.  1.
<mgrwt>
<rscale>  0 0.27469571E+03</rscale>
<asrwt>0</asrwt>
<pdfrwt beam="1">  1        1 0.81986662E-01 0.27469571E+03</pdfrwt>
<pdfrwt beam="2">  1       -1 0.54459523E-02 0.27469571E+03</pdfrwt>
<totfact> 0.63813006E+03</totfact>
</mgrwt>
</event>
<event>
 9    1  0.8285222E-001  0.2744924E+03  0.7818608E-02  0.1098736E+00
         -1   -1    0    0    0  501 -0.00000000000E+00  0.00000000000E+00  0.60194402584E+02  0.60194402584E+02  0.00000000000E+00 0.  1.
          1   -1    0    0  501    0  0.00000000000E+00 -0.00000000000E+00 -0.31292813754E+03  0.31292813754E+03  0.00000000000E+00 0.  1.
         35    2    1    2    0    0  0.00000000000E+00  0.00000000000E+00 -0.25273373496E+03  0.37312254013E+03  0.27449242096E+03 0.  0.
         25    2    3    3    0    0 -0.33655007748E+02  0.43798005308E+02 -0.14646700843E+03  0.19944711342E+03  0.12359466687E+03 0.  0.
         25    2    3    3    0    0  0.33655007748E+02 -0.43798005308E+02 -0.10626672653E+03  0.17367542670E+03  0.12577603849E+03 0.  0.
          5    1    4    4  502    0 -0.11107975172E+02  0.11764690904E+02 -0.15756419433E+03  0.15846248893E+03  0.47000000000E+01 0. -1.
         -5    1    4    4    0  502 -0.22547032576E+02  0.32033314404E+02  0.11097185899E+02  0.40984624490E+02  0.47000000000E+01 0. -1.
          5    1    5    5  503    0  0.63240358036E+02 -0.54168353864E+02 -0.11380300296E+03  0.14109134250E+03  0.47000000000E+01 0. -1.
         -5    1    5    5    0  503 -0.29585350288E+02  0.10370348556E+02  0.75362764364E+01  0.32584084203E+02  0.47000000000E+01 0. -1.
<mgrwt>
<rscale>  0 0.27449242E+03</rscale>
<asrwt>0</asrwt>
<pdfrwt beam="1">  1        1 0.48142789E-01 0.27449242E+03</pdfrwt>
<pdfrwt beam="2">  1       -1 0.92606775E-02 0.27449242E+03</pdfrwt>
<totfact> 0.56655309E+03</totfact>
</mgrwt>
</event>
<event>
 9    1  0.8285222E-001  0.3177584E+03  0.7818608E-02  0.1076686E+00
          2   -1    0    0  501    0  0.00000000000E+00  0.00000000000E+00  0.72265495885E+03  0.72265495885E+03  0.00000000000E+00 0.  1.
         -2   -1    0    0    0  501 -0.00000000000E+00 -0.00000000000E+00 -0.34930372300E+02  0.34930372300E+02  0.00000000000E+00 0.  1.
         35    2    1    2    0    0  0.00000000000E+00  0.71054273576E-14  0.68772458655E+03  0.75758533115E+03  0.31775844131E+03 0.  0.
         25    2    3    3    0    0  0.70928604889E+02 -0.35935530936E+02  0.48540552081E+03  0.50746831923E+03  0.12483327288E+03 0.  0.
         25    2    3    3    0    0 -0.70928604889E+02  0.35935530936E+02  0.20231906574E+03  0.25011701191E+03  0.12370645057E+03 0.  0.
          5    1    4    4  502    0 -0.19334458525E+02  0.30082377736E+02  0.12083113980E+03  0.12609926677E+03  0.47000000000E+01 0.  1.
         -5    1    4    4    0  502  0.90263063415E+02 -0.66017908671E+02  0.36457438101E+03  0.38136905246E+03  0.47000000000E+01 0.  1.
          5    1    5    5  503    0 -0.10061150141E+03  0.10472743224E+02  0.17498129239E+03  0.20217046088E+03  0.47000000000E+01 0.  1.
         -5    1    5    5    0  503  0.29682896524E+02  0.25462787712E+02  0.27337773353E+02  0.47946551034E+02  0.47000000000E+01 0.  1.
<mgrwt>
<rscale>  0 0.31775844E+03</rscale>
<asrwt>0</asrwt>
<pdfrwt beam="1">  1        2 0.11117767E+00 0.31775844E+03</pdfrwt>
<pdfrwt beam="2">  1       -2 0.53739040E-02 0.31775844E+03</pdfrwt>
<totfact> 0.70844744E+03</totfact>
</mgrwt>
</event>
<event>
 9    1  0.8285222E-001  0.2778348E+03  0.7818608E-02  0.1096877E+00
          1   -1    0    0  501    0  0.00000000000E+00  0.00000000000E+00  0.29914416279E+03  0.29914416279E+03  0.00000000000E+00 0. -1.
         -1   -1    0    0    0  501 -0.00000000000E+00 -0.00000000000E+00 -0.64510851644E+02  0.64510851644E+02  0.00000000000E+00 0. -1.
         35    2    1    2    0    0 -0.14210854715E-13  0.00000000000E+00  0.23463331115E+03  0.36365501444E+03  0.27783480492E+03 0.  0.
         25    2    3    3    0    0  0.49089153799E+02  0.17891184141E+02  0.15883960220E+03  0.20859039582E+03  0.12470001809E+03 0.  0.
         25    2    3    3    0    0 -0.49089153799E+02 -0.17891184141E+02  0.75793708952E+02  0.15506461861E+03  0.12478185020E+03 0.  0.
          5    1    4    4  502    0 -0.42174948940E+02  0.26816037783E+01  0.47614859172E+02  0.63837153217E+02  0.47000000000E+01 0. -1.
         -5    1    4    4    0  502  0.91264102738E+02  0.15209580362E+02  0.11122474302E+03  0.14475324260E+03  0.47000000000E+01 0. -1.
          5    1    5    5  503    0 -0.17821876074E+02 -0.66239475925E+02  0.13429290353E+02  0.70055144543E+02  0.47000000000E+01 0.  1.
         -5    1    5    5    0  503 -0.31267277725E+02  0.48348291784E+02  0.62364418599E+02  0.85009474072E+02  0.47000000000E+01 0.  1.
<mgrwt>
<rscale>  0 0.27783480E+03</rscale>
<asrwt>0</asrwt>
<pdfrwt beam="1">  1        1 0.46022178E-01 0.27783480E+03</pdfrwt>
<pdfrwt beam="2">  1       -1 0.99247466E-02 0.27783480E+03</pdfrwt>
<totfact> 0.53908585E+03</totfact>
</mgrwt>
</event>
<event>
 9    1  0.8285222E-001  0.2767305E+03  0.7818608E-02  0.1097488E+00
          2   -1    0    0  501    0  0.00000000000E+00  0.00000000000E+00  0.58357661339E+03  0.58357661339E+03  0.00000000000E+00 0. -1.
         -2   -1    0    0    0  501 -0.00000000000E+00 -0.00000000000E+00 -0.32806213919E+02  0.32806213919E+02  0.00000000000E+00 0. -1.
         35    2    1    2    0    0 -0.71054273576E-14  0.00000000000E+00  0.55077039947E+03  0.61638282731E+03  0.27673047694E+03 0.  0.
         25    2    3    3    0    0 -0.23540095866E+02  0.50001219484E+02  0.23521775251E+03  0.27240727572E+03  0.12579377849E+03 0.  0.
         25    2    3    3    0    0  0.23540095866E+02 -0.50001219484E+02  0.31555264696E+03  0.34397555159E+03  0.12526551410E+03 0.  0.
          5    1    4    4  502    0 -0.44512850586E+02  0.29508100908E+02  0.23362807567E+02  0.58481045338E+02  0.47000000000E+01 0.  1.
         -5    1    4    4    0  502  0.20972754720E+02  0.20493118576E+02  0.21185494494E+03  0.21392623038E+03  0.47000000000E+01 0.  1.
          5    1    5    5  503    0  0.62311671574E+02 -0.47733511818E+02  0.11292484239E+03  0.13760575058E+03  0.47000000000E+01 0.  1.
         -5    1    5    5    0  503 -0.38771575709E+02 -0.22677076664E+01  0.20262780457E+03  0.20636980100E+03  0.47000000000E+01 0.  1.
<mgrwt>
<rscale>  0 0.27673048E+03</rscale>
<asrwt>0</asrwt>
<pdfrwt beam="1">  1        2 0.89781010E-01 0.27673048E+03</pdfrwt>
<pdfrwt beam="2">  1       -2 0.50471103E-02 0.27673048E+03</pdfrwt>
<totfact> 0.10014606E+04</totfact>
</mgrwt>
</event>
<event>
 9    1  0.8285222E-001  0.2782782E+03  0.7818608E-02  0.1096633E+00
         -2   -1    0    0    0  501 -0.00000000000E+00  0.00000000000E+00  0.10347289645E+02  0.10347289645E+02  0.00000000000E+00 0.  1.
          2   -1    0    0  501    0  0.00000000000E+00 -0.00000000000E+00 -0.18709914715E+04  0.18709914715E+04  0.00000000000E+00 0.  1.
         35    2    1    2    0    0  0.00000000000E+00  0.35527136788E-14 -0.18606441819E+04  0.18813387612E+04  0.27827821101E+03 0.  0.
         25    2    3    3    0    0  0.98400916239E+01 -0.24756760873E+01 -0.52364471189E+03  0.53849078625E+03  0.12516223955E+03 0.  0.
         25    2    3    3    0    0 -0.98400916239E+01  0.24756760873E+01 -0.13369994700E+04  0.13428479749E+04  0.12478038558E+03 0.  0.
          5    1    4    4  502    0  0.48817669723E+02 -0.41164891358E+02 -0.19465385512E+03  0.20491443695E+03  0.47000000000E+01 0.  1.
         -5    1    4    4    0  502 -0.38977578099E+02  0.38689215270E+02 -0.32899085677E+03  0.33357634929E+03  0.47000000000E+01 0.  1.
          5    1    5    5  503    0 -0.28256997104E+02 -0.18405043559E+02 -0.12657446576E+04  0.12662025240E+04  0.47000000000E+01 0.  1.
         -5    1    5    5    0  503  0.18416905480E+02  0.20880719646E+02 -0.71254812426E+02  0.76645450969E+02  0.47000000000E+01 0.  1.
<mgrwt>
<rscale>  0 0.27827821E+03</rscale>
<asrwt>0</asrwt>
<pdfrwt beam="1">  1        2 0.28784463E+00 0.27827821E+03</pdfrwt>
<pdfrwt beam="2">  1       -2 0.15918919E-02 0.27827821E+03</pdfrwt>
<totfact> 0.93933572E+03</totfact>
</mgrwt>
</event>
<event>
 9    1  0.8285222E-001  0.2780936E+03  0.7818608E-02  0.1096735E+00
          2   -1    0    0  501    0  0.00000000000E+00  0.00000000000E+00  0.18820468112E+04  0.18820468112E+04  0.00000000000E+00 0.  1.
         -2   -1    0    0    0  501 -0.00000000000E+00 -0.00000000000E+00 -0.10272867551E+02  0.10272867551E+02  0.00000000000E+00 0.  1.
         35    2    1    2    0    0  0.71054273576E-14  0.00000000000E+00  0.18717739436E+04  0.18923196787E+04  0.27809363615E+03 0.  0.
         25    2    3    3    0    0  0.39328678207E+02 -0.12881072070E+02  0.12337550400E+04  0.12408587221E+04  0.12596111538E+03 0.  0.
         25    2    3    3    0    0 -0.39328678207E+02  0.12881072070E+02  0.63801890367E+03  0.65146095665E+03  0.12498235738E+03 0.  0.
          5    1    4    4  502    0  0.72194597971E+02 -0.42451516345E+02  0.64576919212E+03  0.65119438780E+03  0.47000000000E+01 0.  1.
         -5    1    4    4    0  502 -0.32865919765E+02  0.29570444275E+02  0.58798584784E+03  0.58966433428E+03  0.47000000000E+01 0.  1.
          5    1    5    5  503    0  0.32525784275E+02  0.27606167134E+02  0.10553767496E+03  0.11393119828E+03  0.47000000000E+01 0. -1.
         -5    1    5    5    0  503 -0.71854462482E+02 -0.14725095064E+02  0.53248122871E+03  0.53752975837E+03  0.47000000000E+01 0. -1.
<mgrwt>
<rscale>  0 0.27809364E+03</rscale>
<asrwt>0</asrwt>
<pdfrwt beam="1">  1        2 0.28954539E+00 0.27809364E+03</pdfrwt>
<pdfrwt beam="2">  1       -2 0.15804427E-02 0.27809364E+03</pdfrwt>
<totfact> 0.93670943E+03</totfact>
</mgrwt>
</event>
<event>
 9    1  0.8285222E-001  0.2718382E+03  0.7818608E-02  0.1100232E+00
         -2   -1    0    0    0  501 -0.00000000000E+00  0.00000000000E+00  0.22637716498E+03  0.22637716498E+03  0.00000000000E+00 0. -1.
          2   -1    0    0  501    0  0.00000000000E+00 -0.00000000000E+00 -0.81607178423E+02  0.81607178423E+02  0.00000000000E+00 0. -1.
         35    2    1    2    0    0 -0.35527136788E-14 -0.71054273576E-14  0.14476998655E+03  0.30798434340E+03  0.27183819962E+03 0.  0.
         25    2    3    3    0    0  0.20335641809E+02  0.39308290155E+02  0.42900698271E+02  0.14063494703E+03  0.12640822129E+03 0.  0.
         25    2    3    3    0    0 -0.20335641809E+02 -0.39308290155E+02  0.10186928828E+03  0.16734939637E+03  0.12517902607E+03 0.  0.
          5    1    4    4  502    0  0.50564152995E+02  0.24968791466E+02  0.75052727559E+02  0.93995617075E+02  0.47000000000E+01 0.  1.
         -5    1    4    4    0  502 -0.30228511186E+02  0.14339498689E+02 -0.32152029288E+02  0.46639329953E+02  0.47000000000E+01 0.  1.
          5    1    5    5  503    0 -0.21354797137E+02  0.37484978475E+02  0.50648943537E+01  0.43690892951E+02  0.47000000000E+01 0. -1.
         -5    1    5    5    0  503  0.10191553280E+01 -0.76793268629E+02  0.96804393928E+02  0.12365850342E+03  0.47000000000E+01 0. -1.
<mgrwt>
<rscale>  0 0.27183820E+03</rscale>
<asrwt>0</asrwt>
<pdfrwt beam="1">  1        2 0.12554951E-01 0.27183820E+03</pdfrwt>
<pdfrwt beam="2">  1       -2 0.34827256E-01 0.27183820E+03</pdfrwt>
<totfact> 0.37267597E+03</totfact>
</mgrwt>
</event>
<event>
 9    1  0.8285222E-001  0.2776696E+03  0.7818608E-02  0.1096969E+00
         -2   -1    0    0    0  501 -0.00000000000E+00  0.00000000000E+00  0.29362070973E+02  0.29362070973E+02  0.00000000000E+00 0. -1.
          2   -1    0    0  501    0  0.00000000000E+00 -0.00000000000E+00 -0.65646250761E+03  0.65646250761E+03  0.00000000000E+00 0. -1.
         35    2    1    2    0    0  0.53290705182E-14  0.00000000000E+00 -0.62710043664E+03  0.68582457858E+03  0.27766957874E+03 0.  0.
         25    2    3    3    0    0  0.27329613740E+01 -0.54968827595E+02 -0.38213430042E+03  0.40556334271E+03  0.12420128950E+03 0.  0.
         25    2    3    3    0    0 -0.27329613740E+01  0.54968827595E+02 -0.24496613622E+03  0.28026123587E+03  0.12453477969E+03 0.  0.
          5    1    4    4  502    0 -0.53188424029E+00  0.14618705754E+02  0.16738942338E+01  0.15455787935E+02  0.47000000000E+01 0.  1.
         -5    1    4    4    0  502  0.32648456143E+01 -0.69587533350E+02 -0.38380819465E+03  0.39010755478E+03  0.47000000000E+01 0.  1.
          5    1    5    5  503    0 -0.52985806615E+02  0.48428094761E+02 -0.79829534098E+02  0.10745985566E+03  0.47000000000E+01 0.  1.
         -5    1    5    5    0  503  0.50252845241E+02  0.65407328346E+01 -0.16513660212E+03  0.17280138021E+03  0.47000000000E+01 0.  1.
<mgrwt>
<rscale>  0 0.27766958E+03</rscale>
<asrwt>0</asrwt>
<pdfrwt beam="1">  1        2 0.10099424E+00 0.27766958E+03</pdfrwt>
<pdfrwt beam="2">  1       -2 0.45172414E-02 0.27766958E+03</pdfrwt>
<totfact> 0.10324382E+04</totfact>
</mgrwt>
</event>
<event>
 9    1  0.8285222E-001  0.2607605E+03  0.7818608E-02  0.1106687E+00
          3   -1    0    0  501    0  0.00000000000E+00  0.00000000000E+00  0.48013594566E+02  0.48013594566E+02  0.00000000000E+00 0.  1.
         -3   -1    0    0    0  501 -0.00000000000E+00 -0.00000000000E+00 -0.35404569904E+03  0.35404569904E+03  0.00000000000E+00 0.  1.
         35    2    1    2    0    0  0.00000000000E+00 -0.71054273576E-14 -0.30603210447E+03  0.40205929361E+03  0.26076047746E+03 0.  0.
         25    2    3    3    0    0 -0.17874150282E+02 -0.38098266237E+02 -0.13932600896E+03  0.19094856177E+03  0.12360684985E+03 0.  0.
         25    2    3    3    0    0  0.17874150282E+02  0.38098266237E+02 -0.16670609551E+03  0.21111073184E+03  0.12249839051E+03 0.  0.
          5    1    4    4  502    0  0.52222730387E+02 -0.42939724458E+01 -0.55808329883E+02  0.76696228413E+02  0.47000000000E+01 0.  1.
         -5    1    4    4    0  502 -0.70096880669E+02 -0.33804293792E+02 -0.83517679077E+02  0.11425233335E+03  0.47000000000E+01 0.  1.
          5    1    5    5  503    0  0.85815794869E+01  0.19813592188E+02  0.15946077856E+02  0.27250492489E+02  0.47000000000E+01 0. -1.
         -5    1    5    5    0  503  0.92925707955E+01  0.18284674049E+02 -0.18265217337E+03  0.18386023935E+03  0.47000000000E+01 0. -1.
<mgrwt>
<rscale>  0 0.26076048E+03</rscale>
<asrwt>0</asrwt>
<pdfrwt beam="1">  1        3 0.73867071E-02 0.26076048E+03</pdfrwt>
<pdfrwt beam="2">  1       -3 0.54468567E-01 0.26076048E+03</pdfrwt>
<totfact> 0.10320180E+03</totfact>
</mgrwt>
</event>
<event>
 9    1  0.8285222E-001  0.2667093E+03  0.7818608E-02  0.1103178E+00
          1   -1    0    0  501    0  0.00000000000E+00  0.00000000000E+00  0.37824264826E+04  0.37824264826E+04  0.00000000000E+00 0. -1.
         -1   -1    0    0    0  501 -0.00000000000E+00 -0.00000000000E+00 -0.47016031058E+01  0.47016031058E+01  0.00000000000E+00 0. -1.
         35    2    1    2    0    0 -0.71054273576E-14  0.00000000000E+00  0.37777248795E+04  0.37871280857E+04  0.26670934065E+03 0.  0.
         25    2    3    3    0    0  0.20506098909E+02 -0.41879357101E+02  0.20749376348E+04  0.20792237059E+04  0.12502259953E+03 0.  0.
         25    2    3    3    0    0 -0.20506098909E+02  0.41879357101E+02  0.17027872447E+04  0.17079043798E+04  0.12360658997E+03 0.  0.
          5    1    4    4  502    0  0.56014835676E+02 -0.10143466401E+02  0.45390596753E+03  0.45748581299E+03  0.47000000000E+01 0.  1.
         -5    1    4    4    0  502 -0.35508736767E+02 -0.31735890700E+02  0.16210316672E+04  0.16217378929E+04  0.47000000000E+01 0.  1.
          5    1    5    5  503    0 -0.63131897182E+02  0.22657632395E+02  0.54032773262E+03  0.54449531989E+03  0.47000000000E+01 0. -1.
         -5    1    5    5    0  503  0.42625798274E+02  0.19221724706E+02  0.11624595121E+04  0.11634090599E+04  0.47000000000E+01 0. -1.
<mgrwt>
<rscale>  0 0.26670934E+03</rscale>
<asrwt>0</asrwt>
<pdfrwt beam="1">  1        1 0.58190933E+00 0.26670934E+03</pdfrwt>
<pdfrwt beam="2">  1       -1 0.72332658E-03 0.26670934E+03</pdfrwt>
<totfact> 0.56933702E+02</totfact>
</mgrwt>
</event>
<event>
 9    1  0.8285222E-001  0.2815547E+03  0.7818608E-02  0.1094843E+00
          2   -1    0    0  501    0  0.00000000000E+00  0.00000000000E+00  0.28931171326E+03  0.28931171326E+03  0.00000000000E+00 0.  1.
         -2   -1    0    0    0  501 -0.00000000000E+00 -0.00000000000E+00 -0.68501409521E+02  0.68501409521E+02  0.00000000000E+00 0.  1.
         35    2    1    2    0    0  0.00000000000E+00 -0.71054273576E-14  0.22081030374E+03  0.35781312278E+03  0.28155468491E+03 0.  0.
         25    2    3    3    0    0  0.30523856572E+02  0.53031670382E+02  0.82357497422E+02  0.16169756151E+03  0.12497711843E+03 0.  0.
         25    2    3    3    0    0 -0.30523856572E+02 -0.53031670382E+02  0.13845280631E+03  0.19611556127E+03  0.12469189995E+03 0.  0.
          5    1    4    4  502    0 -0.48599618394E+02  0.15952217890E+02  0.25564543653E+02  0.57376232500E+02  0.47000000000E+01 0.  1.
         -5    1    4    4    0  502  0.79123474966E+02  0.37079452493E+02  0.56792953769E+02  0.10432132901E+03  0.47000000000E+01 0.  1.
          5    1    5    5  503    0 -0.30048501281E+02 -0.93144059668E+02  0.90089155498E+02  0.13310474905E+03  0.47000000000E+01 0. -1.
         -5    1    5    5    0  503 -0.47535529105E+00  0.40112389286E+02  0.48363650817E+02  0.63010812224E+02  0.47000000000E+01 0. -1.
<mgrwt>
<rscale>  0 0.28155468E+03</rscale>
<asrwt>0</asrwt>
<pdfrwt beam="1">  1        2 0.44509494E-01 0.28155468E+03</pdfrwt>
<pdfrwt beam="2">  1       -2 0.10538679E-01 0.28155468E+03</pdfrwt>
<totfact> 0.68957099E+03</totfact>
</mgrwt>
</event>
<event>
 9    1  0.8285222E-001  0.2799144E+03  0.7818608E-02  0.1095736E+00
          2   -1    0    0  501    0  0.00000000000E+00  0.00000000000E+00  0.98067261193E+03  0.98067261193E+03  0.00000000000E+00 0.  1.
         -2   -1    0    0    0  501 -0.00000000000E+00 -0.00000000000E+00 -0.19974062169E+02  0.19974062169E+02  0.00000000000E+00 0.  1.
         35    2    1    2    0    0  0.35527136788E-14 -0.48849813084E-14  0.96069854976E+03  0.10006466741E+04  0.27991438490E+03 0.  0.
         25    2    3    3    0    0  0.14263103805E+02 -0.30478693972E+01  0.69869891024E+03  0.70998452056E+03  0.12524027558E+03 0.  0.
         25    2    3    3    0    0 -0.14263103805E+02  0.30478693972E+01  0.26199963952E+03  0.29066215353E+03  0.12501180245E+03 0.  0.
          5    1    4    4  502    0 -0.45927759422E+02  0.36265556507E+01  0.12907517996E+03  0.13713133512E+03  0.47000000000E+01 0.  1.
         -5    1    4    4    0  502  0.60190863227E+02 -0.66744250479E+01  0.56962373028E+03  0.57285318544E+03  0.47000000000E+01 0.  1.
          5    1    5    5  503    0 -0.35517446215E+02  0.42488741080E+02  0.22674799086E+03  0.23345989690E+03  0.47000000000E+01 0. -1.
         -5    1    5    5    0  503  0.21254342411E+02 -0.39440871683E+02  0.35251648658E+02  0.57202256630E+02  0.47000000000E+01 0. -1.
<mgrwt>
<rscale>  0 0.27991438E+03</rscale>
<asrwt>0</asrwt>
<pdfrwt beam="1">  1        2 0.15087267E+00 0.27991438E+03</pdfrwt>
<pdfrwt beam="2">  1       -2 0.30729334E-02 0.27991438E+03</pdfrwt>
<totfact> 0.11009059E+04</totfact>
</mgrwt>
</event>
<event>
 9    1  0.8285222E-001  0.2671036E+03  0.7818608E-02  0.1102949E+00
          1   -1    0    0  501    0  0.00000000000E+00  0.00000000000E+00  0.10163353632E+04  0.10163353632E+04  0.00000000000E+00 0. -1.
         -1   -1    0    0    0  501 -0.00000000000E+00 -0.00000000000E+00 -0.17549407154E+02  0.17549407154E+02  0.00000000000E+00 0. -1.
         35    2    1    2    0    0  0.35527136788E-14  0.17763568394E-14  0.99878595604E+03  0.10338847704E+04  0.26710359858E+03 0.  0.
         25    2    3    3    0    0 -0.27766280786E+01  0.65780555139E+01  0.32552508927E+03  0.34896228932E+03  0.12552734820E+03 0.  0.
         25    2    3    3    0    0  0.27766280786E+01 -0.65780555139E+01  0.67326086678E+03  0.68492248103E+03  0.12564883530E+03 0.  0.
          5    1    4    4  502    0 -0.23559527102E+02  0.96481735477E-01  0.13912721022E+01  0.24064211270E+02  0.47000000000E+01 0.  1.
         -5    1    4    4    0  502  0.20782899023E+02  0.64815737784E+01  0.32413381716E+03  0.32489807805E+03  0.47000000000E+01 0.  1.
          5    1    5    5  503    0  0.54519702342E+02 -0.89206588423E+01  0.16626171484E+03  0.17526272827E+03  0.47000000000E+01 0. -1.
         -5    1    5    5    0  503 -0.51743074264E+02  0.23426033284E+01  0.50699915193E+03  0.50965975276E+03  0.47000000000E+01 0. -1.
<mgrwt>
<rscale>  0 0.26710360E+03</rscale>
<asrwt>0</asrwt>
<pdfrwt beam="1">  1        1 0.15635924E+00 0.26710360E+03</pdfrwt>
<pdfrwt beam="2">  1       -1 0.26999096E-02 0.26710360E+03</pdfrwt>
<totfact> 0.68422060E+03</totfact>
</mgrwt>
</event>
<event>
 9    1  0.8285222E-001  0.2724399E+03  0.7818608E-02  0.1099891E+00
          2   -1    0    0  501    0  0.00000000000E+00  0.00000000000E+00  0.57479413031E+03  0.57479413031E+03  0.00000000000E+00 0. -1.
         -2   -1    0    0    0  501 -0.00000000000E+00 -0.00000000000E+00 -0.32282649098E+02  0.32282649098E+02  0.00000000000E+00 0. -1.
         35    2    1    2    0    0  0.00000000000E+00  0.00000000000E+00  0.54251148121E+03  0.60707677941E+03  0.27243991787E+03 0.  0.
         25    2    3    3    0    0  0.51243841328E+02 -0.33438620178E+02  0.27816420764E+03  0.30838662195E+03  0.11824935345E+03 0.  0.
         25    2    3    3    0    0 -0.51243841328E+02  0.33438620178E+02  0.26434727357E+03  0.29869015746E+03  0.12486895741E+03 0.  0.
          5    1    4    4  502    0  0.10913092700E+02 -0.34324854442E+02  0.10714155160E+02  0.37870494393E+02  0.47000000000E+01 0. -1.
         -5    1    4    4    0  502  0.40330748628E+02  0.88623426377E+00  0.26745005248E+03  0.27051612756E+03  0.47000000000E+01 0. -1.
          5    1    5    5  503    0 -0.52544703763E+02  0.47291548650E+02  0.57292177067E+02  0.91114872662E+02  0.47000000000E+01 0. -1.
         -5    1    5    5    0  503  0.13008624351E+01 -0.13852928471E+02  0.20705509650E+03  0.20757528480E+03  0.47000000000E+01 0. -1.
<mgrwt>
<rscale>  0 0.27243992E+03</rscale>
<asrwt>0</asrwt>
<pdfrwt beam="1">  1        2 0.88429858E-01 0.27243992E+03</pdfrwt>
<pdfrwt beam="2">  1       -2 0.49665618E-02 0.27243992E+03</pdfrwt>
<totfact> 0.10437039E+04</totfact>
</mgrwt>
</event>
<event>
 9    1  0.8285222E-001  0.2763023E+03  0.7818608E-02  0.1097726E+00
         -2   -1    0    0    0  501 -0.00000000000E+00  0.00000000000E+00  0.51861316614E+02  0.51861316614E+02  0.00000000000E+00 0.  1.
          2   -1    0    0  501    0  0.00000000000E+00 -0.00000000000E+00 -0.36801491774E+03  0.36801491774E+03  0.00000000000E+00 0.  1.
         35    2    1    2    0    0  0.00000000000E+00  0.00000000000E+00 -0.31615360113E+03  0.41987623436E+03  0.27630228496E+03 0.  0.
         25    2    3    3    0    0 -0.33313491202E+02 -0.28386365410E+02 -0.21318320959E+03  0.25107174052E+03  0.12519729869E+03 0.  0.
         25    2    3    3    0    0  0.33313491202E+02  0.28386365410E+02 -0.10297039154E+03  0.16880449383E+03  0.12639810587E+03 0.  0.
          5    1    4    4  502    0 -0.38487522681E+02  0.44046057105E+02 -0.78774067928E+02  0.98228246073E+02  0.47000000000E+01 0. -1.
         -5    1    4    4    0  502  0.51740314785E+01 -0.72432422515E+02 -0.13440914166E+03  0.15284349445E+03  0.47000000000E+01 0. -1.
          5    1    5    5  503    0  0.55175722128E+02  0.54124398950E+02 -0.21309924244E+02  0.80311977596E+02  0.47000000000E+01 0.  1.
         -5    1    5    5    0  503 -0.21862230926E+02 -0.25738033541E+02 -0.81660467293E+02  0.88492516238E+02  0.47000000000E+01 0.  1.
<mgrwt>
<rscale>  0 0.27630228E+03</rscale>
<asrwt>0</asrwt>
<pdfrwt beam="1">  1        2 0.56617680E-01 0.27630228E+03</pdfrwt>
<pdfrwt beam="2">  1       -2 0.79786640E-02 0.27630228E+03</pdfrwt>
<totfact> 0.82504858E+03</totfact>
</mgrwt>
</event>
<event>
 9    1  0.8285222E-001  0.2741267E+03  0.7818608E-02  0.1098941E+00
          2   -1    0    0  501    0  0.00000000000E+00  0.00000000000E+00  0.31369328157E+03  0.31369328157E+03  0.00000000000E+00 0.  1.
         -2   -1    0    0    0  501 -0.00000000000E+00 -0.00000000000E+00 -0.59887662355E+02  0.59887662355E+02  0.00000000000E+00 0.  1.
         35    2    1    2    0    0  0.71054273576E-14  0.71054273576E-14  0.25380561922E+03  0.37358094393E+03  0.27412666656E+03 0.  0.
         25    2    3    3    0    0  0.26495444783E+02  0.20411602511E+02  0.13611093404E+03  0.19699050693E+03  0.13842120988E+03 0.  0.
         25    2    3    3    0    0 -0.26495444783E+02 -0.20411602511E+02  0.11769468518E+03  0.17659043699E+03  0.12733224811E+03 0.  0.
          5    1    4    4  502    0 -0.51665568955E+02 -0.17201319629E+02  0.63411486499E+02  0.83715727510E+02  0.47000000000E+01 0. -1.
         -5    1    4    4    0  502  0.78161013738E+02  0.37612922140E+02  0.72699447543E+02  0.11327477942E+03  0.47000000000E+01 0. -1.
          5    1    5    5  503    0  0.32798744623E+01  0.47812254786E+02  0.16551112097E+02  0.50919530593E+02  0.47000000000E+01 0.  1.
         -5    1    5    5    0  503 -0.29775319245E+02 -0.68223857297E+02  0.10114357308E+03  0.12567090640E+03  0.47000000000E+01 0.  1.
<mgrwt>
<rscale>  0 0.27412667E+03</rscale>
<asrwt>0</asrwt>
<pdfrwt beam="1">  1        2 0.48260504E-01 0.27412667E+03</pdfrwt>
<pdfrwt beam="2">  1       -2 0.92134867E-02 0.27412667E+03</pdfrwt>
<totfact> 0.78165813E+03</totfact>
</mgrwt>
</event>
<event>
 9    1  0.8285222E-001  0.2788455E+03  0.7818608E-02  0.1096321E+00
         -2   -1    0    0    0  501 -0.00000000000E+00  0.00000000000E+00  0.10233053697E+02  0.10233053697E+02  0.00000000000E+00 0. -1.
          2   -1    0    0  501    0  0.00000000000E+00 -0.00000000000E+00 -0.18995991619E+04  0.18995991619E+04  0.00000000000E+00 0. -1.
         35    2    1    2    0    0  0.10658141036E-13 -0.14210854715E-13 -0.18893661082E+04  0.19098322156E+04  0.27884547855E+03 0.  0.
         25    2    3    3    0    0  0.22282431257E+02 -0.57400241749E+02 -0.93401508758E+03  0.94431120551E+03  0.12469231949E+03 0.  0.
         25    2    3    3    0    0 -0.22282431257E+02  0.57400241749E+02 -0.95535102058E+03  0.96552101004E+03  0.12547491306E+03 0.  0.
          5    1    4    4  502    0 -0.51925194534E+02 -0.20318544062E+02 -0.38373012862E+03  0.38778856439E+03  0.47000000000E+01 0.  1.
         -5    1    4    4    0  502  0.74207625791E+02 -0.37081697688E+02 -0.55028495896E+03  0.55652264113E+03  0.47000000000E+01 0.  1.
          5    1    5    5  503    0 -0.96148440143E+01 -0.22720059161E+02 -0.61848240331E+03  0.61899209972E+03  0.47000000000E+01 0.  1.
         -5    1    5    5    0  503 -0.12667587243E+02  0.80120300910E+02 -0.33686861727E+03  0.34652891032E+03  0.47000000000E+01 0.  1.
<mgrwt>
<rscale>  0 0.27884548E+03</rscale>
<asrwt>0</asrwt>
<pdfrwt beam="1">  1        2 0.29224632E+00 0.27884548E+03</pdfrwt>
<pdfrwt beam="2">  1       -2 0.15743144E-02 0.27884548E+03</pdfrwt>
<totfact> 0.92229433E+03</totfact>
</mgrwt>
</event>
<event>
 9    1  0.8285222E-001  0.2777699E+03  0.7818608E-02  0.1096913E+00
          2   -1    0    0  501    0  0.00000000000E+00  0.00000000000E+00  0.12212993179E+04  0.12212993179E+04  0.00000000000E+00 0. -1.
         -2   -1    0    0    0  501 -0.00000000000E+00 -0.00000000000E+00 -0.15793856802E+02  0.15793856802E+02  0.00000000000E+00 0. -1.
         35    2    1    2    0    0 -0.71054273576E-14  0.00000000000E+00  0.12055054611E+04  0.12370931747E+04  0.27776987986E+03 0.  0.
         25    2    3    3    0    0 -0.65340270474E+01  0.47332119750E+02  0.76773886977E+03  0.77939089129E+03  0.12547575941E+03 0.  0.
         25    2    3    3    0    0  0.65340270474E+01 -0.47332119750E+02  0.43776659135E+03  0.45770228343E+03  0.12477487203E+03 0.  0.
          5    1    4    4  502    0 -0.22228559822E+02 -0.32039150536E+02  0.44120546750E+03  0.44295030262E+03  0.47000000000E+01 0.  1.
         -5    1    4    4    0  502  0.15694532775E+02  0.79371270286E+02  0.32653340226E+03  0.33644058866E+03  0.47000000000E+01 0.  1.
          5    1    5    5  503    0 -0.32399479739E+02 -0.25957386870E+02  0.39028788965E+03  0.39251782002E+03  0.47000000000E+01 0. -1.
         -5    1    5    5    0  503  0.38933506786E+02 -0.21374732880E+02  0.47478701694E+02  0.65184463417E+02  0.47000000000E+01 0. -1.
<mgrwt>
<rscale>  0 0.27776988E+03</rscale>
<asrwt>0</asrwt>
<pdfrwt beam="1">  1        2 0.18789213E+00 0.27776988E+03</pdfrwt>
<pdfrwt beam="2">  1       -2 0.24298251E-02 0.27776988E+03</pdfrwt>
<totfact> 0.11254223E+04</totfact>
</mgrwt>
</event>
<event>
 9    1  0.8285222E-001  0.2696193E+03  0.7818608E-02  0.1101498E+00
         -2   -1    0    0    0  501 -0.00000000000E+00  0.00000000000E+00  0.20552728502E+02  0.20552728502E+02  0.00000000000E+00 0. -1.
          2   -1    0    0  501    0  0.00000000000E+00 -0.00000000000E+00 -0.88424499824E+03  0.88424499824E+03  0.00000000000E+00 0. -1.
         35    2    1    2    0    0  0.00000000000E+00  0.00000000000E+00 -0.86369226974E+03  0.90479772674E+03  0.26961934187E+03 0.  0.
         25    2    3    3    0    0  0.12616741714E+01 -0.50643989937E+02 -0.43308065131E+03  0.45347200738E+03  0.12454559568E+03 0.  0.
         25    2    3    3    0    0 -0.12616741714E+01  0.50643989937E+02 -0.43061161843E+03  0.45132571936E+03  0.12530815412E+03 0.  0.
          5    1    4    4  502    0  0.59673431021E+02 -0.19690710425E+02 -0.27373019237E+03  0.28088957023E+03  0.47000000000E+01 0. -1.
         -5    1    4    4    0  502 -0.58411756850E+02 -0.30953279512E+02 -0.15935045894E+03  0.17258243716E+03  0.47000000000E+01 0. -1.
          5    1    5    5  503    0  0.47264143611E+01  0.25216843659E+02 -0.71664485893E+01  0.27049513530E+02  0.47000000000E+01 0.  1.
         -5    1    5    5    0  503 -0.59880885325E+01  0.25427146279E+02 -0.42344516984E+03  0.42427620583E+03  0.47000000000E+01 0.  1.
<mgrwt>
<rscale>  0 0.26961934E+03</rscale>
<asrwt>0</asrwt>
<pdfrwt beam="1">  1        2 0.13603769E+00 0.26961934E+03</pdfrwt>
<pdfrwt beam="2">  1       -2 0.31619583E-02 0.26961934E+03</pdfrwt>
<totfact> 0.12131402E+04</totfact>
</mgrwt>
</event>
<event>
 9    1  0.8285222E-001  0.2791819E+03  0.7818608E-02  0.1096137E+00
          4   -1    0    0  501    0  0.00000000000E+00  0.00000000000E+00  0.61894309883E+02  0.61894309883E+02  0.00000000000E+00 0.  1.
         -4   -1    0    0    0  501 -0.00000000000E+00 -0.00000000000E+00 -0.31482113574E+03  0.31482113574E+03  0.00000000000E+00 0.  1.
         35    2    1    2    0    0 -0.35527136788E-14  0.00000000000E+00 -0.25292682586E+03  0.37671544562E+03  0.27918192587E+03 0.  0.
         25    2    3    3    0    0 -0.15247315809E+02 -0.25259173003E+02 -0.53550201456E+02  0.13886759371E+03  0.12468391255E+03 0.  0.
         25    2    3    3    0    0  0.15247315809E+02  0.25259173003E+02 -0.19937662440E+03  0.23784785191E+03  0.12629353048E+03 0.  0.
          5    1    4    4  502    0  0.50051805481E+02 -0.16971909893E+02 -0.49802258715E+02  0.72770762882E+02  0.47000000000E+01 0.  1.
         -5    1    4    4    0  502 -0.65299121290E+02 -0.82872631102E+01 -0.37479427408E+01  0.66096830831E+02  0.47000000000E+01 0.  1.
          5    1    5    5  503    0 -0.28576907734E+02 -0.26481723143E+02 -0.16177886909E+02  0.42446853136E+02  0.47000000000E+01 0.  1.
         -5    1    5    5    0  503  0.43824223543E+02  0.51740896146E+02 -0.18319873749E+03  0.19540099877E+03  0.47000000000E+01 0.  1.
<mgrwt>
<rscale>  0 0.27918193E+03</rscale>
<asrwt>0</asrwt>
<pdfrwt beam="1">  1        4 0.95222014E-02 0.27918193E+03</pdfrwt>
<pdfrwt beam="2">  1       -4 0.48434022E-01 0.27918193E+03</pdfrwt>
<totfact> 0.64095882E+02</totfact>
</mgrwt>
</event>
<event>
 9    1  0.8285222E-001  0.2749250E+03  0.7818608E-02  0.1098494E+00
         -2   -1    0    0    0  501 -0.00000000000E+00  0.00000000000E+00  0.14036456183E+02  0.14036456183E+02  0.00000000000E+00 0. -1.
          2   -1    0    0  501    0  0.00000000000E+00 -0.00000000000E+00 -0.13462039540E+04  0.13462039540E+04  0.00000000000E+00 0. -1.
         35    2    1    2    0    0  0.00000000000E+00  0.00000000000E+00 -0.13321674978E+04  0.13602404102E+04  0.27492495568E+03 0.  0.
         25    2    3    3    0    0  0.37084509103E+02  0.36133776286E+02 -0.87638132185E+03  0.88527593933E+03  0.11396647254E+03 0.  0.
         25    2    3    3    0    0 -0.37084509103E+02 -0.36133776286E+02 -0.45578617599E+03  0.47496447088E+03  0.12316371124E+03 0.  0.
          5    1    4    4  502    0  0.67076115609E+02 -0.73281600995E+01 -0.37041965294E+03  0.37654444160E+03  0.47000000000E+01 0.  1.
         -5    1    4    4    0  502 -0.29991606505E+02  0.43461936385E+02 -0.50596166891E+03  0.50873149773E+03  0.47000000000E+01 0.  1.
          5    1    5    5  503    0  0.31147412953E+02  0.26247763212E+02 -0.13511360277E+03  0.14119802428E+03  0.47000000000E+01 0. -1.
         -5    1    5    5    0  503 -0.68231922057E+02 -0.62381539498E+02 -0.32067257323E+03  0.33376644660E+03  0.47000000000E+01 0. -1.
<mgrwt>
<rscale>  0 0.27492496E+03</rscale>
<asrwt>0</asrwt>
<pdfrwt beam="1">  1        2 0.20710828E+00 0.27492496E+03</pdfrwt>
<pdfrwt beam="2">  1       -2 0.21594550E-02 0.27492496E+03</pdfrwt>
<totfact> 0.11412221E+04</totfact>
</mgrwt>
</event>
<event>
 9    1  0.8285222E-001  0.2739912E+03  0.7818608E-02  0.1099017E+00
         -1   -1    0    0    0  501 -0.00000000000E+00  0.00000000000E+00  0.86786008754E+01  0.86786008754E+01  0.00000000000E+00 0.  1.
          1   -1    0    0  501    0  0.00000000000E+00 -0.00000000000E+00 -0.21625363061E+04  0.21625363061E+04  0.00000000000E+00 0.  1.
         35    2    1    2    0    0  0.00000000000E+00  0.71054273576E-14 -0.21538577052E+04  0.21712149069E+04  0.27399116394E+03 0.  0.
         25    2    3    3    0    0 -0.34356772577E+02  0.50012458036E+01 -0.14290591028E+04  0.14349249185E+04  0.12487674869E+03 0.  0.
         25    2    3    3    0    0  0.34356772577E+02 -0.50012458036E+01 -0.72479860242E+03  0.73628998840E+03  0.12483802571E+03 0.  0.
          5    1    4    4  502    0 -0.37248890538E+02  0.61762766365E+02 -0.74951488287E+03  0.75299187831E+03  0.47000000000E+01 0. -1.
         -5    1    4    4    0  502  0.28921179610E+01 -0.56761520561E+02 -0.67954421990E+03  0.68193304023E+03  0.47000000000E+01 0. -1.
          5    1    5    5  503    0  0.23005437945E+02 -0.53103991884E+02 -0.17774938272E+03  0.18699255917E+03  0.47000000000E+01 0.  1.
         -5    1    5    5    0  503  0.11351334632E+02  0.48102746080E+02 -0.54704921970E+03  0.54929742923E+03  0.47000000000E+01 0.  1.
<mgrwt>
<rscale>  0 0.27399116E+03</rscale>
<asrwt>0</asrwt>
<pdfrwt beam="1">  1        1 0.33269826E+00 0.27399116E+03</pdfrwt>
<pdfrwt beam="2">  1       -1 0.13351679E-02 0.27399116E+03</pdfrwt>
<totfact> 0.32698093E+03</totfact>
</mgrwt>
</event>
<event>
 9    1  0.8285222E-001  0.2654406E+03  0.7818608E-02  0.1103918E+00
          1   -1    0    0  501    0  0.00000000000E+00  0.00000000000E+00  0.89679819317E+03  0.89679819317E+03  0.00000000000E+00 0.  1.
         -1   -1    0    0    0  501 -0.00000000000E+00 -0.00000000000E+00 -0.19641733970E+02  0.19641733970E+02  0.00000000000E+00 0.  1.
         35    2    1    2    0    0  0.35527136788E-14  0.00000000000E+00  0.87715645920E+03  0.91643992714E+03  0.26544055105E+03 0.  0.
         25    2    3    3    0    0  0.50094438524E+00 -0.54979589716E+02  0.43542798824E+03  0.45408862301E+03  0.11651582886E+03 0.  0.
         25    2    3    3    0    0 -0.50094438524E+00  0.54979589716E+02  0.44172847096E+03  0.46235130413E+03  0.12498671987E+03 0.  0.
          5    1    4    4  502    0 -0.55609570963E+02 -0.36823417329E+02  0.27754543366E+03  0.28548545706E+03  0.47000000000E+01 0. -1.
         -5    1    4    4    0  502  0.56110515348E+02 -0.18156172387E+02  0.15788255458E+03  0.16860316595E+03  0.47000000000E+01 0. -1.
          5    1    5    5  503    0  0.56579017672E+01  0.78051924433E+02  0.14681908194E+03  0.16643932102E+03  0.47000000000E+01 0.  1.
         -5    1    5    5    0  503 -0.61588461524E+01 -0.23072334717E+02  0.29490938902E+03  0.29591198311E+03  0.47000000000E+01 0.  1.
<mgrwt>
<rscale>  0 0.26544055E+03</rscale>
<asrwt>0</asrwt>
<pdfrwt beam="1">  1        1 0.13796892E+00 0.26544055E+03</pdfrwt>
<pdfrwt beam="2">  1       -1 0.30218059E-02 0.26544055E+03</pdfrwt>
<totfact> 0.71503652E+03</totfact>
</mgrwt>
</event>
<event>
 9    1  0.8285222E-001  0.2757743E+03  0.7818608E-02  0.1098020E+00
          4   -1    0    0  501    0  0.00000000000E+00  0.00000000000E+00  0.90878112363E+02  0.90878112363E+02  0.00000000000E+00 0. -1.
         -4   -1    0    0    0  501 -0.00000000000E+00 -0.00000000000E+00 -0.20921286729E+03  0.20921286729E+03  0.00000000000E+00 0. -1.
         35    2    1    2    0    0 -0.17763568394E-14 -0.71054273576E-14 -0.11833475493E+03  0.30009097965E+03  0.27577433138E+03 0.  0.
         25    2    3    3    0    0  0.54109006592E+01  0.52752137784E+02 -0.25586033484E+02  0.13604978910E+03  0.12264923203E+03 0.  0.
         25    2    3    3    0    0 -0.54109006592E+01 -0.52752137784E+02 -0.92748721443E+02  0.16404119056E+03  0.12447939983E+03 0.  0.
          5    1    4    4  502    0 -0.55873704621E+02  0.42699367957E+02 -0.58700516352E+01  0.70722375513E+02  0.47000000000E+01 0.  1.
         -5    1    4    4    0  502  0.61284605280E+02  0.10052769827E+02 -0.19715981849E+02  0.65327413585E+02  0.47000000000E+01 0.  1.
          5    1    5    5  503    0  0.52939234341E+01  0.18035893705E+02 -0.90190917426E+02  0.92248635075E+02  0.47000000000E+01 0. -1.
         -5    1    5    5    0  503 -0.10704824093E+02 -0.70788031490E+02 -0.25578040173E+01  0.71792555481E+02  0.47000000000E+01 0. -1.
<mgrwt>
<rscale>  0 0.27577433E+03</rscale>
<asrwt>0</asrwt>
<pdfrwt beam="1">  1        4 0.13981248E-01 0.27577433E+03</pdfrwt>
<pdfrwt beam="2">  1       -4 0.32186595E-01 0.27577433E+03</pdfrwt>
<totfact> 0.74335668E+02</totfact>
</mgrwt>
</event>
<event>
 9    1  0.8285222E-001  0.2737101E+03  0.7818608E-02  0.1099175E+00
         -1   -1    0    0    0  501 -0.00000000000E+00  0.00000000000E+00  0.18757166441E+02  0.18757166441E+02  0.00000000000E+00 0.  1.
          1   -1    0    0  501    0  0.00000000000E+00 -0.00000000000E+00 -0.99851475848E+03  0.99851475848E+03  0.00000000000E+00 0.  1.
         35    2    1    2    0    0  0.00000000000E+00  0.35527136788E-14 -0.97975759204E+03  0.10172719249E+04  0.27371012052E+03 0.  0.
         25    2    3    3    0    0 -0.32377756059E+01  0.14274355319E+02 -0.67992386966E+03  0.69147822555E+03  0.12502570722E+03 0.  0.
         25    2    3    3    0    0  0.32377756059E+01 -0.14274355319E+02 -0.29983372237E+03  0.32579369936E+03  0.12659791887E+03 0.  0.
          5    1    4    4  502    0  0.46113830231E+02 -0.51470249141E+01 -0.53593876051E+03  0.53796414585E+03  0.47000000000E+01 0. -1.
         -5    1    4    4    0  502 -0.49351605837E+02  0.19421380233E+02 -0.14398510916E+03  0.15351407970E+03  0.47000000000E+01 0. -1.
          5    1    5    5  503    0 -0.39119701196E+02 -0.48601768966E+02 -0.22199885263E+03  0.23064705404E+03  0.47000000000E+01 0. -1.
         -5    1    5    5    0  503  0.42357476802E+02  0.34327413647E+02 -0.77834869745E+02  0.95146645326E+02  0.47000000000E+01 0. -1.
<mgrwt>
<rscale>  0 0.27371012E+03</rscale>
<asrwt>0</asrwt>
<pdfrwt beam="1">  1        1 0.15361766E+00 0.27371012E+03</pdfrwt>
<pdfrwt beam="2">  1       -1 0.28857179E-02 0.27371012E+03</pdfrwt>
<totfact> 0.63998436E+03</totfact>
</mgrwt>
</event>
<event>
 9    1  0.8285222E-001  0.2771335E+03  0.7818608E-02  0.1097265E+00
         -2   -1    0    0    0  501 -0.00000000000E+00  0.00000000000E+00  0.27044799959E+03  0.27044799959E+03  0.00000000000E+00 0. -1.
          2   -1    0    0  501    0  0.00000000000E+00 -0.00000000000E+00 -0.70996064048E+02  0.70996064048E+02  0.00000000000E+00 0. -1.
         35    2    1    2    0    0  0.17763568394E-14 -0.35527136788E-14  0.19945193554E+03  0.34144406364E+03  0.27713349491E+03 0.  0.
         25    2    3    3    0    0  0.79764193660E+01 -0.51048610209E+01  0.25657316897E+02  0.12758379994E+03  0.12461799719E+03 0.  0.
         25    2    3    3    0    0 -0.79764193660E+01  0.51048610209E+01  0.17379461864E+03  0.21386026370E+03  0.12426568331E+03 0.  0.
          5    1    4    4  502    0  0.25506343929E+00  0.14595550509E+02  0.73487964674E+02  0.75071073683E+02  0.47000000000E+01 0.  1.
         -5    1    4    4    0  502  0.77213559267E+01 -0.19700411530E+02 -0.47830647777E+02  0.52512726253E+02  0.47000000000E+01 0.  1.
          5    1    5    5  503    0 -0.20031873254E+02  0.61979351174E+02  0.78275178320E+02  0.10194022493E+03  0.47000000000E+01 0. -1.
         -5    1    5    5    0  503  0.12055453888E+02 -0.56874490153E+02  0.95519440322E+02  0.11192003877E+03  0.47000000000E+01 0. -1.
<mgrwt>
<rscale>  0 0.27713349E+03</rscale>
<asrwt>0</asrwt>
<pdfrwt beam="1">  1        2 0.10922472E-01 0.27713349E+03</pdfrwt>
<pdfrwt beam="2">  1       -2 0.41607384E-01 0.27713349E+03</pdfrwt>
<totfact> 0.31565840E+03</totfact>
</mgrwt>
</event>
<event>
 9    1  0.8285222E-001  0.2769840E+03  0.7818608E-02  0.1097348E+00
         -2   -1    0    0    0  501 -0.00000000000E+00  0.00000000000E+00  0.51273595253E+02  0.51273595253E+02  0.00000000000E+00 0.  1.
          2   -1    0    0  501    0  0.00000000000E+00 -0.00000000000E+00 -0.37407223732E+03  0.37407223732E+03  0.00000000000E+00 0.  1.
         35    2    1    2    0    0  0.00000000000E+00  0.00000000000E+00 -0.32279864207E+03  0.42534583257E+03  0.27698395976E+03 0.  0.
         25    2    3    3    0    0 -0.42313630191E+02  0.37103925730E+02 -0.18963841504E+03  0.23406516909E+03  0.12512645731E+03 0.  0.
         25    2    3    3    0    0  0.42313630191E+02 -0.37103925730E+02 -0.13316022702E+03  0.19128066348E+03  0.12525774050E+03 0.  0.
          5    1    4    4  502    0  0.12204434275E+02  0.56690101774E+02 -0.15694392251E+03  0.16738040706E+03  0.47000000000E+01 0.  1.
         -5    1    4    4    0  502 -0.54518064465E+02 -0.19586176045E+02 -0.32694492529E+02  0.66684762029E+02  0.47000000000E+01 0.  1.
          5    1    5    5  503    0 -0.67482544452E+01  0.29190505167E+02 -0.96042249591E+02  0.10071657379E+03  0.47000000000E+01 0. -1.
         -5    1    5    5    0  503  0.49061884636E+02 -0.66294430897E+02 -0.37117977431E+02  0.90564089685E+02  0.47000000000E+01 0. -1.
<mgrwt>
<rscale>  0 0.27698396E+03</rscale>
<asrwt>0</asrwt>
<pdfrwt beam="1">  1        2 0.57549577E-01 0.27698396E+03</pdfrwt>
<pdfrwt beam="2">  1       -2 0.78882452E-02 0.27698396E+03</pdfrwt>
<totfact> 0.82523212E+03</totfact>
</mgrwt>
</event>
<event>
 9    1  0.8285222E-001  0.2741492E+03  0.7818608E-02  0.1098928E+00
         -1   -1    0    0    0  501 -0.00000000000E+00  0.00000000000E+00  0.19298879352E+02  0.19298879352E+02  0.00000000000E+00 0.  1.
          1   -1    0    0  501    0  0.00000000000E+00 -0.00000000000E+00 -0.97360260348E+03  0.97360260348E+03  0.00000000000E+00 0.  1.
         35    2    1    2    0    0  0.00000000000E+00  0.17763568394E-14 -0.95430372413E+03  0.99290148283E+03  0.27414915051E+03 0.  0.
         25    2    3    3    0    0 -0.20384123321E+02 -0.46986358818E+01 -0.65134904175E+03  0.66362698528E+03  0.12533001130E+03 0.  0.
         25    2    3    3    0    0  0.20384123321E+02  0.46986358818E+01 -0.30295468238E+03  0.32927449755E+03  0.12728929846E+03 0.  0.
          5    1    4    4  502    0  0.36563410620E+02 -0.47669203136E+01 -0.68088403624E+02  0.77574011328E+02  0.47000000000E+01 0. -1.
         -5    1    4    4    0  502 -0.56947533941E+02  0.68284431830E-01 -0.58326063813E+03  0.58605297395E+03  0.47000000000E+01 0. -1.
          5    1    5    5  503    0  0.61030095209E+02  0.53663937461E+01 -0.26950478336E+03  0.27642067389E+03  0.47000000000E+01 0. -1.
         -5    1    5    5    0  503 -0.40645971887E+02 -0.66775786429E+00 -0.33449899017E+02  0.52853823660E+02  0.47000000000E+01 0. -1.
<mgrwt>
<rscale>  0 0.27414915E+03</rscale>
<asrwt>0</asrwt>
<pdfrwt beam="1">  1        1 0.14978500E+00 0.27414915E+03</pdfrwt>
<pdfrwt beam="2">  1       -1 0.29690587E-02 0.27414915E+03</pdfrwt>
<totfact> 0.64078448E+03</totfact>
</mgrwt>
</event>
<event>
 9    1  0.8285222E-001  0.2759636E+03  0.7818608E-02  0.1097914E+00
         -2   -1    0    0    0  501 -0.00000000000E+00  0.00000000000E+00  0.61305103831E+02  0.61305103831E+02  0.00000000000E+00 0. -1.
          2   -1    0    0  501    0  0.00000000000E+00 -0.00000000000E+00 -0.31056109931E+03  0.31056109931E+03  0.00000000000E+00 0. -1.
         35    2    1    2    0    0 -0.71054273576E-14 -0.35527136788E-14 -0.24925599548E+03  0.37186620314E+03  0.27596362397E+03 0.  0.
         25    2    3    3    0    0 -0.36470842342E+02 -0.74701948589E+00 -0.18778193778E+03  0.22807227027E+03  0.12419429911E+03 0.  0.
         25    2    3    3    0    0  0.36470842342E+02  0.74701948589E+00 -0.61474057699E+02  0.14379393287E+03  0.12476760389E+03 0.  0.
          5    1    4    4  502    0 -0.17461843360E+02  0.51956671123E+02 -0.34826213477E+02  0.65110420003E+02  0.47000000000E+01 0.  1.
         -5    1    4    4    0  502 -0.19008998982E+02 -0.52703690609E+02 -0.15295572430E+03  0.16296185027E+03  0.47000000000E+01 0.  1.
          5    1    5    5  503    0  0.39159220103E+02  0.18769944367E+02 -0.95441675128E+02  0.10496170102E+03  0.47000000000E+01 0.  1.
         -5    1    5    5    0  503 -0.26883777606E+01 -0.18022924881E+02  0.33967617429E+02  0.38832231845E+02  0.47000000000E+01 0.  1.
<mgrwt>
<rscale>  0 0.27596362E+03</rscale>
<asrwt>0</asrwt>
<pdfrwt beam="1">  1        2 0.47778631E-01 0.27596362E+03</pdfrwt>
<pdfrwt beam="2">  1       -2 0.94315544E-02 0.27596362E+03</pdfrwt>
<totfact> 0.76165710E+03</totfact>
</mgrwt>
</event>
<event>
 9    1  0.8285222E-001  0.2731247E+03  0.7818608E-02  0.1099504E+00
         -2   -1    0    0    0  501 -0.00000000000E+00  0.00000000000E+00  0.49125001460E+02  0.49125001460E+02  0.00000000000E+00 0. -1.
          2   -1    0    0  501    0  0.00000000000E+00 -0.00000000000E+00 -0.37962897123E+03  0.37962897123E+03  0.00000000000E+00 0. -1.
         35    2    1    2    0    0  0.00000000000E+00  0.14210854715E-13 -0.33050396977E+03  0.42875397269E+03  0.27312468776E+03 0.  0.
         25    2    3    3    0    0  0.42314595283E+02  0.33815252932E+02 -0.18261334550E+03  0.22782954673E+03  0.12499868841E+03 0.  0.
         25    2    3    3    0    0 -0.42314595283E+02 -0.33815252932E+02 -0.14789062427E+03  0.20092442596E+03  0.12475973667E+03 0.  0.
          5    1    4    4  502    0  0.54558892791E+01  0.42390464599E+02 -0.17965010673E+01  0.43035283580E+02  0.47000000000E+01 0. -1.
         -5    1    4    4    0  502  0.36858706004E+02 -0.85752116666E+01 -0.18081684443E+03  0.18479426315E+03  0.47000000000E+01 0. -1.
          5    1    5    5  503    0 -0.14208440768E+02  0.38665740947E+01  0.20702903189E+02  0.25836609389E+02  0.47000000000E+01 0.  1.
         -5    1    5    5    0  503 -0.28106154515E+02 -0.37681827027E+02 -0.16859352746E+03  0.17508781657E+03  0.47000000000E+01 0.  1.
<mgrwt>
<rscale>  0 0.27312469E+03</rscale>
<asrwt>0</asrwt>
<pdfrwt beam="1">  1        2 0.58404456E-01 0.27312469E+03</pdfrwt>
<pdfrwt beam="2">  1       -2 0.75576927E-02 0.27312469E+03</pdfrwt>
<totfact> 0.86773323E+03</totfact>
</mgrwt>
</event>
<event>
 9    1  0.8285222E-001  0.2746524E+03  0.7818608E-02  0.1098646E+00
         -2   -1    0    0    0  501 -0.00000000000E+00  0.00000000000E+00  0.35107159335E+02  0.35107159335E+02  0.00000000000E+00 0.  1.
          2   -1    0    0  501    0  0.00000000000E+00 -0.00000000000E+00 -0.53716938311E+03  0.53716938311E+03  0.00000000000E+00 0.  1.
         35    2    1    2    0    0 -0.10658141036E-13 -0.71054273576E-14 -0.50206222378E+03  0.57227654245E+03  0.27465244308E+03 0.  0.
         25    2    3    3    0    0  0.19694993354E+02 -0.43315918124E+02 -0.31605463652E+03  0.34315574201E+03  0.12490463755E+03 0.  0.
         25    2    3    3    0    0 -0.19694993354E+02  0.43315918124E+02 -0.18600758725E+03  0.22912080044E+03  0.12503342413E+03 0.  0.
          5    1    4    4  502    0  0.58363065866E+02 -0.33522158964E+02 -0.84439165498E+02  0.10808351062E+03  0.47000000000E+01 0. -1.
         -5    1    4    4    0  502 -0.38668072512E+02 -0.97937591602E+01 -0.23161547103E+03  0.23507223139E+03  0.47000000000E+01 0. -1.
          5    1    5    5  503    0 -0.32535214020E+02  0.70806547700E+02 -0.57393803681E+02  0.96892961816E+02  0.47000000000E+01 0. -1.
         -5    1    5    5    0  503  0.12840220666E+02 -0.27490629576E+02 -0.12861378357E+03  0.13222783862E+03  0.47000000000E+01 0. -1.
<mgrwt>
<rscale>  0 0.27465244E+03</rscale>
<asrwt>0</asrwt>
<pdfrwt beam="1">  1        2 0.82641429E-01 0.27465244E+03</pdfrwt>
<pdfrwt beam="2">  1       -2 0.54011024E-02 0.27465244E+03</pdfrwt>
<totfact> 0.99268927E+03</totfact>
</mgrwt>
</event>
<event>
 9    1  0.8285222E-001  0.2758971E+03  0.7818608E-02  0.1097951E+00
         -2   -1    0    0    0  501 -0.00000000000E+00  0.00000000000E+00  0.31002637480E+02  0.31002637480E+02  0.00000000000E+00 0.  1.
          2   -1    0    0  501    0  0.00000000000E+00 -0.00000000000E+00 -0.61381227297E+03  0.61381227297E+03  0.00000000000E+00 0.  1.
         35    2    1    2    0    0  0.00000000000E+00  0.00000000000E+00 -0.58280963549E+03  0.64481491045E+03  0.27589707776E+03 0.  0.
         25    2    3    3    0    0 -0.55123603307E+02  0.73751012600E+01 -0.33963226411E+03  0.36603221174E+03  0.12464550311E+03 0.  0.
         25    2    3    3    0    0  0.55123603307E+02 -0.73751012600E+01 -0.24317737138E+03  0.27878269871E+03  0.12446507699E+03 0.  0.
          5    1    4    4  502    0 -0.76457625554E+01 -0.42208436882E+02 -0.40821598654E+02  0.59401201551E+02  0.47000000000E+01 0. -1.
         -5    1    4    4    0  502 -0.47477840752E+02  0.49583538142E+02 -0.29881066546E+03  0.30663101019E+03  0.47000000000E+01 0. -1.
          5    1    5    5  503    0 -0.16715861006E+02 -0.48011316401E+02 -0.12028685510E+03  0.13067334855E+03  0.47000000000E+01 0.  1.
         -5    1    5    5    0  503  0.71839464314E+02  0.40636215141E+02 -0.12289051628E+03  0.14810935016E+03  0.47000000000E+01 0.  1.
<mgrwt>
<rscale>  0 0.27589708E+03</rscale>
<asrwt>0</asrwt>
<pdfrwt beam="1">  1        2 0.94432662E-01 0.27589708E+03</pdfrwt>
<pdfrwt beam="2">  1       -2 0.47696363E-02 0.27589708E+03</pdfrwt>
<totfact> 0.10289693E+04</totfact>
</mgrwt>
</event>
<event>
 9    1  0.8285222E-001  0.2788064E+03  0.7818608E-02  0.1096343E+00
         -2   -1    0    0    0  501 -0.00000000000E+00  0.00000000000E+00  0.28676891805E+02  0.28676891805E+02  0.00000000000E+00 0. -1.
          2   -1    0    0  501    0  0.00000000000E+00 -0.00000000000E+00 -0.67766232122E+03  0.67766232122E+03  0.00000000000E+00 0. -1.
         35    2    1    2    0    0  0.00000000000E+00  0.71054273576E-14 -0.64898542941E+03  0.70633921302E+03  0.27880637773E+03 0.  0.
         25    2    3    3    0    0 -0.33750789866E+02  0.10529751029E+02 -0.45246108535E+03  0.47056429657E+03  0.12433717052E+03 0.  0.
         25    2    3    3    0    0  0.33750789866E+02 -0.10529751029E+02 -0.19652434406E+03  0.23577491645E+03  0.12537145587E+03 0.  0.
          5    1    4    4  502    0 -0.20023228120E+02  0.38153148665E+02 -0.47116997974E+02  0.64021042755E+02  0.47000000000E+01 0.  1.
         -5    1    4    4    0  502 -0.13727561746E+02 -0.27623397637E+02 -0.40534408738E+03  0.40654325382E+03  0.47000000000E+01 0.  1.
          5    1    5    5  503    0 -0.15529466367E+01  0.54903938545E+02 -0.72212619104E+02  0.90849361411E+02  0.47000000000E+01 0.  1.
         -5    1    5    5    0  503  0.35303736502E+02 -0.65433689574E+02 -0.12431172495E+03  0.14492555504E+03  0.47000000000E+01 0.  1.
<mgrwt>
<rscale>  0 0.27880638E+03</rscale>
<asrwt>0</asrwt>
<pdfrwt beam="1">  1        2 0.10425572E+00 0.27880638E+03</pdfrwt>
<pdfrwt beam="2">  1       -2 0.44118303E-02 0.27880638E+03</pdfrwt>
<totfact> 0.10302024E+04</totfact>
</mgrwt>
</event>
<event>
 9    1  0.8285222E-001  0.2728066E+03  0.7818608E-02  0.1099684E+00
          2   -1    0    0  501    0  0.00000000000E+00  0.00000000000E+00  0.89526731235E+01  0.89526731235E+01  0.00000000000E+00 0.  1.
         -2   -1    0    0    0  501 -0.00000000000E+00 -0.00000000000E+00 -0.20782456494E+04  0.20782456494E+04  0.00000000000E+00 0.  1.
         35    2    1    2    0    0  0.00000000000E+00  0.35527136788E-14 -0.20692929762E+04  0.20871983225E+04  0.27280655395E+03 0.  0.
         25    2    3    3    0    0  0.48653638570E+02 -0.12916952142E+02 -0.83957653947E+03  0.85024965603E+03  0.12450577393E+03 0.  0.
         25    2    3    3    0    0 -0.48653638570E+02  0.12916952142E+02 -0.12297164368E+04  0.12369486665E+04  0.12371525533E+03 0.  0.
          5    1    4    4  502    0 -0.13669786358E+02  0.22449295718E+02 -0.58849093194E+03  0.58909634264E+03  0.47000000000E+01 0.  1.
         -5    1    4    4    0  502  0.62323424928E+02 -0.35366247861E+02 -0.25108560753E+03  0.26115331339E+03  0.47000000000E+01 0.  1.
          5    1    5    5  503    0 -0.81837970590E+02 -0.32160575275E+00 -0.52970206972E+03  0.53600739690E+03  0.47000000000E+01 0. -1.
         -5    1    5    5    0  503  0.33184332019E+02  0.13238557895E+02 -0.70001436704E+03  0.70094126956E+03  0.47000000000E+01 0. -1.
<mgrwt>
<rscale>  0 0.27280655E+03</rscale>
<asrwt>0</asrwt>
<pdfrwt beam="1">  1        2 0.13773332E-02 0.27280655E+03</pdfrwt>
<pdfrwt beam="2">  1       -2 0.31973036E+00 0.27280655E+03</pdfrwt>
<totfact> 0.25801867E+02</totfact>
</mgrwt>
</event>
<event>
 9    1  0.8285222E-001  0.2774355E+03  0.7818608E-02  0.1097098E+00
          1   -1    0    0  501    0  0.00000000000E+00  0.00000000000E+00  0.83877677267E+03  0.83877677267E+03  0.00000000000E+00 0.  1.
         -1   -1    0    0    0  501 -0.00000000000E+00 -0.00000000000E+00 -0.22941277106E+02  0.22941277106E+02  0.00000000000E+00 0.  1.
         35    2    1    2    0    0  0.00000000000E+00  0.35527136788E-14  0.81583549556E+03  0.86171804977E+03  0.27743547265E+03 0.  0.
         25    2    3    3    0    0  0.16756631864E+02 -0.24689595141E+02  0.56827514208E+03  0.58266923779E+03  0.12520560189E+03 0.  0.
         25    2    3    3    0    0 -0.16756631864E+02  0.24689595141E+02  0.24756035349E+03  0.27904881198E+03  0.12526671558E+03 0.  0.
          5    1    4    4  502    0  0.59842277438E+02 -0.34357982331E+02  0.19782717287E+03  0.20956919966E+03  0.47000000000E+01 0.  1.
         -5    1    4    4    0  502 -0.43085645574E+02  0.96683871902E+01  0.37044796920E+03  0.37310003813E+03  0.47000000000E+01 0.  1.
          5    1    5    5  503    0  0.32961839973E+02 -0.31308728233E+02  0.14458884226E+03  0.15164017497E+03  0.47000000000E+01 0. -1.
         -5    1    5    5    0  503 -0.49718471837E+02  0.55998323374E+02  0.10297151123E+03  0.12740863702E+03  0.47000000000E+01 0. -1.
<mgrwt>
<rscale>  0 0.27743547E+03</rscale>
<asrwt>0</asrwt>
<pdfrwt beam="1">  1        1 0.12904256E+00 0.27743547E+03</pdfrwt>
<pdfrwt beam="2">  1       -1 0.35294279E-02 0.27743547E+03</pdfrwt>
<totfact> 0.63317538E+03</totfact>
</mgrwt>
</event>
<event>
 9    1  0.8285222E-001  0.2751862E+03  0.7818608E-02  0.1098348E+00
         -2   -1    0    0    0  501 -0.00000000000E+00  0.00000000000E+00  0.58325683893E+01  0.58325683893E+01  0.00000000000E+00 0. -1.
          2   -1    0    0  501    0  0.00000000000E+00 -0.00000000000E+00 -0.32458882334E+04  0.32458882334E+04  0.00000000000E+00 0. -1.
         35    2    1    2    0    0  0.00000000000E+00 -0.35527136788E-14 -0.32400556650E+04  0.32517208018E+04  0.27518622862E+03 0.  0.
         25    2    3    3    0    0  0.43175467850E+02 -0.13027558902E+02 -0.21917837071E+04  0.21958148242E+04  0.12511229098E+03 0.  0.
         25    2    3    3    0    0 -0.43175467850E+02  0.13027558902E+02 -0.10482719579E+04  0.10559059776E+04  0.11844617915E+03 0.  0.
          5    1    4    4  502    0  0.35469625676E+02 -0.63060528523E+02 -0.16665112054E+04  0.16680876513E+04  0.47000000000E+01 0. -1.
         -5    1    4    4    0  502  0.77058421744E+01  0.50032969621E+02 -0.52527250165E+03  0.52772717292E+03  0.47000000000E+01 0. -1.
          5    1    5    5  503    0 -0.79244727258E+02 -0.17638481134E+01 -0.85540075037E+03  0.85907821046E+03  0.47000000000E+01 0.  1.
         -5    1    5    5    0  503  0.36069259408E+02  0.14791407016E+02 -0.19287120756E+03  0.19682776710E+03  0.47000000000E+01 0.  1.
<mgrwt>
<rscale>  0 0.27518623E+03</rscale>
<asrwt>0</asrwt>
<pdfrwt beam="1">  1        2 0.49936702E+00 0.27518623E+03</pdfrwt>
<pdfrwt beam="2">  1       -2 0.89731893E-03 0.27518623E+03</pdfrwt>
<totfact> 0.36855113E+03</totfact>
</mgrwt>
</event>
<event>
 9    1  0.8285222E-001  0.2743449E+03  0.7818608E-02  0.1098818E+00
          2   -1    0    0  501    0  0.00000000000E+00  0.00000000000E+00  0.35732217741E+03  0.35732217741E+03  0.00000000000E+00 0. -1.
         -2   -1    0    0    0  501 -0.00000000000E+00 -0.00000000000E+00 -0.52659166039E+02  0.52659166039E+02  0.00000000000E+00 0. -1.
         35    2    1    2    0    0 -0.14210854715E-13 -0.17763568394E-14  0.30466301137E+03  0.40998134345E+03  0.27434494980E+03 0.  0.
         25    2    3    3    0    0  0.47121463772E+02  0.64831568700E+01  0.10771504762E+03  0.17145721414E+03  0.12462977625E+03 0.  0.
         25    2    3    3    0    0 -0.47121463772E+02 -0.64831568700E+01  0.19694796375E+03  0.23852412931E+03  0.12586816978E+03 0.  0.
          5    1    4    4  502    0  0.72180699886E+02 -0.16143002339E+01  0.12146389886E+03  0.14137973026E+03  0.47000000000E+01 0. -1.
         -5    1    4    4    0  502 -0.25059236114E+02  0.80974571040E+01 -0.13748851245E+02  0.30077483883E+02  0.47000000000E+01 0. -1.
          5    1    5    5  503    0 -0.73961578090E+02 -0.44831987753E+02  0.11410805644E+03  0.14325837045E+03  0.47000000000E+01 0. -1.
         -5    1    5    5    0  503  0.26840114319E+02  0.38348830883E+02  0.82839907314E+02  0.95265758857E+02  0.47000000000E+01 0. -1.
<mgrwt>
<rscale>  0 0.27434495E+03</rscale>
<asrwt>0</asrwt>
<pdfrwt beam="1">  1        2 0.54972641E-01 0.27434495E+03</pdfrwt>
<pdfrwt beam="2">  1       -2 0.81014104E-02 0.27434495E+03</pdfrwt>
<totfact> 0.83146830E+03</totfact>
</mgrwt>
</event>
<event>
 9    1  0.8285222E-001  0.2820887E+03  0.7818608E-02  0.1094554E+00
          1   -1    0    0  501    0  0.00000000000E+00  0.00000000000E+00  0.23819324011E+03  0.23819324011E+03  0.00000000000E+00 0. -1.
         -1   -1    0    0    0  501 -0.00000000000E+00 -0.00000000000E+00 -0.83518375238E+02  0.83518375238E+02  0.00000000000E+00 0. -1.
         35    2    1    2    0    0  0.00000000000E+00  0.00000000000E+00  0.15467486488E+03  0.32171161535E+03  0.28208872652E+03 0.  0.
         25    2    3    3    0    0 -0.43197208003E+02  0.39201115670E+02  0.10317155175E+03  0.17234239925E+03  0.12511917215E+03 0.  0.
         25    2    3    3    0    0  0.43197208003E+02 -0.39201115670E+02  0.51503313122E+02  0.14936921610E+03  0.12749841257E+03 0.  0.
          5    1    4    4  502    0 -0.71106382888E+02  0.66732143982E+02  0.64078231534E+02  0.11677930675E+03  0.47000000000E+01 0. -1.
         -5    1    4    4    0  502  0.27909174885E+02 -0.27531028312E+02  0.39093320220E+02  0.55563092503E+02  0.47000000000E+01 0. -1.
          5    1    5    5  503    0  0.70452365060E+02 -0.14977632844E+02 -0.14681791126E+02  0.73658062823E+02  0.47000000000E+01 0.  1.
         -5    1    5    5    0  503 -0.27255157057E+02 -0.24223482826E+02  0.66185104248E+02  0.75711153279E+02  0.47000000000E+01 0.  1.
<mgrwt>
<rscale>  0 0.28208873E+03</rscale>
<asrwt>0</asrwt>
<pdfrwt beam="1">  1        1 0.36645114E-01 0.28208873E+03</pdfrwt>
<pdfrwt beam="2">  1       -1 0.12848981E-01 0.28208873E+03</pdfrwt>
<totfact> 0.48030259E+03</totfact>
</mgrwt>
</event>
<event>
 9    1  0.8285222E-001  0.2719371E+03  0.7818608E-02  0.1100176E+00
          2   -1    0    0  501    0  0.00000000000E+00  0.00000000000E+00  0.23453238169E+04  0.23453238169E+04  0.00000000000E+00 0.  1.
         -2   -1    0    0    0  501 -0.00000000000E+00 -0.00000000000E+00 -0.78826842122E+01  0.78826842122E+01  0.00000000000E+00 0.  1.
         35    2    1    2    0    0  0.00000000000E+00  0.00000000000E+00  0.23374411327E+04  0.23532065011E+04  0.27193710320E+03 0.  0.
         25    2    3    3    0    0  0.55318529941E+02 -0.38967607746E+01  0.11140120868E+04  0.11222329388E+04  0.12372758308E+03 0.  0.
         25    2    3    3    0    0 -0.55318529941E+02  0.38967607746E+01  0.12234290458E+04  0.12309735623E+04  0.12426566852E+03 0.  0.
          5    1    4    4  502    0  0.56443875178E+02  0.47111612027E+02  0.42665142941E+03  0.43296529566E+03  0.47000000000E+01 0. -1.
         -5    1    4    4    0  502 -0.11253452376E+01 -0.51008372802E+02  0.68736065741E+03  0.68926764312E+03  0.47000000000E+01 0. -1.
          5    1    5    5  503    0 -0.65591351664E+02 -0.33992562955E+02  0.10691233134E+04  0.10716830077E+04  0.47000000000E+01 0. -1.
         -5    1    5    5    0  503  0.10272821723E+02  0.37889323730E+02  0.15430573246E+03  0.15929055461E+03  0.47000000000E+01 0. -1.
<mgrwt>
<rscale>  0 0.27193710E+03</rscale>
<asrwt>0</asrwt>
<pdfrwt beam="1">  1        2 0.36081849E+00 0.27193710E+03</pdfrwt>
<pdfrwt beam="2">  1       -2 0.12127225E-02 0.27193710E+03</pdfrwt>
<totfact> 0.78356506E+03</totfact>
</mgrwt>
</event>
<event>
 9    1  0.8285222E-001  0.2750201E+03  0.7818608E-02  0.1098440E+00
          2   -1    0    0  501    0  0.00000000000E+00  0.00000000000E+00  0.34453151721E+03  0.34453151721E+03  0.00000000000E+00 0. -1.
         -2   -1    0    0    0  501 -0.00000000000E+00 -0.00000000000E+00 -0.54883259135E+02  0.54883259135E+02  0.00000000000E+00 0. -1.
         35    2    1    2    0    0  0.00000000000E+00 -0.71054273576E-14  0.28964825808E+03  0.39941477635E+03  0.27502009046E+03 0.  0.
         25    2    3    3    0    0  0.33535448240E+02 -0.30440036381E+02  0.91310951698E+02  0.16126633167E+03  0.12497166770E+03 0.  0.
         25    2    3    3    0    0 -0.33535448240E+02  0.30440036381E+02  0.19833730638E+03  0.23814844467E+03  0.12379730408E+03 0.  0.
          5    1    4    4  502    0  0.41202612233E+02 -0.24535336258E+02  0.12070411274E+03  0.12996619104E+03  0.47000000000E+01 0.  1.
         -5    1    4    4    0  502 -0.76671639934E+01 -0.59047001233E+01 -0.29393161046E+02  0.31300140631E+02  0.47000000000E+01 0.  1.
          5    1    5    5  503    0 -0.20568573378E+02  0.78757451804E+02  0.12554117645E+03  0.14969462051E+03  0.47000000000E+01 0.  1.
         -5    1    5    5    0  503 -0.12966874861E+02 -0.48317415423E+02  0.72796129924E+02  0.88453824161E+02  0.47000000000E+01 0.  1.
<mgrwt>
<rscale>  0 0.27502009E+03</rscale>
<asrwt>0</asrwt>
<pdfrwt beam="1">  1        2 0.53004847E-01 0.27502009E+03</pdfrwt>
<pdfrwt beam="2">  1       -2 0.84435785E-02 0.27502009E+03</pdfrwt>
<totfact> 0.81066965E+03</totfact>
</mgrwt>
</event>
<event>
 9    1  0.8285222E-001  0.2744437E+03  0.7818608E-02  0.1098763E+00
          1   -1    0    0  501    0  0.00000000000E+00  0.00000000000E+00  0.19920657842E+04  0.19920657842E+04  0.00000000000E+00 0.  1.
         -1   -1    0    0    0  501 -0.00000000000E+00 -0.00000000000E+00 -0.94524144392E+01  0.94524144392E+01  0.00000000000E+00 0.  1.
         35    2    1    2    0    0  0.71054273576E-14  0.00000000000E+00  0.19826133697E+04  0.20015181986E+04  0.27444366549E+03 0.  0.
         25    2    3    3    0    0  0.32065545963E+02 -0.30324584670E+02  0.12850618457E+04  0.12920654144E+04  0.12689093017E+03 0.  0.
         25    2    3    3    0    0 -0.32065545963E+02  0.30324584670E+02  0.69755152407E+03  0.70945278424E+03  0.12164433675E+03 0.  0.
          5    1    4    4  502    0 -0.26687310232E+02 -0.60670656235E+02  0.54366766005E+03  0.54771320565E+03  0.47000000000E+01 0.  1.
         -5    1    4    4    0  502  0.58752856195E+02  0.30346071565E+02  0.74139418562E+03  0.74435220873E+03  0.47000000000E+01 0.  1.
          5    1    5    5  503    0 -0.77437863413E+02  0.31211369443E+02  0.46771132182E+03  0.47512813307E+03  0.47000000000E+01 0.  1.
         -5    1    5    5    0  503  0.45372317450E+02 -0.88678477292E+00  0.22984020225E+03  0.23432465117E+03  0.47000000000E+01 0.  1.
<mgrwt>
<rscale>  0 0.27444367E+03</rscale>
<asrwt>0</asrwt>
<pdfrwt beam="1">  1        1 0.30647132E+00 0.27444367E+03</pdfrwt>
<pdfrwt beam="2">  1       -1 0.14542192E-02 0.27444367E+03</pdfrwt>
<totfact> 0.37279002E+03</totfact>
</mgrwt>
</event>
<event>
 9    1  0.8285222E-001  0.2718481E+03  0.7818608E-02  0.1100227E+00
         -2   -1    0    0    0  501 -0.00000000000E+00  0.00000000000E+00  0.14535171550E+02  0.14535171550E+02  0.00000000000E+00 0. -1.
          2   -1    0    0  501    0  0.00000000000E+00 -0.00000000000E+00 -0.12710791623E+04  0.12710791623E+04  0.00000000000E+00 0. -1.
         35    2    1    2    0    0  0.71054273576E-14  0.00000000000E+00 -0.12565439907E+04  0.12856143338E+04  0.27184814642E+03 0.  0.
         25    2    3    3    0    0 -0.25110901790E+02  0.43458968614E+02 -0.57735360661E+03  0.59305338862E+03  0.12592019433E+03 0.  0.
         25    2    3    3    0    0  0.25110901790E+02 -0.43458968614E+02 -0.67919038410E+03  0.69256094520E+03  0.12578491808E+03 0.  0.
          5    1    4    4  502    0 -0.67535893382E+02  0.91683520625E+01 -0.19122418038E+03  0.20306140140E+03  0.47000000000E+01 0.  1.
         -5    1    4    4    0  502  0.42424991592E+02  0.34290616551E+02 -0.38612942623E+03  0.38999198722E+03  0.47000000000E+01 0.  1.
          5    1    5    5  503    0 -0.25530948493E+02 -0.31830199615E+02 -0.70151423270E+02  0.81291470187E+02  0.47000000000E+01 0.  1.
         -5    1    5    5    0  503  0.50641850282E+02 -0.11628768999E+02 -0.60903896083E+03  0.61126947501E+03  0.47000000000E+01 0.  1.
<mgrwt>
<rscale>  0 0.27184815E+03</rscale>
<asrwt>0</asrwt>
<pdfrwt beam="1">  1        2 0.19555060E+00 0.27184815E+03</pdfrwt>
<pdfrwt beam="2">  1       -2 0.22361807E-02 0.27184815E+03</pdfrwt>
<totfact> 0.11923627E+04</totfact>
</mgrwt>
</event>
<event>
 9    1  0.8285222E-001  0.2724236E+03  0.7818608E-02  0.1099900E+00
          1   -1    0    0  501    0  0.00000000000E+00  0.00000000000E+00  0.12316065935E+03  0.12316065935E+03  0.00000000000E+00 0.  1.
         -1   -1    0    0    0  501 -0.00000000000E+00 -0.00000000000E+00 -0.15064598212E+03  0.15064598212E+03  0.00000000000E+00 0.  1.
         35    2    1    2    0    0  0.00000000000E+00  0.00000000000E+00 -0.27485322771E+02  0.27380664148E+03  0.27242362957E+03 0.  0.
         25    2    3    3    0    0  0.57895014152E+02  0.32306622631E+00 -0.15441273481E+02  0.13855018627E+03  0.12492311297E+03 0.  0.
         25    2    3    3    0    0 -0.57895014152E+02 -0.32306622631E+00 -0.12044049290E+02  0.13525645521E+03  0.12164420461E+03 0.  0.
          5    1    4    4  502    0 -0.23744957839E+01  0.12450057036E+02 -0.60622436979E+02  0.62111287346E+02  0.47000000000E+01 0. -1.
         -5    1    4    4    0  502  0.60269509936E+02 -0.12126990810E+02  0.45181163498E+02  0.76438898926E+02  0.47000000000E+01 0. -1.
          5    1    5    5  503    0 -0.52252521693E+01  0.31578869729E+02 -0.52328912760E+02  0.61521812264E+02  0.47000000000E+01 0.  1.
         -5    1    5    5    0  503 -0.52669761983E+02 -0.31901935956E+02  0.40284863470E+02  0.73734642942E+02  0.47000000000E+01 0.  1.
<mgrwt>
<rscale>  0 0.27242363E+03</rscale>
<asrwt>0</asrwt>
<pdfrwt beam="1">  1        1 0.18947794E-01 0.27242363E+03</pdfrwt>
<pdfrwt beam="2">  1       -1 0.23176305E-01 0.27242363E+03</pdfrwt>
<totfact> 0.43017275E+03</totfact>
</mgrwt>
</event>
<event>
 9    1  0.8285222E-001  0.2836761E+03  0.7818608E-02  0.1093698E+00
         -1   -1    0    0    0  501 -0.00000000000E+00  0.00000000000E+00  0.21384845004E+02  0.21384845004E+02  0.00000000000E+00 0.  1.
          1   -1    0    0  501    0  0.00000000000E+00 -0.00000000000E+00 -0.94076151015E+03  0.94076151015E+03  0.00000000000E+00 0.  1.
         35    2    1    2    0    0  0.71054273576E-14  0.00000000000E+00 -0.91937666515E+03  0.96214635516E+03  0.28367614691E+03 0.  0.
         25    2    3    3    0    0  0.54377565640E+02 -0.28898805552E+02 -0.36571320340E+03  0.39124090897E+03  0.12462440011E+03 0.  0.
         25    2    3    3    0    0 -0.54377565640E+02  0.28898805552E+02 -0.55366346175E+03  0.57090544619E+03  0.12489090842E+03 0.  0.
          5    1    4    4  502    0 -0.16103880393E+02 -0.52488214085E+02 -0.22924459796E+03  0.23577430580E+03  0.47000000000E+01 0. -1.
         -5    1    4    4    0  502  0.70481446034E+02  0.23589408533E+02 -0.13646860544E+03  0.15546660317E+03  0.47000000000E+01 0. -1.
          5    1    5    5  503    0 -0.83951125591E+02  0.19884316613E+02 -0.22930489756E+03  0.24504286070E+03  0.47000000000E+01 0. -1.
         -5    1    5    5    0  503  0.29573559950E+02  0.90144889388E+01 -0.32435856419E+03  0.32586258549E+03  0.47000000000E+01 0. -1.
<mgrwt>
<rscale>  0 0.28367615E+03</rscale>
<asrwt>0</asrwt>
<pdfrwt beam="1">  1        1 0.14473256E+00 0.28367615E+03</pdfrwt>
<pdfrwt beam="2">  1       -1 0.32899757E-02 0.28367615E+03</pdfrwt>
<totfact> 0.58375080E+03</totfact>
</mgrwt>
</event>
<event>
 9    1  0.8285222E-001  0.2766346E+03  0.7818608E-02  0.1097541E+00
         -3   -1    0    0    0  501 -0.00000000000E+00  0.00000000000E+00  0.61467761139E+03  0.61467761139E+03  0.00000000000E+00 0.  1.
          3   -1    0    0  501    0  0.00000000000E+00 -0.00000000000E+00 -0.31124727298E+02  0.31124727298E+02  0.00000000000E+00 0.  1.
         35    2    1    2    0    0  0.71054273576E-14  0.10658141036E-13  0.58355288409E+03  0.64580233869E+03  0.27663458230E+03 0.  0.
         25    2    3    3    0    0 -0.49306022039E+02 -0.31718153864E+02  0.37244551258E+03  0.39379725171E+03  0.11368153114E+03 0.  0.
         25    2    3    3    0    0  0.49306022039E+02  0.31718153864E+02  0.21110737152E+03  0.25200508698E+03  0.12451151136E+03 0.  0.
          5    1    4    4  502    0 -0.68809728901E+01 -0.24136400694E+02  0.33653741488E+03  0.33750471885E+03  0.47000000000E+01 0. -1.
         -5    1    4    4    0  502 -0.42425049149E+02 -0.75817531706E+01  0.35908097694E+02  0.56292532865E+02  0.47000000000E+01 0. -1.
          5    1    5    5  503    0  0.17834053722E+02  0.76420312701E+02  0.15342227407E+03  0.17239084038E+03  0.47000000000E+01 0.  1.
         -5    1    5    5    0  503  0.31471968317E+02 -0.44702158837E+02  0.57685097443E+02  0.79614246599E+02  0.47000000000E+01 0.  1.
<mgrwt>
<rscale>  0 0.27663458E+03</rscale>
<asrwt>0</asrwt>
<pdfrwt beam="1">  1        3 0.47884200E-02 0.27663458E+03</pdfrwt>
<pdfrwt beam="2">  1       -3 0.94565777E-01 0.27663458E+03</pdfrwt>
<totfact> 0.63739449E+02</totfact>
</mgrwt>
</event>
<event>
 9    1  0.8285222E-001  0.2730735E+03  0.7818608E-02  0.1099533E+00
          4   -1    0    0  501    0  0.00000000000E+00  0.00000000000E+00  0.49961942297E+02  0.49961942297E+02  0.00000000000E+00 0.  1.
         -4   -1    0    0    0  501 -0.00000000000E+00 -0.00000000000E+00 -0.37312970577E+03  0.37312970577E+03  0.00000000000E+00 0.  1.
         35    2    1    2    0    0  0.71054273576E-14  0.00000000000E+00 -0.32316776347E+03  0.42309164806E+03  0.27307350533E+03 0.  0.
         25    2    3    3    0    0  0.27124290383E+02 -0.11186910596E+01 -0.89361099665E+02  0.15637954369E+03  0.12542797516E+03 0.  0.
         25    2    3    3    0    0 -0.27124290383E+02  0.11186910596E+01 -0.23380666380E+03  0.26671210437E+03  0.12543050658E+03 0.  0.
          5    1    4    4  502    0 -0.83583904009E+01  0.51116441884E+02 -0.69799165378E+01  0.52474399052E+02  0.47000000000E+01 0.  1.
         -5    1    4    4    0  502  0.35482680784E+02 -0.52235132944E+02 -0.82381183127E+02  0.10390514464E+03  0.47000000000E+01 0.  1.
          5    1    5    5  503    0 -0.56920985526E+02  0.45763018771E+02 -0.11583204435E+03  0.13701607562E+03  0.47000000000E+01 0. -1.
         -5    1    5    5    0  503  0.29796695143E+02 -0.44644327711E+02 -0.11797461946E+03  0.12969602875E+03  0.47000000000E+01 0. -1.
<mgrwt>
<rscale>  0 0.27307351E+03</rscale>
<asrwt>0</asrwt>
<pdfrwt beam="1">  1        4 0.76864526E-02 0.27307351E+03</pdfrwt>
<pdfrwt beam="2">  1       -4 0.57404571E-01 0.27307351E+03</pdfrwt>
<totfact> 0.64353475E+02</totfact>
</mgrwt>
</event>
<event>
 9    1  0.8285222E-001  0.2691930E+03  0.7818608E-02  0.1101742E+00
          2   -1    0    0  501    0  0.00000000000E+00  0.00000000000E+00  0.42489090848E+03  0.42489090848E+03  0.00000000000E+00 0. -1.
         -2   -1    0    0    0  501 -0.00000000000E+00 -0.00000000000E+00 -0.42637348950E+02  0.42637348950E+02  0.00000000000E+00 0. -1.
         35    2    1    2    0    0 -0.35527136788E-14  0.35527136788E-14  0.38225355953E+03  0.46752825743E+03  0.26919303060E+03 0.  0.
         25    2    3    3    0    0 -0.93332837109E+00 -0.10944992924E+02  0.10460923381E+03  0.16289891211E+03  0.12438769954E+03 0.  0.
         25    2    3    3    0    0  0.93332837109E+00  0.10944992924E+02  0.27764432572E+03  0.30462934532E+03  0.12486794005E+03 0.  0.
          5    1    4    4  502    0 -0.18296307461E+02  0.17459377170E+02 -0.20787903433E+02  0.33072823391E+02  0.47000000000E+01 0.  1.
         -5    1    4    4    0  502  0.17362979090E+02 -0.28404370095E+02  0.12539713725E+03  0.12982608872E+03  0.47000000000E+01 0.  1.
          5    1    5    5  503    0  0.59050007406E+02  0.20701877310E+02  0.10709233409E+03  0.12412223459E+03  0.47000000000E+01 0. -1.
         -5    1    5    5    0  503 -0.58116679035E+02 -0.97568843858E+01  0.17055199163E+03  0.18050711073E+03  0.47000000000E+01 0. -1.
<mgrwt>
<rscale>  0 0.26919303E+03</rscale>
<asrwt>0</asrwt>
<pdfrwt beam="1">  1        2 0.65367829E-01 0.26919303E+03</pdfrwt>
<pdfrwt beam="2">  1       -2 0.65595925E-02 0.26919303E+03</pdfrwt>
<totfact> 0.95548466E+03</totfact>
</mgrwt>
</event>
<event>
 9    1  0.8285222E-001  0.2845602E+03  0.7818608E-02  0.1093224E+00
         -3   -1    0    0    0  501 -0.00000000000E+00  0.00000000000E+00  0.61055049972E+02  0.61055049972E+02  0.00000000000E+00 0.  1.
          3   -1    0    0  501    0  0.00000000000E+00 -0.00000000000E+00 -0.33156347487E+03  0.33156347487E+03  0.00000000000E+00 0.  1.
         35    2    1    2    0    0 -0.17763568394E-14  0.00000000000E+00 -0.27050842490E+03  0.39261852484E+03  0.28456018363E+03 0.  0.
         25    2    3    3    0    0 -0.84548753179E+01  0.58776190364E+02 -0.87037880964E+02  0.16344848831E+03  0.12495475237E+03 0.  0.
         25    2    3    3    0    0  0.84548753179E+01 -0.58776190364E+02 -0.18347054393E+03  0.22917003653E+03  0.12381978711E+03 0.  0.
          5    1    4    4  502    0  0.25006764386E+02  0.46444862914E+01 -0.95624712668E+02  0.99061017513E+02  0.47000000000E+01 0.  1.
         -5    1    4    4    0  502 -0.33461639704E+02  0.54131704073E+02  0.85868317039E+01  0.64387470802E+02  0.47000000000E+01 0.  1.
          5    1    5    5  503    0 -0.74048086667E+01 -0.81334206056E+02 -0.57154760421E+02  0.99793992329E+02  0.47000000000E+01 0. -1.
         -5    1    5    5    0  503  0.15859683985E+02  0.22558015692E+02 -0.12631578351E+03  0.12937604420E+03  0.47000000000E+01 0. -1.
<mgrwt>
<rscale>  0 0.28456018E+03</rscale>
<asrwt>0</asrwt>
<pdfrwt beam="1">  1        3 0.51009766E-01 0.28456018E+03</pdfrwt>
<pdfrwt beam="2">  1       -3 0.93930846E-02 0.28456018E+03</pdfrwt>
<totfact> 0.80168388E+02</totfact>
</mgrwt>
</event>
<event>
 9    1  0.8285222E-001  0.2734618E+03  0.7818608E-02  0.1099315E+00
         -1   -1    0    0    0  501 -0.00000000000E+00  0.00000000000E+00  0.32821701408E+02  0.32821701408E+02  0.00000000000E+00 0. -1.
          1   -1    0    0  501    0  0.00000000000E+00 -0.00000000000E+00 -0.56960301671E+03  0.56960301671E+03  0.00000000000E+00 0. -1.
         35    2    1    2    0    0  0.35527136788E-14 -0.71054273576E-14 -0.53678131530E+03  0.60242471811E+03  0.27346180819E+03 0.  0.
         25    2    3    3    0    0  0.21058199859E+02 -0.50735163086E+02 -0.24032690990E+03  0.27607614751E+03  0.12427192380E+03 0.  0.
         25    2    3    3    0    0 -0.21058199859E+02  0.50735163086E+02 -0.29645440540E+03  0.32634857061E+03  0.12490264410E+03 0.  0.
          5    1    4    4  502    0 -0.24447904811E+01  0.31056979597E+02 -0.14464711660E+02  0.34667432348E+02  0.47000000000E+01 0.  1.
         -5    1    4    4    0  502  0.23502990341E+02 -0.81792142684E+02 -0.22586219824E+03  0.24140871516E+03  0.47000000000E+01 0.  1.
          5    1    5    5  503    0 -0.27142196641E+02  0.85775766295E+02 -0.14503751653E+03  0.17074001325E+03  0.47000000000E+01 0. -1.
         -5    1    5    5    0  503  0.60839967820E+01 -0.35040603208E+02 -0.15141688886E+03  0.15560855736E+03  0.47000000000E+01 0. -1.
<mgrwt>
<rscale>  0 0.27346181E+03</rscale>
<asrwt>0</asrwt>
<pdfrwt beam="1">  1        1 0.87631223E-01 0.27346181E+03</pdfrwt>
<pdfrwt beam="2">  1       -1 0.50494931E-02 0.27346181E+03</pdfrwt>
<totfact> 0.65289052E+03</totfact>
</mgrwt>
</event>
<event>
 9    1  0.8285222E-001  0.2723613E+03  0.7818608E-02  0.1099936E+00
         -1   -1    0    0    0  501 -0.00000000000E+00  0.00000000000E+00  0.61629035472E+03  0.61629035472E+03  0.00000000000E+00 0. -1.
          1   -1    0    0  501    0  0.00000000000E+00 -0.00000000000E+00 -0.30091614895E+02  0.30091614895E+02  0.00000000000E+00 0. -1.
         35    2    1    2    0    0  0.14210854715E-13 -0.71054273576E-14  0.58619873982E+03  0.64638196961E+03  0.27236131897E+03 0.  0.
         25    2    3    3    0    0 -0.38846319298E+02  0.11319870362E+02  0.36027668626E+03  0.38393854571E+03  0.12638172428E+03 0.  0.
         25    2    3    3    0    0  0.38846319298E+02 -0.11319870362E+02  0.22592205357E+03  0.26244342391E+03  0.12727372264E+03 0.  0.
          5    1    4    4  502    0 -0.26175808559E+02 -0.57039621640E+02  0.16417969663E+03  0.17582876379E+03  0.47000000000E+01 0. -1.
         -5    1    4    4    0  502 -0.12670510739E+02  0.68359492003E+02  0.19609698963E+03  0.20810978192E+03  0.47000000000E+01 0. -1.
          5    1    5    5  503    0 -0.87220968411E+01  0.23735328893E+02 -0.30707565171E+01  0.25902902474E+02  0.47000000000E+01 0. -1.
         -5    1    5    5    0  503  0.47568416139E+02 -0.35055199255E+02  0.22899281009E+03  0.23654052143E+03  0.47000000000E+01 0. -1.
<mgrwt>
<rscale>  0 0.27236132E+03</rscale>
<asrwt>0</asrwt>
<pdfrwt beam="1">  1        1 0.46294797E-02 0.27236132E+03</pdfrwt>
<pdfrwt beam="2">  1       -1 0.94813891E-01 0.27236132E+03</pdfrwt>
<totfact> 0.20987191E+03</totfact>
</mgrwt>
</event>
<event>
 9    1  0.8285222E-001  0.2712422E+03  0.7818608E-02  0.1100571E+00
          2   -1    0    0  501    0  0.00000000000E+00  0.00000000000E+00  0.15106662651E+02  0.15106662651E+02  0.00000000000E+00 0.  1.
         -2   -1    0    0    0  501 -0.00000000000E+00 -0.00000000000E+00 -0.12175473269E+04  0.12175473269E+04  0.00000000000E+00 0.  1.
         35    2    1    2    0    0  0.71054273576E-14  0.00000000000E+00 -0.12024406642E+04  0.12326539895E+04  0.27124215549E+03 0.  0.
         25    2    3    3    0    0 -0.39734209096E+02 -0.12944113123E+02 -0.73403622902E+03  0.74594860060E+03  0.12603083661E+03 0.  0.
         25    2    3    3    0    0  0.39734209096E+02  0.12944113123E+02 -0.46840443519E+03  0.48670538892E+03  0.12543150824E+03 0.  0.
          5    1    4    4  502    0  0.33606922260E+02 -0.26720342274E+02 -0.45576051373E+03  0.45780250959E+03  0.47000000000E+01 0. -1.
         -5    1    4    4    0  502 -0.73341131356E+02  0.13776229150E+02 -0.27827571530E+03  0.28814609100E+03  0.47000000000E+01 0. -1.
          5    1    5    5  503    0 -0.35453416160E+02  0.38599176160E+02 -0.18414559520E+03  0.19151639969E+03  0.47000000000E+01 0. -1.
         -5    1    5    5    0  503  0.75187625256E+02 -0.25655063037E+02 -0.28425883999E+03  0.29518898923E+03  0.47000000000E+01 0. -1.
<mgrwt>
<rscale>  0 0.27124216E+03</rscale>
<asrwt>0</asrwt>
<pdfrwt beam="1">  1        2 0.23241026E-02 0.27124216E+03</pdfrwt>
<pdfrwt beam="2">  1       -2 0.18731492E+00 0.27124216E+03</pdfrwt>
<totfact> 0.77422479E+02</totfact>
</mgrwt>
</event>
<event>
 9    1  0.8285222E-001  0.2741079E+03  0.7818608E-02  0.1098951E+00
         -2   -1    0    0    0  501 -0.00000000000E+00  0.00000000000E+00  0.21152292413E+02  0.21152292413E+02  0.00000000000E+00 0.  1.
          2   -1    0    0  501    0  0.00000000000E+00 -0.00000000000E+00 -0.88802587915E+03  0.88802587915E+03  0.00000000000E+00 0.  1.
         35    2    1    2    0    0 -0.71054273576E-14  0.71054273576E-14 -0.86687358674E+03  0.90917817157E+03  0.27410788436E+03 0.  0.
         25    2    3    3    0    0 -0.13274929142E+02 -0.25395582164E+02 -0.59582929012E+03  0.60955289863E+03  0.12538354729E+03 0.  0.
         25    2    3    3    0    0  0.13274929142E+02  0.25395582164E+02 -0.27104429662E+03  0.29962527294E+03  0.12445534988E+03 0.  0.
          5    1    4    4  502    0  0.25550652261E+02 -0.16603067331E+02 -0.32494552029E+02  0.44793789607E+02  0.47000000000E+01 0. -1.
         -5    1    4    4    0  502 -0.38825581403E+02 -0.87925148326E+01 -0.56333473809E+03  0.56475910902E+03  0.47000000000E+01 0. -1.
          5    1    5    5  503    0  0.53247111375E+02  0.47556326449E+02 -0.10298555220E+03  0.12539925445E+03  0.47000000000E+01 0.  1.
         -5    1    5    5    0  503 -0.39972182233E+02 -0.22160744285E+02 -0.16805874443E+03  0.17422601849E+03  0.47000000000E+01 0.  1.
<mgrwt>
<rscale>  0 0.27410788E+03</rscale>
<asrwt>0</asrwt>
<pdfrwt beam="1">  1        2 0.13661936E+00 0.27410788E+03</pdfrwt>
<pdfrwt beam="2">  1       -2 0.32541990E-02 0.27410788E+03</pdfrwt>
<totfact> 0.11563067E+04</totfact>
</mgrwt>
</event>
<event>
 9    1  0.8285222E-001  0.2931977E+03  0.7818608E-02  0.1088691E+00
          1   -1    0    0  501    0  0.00000000000E+00  0.00000000000E+00  0.87656473068E+03  0.87656473068E+03  0.00000000000E+00 0.  1.
         -1   -1    0    0    0  501 -0.00000000000E+00 -0.00000000000E+00 -0.24517557579E+02  0.24517557579E+02  0.00000000000E+00 0.  1.
         35    2    1    2    0    0 -0.26645352591E-14  0.14210854715E-13  0.85204717311E+03  0.90108228826E+03  0.29319772343E+03 0.  0.
         25    2    3    3    0    0  0.20165538758E+01  0.76583926870E+02  0.39348792939E+03  0.41976438549E+03  0.12449989722E+03 0.  0.
         25    2    3    3    0    0 -0.20165538758E+01 -0.76583926870E+02  0.45855924372E+03  0.48131790277E+03  0.12458402461E+03 0.  0.
          5    1    4    4  502    0 -0.11580261781E+01  0.77824643871E+02  0.40198249545E+03  0.40947531411E+03  0.47000000000E+01 0.  1.
         -5    1    4    4    0  502  0.31745800538E+01 -0.12407170015E+01 -0.84945660638E+01  0.10289071377E+02  0.47000000000E+01 0.  1.
          5    1    5    5  503    0 -0.31495469580E+02 -0.47824498905E+00  0.26033634001E+02  0.41134333854E+02  0.47000000000E+01 0. -1.
         -5    1    5    5    0  503  0.29478915704E+02 -0.76105681881E+02  0.43252560972E+03  0.44018356892E+03  0.47000000000E+01 0. -1.
<mgrwt>
<rscale>  0 0.29319772E+03</rscale>
<asrwt>0</asrwt>
<pdfrwt beam="1">  1        1 0.13485609E+00 0.29319772E+03</pdfrwt>
<pdfrwt beam="2">  1       -1 0.37719326E-02 0.29319772E+03</pdfrwt>
<totfact> 0.53543641E+03</totfact>
</mgrwt>
</event>
<event>
 9    1  0.8285222E-001  0.2753867E+03  0.7818608E-02  0.1098236E+00
         -1   -1    0    0    0  501 -0.00000000000E+00  0.00000000000E+00  0.62826714255E+01  0.62826714255E+01  0.00000000000E+00 0.  1.
          1   -1    0    0  501    0  0.00000000000E+00 -0.00000000000E+00 -0.30177393580E+04  0.30177393580E+04  0.00000000000E+00 0.  1.
         35    2    1    2    0    0  0.00000000000E+00  0.00000000000E+00 -0.30114566865E+04  0.30240220294E+04  0.27538674503E+03 0.  0.
         25    2    3    3    0    0  0.34629890679E+02 -0.43443533203E+02 -0.13558687002E+04  0.13627121021E+04  0.12457034641E+03 0.  0.
         25    2    3    3    0    0 -0.34629890679E+02  0.43443533203E+02 -0.16555879864E+04  0.16613099273E+04  0.12606555435E+03 0.  0.
          5    1    4    4  502    0  0.22672087041E+02  0.39634360162E+02 -0.69567249879E+03  0.69718521328E+03  0.47000000000E+01 0.  1.
         -5    1    4    4    0  502  0.11957803638E+02 -0.83077893365E+02 -0.66019620137E+03  0.66552688882E+03  0.47000000000E+01 0.  1.
          5    1    5    5  503    0  0.33460453327E+02 -0.35246623944E+01 -0.99034029618E+03  0.99092281103E+03  0.47000000000E+01 0. -1.
         -5    1    5    5    0  503 -0.68090344005E+02  0.46968195597E+02 -0.66524769019E+03  0.67038711626E+03  0.47000000000E+01 0. -1.
<mgrwt>
<rscale>  0 0.27538675E+03</rscale>
<asrwt>0</asrwt>
<pdfrwt beam="1">  1        1 0.46426903E+00 0.27538675E+03</pdfrwt>
<pdfrwt beam="2">  1       -1 0.96656184E-03 0.27538675E+03</pdfrwt>
<totfact> 0.13896804E+03</totfact>
</mgrwt>
</event>
<event>
 9    1  0.8285222E-001  0.2765862E+03  0.7818608E-02  0.1097568E+00
         -1   -1    0    0    0  501 -0.00000000000E+00  0.00000000000E+00  0.34947101401E+02  0.34947101401E+02  0.00000000000E+00 0.  1.
          1   -1    0    0  501    0  0.00000000000E+00 -0.00000000000E+00 -0.54725517138E+03  0.54725517138E+03  0.00000000000E+00 0.  1.
         35    2    1    2    0    0 -0.35527136788E-14  0.71054273576E-14 -0.51230806998E+03  0.58220227278E+03  0.27658620332E+03 0.  0.
         25    2    3    3    0    0  0.19100243299E+02 -0.26741479624E+02 -0.35496735252E+03  0.37800702338E+03  0.12572812868E+03 0.  0.
         25    2    3    3    0    0 -0.19100243299E+02  0.26741479624E+02 -0.15734071746E+03  0.20419524940E+03  0.12593519159E+03 0.  0.
          5    1    4    4  502    0 -0.11651096264E+02 -0.65347572670E+02 -0.11407446714E+03  0.13206486039E+03  0.47000000000E+01 0.  1.
         -5    1    4    4    0  502  0.30751339563E+02  0.38606093046E+02 -0.24089288538E+03  0.24594216298E+03  0.47000000000E+01 0.  1.
          5    1    5    5  503    0 -0.37754035248E+02 -0.42020028379E+02 -0.51912921362E+02  0.76864109744E+02  0.47000000000E+01 0.  1.
         -5    1    5    5    0  503  0.18653791949E+02  0.68761508003E+02 -0.10542779609E+03  0.12733113966E+03  0.47000000000E+01 0.  1.
<mgrwt>
<rscale>  0 0.27658620E+03</rscale>
<asrwt>0</asrwt>
<pdfrwt beam="1">  1        1 0.84193109E-01 0.27658620E+03</pdfrwt>
<pdfrwt beam="2">  1       -1 0.53764767E-02 0.27658620E+03</pdfrwt>
<totfact> 0.62775194E+03</totfact>
</mgrwt>
</event>
<event>
 9    1  0.8285222E-001  0.2753599E+03  0.7818608E-02  0.1098251E+00
          2   -1    0    0  501    0  0.00000000000E+00  0.00000000000E+00  0.28399555370E+04  0.28399555370E+04  0.00000000000E+00 0.  1.
         -2   -1    0    0    0  501 -0.00000000000E+00 -0.00000000000E+00 -0.66746687523E+01  0.66746687523E+01  0.00000000000E+00 0.  1.
         35    2    1    2    0    0 -0.14210854715E-13  0.00000000000E+00  0.28332808682E+04  0.28466302057E+04  0.27535985532E+03 0.  0.
         25    2    3    3    0    0 -0.53643877891E+02  0.18606903902E+02  0.15430515082E+04  0.15491135350E+04  0.12458292365E+03 0.  0.
         25    2    3    3    0    0  0.53643877891E+02 -0.18606903902E+02  0.12902293600E+04  0.12975166707E+04  0.12503530234E+03 0.  0.
          5    1    4    4  502    0 -0.94256622611E+02  0.17671583779E+02  0.10773419387E+04  0.10816119168E+04  0.47000000000E+01 0.  1.
         -5    1    4    4    0  502  0.40612744720E+02  0.93532012266E+00  0.46570956952E+03  0.46750161818E+03  0.47000000000E+01 0.  1.
          5    1    5    5  503    0  0.77560209424E+02  0.11706543804E+02  0.11262155344E+04  0.11289535638E+04  0.47000000000E+01 0. -1.
         -5    1    5    5    0  503 -0.23916331533E+02 -0.30313447706E+02  0.16401382560E+03  0.16856310691E+03  0.47000000000E+01 0. -1.
<mgrwt>
<rscale>  0 0.27535986E+03</rscale>
<asrwt>0</asrwt>
<pdfrwt beam="1">  1        2 0.43691527E+00 0.27535986E+03</pdfrwt>
<pdfrwt beam="2">  1       -2 0.10268744E-02 0.27535986E+03</pdfrwt>
<totfact> 0.53014861E+03</totfact>
</mgrwt>
</event>
<event>
 9    1  0.8285222E-001  0.2731307E+03  0.7818608E-02  0.1099501E+00
          2   -1    0    0  501    0  0.00000000000E+00  0.00000000000E+00  0.27268210281E+03  0.27268210281E+03  0.00000000000E+00 0. -1.
         -2   -1    0    0    0  501 -0.00000000000E+00 -0.00000000000E+00 -0.68395030153E+02  0.68395030153E+02  0.00000000000E+00 0. -1.
         35    2    1    2    0    0  0.00000000000E+00  0.35527136788E-14  0.20428707266E+03  0.34107713297E+03  0.27313074264E+03 0.  0.
         25    2    3    3    0    0  0.45224888513E+02 -0.30660939714E+02  0.11977877457E+03  0.18129888575E+03  0.12464729188E+03 0.  0.
         25    2    3    3    0    0 -0.45224888513E+02  0.30660939714E+02  0.84508298093E+02  0.15977824721E+03  0.12410500421E+03 0.  0.
          5    1    4    4  502    0  0.28299034611E+01  0.15813338278E+02 -0.21105363721E+02  0.26936896608E+02  0.47000000000E+01 0.  1.
         -5    1    4    4    0  502  0.42394985052E+02 -0.46474277992E+02  0.14088413829E+03  0.15436198915E+03  0.47000000000E+01 0.  1.
          5    1    5    5  503    0 -0.41763362028E+01 -0.32425597568E+02 -0.13868250973E+02  0.35822891379E+02  0.47000000000E+01 0. -1.
         -5    1    5    5    0  503 -0.41048552310E+02  0.63086537282E+02  0.98376549067E+02  0.12395535583E+03  0.47000000000E+01 0. -1.
<mgrwt>
<rscale>  0 0.27313074E+03</rscale>
<asrwt>0</asrwt>
<pdfrwt beam="1">  1        2 0.41951092E-01 0.27313074E+03</pdfrwt>
<pdfrwt beam="2">  1       -2 0.10522312E-01 0.27313074E+03</pdfrwt>
<totfact> 0.73591401E+03</totfact>
</mgrwt>
</event>
<event>
 9    1  0.8285222E-001  0.2749024E+03  0.7818608E-02  0.1098506E+00
         -4   -1    0    0    0  501 -0.00000000000E+00  0.00000000000E+00  0.26463616589E+03  0.26463616589E+03  0.00000000000E+00 0.  1.
          4   -1    0    0  501    0  0.00000000000E+00 -0.00000000000E+00 -0.71391735357E+02  0.71391735357E+02  0.00000000000E+00 0.  1.
         35    2    1    2    0    0  0.00000000000E+00 -0.71054273576E-14  0.19324443053E+03  0.33602790124E+03  0.27490241993E+03 0.  0.
         25    2    3    3    0    0  0.50718433120E+00 -0.26012089226E+02  0.15584906065E+03  0.20346378372E+03  0.12818617537E+03 0.  0.
         25    2    3    3    0    0 -0.50718433120E+00  0.26012089226E+02  0.37395369880E+02  0.13256411753E+03  0.12449074482E+03 0.  0.
          5    1    4    4  502    0 -0.44719341878E+02  0.33172269763E+02  0.73447380456E+02  0.92286655130E+02  0.47000000000E+01 0.  1.
         -5    1    4    4    0  502  0.45226526209E+02 -0.59184358989E+02  0.82401680195E+02  0.11117712859E+03  0.47000000000E+01 0.  1.
          5    1    5    5  503    0  0.32984409243E+02 -0.39472311830E+02  0.26520027894E+02  0.58064072660E+02  0.47000000000E+01 0.  1.
         -5    1    5    5    0  503 -0.33491593574E+02  0.65484401057E+02  0.10875341986E+02  0.74500044867E+02  0.47000000000E+01 0.  1.
<mgrwt>
<rscale>  0 0.27490242E+03</rscale>
<asrwt>0</asrwt>
<pdfrwt beam="1">  1        4 0.10983344E-01 0.27490242E+03</pdfrwt>
<pdfrwt beam="2">  1       -4 0.40713256E-01 0.27490242E+03</pdfrwt>
<totfact> 0.71217382E+02</totfact>
</mgrwt>
</event>
<event>
 9    1  0.8285222E-001  0.2695548E+03  0.7818608E-02  0.1101535E+00
         -2   -1    0    0    0  501 -0.00000000000E+00  0.00000000000E+00  0.40634446966E+02  0.40634446966E+02  0.00000000000E+00 0.  1.
          2   -1    0    0  501    0  0.00000000000E+00 -0.00000000000E+00 -0.44703318793E+03  0.44703318793E+03  0.00000000000E+00 0.  1.
         35    2    1    2    0    0  0.00000000000E+00  0.00000000000E+00 -0.40639874097E+03  0.48766763490E+03  0.26955479122E+03 0.  0.
         25    2    3    3    0    0 -0.29703032690E+02 -0.14437554192E+02 -0.13509964913E+03  0.18713562666E+03  0.12520828426E+03 0.  0.
         25    2    3    3    0    0  0.29703032690E+02  0.14437554192E+02 -0.27129909183E+03  0.30053200824E+03  0.12500231048E+03 0.  0.
          5    1    4    4  502    0 -0.18025093051E+02 -0.32633148942E+02  0.11171126493E+02  0.39200898670E+02  0.47000000000E+01 0. -1.
         -5    1    4    4    0  502 -0.11677939639E+02  0.18195594750E+02 -0.14627077563E+03  0.14793472799E+03  0.47000000000E+01 0. -1.
          5    1    5    5  503    0 -0.12450741986E+02  0.14051928037E+02 -0.25397905041E+03  0.25471538176E+03  0.47000000000E+01 0. -1.
         -5    1    5    5    0  503  0.42153774676E+02  0.38562615548E+00 -0.17320041419E+02  0.45816626476E+02  0.47000000000E+01 0. -1.
<mgrwt>
<rscale>  0 0.26955479E+03</rscale>
<asrwt>0</asrwt>
<pdfrwt beam="1">  1        2 0.68774334E-01 0.26955479E+03</pdfrwt>
<pdfrwt beam="2">  1       -2 0.62514536E-02 0.26955479E+03</pdfrwt>
<totfact> 0.97327581E+03</totfact>
</mgrwt>
</event>
<event>
 9    1  0.8285222E-001  0.2595298E+03  0.7818608E-02  0.1107426E+00
         -2   -1    0    0    0  501 -0.00000000000E+00  0.00000000000E+00  0.30944151844E+02  0.30944151844E+02  0.00000000000E+00 0.  1.
          2   -1    0    0  501    0  0.00000000000E+00 -0.00000000000E+00 -0.54417175876E+03  0.54417175876E+03  0.00000000000E+00 0.  1.
         35    2    1    2    0    0 -0.35527136788E-14  0.17763568394E-14 -0.51322760691E+03  0.57511591060E+03  0.25952983283E+03 0.  0.
         25    2    3    3    0    0  0.17627954753E+02 -0.13095035977E+02 -0.31155396138E+03  0.33620468107E+03  0.12444071667E+03 0.  0.
         25    2    3    3    0    0 -0.17627954753E+02  0.13095035977E+02 -0.20167364554E+03  0.23891122953E+03  0.12619069513E+03 0.  0.
          5    1    4    4  502    0 -0.12835804816E+02  0.29741761050E+02 -0.16854292276E+02  0.36816944520E+02  0.47000000000E+01 0.  1.
         -5    1    4    4    0  502  0.30463759570E+02 -0.42836797028E+02 -0.29469966910E+03  0.29938773655E+03  0.47000000000E+01 0.  1.
          5    1    5    5  503    0  0.14808366656E+02  0.15362346447E+02  0.10477507378E+02  0.24231334512E+02  0.47000000000E+01 0. -1.
         -5    1    5    5    0  503 -0.32436321409E+02 -0.22673104696E+01 -0.21215115292E+03  0.21467989502E+03  0.47000000000E+01 0. -1.
<mgrwt>
<rscale>  0 0.25952983E+03</rscale>
<asrwt>0</asrwt>
<pdfrwt beam="1">  1        2 0.83718730E-01 0.25952983E+03</pdfrwt>
<pdfrwt beam="2">  1       -2 0.47606389E-02 0.25952983E+03</pdfrwt>
<totfact> 0.11823473E+04</totfact>
</mgrwt>
</event>
<event>
 9    1  0.8285222E-001  0.2740049E+03  0.7818608E-02  0.1099009E+00
          2   -1    0    0  501    0  0.00000000000E+00  0.00000000000E+00  0.39801655850E+03  0.39801655850E+03  0.00000000000E+00 0. -1.
         -2   -1    0    0    0  501 -0.00000000000E+00 -0.00000000000E+00 -0.47158007490E+02  0.47158007490E+02  0.00000000000E+00 0. -1.
         35    2    1    2    0    0 -0.35527136788E-14 -0.71054273576E-14  0.35085855101E+03  0.44517456599E+03  0.27400487475E+03 0.  0.
         25    2    3    3    0    0  0.65414596158E+01 -0.26751688199E+02  0.25078246443E+03  0.28259575597E+03  0.12731878617E+03 0.  0.
         25    2    3    3    0    0 -0.65414596158E+01  0.26751688199E+02  0.10007608659E+03  0.16257881002E+03  0.12513274091E+03 0.  0.
          5    1    4    4  502    0 -0.29594273169E+02 -0.59151706075E+02  0.74691069923E+02  0.99877881747E+02  0.47000000000E+01 0.  1.
         -5    1    4    4    0  502  0.36135732785E+02  0.32400017876E+02  0.17609139450E+03  0.18271787422E+03  0.47000000000E+01 0.  1.
          5    1    5    5  503    0  0.52279326946E+02  0.29099257297E+02  0.80404265029E+02  0.10033359675E+03  0.47000000000E+01 0.  1.
         -5    1    5    5    0  503 -0.58820786562E+02 -0.23475690984E+01  0.19671821556E+02  0.62245213276E+02  0.47000000000E+01 0.  1.
<mgrwt>
<rscale>  0 0.27400487E+03</rscale>
<asrwt>0</asrwt>
<pdfrwt beam="1">  1        2 0.61233314E-01 0.27400487E+03</pdfrwt>
<pdfrwt beam="2">  1       -2 0.72550783E-02 0.27400487E+03</pdfrwt>
<totfact> 0.87851104E+03</totfact>
</mgrwt>
</event>
<event>
 9    1  0.8285222E-001  0.2738107E+03  0.7818608E-02  0.1099118E+00
          2   -1    0    0  501    0  0.00000000000E+00  0.00000000000E+00  0.13474725187E+04  0.13474725187E+04  0.00000000000E+00 0. -1.
         -2   -1    0    0    0  501 -0.00000000000E+00 -0.00000000000E+00 -0.13909804270E+02  0.13909804270E+02  0.00000000000E+00 0. -1.
         35    2    1    2    0    0  0.71054273576E-14  0.00000000000E+00  0.13335627144E+04  0.13613823230E+04  0.27381073021E+03 0.  0.
         25    2    3    3    0    0  0.25308528492E+02 -0.20141931563E+02  0.43780178888E+03  0.45643998494E+03  0.12498333681E+03 0.  0.
         25    2    3    3    0    0 -0.25308528492E+02  0.20141931563E+02  0.89576092553E+03  0.90494233801E+03  0.12444589347E+03 0.  0.
          5    1    4    4  502    0  0.95746286497E+01  0.28153222472E+02  0.37183229030E+03  0.37304908465E+03  0.47000000000E+01 0. -1.
         -5    1    4    4    0  502  0.15733899843E+02 -0.48295154035E+02  0.65969498582E+02  0.83390900287E+02  0.47000000000E+01 0. -1.
          5    1    5    5  503    0 -0.66426558745E+02  0.41772084307E+02  0.65448482798E+03  0.65918880057E+03  0.47000000000E+01 0. -1.
         -5    1    5    5    0  503  0.41118030253E+02 -0.21630152744E+02  0.24127609754E+03  0.24575353744E+03  0.47000000000E+01 0. -1.
<mgrwt>
<rscale>  0 0.27381073E+03</rscale>
<asrwt>0</asrwt>
<pdfrwt beam="1">  1        2 0.20730336E+00 0.27381073E+03</pdfrwt>
<pdfrwt beam="2">  1       -2 0.21399710E-02 0.27381073E+03</pdfrwt>
<totfact> 0.11546044E+04</totfact>
</mgrwt>
</event>
<event>
 9    1  0.8285222E-001  0.2732396E+03  0.7818608E-02  0.1099440E+00
          4   -1    0    0  501    0  0.00000000000E+00  0.00000000000E+00  0.16712476868E+03  0.16712476868E+03  0.00000000000E+00 0. -1.
         -4   -1    0    0    0  501 -0.00000000000E+00 -0.00000000000E+00 -0.11168285228E+03  0.11168285228E+03  0.00000000000E+00 0. -1.
         35    2    1    2    0    0  0.00000000000E+00 -0.35527136788E-14  0.55441916396E+02  0.27880762095E+03  0.27323960805E+03 0.  0.
         25    2    3    3    0    0  0.50421695456E+02  0.92437844050E+01  0.43231034286E+02  0.14133377996E+03  0.12441270076E+03 0.  0.
         25    2    3    3    0    0 -0.50421695456E+02 -0.92437844050E+01  0.12210882110E+02  0.13747384099E+03  0.12697305381E+03 0.  0.
          5    1    4    4  502    0  0.58630108703E+02  0.42828174221E+02  0.67167262093E+02  0.99021579722E+02  0.47000000000E+01 0. -1.
         -5    1    4    4    0  502 -0.82084132475E+01 -0.33584389816E+02 -0.23936227807E+02  0.42312200238E+02  0.47000000000E+01 0. -1.
          5    1    5    5  503    0  0.43022103464E+01 -0.10443473442E+02  0.62081879808E+02  0.63275784878E+02  0.47000000000E+01 0. -1.
         -5    1    5    5    0  503 -0.54723905802E+02  0.11996890370E+01 -0.49870997698E+02  0.74198056116E+02  0.47000000000E+01 0. -1.
<mgrwt>
<rscale>  0 0.27323961E+03</rscale>
<asrwt>0</asrwt>
<pdfrwt beam="1">  1        4 0.25711503E-01 0.27323961E+03</pdfrwt>
<pdfrwt beam="2">  1       -4 0.17181977E-01 0.27323961E+03</pdfrwt>
<totfact> 0.78969651E+02</totfact>
</mgrwt>
</event>
<event>
 9    1  0.8285222E-001  0.2747834E+03  0.7818608E-02  0.1098573E+00
          1   -1    0    0  501    0  0.00000000000E+00  0.00000000000E+00  0.10157126020E+03  0.10157126020E+03  0.00000000000E+00 0.  1.
         -1   -1    0    0    0  501 -0.00000000000E+00 -0.00000000000E+00 -0.18584468060E+03  0.18584468060E+03  0.00000000000E+00 0.  1.
         35    2    1    2    0    0 -0.71054273576E-14  0.17763568394E-14 -0.84273420402E+02  0.28741594080E+03  0.27478339404E+03 0.  0.
         25    2    3    3    0    0 -0.52814667440E+02  0.77477664675E+01 -0.62949161176E+02  0.14978087458E+03  0.12498918559E+03 0.  0.
         25    2    3    3    0    0  0.52814667440E+02 -0.77477664675E+01 -0.21324259226E+02  0.13763506622E+03  0.12505706873E+03 0.  0.
          5    1    4    4  502    0 -0.87054437155E+02 -0.10563408141E+02 -0.67001143994E+02  0.11045951257E+03  0.47000000000E+01 0. -1.
         -5    1    4    4    0  502  0.34239769715E+02  0.18311174609E+02  0.40519828175E+01  0.39321362011E+02  0.47000000000E+01 0. -1.
          5    1    5    5  503    0  0.39816292145E+02  0.66522085919E+01 -0.72272966284E+02  0.82915985520E+02  0.47000000000E+01 0.  1.
         -5    1    5    5    0  503  0.12998375295E+02 -0.14399975059E+02  0.50948707058E+02  0.54719080702E+02  0.47000000000E+01 0.  1.
<mgrwt>
<rscale>  0 0.27478339E+03</rscale>
<asrwt>0</asrwt>
<pdfrwt beam="1">  1        1 0.15626348E-01 0.27478339E+03</pdfrwt>
<pdfrwt beam="2">  1       -1 0.28591489E-01 0.27478339E+03</pdfrwt>
<totfact> 0.38942166E+03</totfact>
</mgrwt>
</event>
<event>
 9    1  0.8285222E-001  0.2760305E+03  0.7818608E-02  0.1097877E+00
         -1   -1    0    0    0  501 -0.00000000000E+00  0.00000000000E+00  0.14119633630E+03  0.14119633630E+03  0.00000000000E+00 0.  1.
          1   -1    0    0  501    0  0.00000000000E+00 -0.00000000000E+00 -0.13490584908E+03  0.13490584908E+03  0.00000000000E+00 0.  1.
         35    2    1    2    0    0  0.71054273576E-14 -0.35527136788E-14  0.62904872218E+01  0.27610218538E+03  0.27603051741E+03 0.  0.
         25    2    3    3    0    0  0.25134346894E+02 -0.13305677974E+02  0.51182199497E+02  0.13817321888E+03  0.12515368317E+03 0.  0.
         25    2    3    3    0    0 -0.25134346894E+02  0.13305677974E+02 -0.44891712275E+02  0.13792896649E+03  0.12728062503E+03 0.  0.
          5    1    4    4  502    0 -0.49829706623E+02 -0.16676534585E+02  0.26507474877E+02  0.59041025501E+02  0.47000000000E+01 0. -1.
         -5    1    4    4    0  502  0.74964053518E+02  0.33708566110E+01  0.24674724620E+02  0.79132193380E+02  0.47000000000E+01 0. -1.
          5    1    5    5  503    0 -0.73596157693E+02  0.24538208397E+02 -0.13407972463E+02  0.78869397260E+02  0.47000000000E+01 0. -1.
         -5    1    5    5    0  503  0.48461810799E+02 -0.11232530424E+02 -0.31483739812E+02  0.59059569234E+02  0.47000000000E+01 0. -1.
<mgrwt>
<rscale>  0 0.27603052E+03</rscale>
<asrwt>0</asrwt>
<pdfrwt beam="1">  1        1 0.20754746E-01 0.27603052E+03</pdfrwt>
<pdfrwt beam="2">  1       -1 0.21722513E-01 0.27603052E+03</pdfrwt>
<totfact> 0.42567322E+03</totfact>
</mgrwt>
</event>
<event>
 9    1  0.8285222E-001  0.2764833E+03  0.7818608E-02  0.1097625E+00
          2   -1    0    0  501    0  0.00000000000E+00  0.00000000000E+00  0.81906333077E+03  0.81906333077E+03  0.00000000000E+00 0. -1.
         -2   -1    0    0    0  501 -0.00000000000E+00 -0.00000000000E+00 -0.23332457758E+02  0.23332457758E+02  0.00000000000E+00 0. -1.
         35    2    1    2    0    0 -0.14210854715E-13  0.00000000000E+00  0.79573087301E+03  0.84239578853E+03  0.27648334898E+03 0.  0.
         25    2    3    3    0    0  0.35372986933E+02 -0.61781387924E+01  0.55267381351E+03  0.56777313581E+03  0.12501428722E+03 0.  0.
         25    2    3    3    0    0 -0.35372986933E+02  0.61781387924E+01  0.24305705950E+03  0.27462265272E+03  0.12268434948E+03 0.  0.
          5    1    4    4  502    0  0.39730837059E+02  0.51604212498E+02  0.20138875798E+03  0.21170983917E+03  0.47000000000E+01 0.  1.
         -5    1    4    4    0  502 -0.43578501256E+01 -0.57782351290E+02  0.35128505553E+03  0.35606329664E+03  0.47000000000E+01 0.  1.
          5    1    5    5  503    0 -0.12330459813E+02 -0.34849194996E+02  0.12558611533E+02  0.39323216484E+02  0.47000000000E+01 0.  1.
         -5    1    5    5    0  503 -0.23042527121E+02  0.41027333788E+02  0.23049844797E+03  0.23529943623E+03  0.47000000000E+01 0.  1.
<mgrwt>
<rscale>  0 0.27648335E+03</rscale>
<asrwt>0</asrwt>
<pdfrwt beam="1">  1        2 0.12600972E+00 0.27648335E+03</pdfrwt>
<pdfrwt beam="2">  1       -2 0.35896095E-02 0.27648335E+03</pdfrwt>
<totfact> 0.11101947E+04</totfact>
</mgrwt>
</event>
<event>
 9    1  0.8285222E-001  0.2734972E+03  0.7818608E-02  0.1099295E+00
          2   -1    0    0  501    0  0.00000000000E+00  0.00000000000E+00  0.12590799705E+04  0.12590799705E+04  0.00000000000E+00 0.  1.
         -2   -1    0    0    0  501 -0.00000000000E+00 -0.00000000000E+00 -0.14852252548E+02  0.14852252548E+02  0.00000000000E+00 0.  1.
         35    2    1    2    0    0  0.00000000000E+00 -0.71054273576E-14  0.12442277180E+04  0.12739322231E+04  0.27349715684E+03 0.  0.
         25    2    3    3    0    0 -0.39304419953E+01  0.41213049302E+02  0.76429969930E+03  0.77569165325E+03  0.12581552676E+03 0.  0.
         25    2    3    3    0    0  0.39304419953E+01 -0.41213049302E+02  0.47992801869E+03  0.49824056983E+03  0.12727450057E+03 0.  0.
          5    1    4    4  502    0 -0.43990080761E+02  0.53784980591E+02  0.65198161831E+03  0.65569053063E+03  0.47000000000E+01 0. -1.
         -5    1    4    4    0  502  0.40059638765E+02 -0.12571931289E+02  0.11231808099E+03  0.12000112262E+03  0.47000000000E+01 0. -1.
          5    1    5    5  503    0 -0.55900217166E+02  0.72931591773E+01  0.21270168052E+03  0.22009570497E+03  0.47000000000E+01 0. -1.
         -5    1    5    5    0  503  0.59830659161E+02 -0.48506208479E+02  0.26722633818E+03  0.27814486487E+03  0.47000000000E+01 0. -1.
<mgrwt>
<rscale>  0 0.27349716E+03</rscale>
<asrwt>0</asrwt>
<pdfrwt beam="1">  1        2 0.19370453E+00 0.27349716E+03</pdfrwt>
<pdfrwt beam="2">  1       -2 0.22849629E-02 0.27349716E+03</pdfrwt>
<totfact> 0.11731343E+04</totfact>
</mgrwt>
</event>
<event>
 9    1  0.8285222E-001  0.2941670E+03  0.7818608E-02  0.1088193E+00
          4   -1    0    0  501    0  0.00000000000E+00  0.00000000000E+00  0.81964437804E+03  0.81964437804E+03  0.00000000000E+00 0.  1.
         -4   -1    0    0    0  501 -0.00000000000E+00 -0.00000000000E+00 -0.26393832748E+02  0.26393832748E+02  0.00000000000E+00 0.  1.
         35    2    1    2    0    0  0.00000000000E+00  0.00000000000E+00  0.79325054529E+03  0.84603821078E+03  0.29416700445E+03 0.  0.
         25    2    3    3    0    0  0.11969223445E+02  0.50165320612E+02  0.21832533155E+03  0.25617359361E+03  0.12368968415E+03 0.  0.
         25    2    3    3    0    0 -0.11969223445E+02 -0.50165320612E+02  0.57492521374E+03  0.58986461717E+03  0.12141434635E+03 0.  0.
          5    1    4    4  502    0  0.40015472829E+00  0.47788421329E+02  0.12053295482E+02  0.49510254179E+02  0.47000000000E+01 0. -1.
         -5    1    4    4    0  502  0.11569068717E+02  0.23768992829E+01  0.20627203607E+03  0.20666333943E+03  0.47000000000E+01 0. -1.
          5    1    5    5  503    0  0.17412343041E+02 -0.80122769726E+02  0.46325195783E+03  0.47047562567E+03  0.47000000000E+01 0. -1.
         -5    1    5    5    0  503 -0.29381566486E+02  0.29957449114E+02  0.11167325591E+03  0.11938899150E+03  0.47000000000E+01 0. -1.
<mgrwt>
<rscale>  0 0.29416700E+03</rscale>
<asrwt>0</asrwt>
<pdfrwt beam="1">  1        4 0.12609912E+00 0.29416700E+03</pdfrwt>
<pdfrwt beam="2">  1       -4 0.40605903E-02 0.29416700E+03</pdfrwt>
<totfact> 0.30820480E+02</totfact>
</mgrwt>
</event>
<event>
 9    1  0.8285222E-001  0.2772290E+03  0.7818608E-02  0.1097212E+00
         -2   -1    0    0    0  501 -0.00000000000E+00  0.00000000000E+00  0.98410765213E+02  0.98410765213E+02  0.00000000000E+00 0.  1.
          2   -1    0    0  501    0  0.00000000000E+00 -0.00000000000E+00 -0.19524270716E+03  0.19524270716E+03  0.00000000000E+00 0.  1.
         35    2    1    2    0    0  0.00000000000E+00  0.71054273576E-14 -0.96831941945E+02  0.29365347237E+03  0.27722903321E+03 0.  0.
         25    2    3    3    0    0 -0.20727944511E+02 -0.33360053646E+02  0.23109533116E+01  0.13096508522E+03  0.12491586039E+03 0.  0.
         25    2    3    3    0    0  0.20727944511E+02  0.33360053646E+02 -0.99142895256E+02  0.16268838715E+03  0.12286438366E+03 0.  0.
          5    1    4    4  502    0 -0.31126678086E+02  0.36362595371E+01  0.56254495700E+02  0.64565863725E+02  0.47000000000E+01 0.  1.
         -5    1    4    4    0  502  0.10398733575E+02 -0.36996313183E+02 -0.53943542389E+02  0.66399221491E+02  0.47000000000E+01 0.  1.
          5    1    5    5  503    0  0.11873209123E+02  0.65104883499E+02 -0.94477085340E+01  0.67014686053E+02  0.47000000000E+01 0. -1.
         -5    1    5    5    0  503  0.88547353883E+01 -0.31744829853E+02 -0.89695186722E+02  0.95673701101E+02  0.47000000000E+01 0. -1.
<mgrwt>
<rscale>  0 0.27722903E+03</rscale>
<asrwt>0</asrwt>
<pdfrwt beam="1">  1        2 0.30037340E-01 0.27722903E+03</pdfrwt>
<pdfrwt beam="2">  1       -2 0.15140118E-01 0.27722903E+03</pdfrwt>
<totfact> 0.58616723E+03</totfact>
</mgrwt>
</event>
<event>
 9    1  0.8285222E-001  0.2751001E+03  0.7818608E-02  0.1098396E+00
          2   -1    0    0  501    0  0.00000000000E+00  0.00000000000E+00  0.25708331572E+03  0.25708331572E+03  0.00000000000E+00 0.  1.
         -2   -1    0    0    0  501 -0.00000000000E+00 -0.00000000000E+00 -0.73594872357E+02  0.73594872357E+02  0.00000000000E+00 0.  1.
         35    2    1    2    0    0 -0.14210854715E-13 -0.35527136788E-14  0.18348844337E+03  0.33067818808E+03  0.27510008220E+03 0.  0.
         25    2    3    3    0    0  0.46312677909E+02 -0.93905067045E+01  0.13198863585E+03  0.18856293928E+03  0.12610287992E+03 0.  0.
         25    2    3    3    0    0 -0.46312677909E+02  0.93905067045E+01  0.51499807515E+02  0.14211524880E+03  0.12373951679E+03 0.  0.
          5    1    4    4  502    0  0.12887231457E+01 -0.32399553314E+02  0.13379700998E+03  0.13775021503E+03  0.47000000000E+01 0.  1.
         -5    1    4    4    0  502  0.45023954764E+02  0.23009046609E+02 -0.18083741294E+01  0.50812724247E+02  0.47000000000E+01 0.  1.
          5    1    5    5  503    0  0.28228324632E+02  0.20524679621E+02  0.56345553339E+02  0.66445557912E+02  0.47000000000E+01 0.  1.
         -5    1    5    5    0  503 -0.74541002542E+02 -0.11134172917E+02 -0.48457458241E+01  0.75669690888E+02  0.47000000000E+01 0.  1.
<mgrwt>
<rscale>  0 0.27510008E+03</rscale>
<asrwt>0</asrwt>
<pdfrwt beam="1">  1        2 0.39551279E-01 0.27510008E+03</pdfrwt>
<pdfrwt beam="2">  1       -2 0.11322288E-01 0.27510008E+03</pdfrwt>
<totfact> 0.69750535E+03</totfact>
</mgrwt>
</event>
<event>
 9    1  0.8285222E-001  0.2718979E+03  0.7818608E-02  0.1100198E+00
         -2   -1    0    0    0  501 -0.00000000000E+00  0.00000000000E+00  0.11597224977E+02  0.11597224977E+02  0.00000000000E+00 0. -1.
          2   -1    0    0  501    0  0.00000000000E+00 -0.00000000000E+00 -0.15936674391E+04  0.15936674391E+04  0.00000000000E+00 0. -1.
         35    2    1    2    0    0  0.71054273576E-14  0.35527136788E-14 -0.15820702141E+04  0.16052646641E+04  0.27189792077E+03 0.  0.
         25    2    3    3    0    0 -0.29439105402E+02 -0.22228927056E+02 -0.98035137592E+03  0.98936040892E+03  0.12800161072E+03 0.  0.
         25    2    3    3    0    0  0.29439105402E+02  0.22228927056E+02 -0.60171883822E+03  0.61590425517E+03  0.12614160751E+03 0.  0.
          5    1    4    4  502    0 -0.54437898070E+02 -0.12672621230E+02 -0.17975473740E+03  0.18830277665E+03  0.47000000000E+01 0. -1.
         -5    1    4    4    0  502  0.24998792668E+02 -0.95563058259E+01 -0.80059663852E+03  0.80105763227E+03  0.47000000000E+01 0. -1.
          5    1    5    5  503    0 -0.42197371669E+02 -0.19079771203E+02 -0.16703458761E+03  0.17339924828E+03  0.47000000000E+01 0.  1.
         -5    1    5    5    0  503  0.71636477071E+02  0.41308698259E+02 -0.43468425061E+03  0.44250500689E+03  0.47000000000E+01 0.  1.
<mgrwt>
<rscale>  0 0.27189792E+03</rscale>
<asrwt>0</asrwt>
<pdfrwt beam="1">  1        2 0.24517956E+00 0.27189792E+03</pdfrwt>
<pdfrwt beam="2">  1       -2 0.17841888E-02 0.27189792E+03</pdfrwt>
<totfact> 0.11118946E+04</totfact>
</mgrwt>
</event>
<event>
 9    1  0.8285222E-001  0.2783285E+03  0.7818608E-02  0.1096605E+00
         -2   -1    0    0    0  501 -0.00000000000E+00  0.00000000000E+00  0.45356334464E+02  0.45356334464E+02  0.00000000000E+00 0. -1.
          2   -1    0    0  501    0  0.00000000000E+00 -0.00000000000E+00 -0.42698986525E+03  0.42698986525E+03  0.00000000000E+00 0. -1.
         35    2    1    2    0    0 -0.35527136788E-14  0.00000000000E+00 -0.38163353079E+03  0.47234619972E+03  0.27832854788E+03 0.  0.
         25    2    3    3    0    0 -0.16561793237E+02  0.12433443707E+02 -0.92904398479E+02  0.15698014801E+03  0.12483050947E+03 0.  0.
         25    2    3    3    0    0  0.16561793237E+02 -0.12433443707E+02 -0.28872913231E+03  0.31536605171E+03  0.12514931565E+03 0.  0.
          5    1    4    4  502    0  0.18130510532E+02  0.51639429344E+02 -0.88594106897E+02  0.10424179513E+03  0.47000000000E+01 0. -1.
         -5    1    4    4    0  502 -0.34692303769E+02 -0.39205985638E+02 -0.43102915813E+01  0.52738352876E+02  0.47000000000E+01 0. -1.
          5    1    5    5  503    0  0.10887414512E+02  0.54724277992E+02 -0.95980092133E+02  0.11111953241E+03  0.47000000000E+01 0.  1.
         -5    1    5    5    0  503  0.56743787245E+01 -0.67157721699E+02 -0.19274904018E+03  0.20424651930E+03  0.47000000000E+01 0.  1.
<mgrwt>
<rscale>  0 0.27832855E+03</rscale>
<asrwt>0</asrwt>
<pdfrwt beam="1">  1        2 0.65690748E-01 0.27832855E+03</pdfrwt>
<pdfrwt beam="2">  1       -2 0.69778977E-02 0.27832855E+03</pdfrwt>
<totfact> 0.86489665E+03</totfact>
</mgrwt>
</event>
<event>
 9    1  0.8285222E-001  0.2780119E+03  0.7818608E-02  0.1096780E+00
         -2   -1    0    0    0  501 -0.00000000000E+00  0.00000000000E+00  0.16504074555E+02  0.16504074555E+02  0.00000000000E+00 0. -1.
          2   -1    0    0  501    0  0.00000000000E+00 -0.00000000000E+00 -0.11707812521E+04  0.11707812521E+04  0.00000000000E+00 0. -1.
         35    2    1    2    0    0  0.35527136788E-14  0.00000000000E+00 -0.11542771776E+04  0.11872853267E+04  0.27801194991E+03 0.  0.
         25    2    3    3    0    0 -0.67411211095E+01  0.10620960163E+01 -0.85198875060E+03  0.86050004339E+03  0.12053598123E+03 0.  0.
         25    2    3    3    0    0  0.67411211095E+01 -0.10620960163E+01 -0.30228842699E+03  0.32678528331E+03  0.12395062538E+03 0.  0.
          5    1    4    4  502    0 -0.32333527308E+02  0.52479276563E+02 -0.50316424686E+03  0.50694761147E+03  0.47000000000E+01 0.  1.
         -5    1    4    4    0  502  0.25592406198E+02 -0.51417180546E+02 -0.34882450374E+03  0.35355243193E+03  0.47000000000E+01 0.  1.
          5    1    5    5  503    0  0.25474929300E+02 -0.25434516234E+02 -0.29167615580E+03  0.29392678766E+03  0.47000000000E+01 0. -1.
         -5    1    5    5    0  503 -0.18733808190E+02  0.24372420217E+02 -0.10612271188E+02  0.32858495649E+02  0.47000000000E+01 0. -1.
<mgrwt>
<rscale>  0 0.27801195E+03</rscale>
<asrwt>0</asrwt>
<pdfrwt beam="1">  1        2 0.18012020E+00 0.27801195E+03</pdfrwt>
<pdfrwt beam="2">  1       -2 0.25390883E-02 0.27801195E+03</pdfrwt>
<totfact> 0.11267007E+04</totfact>
</mgrwt>
</event>
<event>
 9    1  0.8285222E-001  0.2795323E+03  0.7818608E-02  0.1095945E+00
          2   -1    0    0  501    0  0.00000000000E+00  0.00000000000E+00  0.13102712327E+04  0.13102712327E+04  0.00000000000E+00 0.  1.
         -2   -1    0    0    0  501 -0.00000000000E+00 -0.00000000000E+00 -0.14908802716E+02  0.14908802716E+02  0.00000000000E+00 0.  1.
         35    2    1    2    0    0  0.71054273576E-14  0.00000000000E+00  0.12953624300E+04  0.13251800354E+04  0.27953229018E+03 0.  0.
         25    2    3    3    0    0  0.45967393364E+02 -0.22047141560E+02  0.50872590463E+03  0.52708188017E+03  0.12811785457E+03 0.  0.
         25    2    3    3    0    0 -0.45967393364E+02  0.22047141560E+02  0.78663652538E+03  0.79809815527E+03  0.12475802452E+03 0.  0.
          5    1    4    4  502    0 -0.67245805096E+00 -0.70316472929E+02  0.24894670610E+03  0.25873038292E+03  0.47000000000E+01 0. -1.
         -5    1    4    4    0  502  0.46639851415E+02  0.48269331369E+02  0.25977919853E+03  0.26835149726E+03  0.47000000000E+01 0. -1.
          5    1    5    5  503    0 -0.79311807927E+02  0.32332373517E+02  0.36283512818E+03  0.37283664720E+03  0.47000000000E+01 0. -1.
         -5    1    5    5    0  503  0.33344414564E+02 -0.10285231957E+02  0.42380139720E+03  0.42526150807E+03  0.47000000000E+01 0. -1.
<mgrwt>
<rscale>  0 0.27953229E+03</rscale>
<asrwt>0</asrwt>
<pdfrwt beam="1">  1        2 0.20158010E+00 0.27953229E+03</pdfrwt>
<pdfrwt beam="2">  1       -2 0.22936630E-02 0.27953229E+03</pdfrwt>
<totfact> 0.10931810E+04</totfact>
</mgrwt>
</event>
<event>
 9    1  0.8285222E-001  0.2760142E+03  0.7818608E-02  0.1097886E+00
          2   -1    0    0  501    0  0.00000000000E+00  0.00000000000E+00  0.51933287649E+03  0.51933287649E+03  0.00000000000E+00 0.  1.
         -2   -1    0    0    0  501 -0.00000000000E+00 -0.00000000000E+00 -0.36673893578E+02  0.36673893578E+02  0.00000000000E+00 0.  1.
         35    2    1    2    0    0 -0.71054273576E-14  0.71054273576E-14  0.48265898291E+03  0.55600677007E+03  0.27601419271E+03 0.  0.
         25    2    3    3    0    0  0.27770633085E+02  0.33750622051E+02  0.31559392264E+03  0.34233411988E+03  0.12523103878E+03 0.  0.
         25    2    3    3    0    0 -0.27770633085E+02 -0.33750622051E+02  0.16706506027E+03  0.21367265019E+03  0.12583701572E+03 0.  0.
          5    1    4    4  502    0  0.16286382497E+01 -0.35945452033E+02  0.29764025137E+02  0.46933092555E+02  0.47000000000E+01 0. -1.
         -5    1    4    4    0  502  0.26141994836E+02  0.69696074084E+02  0.28582989751E+03  0.29540102732E+03  0.47000000000E+01 0. -1.
          5    1    5    5  503    0  0.44641996051E+02 -0.26653932741E+02  0.35109360572E+02  0.62913409873E+02  0.47000000000E+01 0. -1.
         -5    1    5    5    0  503 -0.72412629137E+02 -0.70966893099E+01  0.13195569970E+03  0.15075924032E+03  0.47000000000E+01 0. -1.
<mgrwt>
<rscale>  0 0.27601419E+03</rscale>
<asrwt>0</asrwt>
<pdfrwt beam="1">  1        2 0.79897360E-01 0.27601419E+03</pdfrwt>
<pdfrwt beam="2">  1       -2 0.56421379E-02 0.27601419E+03</pdfrwt>
<totfact> 0.96495900E+03</totfact>
</mgrwt>
</event>
<event>
 9    1  0.8285222E-001  0.2770504E+03  0.7818608E-02  0.1097311E+00
         -3   -1    0    0    0  501 -0.00000000000E+00  0.00000000000E+00  0.10698258549E+04  0.10698258549E+04  0.00000000000E+00 0.  1.
          3   -1    0    0  501    0  0.00000000000E+00 -0.00000000000E+00 -0.17936778093E+02  0.17936778093E+02  0.00000000000E+00 0.  1.
         35    2    1    2    0    0 -0.14210854715E-13 -0.35527136788E-14  0.10518890768E+04  0.10877626330E+04  0.27705038500E+03 0.  0.
         25    2    3    3    0    0 -0.40768692467E+02 -0.29011670290E+02  0.52754073646E+03  0.54463319619E+03  0.12578682944E+03 0.  0.
         25    2    3    3    0    0  0.40768692467E+02  0.29011670290E+02  0.52434834032E+03  0.54312943678E+03  0.13245618070E+03 0.  0.
          5    1    4    4  502    0 -0.32505352088E+02  0.47349514699E+02  0.19711494864E+03  0.20536544849E+03  0.47000000000E+01 0. -1.
         -5    1    4    4    0  502 -0.82633403781E+01 -0.76361184989E+02  0.33042578782E+03  0.33926774769E+03  0.47000000000E+01 0. -1.
          5    1    5    5  503    0  0.76204869671E+02 -0.13914924473E+02  0.38971457753E+03  0.39736676915E+03  0.47000000000E+01 0.  1.
         -5    1    5    5    0  503 -0.35436177205E+02  0.42926594763E+02  0.13463376278E+03  0.14576266763E+03  0.47000000000E+01 0.  1.
<mgrwt>
<rscale>  0 0.27705038E+03</rscale>
<asrwt>0</asrwt>
<pdfrwt beam="1">  1        3 0.27595052E-02 0.27705038E+03</pdfrwt>
<pdfrwt beam="2">  1       -3 0.16458854E+00 0.27705038E+03</pdfrwt>
<totfact> 0.39660149E+02</totfact>
</mgrwt>
</event>
<event>
 9    1  0.8285222E-001  0.2772645E+03  0.7818608E-02  0.1097192E+00
         -2   -1    0    0    0  501 -0.00000000000E+00  0.00000000000E+00  0.20482074565E+02  0.20482074565E+02  0.00000000000E+00 0.  1.
          2   -1    0    0  501    0  0.00000000000E+00 -0.00000000000E+00 -0.93832780187E+03  0.93832780187E+03  0.00000000000E+00 0.  1.
         35    2    1    2    0    0  0.00000000000E+00 -0.14210854715E-13 -0.91784572730E+03  0.95880987643E+03  0.27726449469E+03 0.  0.
         25    2    3    3    0    0  0.31924353919E+02  0.45036566243E+02 -0.36798943205E+03  0.39206933925E+03  0.12350987009E+03 0.  0.
         25    2    3    3    0    0 -0.31924353919E+02 -0.45036566243E+02 -0.54985629525E+03  0.56674053718E+03  0.12571966585E+03 0.  0.
          5    1    4    4  502    0 -0.33338861438E+02  0.31272020421E+02 -0.26716782631E+03  0.27109067922E+03  0.47000000000E+01 0. -1.
         -5    1    4    4    0  502  0.65263215356E+02  0.13764545821E+02 -0.10082160574E+03  0.12097866004E+03  0.47000000000E+01 0. -1.
          5    1    5    5  503    0 -0.38293771338E+02 -0.70555803470E+02 -0.52193996662E+03  0.52809843124E+03  0.47000000000E+01 0.  1.
         -5    1    5    5    0  503  0.63694174196E+01  0.25519237227E+02 -0.27916328636E+02  0.38642105940E+02  0.47000000000E+01 0.  1.
<mgrwt>
<rscale>  0 0.27726449E+03</rscale>
<asrwt>0</asrwt>
<pdfrwt beam="1">  1        2 0.14435809E+00 0.27726449E+03</pdfrwt>
<pdfrwt beam="2">  1       -2 0.31510891E-02 0.27726449E+03</pdfrwt>
<totfact> 0.11267878E+04</totfact>
</mgrwt>
</event>
<event>
 9    1  0.8285222E-001  0.3270733E+03  0.7818608E-02  0.1072439E+00
          2   -1    0    0  501    0  0.00000000000E+00  0.00000000000E+00  0.19810101525E+03  0.19810101525E+03  0.00000000000E+00 0. -1.
         -2   -1    0    0    0  501 -0.00000000000E+00 -0.00000000000E+00 -0.13500302434E+03  0.13500302434E+03  0.00000000000E+00 0. -1.
         35    2    1    2    0    0  0.00000000000E+00  0.00000000000E+00  0.63097990916E+02  0.33310403959E+03  0.32707330177E+03 0.  0.
         25    2    3    3    0    0 -0.69955337680E+02 -0.48091468579E+02 -0.32307029341E+02  0.15429932150E+03  0.12473170347E+03 0.  0.
         25    2    3    3    0    0  0.69955337680E+02  0.48091468579E+02  0.95405020257E+02  0.17880471809E+03  0.12514979305E+03 0.  0.
          5    1    4    4  502    0 -0.66993218676E+02 -0.12818396454E+02  0.35965306836E+02  0.77252805335E+02  0.47000000000E+01 0. -1.
         -5    1    4    4    0  502 -0.29621190039E+01 -0.35273072125E+02 -0.68272336177E+02  0.77046516165E+02  0.47000000000E+01 0. -1.
          5    1    5    5  503    0  0.95507849487E+02  0.12239313658E+02  0.32209286168E+02  0.10164191177E+03  0.47000000000E+01 0.  1.
         -5    1    5    5    0  503 -0.25552511807E+02  0.35852154921E+02  0.63195734089E+02  0.77162806320E+02  0.47000000000E+01 0.  1.
<mgrwt>
<rscale>  0 0.32707330E+03</rscale>
<asrwt>0</asrwt>
<pdfrwt beam="1">  1        2 0.30477079E-01 0.32707330E+03</pdfrwt>
<pdfrwt beam="2">  1       -2 0.20769696E-01 0.32707330E+03</pdfrwt>
<totfact> 0.33984204E+03</totfact>
</mgrwt>
</event>
<event>
 9    1  0.8285222E-001  0.2750602E+03  0.7818608E-02  0.1098418E+00
         -2   -1    0    0    0  501 -0.00000000000E+00  0.00000000000E+00  0.10794312720E+02  0.10794312720E+02  0.00000000000E+00 0. -1.
          2   -1    0    0  501    0  0.00000000000E+00 -0.00000000000E+00 -0.17522673486E+04  0.17522673486E+04  0.00000000000E+00 0. -1.
         35    2    1    2    0    0  0.71054273576E-14  0.35527136788E-14 -0.17414730359E+04  0.17630616613E+04  0.27506015146E+03 0.  0.
         25    2    3    3    0    0  0.57084994702E+02 -0.18840369210E+01 -0.79545602362E+03  0.80721448207E+03  0.12483063859E+03 0.  0.
         25    2    3    3    0    0 -0.57084994702E+02  0.18840369210E+01 -0.94601701225E+03  0.95584717925E+03  0.12423122145E+03 0.  0.
          5    1    4    4  502    0  0.57289227949E+02  0.20297089018E+02 -0.15795085945E+03  0.16930620622E+03  0.47000000000E+01 0. -1.
         -5    1    4    4    0  502 -0.20423324661E+00 -0.22181125939E+02 -0.63750516417E+03  0.63790827585E+03  0.47000000000E+01 0. -1.
          5    1    5    5  503    0 -0.42312154648E+02 -0.33329990015E+02 -0.15998766218E+03  0.16887672639E+03  0.47000000000E+01 0.  1.
         -5    1    5    5    0  503 -0.14772840054E+02  0.35214026936E+02 -0.78602935007E+03  0.78697045286E+03  0.47000000000E+01 0.  1.
<mgrwt>
<rscale>  0 0.27506015E+03</rscale>
<asrwt>0</asrwt>
<pdfrwt beam="1">  1        2 0.26957968E+00 0.27506015E+03</pdfrwt>
<pdfrwt beam="2">  1       -2 0.16606630E-02 0.27506015E+03</pdfrwt>
<totfact> 0.10190374E+04</totfact>
</mgrwt>
</event>
<event>
 9    1  0.8285222E-001  0.2673847E+03  0.7818608E-02  0.1102786E+00
          1   -1    0    0  501    0  0.00000000000E+00  0.00000000000E+00  0.67178405226E+03  0.67178405226E+03  0.00000000000E+00 0. -1.
         -1   -1    0    0    0  501 -0.00000000000E+00 -0.00000000000E+00 -0.26606241598E+02  0.26606241598E+02  0.00000000000E+00 0. -1.
         35    2    1    2    0    0  0.00000000000E+00  0.71054273576E-14  0.64517781066E+03  0.69839029385E+03  0.26738473252E+03 0.  0.
         25    2    3    3    0    0 -0.28037409296E+02  0.32380822404E+02  0.38547493785E+03  0.40745770518E+03  0.12488490631E+03 0.  0.
         25    2    3    3    0    0  0.28037409296E+02 -0.32380822404E+02  0.25970287281E+03  0.29093258867E+03  0.12394182114E+03 0.  0.
          5    1    4    4  502    0 -0.42006838495E+02  0.76622640784E+01  0.37402597546E+03  0.37648480061E+03  0.47000000000E+01 0.  1.
         -5    1    4    4    0  502  0.13969429198E+02  0.24718558326E+02  0.11448962388E+02  0.30972904571E+02  0.47000000000E+01 0.  1.
          5    1    5    5  503    0  0.13653815464E+02  0.39574423540E+02  0.35860740058E+02  0.55323090593E+02  0.47000000000E+01 0. -1.
         -5    1    5    5    0  503  0.14383593832E+02 -0.71955245944E+02  0.22384213275E+03  0.23560949808E+03  0.47000000000E+01 0. -1.
<mgrwt>
<rscale>  0 0.26738473E+03</rscale>
<asrwt>0</asrwt>
<pdfrwt beam="1">  1        1 0.10335138E+00 0.26738473E+03</pdfrwt>
<pdfrwt beam="2">  1       -1 0.40932684E-02 0.26738473E+03</pdfrwt>
<totfact> 0.70832947E+03</totfact>
</mgrwt>
</event>
<event>
 9    1  0.8285222E-001  0.2848704E+03  0.7818608E-02  0.1093058E+00
         -2   -1    0    0    0  501 -0.00000000000E+00  0.00000000000E+00  0.87050109885E+01  0.87050109885E+01  0.00000000000E+00 0. -1.
          2   -1    0    0  501    0  0.00000000000E+00 -0.00000000000E+00 -0.23305876512E+04  0.23305876512E+04  0.00000000000E+00 0. -1.
         35    2    1    2    0    0 -0.71054273576E-14  0.35527136788E-14 -0.23218826402E+04  0.23392926622E+04  0.28487043450E+03 0.  0.
         25    2    3    3    0    0  0.58178487824E+02  0.16322378466E+02 -0.90392858824E+03  0.91449392330E+03  0.12474408457E+03 0.  0.
         25    2    3    3    0    0 -0.58178487824E+02 -0.16322378466E+02 -0.14179540520E+04  0.14247987389E+04  0.12572428702E+03 0.  0.
          5    1    4    4  502    0  0.96750698159E+02  0.21583730535E+02 -0.62794358214E+03  0.63573719992E+03  0.47000000000E+01 0.  1.
         -5    1    4    4    0  502 -0.38572210334E+02 -0.52613520695E+01 -0.27598500610E+03  0.27875672338E+03  0.47000000000E+01 0.  1.
          5    1    5    5  503    0 -0.92358496632E+02  0.12775787150E+02 -0.10322481386E+04  0.10364611050E+04  0.47000000000E+01 0.  1.
         -5    1    5    5    0  503  0.34180008808E+02 -0.29098165616E+02 -0.38570591338E+03  0.38833763384E+03  0.47000000000E+01 0.  1.
<mgrwt>
<rscale>  0 0.28487043E+03</rscale>
<asrwt>0</asrwt>
<pdfrwt beam="1">  1        2 0.35855218E+00 0.28487043E+03</pdfrwt>
<pdfrwt beam="2">  1       -2 0.13392316E-02 0.28487043E+03</pdfrwt>
<totfact> 0.69043435E+03</totfact>
</mgrwt>
</event>
<event>
 9    1  0.8285222E-001  0.2717077E+03  0.7818608E-02  0.1100306E+00
          1   -1    0    0  501    0  0.00000000000E+00  0.00000000000E+00  0.21063754986E+03  0.21063754986E+03  0.00000000000E+00 0. -1.
         -1   -1    0    0    0  501 -0.00000000000E+00 -0.00000000000E+00 -0.87620963517E+02  0.87620963517E+02  0.00000000000E+00 0. -1.
         35    2    1    2    0    0  0.71054273576E-14 -0.71054273576E-14  0.12301658634E+03  0.29825851338E+03  0.27170767432E+03 0.  0.
         25    2    3    3    0    0 -0.70972642193E+01 -0.45890580882E+02  0.89496265821E+02  0.16106736106E+03  0.12560571894E+03 0.  0.
         25    2    3    3    0    0  0.70972642193E+01  0.45890580882E+02  0.33520320523E+02  0.13719115232E+03  0.12466548766E+03 0.  0.
          5    1    4    4  502    0 -0.42351266570E+02 -0.70527014750E+02  0.83633292141E+02  0.11740658901E+03  0.47000000000E+01 0.  1.
         -5    1    4    4    0  502  0.35254002351E+02  0.24636433868E+02  0.58629736802E+01  0.43660772049E+02  0.47000000000E+01 0.  1.
          5    1    5    5  503    0 -0.50825322587E+02 -0.93590533988E+01  0.21237965566E+02  0.56070905806E+02  0.47000000000E+01 0.  1.
         -5    1    5    5    0  503  0.57922586806E+02  0.55249634280E+02  0.12282354958E+02  0.81120246509E+02  0.47000000000E+01 0.  1.
<mgrwt>
<rscale>  0 0.27170767E+03</rscale>
<asrwt>0</asrwt>
<pdfrwt beam="1">  1        1 0.32405777E-01 0.27170767E+03</pdfrwt>
<pdfrwt beam="2">  1       -1 0.13480148E-01 0.27170767E+03</pdfrwt>
<totfact> 0.51927132E+03</totfact>
</mgrwt>
</event>
<event>
 9    1  0.8285222E-001  0.2800889E+03  0.7818608E-02  0.1095640E+00
          2   -1    0    0  501    0  0.00000000000E+00  0.00000000000E+00  0.29011036088E+03  0.29011036088E+03  0.00000000000E+00 0.  1.
         -2   -1    0    0    0  501 -0.00000000000E+00 -0.00000000000E+00 -0.67603395340E+02  0.67603395340E+02  0.00000000000E+00 0.  1.
         35    2    1    2    0    0  0.00000000000E+00  0.00000000000E+00  0.22250696554E+03  0.35771375622E+03  0.28008888174E+03 0.  0.
         25    2    3    3    0    0 -0.32117258031E+02 -0.17371232874E+02  0.17737267952E+03  0.21998546999E+03  0.12489700386E+03 0.  0.
         25    2    3    3    0    0  0.32117258031E+02  0.17371232874E+02  0.45134286022E+02  0.13772828623E+03  0.12489475192E+03 0.  0.
          5    1    4    4  502    0 -0.54243565827E+01  0.52868662897E+02  0.90233479939E+02  0.10482695294E+03  0.47000000000E+01 0.  1.
         -5    1    4    4    0  502 -0.26692901448E+02 -0.70239895771E+02  0.87139199577E+02  0.11515851705E+03  0.47000000000E+01 0.  1.
          5    1    5    5  503    0 -0.37288763802E+02  0.41901959819E+02  0.17272797432E+02  0.58878397343E+02  0.47000000000E+01 0.  1.
         -5    1    5    5    0  503  0.69406021833E+02 -0.24530726945E+02  0.27861488590E+02  0.78849888888E+02  0.47000000000E+01 0.  1.
<mgrwt>
<rscale>  0 0.28008888E+03</rscale>
<asrwt>0</asrwt>
<pdfrwt beam="1">  1        2 0.44632362E-01 0.28008888E+03</pdfrwt>
<pdfrwt beam="2">  1       -2 0.10400523E-01 0.28008888E+03</pdfrwt>
<totfact> 0.70203202E+03</totfact>
</mgrwt>
</event>
<event>
 9    1  0.8285222E-001  0.2765845E+03  0.7818608E-02  0.1097569E+00
          2   -1    0    0  501    0  0.00000000000E+00  0.00000000000E+00  0.11074500379E+04  0.11074500379E+04  0.00000000000E+00 0. -1.
         -2   -1    0    0    0  501 -0.00000000000E+00 -0.00000000000E+00 -0.17269178714E+02  0.17269178714E+02  0.00000000000E+00 0. -1.
         35    2    1    2    0    0  0.35527136788E-14  0.00000000000E+00  0.10901808591E+04  0.11247192166E+04  0.27658454491E+03 0.  0.
         25    2    3    3    0    0 -0.16423427109E+02  0.23629121370E+02  0.75438047152E+03  0.76522287111E+03  0.12509229519E+03 0.  0.
         25    2    3    3    0    0  0.16423427109E+02 -0.23629121370E+02  0.33580038762E+03  0.35949634546E+03  0.12509059813E+03 0.  0.
          5    1    4    4  502    0  0.17995013424E+02  0.48110823576E+02  0.13711269293E+03  0.14649386477E+03  0.47000000000E+01 0.  1.
         -5    1    4    4    0  502 -0.34418440533E+02 -0.24481702206E+02  0.61726777859E+03  0.61872900634E+03  0.47000000000E+01 0.  1.
          5    1    5    5  503    0 -0.53623890150E+02 -0.97345741287E+01  0.11418572996E+03  0.12661261570E+03  0.47000000000E+01 0.  1.
         -5    1    5    5    0  503  0.70047317259E+02 -0.13894547241E+02  0.22161465766E+03  0.23288372976E+03  0.47000000000E+01 0.  1.
<mgrwt>
<rscale>  0 0.27658454E+03</rscale>
<asrwt>0</asrwt>
<pdfrwt beam="1">  1        2 0.17037687E+00 0.27658454E+03</pdfrwt>
<pdfrwt beam="2">  1       -2 0.26567976E-02 0.27658454E+03</pdfrwt>
<totfact> 0.11462665E+04</totfact>
</mgrwt>
</event>
<event>
 9    1  0.8285222E-001  0.2737562E+03  0.7818608E-02  0.1099149E+00
          2   -1    0    0  501    0  0.00000000000E+00  0.00000000000E+00  0.19819500627E+04  0.19819500627E+04  0.00000000000E+00 0. -1.
         -2   -1    0    0    0  501 -0.00000000000E+00 -0.00000000000E+00 -0.94531235016E+01  0.94531235016E+01  0.00000000000E+00 0. -1.
         35    2    1    2    0    0  0.00000000000E+00  0.17763568394E-14  0.19724969392E+04  0.19914031862E+04  0.27375623256E+03 0.  0.
         25    2    3    3    0    0  0.15532533171E+02 -0.53843391287E+01  0.71902989685E+03  0.73163182783E+03  0.13420465060E+03 0.  0.
         25    2    3    3    0    0 -0.15532533171E+02  0.53843391287E+01  0.12534670423E+04  0.12597713583E+04  0.12479582691E+03 0.  0.
          5    1    4    4  502    0  0.76652773169E+01 -0.16479055556E+02  0.71682849946E+03  0.71707426630E+03  0.47000000000E+01 0.  1.
         -5    1    4    4    0  502  0.78672558545E+01  0.11094716427E+02  0.22013973844E+01  0.14557561531E+02  0.47000000000E+01 0.  1.
          5    1    5    5  503    0  0.36311947670E+02  0.15403057192E+02  0.15444483681E+03  0.15947134329E+03  0.47000000000E+01 0.  1.
         -5    1    5    5    0  503 -0.51844480842E+02 -0.10018718063E+02  0.10990222055E+04  0.11003000151E+04  0.47000000000E+01 0.  1.
<mgrwt>
<rscale>  0 0.27375623E+03</rscale>
<asrwt>0</asrwt>
<pdfrwt beam="1">  1        2 0.30491506E+00 0.27375623E+03</pdfrwt>
<pdfrwt beam="2">  1       -2 0.14543283E-02 0.27375623E+03</pdfrwt>
<totfact> 0.93734500E+03</totfact>
</mgrwt>
</event>
<event>
 9    1  0.8285222E-001  0.2771540E+03  0.7818608E-02  0.1097254E+00
          1   -1    0    0  501    0  0.00000000000E+00  0.00000000000E+00  0.30528107122E+03  0.30528107122E+03  0.00000000000E+00 0.  1.
         -1   -1    0    0    0  501 -0.00000000000E+00 -0.00000000000E+00 -0.62904617048E+02  0.62904617048E+02  0.00000000000E+00 0.  1.
         35    2    1    2    0    0  0.35527136788E-14  0.00000000000E+00  0.24237645417E+03  0.36818568827E+03  0.27715402849E+03 0.  0.
         25    2    3    3    0    0 -0.29668374734E+02 -0.39138417838E+02  0.16796193639E+03  0.21542585525E+03  0.12563860403E+03 0.  0.
         25    2    3    3    0    0  0.29668374734E+02  0.39138417838E+02  0.74414517778E+02  0.15275983301E+03  0.12404038825E+03 0.  0.
          5    1    4    4  502    0  0.17731155902E+02 -0.62525556114E+02  0.14224336470E+03  0.15645799391E+03  0.47000000000E+01 0.  1.
         -5    1    4    4    0  502 -0.47399530636E+02  0.23387138276E+02  0.25718571692E+02  0.58967861341E+02  0.47000000000E+01 0.  1.
          5    1    5    5  503    0 -0.12612117713E+02  0.34061257257E+02  0.97458477871E+02  0.10411282182E+03  0.47000000000E+01 0.  1.
         -5    1    5    5    0  503  0.42280492447E+02  0.50771605804E+01 -0.23043960093E+02  0.48647011192E+02  0.47000000000E+01 0.  1.
<mgrwt>
<rscale>  0 0.27715403E+03</rscale>
<asrwt>0</asrwt>
<pdfrwt beam="1">  1        1 0.46966318E-01 0.27715403E+03</pdfrwt>
<pdfrwt beam="2">  1       -1 0.96776336E-02 0.27715403E+03</pdfrwt>
<totfact> 0.54630342E+03</totfact>
</mgrwt>
</event>
<event>
 9    1  0.8285222E-001  0.2809640E+03  0.7818608E-02  0.1095164E+00
         -2   -1    0    0    0  501 -0.00000000000E+00  0.00000000000E+00  0.12000587245E+02  0.12000587245E+02  0.00000000000E+00 0. -1.
          2   -1    0    0  501    0  0.00000000000E+00 -0.00000000000E+00 -0.16445192005E+04  0.16445192005E+04  0.00000000000E+00 0. -1.
         35    2    1    2    0    0  0.00000000000E+00  0.71054273576E-14 -0.16325186133E+04  0.16565197878E+04  0.28096402718E+03 0.  0.
         25    2    3    3    0    0  0.16387490928E+02 -0.53470797357E+02 -0.68629106098E+03  0.70044870998E+03  0.12847295009E+03 0.  0.
         25    2    3    3    0    0 -0.16387490928E+02  0.53470797357E+02 -0.94622755231E+03  0.95607107780E+03  0.12489054817E+03 0.  0.
          5    1    4    4  502    0  0.54433928800E+02  0.13638061450E+02 -0.18978316925E+03  0.19796158883E+03  0.47000000000E+01 0.  1.
         -5    1    4    4    0  502 -0.38046437872E+02 -0.67108858807E+02 -0.49650789173E+03  0.50248712114E+03  0.47000000000E+01 0.  1.
          5    1    5    5  503    0  0.84888936999E+01  0.40711193175E+02 -0.88728589620E+02  0.98103594133E+02  0.47000000000E+01 0. -1.
         -5    1    5    5    0  503 -0.24876384628E+02  0.12759604182E+02 -0.85749896269E+03  0.85796748366E+03  0.47000000000E+01 0. -1.
<mgrwt>
<rscale>  0 0.28096403E+03</rscale>
<asrwt>0</asrwt>
<pdfrwt beam="1">  1        2 0.25300284E+00 0.28096403E+03</pdfrwt>
<pdfrwt beam="2">  1       -2 0.18462450E-02 0.28096403E+03</pdfrwt>
<totfact> 0.99449026E+03</totfact>
</mgrwt>
</event>
<event>
 9    1  0.8285222E-001  0.2755990E+03  0.7818608E-02  0.1098117E+00
          1   -1    0    0  501    0  0.00000000000E+00  0.00000000000E+00  0.63117017229E+02  0.63117017229E+02  0.00000000000E+00 0. -1.
         -1   -1    0    0    0  501 -0.00000000000E+00 -0.00000000000E+00 -0.30084922582E+03  0.30084922582E+03  0.00000000000E+00 0. -1.
         35    2    1    2    0    0 -0.71054273576E-14  0.00000000000E+00 -0.23773220859E+03  0.36396624305E+03  0.27559902590E+03 0.  0.
         25    2    3    3    0    0 -0.27021436721E+02 -0.17762309928E+02 -0.18264902679E+03  0.22300643181E+03  0.12379638099E+03 0.  0.
         25    2    3    3    0    0  0.27021436721E+02  0.17762309928E+02 -0.55083181798E+02  0.14095981124E+03  0.12565768488E+03 0.  0.
          5    1    4    4  502    0  0.35162573310E+02 -0.20286875259E+02 -0.14030284778E+02  0.43207670159E+02  0.47000000000E+01 0. -1.
         -5    1    4    4    0  502 -0.62184010032E+02  0.25245653315E+01 -0.16861874202E+03  0.17979876166E+03  0.47000000000E+01 0. -1.
          5    1    5    5  503    0  0.73330815382E+01 -0.68587124471E+01  0.39565027494E+02  0.41088896577E+02  0.47000000000E+01 0. -1.
         -5    1    5    5    0  503  0.19688355183E+02  0.24621022375E+02 -0.94648209292E+02  0.99870914659E+02  0.47000000000E+01 0. -1.
<mgrwt>
<rscale>  0 0.27559903E+03</rscale>
<asrwt>0</asrwt>
<pdfrwt beam="1">  1        1 0.97103103E-02 0.27559903E+03</pdfrwt>
<pdfrwt beam="2">  1       -1 0.46284497E-01 0.27559903E+03</pdfrwt>
<totfact> 0.31516710E+03</totfact>
</mgrwt>
</event>
<event>
 9    1  0.8285222E-001  0.2701047E+03  0.7818608E-02  0.1101220E+00
          1   -1    0    0  501    0  0.00000000000E+00  0.00000000000E+00  0.19397131453E+04  0.19397131453E+04  0.00000000000E+00 0.  1.
         -1   -1    0    0    0  501 -0.00000000000E+00 -0.00000000000E+00 -0.94030050956E+01  0.94030050956E+01  0.00000000000E+00 0.  1.
         35    2    1    2    0    0  0.00000000000E+00 -0.14210854715E-13  0.19303101402E+04  0.19491161504E+04  0.27010466556E+03 0.  0.
         25    2    3    3    0    0  0.15250537017E+02 -0.37661027623E+02  0.12225914643E+04  0.12295934277E+04  0.12457598860E+03 0.  0.
         25    2    3    3    0    0 -0.15250537017E+02  0.37661027623E+02  0.70771867588E+03  0.71952272269E+03  0.12327324283E+03 0.  0.
          5    1    4    4  502    0  0.57329065727E+02  0.11124772106E+02  0.79432479089E+03  0.79648248302E+03  0.47000000000E+01 0. -1.
         -5    1    4    4    0  502 -0.42078528710E+02 -0.48785799729E+02  0.42826667339E+03  0.43311094465E+03  0.47000000000E+01 0. -1.
          5    1    5    5  503    0 -0.65553774393E+02  0.43529734334E+02  0.44413824514E+03  0.45107982210E+03  0.47000000000E+01 0. -1.
         -5    1    5    5    0  503  0.50303237376E+02 -0.58687067117E+01  0.26358043075E+03  0.26844290060E+03  0.47000000000E+01 0. -1.
<mgrwt>
<rscale>  0 0.27010467E+03</rscale>
<asrwt>0</asrwt>
<pdfrwt beam="1">  1        1 0.29841709E+00 0.27010467E+03</pdfrwt>
<pdfrwt beam="2">  1       -1 0.14466177E-02 0.27010467E+03</pdfrwt>
<totfact> 0.40622264E+03</totfact>
</mgrwt>
</event>
<event>
 9    1  0.8285222E-001  0.2744470E+03  0.7818608E-02  0.1098761E+00
          2   -1    0    0  501    0  0.00000000000E+00  0.00000000000E+00  0.79942620996E+02  0.79942620996E+02  0.00000000000E+00 0.  1.
         -2   -1    0    0    0  501 -0.00000000000E+00 -0.00000000000E+00 -0.23554761953E+03  0.23554761953E+03  0.00000000000E+00 0.  1.
         35    2    1    2    0    0  0.00000000000E+00 -0.17763568394E-14 -0.15560499854E+03  0.31549024053E+03  0.27444703733E+03 0.  0.
         25    2    3    3    0    0  0.24708697710E+02 -0.10989735651E+02 -0.14137648574E+03  0.19027705761E+03  0.12444578698E+03 0.  0.
         25    2    3    3    0    0 -0.24708697710E+02  0.10989735651E+02 -0.14228512791E+02  0.12521318292E+03  0.12142733040E+03 0.  0.
          5    1    4    4  502    0  0.36758183386E+02 -0.57822987923E+02 -0.11759854226E+03  0.13618432039E+03  0.47000000000E+01 0. -1.
         -5    1    4    4    0  502 -0.12049485676E+02  0.46833252272E+02 -0.23777943484E+02  0.54092737218E+02  0.47000000000E+01 0. -1.
          5    1    5    5  503    0 -0.29201955535E+02  0.20042617513E+02 -0.64492557361E+02  0.73728153909E+02  0.47000000000E+01 0.  1.
         -5    1    5    5    0  503  0.44932578250E+01 -0.90528818614E+01  0.50264044570E+02  0.51485029012E+02  0.47000000000E+01 0.  1.
<mgrwt>
<rscale>  0 0.27444704E+03</rscale>
<asrwt>0</asrwt>
<pdfrwt beam="1">  1        2 0.12298865E-01 0.27444704E+03</pdfrwt>
<pdfrwt beam="2">  1       -2 0.36238096E-01 0.27444704E+03</pdfrwt>
<totfact> 0.35488006E+03</totfact>
</mgrwt>
</event>
<event>
 9    1  0.8285222E-001  0.2714836E+03  0.7818608E-02  0.1100433E+00
         -2   -1    0    0    0  501 -0.00000000000E+00  0.00000000000E+00  0.10739562576E+02  0.10739562576E+02  0.00000000000E+00 0. -1.
          2   -1    0    0  501    0  0.00000000000E+00 -0.00000000000E+00 -0.17156974271E+04  0.17156974271E+04  0.00000000000E+00 0. -1.
         35    2    1    2    0    0 -0.71054273576E-14 -0.71054273576E-14 -0.17049578645E+04  0.17264369896E+04  0.27148362661E+03 0.  0.
         25    2    3    3    0    0 -0.21548195563E+02  0.30261372644E+02 -0.10987009727E+04  0.11063524396E+04  0.12446613179E+03 0.  0.
         25    2    3    3    0    0  0.21548195563E+02 -0.30261372644E+02 -0.60625689183E+03  0.62008455000E+03  0.12480927392E+03 0.  0.
          5    1    4    4  502    0 -0.36539546699E+02  0.42641004055E+02 -0.10693510049E+04  0.10708347470E+04  0.47000000000E+01 0.  1.
         -5    1    4    4    0  502  0.14991351135E+02 -0.12379631411E+02 -0.29349967747E+02  0.35517692626E+02  0.47000000000E+01 0.  1.
          5    1    5    5  503    0 -0.13289941377E+02  0.39715371556E+02 -0.11207692235E+03  0.11973829714E+03  0.47000000000E+01 0.  1.
         -5    1    5    5    0  503  0.34838136941E+02 -0.69976744200E+02 -0.49417996949E+03  0.50034625286E+03  0.47000000000E+01 0.  1.
<mgrwt>
<rscale>  0 0.27148363E+03</rscale>
<asrwt>0</asrwt>
<pdfrwt beam="1">  1        2 0.26395327E+00 0.27148363E+03</pdfrwt>
<pdfrwt beam="2">  1       -2 0.16522415E-02 0.27148363E+03</pdfrwt>
<totfact> 0.10729065E+04</totfact>
</mgrwt>
</event>
<event>
 9    1  0.8285222E-001  0.2869937E+03  0.7818608E-02  0.1091929E+00
         -1   -1    0    0    0  501 -0.00000000000E+00  0.00000000000E+00  0.11685666727E+03  0.11685666727E+03  0.00000000000E+00 0. -1.
          1   -1    0    0  501    0  0.00000000000E+00 -0.00000000000E+00 -0.17621033486E+03  0.17621033486E+03  0.00000000000E+00 0. -1.
         35    2    1    2    0    0  0.14210854715E-13 -0.14210854715E-13 -0.59353667584E+02  0.29306700213E+03  0.28699374537E+03 0.  0.
         25    2    3    3    0    0  0.48311043513E+02 -0.41759106780E+02  0.30905361947E+01  0.14020325285E+03  0.12477828646E+03 0.  0.
         25    2    3    3    0    0 -0.48311043513E+02  0.41759106780E+02 -0.62444203779E+02  0.15286374928E+03  0.12405751623E+03 0.  0.
          5    1    4    4  502    0 -0.30163029719E+02 -0.42495769717E+02 -0.23295469964E+02  0.57275367537E+02  0.47000000000E+01 0.  1.
         -5    1    4    4    0  502  0.78474073233E+02  0.73666293760E+00  0.26386006159E+02  0.82927885316E+02  0.47000000000E+01 0.  1.
          5    1    5    5  503    0 -0.21541341279E+02  0.70544645886E+02 -0.80558782076E+02  0.10932695833E+03  0.47000000000E+01 0.  1.
         -5    1    5    5    0  503 -0.26769702235E+02 -0.28785539106E+02  0.18114578296E+02  0.43536790950E+02  0.47000000000E+01 0.  1.
<mgrwt>
<rscale>  0 0.28699375E+03</rscale>
<asrwt>0</asrwt>
<pdfrwt beam="1">  1        1 0.27109282E-01 0.28699375E+03</pdfrwt>
<pdfrwt beam="2">  1       -1 0.17977949E-01 0.28699375E+03</pdfrwt>
<totfact> 0.41201428E+03</totfact>
</mgrwt>
</event>
<event>
 9    1  0.8285222E-001  0.2745070E+03  0.7818608E-02  0.1098727E+00
         -2   -1    0    0    0  501 -0.00000000000E+00  0.00000000000E+00  0.14409100855E+03  0.14409100855E+03  0.00000000000E+00 0. -1.
          2   -1    0    0  501    0  0.00000000000E+00 -0.00000000000E+00 -0.13074044760E+03  0.13074044760E+03  0.00000000000E+00 0. -1.
         35    2    1    2    0    0 -0.71054273576E-14  0.71054273576E-14  0.13350560948E+02  0.27483145615E+03  0.27450699774E+03 0.  0.
         25    2    3    3    0    0  0.17631366293E+02  0.29605729729E+02  0.53300427508E+02  0.13952143707E+03  0.12424947292E+03 0.  0.
         25    2    3    3    0    0 -0.17631366293E+02 -0.29605729729E+02 -0.39949866560E+02  0.13531001907E+03  0.12460114411E+03 0.  0.
          5    1    4    4  502    0  0.49008207244E+02 -0.32557497068E+02  0.21389874142E+02  0.62780663491E+02  0.47000000000E+01 0.  1.
         -5    1    4    4    0  502 -0.31376840951E+02  0.62163226796E+02  0.31910553366E+02  0.76740773582E+02  0.47000000000E+01 0.  1.
          5    1    5    5  503    0  0.48520230178E+02 -0.37611709913E+02 -0.27168547523E+02  0.67298391018E+02  0.47000000000E+01 0. -1.
         -5    1    5    5    0  503 -0.66151596471E+02  0.80059801844E+01 -0.12781319037E+02  0.68011628055E+02  0.47000000000E+01 0. -1.
<mgrwt>
<rscale>  0 0.27450700E+03</rscale>
<asrwt>0</asrwt>
<pdfrwt beam="1">  1        2 0.20113915E-01 0.27450700E+03</pdfrwt>
<pdfrwt beam="2">  1       -2 0.22167848E-01 0.27450700E+03</pdfrwt>
<totfact> 0.48160748E+03</totfact>
</mgrwt>
</event>
<event>
 9    1  0.8285222E-001  0.2717301E+03  0.7818608E-02  0.1100293E+00
          1   -1    0    0  501    0  0.00000000000E+00  0.00000000000E+00  0.85686298707E+03  0.85686298707E+03  0.00000000000E+00 0.  1.
         -1   -1    0    0    0  501 -0.00000000000E+00 -0.00000000000E+00 -0.21542896364E+02  0.21542896364E+02  0.00000000000E+00 0.  1.
         35    2    1    2    0    0  0.00000000000E+00  0.71054273576E-14  0.83532009071E+03  0.87840588344E+03  0.27173009056E+03 0.  0.
         25    2    3    3    0    0  0.14903916873E+02 -0.48634269915E+02  0.47128040911E+03  0.49023746671E+03  0.12506050858E+03 0.  0.
         25    2    3    3    0    0 -0.14903916873E+02  0.48634269915E+02  0.36403968160E+03  0.38816841673E+03  0.12474939286E+03 0.  0.
          5    1    4    4  502    0 -0.11031078547E+02 -0.84373418473E+02  0.36934331457E+03  0.37904766515E+03  0.47000000000E+01 0.  1.
         -5    1    4    4    0  502  0.25934995420E+02  0.35739148557E+02  0.10193709454E+03  0.11118980155E+03  0.47000000000E+01 0.  1.
          5    1    5    5  503    0  0.74991813211E+01  0.31649692773E+02  0.12014489853E+02  0.34991123725E+02  0.47000000000E+01 0. -1.
         -5    1    5    5    0  503 -0.22403098194E+02  0.16984577142E+02  0.35202519175E+03  0.35317729300E+03  0.47000000000E+01 0. -1.
<mgrwt>
<rscale>  0 0.27173009E+03</rscale>
<asrwt>0</asrwt>
<pdfrwt beam="1">  1        1 0.13182505E+00 0.27173009E+03</pdfrwt>
<pdfrwt beam="2">  1       -1 0.33142924E-02 0.27173009E+03</pdfrwt>
<totfact> 0.67157682E+03</totfact>
</mgrwt>
</event>
<event>
 9    1  0.8285222E-001  0.2718546E+03  0.7818608E-02  0.1100223E+00
         -1   -1    0    0    0  501 -0.00000000000E+00  0.00000000000E+00  0.21593100275E+02  0.21593100275E+02  0.00000000000E+00 0. -1.
          1   -1    0    0  501    0  0.00000000000E+00 -0.00000000000E+00 -0.85565424470E+03  0.85565424470E+03  0.00000000000E+00 0. -1.
         35    2    1    2    0    0  0.00000000000E+00  0.00000000000E+00 -0.83406114443E+03  0.87724734498E+03  0.27185457809E+03 0.  0.
         25    2    3    3    0    0  0.27627030411E+02  0.27418438840E+02 -0.53844315806E+03  0.55410656739E+03  0.12489207327E+03 0.  0.
         25    2    3    3    0    0 -0.27627030411E+02 -0.27418438840E+02 -0.29561798637E+03  0.32314077759E+03  0.12455900079E+03 0.  0.
          5    1    4    4  502    0  0.68085689100E+02  0.43433294058E+02 -0.26151434848E+03  0.27374067391E+03  0.47000000000E+01 0. -1.
         -5    1    4    4    0  502 -0.40458658689E+02 -0.16014855217E+02 -0.27692880957E+03  0.28036589347E+03  0.47000000000E+01 0. -1.
          5    1    5    5  503    0  0.34205951735E+02  0.42756483412E+01 -0.20958887688E+03  0.21245685589E+03  0.47000000000E+01 0. -1.
         -5    1    5    5    0  503 -0.61832982146E+02 -0.31694087182E+02 -0.86029109493E+02  0.11068392170E+03  0.47000000000E+01 0. -1.
<mgrwt>
<rscale>  0 0.27185458E+03</rscale>
<asrwt>0</asrwt>
<pdfrwt beam="1">  1        1 0.13163910E+00 0.27185458E+03</pdfrwt>
<pdfrwt beam="2">  1       -1 0.33220159E-02 0.27185458E+03</pdfrwt>
<totfact> 0.67077825E+03</totfact>
</mgrwt>
</event>
<event>
 9    1  0.8285222E-001  0.2839939E+03  0.7818608E-02  0.1093527E+00
          2   -1    0    0  501    0  0.00000000000E+00  0.00000000000E+00  0.27759316835E+04  0.27759316835E+04  0.00000000000E+00 0. -1.
         -2   -1    0    0    0  501 -0.00000000000E+00 -0.00000000000E+00 -0.72635532229E+01  0.72635532229E+01  0.00000000000E+00 0. -1.
         35    2    1    2    0    0 -0.71054273576E-14 -0.71054273576E-14  0.27686681303E+04  0.27831952367E+04  0.28399385575E+03 0.  0.
         25    2    3    3    0    0  0.55817420268E+02  0.36328261769E+02  0.12351232022E+04  0.12432192098E+04  0.12501740717E+03 0.  0.
         25    2    3    3    0    0 -0.55817420268E+02 -0.36328261769E+02  0.15335449281E+04  0.15399760269E+04  0.12381756714E+03 0.  0.
          5    1    4    4  502    0  0.45336412317E+02  0.78552159207E+02  0.62952814384E+03  0.63604528603E+03  0.47000000000E+01 0.  1.
         -5    1    4    4    0  502  0.10481007951E+02 -0.42223897437E+02  0.60559505831E+03  0.60717392376E+03  0.47000000000E+01 0.  1.
          5    1    5    5  503    0 -0.50916665022E+02 -0.80537953859E+02  0.11005764941E+04  0.11047033892E+04  0.47000000000E+01 0.  1.
         -5    1    5    5    0  503 -0.49007552462E+01  0.44209692090E+02  0.43296843403E+03  0.43527263771E+03  0.47000000000E+01 0.  1.
<mgrwt>
<rscale>  0 0.28399386E+03</rscale>
<asrwt>0</asrwt>
<pdfrwt beam="1">  1        2 0.42706557E+00 0.28399386E+03</pdfrwt>
<pdfrwt beam="2">  1       -2 0.11174719E-02 0.28399386E+03</pdfrwt>
<totfact> 0.50988449E+03</totfact>
</mgrwt>
</event>
<event>
 9    1  0.8285222E-001  0.2744382E+03  0.7818608E-02  0.1098766E+00
          2   -1    0    0  501    0  0.00000000000E+00  0.00000000000E+00  0.90148360587E+03  0.90148360587E+03  0.00000000000E+00 0.  1.
         -2   -1    0    0    0  501 -0.00000000000E+00 -0.00000000000E+00 -0.20886764274E+02  0.20886764274E+02  0.00000000000E+00 0.  1.
         35    2    1    2    0    0 -0.17763568394E-14  0.00000000000E+00  0.88059684160E+03  0.92237037015E+03  0.27443815750E+03 0.  0.
         25    2    3    3    0    0  0.88216254048E+01  0.52273691772E+02  0.35883712374E+03  0.38324344696E+03  0.12369760846E+03 0.  0.
         25    2    3    3    0    0 -0.88216254048E+01 -0.52273691772E+02  0.52175971786E+03  0.53912692318E+03  0.12495709742E+03 0.  0.
          5    1    4    4  502    0  0.14134192594E+02 -0.29786443589E+02  0.21440583776E+03  0.21697686717E+03  0.47000000000E+01 0. -1.
         -5    1    4    4    0  502 -0.53125671895E+01  0.82060135361E+02  0.14443128598E+03  0.16626657979E+03  0.47000000000E+01 0. -1.
          5    1    5    5  503    0  0.13738584078E+02 -0.12993406568E+02  0.46910715277E+03  0.46951164851E+03  0.47000000000E+01 0.  1.
         -5    1    5    5    0  503 -0.22560209483E+02 -0.39280285204E+02  0.52652565092E+02  0.69615274678E+02  0.47000000000E+01 0.  1.
<mgrwt>
<rscale>  0 0.27443816E+03</rscale>
<asrwt>0</asrwt>
<pdfrwt beam="1">  1        2 0.13868976E+00 0.27443816E+03</pdfrwt>
<pdfrwt beam="2">  1       -2 0.32133490E-02 0.27443816E+03</pdfrwt>
<totfact> 0.11549304E+04</totfact>
</mgrwt>
</event>
<event>
 9    1  0.8285222E-001  0.2769532E+03  0.7818608E-02  0.1097365E+00
         -1   -1    0    0    0  501 -0.00000000000E+00  0.00000000000E+00  0.92715966786E+02  0.92715966786E+02  0.00000000000E+00 0.  1.
          1   -1    0    0  501    0  0.00000000000E+00 -0.00000000000E+00 -0.20682269905E+03  0.20682269905E+03  0.00000000000E+00 0.  1.
         35    2    1    2    0    0  0.35527136788E-14  0.00000000000E+00 -0.11410673226E+03  0.29953866583E+03  0.27695318374E+03 0.  0.
         25    2    3    3    0    0 -0.11793245416E+02 -0.93631186632E+01 -0.12270254905E+03  0.17327402009E+03  0.12141343363E+03 0.  0.
         25    2    3    3    0    0  0.11793245416E+02  0.93631186632E+01  0.85958167849E+01  0.12626464574E+03  0.12506847752E+03 0.  0.
          5    1    4    4  502    0 -0.29684841726E+02  0.39298537086E+02 -0.11950209656E+02  0.50896584917E+02  0.47000000000E+01 0.  1.
         -5    1    4    4    0  502  0.17891596309E+02 -0.48661655749E+02 -0.11075233939E+03  0.12237743517E+03  0.47000000000E+01 0.  1.
          5    1    5    5  503    0  0.34764447920E+02  0.42262884367E+02  0.45669604197E+02  0.71431932507E+02  0.47000000000E+01 0. -1.
         -5    1    5    5    0  503 -0.22971202504E+02 -0.32899765704E+02 -0.37073787412E+02  0.54832713237E+02  0.47000000000E+01 0. -1.
<mgrwt>
<rscale>  0 0.27695318E+03</rscale>
<asrwt>0</asrwt>
<pdfrwt beam="1">  1        1 0.31818877E-01 0.27695318E+03</pdfrwt>
<pdfrwt beam="2">  1       -1 0.14263995E-01 0.27695318E+03</pdfrwt>
<totfact> 0.48633137E+03</totfact>
</mgrwt>
</event>
<event>
 9    1  0.8285222E-001  0.2788154E+03  0.7818608E-02  0.1096338E+00
         -1   -1    0    0    0  501 -0.00000000000E+00  0.00000000000E+00  0.33037033623E+03  0.33037033623E+03  0.00000000000E+00 0.  1.
          1   -1    0    0  501    0  0.00000000000E+00 -0.00000000000E+00 -0.58826430257E+02  0.58826430257E+02  0.00000000000E+00 0.  1.
         35    2    1    2    0    0  0.00000000000E+00  0.35527136788E-14  0.27154390598E+03  0.38919676649E+03  0.27881540519E+03 0.  0.
         25    2    3    3    0    0  0.39041625788E+02  0.25465842299E+02  0.18935735882E+03  0.23167233862E+03  0.12507240093E+03 0.  0.
         25    2    3    3    0    0 -0.39041625788E+02 -0.25465842299E+02  0.82186547158E+02  0.15752442787E+03  0.12604189452E+03 0.  0.
          5    1    4    4  502    0  0.62814553335E+02  0.42059372854E+02  0.53635423123E+02  0.92808984313E+02  0.47000000000E+01 0.  1.
         -5    1    4    4    0  502 -0.23772927547E+02 -0.16593530555E+02  0.13572193570E+03  0.13886335431E+03  0.47000000000E+01 0.  1.
          5    1    5    5  503    0 -0.36198287774E+02 -0.49723793618E+01  0.11370848948E+03  0.11952719847E+03  0.47000000000E+01 0.  1.
         -5    1    5    5    0  503 -0.28433380141E+01 -0.20493462937E+02 -0.31521942323E+02  0.37997229400E+02  0.47000000000E+01 0.  1.
<mgrwt>
<rscale>  0 0.27881541E+03</rscale>
<asrwt>0</asrwt>
<pdfrwt beam="1">  1        1 0.90502202E-02 0.27881541E+03</pdfrwt>
<pdfrwt beam="2">  1       -1 0.50826204E-01 0.27881541E+03</pdfrwt>
<totfact> 0.29186392E+03</totfact>
</mgrwt>
</event>
<event>
 9    1  0.8285222E-001  0.2745531E+03  0.7818608E-02  0.1098702E+00
          2   -1    0    0  501    0  0.00000000000E+00  0.00000000000E+00  0.41946388018E+03  0.41946388018E+03  0.00000000000E+00 0. -1.
         -2   -1    0    0    0  501 -0.00000000000E+00 -0.00000000000E+00 -0.44926030319E+02  0.44926030319E+02  0.00000000000E+00 0. -1.
         35    2    1    2    0    0 -0.71054273576E-14  0.00000000000E+00  0.37453784986E+03  0.46438991050E+03  0.27455306954E+03 0.  0.
         25    2    3    3    0    0 -0.48560507365E+02  0.21778280054E+02  0.17831615710E+03  0.22439846670E+03  0.12540176879E+03 0.  0.
         25    2    3    3    0    0  0.48560507365E+02 -0.21778280054E+02  0.19622169276E+03  0.23999144380E+03  0.12751675980E+03 0.  0.
          5    1    4    4  502    0 -0.41228711162E+02  0.53523060604E+02  0.17909422261E+03  0.19147155197E+03  0.47000000000E+01 0. -1.
         -5    1    4    4    0  502 -0.73317962032E+01 -0.31744780550E+02 -0.77806551107E+00  0.32926914731E+02  0.47000000000E+01 0. -1.
          5    1    5    5  503    0  0.83455614077E+02  0.16480702312E+02  0.13539953627E+03  0.15997367749E+03  0.47000000000E+01 0.  1.
         -5    1    5    5    0  503 -0.34895106712E+02 -0.38258982365E+02  0.60822156492E+02  0.80017766305E+02  0.47000000000E+01 0.  1.
<mgrwt>
<rscale>  0 0.27455307E+03</rscale>
<asrwt>0</asrwt>
<pdfrwt beam="1">  1        2 0.64532902E-01 0.27455307E+03</pdfrwt>
<pdfrwt beam="2">  1       -2 0.69116973E-02 0.27455307E+03</pdfrwt>
<totfact> 0.89451702E+03</totfact>
</mgrwt>
</event>
<event>
 9    1  0.8285222E-001  0.2734720E+03  0.7818608E-02  0.1099309E+00
         -2   -1    0    0    0  501 -0.00000000000E+00  0.00000000000E+00  0.10431724666E+02  0.10431724666E+02  0.00000000000E+00 0. -1.
          2   -1    0    0  501    0  0.00000000000E+00 -0.00000000000E+00 -0.17922955496E+04  0.17922955496E+04  0.00000000000E+00 0. -1.
         35    2    1    2    0    0  0.14210854715E-13 -0.71054273576E-14 -0.17818638250E+04  0.18027272743E+04  0.27347199998E+03 0.  0.
         25    2    3    3    0    0 -0.47454612092E+02  0.29773332041E+02 -0.95843387102E+03  0.96796770543E+03  0.12340017074E+03 0.  0.
         25    2    3    3    0    0  0.47454612092E+02 -0.29773332041E+02 -0.82342995396E+03  0.83475956888E+03  0.12509299437E+03 0.  0.
          5    1    4    4  502    0 -0.20616397193E+01  0.18133329486E+02 -0.17072348752E+02  0.25428784645E+02  0.47000000000E+01 0. -1.
         -5    1    4    4    0  502 -0.45392972373E+02  0.11640002555E+02 -0.94136152226E+03  0.94253892079E+03  0.47000000000E+01 0. -1.
          5    1    5    5  503    0 -0.26360890026E+02  0.26052269723E+02 -0.37490436055E+03  0.37676118011E+03  0.47000000000E+01 0.  1.
         -5    1    5    5    0  503  0.73815502118E+02 -0.55825601764E+02 -0.44852559341E+03  0.45799838876E+03  0.47000000000E+01 0.  1.
<mgrwt>
<rscale>  0 0.27347200E+03</rscale>
<asrwt>0</asrwt>
<pdfrwt beam="1">  1        2 0.27573810E+00 0.27347200E+03</pdfrwt>
<pdfrwt beam="2">  1       -2 0.16048789E-02 0.27347200E+03</pdfrwt>
<totfact> 0.10206203E+04</totfact>
</mgrwt>
</event>
<event>
 9    1  0.8285222E-001  0.2704942E+03  0.7818608E-02  0.1100997E+00
         -3   -1    0    0    0  501 -0.00000000000E+00  0.00000000000E+00  0.82949050480E+02  0.82949050480E+02  0.00000000000E+00 0.  1.
          3   -1    0    0  501    0  0.00000000000E+00 -0.00000000000E+00 -0.22051822797E+03  0.22051822797E+03  0.00000000000E+00 0.  1.
         35    2    1    2    0    0  0.00000000000E+00  0.00000000000E+00 -0.13756917749E+03  0.30346727845E+03  0.27049419679E+03 0.  0.
         25    2    3    3    0    0 -0.39741284577E+02 -0.31045722907E+02 -0.42966663152E+02  0.13904391294E+03  0.12224511840E+03 0.  0.
         25    2    3    3    0    0  0.39741284577E+02  0.31045722907E+02 -0.94602514343E+02  0.16442336551E+03  0.12466836325E+03 0.  0.
          5    1    4    4  502    0  0.15303542814E+02  0.37251730473E+02 -0.29572191124E+02  0.50184602557E+02  0.47000000000E+01 0. -1.
         -5    1    4    4    0  502 -0.55044827391E+02 -0.68297453381E+02 -0.13394472028E+02  0.88859310383E+02  0.47000000000E+01 0. -1.
          5    1    5    5  503    0  0.31642810802E+02 -0.45389599165E+02 -0.53610531311E+02  0.77185894147E+02  0.47000000000E+01 0. -1.
         -5    1    5    5    0  503  0.80984737758E+01  0.76435322072E+02 -0.40991983032E+02  0.87237471368E+02  0.47000000000E+01 0. -1.
<mgrwt>
<rscale>  0 0.27049420E+03</rscale>
<asrwt>0</asrwt>
<pdfrwt beam="1">  1        3 0.33925881E-01 0.27049420E+03</pdfrwt>
<pdfrwt beam="2">  1       -3 0.12761393E-01 0.27049420E+03</pdfrwt>
<totfact> 0.10589224E+03</totfact>
</mgrwt>
</event>
<event>
 9    1  0.8285222E-001  0.2751893E+03  0.7818608E-02  0.1098346E+00
         -2   -1    0    0    0  501 -0.00000000000E+00  0.00000000000E+00  0.18173810716E+02  0.18173810716E+02  0.00000000000E+00 0. -1.
          2   -1    0    0  501    0  0.00000000000E+00 -0.00000000000E+00 -0.10417347130E+04  0.10417347130E+04  0.00000000000E+00 0. -1.
         35    2    1    2    0    0 -0.71054273576E-14  0.00000000000E+00 -0.10235609023E+04  0.10599085237E+04  0.27518931295E+03 0.  0.
         25    2    3    3    0    0  0.53461388929E+02  0.75587966752E+01 -0.43762308596E+03  0.45829255764E+03  0.12491135859E+03 0.  0.
         25    2    3    3    0    0 -0.53461388929E+02 -0.75587966752E+01 -0.58593781634E+03  0.60161596609E+03  0.12531316982E+03 0.  0.
          5    1    4    4  502    0 -0.12708586229E+01 -0.40601073849E+02 -0.53788026821E+02  0.67567034185E+02  0.47000000000E+01 0. -1.
         -5    1    4    4    0  502  0.54732247552E+02  0.48159870524E+02 -0.38383505914E+03  0.39072552345E+03  0.47000000000E+01 0. -1.
          5    1    5    5  503    0  0.11268137788E+02 -0.25794888076E+02 -0.29265913165E+02  0.40877021093E+02  0.47000000000E+01 0.  1.
         -5    1    5    5    0  503 -0.64729526717E+02  0.18236091401E+02 -0.55667190317E+03  0.56073894500E+03  0.47000000000E+01 0.  1.
<mgrwt>
<rscale>  0 0.27518931E+03</rscale>
<asrwt>0</asrwt>
<pdfrwt beam="1">  1        2 0.16026688E+00 0.27518931E+03</pdfrwt>
<pdfrwt beam="2">  1       -2 0.27959708E-02 0.27518931E+03</pdfrwt>
<totfact> 0.11622771E+04</totfact>
</mgrwt>
</event>
<event>
 9    1  0.8285222E-001  0.2731677E+03  0.7818608E-02  0.1099480E+00
         -2   -1    0    0    0  501 -0.00000000000E+00  0.00000000000E+00  0.20281533659E+02  0.20281533659E+02  0.00000000000E+00 0.  1.
          2   -1    0    0  501    0  0.00000000000E+00 -0.00000000000E+00 -0.91980948657E+03  0.91980948657E+03  0.00000000000E+00 0.  1.
         35    2    1    2    0    0 -0.71054273576E-14  0.71054273576E-14 -0.89952795291E+03  0.94009102023E+03  0.27316769254E+03 0.  0.
         25    2    3    3    0    0 -0.29010278296E+02  0.46598160557E+02 -0.42800695676E+03  0.44909368048E+03  0.12442746480E+03 0.  0.
         25    2    3    3    0    0  0.29010278296E+02 -0.46598160557E+02 -0.47152099615E+03  0.49099733975E+03  0.12543266327E+03 0.  0.
          5    1    4    4  502    0 -0.16759687292E+01  0.80139589867E+02 -0.35610340425E+03  0.36504367856E+03  0.47000000000E+01 0. -1.
         -5    1    4    4    0  502 -0.27334309566E+02 -0.33541429310E+02 -0.71903552509E+02  0.84050001922E+02  0.47000000000E+01 0. -1.
          5    1    5    5  503    0  0.62571158612E+02 -0.70701229062E+02 -0.30193035097E+03  0.31638242764E+03  0.47000000000E+01 0. -1.
         -5    1    5    5    0  503 -0.33560880316E+02  0.24103068505E+02 -0.16959064518E+03  0.17461491211E+03  0.47000000000E+01 0. -1.
<mgrwt>
<rscale>  0 0.27316769E+03</rscale>
<asrwt>0</asrwt>
<pdfrwt beam="1">  1        2 0.14150910E+00 0.27316769E+03</pdfrwt>
<pdfrwt beam="2">  1       -2 0.31202370E-02 0.27316769E+03</pdfrwt>
<totfact> 0.11742608E+04</totfact>
</mgrwt>
</event>
<event>
 9    1  0.8285222E-001  0.2624092E+03  0.7818608E-02  0.1105704E+00
         -2   -1    0    0    0  501 -0.00000000000E+00  0.00000000000E+00  0.74760211869E+02  0.74760211869E+02  0.00000000000E+00 0. -1.
          2   -1    0    0  501    0  0.00000000000E+00 -0.00000000000E+00 -0.23026487015E+03  0.23026487015E+03  0.00000000000E+00 0. -1.
         35    2    1    2    0    0  0.00000000000E+00  0.71054273576E-14 -0.15550465828E+03  0.30502508202E+03  0.26240922604E+03 0.  0.
         25    2    3    3    0    0 -0.19510076184E+02 -0.81897743455E+01 -0.11727230706E+03  0.17163545245E+03  0.12352416386E+03 0.  0.
         25    2    3    3    0    0  0.19510076184E+02  0.81897743455E+01 -0.38232351217E+02  0.13338962957E+03  0.12602922328E+03 0.  0.
          5    1    4    4  502    0 -0.38223722651E+02 -0.38527570239E+02 -0.12365234121E+03  0.13512001380E+03  0.47000000000E+01 0.  1.
         -5    1    4    4    0  502  0.18713646468E+02  0.30337795894E+02  0.63800341539E+01  0.36515438647E+02  0.47000000000E+01 0.  1.
          5    1    5    5  503    0 -0.45834141395E+02  0.33114042806E+02 -0.90214102206E+01  0.57452451564E+02  0.47000000000E+01 0.  1.
         -5    1    5    5    0  503  0.65344217578E+02 -0.24924268461E+02 -0.29210940996E+02  0.75937178003E+02  0.47000000000E+01 0.  1.
<mgrwt>
<rscale>  0 0.26240923E+03</rscale>
<asrwt>0</asrwt>
<pdfrwt beam="1">  1        2 0.35425364E-01 0.26240923E+03</pdfrwt>
<pdfrwt beam="2">  1       -2 0.11501571E-01 0.26240923E+03</pdfrwt>
<totfact> 0.76476874E+03</totfact>
</mgrwt>
</event>
<event>
 9    1  0.8285222E-001  0.2763860E+03  0.7818608E-02  0.1097679E+00
         -1   -1    0    0    0  501 -0.00000000000E+00  0.00000000000E+00  0.39956861474E+02  0.39956861474E+02  0.00000000000E+00 0. -1.
          1   -1    0    0  501    0  0.00000000000E+00 -0.00000000000E+00 -0.47794800973E+03  0.47794800973E+03  0.00000000000E+00 0. -1.
         35    2    1    2    0    0  0.71054273576E-14  0.35527136788E-14 -0.43799114825E+03  0.51790487120E+03  0.27638597950E+03 0.  0.
         25    2    3    3    0    0  0.43174298840E+02  0.15424227508E+01 -0.29566760475E+03  0.32355949916E+03  0.12411695231E+03 0.  0.
         25    2    3    3    0    0 -0.43174298840E+02 -0.15424227508E+01 -0.14232354350E+03  0.19434537204E+03  0.12509090075E+03 0.  0.
          5    1    4    4  502    0 -0.34592054301E+02  0.28103959651E+02 -0.67728732031E+02  0.81214000711E+02  0.47000000000E+01 0. -1.
         -5    1    4    4    0  502  0.77766353141E+02 -0.26561536900E+02 -0.22793887272E+03  0.24234549845E+03  0.47000000000E+01 0. -1.
          5    1    5    5  503    0 -0.38538364018E+02  0.32750442314E+02 -0.31863329413E+01  0.50892432547E+02  0.47000000000E+01 0. -1.
         -5    1    5    5    0  503 -0.46359348227E+01 -0.34292865065E+02 -0.13913721056E+03  0.14345293949E+03  0.47000000000E+01 0. -1.
<mgrwt>
<rscale>  0 0.27638598E+03</rscale>
<asrwt>0</asrwt>
<pdfrwt beam="1">  1        1 0.73530462E-01 0.27638598E+03</pdfrwt>
<pdfrwt beam="2">  1       -1 0.61472095E-02 0.27638598E+03</pdfrwt>
<totfact> 0.61476202E+03</totfact>
</mgrwt>
</event>
<event>
 9    1  0.8285222E-001  0.2877325E+03  0.7818608E-02  0.1091539E+00
         -1   -1    0    0    0  501 -0.00000000000E+00  0.00000000000E+00  0.61424191291E+02  0.61424191291E+02  0.00000000000E+00 0. -1.
          1   -1    0    0  501    0  0.00000000000E+00 -0.00000000000E+00 -0.33695993313E+03  0.33695993313E+03  0.00000000000E+00 0. -1.
         35    2    1    2    0    0 -0.35527136788E-14  0.14210854715E-13 -0.27553574184E+03  0.39838412443E+03  0.28773245483E+03 0.  0.
         25    2    3    3    0    0  0.15752405659E+02 -0.58454403427E+02 -0.83210765814E+02  0.16078015950E+03  0.12353611852E+03 0.  0.
         25    2    3    3    0    0 -0.15752405659E+02  0.58454403427E+02 -0.19232497603E+03  0.23760396492E+03  0.12570478185E+03 0.  0.
          5    1    4    4  502    0 -0.31160892594E+02  0.15625701772E+02  0.59091688518E+01  0.35667521075E+02  0.47000000000E+01 0. -1.
         -5    1    4    4    0  502  0.46913298254E+02 -0.74080105199E+02 -0.89119934666E+02  0.12511263843E+03  0.47000000000E+01 0. -1.
          5    1    5    5  503    0  0.47622991559E+02 -0.61074253912E+01 -0.78359739538E+02  0.92019502011E+02  0.47000000000E+01 0.  1.
         -5    1    5    5    0  503 -0.63375397219E+02  0.64561828818E+02 -0.11396523649E+03  0.14558446291E+03  0.47000000000E+01 0.  1.
<mgrwt>
<rscale>  0 0.28773245E+03</rscale>
<asrwt>0</asrwt>
<pdfrwt beam="1">  1        1 0.51839990E-01 0.28773245E+03</pdfrwt>
<pdfrwt beam="2">  1       -1 0.94498755E-02 0.28773245E+03</pdfrwt>
<totfact> 0.50087839E+03</totfact>
</mgrwt>
</event>
<event>
 9    1  0.8285222E-001  0.2771907E+03  0.7818608E-02  0.1097233E+00
          2   -1    0    0  501    0  0.00000000000E+00  0.00000000000E+00  0.12448048697E+03  0.12448048697E+03  0.00000000000E+00 0. -1.
         -2   -1    0    0    0  501 -0.00000000000E+00 -0.00000000000E+00 -0.15431072113E+03  0.15431072113E+03  0.00000000000E+00 0. -1.
         35    2    1    2    0    0  0.00000000000E+00  0.71054273576E-14 -0.29830234165E+02  0.27879120810E+03  0.27719071926E+03 0.  0.
         25    2    3    3    0    0 -0.35975276641E+00  0.53003901313E+02 -0.38386540217E+02  0.14278521469E+03  0.12690369612E+03 0.  0.
         25    2    3    3    0    0  0.35975276641E+00 -0.53003901313E+02  0.85563060528E+01  0.13600599341E+03  0.12495950102E+03 0.  0.
          5    1    4    4  502    0 -0.54976760850E+02  0.59253942995E+02 -0.32694603286E+02  0.87318389118E+02  0.47000000000E+01 0. -1.
         -5    1    4    4    0  502  0.54617008084E+02 -0.62500416825E+01 -0.56919369309E+01  0.55466825573E+02  0.47000000000E+01 0. -1.
          5    1    5    5  503    0 -0.19852101274E+02 -0.82688235750E+02 -0.22726778365E+02  0.88147868444E+02  0.47000000000E+01 0. -1.
         -5    1    5    5    0  503  0.20211854041E+02  0.29684334437E+02  0.31283084418E+02  0.47858124968E+02  0.47000000000E+01 0. -1.
<mgrwt>
<rscale>  0 0.27719072E+03</rscale>
<asrwt>0</asrwt>
<pdfrwt beam="1">  1        2 0.19150844E-01 0.27719072E+03</pdfrwt>
<pdfrwt beam="2">  1       -2 0.23740111E-01 0.27719072E+03</pdfrwt>
<totfact> 0.45229937E+03</totfact>
</mgrwt>
</event>
<event>
 9    1  0.8285222E-001  0.2745620E+03  0.7818608E-02  0.1098697E+00
          3   -1    0    0  501    0  0.00000000000E+00  0.00000000000E+00  0.34732604145E+02  0.34732604145E+02  0.00000000000E+00 0.  1.
         -3   -1    0    0    0  501 -0.00000000000E+00 -0.00000000000E+00 -0.54260462466E+03  0.54260462466E+03  0.00000000000E+00 0.  1.
         35    2    1    2    0    0  0.00000000000E+00  0.00000000000E+00 -0.50787202052E+03  0.57733722881E+03  0.27456199035E+03 0.  0.
         25    2    3    3    0    0  0.32851426251E+02  0.43335463713E+02 -0.29039865782E+03  0.32084599780E+03  0.12511432859E+03 0.  0.
         25    2    3    3    0    0 -0.32851426251E+02 -0.43335463713E+02 -0.21747336270E+03  0.25649123101E+03  0.12464312849E+03 0.  0.
          5    1    4    4  502    0  0.20076453566E+02 -0.43418123137E+02 -0.89408153029E+02  0.10150913867E+03  0.47000000000E+01 0. -1.
         -5    1    4    4    0  502  0.12774972685E+02  0.86753586851E+02 -0.20099050479E+03  0.21933685913E+03  0.47000000000E+01 0. -1.
          5    1    5    5  503    0 -0.68563778367E+02  0.68097872577E+01 -0.14939592613E+03  0.16458614052E+03  0.47000000000E+01 0. -1.
         -5    1    5    5    0  503  0.35712352116E+02 -0.50145250971E+02 -0.68077436570E+02  0.91905090493E+02  0.47000000000E+01 0. -1.
<mgrwt>
<rscale>  0 0.27456199E+03</rscale>
<asrwt>0</asrwt>
<pdfrwt beam="1">  1        3 0.53434773E-02 0.27456199E+03</pdfrwt>
<pdfrwt beam="2">  1       -3 0.83477638E-01 0.27456199E+03</pdfrwt>
<totfact> 0.70678199E+02</totfact>
</mgrwt>
</event>
<event>
 9    1  0.8285222E-001  0.2751785E+03  0.7818608E-02  0.1098352E+00
         -2   -1    0    0    0  501 -0.00000000000E+00  0.00000000000E+00  0.44718200389E+02  0.44718200389E+02  0.00000000000E+00 0.  1.
          2   -1    0    0  501    0  0.00000000000E+00 -0.00000000000E+00 -0.42333537432E+03  0.42333537432E+03  0.00000000000E+00 0.  1.
         35    2    1    2    0    0  0.00000000000E+00  0.00000000000E+00 -0.37861717393E+03  0.46805357471E+03  0.27517845919E+03 0.  0.
         25    2    3    3    0    0 -0.37205564007E+02 -0.35397381060E+02 -0.17308841644E+03  0.21930124208E+03  0.12448375914E+03 0.  0.
         25    2    3    3    0    0  0.37205564007E+02  0.35397381060E+02 -0.20552875749E+03  0.24875233263E+03  0.13037800526E+03 0.  0.
          5    1    4    4  502    0 -0.42164091915E+02  0.25730495408E+01 -0.17556984965E+03  0.18064133895E+03  0.47000000000E+01 0. -1.
         -5    1    4    4    0  502  0.49585279072E+01 -0.37970430600E+02  0.24814332089E+01  0.38659903127E+02  0.47000000000E+01 0. -1.
          5    1    5    5  503    0  0.22270987108E+02  0.84680224581E+02 -0.14127469516E+03  0.16627497345E+03  0.47000000000E+01 0.  1.
         -5    1    5    5    0  503  0.14934576899E+02 -0.49282843522E+02 -0.64254062327E+02  0.82477359185E+02  0.47000000000E+01 0.  1.
<mgrwt>
<rscale>  0 0.27517846E+03</rscale>
<asrwt>0</asrwt>
<pdfrwt beam="1">  1        2 0.65128520E-01 0.27517846E+03</pdfrwt>
<pdfrwt beam="2">  1       -2 0.68797230E-02 0.27517846E+03</pdfrwt>
<totfact> 0.89203776E+03</totfact>
</mgrwt>
</event>
<event>
 9    1  0.8285222E-001  0.2775111E+03  0.7818608E-02  0.1097056E+00
          1   -1    0    0  501    0  0.00000000000E+00  0.00000000000E+00  0.12046675753E+04  0.12046675753E+04  0.00000000000E+00 0.  1.
         -1   -1    0    0    0  501 -0.00000000000E+00 -0.00000000000E+00 -0.15982085682E+02  0.15982085682E+02  0.00000000000E+00 0.  1.
         35    2    1    2    0    0 -0.71054273576E-14  0.71054273576E-14  0.11886854896E+04  0.12206496610E+04  0.27751108379E+03 0.  0.
         25    2    3    3    0    0  0.12368953232E+02 -0.47667691146E+02  0.50218106031E+03  0.52015607210E+03  0.12629854406E+03 0.  0.
         25    2    3    3    0    0 -0.12368953232E+02  0.47667691146E+02  0.68650442930E+03  0.70049358886E+03  0.13029864470E+03 0.  0.
          5    1    4    4  502    0  0.34202659653E+02 -0.84730639811E+02  0.36615358670E+03  0.37741176758E+03  0.47000000000E+01 0. -1.
         -5    1    4    4    0  502 -0.21833706421E+02  0.37062948665E+02  0.13602747360E+03  0.14274430453E+03  0.47000000000E+01 0. -1.
          5    1    5    5  503    0  0.54682385503E+02  0.12698498215E+02  0.40783900615E+03  0.41171125814E+03  0.47000000000E+01 0.  1.
         -5    1    5    5    0  503 -0.67051338735E+02  0.34969192931E+02  0.27866542315E+03  0.28878233072E+03  0.47000000000E+01 0.  1.
<mgrwt>
<rscale>  0 0.27751108E+03</rscale>
<asrwt>0</asrwt>
<pdfrwt beam="1">  1        1 0.18533340E+00 0.27751108E+03</pdfrwt>
<pdfrwt beam="2">  1       -1 0.24587834E-02 0.27751108E+03</pdfrwt>
<totfact> 0.57518749E+03</totfact>
</mgrwt>
</event>
<event>
 9    1  0.8285222E-001  0.2687496E+03  0.7818608E-02  0.1101997E+00
         -1   -1    0    0    0  501 -0.00000000000E+00  0.00000000000E+00  0.38038626638E+02  0.38038626638E+02  0.00000000000E+00 0.  1.
          1   -1    0    0  501    0  0.00000000000E+00 -0.00000000000E+00 -0.47469085335E+03  0.47469085335E+03  0.00000000000E+00 0.  1.
         35    2    1    2    0    0  0.35527136788E-14  0.71054273576E-14 -0.43665222671E+03  0.51272947999E+03  0.26874960941E+03 0.  0.
         25    2    3    3    0    0 -0.10637505885E+02  0.36425885123E+02 -0.27930814205E+03  0.30814885422E+03  0.12450974463E+03 0.  0.
         25    2    3    3    0    0  0.10637505885E+02 -0.36425885123E+02 -0.15734408466E+03  0.20458062576E+03  0.12512421756E+03 0.  0.
          5    1    4    4  502    0 -0.58782927816E+02 -0.43790700556E+00 -0.19809522821E+03  0.20668680124E+03  0.47000000000E+01 0. -1.
         -5    1    4    4    0  502  0.48145421931E+02  0.36863792129E+02 -0.81212913831E+02  0.10146205298E+03  0.47000000000E+01 0. -1.
          5    1    5    5  503    0 -0.21323903153E+02 -0.15294619339E+02 -0.16335223774E+03  0.16551337650E+03  0.47000000000E+01 0.  1.
         -5    1    5    5    0  503  0.31961409038E+02 -0.21131265784E+02  0.60081530758E+01  0.39067249260E+02  0.47000000000E+01 0.  1.
<mgrwt>
<rscale>  0 0.26874961E+03</rscale>
<asrwt>0</asrwt>
<pdfrwt beam="1">  1        1 0.73029363E-01 0.26874961E+03</pdfrwt>
<pdfrwt beam="2">  1       -1 0.58520964E-02 0.26874961E+03</pdfrwt>
<totfact> 0.66749730E+03</totfact>
</mgrwt>
</event>
<event>
 9    1  0.8285222E-001  0.2766069E+03  0.7818608E-02  0.1097557E+00
          2   -1    0    0  501    0  0.00000000000E+00  0.00000000000E+00  0.33029553690E+03  0.33029553690E+03  0.00000000000E+00 0.  1.
         -2   -1    0    0    0  501 -0.00000000000E+00 -0.00000000000E+00 -0.57911292388E+02  0.57911292388E+02  0.00000000000E+00 0.  1.
         35    2    1    2    0    0 -0.71054273576E-14  0.00000000000E+00  0.27238424452E+03  0.38820682929E+03  0.27660687925E+03 0.  0.
         25    2    3    3    0    0  0.13782627998E+01  0.24713261664E+02  0.57769629888E+02  0.13864314029E+03  0.12357971234E+03 0.  0.
         25    2    3    3    0    0 -0.13782627998E+01 -0.24713261664E+02  0.21461461463E+03  0.24956368900E+03  0.12493981409E+03 0.  0.
          5    1    4    4  502    0  0.47509183940E+02  0.53189238930E+02  0.36097669192E+02  0.80070902441E+02  0.47000000000E+01 0.  1.
         -5    1    4    4    0  502 -0.46130921140E+02 -0.28475977265E+02  0.21671960695E+02  0.58572237851E+02  0.47000000000E+01 0.  1.
          5    1    5    5  503    0 -0.53859014037E+02 -0.43917318220E+02  0.98790499242E+02  0.12087670153E+03  0.47000000000E+01 0.  1.
         -5    1    5    5    0  503  0.52480751237E+02  0.19204056556E+02  0.11582411539E+03  0.12868698747E+03  0.47000000000E+01 0.  1.
<mgrwt>
<rscale>  0 0.27660688E+03</rscale>
<asrwt>0</asrwt>
<pdfrwt beam="1">  1        2 0.50814697E-01 0.27660688E+03</pdfrwt>
<pdfrwt beam="2">  1       -2 0.89094298E-02 0.27660688E+03</pdfrwt>
<totfact> 0.77990610E+03</totfact>
</mgrwt>
</event>
<event>
 9    1  0.8285222E-001  0.2742500E+03  0.7818608E-02  0.1098872E+00
          1   -1    0    0  501    0  0.00000000000E+00  0.00000000000E+00  0.71340501242E+02  0.71340501242E+02  0.00000000000E+00 0. -1.
         -1   -1    0    0    0  501 -0.00000000000E+00 -0.00000000000E+00 -0.26357074827E+03  0.26357074827E+03  0.00000000000E+00 0. -1.
         35    2    1    2    0    0  0.00000000000E+00  0.00000000000E+00 -0.19223024703E+03  0.33491124951E+03  0.27425002676E+03 0.  0.
         25    2    3    3    0    0 -0.41408009057E+02  0.33051721450E+02 -0.11919896613E+03  0.18085892067E+03  0.12527775602E+03 0.  0.
         25    2    3    3    0    0  0.41408009057E+02 -0.33051721450E+02 -0.73031280896E+02  0.15405232885E+03  0.12486597827E+03 0.  0.
          5    1    4    4  502    0 -0.66086248592E+02  0.65229232244E+02 -0.97114285655E+02  0.13444522851E+03  0.47000000000E+01 0. -1.
         -5    1    4    4    0  502  0.24678239535E+02 -0.32177510793E+02 -0.22084680476E+02  0.46413692151E+02  0.47000000000E+01 0. -1.
          5    1    5    5  503    0  0.60615777624E+02 -0.47497735492E+02 -0.13436390539E+00  0.77151898406E+02  0.47000000000E+01 0. -1.
         -5    1    5    5    0  503 -0.19207768568E+02  0.14446014042E+02 -0.72896916991E+02  0.76900430439E+02  0.47000000000E+01 0. -1.
<mgrwt>
<rscale>  0 0.27425003E+03</rscale>
<asrwt>0</asrwt>
<pdfrwt beam="1">  1        1 0.10975462E-01 0.27425003E+03</pdfrwt>
<pdfrwt beam="2">  1       -1 0.40549346E-01 0.27425003E+03</pdfrwt>
<totfact> 0.33927209E+03</totfact>
</mgrwt>
</event>
<event>
 9    1  0.8285222E-001  0.2752271E+03  0.7818608E-02  0.1098325E+00
         -1   -1    0    0    0  501 -0.00000000000E+00  0.00000000000E+00  0.51096265396E+02  0.51096265396E+02  0.00000000000E+00 0.  1.
          1   -1    0    0  501    0  0.00000000000E+00 -0.00000000000E+00 -0.37062370815E+03  0.37062370815E+03  0.00000000000E+00 0.  1.
         35    2    1    2    0    0  0.00000000000E+00  0.00000000000E+00 -0.31952744276E+03  0.42171997355E+03  0.27522708699E+03 0.  0.
         25    2    3    3    0    0  0.42543235134E+02  0.22058869787E+02 -0.11773190602E+03  0.17910274184E+03  0.12617634425E+03 0.  0.
         25    2    3    3    0    0 -0.42543235134E+02 -0.22058869787E+02 -0.20179553674E+03  0.24261723171E+03  0.12587756703E+03 0.  0.
          5    1    4    4  502    0  0.37223696144E+02 -0.40166950955E+02 -0.99836764074E+02  0.11396691171E+03  0.47000000000E+01 0.  1.
         -5    1    4    4    0  502  0.53195389892E+01  0.62225820742E+02 -0.17895141943E+02  0.65135830134E+02  0.47000000000E+01 0.  1.
          5    1    5    5  503    0 -0.70594228443E+02 -0.19393493295E+02 -0.51503892209E+02  0.89634778877E+02  0.47000000000E+01 0. -1.
         -5    1    5    5    0  503  0.28050993310E+02 -0.26653764926E+01 -0.15029164453E+03  0.15298245283E+03  0.47000000000E+01 0. -1.
<mgrwt>
<rscale>  0 0.27522709E+03</rscale>
<asrwt>0</asrwt>
<pdfrwt beam="1">  1        1 0.57019030E-01 0.27522709E+03</pdfrwt>
<pdfrwt beam="2">  1       -1 0.78609642E-02 0.27522709E+03</pdfrwt>
<totfact> 0.58787741E+03</totfact>
</mgrwt>
</event>
<event>
 9    1  0.8285222E-001  0.2760306E+03  0.7818608E-02  0.1097877E+00
          2   -1    0    0  501    0  0.00000000000E+00  0.00000000000E+00  0.19100365132E+04  0.19100365132E+04  0.00000000000E+00 0. -1.
         -2   -1    0    0    0  501 -0.00000000000E+00 -0.00000000000E+00 -0.99727007543E+01  0.99727007543E+01  0.00000000000E+00 0. -1.
         35    2    1    2    0    0 -0.17763568394E-14  0.00000000000E+00  0.19000638125E+04  0.19200092140E+04  0.27603059668E+03 0.  0.
         25    2    3    3    0    0  0.45449067621E+01  0.57258951278E+02  0.83417763467E+03  0.84538335451E+03  0.12458509626E+03 0.  0.
         25    2    3    3    0    0 -0.45449067621E+01 -0.57258951278E+02  0.10658861778E+04  0.10746258595E+04  0.12412957000E+03 0.  0.
          5    1    4    4  502    0  0.14563582614E+02 -0.49014904072E+01  0.65864335580E+03  0.65883934513E+03  0.47000000000E+01 0. -1.
         -5    1    4    4    0  502 -0.10018675852E+02  0.62160441686E+02  0.17553427887E+03  0.18654400938E+03  0.47000000000E+01 0. -1.
          5    1    5    5  503    0 -0.59545121020E+02 -0.39320917759E+02  0.75410237842E+03  0.75748547388E+03  0.47000000000E+01 0. -1.
         -5    1    5    5    0  503  0.55000214258E+02 -0.17938033520E+02  0.31178379938E+03  0.31714038558E+03  0.47000000000E+01 0. -1.
<mgrwt>
<rscale>  0 0.27603060E+03</rscale>
<asrwt>0</asrwt>
<pdfrwt beam="1">  1        2 0.29385148E+00 0.27603060E+03</pdfrwt>
<pdfrwt beam="2">  1       -2 0.15342632E-02 0.27603060E+03</pdfrwt>
<totfact> 0.94564591E+03</totfact>
</mgrwt>
</event>
<event>
 9    1  0.8285222E-001  0.2760811E+03  0.7818608E-02  0.1097849E+00
         -2   -1    0    0    0  501 -0.00000000000E+00  0.00000000000E+00  0.27865454364E+02  0.27865454364E+02  0.00000000000E+00 0. -1.
          2   -1    0    0  501    0  0.00000000000E+00 -0.00000000000E+00 -0.68382842041E+03  0.68382842041E+03  0.00000000000E+00 0. -1.
         35    2    1    2    0    0  0.00000000000E+00  0.00000000000E+00 -0.65596296604E+03  0.71169387477E+03  0.27608107245E+03 0.  0.
         25    2    3    3    0    0  0.21914462400E+02 -0.53843017459E+02 -0.31939980922E+03  0.34801265076E+03  0.12536846800E+03 0.  0.
         25    2    3    3    0    0 -0.21914462400E+02  0.53843017459E+02 -0.33656315683E+03  0.36368122401E+03  0.12493982542E+03 0.  0.
          5    1    4    4  502    0  0.32418810943E+02 -0.68598427839E+02 -0.89817493426E+02  0.11766900922E+03  0.47000000000E+01 0.  1.
         -5    1    4    4    0  502 -0.10504348543E+02  0.14755410379E+02 -0.22958231579E+03  0.23034364154E+03  0.47000000000E+01 0.  1.
          5    1    5    5  503    0 -0.10978124592E+02  0.57727347620E+02 -0.34406913770E+03  0.34908255098E+03  0.47000000000E+01 0.  1.
         -5    1    5    5    0  503 -0.10936337808E+02 -0.38843301610E+01  0.75059808729E+01  0.14598673033E+02  0.47000000000E+01 0.  1.
<mgrwt>
<rscale>  0 0.27608107E+03</rscale>
<asrwt>0</asrwt>
<pdfrwt beam="1">  1        2 0.10520437E+00 0.27608107E+03</pdfrwt>
<pdfrwt beam="2">  1       -2 0.42869929E-02 0.27608107E+03</pdfrwt>
<totfact> 0.10638009E+04</totfact>
</mgrwt>
</event>
<event>
 9    1  0.8285222E-001  0.2831897E+03  0.7818608E-02  0.1093959E+00
          1   -1    0    0  501    0  0.00000000000E+00  0.00000000000E+00  0.35031657884E+03  0.35031657884E+03  0.00000000000E+00 0.  1.
         -1   -1    0    0    0  501 -0.00000000000E+00 -0.00000000000E+00 -0.57231396236E+02  0.57231396236E+02  0.00000000000E+00 0.  1.
         35    2    1    2    0    0  0.00000000000E+00  0.00000000000E+00  0.29308518260E+03  0.40754797507E+03  0.28318973803E+03 0.  0.
         25    2    3    3    0    0  0.51025768077E+02  0.42038123709E+02  0.12986347499E+03  0.19150401175E+03  0.12425148501E+03 0.  0.
         25    2    3    3    0    0 -0.51025768077E+02 -0.42038123709E+02  0.16322170761E+03  0.21604396332E+03  0.12515125010E+03 0.  0.
          5    1    4    4  502    0  0.47187755955E+02  0.82284889130E+02  0.65562108765E+02  0.11540349820E+03  0.47000000000E+01 0.  1.
         -5    1    4    4    0  502  0.38380121219E+01 -0.40246765421E+02  0.64301366226E+02  0.76100513549E+02  0.47000000000E+01 0.  1.
          5    1    5    5  503    0 -0.23218358496E+02  0.14459617829E+02  0.14867693185E+03  0.15124514136E+03  0.47000000000E+01 0. -1.
         -5    1    5    5    0  503 -0.27807409581E+02 -0.56497741538E+02  0.14544775758E+02  0.64798821967E+02  0.47000000000E+01 0. -1.
<mgrwt>
<rscale>  0 0.28318974E+03</rscale>
<asrwt>0</asrwt>
<pdfrwt beam="1">  1        1 0.53894857E-01 0.28318974E+03</pdfrwt>
<pdfrwt beam="2">  1       -1 0.88048304E-02 0.28318974E+03</pdfrwt>
<totfact> 0.53136988E+03</totfact>
</mgrwt>
</event>
<event>
 9    1  0.8285222E-001  0.2734807E+03  0.7818608E-02  0.1099304E+00
          2   -1    0    0  501    0  0.00000000000E+00  0.00000000000E+00  0.17932551168E+04  0.17932551168E+04  0.00000000000E+00 0. -1.
         -2   -1    0    0    0  501 -0.00000000000E+00 -0.00000000000E+00 -0.10426808807E+02  0.10426808807E+02  0.00000000000E+00 0. -1.
         35    2    1    2    0    0 -0.71054273576E-14 -0.17763568394E-14  0.17828283080E+04  0.18036819256E+04  0.27348073604E+03 0.  0.
         25    2    3    3    0    0  0.37090172686E+02  0.41528115134E+01  0.11627365961E+04  0.11700249439E+04  0.12493618596E+03 0.  0.
         25    2    3    3    0    0 -0.37090172686E+02 -0.41528115134E+01  0.62009171192E+03  0.63365698178E+03  0.12495804344E+03 0.  0.
          5    1    4    4  502    0  0.29000074086E+01 -0.51405587363E+02  0.27065009562E+03  0.27554402319E+03  0.47000000000E+01 0. -1.
         -5    1    4    4    0  502  0.34190165278E+02  0.55558398877E+02  0.89208650048E+03  0.89448092066E+03  0.47000000000E+01 0. -1.
          5    1    5    5  503    0 -0.68537040722E+02  0.14795660527E+01  0.56955264904E+03  0.57368268677E+03  0.47000000000E+01 0. -1.
         -5    1    5    5    0  503  0.31446868035E+02 -0.56323775661E+01  0.50539062873E+02  0.59974295013E+02  0.47000000000E+01 0. -1.
<mgrwt>
<rscale>  0 0.27348074E+03</rscale>
<asrwt>0</asrwt>
<pdfrwt beam="1">  1        2 0.27588516E+00 0.27348074E+03</pdfrwt>
<pdfrwt beam="2">  1       -2 0.16041258E-02 0.27348074E+03</pdfrwt>
<totfact> 0.10201430E+04</totfact>
</mgrwt>
</event>
<event>
 9    1  0.8285222E-001  0.2745188E+03  0.7818608E-02  0.1098721E+00
          1   -1    0    0  501    0  0.00000000000E+00  0.00000000000E+00  0.16803877976E+03  0.16803877976E+03  0.00000000000E+00 0. -1.
         -1   -1    0    0    0  501 -0.00000000000E+00 -0.00000000000E+00 -0.11211785099E+03  0.11211785099E+03  0.00000000000E+00 0. -1.
         35    2    1    2    0    0 -0.21316282073E-13  0.00000000000E+00  0.55920928775E+02  0.28015663075E+03  0.27451882900E+03 0.  0.
         25    2    3    3    0    0  0.50803492990E+02 -0.19488150819E+02  0.39358966796E+02  0.14209362919E+03  0.12522255494E+03 0.  0.
         25    2    3    3    0    0 -0.50803492990E+02  0.19488150819E+02  0.16561961980E+02  0.13806300156E+03  0.12580266648E+03 0.  0.
          5    1    4    4  502    0 -0.20786306808E+02  0.37716206394E+02  0.30999426559E+01  0.43431352960E+02  0.47000000000E+01 0. -1.
         -5    1    4    4    0  502  0.71589799797E+02 -0.57204357213E+02  0.36259024140E+02  0.98662276229E+02  0.47000000000E+01 0. -1.
          5    1    5    5  503    0  0.14759474472E+02  0.95128429265E+01  0.57284046121E+02  0.60098986741E+02  0.47000000000E+01 0.  1.
         -5    1    5    5    0  503 -0.65562967462E+02  0.99753078922E+01 -0.40722084142E+02  0.77964014820E+02  0.47000000000E+01 0.  1.
<mgrwt>
<rscale>  0 0.27451883E+03</rscale>
<asrwt>0</asrwt>
<pdfrwt beam="1">  1        1 0.25852120E-01 0.27451883E+03</pdfrwt>
<pdfrwt beam="2">  1       -1 0.17248900E-01 0.27451883E+03</pdfrwt>
<totfact> 0.46714561E+03</totfact>
</mgrwt>
</event>
<event>
 9    1  0.8285222E-001  0.2749567E+03  0.7818608E-02  0.1098476E+00
         -2   -1    0    0    0  501 -0.00000000000E+00  0.00000000000E+00  0.18048796839E+02  0.18048796839E+02  0.00000000000E+00 0. -1.
          2   -1    0    0  501    0  0.00000000000E+00 -0.00000000000E+00 -0.10471773925E+04  0.10471773925E+04  0.00000000000E+00 0. -1.
         35    2    1    2    0    0  0.00000000000E+00  0.71054273576E-14 -0.10291285957E+04  0.10652261894E+04  0.27495666577E+03 0.  0.
         25    2    3    3    0    0 -0.35112686069E+02 -0.13068991700E+02 -0.67929172125E+03  0.69184185428E+03  0.12571479432E+03 0.  0.
         25    2    3    3    0    0  0.35112686069E+02  0.13068991700E+02 -0.34983687446E+03  0.37338433510E+03  0.12500529470E+03 0.  0.
          5    1    4    4  502    0  0.21964329944E+02 -0.40117503143E+02 -0.11265162431E+03  0.12167302211E+03  0.47000000000E+01 0.  1.
         -5    1    4    4    0  502 -0.57077016013E+02  0.27048511443E+02 -0.56664009693E+03  0.57016883217E+03  0.47000000000E+01 0.  1.
          5    1    5    5  503    0  0.47471778716E+00 -0.33695335399E+02 -0.22293045060E+02  0.40677645491E+02  0.47000000000E+01 0.  1.
         -5    1    5    5    0  503  0.34637968282E+02  0.46764327099E+02 -0.32754382940E+03  0.33270668961E+03  0.47000000000E+01 0.  1.
<mgrwt>
<rscale>  0 0.27495667E+03</rscale>
<asrwt>0</asrwt>
<pdfrwt beam="1">  1        2 0.16110424E+00 0.27495667E+03</pdfrwt>
<pdfrwt beam="2">  1       -2 0.27767375E-02 0.27495667E+03</pdfrwt>
<totfact> 0.11654149E+04</totfact>
</mgrwt>
</event>
<event>
 9    1  0.8285222E-001  0.2768574E+03  0.7818608E-02  0.1097418E+00
          2   -1    0    0  501    0  0.00000000000E+00  0.00000000000E+00  0.77760867446E+02  0.77760867446E+02  0.00000000000E+00 0.  1.
         -2   -1    0    0    0  501 -0.00000000000E+00 -0.00000000000E+00 -0.24642869173E+03  0.24642869173E+03  0.00000000000E+00 0.  1.
         35    2    1    2    0    0  0.44408920985E-14 -0.71054273576E-14 -0.16866782429E+03  0.32418955918E+03  0.27685742780E+03 0.  0.
         25    2    3    3    0    0  0.78944118662E+01 -0.52574405898E+02 -0.11512863103E+03  0.17780268705E+03  0.12463067016E+03 0.  0.
         25    2    3    3    0    0 -0.78944118662E+01  0.52574405898E+02 -0.53539193257E+02  0.14638687213E+03  0.12544433516E+03 0.  0.
          5    1    4    4  502    0  0.33547975974E+00 -0.38718553991E+02 -0.14146368834E+03  0.14674230504E+03  0.47000000000E+01 0.  1.
         -5    1    4    4    0  502  0.75589321065E+01 -0.13855851907E+02  0.26335057312E+02  0.31060382005E+02  0.47000000000E+01 0.  1.
          5    1    5    5  503    0 -0.62326268297E+02  0.25827014646E+02 -0.36715972038E+01  0.67728642622E+02  0.47000000000E+01 0. -1.
         -5    1    5    5    0  503  0.54431856431E+02  0.26747391252E+02 -0.49867596053E+02  0.78658229508E+02  0.47000000000E+01 0. -1.
<mgrwt>
<rscale>  0 0.27685743E+03</rscale>
<asrwt>0</asrwt>
<pdfrwt beam="1">  1        2 0.11963211E-01 0.27685743E+03</pdfrwt>
<pdfrwt beam="2">  1       -2 0.37912106E-01 0.27685743E+03</pdfrwt>
<totfact> 0.33718805E+03</totfact>
</mgrwt>
</event>
<event>
 9    1  0.8285222E-001  0.2746926E+03  0.7818608E-02  0.1098624E+00
         -1   -1    0    0    0  501 -0.00000000000E+00  0.00000000000E+00  0.94724841811E+03  0.94724841811E+03  0.00000000000E+00 0.  1.
          1   -1    0    0  501    0  0.00000000000E+00 -0.00000000000E+00 -0.19914534093E+02  0.19914534093E+02  0.00000000000E+00 0.  1.
         35    2    1    2    0    0  0.71054273576E-14  0.00000000000E+00  0.92733388402E+03  0.96716295220E+03  0.27469263490E+03 0.  0.
         25    2    3    3    0    0  0.13038899915E+02  0.52511018557E+02  0.41096925565E+03  0.43279262020E+03  0.12444397546E+03 0.  0.
         25    2    3    3    0    0 -0.13038899915E+02 -0.52511018557E+02  0.51636462836E+03  0.53437033200E+03  0.12645869807E+03 0.  0.
          5    1    4    4  502    0  0.61996041633E+02  0.58252273387E+02  0.28419570654E+03  0.29669197184E+03  0.47000000000E+01 0.  1.
         -5    1    4    4    0  502 -0.48957141718E+02 -0.57412548296E+01  0.12677354911E+03  0.13610064837E+03  0.47000000000E+01 0.  1.
          5    1    5    5  503    0 -0.22725235123E+02 -0.74012148297E+02  0.49828442536E+03  0.50428532892E+03  0.47000000000E+01 0.  1.
         -5    1    5    5    0  503  0.96863352075E+01  0.21501129740E+02  0.18080203007E+02  0.30085003085E+02  0.47000000000E+01 0.  1.
<mgrwt>
<rscale>  0 0.27469263E+03</rscale>
<asrwt>0</asrwt>
<pdfrwt beam="1">  1        1 0.30637752E-02 0.27469263E+03</pdfrwt>
<pdfrwt beam="2">  1       -1 0.14573049E+00 0.27469263E+03</pdfrwt>
<totfact> 0.13485035E+03</totfact>
</mgrwt>
</event>
<event>
 9    1  0.8285222E-001  0.2801326E+03  0.7818608E-02  0.1095617E+00
          2   -1    0    0  501    0  0.00000000000E+00  0.00000000000E+00  0.27832120676E+04  0.27832120676E+04  0.00000000000E+00 0. -1.
         -2   -1    0    0    0  501 -0.00000000000E+00 -0.00000000000E+00 -0.70488931234E+01  0.70488931234E+01  0.00000000000E+00 0. -1.
         35    2    1    2    0    0 -0.71054273576E-14 -0.28421709430E-13  0.27761631745E+04  0.27902609607E+04  0.28013257150E+03 0.  0.
         25    2    3    3    0    0 -0.88369377571E+01 -0.63659987023E+02  0.13605370389E+04  0.13677750839E+04  0.12496783868E+03 0.  0.
         25    2    3    3    0    0  0.88369377571E+01  0.63659987023E+02  0.14156261356E+04  0.14224858768E+04  0.12384679410E+03 0.  0.
          5    1    4    4  502    0 -0.30594229915E+02  0.29908194022E+02  0.33934014469E+03  0.34205895804E+03  0.47000000000E+01 0.  1.
         -5    1    4    4    0  502  0.21757292158E+02 -0.93568181045E+02  0.10211968942E+04  0.10257161259E+04  0.47000000000E+01 0.  1.
          5    1    5    5  503    0 -0.37382732336E+02 -0.23791944236E+01  0.87986623643E+03  0.88067577079E+03  0.47000000000E+01 0.  1.
         -5    1    5    5    0  503  0.46219670093E+02  0.66039181446E+02  0.53575989920E+03  0.54181010601E+03  0.47000000000E+01 0.  1.
<mgrwt>
<rscale>  0 0.28013257E+03</rscale>
<asrwt>0</asrwt>
<pdfrwt beam="1">  1        2 0.42818560E+00 0.28013257E+03</pdfrwt>
<pdfrwt beam="2">  1       -2 0.10844473E-02 0.28013257E+03</pdfrwt>
<totfact> 0.52767436E+03</totfact>
</mgrwt>
</event>
<event>
 9    1  0.8285222E-001  0.2727420E+03  0.7818608E-02  0.1099720E+00
          2   -1    0    0  501    0  0.00000000000E+00  0.00000000000E+00  0.16254644869E+04  0.16254644869E+04  0.00000000000E+00 0.  1.
         -2   -1    0    0    0  501 -0.00000000000E+00 -0.00000000000E+00 -0.11441069337E+02  0.11441069337E+02  0.00000000000E+00 0.  1.
         35    2    1    2    0    0 -0.14210854715E-13  0.00000000000E+00  0.16140234175E+04  0.16369055562E+04  0.27274201655E+03 0.  0.
         25    2    3    3    0    0 -0.43423845323E+02  0.18005871635E+02  0.63455185257E+03  0.64841744207E+03  0.12481700135E+03 0.  0.
         25    2    3    3    0    0  0.43423845323E+02 -0.18005871635E+02  0.97947156496E+03  0.98848811413E+03  0.12463692655E+03 0.  0.
          5    1    4    4  502    0  0.36088242720E+02 -0.21246309867E+02  0.15051641428E+03  0.15630434387E+03  0.47000000000E+01 0.  1.
         -5    1    4    4    0  502 -0.79512088043E+02  0.39252181502E+02  0.48403543829E+03  0.49211309820E+03  0.47000000000E+01 0.  1.
          5    1    5    5  503    0  0.87150081555E+02 -0.18548230441E+02  0.65586142247E+03  0.66190291513E+03  0.47000000000E+01 0.  1.
         -5    1    5    5    0  503 -0.43726236231E+02  0.54235880615E+00  0.32361014249E+03  0.32658519900E+03  0.47000000000E+01 0.  1.
<mgrwt>
<rscale>  0 0.27274202E+03</rscale>
<asrwt>0</asrwt>
<pdfrwt beam="1">  1        2 0.25007128E+00 0.27274202E+03</pdfrwt>
<pdfrwt beam="2">  1       -2 0.17601658E-02 0.27274202E+03</pdfrwt>
<totfact> 0.10911754E+04</totfact>
</mgrwt>
</event>
<event>
 9    1  0.8285222E-001  0.2725457E+03  0.7818608E-02  0.1099831E+00
          2   -1    0    0  501    0  0.00000000000E+00  0.00000000000E+00  0.18033502919E+04  0.18033502919E+04  0.00000000000E+00 0. -1.
         -2   -1    0    0    0  501 -0.00000000000E+00 -0.00000000000E+00 -0.10297661755E+02  0.10297661755E+02  0.00000000000E+00 0. -1.
         35    2    1    2    0    0  0.17763568394E-14  0.71054273576E-14  0.17930526301E+04  0.18136479536E+04  0.27254571236E+03 0.  0.
         25    2    3    3    0    0  0.14336286849E+01 -0.52911055804E+02  0.91265940409E+03  0.92291565599E+03  0.12658785519E+03 0.  0.
         25    2    3    3    0    0 -0.14336286849E+01  0.52911055804E+02  0.88039322603E+03  0.89073229763E+03  0.12453978682E+03 0.  0.
          5    1    4    4  502    0 -0.10254772583E+02  0.40421632233E+02  0.23100621187E+03  0.23478719862E+03  0.47000000000E+01 0. -1.
         -5    1    4    4    0  502  0.11688401268E+02 -0.93332688037E+02  0.68165319222E+03  0.68812845737E+03  0.47000000000E+01 0. -1.
          5    1    5    5  503    0  0.49920200818E+02  0.47475529499E+02  0.68858177041E+03  0.69203532922E+03  0.47000000000E+01 0.  1.
         -5    1    5    5    0  503 -0.51353829503E+02  0.54355263049E+01  0.19181145562E+03  0.19869696842E+03  0.47000000000E+01 0.  1.
<mgrwt>
<rscale>  0 0.27254571E+03</rscale>
<asrwt>0</asrwt>
<pdfrwt beam="1">  1        2 0.27743826E+00 0.27254571E+03</pdfrwt>
<pdfrwt beam="2">  1       -2 0.15842571E-02 0.27254571E+03</pdfrwt>
<totfact> 0.10262774E+04</totfact>
</mgrwt>
</event>
<event>
 9    1  0.8285222E-001  0.2719493E+03  0.7818608E-02  0.1100169E+00
          1   -1    0    0  501    0  0.00000000000E+00  0.00000000000E+00  0.70081142378E+02  0.70081142378E+02  0.00000000000E+00 0. -1.
         -1   -1    0    0    0  501 -0.00000000000E+00 -0.00000000000E+00 -0.26382424867E+03  0.26382424867E+03  0.00000000000E+00 0. -1.
         35    2    1    2    0    0  0.00000000000E+00  0.00000000000E+00 -0.19374310629E+03  0.33390539105E+03  0.27194929479E+03 0.  0.
         25    2    3    3    0    0  0.14779315681E+02 -0.37979044228E+02 -0.54877664620E+02  0.14309993272E+03  0.12571872056E+03 0.  0.
         25    2    3    3    0    0 -0.14779315681E+02  0.37979044228E+02 -0.13886544167E+03  0.19080545833E+03  0.12434740071E+03 0.  0.
          5    1    4    4  502    0  0.21788089026E+02 -0.51986762336E+02  0.24799967308E+02  0.61761417245E+02  0.47000000000E+01 0. -1.
         -5    1    4    4    0  502 -0.70087733452E+01  0.14007718108E+02 -0.79677631928E+02  0.81338515477E+02  0.47000000000E+01 0. -1.
          5    1    5    5  503    0 -0.59847350707E+02 -0.12003969775E+02 -0.48890218479E+02  0.78346309038E+02  0.47000000000E+01 0.  1.
         -5    1    5    5    0  503  0.45068035026E+02  0.49983014003E+02 -0.89975223196E+02  0.11245914929E+03  0.47000000000E+01 0.  1.
<mgrwt>
<rscale>  0 0.27194929E+03</rscale>
<asrwt>0</asrwt>
<pdfrwt beam="1">  1        1 0.10781714E-01 0.27194929E+03</pdfrwt>
<pdfrwt beam="2">  1       -1 0.40588346E-01 0.27194929E+03</pdfrwt>
<totfact> 0.34677520E+03</totfact>
</mgrwt>
</event>
<event>
 9    1  0.8285222E-001  0.2767964E+03  0.7818608E-02  0.1097452E+00
          1   -1    0    0  501    0  0.00000000000E+00  0.00000000000E+00  0.48694588071E+02  0.48694588071E+02  0.00000000000E+00 0. -1.
         -1   -1    0    0    0  501 -0.00000000000E+00 -0.00000000000E+00 -0.39335088215E+03  0.39335088215E+03  0.00000000000E+00 0. -1.
         35    2    1    2    0    0 -0.35527136788E-14  0.00000000000E+00 -0.34465629408E+03  0.44204547023E+03  0.27679638129E+03 0.  0.
         25    2    3    3    0    0  0.40725102608E+01  0.85188539098E+01 -0.79207873208E+02  0.14841343522E+03  0.12515392269E+03 0.  0.
         25    2    3    3    0    0 -0.40725102608E+01 -0.85188539098E+01 -0.26544842088E+03  0.29363203500E+03  0.12517088968E+03 0.  0.
          5    1    4    4  502    0  0.43416340042E+02  0.11203534585E+02  0.13909067685E+02  0.47181033623E+02  0.47000000000E+01 0. -1.
         -5    1    4    4    0  502 -0.39343829781E+02 -0.26846806750E+01 -0.93116940893E+02  0.10123240160E+03  0.47000000000E+01 0. -1.
          5    1    5    5  503    0 -0.20347208338E+02 -0.30096781024E+02 -0.11772855897E+02  0.38477464198E+02  0.47000000000E+01 0. -1.
         -5    1    5    5    0  503  0.16274698077E+02  0.21577927114E+02 -0.25367556498E+03  0.25515457081E+03  0.47000000000E+01 0. -1.
<mgrwt>
<rscale>  0 0.27679638E+03</rscale>
<asrwt>0</asrwt>
<pdfrwt beam="1">  1        1 0.74914752E-02 0.27679638E+03</pdfrwt>
<pdfrwt beam="2">  1       -1 0.60515519E-01 0.27679638E+03</pdfrwt>
<totfact> 0.27121661E+03</totfact>
</mgrwt>
</event>
<event>
 8    1  0.8285222E-001  0.3647963E+03  0.7818608E-02  0.1056701E+00
          1   -1    0    0  501    0  0.00000000000E+00  0.00000000000E+00  0.86547064732E+03  0.86547064732E+03  0.00000000000E+00 0.  1.
         -1   -1    0    0    0  501 -0.00000000000E+00 -0.00000000000E+00 -0.38440456591E+02  0.38440456591E+02  0.00000000000E+00 0.  1.
         25    2    1    2    0    0 -0.10219240994E+03  0.74502210964E+02  0.33214587990E+03  0.37798626345E+03  0.12868124081E+03 0.  0.
         25    2    1    2    0    0  0.10219240994E+03 -0.74502210964E+02  0.49488431083E+03  0.52592484046E+03  0.12527006274E+03 0.  0.
          5    1    3    3  502    0 -0.23451300861E+02  0.43561414789E+02  0.18387928205E+02  0.52988359799E+02  0.47000000000E+01 0.  1.
         -5    1    3    3    0  502 -0.78741109081E+02  0.30940796174E+02  0.31375795170E+03  0.32499790365E+03  0.47000000000E+01 0.  1.
          5    1    4    4  503    0  0.20955714081E+02 -0.43851361013E+02  0.40918431330E+02  0.63706293550E+02  0.47000000000E+01 0. -1.
         -5    1    4    4    0  503  0.81236695861E+02 -0.30650849950E+02  0.45396587950E+03  0.46221854691E+03  0.47000000000E+01 0. -1.
<mgrwt>
<rscale>  0 0.36479631E+03</rscale>
<asrwt>0</asrwt>
<pdfrwt beam="1">  1        1 0.13314932E+00 0.36479631E+03</pdfrwt>
<pdfrwt beam="2">  1       -1 0.59139170E-02 0.36479631E+03</pdfrwt>
<totfact> 0.27871960E+03</totfact>
</mgrwt>
</event>
<event>
 9    1  0.8285222E-001  0.2741302E+03  0.7818608E-02  0.1098939E+00
          1   -1    0    0  501    0  0.00000000000E+00  0.00000000000E+00  0.12398331076E+03  0.12398331076E+03  0.00000000000E+00 0. -1.
         -1   -1    0    0    0  501 -0.00000000000E+00 -0.00000000000E+00 -0.15152716955E+03  0.15152716955E+03  0.00000000000E+00 0. -1.
         35    2    1    2    0    0  0.00000000000E+00  0.00000000000E+00 -0.27543858799E+02  0.27551048031E+03  0.27413018915E+03 0.  0.
         25    2    3    3    0    0 -0.38724342447E+02  0.38079398504E+02 -0.29331783918E+02  0.13986286706E+03  0.12550558851E+03 0.  0.
         25    2    3    3    0    0  0.38724342447E+02 -0.38079398504E+02  0.17879251191E+01  0.13564761325E+03  0.12428782328E+03 0.  0.
          5    1    4    4  502    0  0.34843797867E+01  0.67640411622E+02  0.17456653117E+02  0.70101290465E+02  0.47000000000E+01 0. -1.
         -5    1    4    4    0  502 -0.42208722234E+02 -0.29561013117E+02 -0.46788437035E+02  0.69761576597E+02  0.47000000000E+01 0. -1.
          5    1    5    5  503    0  0.20908184997E+02  0.45096092782E+02  0.63637701408E+01  0.50332865550E+02  0.47000000000E+01 0. -1.
         -5    1    5    5    0  503  0.17816157451E+02 -0.83175491286E+02 -0.45758450218E+01  0.85314747697E+02  0.47000000000E+01 0. -1.
<mgrwt>
<rscale>  0 0.27413019E+03</rscale>
<asrwt>0</asrwt>
<pdfrwt beam="1">  1        1 0.19074355E-01 0.27413019E+03</pdfrwt>
<pdfrwt beam="2">  1       -1 0.23311872E-01 0.27413019E+03</pdfrwt>
<totfact> 0.42248426E+03</totfact>
</mgrwt>
</event>
<event>
 9    1  0.8285222E-001  0.2745598E+03  0.7818608E-02  0.1098698E+00
          2   -1    0    0  501    0  0.00000000000E+00  0.00000000000E+00  0.65625527057E+03  0.65625527057E+03  0.00000000000E+00 0. -1.
         -2   -1    0    0    0  501 -0.00000000000E+00 -0.00000000000E+00 -0.28717144312E+02  0.28717144312E+02  0.00000000000E+00 0. -1.
         35    2    1    2    0    0  0.00000000000E+00  0.00000000000E+00  0.62753812626E+03  0.68497241488E+03  0.27455984638E+03 0.  0.
         25    2    3    3    0    0 -0.19640372527E+02 -0.13172894956E+02  0.18789019784E+03  0.22721840879E+03  0.12556356738E+03 0.  0.
         25    2    3    3    0    0  0.19640372527E+02  0.13172894956E+02  0.43964792842E+03  0.45775400609E+03  0.12525637603E+03 0.  0.
          5    1    4    4  502    0 -0.20226517806E+02  0.51560044840E+02  0.12518378129E+03  0.13696941025E+03  0.47000000000E+01 0. -1.
         -5    1    4    4    0  502  0.58614527954E+00 -0.64732939795E+02  0.62706416553E+02  0.90248998542E+02  0.47000000000E+01 0. -1.
          5    1    5    5  503    0 -0.11900270135E+02 -0.43280931529E+02  0.30485464280E+03  0.30817738188E+03  0.47000000000E+01 0.  1.
         -5    1    5    5    0  503  0.31540642662E+02  0.56453826484E+02  0.13479328562E+03  0.14957662421E+03  0.47000000000E+01 0.  1.
<mgrwt>
<rscale>  0 0.27455985E+03</rscale>
<asrwt>0</asrwt>
<pdfrwt beam="1">  1        2 0.10096234E+00 0.27455985E+03</pdfrwt>
<pdfrwt beam="2">  1       -2 0.44180227E-02 0.27455985E+03</pdfrwt>
<totfact> 0.10676507E+04</totfact>
</mgrwt>
</event>
<event>
 9    1  0.8285222E-001  0.2732858E+03  0.7818608E-02  0.1099414E+00
         -1   -1    0    0    0  501 -0.00000000000E+00  0.00000000000E+00  0.16639562280E+02  0.16639562280E+02  0.00000000000E+00 0. -1.
          1   -1    0    0  501    0  0.00000000000E+00 -0.00000000000E+00 -0.11221016439E+04  0.11221016439E+04  0.00000000000E+00 0. -1.
         35    2    1    2    0    0  0.00000000000E+00 -0.71054273576E-14 -0.11054620817E+04  0.11387412062E+04  0.27328578586E+03 0.  0.
         25    2    3    3    0    0 -0.16564539414E+02 -0.48640853301E+02 -0.62557079091E+03  0.64001610678E+03  0.12506592629E+03 0.  0.
         25    2    3    3    0    0  0.16564539414E+02  0.48640853301E+02 -0.47989129075E+03  0.49872509944E+03  0.12566128004E+03 0.  0.
          5    1    4    4  502    0  0.20728443032E+02 -0.78233593355E+02 -0.29248118210E+03  0.30350864133E+03  0.47000000000E+01 0. -1.
         -5    1    4    4    0  502 -0.37292982446E+02  0.29592740054E+02 -0.33308960882E+03  0.33650746545E+03  0.47000000000E+01 0. -1.
          5    1    5    5  503    0 -0.99037838837E+01  0.80249219555E+02 -0.40581754802E+03  0.41382121073E+03  0.47000000000E+01 0. -1.
         -5    1    5    5    0  503  0.26468323298E+02 -0.31608366254E+02 -0.74073742736E+02  0.84903888711E+02  0.47000000000E+01 0. -1.
<mgrwt>
<rscale>  0 0.27328579E+03</rscale>
<asrwt>0</asrwt>
<pdfrwt beam="1">  1        1 0.17263105E+00 0.27328579E+03</pdfrwt>
<pdfrwt beam="2">  1       -1 0.25599322E-02 0.27328579E+03</pdfrwt>
<totfact> 0.61993299E+03</totfact>
</mgrwt>
</event>
<event>
 9    1  0.8285222E-001  0.2762462E+03  0.7818608E-02  0.1097757E+00
          2   -1    0    0  501    0  0.00000000000E+00  0.00000000000E+00  0.83057345454E+03  0.83057345454E+03  0.00000000000E+00 0. -1.
         -2   -1    0    0    0  501 -0.00000000000E+00 -0.00000000000E+00 -0.22969663016E+02  0.22969663016E+02  0.00000000000E+00 0. -1.
         35    2    1    2    0    0  0.00000000000E+00 -0.71054273576E-14  0.80760379152E+03  0.85354311755E+03  0.27624621163E+03 0.  0.
         25    2    3    3    0    0  0.58314826165E+02 -0.15095554442E+02  0.39965275716E+03  0.42275044983E+03  0.12396419567E+03 0.  0.
         25    2    3    3    0    0 -0.58314826165E+02  0.15095554442E+02  0.40795103436E+03  0.43079266772E+03  0.12461854362E+03 0.  0.
          5    1    4    4  502    0  0.45446657863E+02 -0.43558259672E+02  0.81765747300E+02  0.10329786120E+03  0.47000000000E+01 0. -1.
         -5    1    4    4    0  502  0.12868168302E+02  0.28462705229E+02  0.31788700986E+03  0.31945258863E+03  0.47000000000E+01 0. -1.
          5    1    5    5  503    0 -0.67903220334E+02  0.52590951975E+02  0.35355770017E+03  0.36387057165E+03  0.47000000000E+01 0.  1.
         -5    1    5    5    0  503  0.95883941689E+01 -0.37495397533E+02  0.54393334187E+02  0.66922096074E+02  0.47000000000E+01 0.  1.
<mgrwt>
<rscale>  0 0.27624621E+03</rscale>
<asrwt>0</asrwt>
<pdfrwt beam="1">  1        2 0.12778051E+00 0.27624621E+03</pdfrwt>
<pdfrwt beam="2">  1       -2 0.35337950E-02 0.27624621E+03</pdfrwt>
<totfact> 0.11162634E+04</totfact>
</mgrwt>
</event>
<event>
 9    1  0.8285222E-001  0.2773564E+03  0.7818608E-02  0.1097142E+00
          2   -1    0    0  501    0  0.00000000000E+00  0.00000000000E+00  0.14010556186E+04  0.14010556186E+04  0.00000000000E+00 0.  1.
         -2   -1    0    0    0  501 -0.00000000000E+00 -0.00000000000E+00 -0.13726533158E+02  0.13726533158E+02  0.00000000000E+00 0.  1.
         35    2    1    2    0    0  0.17763568394E-14  0.00000000000E+00  0.13873290855E+04  0.14147821518E+04  0.27735635132E+03 0.  0.
         25    2    3    3    0    0 -0.40772143456E+01  0.38353076269E+02  0.93015866991E+03  0.93928928366E+03  0.12482637963E+03 0.  0.
         25    2    3    3    0    0  0.40772143456E+01 -0.38353076269E+02  0.45717041555E+03  0.47549286811E+03  0.12490434996E+03 0.  0.
          5    1    4    4  502    0 -0.62230562698E+01 -0.41111276207E+02  0.17452722912E+03  0.17947341632E+03  0.47000000000E+01 0.  1.
         -5    1    4    4    0  502  0.21458419242E+01  0.79464352477E+02  0.75563144079E+03  0.75981586734E+03  0.47000000000E+01 0.  1.
          5    1    5    5  503    0 -0.45325840672E+02 -0.58122624944E+02  0.31695930788E+03  0.32545040209E+03  0.47000000000E+01 0.  1.
         -5    1    5    5    0  503  0.49403055017E+02  0.19769548675E+02  0.14021110766E+03  0.15004246603E+03  0.47000000000E+01 0.  1.
<mgrwt>
<rscale>  0 0.27735635E+03</rscale>
<asrwt>0</asrwt>
<pdfrwt beam="1">  1        2 0.21554691E+00 0.27735635E+03</pdfrwt>
<pdfrwt beam="2">  1       -2 0.21117754E-02 0.27735635E+03</pdfrwt>
<totfact> 0.11010785E+04</totfact>
</mgrwt>
</event>
<event>
 9    1  0.8285222E-001  0.2774985E+03  0.7818608E-02  0.1097063E+00
          1   -1    0    0  501    0  0.00000000000E+00  0.00000000000E+00  0.10874013808E+04  0.10874013808E+04  0.00000000000E+00 0. -1.
         -1   -1    0    0    0  501 -0.00000000000E+00 -0.00000000000E+00 -0.17704002584E+02  0.17704002584E+02  0.00000000000E+00 0. -1.
         35    2    1    2    0    0  0.00000000000E+00  0.00000000000E+00  0.10696973783E+04  0.11051053834E+04  0.27749851788E+03 0.  0.
         25    2    3    3    0    0  0.23286675755E+02  0.24692162960E+02  0.33897751541E+03  0.36296792687E+03  0.12525169781E+03 0.  0.
         25    2    3    3    0    0 -0.23286675755E+02 -0.24692162960E+02  0.73071986284E+03  0.74213745655E+03  0.12515795733E+03 0.  0.
          5    1    4    4  502    0  0.58137223319E+02  0.18660803467E+02  0.31274111588E+03  0.31868049498E+03  0.47000000000E+01 0. -1.
         -5    1    4    4    0  502 -0.34850547564E+02  0.60313594925E+01  0.26236399533E+02  0.44287431889E+02  0.47000000000E+01 0. -1.
          5    1    5    5  503    0  0.28926420650E+01  0.48932372806E+02  0.35054644979E+03  0.35398820312E+03  0.47000000000E+01 0.  1.
         -5    1    5    5    0  503 -0.26179317820E+02 -0.73624535766E+02  0.38017341305E+03  0.38814925343E+03  0.47000000000E+01 0.  1.
<mgrwt>
<rscale>  0 0.27749852E+03</rscale>
<asrwt>0</asrwt>
<pdfrwt beam="1">  1        1 0.16729247E+00 0.27749852E+03</pdfrwt>
<pdfrwt beam="2">  1       -1 0.27236935E-02 0.27749852E+03</pdfrwt>
<totfact> 0.59955501E+03</totfact>
</mgrwt>
</event>
<event>
 9    1  0.8285222E-001  0.2770876E+03  0.7818608E-02  0.1097290E+00
          1   -1    0    0  501    0  0.00000000000E+00  0.00000000000E+00  0.89834801556E+03  0.89834801556E+03  0.00000000000E+00 0.  1.
         -1   -1    0    0    0  501 -0.00000000000E+00 -0.00000000000E+00 -0.21366308804E+02  0.21366308804E+02  0.00000000000E+00 0.  1.
         35    2    1    2    0    0 -0.71054273576E-14 -0.71054273576E-14  0.87698170676E+03  0.91971432437E+03  0.27708757543E+03 0.  0.
         25    2    3    3    0    0  0.53057060898E+02  0.28224790156E+02  0.43824290926E+03  0.45948876407E+03  0.12434382292E+03 0.  0.
         25    2    3    3    0    0 -0.53057060898E+02 -0.28224790156E+02  0.43873879750E+03  0.46022556030E+03  0.12531617386E+03 0.  0.
          5    1    4    4  502    0  0.86168090417E+02  0.42342100872E+02  0.36891243263E+03  0.38122993883E+03  0.47000000000E+01 0. -1.
         -5    1    4    4    0  502 -0.33111029519E+02 -0.14117310717E+02  0.69330476631E+02  0.78258825237E+02  0.47000000000E+01 0. -1.
          5    1    5    5  503    0  0.76955184611E+01  0.38204410307E+01 -0.51256973659E+01  0.11053485764E+02  0.47000000000E+01 0. -1.
         -5    1    5    5    0  503 -0.60752579359E+02 -0.32045231187E+02  0.44386449486E+03  0.44917207453E+03  0.47000000000E+01 0. -1.
<mgrwt>
<rscale>  0 0.27708758E+03</rscale>
<asrwt>0</asrwt>
<pdfrwt beam="1">  1        1 0.13820736E+00 0.27708758E+03</pdfrwt>
<pdfrwt beam="2">  1       -1 0.32871251E-02 0.27708758E+03</pdfrwt>
<totfact> 0.63034845E+03</totfact>
</mgrwt>
</event>
<event>
 9    1  0.8285222E-001  0.2728118E+03  0.7818608E-02  0.1099681E+00
         -1   -1    0    0    0  501 -0.00000000000E+00  0.00000000000E+00  0.29710951129E+03  0.29710951129E+03  0.00000000000E+00 0.  1.
          1   -1    0    0  501    0  0.00000000000E+00 -0.00000000000E+00 -0.62625287510E+02  0.62625287510E+02  0.00000000000E+00 0.  1.
         35    2    1    2    0    0  0.00000000000E+00 -0.35527136788E-14  0.23448422378E+03  0.35973479880E+03  0.27281179275E+03 0.  0.
         25    2    3    3    0    0  0.36805294240E+01 -0.26602342814E+02  0.17869661132E+03  0.22006589414E+03  0.12559971308E+03 0.  0.
         25    2    3    3    0    0 -0.36805294240E+01  0.26602342814E+02  0.55787612453E+02  0.13966890465E+03  0.12519550425E+03 0.  0.
          5    1    4    4  502    0  0.56438737362E+02 -0.24348011694E+02  0.14417615715E+03  0.15680245865E+03  0.47000000000E+01 0. -1.
         -5    1    4    4    0  502 -0.52758207938E+02 -0.22543311201E+01  0.34520454170E+02  0.63263435488E+02  0.47000000000E+01 0. -1.
          5    1    5    5  503    0  0.30463826358E+02 -0.38701420073E+02  0.41236031406E+02  0.64407646426E+02  0.47000000000E+01 0.  1.
         -5    1    5    5    0  503 -0.34144355782E+02  0.65303762887E+02  0.14551581047E+02  0.75261258227E+02  0.47000000000E+01 0.  1.
<mgrwt>
<rscale>  0 0.27281179E+03</rscale>
<asrwt>0</asrwt>
<pdfrwt beam="1">  1        1 0.96346598E-02 0.27281179E+03</pdfrwt>
<pdfrwt beam="2">  1       -1 0.45709155E-01 0.27281179E+03</pdfrwt>
<totfact> 0.32574584E+03</totfact>
</mgrwt>
</event>
<event>
 9    1  0.8285222E-001  0.2744298E+03  0.7818608E-02  0.1098771E+00
         -2   -1    0    0    0  501 -0.00000000000E+00  0.00000000000E+00  0.72124321133E+02  0.72124321133E+02  0.00000000000E+00 0.  1.
          2   -1    0    0  501    0  0.00000000000E+00 -0.00000000000E+00 -0.26104825658E+03  0.26104825658E+03  0.00000000000E+00 0.  1.
         35    2    1    2    0    0  0.00000000000E+00  0.00000000000E+00 -0.18892393544E+03  0.33317257771E+03  0.27442979640E+03 0.  0.
         25    2    3    3    0    0 -0.16349363371E+02  0.42390758693E+02 -0.52713567688E+02  0.14263692378E+03  0.12450820737E+03 0.  0.
         25    2    3    3    0    0  0.16349363371E+02 -0.42390758693E+02 -0.13621036775E+03  0.19053565393E+03  0.12524493215E+03 0.  0.
          5    1    4    4  502    0  0.37528574003E+01 -0.43644722261E+02 -0.18053050802E+02  0.47612481169E+02  0.47000000000E+01 0.  1.
         -5    1    4    4    0  502 -0.20102220771E+02  0.86035480953E+02 -0.34660516886E+02  0.95024442611E+02  0.47000000000E+01 0.  1.
          5    1    5    5  503    0  0.66977361162E+01 -0.78062500225E+02 -0.41550718375E+02  0.88809716855E+02  0.47000000000E+01 0.  1.
         -5    1    5    5    0  503  0.96516272546E+01  0.35671741532E+02 -0.94659649380E+02  0.10172593707E+03  0.47000000000E+01 0.  1.
<mgrwt>
<rscale>  0 0.27442980E+03</rscale>
<asrwt>0</asrwt>
<pdfrwt beam="1">  1        2 0.40161270E-01 0.27442980E+03</pdfrwt>
<pdfrwt beam="2">  1       -2 0.11096049E-01 0.27442980E+03</pdfrwt>
<totfact> 0.70861684E+03</totfact>
</mgrwt>
</event>
<event>
 9    1  0.8285222E-001  0.2752374E+03  0.7818608E-02  0.1098319E+00
          2   -1    0    0  501    0  0.00000000000E+00  0.00000000000E+00  0.14712512082E+04  0.14712512082E+04  0.00000000000E+00 0.  1.
         -2   -1    0    0    0  501 -0.00000000000E+00 -0.00000000000E+00 -0.12872654135E+02  0.12872654135E+02  0.00000000000E+00 0.  1.
         35    2    1    2    0    0 -0.35527136788E-14  0.00000000000E+00  0.14583785540E+04  0.14841238623E+04  0.27523740988E+03 0.  0.
         25    2    3    3    0    0 -0.14024939973E+02  0.39815006635E+02  0.52396364760E+03  0.54030400944E+03  0.12493432238E+03 0.  0.
         25    2    3    3    0    0  0.14024939973E+02 -0.39815006635E+02  0.93441490644E+03  0.94381985288E+03  0.12602683687E+03 0.  0.
          5    1    4    4  502    0 -0.30755586499E+02  0.62557908382E+02  0.15254325822E+03  0.16778239964E+03  0.47000000000E+01 0.  1.
         -5    1    4    4    0  502  0.16730646526E+02 -0.22742901747E+02  0.37142038938E+03  0.37252160979E+03  0.47000000000E+01 0.  1.
          5    1    5    5  503    0  0.35713781230E+02 -0.72408163234E+02  0.40848460358E+03  0.41641346956E+03  0.47000000000E+01 0. -1.
         -5    1    5    5    0  503 -0.21688841257E+02  0.32593156599E+02  0.52593030286E+03  0.52740638332E+03  0.47000000000E+01 0. -1.
<mgrwt>
<rscale>  0 0.27523741E+03</rscale>
<asrwt>0</asrwt>
<pdfrwt beam="1">  1        2 0.22634621E+00 0.27523741E+03</pdfrwt>
<pdfrwt beam="2">  1       -2 0.19804095E-02 0.27523741E+03</pdfrwt>
<totfact> 0.11089179E+04</totfact>
</mgrwt>
</event>
<event>
 9    1  0.8285222E-001  0.3033399E+03  0.7818608E-02  0.1083583E+00
         -1   -1    0    0    0  501 -0.00000000000E+00  0.00000000000E+00  0.21052304767E+02  0.21052304767E+02  0.00000000000E+00 0.  1.
          1   -1    0    0  501    0  0.00000000000E+00 -0.00000000000E+00 -0.10926964183E+04  0.10926964183E+04  0.00000000000E+00 0.  1.
         35    2    1    2    0    0  0.71054273576E-14  0.00000000000E+00 -0.10716441135E+04  0.11137487230E+04  0.30333992823E+03 0.  0.
         25    2    3    3    0    0  0.48928713349E+02  0.20853200795E+02 -0.80289005228E+03  0.81244749356E+03  0.11229255884E+03 0.  0.
         25    2    3    3    0    0 -0.48928713349E+02 -0.20853200795E+02 -0.26875406124E+03  0.30130122949E+03  0.12539860640E+03 0.  0.
          5    1    4    4  502    0  0.72598993632E+02  0.40366018442E+02 -0.41135710379E+03  0.41968653321E+03  0.47000000000E+01 0.  1.
         -5    1    4    4    0  502 -0.23670280283E+02 -0.19512817647E+02 -0.39153294849E+03  0.39276096035E+03  0.47000000000E+01 0.  1.
          5    1    5    5  503    0 -0.41549525920E+01 -0.62999199099E+02 -0.19576432301E+03  0.20574723056E+03  0.47000000000E+01 0. -1.
         -5    1    5    5    0  503 -0.44773760757E+02  0.42145998304E+02 -0.72989738223E+02  0.95553998928E+02  0.47000000000E+01 0. -1.
<mgrwt>
<rscale>  0 0.30333993E+03</rscale>
<asrwt>0</asrwt>
<pdfrwt beam="1">  1        1 0.16810714E+00 0.30333993E+03</pdfrwt>
<pdfrwt beam="2">  1       -1 0.32388161E-02 0.30333993E+03</pdfrwt>
<totfact> 0.46068967E+03</totfact>
</mgrwt>
</event>
<event>
 9    1  0.8285222E-001  0.2730027E+03  0.7818608E-02  0.1099573E+00
          1   -1    0    0  501    0  0.00000000000E+00  0.00000000000E+00  0.44899209811E+03  0.44899209811E+03  0.00000000000E+00 0.  1.
         -1   -1    0    0    0  501 -0.00000000000E+00 -0.00000000000E+00 -0.41498763903E+02  0.41498763903E+02  0.00000000000E+00 0.  1.
         35    2    1    2    0    0  0.00000000000E+00  0.35527136788E-14  0.40749333421E+03  0.49049086202E+03  0.27300268917E+03 0.  0.
         25    2    3    3    0    0 -0.45869586011E+02 -0.28483001333E+02  0.19187258070E+03  0.23501864357E+03  0.12451255082E+03 0.  0.
         25    2    3    3    0    0  0.45869586011E+02  0.28483001333E+02  0.21562075351E+03  0.25547221845E+03  0.12593031712E+03 0.  0.
          5    1    4    4  502    0  0.28371248367E+02  0.24600348140E+02  0.92871488099E+02  0.10028613147E+03  0.47000000000E+01 0. -1.
         -5    1    4    4    0  502 -0.74240834378E+02 -0.53083349473E+02  0.99001092602E+02  0.13473251210E+03  0.47000000000E+01 0. -1.
          5    1    5    5  503    0  0.36529818080E+02 -0.12842618515E+02  0.20866656573E+03  0.21228091321E+03  0.47000000000E+01 0. -1.
         -5    1    5    5    0  503  0.93397679315E+01  0.41325619848E+02  0.69541877804E+01  0.43191305243E+02  0.47000000000E+01 0. -1.
<mgrwt>
<rscale>  0 0.27300269E+03</rscale>
<asrwt>0</asrwt>
<pdfrwt beam="1">  1        1 0.69075704E-01 0.27300269E+03</pdfrwt>
<pdfrwt beam="2">  1       -1 0.63844255E-02 0.27300269E+03</pdfrwt>
<totfact> 0.62986430E+03</totfact>
</mgrwt>
</event>
<event>
 9    1  0.8285222E-001  0.2689016E+03  0.7818608E-02  0.1101910E+00
         -2   -1    0    0    0  501 -0.00000000000E+00  0.00000000000E+00  0.43815807619E+02  0.43815807619E+02  0.00000000000E+00 0. -1.
          2   -1    0    0  501    0  0.00000000000E+00 -0.00000000000E+00 -0.41256827184E+03  0.41256827184E+03  0.00000000000E+00 0. -1.
         35    2    1    2    0    0 -0.14210854715E-13 -0.88817841970E-15 -0.36875246422E+03  0.45638407946E+03  0.26890155841E+03 0.  0.
         25    2    3    3    0    0 -0.47508279216E+02  0.17969078702E+01 -0.21820907526E+03  0.25510015326E+03  0.12329080337E+03 0.  0.
         25    2    3    3    0    0  0.47508279216E+02 -0.17969078702E+01 -0.15054338896E+03  0.20128392620E+03  0.12486649476E+03 0.  0.
          5    1    4    4  502    0 -0.65023139472E+02  0.44245216515E+01 -0.22594977587E+03  0.23520836778E+03  0.47000000000E+01 0.  1.
         -5    1    4    4    0  502  0.17514860256E+02 -0.26276137814E+01  0.77407006027E+01  0.19891785485E+02  0.47000000000E+01 0.  1.
          5    1    5    5  503    0  0.18375900944E+02  0.56990111721E+02 -0.10602856177E+03  0.12185931429E+03  0.47000000000E+01 0.  1.
         -5    1    5    5    0  503  0.29132378272E+02 -0.58787019591E+02 -0.44514827191E+02  0.79424611904E+02  0.47000000000E+01 0.  1.
<mgrwt>
<rscale>  0 0.26890156E+03</rscale>
<asrwt>0</asrwt>
<pdfrwt beam="1">  1        2 0.63472043E-01 0.26890156E+03</pdfrwt>
<pdfrwt beam="2">  1       -2 0.67408933E-02 0.26890156E+03</pdfrwt>
<totfact> 0.94597690E+03</totfact>
</mgrwt>
</event>
<event>
 9    1  0.8285222E-001  0.2786254E+03  0.7818608E-02  0.1096442E+00
         -2   -1    0    0    0  501 -0.00000000000E+00  0.00000000000E+00  0.32769241116E+02  0.32769241116E+02  0.00000000000E+00 0. -1.
          2   -1    0    0  501    0  0.00000000000E+00 -0.00000000000E+00 -0.59226357478E+03  0.59226357478E+03  0.00000000000E+00 0. -1.
         35    2    1    2    0    0  0.00000000000E+00  0.71054273576E-14 -0.55949433367E+03  0.62503281590E+03  0.27862539644E+03 0.  0.
         25    2    3    3    0    0 -0.20272371552E+02  0.56078407384E+02 -0.24559800441E+03  0.28198469716E+03  0.12506491450E+03 0.  0.
         25    2    3    3    0    0  0.20272371552E+02 -0.56078407384E+02 -0.31389632925E+03  0.34304811874E+03  0.12488134139E+03 0.  0.
          5    1    4    4  502    0  0.25558524020E+01 -0.38699376144E+02 -0.50621927598E+02  0.63944066568E+02  0.47000000000E+01 0. -1.
         -5    1    4    4    0  502 -0.22828223954E+02  0.94777783528E+02 -0.19497607682E+03  0.21804063059E+03  0.47000000000E+01 0. -1.
          5    1    5    5  503    0  0.40174386542E+02  0.45685335089E+01 -0.26407124207E+02  0.48520913443E+02  0.47000000000E+01 0. -1.
         -5    1    5    5    0  503 -0.19902014989E+02 -0.60646940893E+02 -0.28748920505E+03  0.29452720529E+03  0.47000000000E+01 0. -1.
<mgrwt>
<rscale>  0 0.27862540E+03</rscale>
<asrwt>0</asrwt>
<pdfrwt beam="1">  1        2 0.91117467E-01 0.27862540E+03</pdfrwt>
<pdfrwt beam="2">  1       -2 0.50414220E-02 0.27862540E+03</pdfrwt>
<totfact> 0.98643727E+03</totfact>
</mgrwt>
</event>
<event>
 9    1  0.8285222E-001  0.2729861E+03  0.7818608E-02  0.1099583E+00
         -2   -1    0    0    0  501 -0.00000000000E+00  0.00000000000E+00  0.79890066222E+01  0.79890066222E+01  0.00000000000E+00 0.  1.
          2   -1    0    0  501    0  0.00000000000E+00 -0.00000000000E+00 -0.23319978275E+04  0.23319978275E+04  0.00000000000E+00 0.  1.
         35    2    1    2    0    0 -0.88817841970E-15  0.71054273576E-14 -0.23240088208E+04  0.23399868341E+04  0.27298605156E+03 0.  0.
         25    2    3    3    0    0  0.23769575047E+01 -0.52993165018E+01 -0.16417401989E+04  0.16465373619E+04  0.12546183008E+03 0.  0.
         25    2    3    3    0    0 -0.23769575047E+01  0.52993165018E+01 -0.68226862194E+03  0.69344947218E+03  0.12388690524E+03 0.  0.
          5    1    4    4  502    0 -0.18360720970E+02  0.32260137631E+02 -0.14276323950E+04  0.14281226060E+04  0.47000000000E+01 0. -1.
         -5    1    4    4    0  502  0.20737678474E+02 -0.37559454133E+02 -0.21410780389E+03  0.21841475589E+03  0.47000000000E+01 0. -1.
          5    1    5    5  503    0  0.37410864883E+01 -0.45375932662E+02 -0.54506242301E+03  0.54698090092E+03  0.47000000000E+01 0. -1.
         -5    1    5    5    0  503 -0.61180439930E+01  0.50675249164E+02 -0.13720619894E+03  0.14646857126E+03  0.47000000000E+01 0. -1.
<mgrwt>
<rscale>  0 0.27298605E+03</rscale>
<asrwt>0</asrwt>
<pdfrwt beam="1">  1        2 0.35876874E+00 0.27298605E+03</pdfrwt>
<pdfrwt beam="2">  1       -2 0.12290785E-02 0.27298605E+03</pdfrwt>
<totfact> 0.78121187E+03</totfact>
</mgrwt>
</event>
<event>
 9    1  0.8285222E-001  0.2758660E+03  0.7818608E-02  0.1097968E+00
          1   -1    0    0  501    0  0.00000000000E+00  0.00000000000E+00  0.95221818001E+03  0.95221818001E+03  0.00000000000E+00 0. -1.
         -1   -1    0    0    0  501 -0.00000000000E+00 -0.00000000000E+00 -0.19980206478E+02  0.19980206478E+02  0.00000000000E+00 0. -1.
         35    2    1    2    0    0  0.71054273576E-14 -0.71054273576E-14  0.93223797354E+03  0.97219838649E+03  0.27586602436E+03 0.  0.
         25    2    3    3    0    0 -0.10716669528E+02 -0.43575149648E+02  0.32866005237E+03  0.35426423326E+03  0.12438680104E+03 0.  0.
         25    2    3    3    0    0  0.10716669528E+02  0.43575149648E+02  0.60357792117E+03  0.61793415323E+03  0.12459000817E+03 0.  0.
          5    1    4    4  502    0  0.48302122622E+02 -0.82356308148E+01  0.63831616432E+02  0.80606984319E+02  0.47000000000E+01 0. -1.
         -5    1    4    4    0  502 -0.59018792150E+02 -0.35339518833E+02  0.26482843594E+03  0.27365724894E+03  0.47000000000E+01 0. -1.
          5    1    5    5  503    0 -0.44322355409E+02 -0.18012365621E+02  0.17725866289E+03  0.18366175452E+03  0.47000000000E+01 0. -1.
         -5    1    5    5    0  503  0.55039024937E+02  0.61587515269E+02  0.42631925828E+03  0.43427239871E+03  0.47000000000E+01 0. -1.
<mgrwt>
<rscale>  0 0.27586602E+03</rscale>
<asrwt>0</asrwt>
<pdfrwt beam="1">  1        1 0.14649507E+00 0.27586602E+03</pdfrwt>
<pdfrwt beam="2">  1       -1 0.30738787E-02 0.27586602E+03</pdfrwt>
<totfact> 0.63213324E+03</totfact>
</mgrwt>
</event>
<event>
 9    1  0.8285222E-001  0.2765857E+03  0.7818608E-02  0.1097568E+00
         -3   -1    0    0    0  501 -0.00000000000E+00  0.00000000000E+00  0.82595073030E+03  0.82595073030E+03  0.00000000000E+00 0.  1.
          3   -1    0    0  501    0  0.00000000000E+00 -0.00000000000E+00 -0.23155029345E+02  0.23155029345E+02  0.00000000000E+00 0.  1.
         35    2    1    2    0    0  0.00000000000E+00  0.71054273576E-14  0.80279570096E+03  0.84910575965E+03  0.27658570749E+03 0.  0.
         25    2    3    3    0    0 -0.10248461017E+02  0.33172376115E+02  0.55294203794E+03  0.56759625218E+03  0.12334978994E+03 0.  0.
         25    2    3    3    0    0  0.10248461017E+02 -0.33172376115E+02  0.24985366302E+03  0.28150950747E+03  0.12496124351E+03 0.  0.
          5    1    4    4  502    0 -0.61465092741E+02  0.18384888307E+02  0.40900283300E+03  0.41403063793E+03  0.47000000000E+01 0.  1.
         -5    1    4    4    0  502  0.51216631724E+02  0.14787487808E+02  0.14393920494E+03  0.15356561425E+03  0.47000000000E+01 0.  1.
          5    1    5    5  503    0 -0.31033929927E+02  0.32648647504E+02  0.52354605673E+02  0.69225239080E+02  0.47000000000E+01 0. -1.
         -5    1    5    5    0  503  0.41282390945E+02 -0.65821023619E+02  0.19749905734E+03  0.21228426839E+03  0.47000000000E+01 0. -1.
<mgrwt>
<rscale>  0 0.27658571E+03</rscale>
<asrwt>0</asrwt>
<pdfrwt beam="1">  1        3 0.35623128E-02 0.27658571E+03</pdfrwt>
<pdfrwt beam="2">  1       -3 0.12706932E+00 0.27658571E+03</pdfrwt>
<totfact> 0.50913012E+02</totfact>
</mgrwt>
</event>
<event>
 9    1  0.8285222E-001  0.2765436E+03  0.7818608E-02  0.1097592E+00
          1   -1    0    0  501    0  0.00000000000E+00  0.00000000000E+00  0.11614274409E+04  0.11614274409E+04  0.00000000000E+00 0.  1.
         -1   -1    0    0    0  501 -0.00000000000E+00 -0.00000000000E+00 -0.16461722470E+02  0.16461722470E+02  0.00000000000E+00 0.  1.
         35    2    1    2    0    0  0.00000000000E+00 -0.71054273576E-14  0.11449657184E+04  0.11778891634E+04  0.27654363997E+03 0.  0.
         25    2    3    3    0    0  0.48672684032E+02  0.30052002003E+02  0.48065410689E+03  0.49937078889E+03  0.12276262187E+03 0.  0.
         25    2    3    3    0    0 -0.48672684032E+02 -0.30052002003E+02  0.66431161155E+03  0.67851837449E+03  0.12571839280E+03 0.  0.
          5    1    4    4  502    0 -0.21203699170E+02 -0.31368962364E+02  0.20162570670E+03  0.20520386025E+03  0.47000000000E+01 0. -1.
         -5    1    4    4    0  502  0.69876383202E+02  0.61420964367E+02  0.27902840019E+03  0.29416692864E+03  0.47000000000E+01 0. -1.
          5    1    5    5  503    0  0.41087566065E+01  0.40360780787E+02  0.11186246317E+03  0.11908473947E+03  0.47000000000E+01 0.  1.
         -5    1    5    5    0  503 -0.52781440638E+02 -0.70412782790E+02  0.55244914838E+03  0.55943363503E+03  0.47000000000E+01 0.  1.
<mgrwt>
<rscale>  0 0.27654364E+03</rscale>
<asrwt>0</asrwt>
<pdfrwt beam="1">  1        1 0.17868108E+00 0.27654364E+03</pdfrwt>
<pdfrwt beam="2">  1       -1 0.25325736E-02 0.27654364E+03</pdfrwt>
<totfact> 0.59063628E+03</totfact>
</mgrwt>
</event>
<event>
 9    1  0.8285222E-001  0.2864836E+03  0.7818608E-02  0.1092200E+00
         -1   -1    0    0    0  501 -0.00000000000E+00  0.00000000000E+00  0.68614583928E+02  0.68614583928E+02  0.00000000000E+00 0.  1.
          1   -1    0    0  501    0  0.00000000000E+00 -0.00000000000E+00 -0.29903575409E+03  0.29903575409E+03  0.00000000000E+00 0.  1.
         35    2    1    2    0    0  0.14210854715E-13  0.71054273576E-14 -0.23042117016E+03  0.36765033802E+03  0.28648360404E+03 0.  0.
         25    2    3    3    0    0  0.59762853728E+02  0.37013204961E+02 -0.10832688704E+03  0.17946613651E+03  0.12462665714E+03 0.  0.
         25    2    3    3    0    0 -0.59762853728E+02 -0.37013204961E+02 -0.12209428312E+03  0.18818420151E+03  0.12475858167E+03 0.  0.
          5    1    4    4  502    0  0.38395150258E+01  0.71459116297E+02 -0.31635346760E+02  0.78383878076E+02  0.47000000000E+01 0. -1.
         -5    1    4    4    0  502  0.55923338703E+02 -0.34445911336E+02 -0.76691540279E+02  0.10108225843E+03  0.47000000000E+01 0. -1.
          5    1    5    5  503    0 -0.93711279556E+02 -0.54825566520E+01 -0.97862005475E+02  0.13568686178E+03  0.47000000000E+01 0.  1.
         -5    1    5    5    0  503  0.33948425827E+02 -0.31530648309E+02 -0.24232277648E+02  0.52497339732E+02  0.47000000000E+01 0.  1.
<mgrwt>
<rscale>  0 0.28648360E+03</rscale>
<asrwt>0</asrwt>
<pdfrwt beam="1">  1        1 0.46005501E-01 0.28648360E+03</pdfrwt>
<pdfrwt beam="2">  1       -1 0.10556090E-01 0.28648360E+03</pdfrwt>
<totfact> 0.49065134E+03</totfact>
</mgrwt>
</event>
<event>
 9    1  0.8285222E-001  0.2690917E+03  0.7818608E-02  0.1101801E+00
          1   -1    0    0  501    0  0.00000000000E+00  0.00000000000E+00  0.45287131450E+03  0.45287131450E+03  0.00000000000E+00 0. -1.
         -1   -1    0    0    0  501 -0.00000000000E+00 -0.00000000000E+00 -0.39972915977E+02  0.39972915977E+02  0.00000000000E+00 0. -1.
         35    2    1    2    0    0  0.00000000000E+00  0.71054273576E-14  0.41289839852E+03  0.49284423048E+03  0.26909170930E+03 0.  0.
         25    2    3    3    0    0 -0.12643850860E+02 -0.37947399459E+02  0.24590135813E+03  0.27895463897E+03  0.12549239253E+03 0.  0.
         25    2    3    3    0    0  0.12643850860E+02  0.37947399459E+02  0.16699704039E+03  0.21388959150E+03  0.12751813112E+03 0.  0.
          5    1    4    4  502    0 -0.35996333867E+02 -0.65717600242E+02  0.22415222785E+03  0.23639130755E+03  0.47000000000E+01 0.  1.
         -5    1    4    4    0  502  0.23352483007E+02  0.27770200783E+02  0.21749130282E+02  0.42563331427E+02  0.47000000000E+01 0.  1.
          5    1    5    5  503    0 -0.15853629813E+02  0.68699360829E+02  0.15449519499E+03  0.16988759528E+03  0.47000000000E+01 0.  1.
         -5    1    5    5    0  503  0.28497480673E+02 -0.30751961369E+02  0.12501845399E+02  0.44001996218E+02  0.47000000000E+01 0.  1.
<mgrwt>
<rscale>  0 0.26909171E+03</rscale>
<asrwt>0</asrwt>
<pdfrwt beam="1">  1        1 0.69672506E-01 0.26909171E+03</pdfrwt>
<pdfrwt beam="2">  1       -1 0.61496797E-02 0.26909171E+03</pdfrwt>
<totfact> 0.65879627E+03</totfact>
</mgrwt>
</event>
<event>
 9    1  0.8285222E-001  0.2764699E+03  0.7818608E-02  0.1097633E+00
          1   -1    0    0  501    0  0.00000000000E+00  0.00000000000E+00  0.18076156163E+03  0.18076156163E+03  0.00000000000E+00 0.  1.
         -1   -1    0    0    0  501 -0.00000000000E+00 -0.00000000000E+00 -0.10571328487E+03  0.10571328487E+03  0.00000000000E+00 0.  1.
         35    2    1    2    0    0  0.71054273576E-14  0.71054273576E-14  0.75048276757E+02  0.28647484649E+03  0.27646987870E+03 0.  0.
         25    2    3    3    0    0  0.33100863908E+02 -0.50388627637E+02  0.42346005739E+02  0.14483367128E+03  0.12469533732E+03 0.  0.
         25    2    3    3    0    0 -0.33100863908E+02  0.50388627637E+02  0.32702271018E+02  0.14164117521E+03  0.12392781366E+03 0.  0.
          5    1    4    4  502    0  0.88453565371E+01 -0.50654829584E+01  0.80098836748E+02  0.80881475618E+02  0.47000000000E+01 0.  1.
         -5    1    4    4    0  502  0.24255507371E+02 -0.45323144679E+02 -0.37752831008E+02  0.63952195666E+02  0.47000000000E+01 0.  1.
          5    1    5    5  503    0  0.45932835180E+02  0.94115571227E+01  0.21486050078E+02  0.51789411110E+02  0.47000000000E+01 0. -1.
         -5    1    5    5    0  503 -0.79033699088E+02  0.40977070515E+02  0.11216220940E+02  0.89851764099E+02  0.47000000000E+01 0. -1.
<mgrwt>
<rscale>  0 0.27646988E+03</rscale>
<asrwt>0</asrwt>
<pdfrwt beam="1">  1        1 0.27809471E-01 0.27646988E+03</pdfrwt>
<pdfrwt beam="2">  1       -1 0.16263582E-01 0.27646988E+03</pdfrwt>
<totfact> 0.46798398E+03</totfact>
</mgrwt>
</event>
<event>
 9    1  0.8285222E-001  0.3035423E+03  0.7818608E-02  0.1083483E+00
         -1   -1    0    0    0  501 -0.00000000000E+00  0.00000000000E+00  0.12550699699E+03  0.12550699699E+03  0.00000000000E+00 0.  1.
          1   -1    0    0  501    0  0.00000000000E+00 -0.00000000000E+00 -0.18353140683E+03  0.18353140683E+03  0.00000000000E+00 0.  1.
         35    2    1    2    0    0  0.00000000000E+00  0.00000000000E+00 -0.58024409831E+02  0.30903840382E+03  0.30354225884E+03 0.  0.
         25    2    3    3    0    0  0.25216726975E+02  0.31175141067E+02  0.47736470894E+02  0.13965407685E+03  0.12496686676E+03 0.  0.
         25    2    3    3    0    0 -0.25216726975E+02 -0.31175141067E+02 -0.10576088073E+03  0.16938432697E+03  0.12608692871E+03 0.  0.
          5    1    4    4  502    0 -0.23911239919E+02  0.41412878084E+01 -0.33007103860E+02  0.41236592541E+02  0.47000000000E+01 0.  1.
         -5    1    4    4    0  502  0.49127966894E+02  0.27033853259E+02  0.80743574754E+02  0.98417484306E+02  0.47000000000E+01 0.  1.
          5    1    5    5  503    0 -0.17351683197E+02 -0.26186916271E+02  0.23620213706E+02  0.39583329686E+02  0.47000000000E+01 0.  1.
         -5    1    5    5    0  503 -0.78650437780E+01 -0.49882247967E+01 -0.12938109443E+03  0.12980099729E+03  0.47000000000E+01 0.  1.
<mgrwt>
<rscale>  0 0.30354226E+03</rscale>
<asrwt>0</asrwt>
<pdfrwt beam="1">  1        1 0.28235601E-01 0.30354226E+03</pdfrwt>
<pdfrwt beam="2">  1       -1 0.19308769E-01 0.30354226E+03</pdfrwt>
<totfact> 0.34905655E+03</totfact>
</mgrwt>
</event>
<event>
 9    1  0.8285222E-001  0.2759357E+03  0.7818608E-02  0.1097930E+00
         -2   -1    0    0    0  501 -0.00000000000E+00  0.00000000000E+00  0.20062165757E+02  0.20062165757E+02  0.00000000000E+00 0. -1.
          2   -1    0    0  501    0  0.00000000000E+00 -0.00000000000E+00 -0.94880725258E+03  0.94880725258E+03  0.00000000000E+00 0. -1.
         35    2    1    2    0    0  0.00000000000E+00 -0.35527136788E-14 -0.92874508682E+03  0.96886941833E+03  0.27593570536E+03 0.  0.
         25    2    3    3    0    0  0.61223696235E+02 -0.10015321128E+00 -0.53380145980E+03  0.55008139680E+03  0.11788635890E+03 0.  0.
         25    2    3    3    0    0 -0.61223696235E+02  0.10015321128E+00 -0.39494362702E+03  0.41878802153E+03  0.12511829379E+03 0.  0.
          5    1    4    4  502    0  0.74190044200E+02  0.20328911631E+02 -0.18501046946E+03  0.20042053566E+03  0.47000000000E+01 0.  1.
         -5    1    4    4    0  502 -0.12966347965E+02 -0.20429064842E+02 -0.34879099034E+03  0.34966086114E+03  0.47000000000E+01 0.  1.
          5    1    5    5  503    0 -0.68811060722E+02  0.40061121704E+02 -0.34551966261E+03  0.35460651827E+03  0.47000000000E+01 0. -1.
         -5    1    5    5    0  503  0.75873644874E+01 -0.39960968493E+02 -0.49423964416E+02  0.64181503265E+02  0.47000000000E+01 0. -1.
<mgrwt>
<rscale>  0 0.27593571E+03</rscale>
<asrwt>0</asrwt>
<pdfrwt beam="1">  1        2 0.14597033E+00 0.27593571E+03</pdfrwt>
<pdfrwt beam="2">  1       -2 0.30864874E-02 0.27593571E+03</pdfrwt>
<totfact> 0.11443994E+04</totfact>
</mgrwt>
</event>
<event>
 9    1  0.8285222E-001  0.2750270E+03  0.7818608E-02  0.1098436E+00
         -1   -1    0    0    0  501 -0.00000000000E+00  0.00000000000E+00  0.81673342235E+03  0.81673342235E+03  0.00000000000E+00 0. -1.
          1   -1    0    0  501    0  0.00000000000E+00 -0.00000000000E+00 -0.23153170569E+02  0.23153170569E+02  0.00000000000E+00 0. -1.
         35    2    1    2    0    0  0.35527136788E-14  0.62172489379E-14  0.79358025178E+03  0.83988659291E+03  0.27502704039E+03 0.  0.
         25    2    3    3    0    0 -0.42302287307E+01 -0.53462461296E+01  0.56898609944E+03  0.58256011870E+03  0.12483842901E+03 0.  0.
         25    2    3    3    0    0  0.42302287307E+01  0.53462461296E+01  0.22459415234E+03  0.25732647422E+03  0.12541094006E+03 0.  0.
          5    1    4    4  502    0 -0.58027038724E+02 -0.33910732540E+01  0.42094390842E+03  0.42496411688E+03  0.47000000000E+01 0.  1.
         -5    1    4    4    0  502  0.53796809993E+02 -0.19551728756E+01  0.14804219102E+03  0.15759600182E+03  0.47000000000E+01 0.  1.
          5    1    5    5  503    0  0.12884245522E+02  0.64050557280E+02  0.12983800599E+03  0.14542515419E+03  0.47000000000E+01 0. -1.
         -5    1    5    5    0  503 -0.86540167917E+01 -0.58704311150E+02  0.94756146344E+02  0.11190132003E+03  0.47000000000E+01 0. -1.
<mgrwt>
<rscale>  0 0.27502704E+03</rscale>
<asrwt>0</asrwt>
<pdfrwt beam="1">  1        1 0.35620269E-02 0.27502704E+03</pdfrwt>
<pdfrwt beam="2">  1       -1 0.12565127E+00 0.27502704E+03</pdfrwt>
<totfact> 0.15827287E+03</totfact>
</mgrwt>
</event>
<event>
 9    1  0.8285222E-001  0.2748591E+03  0.7818608E-02  0.1098530E+00
          2   -1    0    0  501    0  0.00000000000E+00  0.00000000000E+00  0.84494193767E+02  0.84494193767E+02  0.00000000000E+00 0. -1.
         -2   -1    0    0    0  501 -0.00000000000E+00 -0.00000000000E+00 -0.22352879688E+03  0.22352879688E+03  0.00000000000E+00 0. -1.
         35    2    1    2    0    0  0.00000000000E+00 -0.71054273576E-14 -0.13903460311E+03  0.30802299065E+03  0.27485913102E+03 0.  0.
         25    2    3    3    0    0  0.36876095718E+02  0.17787911105E+02 -0.25640923712E+02  0.13400424849E+03  0.12499370155E+03 0.  0.
         25    2    3    3    0    0 -0.36876095718E+02 -0.17787911105E+02 -0.11339367940E+03  0.17401874216E+03  0.12549159285E+03 0.  0.
          5    1    4    4  502    0 -0.17240665508E+02 -0.36330651309E+02  0.19591874370E+02  0.44978754018E+02  0.47000000000E+01 0.  1.
         -5    1    4    4    0  502  0.54116761226E+02  0.54118562414E+02 -0.45232798083E+02  0.89025494471E+02  0.47000000000E+01 0.  1.
          5    1    5    5  503    0  0.22511017871E+02  0.34641603041E+02 -0.84199982726E+01  0.42423731068E+02  0.47000000000E+01 0. -1.
         -5    1    5    5    0  503 -0.59387113589E+02 -0.52429514146E+02 -0.10497368113E+03  0.13159501109E+03  0.47000000000E+01 0. -1.
<mgrwt>
<rscale>  0 0.27485913E+03</rscale>
<asrwt>0</asrwt>
<pdfrwt beam="1">  1        2 0.12999107E-01 0.27485913E+03</pdfrwt>
<pdfrwt beam="2">  1       -2 0.34389045E-01 0.27485913E+03</pdfrwt>
<totfact> 0.36599210E+03</totfact>
</mgrwt>
</event>
<event>
 9    1  0.8285222E-001  0.2823996E+03  0.7818608E-02  0.1094386E+00
         -2   -1    0    0    0  501 -0.00000000000E+00  0.00000000000E+00  0.10902909120E+03  0.10902909120E+03  0.00000000000E+00 0. -1.
          2   -1    0    0  501    0  0.00000000000E+00 -0.00000000000E+00 -0.18286293597E+03  0.18286293597E+03  0.00000000000E+00 0. -1.
         35    2    1    2    0    0  0.00000000000E+00  0.00000000000E+00 -0.73833844773E+02  0.29189202718E+03  0.28239957311E+03 0.  0.
         25    2    3    3    0    0  0.37619782645E+02  0.48424580112E+02 -0.19192698475E+02  0.13997598631E+03  0.12435726382E+03 0.  0.
         25    2    3    3    0    0 -0.37619782645E+02 -0.48424580112E+02 -0.54641146298E+02  0.15191604086E+03  0.12779921986E+03 0.  0.
          5    1    4    4  502    0  0.49946773710E+02  0.63861539700E+02  0.30143809659E+02  0.86623990427E+02  0.47000000000E+01 0. -1.
         -5    1    4    4    0  502 -0.12326991065E+02 -0.15436959588E+02 -0.49336508134E+02  0.53351995885E+02  0.47000000000E+01 0. -1.
          5    1    5    5  503    0  0.44272907170E+02 -0.26545782580E+02 -0.16929153858E+01  0.51862557250E+02  0.47000000000E+01 0.  1.
         -5    1    5    5    0  503 -0.81892689815E+02 -0.21878797532E+02 -0.52948230912E+02  0.10005348361E+03  0.47000000000E+01 0.  1.
<mgrwt>
<rscale>  0 0.28239957E+03</rscale>
<asrwt>0</asrwt>
<pdfrwt beam="1">  1        2 0.28132759E-01 0.28239957E+03</pdfrwt>
<pdfrwt beam="2">  1       -2 0.16773706E-01 0.28239957E+03</pdfrwt>
<totfact> 0.53159154E+03</totfact>
</mgrwt>
</event>
<event>
 9    1  0.8285222E-001  0.2717610E+03  0.7818608E-02  0.1100276E+00
          1   -1    0    0  501    0  0.00000000000E+00  0.00000000000E+00  0.85309998051E+03  0.85309998051E+03  0.00000000000E+00 0.  1.
         -1   -1    0    0    0  501 -0.00000000000E+00 -0.00000000000E+00 -0.21642848568E+02  0.21642848568E+02  0.00000000000E+00 0.  1.
         35    2    1    2    0    0 -0.17763568394E-14  0.71054273576E-14  0.83145713194E+03  0.87474282907E+03  0.27176102510E+03 0.  0.
         25    2    3    3    0    0 -0.22491207920E+01  0.43293605540E+02  0.51744057513E+03  0.53407551214E+03  0.12495002623E+03 0.  0.
         25    2    3    3    0    0  0.22491207920E+01 -0.43293605540E+02  0.31401655681E+03  0.34066731693E+03  0.12477350701E+03 0.  0.
          5    1    4    4  502    0 -0.54481541519E+02  0.35310763839E+02  0.39930980902E+03  0.40458064955E+03  0.47000000000E+01 0.  1.
         -5    1    4    4    0  502  0.52232420727E+02  0.79828417010E+01  0.11813076611E+03  0.12949486259E+03  0.47000000000E+01 0.  1.
          5    1    5    5  503    0 -0.15541389719E+02 -0.39077268610E+02  0.31847190173E+03  0.32127092913E+03  0.47000000000E+01 0. -1.
         -5    1    5    5    0  503  0.17790510511E+02 -0.42163369305E+01 -0.44553449171E+01  0.19396387800E+02  0.47000000000E+01 0. -1.
<mgrwt>
<rscale>  0 0.27176103E+03</rscale>
<asrwt>0</asrwt>
<pdfrwt beam="1">  1        1 0.13124612E+00 0.27176103E+03</pdfrwt>
<pdfrwt beam="2">  1       -1 0.33296697E-02 0.27176103E+03</pdfrwt>
<totfact> 0.67167066E+03</totfact>
</mgrwt>
</event>
<event>
 9    1  0.8285222E-001  0.2744180E+03  0.7818608E-02  0.1098777E+00
          2   -1    0    0  501    0  0.00000000000E+00  0.00000000000E+00  0.12276572259E+03  0.12276572259E+03  0.00000000000E+00 0. -1.
         -2   -1    0    0    0  501 -0.00000000000E+00 -0.00000000000E+00 -0.15335150557E+03  0.15335150557E+03  0.00000000000E+00 0. -1.
         35    2    1    2    0    0 -0.71054273576E-14 -0.35527136788E-14 -0.30585782985E+02  0.27611722816E+03  0.27441799060E+03 0.  0.
         25    2    3    3    0    0  0.43086210000E+02  0.94415042662E+01  0.19551806680E+02  0.13430251370E+03  0.12533686028E+03 0.  0.
         25    2    3    3    0    0 -0.43086210000E+02 -0.94415042662E+01 -0.50137589664E+02  0.14181471446E+03  0.12510824052E+03 0.  0.
          5    1    4    4  502    0  0.37360590046E+02  0.41336207761E+02  0.60163169170E+02  0.82135209778E+02  0.47000000000E+01 0. -1.
         -5    1    4    4    0  502  0.57256199538E+01 -0.31894703495E+02 -0.40611362490E+02  0.52167303919E+02  0.47000000000E+01 0. -1.
          5    1    5    5  503    0 -0.43999921073E+02  0.51476523640E+02 -0.97752162987E+01  0.68581851784E+02  0.47000000000E+01 0. -1.
         -5    1    5    5    0  503  0.91371107335E+00 -0.60918027906E+02 -0.40362373366E+02  0.73232862675E+02  0.47000000000E+01 0. -1.
<mgrwt>
<rscale>  0 0.27441799E+03</rscale>
<asrwt>0</asrwt>
<pdfrwt beam="1">  1        2 0.18887034E-01 0.27441799E+03</pdfrwt>
<pdfrwt beam="2">  1       -2 0.23592539E-01 0.27441799E+03</pdfrwt>
<totfact> 0.46447016E+03</totfact>
</mgrwt>
</event>
<event>
 9    1  0.8285222E-001  0.2744292E+03  0.7818608E-02  0.1098771E+00
         -2   -1    0    0    0  501 -0.00000000000E+00  0.00000000000E+00  0.62305946307E+02  0.62305946307E+02  0.00000000000E+00 0. -1.
          2   -1    0    0  501    0  0.00000000000E+00 -0.00000000000E+00 -0.30218381612E+03  0.30218381612E+03  0.00000000000E+00 0. -1.
         35    2    1    2    0    0 -0.71054273576E-14  0.71054273576E-14 -0.23987786981E+03  0.36448976243E+03  0.27442921581E+03 0.  0.
         25    2    3    3    0    0 -0.34272396702E+02 -0.30369348215E+02 -0.14684267961E+03  0.20209277644E+03  0.13107945396E+03 0.  0.
         25    2    3    3    0    0  0.34272396702E+02  0.30369348215E+02 -0.93035190207E+02  0.16239698598E+03  0.12498135842E+03 0.  0.
          5    1    4    4  502    0 -0.37674694937E+02 -0.69287727851E+02 -0.40665871644E+02  0.88859298815E+02  0.47000000000E+01 0. -1.
         -5    1    4    4    0  502  0.34022982343E+01  0.38918379636E+02 -0.10617680796E+03  0.11323347763E+03  0.47000000000E+01 0. -1.
          5    1    5    5  503    0  0.58831208612E+02  0.64681605882E+02 -0.45553009281E+02  0.98701509111E+02  0.47000000000E+01 0. -1.
         -5    1    5    5    0  503 -0.24558811909E+02 -0.34312257668E+02 -0.47482180926E+02  0.63695476873E+02  0.47000000000E+01 0. -1.
<mgrwt>
<rscale>  0 0.27442922E+03</rscale>
<asrwt>0</asrwt>
<pdfrwt beam="1">  1        2 0.46489819E-01 0.27442922E+03</pdfrwt>
<pdfrwt beam="2">  1       -2 0.95855299E-02 0.27442922E+03</pdfrwt>
<totfact> 0.76437536E+03</totfact>
</mgrwt>
</event>
<event>
 9    1  0.8285222E-001  0.2706895E+03  0.7818608E-02  0.1100886E+00
          2   -1    0    0  501    0  0.00000000000E+00  0.00000000000E+00  0.13591580678E+04  0.13591580678E+04  0.00000000000E+00 0. -1.
         -2   -1    0    0    0  501 -0.00000000000E+00 -0.00000000000E+00 -0.13477604462E+02  0.13477604462E+02  0.00000000000E+00 0. -1.
         35    2    1    2    0    0  0.00000000000E+00  0.71054273576E-14  0.13456804634E+04  0.13726356723E+04  0.27068945188E+03 0.  0.
         25    2    3    3    0    0 -0.23968853326E+02  0.41603279042E+02  0.77680965647E+03  0.78827006318E+03  0.12502444306E+03 0.  0.
         25    2    3    3    0    0  0.23968853326E+02 -0.41603279042E+02  0.56887080690E+03  0.58436560912E+03  0.12475508574E+03 0.  0.
          5    1    4    4  502    0  0.63143189605E+01  0.82334790253E+02  0.50338871467E+03  0.51013838943E+03  0.47000000000E+01 0. -1.
         -5    1    4    4    0  502 -0.30283172287E+02 -0.40731511211E+02  0.27342094180E+03  0.27813167375E+03  0.47000000000E+01 0. -1.
          5    1    5    5  503    0  0.11339940209E+02 -0.70675682751E+02  0.52586249157E+03  0.53073260350E+03  0.47000000000E+01 0. -1.
         -5    1    5    5    0  503  0.12628913117E+02  0.29072403709E+02  0.43008315329E+02  0.53633005615E+02  0.47000000000E+01 0. -1.
<mgrwt>
<rscale>  0 0.27068945E+03</rscale>
<asrwt>0</asrwt>
<pdfrwt beam="1">  1        2 0.20910113E+00 0.27068945E+03</pdfrwt>
<pdfrwt beam="2">  1       -2 0.20734787E-02 0.27068945E+03</pdfrwt>
<totfact> 0.11915197E+04</totfact>
</mgrwt>
</event>
<event>
 9    1  0.8285222E-001  0.2745373E+03  0.7818608E-02  0.1098710E+00
         -2   -1    0    0    0  501 -0.00000000000E+00  0.00000000000E+00  0.75925928123E+02  0.75925928123E+02  0.00000000000E+00 0.  1.
          2   -1    0    0  501    0  0.00000000000E+00 -0.00000000000E+00 -0.24817196447E+03  0.24817196447E+03  0.00000000000E+00 0.  1.
         35    2    1    2    0    0  0.14210854715E-13  0.00000000000E+00 -0.17224603635E+03  0.32409789259E+03  0.27453733252E+03 0.  0.
         25    2    3    3    0    0 -0.45738268808E+02 -0.28185002206E+01 -0.12853468730E+03  0.18512320625E+03  0.12509797150E+03 0.  0.
         25    2    3    3    0    0  0.45738268808E+02  0.28185002206E+01 -0.43711349046E+02  0.13897468634E+03  0.12370670245E+03 0.  0.
          5    1    4    4  502    0 -0.65430683692E+02 -0.21621398518E+02 -0.13928884025E+03  0.15547388932E+03  0.47000000000E+01 0.  1.
         -5    1    4    4    0  502  0.19692414884E+02  0.18802898298E+02  0.10754152952E+02  0.29649316924E+02  0.47000000000E+01 0.  1.
          5    1    5    5  503    0 -0.26724300658E+02 -0.14459504608E+02 -0.55460922537E+02  0.63413480017E+02  0.47000000000E+01 0. -1.
         -5    1    5    5    0  503  0.72462569466E+02  0.17278004829E+02  0.11749573491E+02  0.75561206328E+02  0.47000000000E+01 0. -1.
<mgrwt>
<rscale>  0 0.27453733E+03</rscale>
<asrwt>0</asrwt>
<pdfrwt beam="1">  1        2 0.38180303E-01 0.27453733E+03</pdfrwt>
<pdfrwt beam="2">  1       -2 0.11680912E-01 0.27453733E+03</pdfrwt>
<totfact> 0.68910101E+03</totfact>
</mgrwt>
</event>
<event>
 9    1  0.8285222E-001  0.2747027E+03  0.7818608E-02  0.1098618E+00
         -2   -1    0    0    0  501 -0.00000000000E+00  0.00000000000E+00  0.69127289328E+02  0.69127289328E+02  0.00000000000E+00 0. -1.
          2   -1    0    0  501    0  0.00000000000E+00 -0.00000000000E+00 -0.27290803424E+03  0.27290803424E+03  0.00000000000E+00 0. -1.
         35    2    1    2    0    0 -0.35527136788E-14  0.35527136788E-14 -0.20378074492E+03  0.34203532357E+03  0.27470269488E+03 0.  0.
         25    2    3    3    0    0 -0.95616607958E+01 -0.25693524293E+02 -0.16379876367E+03  0.20796909891E+03  0.12517798757E+03 0.  0.
         25    2    3    3    0    0  0.95616607958E+01  0.25693524293E+02 -0.39981981247E+02  0.13406622467E+03  0.12499444477E+03 0.  0.
          5    1    4    4  502    0 -0.11518645673E+02  0.41294982600E+02 -0.12064380374E+03  0.12812092791E+03  0.47000000000E+01 0. -1.
         -5    1    4    4    0  502  0.19569848775E+01 -0.66988506894E+02 -0.43154959924E+02  0.79848170998E+02  0.47000000000E+01 0. -1.
          5    1    5    5  503    0 -0.46372815239E+02 -0.24286207399E+02 -0.20585608960E+02  0.56445683265E+02  0.47000000000E+01 0. -1.
         -5    1    5    5    0  503  0.55934476035E+02  0.49979731692E+02 -0.19396372287E+02  0.77620541400E+02  0.47000000000E+01 0. -1.
<mgrwt>
<rscale>  0 0.27470269E+03</rscale>
<asrwt>0</asrwt>
<pdfrwt beam="1">  1        2 0.41985850E-01 0.27470269E+03</pdfrwt>
<pdfrwt beam="2">  1       -2 0.10634968E-01 0.27470269E+03</pdfrwt>
<totfact> 0.72302052E+03</totfact>
</mgrwt>
</event>
<event>
 9    1  0.8285222E-001  0.2758094E+03  0.7818608E-02  0.1098000E+00
         -2   -1    0    0    0  501 -0.00000000000E+00  0.00000000000E+00  0.18148265917E+02  0.18148265917E+02  0.00000000000E+00 0. -1.
          2   -1    0    0  501    0  0.00000000000E+00 -0.00000000000E+00 -0.10479073424E+04  0.10479073424E+04  0.00000000000E+00 0. -1.
         35    2    1    2    0    0 -0.71054273576E-14  0.00000000000E+00 -0.10297590765E+04  0.10660556084E+04  0.27580936247E+03 0.  0.
         25    2    3    3    0    0  0.30550796289E+02  0.48829970560E+02 -0.46705245099E+03  0.48674523448E+03  0.12435921411E+03 0.  0.
         25    2    3    3    0    0 -0.30550796289E+02 -0.48829970560E+02 -0.56270662553E+03  0.57931037388E+03  0.12507615954E+03 0.  0.
          5    1    4    4  502    0 -0.24016147453E+02  0.67432578210E+02 -0.33476813753E+03  0.34236781953E+03  0.47000000000E+01 0. -1.
         -5    1    4    4    0  502  0.54566943742E+02 -0.18602607650E+02 -0.13228431346E+03  0.14437741495E+03  0.47000000000E+01 0. -1.
          5    1    5    5  503    0  0.35049419583E+02 -0.59324086896E+02 -0.33594220633E+03  0.34296802343E+03  0.47000000000E+01 0.  1.
         -5    1    5    5    0  503 -0.65600215872E+02  0.10494116336E+02 -0.22676441920E+03  0.23634235045E+03  0.47000000000E+01 0.  1.
<mgrwt>
<rscale>  0 0.27580936E+03</rscale>
<asrwt>0</asrwt>
<pdfrwt beam="1">  1        2 0.16121656E+00 0.27580936E+03</pdfrwt>
<pdfrwt beam="2">  1       -2 0.27920402E-02 0.27580936E+03</pdfrwt>
<totfact> 0.11548891E+04</totfact>
</mgrwt>
</event>
<event>
 9    1  0.8285222E-001  0.2694430E+03  0.7818608E-02  0.1101599E+00
          2   -1    0    0  501    0  0.00000000000E+00  0.00000000000E+00  0.17532369026E+03  0.17532369026E+03  0.00000000000E+00 0.  1.
         -2   -1    0    0    0  501 -0.00000000000E+00 -0.00000000000E+00 -0.10352212275E+03  0.10352212275E+03  0.00000000000E+00 0.  1.
         35    2    1    2    0    0  0.35527136788E-14  0.00000000000E+00  0.71801567502E+02  0.27884581301E+03  0.26944298532E+03 0.  0.
         25    2    3    3    0    0  0.30368445052E+02  0.36152516990E+02  0.44867631499E+02  0.14246166420E+03  0.12670033335E+03 0.  0.
         25    2    3    3    0    0 -0.30368445052E+02 -0.36152516990E+02  0.26933936003E+02  0.13638414881E+03  0.12508378072E+03 0.  0.
          5    1    4    4  502    0  0.24215653225E+02  0.36563611383E+02 -0.38613824564E+02  0.58620926178E+02  0.47000000000E+01 0. -1.
         -5    1    4    4    0  502  0.61527918267E+01 -0.41109439256E+00  0.83481456062E+02  0.83840738022E+02  0.47000000000E+01 0. -1.
          5    1    5    5  503    0 -0.12755264889E+02 -0.82431335151E+02  0.11675061005E+02  0.84356498545E+02  0.47000000000E+01 0. -1.
         -5    1    5    5    0  503 -0.17613180163E+02  0.46278818161E+02  0.15258874998E+02  0.52027650264E+02  0.47000000000E+01 0. -1.
<mgrwt>
<rscale>  0 0.26944299E+03</rscale>
<asrwt>0</asrwt>
<pdfrwt beam="1">  1        2 0.26972875E-01 0.26944299E+03</pdfrwt>
<pdfrwt beam="2">  1       -2 0.15926480E-01 0.26944299E+03</pdfrwt>
<totfact> 0.60621292E+03</totfact>
</mgrwt>
</event>
<event>
 9    1  0.8285222E-001  0.2760017E+03  0.7818608E-02  0.1097893E+00
          3   -1    0    0  501    0  0.00000000000E+00  0.00000000000E+00  0.44993162486E+02  0.44993162486E+02  0.00000000000E+00 0. -1.
         -3   -1    0    0    0  501 -0.00000000000E+00 -0.00000000000E+00 -0.42326942270E+03  0.42326942270E+03  0.00000000000E+00 0. -1.
         35    2    1    2    0    0  0.71054273576E-14  0.71054273576E-14 -0.37827626021E+03  0.46826258519E+03  0.27600166602E+03 0.  0.
         25    2    3    3    0    0  0.40722883905E+02 -0.14587667842E+02 -0.12153182460E+03  0.17917715912E+03  0.12435158477E+03 0.  0.
         25    2    3    3    0    0 -0.40722883905E+02  0.14587667842E+02 -0.25674443562E+03  0.28908542607E+03  0.12562453987E+03 0.  0.
          5    1    4    4  502    0  0.53448295691E+02  0.29138343237E+02 -0.11848826390E+03  0.13329411855E+03  0.47000000000E+01 0.  1.
         -5    1    4    4    0  502 -0.12725411786E+02 -0.43726011079E+02 -0.30435606984E+01  0.45883040567E+02  0.47000000000E+01 0.  1.
          5    1    5    5  503    0 -0.19491749188E+02 -0.43276247418E+02 -0.19851188796E+03  0.20416126356E+03  0.47000000000E+01 0.  1.
         -5    1    5    5    0  503 -0.21231134718E+02  0.57863915260E+02 -0.58232547651E+02  0.84924162501E+02  0.47000000000E+01 0.  1.
<mgrwt>
<rscale>  0 0.27600167E+03</rscale>
<asrwt>0</asrwt>
<pdfrwt beam="1">  1        3 0.69220249E-02 0.27600167E+03</pdfrwt>
<pdfrwt beam="2">  1       -3 0.65118374E-01 0.27600167E+03</pdfrwt>
<totfact> 0.79647402E+02</totfact>
</mgrwt>
</event>
<event>
 9    1  0.8285222E-001  0.2750730E+03  0.7818608E-02  0.1098411E+00
         -1   -1    0    0    0  501 -0.00000000000E+00  0.00000000000E+00  0.13576429892E+03  0.13576429892E+03  0.00000000000E+00 0. -1.
          1   -1    0    0  501    0  0.00000000000E+00 -0.00000000000E+00 -0.13933182346E+03  0.13933182346E+03  0.00000000000E+00 0. -1.
         35    2    1    2    0    0  0.00000000000E+00  0.71054273576E-14 -0.35675245408E+01  0.27509612238E+03  0.27507298907E+03 0.  0.
         25    2    3    3    0    0  0.20900879276E+02 -0.41392962610E+02 -0.36316296658E+02  0.13767894214E+03  0.12444433935E+03 0.  0.
         25    2    3    3    0    0 -0.20900879276E+02  0.41392962610E+02  0.32748772117E+02  0.13741718024E+03  0.12514301915E+03 0.  0.
          5    1    4    4  502    0 -0.29429989280E+02 -0.12140289862E+01  0.31951459328E+02  0.43710226362E+02  0.47000000000E+01 0.  1.
         -5    1    4    4    0  502  0.50330868556E+02 -0.40178933624E+02 -0.68267755986E+02  0.93968715773E+02  0.47000000000E+01 0.  1.
          5    1    5    5  503    0  0.42232828854E+02  0.73880009513E+01  0.47388951060E+02  0.64078054540E+02  0.47000000000E+01 0. -1.
         -5    1    5    5    0  503 -0.63133708130E+02  0.34004961658E+02 -0.14640178943E+02  0.73339125704E+02  0.47000000000E+01 0. -1.
<mgrwt>
<rscale>  0 0.27507299E+03</rscale>
<asrwt>0</asrwt>
<pdfrwt beam="1">  1        1 0.21435665E-01 0.27507299E+03</pdfrwt>
<pdfrwt beam="2">  1       -1 0.20886815E-01 0.27507299E+03</pdfrwt>
<totfact> 0.43540122E+03</totfact>
</mgrwt>
</event>
<event>
 9    1  0.8285222E-001  0.2750147E+03  0.7818608E-02  0.1098443E+00
         -3   -1    0    0    0  501 -0.00000000000E+00  0.00000000000E+00  0.14362013600E+03  0.14362013600E+03  0.00000000000E+00 0. -1.
          3   -1    0    0  501    0  0.00000000000E+00 -0.00000000000E+00 -0.13165473946E+03  0.13165473946E+03  0.00000000000E+00 0. -1.
         35    2    1    2    0    0  0.71054273576E-14  0.00000000000E+00  0.11965396545E+02  0.27527487546E+03  0.27501470206E+03 0.  0.
         25    2    3    3    0    0  0.19932859185E+02  0.44468168551E+02 -0.23833620417E+02  0.13615745541E+03  0.12488424366E+03 0.  0.
         25    2    3    3    0    0 -0.19932859185E+02 -0.44468168551E+02  0.35799016962E+02  0.13911742005E+03  0.12528906599E+03 0.  0.
          5    1    4    4  502    0  0.63039862443E+02 -0.38639185983E+01 -0.31570071609E+02  0.70765200100E+02  0.47000000000E+01 0. -1.
         -5    1    4    4    0  502 -0.43107003259E+02  0.48332087149E+02  0.77364511922E+01  0.65392255315E+02  0.47000000000E+01 0. -1.
          5    1    5    5  503    0 -0.59782878528E+02  0.81171922290E+01 -0.60948122884E+01  0.60820375793E+02  0.47000000000E+01 0.  1.
         -5    1    5    5    0  503  0.39850019343E+02 -0.52585360780E+02  0.41893829251E+02  0.78297044256E+02  0.47000000000E+01 0.  1.
<mgrwt>
<rscale>  0 0.27501470E+03</rscale>
<asrwt>0</asrwt>
<pdfrwt beam="1">  1        3 0.20254575E-01 0.27501470E+03</pdfrwt>
<pdfrwt beam="2">  1       -3 0.22095406E-01 0.27501470E+03</pdfrwt>
<totfact> 0.10482967E+03</totfact>
</mgrwt>
</event>
<event>
 9    1  0.8285222E-001  0.2731442E+03  0.7818608E-02  0.1099493E+00
         -1   -1    0    0    0  501 -0.00000000000E+00  0.00000000000E+00  0.12438728173E+04  0.12438728173E+04  0.00000000000E+00 0. -1.
          1   -1    0    0  501    0  0.00000000000E+00 -0.00000000000E+00 -0.14995050501E+02  0.14995050501E+02  0.00000000000E+00 0. -1.
         35    2    1    2    0    0  0.00000000000E+00  0.00000000000E+00  0.12288777668E+04  0.12588678678E+04  0.27314417960E+03 0.  0.
         25    2    3    3    0    0  0.73237467300E+01 -0.50634107507E+02  0.70806783744E+03  0.72093303246E+03  0.12556641577E+03 0.  0.
         25    2    3    3    0    0 -0.73237467300E+01  0.50634107507E+02  0.52080992931E+03  0.53793483529E+03  0.12455301860E+03 0.  0.
          5    1    4    4  502    0  0.31859237124E+02 -0.82928299390E+02  0.37684471637E+03  0.38720297531E+03  0.47000000000E+01 0.  1.
         -5    1    4    4    0  502 -0.24535490394E+02  0.32294191883E+02  0.33122312107E+03  0.33373005716E+03  0.47000000000E+01 0.  1.
          5    1    5    5  503    0 -0.44579752765E+02  0.74422264726E+02  0.28410654772E+03  0.29709366924E+03  0.47000000000E+01 0. -1.
         -5    1    5    5    0  503  0.37256006035E+02 -0.23788157219E+02  0.23670338159E+03  0.24084116605E+03  0.47000000000E+01 0. -1.
<mgrwt>
<rscale>  0 0.27314418E+03</rscale>
<asrwt>0</asrwt>
<pdfrwt beam="1">  1        1 0.23069318E-02 0.27314418E+03</pdfrwt>
<pdfrwt beam="2">  1       -1 0.19136497E+00 0.27314418E+03</pdfrwt>
<totfact> 0.94343120E+02</totfact>
</mgrwt>
</event>
<event>
 9    1  0.8285222E-001  0.2639416E+03  0.7818608E-02  0.1104798E+00
          2   -1    0    0  501    0  0.00000000000E+00  0.00000000000E+00  0.12829010259E+04  0.12829010259E+04  0.00000000000E+00 0. -1.
         -2   -1    0    0    0  501 -0.00000000000E+00 -0.00000000000E+00 -0.13575711935E+02  0.13575711935E+02  0.00000000000E+00 0. -1.
         35    2    1    2    0    0  0.00000000000E+00  0.00000000000E+00  0.12693253140E+04  0.12964767379E+04  0.26394162058E+03 0.  0.
         25    2    3    3    0    0  0.18934610730E+02 -0.33255984946E+02  0.54796510301E+03  0.56335742272E+03  0.12506538928E+03 0.  0.
         25    2    3    3    0    0 -0.18934610730E+02  0.33255984946E+02  0.72136021097E+03  0.73311931513E+03  0.12505557257E+03 0.  0.
          5    1    4    4  502    0 -0.21030700998E+02  0.39385437293E+02  0.13986076495E+03  0.14688984522E+03  0.47000000000E+01 0.  1.
         -5    1    4    4    0  502  0.39965311728E+02 -0.72641422238E+02  0.40810433806E+03  0.41646757750E+03  0.47000000000E+01 0.  1.
          5    1    5    5  503    0  0.57427907422E+01  0.17946837551E+02  0.11338096417E+02  0.22488020232E+02  0.47000000000E+01 0. -1.
         -5    1    5    5    0  503 -0.24677401472E+02  0.15309147395E+02  0.71002211455E+03  0.71063129490E+03  0.47000000000E+01 0. -1.
<mgrwt>
<rscale>  0 0.26394162E+03</rscale>
<asrwt>0</asrwt>
<pdfrwt beam="1">  1        2 0.19736929E+00 0.26394162E+03</pdfrwt>
<pdfrwt beam="2">  1       -2 0.20885721E-02 0.26394162E+03</pdfrwt>
<totfact> 0.12976700E+04</totfact>
</mgrwt>
</event>
<event>
 9    1  0.8285222E-001  0.2767084E+03  0.7818608E-02  0.1097500E+00
         -1   -1    0    0    0  501 -0.00000000000E+00  0.00000000000E+00  0.37317673658E+02  0.37317673658E+02  0.00000000000E+00 0. -1.
          1   -1    0    0  501    0  0.00000000000E+00 -0.00000000000E+00 -0.51294423156E+03  0.51294423156E+03  0.00000000000E+00 0. -1.
         35    2    1    2    0    0  0.00000000000E+00  0.00000000000E+00 -0.47562655790E+03  0.55026190522E+03  0.27670840564E+03 0.  0.
         25    2    3    3    0    0 -0.18254158494E+02 -0.84136097143E+01 -0.34018507577E+03  0.36290701990E+03  0.12478628205E+03 0.  0.
         25    2    3    3    0    0  0.18254158494E+02  0.84136097143E+01 -0.13544148214E+03  0.18735488532E+03  0.12788062730E+03 0.  0.
          5    1    4    4  502    0  0.18574409636E+02 -0.45855120487E+02 -0.60498318620E+02  0.78293277643E+02  0.47000000000E+01 0.  1.
         -5    1    4    4    0  502 -0.36828568130E+02  0.37441510773E+02 -0.27968675715E+03  0.28461374226E+03  0.47000000000E+01 0.  1.
          5    1    5    5  503    0  0.64986306686E+01 -0.28867082049E+02 -0.14398315505E+03  0.14706726204E+03  0.47000000000E+01 0. -1.
         -5    1    5    5    0  503  0.11755527825E+02  0.37280691763E+02  0.85416729155E+01  0.40287623273E+02  0.47000000000E+01 0. -1.
<mgrwt>
<rscale>  0 0.27670841E+03</rscale>
<asrwt>0</asrwt>
<pdfrwt beam="1">  1        1 0.78914492E-01 0.27670841E+03</pdfrwt>
<pdfrwt beam="2">  1       -1 0.57411809E-02 0.27670841E+03</pdfrwt>
<totfact> 0.62053221E+03</totfact>
</mgrwt>
</event>
<event>
 9    1  0.8285222E-001  0.2730512E+03  0.7818608E-02  0.1099546E+00
         -2   -1    0    0    0  501 -0.00000000000E+00  0.00000000000E+00  0.43477878551E+02  0.43477878551E+02  0.00000000000E+00 0. -1.
          2   -1    0    0  501    0  0.00000000000E+00 -0.00000000000E+00 -0.42870633091E+03  0.42870633091E+03  0.00000000000E+00 0. -1.
         35    2    1    2    0    0 -0.71054273576E-14  0.00000000000E+00 -0.38522845236E+03  0.47218420946E+03  0.27305121710E+03 0.  0.
         25    2    3    3    0    0 -0.31894195234E+02  0.21765979552E+02 -0.25765476859E+03  0.28899408530E+03  0.12506240045E+03 0.  0.
         25    2    3    3    0    0  0.31894195234E+02 -0.21765979552E+02 -0.12757368377E+03  0.18319012416E+03  0.12566852925E+03 0.  0.
          5    1    4    4  502    0  0.35486100804E+02 -0.12428987210E+02 -0.27810867190E+02  0.47002951047E+02  0.47000000000E+01 0.  1.
         -5    1    4    4    0  502 -0.67380296038E+02  0.34194966761E+02 -0.22984390140E+03  0.24199113426E+03  0.47000000000E+01 0.  1.
          5    1    5    5  503    0  0.46922569516E+02  0.11407312973E+01 -0.14356899791E+03  0.15111974047E+03  0.47000000000E+01 0. -1.
         -5    1    5    5    0  503 -0.15028374282E+02 -0.22906710849E+02  0.15995314146E+02  0.32070383691E+02  0.47000000000E+01 0. -1.
<mgrwt>
<rscale>  0 0.27305122E+03</rscale>
<asrwt>0</asrwt>
<pdfrwt beam="1">  1        2 0.65954822E-01 0.27305122E+03</pdfrwt>
<pdfrwt beam="2">  1       -2 0.66889042E-02 0.27305122E+03</pdfrwt>
<totfact> 0.91863505E+03</totfact>
</mgrwt>
</event>
<event>
 9    1  0.8285222E-001  0.2750297E+03  0.7818608E-02  0.1098435E+00
          2   -1    0    0  501    0  0.00000000000E+00  0.00000000000E+00  0.21905974633E+04  0.21905974633E+04  0.00000000000E+00 0.  1.
         -2   -1    0    0    0  501 -0.00000000000E+00 -0.00000000000E+00 -0.86325018395E+01  0.86325018395E+01  0.00000000000E+00 0.  1.
         35    2    1    2    0    0  0.00000000000E+00  0.00000000000E+00  0.21819649614E+04  0.21992299651E+04  0.27502971935E+03 0.  0.
         25    2    3    3    0    0  0.41425682955E+02  0.30716256795E+02  0.12629847672E+04  0.12702913501E+04  0.12589684781E+03 0.  0.
         25    2    3    3    0    0 -0.41425682955E+02 -0.30716256795E+02  0.91898019421E+03  0.92893861500E+03  0.12547022535E+03 0.  0.
          5    1    4    4  502    0  0.66048875058E+02  0.63116801647E+02  0.99461823787E+03  0.99881615608E+03  0.47000000000E+01 0.  1.
         -5    1    4    4    0  502 -0.24623192104E+02 -0.32400544852E+02  0.26836652936E+03  0.27147519403E+03  0.47000000000E+01 0.  1.
          5    1    5    5  503    0 -0.50766945429E+02  0.19715759662E+02  0.17881652088E+03  0.18698511189E+03  0.47000000000E+01 0.  1.
         -5    1    5    5    0  503  0.93412624740E+01 -0.50432016458E+02  0.74016367333E+03  0.74195350311E+03  0.47000000000E+01 0.  1.
<mgrwt>
<rscale>  0 0.27502972E+03</rscale>
<asrwt>0</asrwt>
<pdfrwt beam="1">  1        2 0.33701455E+00 0.27502972E+03</pdfrwt>
<pdfrwt beam="2">  1       -2 0.13280790E-02 0.27502972E+03</pdfrwt>
<totfact> 0.83042268E+03</totfact>
</mgrwt>
</event>
<event>
 9    1  0.8285222E-001  0.2750385E+03  0.7818608E-02  0.1098430E+00
         -1   -1    0    0    0  501 -0.00000000000E+00  0.00000000000E+00  0.20500339692E+02  0.20500339692E+02  0.00000000000E+00 0. -1.
          1   -1    0    0  501    0  0.00000000000E+00 -0.00000000000E+00 -0.92249900145E+03  0.92249900145E+03  0.00000000000E+00 0. -1.
         35    2    1    2    0    0  0.00000000000E+00  0.00000000000E+00 -0.90199866175E+03  0.94299934114E+03  0.27503849109E+03 0.  0.
         25    2    3    3    0    0  0.39449230451E+02 -0.12789717388E+02 -0.57661286680E+03  0.59145208937E+03  0.12495342014E+03 0.  0.
         25    2    3    3    0    0 -0.39449230451E+02  0.12789717388E+02 -0.32538579496E+03  0.35154725177E+03  0.12645052794E+03 0.  0.
          5    1    4    4  502    0  0.58139167912E+02 -0.26484296688E+02 -0.13735874516E+03  0.15156218423E+03  0.47000000000E+01 0. -1.
         -5    1    4    4    0  502 -0.18689937461E+02  0.13694579300E+02 -0.43925412164E+03  0.43988990513E+03  0.47000000000E+01 0. -1.
          5    1    5    5  503    0  0.40664457393E+02 -0.20417479952E+02 -0.12684010460E+03  0.13483684110E+03  0.47000000000E+01 0.  1.
         -5    1    5    5    0  503 -0.80113687844E+02  0.33207197340E+02 -0.19854569035E+03  0.21671041067E+03  0.47000000000E+01 0.  1.
<mgrwt>
<rscale>  0 0.27503849E+03</rscale>
<asrwt>0</asrwt>
<pdfrwt beam="1">  1        1 0.14192292E+00 0.27503849E+03</pdfrwt>
<pdfrwt beam="2">  1       -1 0.31538985E-02 0.27503849E+03</pdfrwt>
<totfact> 0.64150171E+03</totfact>
</mgrwt>
</event>
<event>
 9    1  0.8285222E-001  0.2731750E+03  0.7818608E-02  0.1099476E+00
          2   -1    0    0  501    0  0.00000000000E+00  0.00000000000E+00  0.22138615685E+03  0.22138615685E+03  0.00000000000E+00 0.  1.
         -2   -1    0    0    0  501 -0.00000000000E+00 -0.00000000000E+00 -0.84269708618E+02  0.84269708618E+02  0.00000000000E+00 0.  1.
         35    2    1    2    0    0 -0.71054273576E-14  0.35527136788E-14  0.13711644823E+03  0.30565586547E+03  0.27317501299E+03 0.  0.
         25    2    3    3    0    0 -0.45869648108E+02  0.84984023054E+01  0.39897950257E+02  0.14086517695E+03  0.12678684547E+03 0.  0.
         25    2    3    3    0    0  0.45869648108E+02 -0.84984023054E+01  0.97218497976E+02  0.16479068851E+03  0.12461254838E+03 0.  0.
          5    1    4    4  502    0 -0.51229006733E+02 -0.52566654669E+02  0.19536623158E+02  0.76101471460E+02  0.47000000000E+01 0.  1.
         -5    1    4    4    0  502  0.53593586252E+01  0.61065056974E+02  0.20361327099E+02  0.64763705495E+02  0.47000000000E+01 0.  1.
          5    1    5    5  503    0 -0.36567304237E+02  0.24360683595E+02  0.32141812664E+02  0.54642444727E+02  0.47000000000E+01 0.  1.
         -5    1    5    5    0  503  0.82436952345E+02 -0.32859085900E+02  0.65076685312E+02  0.11014824379E+03  0.47000000000E+01 0.  1.
<mgrwt>
<rscale>  0 0.27317501E+03</rscale>
<asrwt>0</asrwt>
<pdfrwt beam="1">  1        2 0.34059409E-01 0.27317501E+03</pdfrwt>
<pdfrwt beam="2">  1       -2 0.12964571E-01 0.27317501E+03</pdfrwt>
<totfact> 0.65869967E+03</totfact>
</mgrwt>
</event>
<event>
 9    1  0.8285222E-001  0.2741092E+03  0.7818608E-02  0.1098951E+00
         -2   -1    0    0    0  501 -0.00000000000E+00  0.00000000000E+00  0.23915259444E+02  0.23915259444E+02  0.00000000000E+00 0. -1.
          2   -1    0    0  501    0  0.00000000000E+00 -0.00000000000E+00 -0.78543864172E+03  0.78543864172E+03  0.00000000000E+00 0. -1.
         35    2    1    2    0    0  0.00000000000E+00  0.00000000000E+00 -0.76152338228E+03  0.80935390117E+03  0.27410924023E+03 0.  0.
         25    2    3    3    0    0  0.35745181247E+02 -0.41240326564E+02 -0.27709501849E+03  0.30581340153E+03  0.11731029267E+03 0.  0.
         25    2    3    3    0    0 -0.35745181247E+02  0.41240326564E+02 -0.48442836379E+03  0.50354049964E+03  0.12610992274E+03 0.  0.
          5    1    4    4  502    0  0.57129588176E+02  0.12721589090E+02 -0.73614775086E+02  0.94163972862E+02  0.47000000000E+01 0. -1.
         -5    1    4    4    0  502 -0.21384406929E+02 -0.53961915653E+02 -0.20348024340E+03  0.21164942867E+03  0.47000000000E+01 0. -1.
          5    1    5    5  503    0 -0.64428479605E+02  0.19013956414E+02 -0.12268161352E+03  0.13994794682E+03  0.47000000000E+01 0. -1.
         -5    1    5    5    0  503  0.28683298358E+02  0.22226370150E+02 -0.36174675027E+03  0.36359255282E+03  0.47000000000E+01 0. -1.
<mgrwt>
<rscale>  0 0.27410924E+03</rscale>
<asrwt>0</asrwt>
<pdfrwt beam="1">  1        2 0.12083671E+00 0.27410924E+03</pdfrwt>
<pdfrwt beam="2">  1       -2 0.36792707E-02 0.27410924E+03</pdfrwt>
<totfact> 0.11282685E+04</totfact>
</mgrwt>
</event>
<event>
 9    1  0.8285222E-001  0.2740774E+03  0.7818608E-02  0.1098968E+00
          1   -1    0    0  501    0  0.00000000000E+00  0.00000000000E+00  0.23913321457E+03  0.23913321457E+03  0.00000000000E+00 0.  1.
         -1   -1    0    0    0  501 -0.00000000000E+00 -0.00000000000E+00 -0.78531984415E+02  0.78531984415E+02  0.00000000000E+00 0.  1.
         35    2    1    2    0    0  0.00000000000E+00  0.00000000000E+00  0.16060123016E+03  0.31766519899E+03  0.27407740425E+03 0.  0.
         25    2    3    3    0    0  0.50794733483E+02 -0.22037966675E+02  0.79384434528E+02  0.15817241306E+03  0.12510334482E+03 0.  0.
         25    2    3    3    0    0 -0.50794733483E+02  0.22037966675E+02  0.81216795631E+02  0.15949278593E+03  0.12560256345E+03 0.  0.
          5    1    4    4  502    0  0.91347607617E+02 -0.12616652696E+02  0.68251266440E+02  0.11482112486E+03  0.47000000000E+01 0. -1.
         -5    1    4    4    0  502 -0.40552874134E+02 -0.94213139796E+01  0.11133168089E+02  0.43351288209E+02  0.47000000000E+01 0. -1.
          5    1    5    5  503    0 -0.36350886318E+02  0.48783200215E+00  0.11265131754E+03  0.11846532935E+03  0.47000000000E+01 0. -1.
         -5    1    5    5    0  503 -0.14443847165E+02  0.21550134673E+02 -0.31434521905E+02  0.41027456572E+02  0.47000000000E+01 0. -1.
<mgrwt>
<rscale>  0 0.27407740E+03</rscale>
<asrwt>0</asrwt>
<pdfrwt beam="1">  1        1 0.36789725E-01 0.27407740E+03</pdfrwt>
<pdfrwt beam="2">  1       -1 0.12081844E-01 0.27407740E+03</pdfrwt>
<totfact> 0.52583572E+03</totfact>
</mgrwt>
</event>
<event>
 9    1  0.8285222E-001  0.2743751E+03  0.7818608E-02  0.1098801E+00
          1   -1    0    0  501    0  0.00000000000E+00  0.00000000000E+00  0.65543318676E+03  0.65543318676E+03  0.00000000000E+00 0. -1.
         -1   -1    0    0    0  501 -0.00000000000E+00 -0.00000000000E+00 -0.28714490020E+02  0.28714490020E+02  0.00000000000E+00 0. -1.
         35    2    1    2    0    0 -0.71054273576E-14  0.71054273576E-14  0.62671869674E+03  0.68414767678E+03  0.27437514246E+03 0.  0.
         25    2    3    3    0    0 -0.41259722817E+02  0.32467202006E+02  0.37246289570E+03  0.39698659259E+03  0.12693802461E+03 0.  0.
         25    2    3    3    0    0  0.41259722817E+02 -0.32467202006E+02  0.25425580104E+03  0.28716108419E+03  0.12271508455E+03 0.  0.
          5    1    4    4  502    0  0.14069644163E+01 -0.19027620465E+02  0.11642330716E+01  0.19684393008E+02  0.47000000000E+01 0. -1.
         -5    1    4    4    0  502 -0.42666687233E+02  0.51494822471E+02  0.37129866263E+03  0.37730219959E+03  0.47000000000E+01 0. -1.
          5    1    5    5  503    0  0.42877460281E+02 -0.76681874537E+02  0.15164946649E+03  0.17532323625E+03  0.47000000000E+01 0.  1.
         -5    1    5    5    0  503 -0.16177374645E+01  0.44214672532E+02  0.10260633455E+03  0.11183784794E+03  0.47000000000E+01 0.  1.
<mgrwt>
<rscale>  0 0.27437514E+03</rscale>
<asrwt>0</asrwt>
<pdfrwt beam="1">  1        1 0.10083586E+00 0.27437514E+03</pdfrwt>
<pdfrwt beam="2">  1       -1 0.44176144E-02 0.27437514E+03</pdfrwt>
<totfact> 0.65548117E+03</totfact>
</mgrwt>
</event>
<event>
 9    1  0.8285222E-001  0.2748941E+03  0.7818608E-02  0.1098511E+00
          2   -1    0    0  501    0  0.00000000000E+00  0.00000000000E+00  0.30238512380E+03  0.30238512380E+03  0.00000000000E+00 0. -1.
         -2   -1    0    0    0  501 -0.00000000000E+00 -0.00000000000E+00 -0.62475620402E+02  0.62475620402E+02  0.00000000000E+00 0. -1.
         35    2    1    2    0    0 -0.35527136788E-14  0.00000000000E+00  0.23990950340E+03  0.36486074420E+03  0.27489414842E+03 0.  0.
         25    2    3    3    0    0  0.17298201319E+02 -0.43130675223E+02  0.76025015132E+02  0.15357681687E+03  0.12508618165E+03 0.  0.
         25    2    3    3    0    0 -0.17298201319E+02  0.43130675223E+02  0.16388448826E+03  0.21128392733E+03  0.12499315797E+03 0.  0.
          5    1    4    4  502    0  0.71733266620E+01 -0.64164239325E+01 -0.34739670352E+02  0.36353291565E+02  0.47000000000E+01 0. -1.
         -5    1    4    4    0  502  0.10124874657E+02 -0.36714251291E+02  0.11076468548E+03  0.11722352531E+03  0.47000000000E+01 0. -1.
          5    1    5    5  503    0 -0.21868260557E+02  0.38611847585E+01  0.16955644307E+03  0.17106901226E+03  0.47000000000E+01 0. -1.
         -5    1    5    5    0  503  0.45700592384E+01  0.39269490465E+02 -0.56719548089E+01  0.40214915071E+02  0.47000000000E+01 0. -1.
<mgrwt>
<rscale>  0 0.27489415E+03</rscale>
<asrwt>0</asrwt>
<pdfrwt beam="1">  1        2 0.46520787E-01 0.27489415E+03</pdfrwt>
<pdfrwt beam="2">  1       -2 0.96116341E-02 0.27489415E+03</pdfrwt>
<totfact> 0.76059402E+03</totfact>
</mgrwt>
</event>
<event>
 9    1  0.8285222E-001  0.2744571E+03  0.7818608E-02  0.1098755E+00
         -3   -1    0    0    0  501 -0.00000000000E+00  0.00000000000E+00  0.22517364464E+03  0.22517364464E+03  0.00000000000E+00 0. -1.
          3   -1    0    0  501    0  0.00000000000E+00 -0.00000000000E+00 -0.83631791335E+02  0.83631791335E+02  0.00000000000E+00 0. -1.
         35    2    1    2    0    0  0.88817841970E-15  0.00000000000E+00  0.14154185330E+03  0.30880543597E+03  0.27445710239E+03 0.  0.
         25    2    3    3    0    0 -0.58890032301E+01 -0.34883151889E+02  0.22434963901E+02  0.13241362435E+03  0.12561260153E+03 0.  0.
         25    2    3    3    0    0  0.58890032301E+01  0.34883151889E+02  0.11910688940E+03  0.17639181162E+03  0.12520425496E+03 0.  0.
          5    1    4    4  502    0  0.21965948008E+02  0.61807510899E+01  0.63623527838E+02  0.67755057748E+02  0.47000000000E+01 0. -1.
         -5    1    4    4    0  502 -0.27854951238E+02 -0.41063902978E+02 -0.41188563936E+02  0.64658566605E+02  0.47000000000E+01 0. -1.
          5    1    5    5  503    0  0.67513013313E+01  0.22369549771E+02 -0.23314941094E+02  0.33341465247E+02  0.47000000000E+01 0.  1.
         -5    1    5    5    0  503 -0.86229810123E+00  0.12513602118E+02  0.14242183050E+03  0.14305034637E+03  0.47000000000E+01 0.  1.
<mgrwt>
<rscale>  0 0.27445710E+03</rscale>
<asrwt>0</asrwt>
<pdfrwt beam="1">  1        3 0.12866430E-01 0.27445710E+03</pdfrwt>
<pdfrwt beam="2">  1       -3 0.34642099E-01 0.27445710E+03</pdfrwt>
<totfact> 0.10049155E+03</totfact>
</mgrwt>
</event>
<event>
 9    1  0.8285222E-001  0.2732674E+03  0.7818608E-02  0.1099424E+00
         -1   -1    0    0    0  501 -0.00000000000E+00  0.00000000000E+00  0.10966313352E+03  0.10966313352E+03  0.00000000000E+00 0. -1.
          1   -1    0    0  501    0  0.00000000000E+00 -0.00000000000E+00 -0.17023736231E+03  0.17023736231E+03  0.00000000000E+00 0. -1.
         35    2    1    2    0    0  0.00000000000E+00  0.00000000000E+00 -0.60574228784E+02  0.27990049583E+03  0.27326736061E+03 0.  0.
         25    2    3    3    0    0  0.67983349408E+01  0.34453364248E+02  0.11643396748E+02  0.13044087530E+03  0.12508397817E+03 0.  0.
         25    2    3    3    0    0 -0.67983349408E+01 -0.34453364248E+02 -0.72217625531E+02  0.14945962054E+03  0.12605372294E+03 0.  0.
          5    1    4    4  502    0  0.16294369898E+02  0.40699274057E+02  0.63410400046E+02  0.77232805421E+02  0.47000000000E+01 0.  1.
         -5    1    4    4    0  502 -0.94960349572E+01 -0.62459098086E+01 -0.51767003299E+02  0.53208069875E+02  0.47000000000E+01 0.  1.
          5    1    5    5  503    0 -0.35085490785E+02 -0.12173888833E+02  0.25446064724E+02  0.45263533256E+02  0.47000000000E+01 0. -1.
         -5    1    5    5    0  503  0.28287155844E+02 -0.22279475416E+02 -0.97663690255E+02  0.10419608728E+03  0.47000000000E+01 0. -1.
<mgrwt>
<rscale>  0 0.27326736E+03</rscale>
<asrwt>0</asrwt>
<pdfrwt beam="1">  1        1 0.26190363E-01 0.27326736E+03</pdfrwt>
<pdfrwt beam="2">  1       -1 0.16871251E-01 0.27326736E+03</pdfrwt>
<totfact> 0.47602086E+03</totfact>
</mgrwt>
</event>
<event>
 9    1  0.8285222E-001  0.2771357E+03  0.7818608E-02  0.1097264E+00
          2   -1    0    0  501    0  0.00000000000E+00  0.00000000000E+00  0.22252953526E+04  0.22252953526E+04  0.00000000000E+00 0.  1.
         -2   -1    0    0    0  501 -0.00000000000E+00 -0.00000000000E+00 -0.86285412863E+01  0.86285412863E+01  0.00000000000E+00 0.  1.
         35    2    1    2    0    0  0.00000000000E+00  0.00000000000E+00  0.22166668113E+04  0.22339238939E+04  0.27713572721E+03 0.  0.
         25    2    3    3    0    0  0.80402717082E+01 -0.51841102813E+02  0.13391632608E+04  0.13459756897E+04  0.12466022664E+03 0.  0.
         25    2    3    3    0    0 -0.80402717082E+01  0.51841102813E+02  0.87750355050E+03  0.88794820423E+03  0.12524929683E+03 0.  0.
          5    1    4    4  502    0 -0.39383892205E+02 -0.28080776775E+01  0.16127526483E+03  0.16610471791E+03  0.47000000000E+01 0. -1.
         -5    1    4    4    0  502  0.47424163914E+02 -0.49033025136E+02  0.11778879960E+04  0.11798709717E+04  0.47000000000E+01 0. -1.
          5    1    5    5  503    0 -0.63263468088E+02  0.36818524694E+02  0.36951410742E+03  0.37672355346E+03  0.47000000000E+01 0. -1.
         -5    1    5    5    0  503  0.55223196380E+02  0.15022578120E+02  0.50798944308E+03  0.51122465077E+03  0.47000000000E+01 0. -1.
<mgrwt>
<rscale>  0 0.27713573E+03</rscale>
<asrwt>0</asrwt>
<pdfrwt beam="1">  1        2 0.34235267E+00 0.27713573E+03</pdfrwt>
<pdfrwt beam="2">  1       -2 0.13274697E-02 0.27713573E+03</pdfrwt>
<totfact> 0.79639668E+03</totfact>
</mgrwt>
</event>
<event>
 9    1  0.8285222E-001  0.2718072E+03  0.7818608E-02  0.1100250E+00
         -2   -1    0    0    0  501 -0.00000000000E+00  0.00000000000E+00  0.10152801695E+03  0.10152801695E+03  0.00000000000E+00 0.  1.
          2   -1    0    0  501    0  0.00000000000E+00 -0.00000000000E+00 -0.18191816834E+03  0.18191816834E+03  0.00000000000E+00 0.  1.
         35    2    1    2    0    0  0.00000000000E+00  0.00000000000E+00 -0.80390151383E+02  0.28344618529E+03  0.27180721756E+03 0.  0.
         25    2    3    3    0    0 -0.43347288326E+02 -0.29180327683E+02 -0.26030546295E+02  0.13723385583E+03  0.12419767677E+03 0.  0.
         25    2    3    3    0    0  0.43347288326E+02  0.29180327683E+02 -0.54359605088E+02  0.14621232946E+03  0.12527010694E+03 0.  0.
          5    1    4    4  502    0 -0.29907354453E+02  0.41633107974E+02 -0.38046119835E+02  0.64010645712E+02  0.47000000000E+01 0.  1.
         -5    1    4    4    0  502 -0.13439933873E+02 -0.70813435657E+02  0.12015573540E+02  0.73223210115E+02  0.47000000000E+01 0.  1.
          5    1    5    5  503    0 -0.42467716026E+02  0.11824869000E+01 -0.31153905873E+02  0.52891975109E+02  0.47000000000E+01 0.  1.
         -5    1    5    5    0  503  0.85815004352E+02  0.27997840783E+02 -0.23205699216E+02  0.93320354353E+02  0.47000000000E+01 0.  1.
<mgrwt>
<rscale>  0 0.27180722E+03</rscale>
<asrwt>0</asrwt>
<pdfrwt beam="1">  1        2 0.27987410E-01 0.27180722E+03</pdfrwt>
<pdfrwt beam="2">  1       -2 0.15619695E-01 0.27180722E+03</pdfrwt>
<totfact> 0.60126034E+03</totfact>
</mgrwt>
</event>
<event>
 9    1  0.8285222E-001  0.2753682E+03  0.7818608E-02  0.1098246E+00
         -2   -1    0    0    0  501 -0.00000000000E+00  0.00000000000E+00  0.89017948983E+01  0.89017948983E+01  0.00000000000E+00 0. -1.
          2   -1    0    0  501    0  0.00000000000E+00 -0.00000000000E+00 -0.21295608124E+04  0.21295608124E+04  0.00000000000E+00 0. -1.
         35    2    1    2    0    0 -0.71054273576E-14  0.71054273576E-14 -0.21206590175E+04  0.21384626073E+04  0.27536821585E+03 0.  0.
         25    2    3    3    0    0 -0.29078204774E+02  0.40435487368E+02 -0.84103950833E+03  0.85173543851E+03  0.12500092803E+03 0.  0.
         25    2    3    3    0    0  0.29078204774E+02 -0.40435487368E+02 -0.12796195091E+04  0.12867271688E+04  0.12553942813E+03 0.  0.
          5    1    4    4  502    0  0.13380200568E+02  0.32459334586E+02 -0.75020904571E+03  0.75104483251E+03  0.47000000000E+01 0.  1.
         -5    1    4    4    0  502 -0.42458405342E+02  0.79761527824E+01 -0.90830462617E+02  0.10069060600E+03  0.47000000000E+01 0.  1.
          5    1    5    5  503    0 -0.26482964441E+02 -0.65314720491E+01 -0.96569279678E+03  0.96608937231E+03  0.47000000000E+01 0. -1.
         -5    1    5    5    0  503  0.55561169215E+02 -0.33904015319E+02 -0.31392671235E+03  0.32063779644E+03  0.47000000000E+01 0. -1.
<mgrwt>
<rscale>  0 0.27536822E+03</rscale>
<asrwt>0</asrwt>
<pdfrwt beam="1">  1        2 0.32762486E+00 0.27536822E+03</pdfrwt>
<pdfrwt beam="2">  1       -2 0.13695064E-02 0.27536822E+03</pdfrwt>
<totfact> 0.85546813E+03</totfact>
</mgrwt>
</event>
<event>
 9    1  0.8285222E-001  0.2773677E+03  0.7818608E-02  0.1097135E+00
          4   -1    0    0  501    0  0.00000000000E+00  0.00000000000E+00  0.28581346943E+02  0.28581346943E+02  0.00000000000E+00 0.  1.
         -4   -1    0    0    0  501 -0.00000000000E+00 -0.00000000000E+00 -0.67292852980E+03  0.67292852980E+03  0.00000000000E+00 0.  1.
         35    2    1    2    0    0  0.14210854715E-13  0.17763568394E-14 -0.64434718286E+03  0.70150987675E+03  0.27736765333E+03 0.  0.
         25    2    3    3    0    0  0.55499464056E+02 -0.15370260745E+02 -0.35355534098E+03  0.37970599169E+03  0.12593182904E+03 0.  0.
         25    2    3    3    0    0 -0.55499464056E+02  0.15370260745E+02 -0.29079184188E+03  0.32180388505E+03  0.12522543555E+03 0.  0.
          5    1    4    4  502    0  0.92896072912E+02 -0.12705347312E+02 -0.29863400651E+03  0.31304227519E+03  0.47000000000E+01 0.  1.
         -5    1    4    4    0  502 -0.37396608856E+02 -0.26649134329E+01 -0.54921334473E+02  0.66663716502E+02  0.47000000000E+01 0.  1.
          5    1    5    5  503    0 -0.16798594442E+02  0.52560481695E+02 -0.24473448997E+03  0.25092201496E+03  0.47000000000E+01 0. -1.
         -5    1    5    5    0  503 -0.38700869614E+02 -0.37190220950E+02 -0.46057351909E+02  0.70881870095E+02  0.47000000000E+01 0. -1.
<mgrwt>
<rscale>  0 0.27736765E+03</rscale>
<asrwt>0</asrwt>
<pdfrwt beam="1">  1        4 0.43971307E-02 0.27736765E+03</pdfrwt>
<pdfrwt beam="2">  1       -4 0.10352746E+00 0.27736765E+03</pdfrwt>
<totfact> 0.43346430E+02</totfact>
</mgrwt>
</event>
<event>
 9    1  0.8285222E-001  0.2710355E+03  0.7818608E-02  0.1100688E+00
         -1   -1    0    0    0  501 -0.00000000000E+00  0.00000000000E+00  0.37280471988E+02  0.37280471988E+02  0.00000000000E+00 0.  1.
          1   -1    0    0  501    0  0.00000000000E+00 -0.00000000000E+00 -0.49261868795E+03  0.49261868795E+03  0.00000000000E+00 0.  1.
         35    2    1    2    0    0 -0.35527136788E-14 -0.71054273576E-14 -0.45533821596E+03  0.52989915994E+03  0.27103547515E+03 0.  0.
         25    2    3    3    0    0 -0.45321491481E+00 -0.57442525648E+02 -0.23900153778E+03  0.27514997354E+03  0.12363625570E+03 0.  0.
         25    2    3    3    0    0  0.45321491481E+00  0.57442525648E+02 -0.21633667819E+03  0.25474918640E+03  0.12163774285E+03 0.  0.
          5    1    4    4  502    0  0.27841946421E+02  0.31829823342E+02 -0.72796230619E+02  0.84318994461E+02  0.47000000000E+01 0.  1.
         -5    1    4    4    0  502 -0.28295161336E+02 -0.89272348990E+02 -0.16620530716E+03  0.19083097908E+03  0.47000000000E+01 0.  1.
          5    1    5    5  503    0 -0.30250992326E+02  0.76708024636E+02 -0.85391508642E+02  0.11879833050E+03  0.47000000000E+01 0.  1.
         -5    1    5    5    0  503  0.30704207241E+02 -0.19265498988E+02 -0.13094516955E+03  0.13595085590E+03  0.47000000000E+01 0.  1.
<mgrwt>
<rscale>  0 0.27103548E+03</rscale>
<asrwt>0</asrwt>
<pdfrwt beam="1">  1        1 0.75787493E-01 0.27103548E+03</pdfrwt>
<pdfrwt beam="2">  1       -1 0.57354570E-02 0.27103548E+03</pdfrwt>
<totfact> 0.65537723E+03</totfact>
</mgrwt>
</event>
<event>
 9    1  0.8285222E-001  0.2805777E+03  0.7818608E-02  0.1095374E+00
          2   -1    0    0  501    0  0.00000000000E+00  0.00000000000E+00  0.14596721648E+04  0.14596721648E+04  0.00000000000E+00 0. -1.
         -2   -1    0    0    0  501 -0.00000000000E+00 -0.00000000000E+00 -0.13483139086E+02  0.13483139086E+02  0.00000000000E+00 0. -1.
         35    2    1    2    0    0  0.71054273576E-14 -0.71054273576E-14  0.14461890257E+04  0.14731553039E+04  0.28057770986E+03 0.  0.
         25    2    3    3    0    0 -0.16404834595E+02  0.61407599020E+02  0.75443269407E+03  0.76741078533E+03  0.12534197915E+03 0.  0.
         25    2    3    3    0    0  0.16404834595E+02 -0.61407599020E+02  0.69175633163E+03  0.70574451855E+03  0.12453309316E+03 0.  0.
          5    1    4    4  502    0  0.19964574888E+02 -0.14888496832E+02  0.36105728280E+02  0.44113095595E+02  0.47000000000E+01 0.  1.
         -5    1    4    4    0  502 -0.36369409483E+02  0.76296095852E+02  0.71832696580E+03  0.72329768974E+03  0.47000000000E+01 0.  1.
          5    1    5    5  503    0  0.17130062442E+02 -0.48085785261E+02  0.68952088860E+03  0.69142376847E+03  0.47000000000E+01 0. -1.
         -5    1    5    5    0  503 -0.72522784705E+00 -0.13321813759E+02  0.22354430281E+01  0.14320750078E+02  0.47000000000E+01 0. -1.
<mgrwt>
<rscale>  0 0.28057771E+03</rscale>
<asrwt>0</asrwt>
<pdfrwt beam="1">  1        2 0.22456482E+00 0.28057771E+03</pdfrwt>
<pdfrwt beam="2">  1       -2 0.20743302E-02 0.28057771E+03</pdfrwt>
<totfact> 0.10511784E+04</totfact>
</mgrwt>
</event>
<event>
 9    1  0.8285222E-001  0.2761191E+03  0.7818608E-02  0.1097828E+00
          2   -1    0    0  501    0  0.00000000000E+00  0.00000000000E+00  0.11815588670E+02  0.11815588670E+02  0.00000000000E+00 0.  1.
         -2   -1    0    0    0  501 -0.00000000000E+00 -0.00000000000E+00 -0.16131598771E+04  0.16131598771E+04  0.00000000000E+00 0.  1.
         35    2    1    2    0    0 -0.71054273576E-14  0.00000000000E+00 -0.16013442884E+04  0.16249754657E+04  0.27611905814E+03 0.  0.
         25    2    3    3    0    0  0.23520218972E+02  0.50840758503E+02 -0.67212059830E+03  0.68581707097E+03  0.12434215997E+03 0.  0.
         25    2    3    3    0    0 -0.23520218972E+02 -0.50840758503E+02 -0.92922369011E+03  0.93915839478E+03  0.12419275665E+03 0.  0.
          5    1    4    4  502    0 -0.40251218378E+02  0.11764079511E+02 -0.43723733244E+03  0.43926885734E+03  0.47000000000E+01 0.  1.
         -5    1    4    4    0  502  0.63771437350E+02  0.39076678992E+02 -0.23488326586E+03  0.24654821363E+03  0.47000000000E+01 0.  1.
          5    1    5    5  503    0  0.49870985217E+02 -0.16762037403E+02 -0.45524811165E+03  0.45830231750E+03  0.47000000000E+01 0.  1.
         -5    1    5    5    0  503 -0.73391204189E+02 -0.34078721100E+02 -0.47397557845E+03  0.48085607728E+03  0.47000000000E+01 0.  1.
<mgrwt>
<rscale>  0 0.27611906E+03</rscale>
<asrwt>0</asrwt>
<pdfrwt beam="1">  1        2 0.18177821E-02 0.27611906E+03</pdfrwt>
<pdfrwt beam="2">  1       -2 0.24817855E+00 0.27611906E+03</pdfrwt>
<totfact> 0.45976716E+02</totfact>
</mgrwt>
</event>
<event>
 9    1  0.8285222E-001  0.2695630E+03  0.7818608E-02  0.1101530E+00
         -1   -1    0    0    0  501 -0.00000000000E+00  0.00000000000E+00  0.81191538783E+02  0.81191538783E+02  0.00000000000E+00 0. -1.
          1   -1    0    0  501    0  0.00000000000E+00 -0.00000000000E+00 -0.22374313759E+03  0.22374313759E+03  0.00000000000E+00 0. -1.
         35    2    1    2    0    0  0.00000000000E+00  0.00000000000E+00 -0.14255159880E+03  0.30493467637E+03  0.26956297693E+03 0.  0.
         25    2    3    3    0    0  0.36068184643E+00 -0.23676835163E+02 -0.12289524230E+03  0.17697925607E+03  0.12513070720E+03 0.  0.
         25    2    3    3    0    0 -0.36068184643E+00  0.23676835163E+02 -0.19656356501E+02  0.12795542030E+03  0.12419941473E+03 0.  0.
          5    1    4    4  502    0 -0.35139437546E+02  0.32436032253E+02 -0.91568159581E+02  0.10341031916E+03  0.47000000000E+01 0.  1.
         -5    1    4    4    0  502  0.35500119393E+02 -0.56112867416E+02 -0.31327082721E+02  0.73568936912E+02  0.47000000000E+01 0.  1.
          5    1    5    5  503    0  0.49710301664E+02  0.48506638107E+02 -0.17727261608E+02  0.71835602845E+02  0.47000000000E+01 0. -1.
         -5    1    5    5    0  503 -0.50070983510E+02 -0.24829802944E+02 -0.19290948933E+01  0.56119817454E+02  0.47000000000E+01 0. -1.
<mgrwt>
<rscale>  0 0.26956298E+03</rscale>
<asrwt>0</asrwt>
<pdfrwt beam="1">  1        1 0.34422021E-01 0.26956298E+03</pdfrwt>
<pdfrwt beam="2">  1       -1 0.12491006E-01 0.26956298E+03</pdfrwt>
<totfact> 0.54234334E+03</totfact>
</mgrwt>
</event>
<event>
 9    1  0.8285222E-001  0.2620221E+03  0.7818608E-02  0.1105934E+00
         -2   -1    0    0    0  501 -0.00000000000E+00  0.00000000000E+00  0.10884033100E+03  0.10884033100E+03  0.00000000000E+00 0. -1.
          2   -1    0    0  501    0  0.00000000000E+00 -0.00000000000E+00 -0.15769792672E+03  0.15769792672E+03  0.00000000000E+00 0. -1.
         35    2    1    2    0    0  0.00000000000E+00 -0.71054273576E-14 -0.48857595722E+02  0.26653825772E+03  0.26202209481E+03 0.  0.
         25    2    3    3    0    0  0.38132098425E+02 -0.27777115674E+01 -0.20520324611E+02  0.13285910890E+03  0.12557343064E+03 0.  0.
         25    2    3    3    0    0 -0.38132098425E+02  0.27777115674E+01 -0.28337271111E+02  0.13367914882E+03  0.12492134039E+03 0.  0.
          5    1    4    4  502    0  0.59098927062E+02 -0.47220609319E+02 -0.31846689891E+02  0.82211743574E+02  0.47000000000E+01 0.  1.
         -5    1    4    4    0  502 -0.20966828637E+02  0.44442897752E+02  0.11326365280E+02  0.50647365323E+02  0.47000000000E+01 0.  1.
          5    1    5    5  503    0 -0.31752306902E+02 -0.58445089207E+02 -0.24120703079E+01  0.66722901085E+02  0.47000000000E+01 0.  1.
         -5    1    5    5    0  503 -0.63797915235E+01  0.61222800775E+02 -0.25925200803E+02  0.66956247739E+02  0.47000000000E+01 0.  1.
<mgrwt>
<rscale>  0 0.26202209E+03</rscale>
<asrwt>0</asrwt>
<pdfrwt beam="1">  1        2 0.24261219E-01 0.26202209E+03</pdfrwt>
<pdfrwt beam="2">  1       -2 0.16744666E-01 0.26202209E+03</pdfrwt>
<totfact> 0.62684633E+03</totfact>
</mgrwt>
</event>
<event>
 9    1  0.8285222E-001  0.2762308E+03  0.7818608E-02  0.1097766E+00
          1   -1    0    0  501    0  0.00000000000E+00  0.00000000000E+00  0.23255490628E+02  0.23255490628E+02  0.00000000000E+00 0. -1.
         -1   -1    0    0    0  501 -0.00000000000E+00 -0.00000000000E+00 -0.82027378102E+03  0.82027378102E+03  0.00000000000E+00 0. -1.
         35    2    1    2    0    0  0.71054273576E-14  0.00000000000E+00 -0.79701829040E+03  0.84352927165E+03  0.27623083989E+03 0.  0.
         25    2    3    3    0    0 -0.53861496291E+02 -0.21448934104E+02 -0.36205896944E+03  0.38748140997E+03  0.12527580837E+03 0.  0.
         25    2    3    3    0    0  0.53861496291E+02  0.21448934104E+02 -0.43495932096E+03  0.45604786168E+03  0.12421321871E+03 0.  0.
          5    1    4    4  502    0 -0.38130734515E+02 -0.69812471523E+02 -0.27731184007E+03  0.28853367349E+03  0.47000000000E+01 0.  1.
         -5    1    4    4    0  502 -0.15730761776E+02  0.48363537419E+02 -0.84747129366E+02  0.98947736475E+02  0.47000000000E+01 0.  1.
          5    1    5    5  503    0 -0.18496748898E+02 -0.10966935832E+02 -0.10803677187E+02  0.24519641965E+02  0.47000000000E+01 0.  1.
         -5    1    5    5    0  503  0.72358245190E+02  0.32415869936E+02 -0.42415564377E+03  0.43152821972E+03  0.47000000000E+01 0.  1.
<mgrwt>
<rscale>  0 0.27623084E+03</rscale>
<asrwt>0</asrwt>
<pdfrwt beam="1">  1        1 0.35777681E-02 0.27623084E+03</pdfrwt>
<pdfrwt beam="2">  1       -1 0.12619595E+00 0.27623084E+03</pdfrwt>
<totfact> 0.15566545E+03</totfact>
</mgrwt>
</event>
<event>
 9    1  0.8285222E-001  0.2734929E+03  0.7818608E-02  0.1099297E+00
          3   -1    0    0  501    0  0.00000000000E+00  0.00000000000E+00  0.14429840562E+04  0.14429840562E+04  0.00000000000E+00 0. -1.
         -3   -1    0    0    0  501 -0.00000000000E+00 -0.00000000000E+00 -0.12958970904E+02  0.12958970904E+02  0.00000000000E+00 0. -1.
         35    2    1    2    0    0  0.00000000000E+00  0.00000000000E+00  0.14300250853E+04  0.14559430271E+04  0.27349287668E+03 0.  0.
         25    2    3    3    0    0  0.14596256706E+02  0.39916807609E+02  0.90995757820E+03  0.91945258569E+03  0.12475520417E+03 0.  0.
         25    2    3    3    0    0 -0.14596256706E+02 -0.39916807609E+02  0.52006750707E+03  0.53649044138E+03  0.12468111144E+03 0.  0.
          5    1    4    4  502    0 -0.40765232095E+02  0.59558280315E+02  0.54238603172E+03  0.54718707066E+03  0.47000000000E+01 0. -1.
         -5    1    4    4    0  502  0.55361488800E+02 -0.19641472706E+02  0.36757154648E+03  0.37226551502E+03  0.47000000000E+01 0. -1.
          5    1    5    5  503    0 -0.49383113355E+02  0.25614504904E+02  0.26462520926E+03  0.27045033948E+03  0.47000000000E+01 0.  1.
         -5    1    5    5    0  503  0.34786856649E+02 -0.65531312513E+02  0.25544229780E+03  0.26604010191E+03  0.47000000000E+01 0.  1.
<mgrwt>
<rscale>  0 0.27349288E+03</rscale>
<asrwt>0</asrwt>
<pdfrwt beam="1">  1        3 0.22199742E+00 0.27349288E+03</pdfrwt>
<pdfrwt beam="2">  1       -3 0.19936890E-02 0.27349288E+03</pdfrwt>
<totfact> 0.28830046E+02</totfact>
</mgrwt>
</event>
<event>
 9    1  0.8285222E-001  0.3303996E+03  0.7818608E-02  0.1070960E+00
          2   -1    0    0  501    0  0.00000000000E+00  0.00000000000E+00  0.17815643112E+04  0.17815643112E+04  0.00000000000E+00 0.  1.
         -2   -1    0    0    0  501 -0.00000000000E+00 -0.00000000000E+00 -0.15318548370E+02  0.15318548370E+02  0.00000000000E+00 0.  1.
         35    2    1    2    0    0  0.00000000000E+00  0.00000000000E+00  0.17662457628E+04  0.17968828596E+04  0.33039963121E+03 0.  0.
         25    2    3    3    0    0  0.54258446256E+02 -0.62409913516E+02  0.12646103755E+04  0.12734885582E+04  0.12527860922E+03 0.  0.
         25    2    3    3    0    0 -0.54258446256E+02  0.62409913516E+02  0.50163538735E+03  0.52339430132E+03  0.12435657006E+03 0.  0.
          5    1    4    4  502    0  0.40401771758E+02  0.33735594964E+02  0.45409649220E+03  0.45716092108E+03  0.47000000000E+01 0.  1.
         -5    1    4    4    0  502  0.13856674498E+02 -0.96145508479E+02  0.81051388327E+03  0.81632763717E+03  0.47000000000E+01 0.  1.
          5    1    5    5  503    0 -0.32400807357E+02  0.96515238533E+02  0.27848890150E+03  0.29655212332E+03  0.47000000000E+01 0. -1.
         -5    1    5    5    0  503 -0.21857638899E+02 -0.34105325017E+02  0.22314648585E+03  0.22684217800E+03  0.47000000000E+01 0. -1.
<mgrwt>
<rscale>  0 0.33039963E+03</rscale>
<asrwt>0</asrwt>
<pdfrwt beam="1">  1        2 0.27408665E+00 0.33039963E+03</pdfrwt>
<pdfrwt beam="2">  1       -2 0.23567012E-02 0.33039963E+03</pdfrwt>
<totfact> 0.58765295E+03</totfact>
</mgrwt>
</event>
<event>
 9    1  0.8285222E-001  0.2757724E+03  0.7818608E-02  0.1098021E+00
         -2   -1    0    0    0  501 -0.00000000000E+00  0.00000000000E+00  0.17465430676E+02  0.17465430676E+02  0.00000000000E+00 0. -1.
          2   -1    0    0  501    0  0.00000000000E+00 -0.00000000000E+00 -0.10885845226E+04  0.10885845226E+04  0.00000000000E+00 0. -1.
         35    2    1    2    0    0  0.00000000000E+00  0.00000000000E+00 -0.10711190920E+04  0.11060499533E+04  0.27577235188E+03 0.  0.
         25    2    3    3    0    0  0.48010853035E+02 -0.62113914471E+01 -0.66967000491E+03  0.68294468836E+03  0.12494762295E+03 0.  0.
         25    2    3    3    0    0 -0.48010853035E+02  0.62113914471E+01 -0.40144908704E+03  0.42310526495E+03  0.12455148474E+03 0.  0.
          5    1    4    4  502    0 -0.21777478701E+02  0.37905366267E+02 -0.13669296166E+03  0.14359014987E+03  0.47000000000E+01 0. -1.
         -5    1    4    4    0  502  0.69788331735E+02 -0.44116757714E+02 -0.53297704325E+03  0.53935453849E+03  0.47000000000E+01 0. -1.
          5    1    5    5  503    0 -0.47894398866E+02 -0.54375811103E+02 -0.23127065753E+03  0.24240216441E+03  0.47000000000E+01 0. -1.
         -5    1    5    5    0  503 -0.11645416833E+00  0.60587202551E+02 -0.17017842951E+03  0.18070310054E+03  0.47000000000E+01 0. -1.
<mgrwt>
<rscale>  0 0.27577235E+03</rscale>
<asrwt>0</asrwt>
<pdfrwt beam="1">  1        2 0.16747458E+00 0.27577235E+03</pdfrwt>
<pdfrwt beam="2">  1       -2 0.26869888E-02 0.27577235E+03</pdfrwt>
<totfact> 0.11562779E+04</totfact>
</mgrwt>
</event>
<event>
 9    1  0.8285222E-001  0.2731825E+03  0.7818608E-02  0.1099472E+00
          2   -1    0    0  501    0  0.00000000000E+00  0.00000000000E+00  0.62655751761E+03  0.62655751761E+03  0.00000000000E+00 0. -1.
         -2   -1    0    0    0  501 -0.00000000000E+00 -0.00000000000E+00 -0.29777258980E+02  0.29777258980E+02  0.00000000000E+00 0. -1.
         35    2    1    2    0    0  0.71054273576E-14 -0.35527136788E-14  0.59678025863E+03  0.65633477659E+03  0.27318246992E+03 0.  0.
         25    2    3    3    0    0  0.47253556009E+02 -0.25295160089E+02  0.31971094842E+03  0.34741334574E+03  0.12493277623E+03 0.  0.
         25    2    3    3    0    0 -0.47253556009E+02  0.25295160089E+02  0.27706931021E+03  0.30892143085E+03  0.12566743453E+03 0.  0.
          5    1    4    4  502    0  0.14833132756E+02  0.18193717266E+02  0.86872849988E+00  0.23955748048E+02  0.47000000000E+01 0.  1.
         -5    1    4    4    0  502  0.32420423253E+02 -0.43488877356E+02  0.31884221992E+03  0.32345759769E+03  0.47000000000E+01 0.  1.
          5    1    5    5  503    0 -0.16935628070E+01  0.70765213166E+02  0.16485727898E+03  0.17947310657E+03  0.47000000000E+01 0. -1.
         -5    1    5    5    0  503 -0.45559993202E+02 -0.45470053077E+02  0.11221203123E+03  0.12944832429E+03  0.47000000000E+01 0. -1.
<mgrwt>
<rscale>  0 0.27318247E+03</rscale>
<asrwt>0</asrwt>
<pdfrwt beam="1">  1        2 0.96393455E-01 0.27318247E+03</pdfrwt>
<pdfrwt beam="2">  1       -2 0.45811172E-02 0.27318247E+03</pdfrwt>
<totfact> 0.10673696E+04</totfact>
</mgrwt>
</event>
<event>
 9    1  0.8285222E-001  0.2750569E+03  0.7818608E-02  0.1098420E+00
          2   -1    0    0  501    0  0.00000000000E+00  0.00000000000E+00  0.26312431660E+04  0.26312431660E+04  0.00000000000E+00 0. -1.
         -2   -1    0    0    0  501 -0.00000000000E+00 -0.00000000000E+00 -0.71882658093E+01  0.71882658093E+01  0.00000000000E+00 0. -1.
         35    2    1    2    0    0  0.35527136788E-14  0.00000000000E+00  0.26240549001E+04  0.26384314318E+04  0.27505690528E+03 0.  0.
         25    2    3    3    0    0  0.21213265031E+02 -0.20040666456E+02  0.17852838725E+04  0.17898763885E+04  0.12476918555E+03 0.  0.
         25    2    3    3    0    0 -0.21213265031E+02  0.20040666456E+02  0.83877102760E+03  0.84855504325E+03  0.12512870877E+03 0.  0.
          5    1    4    4  502    0 -0.78952353292E+01  0.49255389809E+02  0.54086055770E+03  0.54317645479E+03  0.47000000000E+01 0.  1.
         -5    1    4    4    0  502  0.29108500360E+02 -0.69296056265E+02  0.12444233148E+04  0.12466999337E+04  0.47000000000E+01 0.  1.
          5    1    5    5  503    0 -0.21608690716E+02  0.15271961413E+02  0.32137548507E+02  0.41893679044E+02  0.47000000000E+01 0. -1.
         -5    1    5    5    0  503  0.39542568481E+00  0.47687050429E+01  0.80663347909E+03  0.80666136421E+03  0.47000000000E+01 0. -1.
<mgrwt>
<rscale>  0 0.27505691E+03</rscale>
<asrwt>0</asrwt>
<pdfrwt beam="1">  1        2 0.40480587E+00 0.27505691E+03</pdfrwt>
<pdfrwt beam="2">  1       -2 0.11058891E-02 0.27505691E+03</pdfrwt>
<totfact> 0.62492946E+03</totfact>
</mgrwt>
</event>
<event>
 9    1  0.8285222E-001  0.2758044E+03  0.7818608E-02  0.1098003E+00
          1   -1    0    0  501    0  0.00000000000E+00  0.00000000000E+00  0.16436740565E+03  0.16436740565E+03  0.00000000000E+00 0.  1.
         -1   -1    0    0    0  501 -0.00000000000E+00 -0.00000000000E+00 -0.11569825295E+03  0.11569825295E+03  0.00000000000E+00 0.  1.
         35    2    1    2    0    0  0.00000000000E+00 -0.35527136788E-14  0.48669152696E+02  0.28006565860E+03  0.27580443561E+03 0.  0.
         25    2    3    3    0    0  0.15097077715E+02 -0.10194493822E+02 -0.33191980126E+02  0.12914925764E+03  0.12347458745E+03 0.  0.
         25    2    3    3    0    0 -0.15097077715E+02  0.10194493822E+02  0.81861132822E+02  0.15091640096E+03  0.12546977944E+03 0.  0.
          5    1    4    4  502    0  0.37296770661E+02 -0.40747702993E+02 -0.60687627222E+02  0.82197947047E+02  0.47000000000E+01 0. -1.
         -5    1    4    4    0  502 -0.22199692946E+02  0.30553209171E+02  0.27495647096E+02  0.46951310597E+02  0.47000000000E+01 0. -1.
          5    1    5    5  503    0 -0.29221296533E+02 -0.94121407852E+01  0.10954966719E+03  0.11386699323E+03  0.47000000000E+01 0. -1.
         -5    1    5    5    0  503  0.14124218818E+02  0.19606634607E+02 -0.27688534368E+02  0.37049407732E+02  0.47000000000E+01 0. -1.
<mgrwt>
<rscale>  0 0.27580444E+03</rscale>
<asrwt>0</asrwt>
<pdfrwt beam="1">  1        1 0.25287293E-01 0.27580444E+03</pdfrwt>
<pdfrwt beam="2">  1       -1 0.17799731E-01 0.27580444E+03</pdfrwt>
<totfact> 0.45686078E+03</totfact>
</mgrwt>
</event>
<event>
 9    1  0.8285222E-001  0.2706061E+03  0.7818608E-02  0.1100933E+00
         -1   -1    0    0    0  501 -0.00000000000E+00  0.00000000000E+00  0.11614875924E+03  0.11614875924E+03  0.00000000000E+00 0. -1.
          1   -1    0    0  501    0  0.00000000000E+00 -0.00000000000E+00 -0.15761608922E+03  0.15761608922E+03  0.00000000000E+00 0. -1.
         35    2    1    2    0    0  0.35527136788E-14  0.00000000000E+00 -0.41467329987E+02  0.27376484846E+03  0.27060608418E+03 0.  0.
         25    2    3    3    0    0  0.29516799524E+02  0.32377028278E+02 -0.48681945334E+02  0.14153624489E+03  0.12547136487E+03 0.  0.
         25    2    3    3    0    0 -0.29516799524E+02 -0.32377028278E+02  0.72146153469E+01  0.13222860357E+03  0.12455055003E+03 0.  0.
          5    1    4    4  502    0  0.26490184375E+02 -0.39531101977E+02 -0.50288143835E+02  0.69393265538E+02  0.47000000000E+01 0. -1.
         -5    1    4    4    0  502  0.30266151483E+01  0.71908130254E+02  0.16061985005E+01  0.72142979350E+02  0.47000000000E+01 0. -1.
          5    1    5    5  503    0 -0.42050626235E+02 -0.31266783099E+02 -0.50527320145E+02  0.72944958518E+02  0.47000000000E+01 0. -1.
         -5    1    5    5    0  503  0.12533826712E+02 -0.11102451786E+01  0.57741935492E+02  0.59283645053E+02  0.47000000000E+01 0. -1.
<mgrwt>
<rscale>  0 0.27060608E+03</rscale>
<asrwt>0</asrwt>
<pdfrwt beam="1">  1        1 0.24248629E-01 0.27060608E+03</pdfrwt>
<pdfrwt beam="2">  1       -1 0.17869040E-01 0.27060608E+03</pdfrwt>
<totfact> 0.47862715E+03</totfact>
</mgrwt>
</event>
<event>
 9    1  0.8285222E-001  0.2732250E+03  0.7818608E-02  0.1099448E+00
          2   -1    0    0  501    0  0.00000000000E+00  0.00000000000E+00  0.10082749909E+04  0.10082749909E+04  0.00000000000E+00 0.  1.
         -2   -1    0    0    0  501 -0.00000000000E+00 -0.00000000000E+00 -0.18509800547E+02  0.18509800547E+02  0.00000000000E+00 0.  1.
         35    2    1    2    0    0  0.00000000000E+00  0.88817841970E-15  0.98976519033E+03  0.10267847914E+04  0.27322495477E+03 0.  0.
         25    2    3    3    0    0 -0.42903096830E+02 -0.59696937126E+00  0.36282559754E+03  0.38607933512E+03  0.12479505872E+03 0.  0.
         25    2    3    3    0    0  0.42903096830E+02  0.59696937126E+00  0.62693959279E+03  0.64070545631E+03  0.12493677060E+03 0.  0.
          5    1    4    4  502    0  0.41688536168E+01 -0.46205232151E+01  0.32574412098E+03  0.32583746091E+03  0.47000000000E+01 0.  1.
         -5    1    4    4    0  502 -0.47071950447E+02  0.40235538439E+01  0.37081476560E+02  0.60241874209E+02  0.47000000000E+01 0.  1.
          5    1    5    5  503    0  0.14388404484E+02  0.51116511980E+02  0.47529711106E+03  0.47827749034E+03  0.47000000000E+01 0.  1.
         -5    1    5    5    0  503  0.28514692346E+02 -0.50519542609E+02  0.15164248173E+03  0.16242796597E+03  0.47000000000E+01 0.  1.
<mgrwt>
<rscale>  0 0.27322495E+03</rscale>
<asrwt>0</asrwt>
<pdfrwt beam="1">  1        2 0.15511919E+00 0.27322495E+03</pdfrwt>
<pdfrwt beam="2">  1       -2 0.28476624E-02 0.27322495E+03</pdfrwt>
<totfact> 0.11848379E+04</totfact>
</mgrwt>
</event>
<event>
 9    1  0.8285222E-001  0.2614674E+03  0.7818608E-02  0.1106265E+00
          1   -1    0    0  501    0  0.00000000000E+00  0.00000000000E+00  0.31267588469E+02  0.31267588469E+02  0.00000000000E+00 0. -1.
         -1   -1    0    0    0  501 -0.00000000000E+00 -0.00000000000E+00 -0.54661409581E+03  0.54661409581E+03  0.00000000000E+00 0. -1.
         35    2    1    2    0    0  0.00000000000E+00 -0.35527136788E-14 -0.51534650734E+03  0.57788168428E+03  0.26146743277E+03 0.  0.
         25    2    3    3    0    0 -0.25153092064E+02 -0.12191925211E+01 -0.19261013460E+03  0.23062256147E+03  0.12431386664E+03 0.  0.
         25    2    3    3    0    0  0.25153092064E+02  0.12191925211E+01 -0.32273637274E+03  0.34725912281E+03  0.12568200990E+03 0.  0.
          5    1    4    4  502    0 -0.33811400057E+02  0.29622424175E+02 -0.11494733596E+02  0.46636012783E+02  0.47000000000E+01 0.  1.
         -5    1    4    4    0  502  0.86583079930E+01 -0.30841616696E+02 -0.18111540100E+03  0.18398654869E+03  0.47000000000E+01 0.  1.
          5    1    5    5  503    0  0.31827355361E+02  0.21003206080E+02 -0.32356788505E+03  0.32584103709E+03  0.47000000000E+01 0.  1.
         -5    1    5    5    0  503 -0.66742632965E+01 -0.19784013559E+02  0.83151231237E+00  0.21418085717E+02  0.47000000000E+01 0.  1.
<mgrwt>
<rscale>  0 0.26146743E+03</rscale>
<asrwt>0</asrwt>
<pdfrwt beam="1">  1        1 0.48103991E-02 0.26146743E+03</pdfrwt>
<pdfrwt beam="2">  1       -1 0.84094461E-01 0.26146743E+03</pdfrwt>
<totfact> 0.25709692E+03</totfact>
</mgrwt>
</event>
<event>
 9    1  0.8285222E-001  0.2742423E+03  0.7818608E-02  0.1098876E+00
         -2   -1    0    0    0  501 -0.00000000000E+00  0.00000000000E+00  0.74170249203E+01  0.74170249203E+01  0.00000000000E+00 0.  1.
          2   -1    0    0  501    0  0.00000000000E+00 -0.00000000000E+00 -0.25350073522E+04  0.25350073522E+04  0.00000000000E+00 0.  1.
         35    2    1    2    0    0 -0.35527136788E-14  0.00000000000E+00 -0.25275903273E+04  0.25424243771E+04  0.27424232135E+03 0.  0.
         25    2    3    3    0    0 -0.44323513876E+01  0.11426102404E+02 -0.76229379030E+03  0.77266864885E+03  0.12559783688E+03 0.  0.
         25    2    3    3    0    0  0.44323513876E+01 -0.11426102404E+02 -0.17652965370E+04  0.17697557283E+04  0.12495308208E+03 0.  0.
          5    1    4    4  502    0 -0.19922116123E+02  0.65749011972E+02 -0.45670219414E+03  0.46186449032E+03  0.47000000000E+01 0. -1.
         -5    1    4    4    0  502  0.15489764736E+02 -0.54322909568E+02 -0.30559159616E+03  0.31080415853E+03  0.47000000000E+01 0. -1.
          5    1    5    5  503    0  0.35173570495E+02 -0.32215346442E+02 -0.28613383619E+03  0.29012009724E+03  0.47000000000E+01 0. -1.
         -5    1    5    5    0  503 -0.30741219107E+02  0.20789244037E+02 -0.14791627008E+04  0.14796356310E+04  0.47000000000E+01 0. -1.
<mgrwt>
<rscale>  0 0.27424232E+03</rscale>
<asrwt>0</asrwt>
<pdfrwt beam="1">  1        2 0.39000127E+00 0.27424232E+03</pdfrwt>
<pdfrwt beam="2">  1       -2 0.11410804E-02 0.27424232E+03</pdfrwt>
<totfact> 0.67507145E+03</totfact>
</mgrwt>
</event>
<event>
 9    1  0.8285222E-001  0.2760325E+03  0.7818608E-02  0.1097876E+00
          1   -1    0    0  501    0  0.00000000000E+00  0.00000000000E+00  0.69227614397E+03  0.69227614397E+03  0.00000000000E+00 0. -1.
         -1   -1    0    0    0  501 -0.00000000000E+00 -0.00000000000E+00 -0.27515723197E+02  0.27515723197E+02  0.00000000000E+00 0. -1.
         35    2    1    2    0    0  0.00000000000E+00 -0.14210854715E-13  0.66476042077E+03  0.71979186716E+03  0.27603245282E+03 0.  0.
         25    2    3    3    0    0 -0.27863038726E+02  0.49703664914E+02  0.36903976556E+03  0.39383527776E+03  0.12517617271E+03 0.  0.
         25    2    3    3    0    0  0.27863038726E+02 -0.49703664914E+02  0.29572065522E+03  0.32595658940E+03  0.12470039704E+03 0.  0.
          5    1    4    4  502    0  0.41176551042E+02  0.53821393532E+02  0.17000142735E+03  0.18307054940E+03  0.47000000000E+01 0.  1.
         -5    1    4    4    0  502 -0.69039589768E+02 -0.41177286177E+01  0.19903833821E+03  0.21076472836E+03  0.47000000000E+01 0.  1.
          5    1    5    5  503    0  0.42694685892E+02 -0.12562316311E+01  0.23412780088E+02  0.48935289851E+02  0.47000000000E+01 0. -1.
         -5    1    5    5    0  503 -0.14831647166E+02 -0.48447433283E+02  0.27230787513E+03  0.27702129955E+03  0.47000000000E+01 0. -1.
<mgrwt>
<rscale>  0 0.27603245E+03</rscale>
<asrwt>0</asrwt>
<pdfrwt beam="1">  1        1 0.10650401E+00 0.27603245E+03</pdfrwt>
<pdfrwt beam="2">  1       -1 0.42331887E-02 0.27603245E+03</pdfrwt>
<totfact> 0.64570505E+03</totfact>
</mgrwt>
</event>
<event>
 9    1  0.8285222E-001  0.2713280E+03  0.7818608E-02  0.1100522E+00
          2   -1    0    0  501    0  0.00000000000E+00  0.00000000000E+00  0.18243592133E+04  0.18243592133E+04  0.00000000000E+00 0. -1.
         -2   -1    0    0    0  501 -0.00000000000E+00 -0.00000000000E+00 -0.10088317727E+02  0.10088317727E+02  0.00000000000E+00 0. -1.
         35    2    1    2    0    0  0.00000000000E+00  0.00000000000E+00  0.18142708955E+04  0.18344475310E+04  0.27132795942E+03 0.  0.
         25    2    3    3    0    0 -0.49652664400E+02 -0.15903061949E+02  0.84356702268E+03  0.85438807523E+03  0.12512140856E+03 0.  0.
         25    2    3    3    0    0  0.49652664400E+02  0.15903061949E+02  0.97070387287E+03  0.98005945577E+03  0.12462838194E+03 0.  0.
          5    1    4    4  502    0 -0.94605551013E+01  0.67079948575E+01  0.74867055222E+03  0.74877512315E+03  0.47000000000E+01 0. -1.
         -5    1    4    4    0  502 -0.40192109299E+02 -0.22611056806E+02  0.94896470460E+02  0.10561295207E+03  0.47000000000E+01 0. -1.
          5    1    5    5  503    0  0.57860388000E+02 -0.30683301750E+02  0.80495256849E+03  0.80762616168E+03  0.47000000000E+01 0. -1.
         -5    1    5    5    0  503 -0.82077235996E+01  0.46586363699E+02  0.16575130438E+03  0.17243329410E+03  0.47000000000E+01 0. -1.
<mgrwt>
<rscale>  0 0.27132796E+03</rscale>
<asrwt>0</asrwt>
<pdfrwt beam="1">  1        2 0.28067039E+00 0.27132796E+03</pdfrwt>
<pdfrwt beam="2">  1       -2 0.15520503E-02 0.27132796E+03</pdfrwt>
<totfact> 0.10310177E+04</totfact>
</mgrwt>
</event>
<event>
 9    1  0.8285222E-001  0.2794503E+03  0.7818608E-02  0.1095990E+00
         -3   -1    0    0    0  501 -0.00000000000E+00  0.00000000000E+00  0.18105673727E+04  0.18105673727E+04  0.00000000000E+00 0.  1.
          3   -1    0    0  501    0  0.00000000000E+00 -0.00000000000E+00 -0.10782874337E+02  0.10782874337E+02  0.00000000000E+00 0.  1.
         35    2    1    2    0    0 -0.71054273576E-14  0.00000000000E+00  0.17997844984E+04  0.18213502471E+04  0.27945032087E+03 0.  0.
         25    2    3    3    0    0 -0.16512373389E+02 -0.60421414395E+02  0.85393379480E+03  0.86528638930E+03  0.12487675447E+03 0.  0.
         25    2    3    3    0    0  0.16512373389E+02  0.60421414395E+02  0.94585070360E+03  0.95606385778E+03  0.12450357769E+03 0.  0.
          5    1    4    4  502    0  0.49349882048E+02 -0.51481432754E+02  0.37624533099E+03  0.38297309027E+03  0.47000000000E+01 0.  1.
         -5    1    4    4    0  502 -0.65862255437E+02 -0.89399816418E+01  0.47768846381E+03  0.48231329903E+03  0.47000000000E+01 0.  1.
          5    1    5    5  503    0  0.68575984654E+02  0.15541435833E+02  0.47561815886E+03  0.48081069553E+03  0.47000000000E+01 0.  1.
         -5    1    5    5    0  503 -0.52063611266E+02  0.44879978563E+02  0.47023254474E+03  0.47525316225E+03  0.47000000000E+01 0.  1.
<mgrwt>
<rscale>  0 0.27945032E+03</rscale>
<asrwt>0</asrwt>
<pdfrwt beam="1">  1        3 0.16589052E-02 0.27945032E+03</pdfrwt>
<pdfrwt beam="2">  1       -3 0.27854859E+00 0.27945032E+03</pdfrwt>
<totfact> 0.18373513E+02</totfact>
</mgrwt>
</event>
<event>
 9    1  0.8285222E-001  0.2766347E+03  0.7818608E-02  0.1097541E+00
          2   -1    0    0  501    0  0.00000000000E+00  0.00000000000E+00  0.48657139721E+03  0.48657139721E+03  0.00000000000E+00 0.  1.
         -2   -1    0    0    0  501 -0.00000000000E+00 -0.00000000000E+00 -0.39319375302E+02  0.39319375302E+02  0.00000000000E+00 0.  1.
         35    2    1    2    0    0 -0.71054273576E-14 -0.35527136788E-14  0.44725202191E+03  0.52589077252E+03  0.27663465711E+03 0.  0.
         25    2    3    3    0    0 -0.54962373791E+02  0.16574089777E+02  0.25223009393E+03  0.28740658744E+03  0.12524760770E+03 0.  0.
         25    2    3    3    0    0  0.54962373791E+02 -0.16574089777E+02  0.19502192798E+03  0.23848418508E+03  0.12468196002E+03 0.  0.
          5    1    4    4  502    0  0.31027997706E+02 -0.21636403406E+02  0.40263220823E+02  0.55444454592E+02  0.47000000000E+01 0.  1.
         -5    1    4    4    0  502 -0.85990371497E+02  0.38210493183E+02  0.21196687311E+03  0.23196213285E+03  0.47000000000E+01 0.  1.
          5    1    5    5  503    0  0.23434666130E+02  0.53788388834E+02  0.69247431289E+02  0.90882732629E+02  0.47000000000E+01 0.  1.
         -5    1    5    5    0  503  0.31527707662E+02 -0.70362478611E+02  0.12577449669E+03  0.14760145245E+03  0.47000000000E+01 0.  1.
<mgrwt>
<rscale>  0 0.27663466E+03</rscale>
<asrwt>0</asrwt>
<pdfrwt beam="1">  1        2 0.74857134E-01 0.27663466E+03</pdfrwt>
<pdfrwt beam="2">  1       -2 0.60491350E-02 0.27663466E+03</pdfrwt>
<totfact> 0.93304037E+03</totfact>
</mgrwt>
</event>
<event>
 9    1  0.8285222E-001  0.2751303E+03  0.7818608E-02  0.1098379E+00
         -2   -1    0    0    0  501 -0.00000000000E+00  0.00000000000E+00  0.92373850587E+01  0.92373850587E+01  0.00000000000E+00 0. -1.
          2   -1    0    0  501    0  0.00000000000E+00 -0.00000000000E+00 -0.20486497254E+04  0.20486497254E+04  0.00000000000E+00 0. -1.
         35    2    1    2    0    0  0.00000000000E+00  0.00000000000E+00 -0.20394123403E+04  0.20578871104E+04  0.27513026997E+03 0.  0.
         25    2    3    3    0    0  0.56639932498E+02  0.76435541341E+01 -0.11350567885E+04  0.11431973179E+04  0.12361103696E+03 0.  0.
         25    2    3    3    0    0 -0.56639932498E+02 -0.76435541341E+01 -0.90435555179E+03  0.91468979259E+03  0.12462723119E+03 0.  0.
          5    1    4    4  502    0  0.26439667178E+01 -0.52113162586E+02 -0.57131094882E+03  0.57370816842E+03  0.47000000000E+01 0. -1.
         -5    1    4    4    0  502  0.53995965780E+02  0.59756716720E+02 -0.56374583972E+03  0.56948914943E+03  0.47000000000E+01 0. -1.
          5    1    5    5  503    0 -0.77538829407E+02 -0.26854463842E+02 -0.34736490910E+03  0.35695644324E+03  0.47000000000E+01 0. -1.
         -5    1    5    5    0  503  0.20898896909E+02  0.19210909708E+02 -0.55699064268E+03  0.55773334935E+03  0.47000000000E+01 0. -1.
<mgrwt>
<rscale>  0 0.27513027E+03</rscale>
<asrwt>0</asrwt>
<pdfrwt beam="1">  1        2 0.31517710E+00 0.27513027E+03</pdfrwt>
<pdfrwt beam="2">  1       -2 0.14211352E-02 0.27513027E+03</pdfrwt>
<totfact> 0.89425716E+03</totfact>
</mgrwt>
</event>
<event>
 9    1  0.8285222E-001  0.2745482E+03  0.7818608E-02  0.1098704E+00
         -2   -1    0    0    0  501 -0.00000000000E+00  0.00000000000E+00  0.60681563509E+03  0.60681563509E+03  0.00000000000E+00 0.  1.
          2   -1    0    0  501    0  0.00000000000E+00 -0.00000000000E+00 -0.31054203344E+02  0.31054203344E+02  0.00000000000E+00 0.  1.
         35    2    1    2    0    0  0.35527136788E-14  0.00000000000E+00  0.57576143174E+03  0.63786983843E+03  0.27454818247E+03 0.  0.
         25    2    3    3    0    0 -0.18351662785E+02  0.40052914839E+02  0.19419045069E+03  0.23528036304E+03  0.12532317653E+03 0.  0.
         25    2    3    3    0    0  0.18351662785E+02 -0.40052914839E+02  0.38157098105E+03  0.40258947540E+03  0.12058545769E+03 0.  0.
          5    1    4    4  502    0  0.92543752158E+01  0.81808198480E+02  0.11614123452E+03  0.14243981590E+03  0.47000000000E+01 0.  1.
         -5    1    4    4    0  502 -0.27606038000E+02 -0.41755283641E+02  0.78049216178E+02  0.92840547133E+02  0.47000000000E+01 0.  1.
          5    1    5    5  503    0  0.25341989948E+02 -0.37672709406E+02  0.38865654487E+03  0.39132780295E+03  0.47000000000E+01 0. -1.
         -5    1    5    5    0  503 -0.69903271637E+01 -0.23802054326E+01 -0.70855638197E+01  0.11261672451E+02  0.47000000000E+01 0. -1.
<mgrwt>
<rscale>  0 0.27454818E+03</rscale>
<asrwt>0</asrwt>
<pdfrwt beam="1">  1        2 0.47775702E-02 0.27454818E+03</pdfrwt>
<pdfrwt beam="2">  1       -2 0.93356243E-01 0.27454818E+03</pdfrwt>
<totfact> 0.16774177E+03</totfact>
</mgrwt>
</event>
<event>
 9    1  0.8285222E-001  0.2729477E+03  0.7818608E-02  0.1099604E+00
         -2   -1    0    0    0  501 -0.00000000000E+00  0.00000000000E+00  0.70149611921E+02  0.70149611921E+02  0.00000000000E+00 0. -1.
          2   -1    0    0  501    0  0.00000000000E+00 -0.00000000000E+00 -0.26550550861E+03  0.26550550861E+03  0.00000000000E+00 0. -1.
         35    2    1    2    0    0  0.00000000000E+00  0.35527136788E-14 -0.19535589669E+03  0.33565512053E+03  0.27294767551E+03 0.  0.
         25    2    3    3    0    0  0.43107987906E+01  0.24202750623E+02 -0.38155262456E+02  0.13312204900E+03  0.12514511478E+03 0.  0.
         25    2    3    3    0    0 -0.43107987906E+01 -0.24202750623E+02 -0.15720063423E+03  0.20253307153E+03  0.12531260725E+03 0.  0.
          5    1    4    4  502    0 -0.31273839223E+02  0.77397514787E+01 -0.73333601963E+02  0.80236300698E+02  0.47000000000E+01 0.  1.
         -5    1    4    4    0  502  0.35584638014E+02  0.16462999144E+02  0.35178339507E+02  0.52885748306E+02  0.47000000000E+01 0.  1.
          5    1    5    5  503    0  0.57562337272E+02 -0.21584532708E+02 -0.10328891884E+03  0.12029133585E+03  0.47000000000E+01 0.  1.
         -5    1    5    5    0  503 -0.61873136063E+02 -0.26182179143E+01 -0.53911715392E+02  0.82241735681E+02  0.47000000000E+01 0.  1.
<mgrwt>
<rscale>  0 0.27294768E+03</rscale>
<asrwt>0</asrwt>
<pdfrwt beam="1">  1        2 0.40847002E-01 0.27294768E+03</pdfrwt>
<pdfrwt beam="2">  1       -2 0.10792248E-01 0.27294768E+03</pdfrwt>
<totfact> 0.72729179E+03</totfact>
</mgrwt>
</event>
<event>
 9    1  0.8285222E-001  0.2822870E+03  0.7818608E-02  0.1094446E+00
          1   -1    0    0  501    0  0.00000000000E+00  0.00000000000E+00  0.76394959434E+02  0.76394959434E+02  0.00000000000E+00 0.  1.
         -1   -1    0    0    0  501 -0.00000000000E+00 -0.00000000000E+00 -0.26076965429E+03  0.26076965429E+03  0.00000000000E+00 0.  1.
         35    2    1    2    0    0 -0.71054273576E-14  0.00000000000E+00 -0.18437469485E+03  0.33716461372E+03  0.28228699694E+03 0.  0.
         25    2    3    3    0    0  0.59387784248E+02 -0.27533772770E+01 -0.14382157362E+03  0.19968848498E+03  0.12512536110E+03 0.  0.
         25    2    3    3    0    0 -0.59387784248E+02  0.27533772770E+01 -0.40553121235E+02  0.13747612874E+03  0.11713513703E+03 0.  0.
          5    1    4    4  502    0  0.16132974113E+01 -0.17908460540E+02 -0.13827516549E+03  0.13951855461E+03  0.47000000000E+01 0. -1.
         -5    1    4    4    0  502  0.57774486837E+02  0.15155083263E+02 -0.55464081253E+01  0.60169930373E+02  0.47000000000E+01 0. -1.
          5    1    5    5  503    0 -0.48166862401E+02  0.21400468375E+02 -0.77795212794E+02  0.94086193535E+02  0.47000000000E+01 0. -1.
         -5    1    5    5    0  503 -0.11220921847E+02 -0.18647091098E+02  0.37242091559E+02  0.43389935206E+02  0.47000000000E+01 0. -1.
<mgrwt>
<rscale>  0 0.28228700E+03</rscale>
<asrwt>0</asrwt>
<pdfrwt beam="1">  1        1 0.11753071E-01 0.28228700E+03</pdfrwt>
<pdfrwt beam="2">  1       -1 0.40118408E-01 0.28228700E+03</pdfrwt>
<totfact> 0.31582727E+03</totfact>
</mgrwt>
</event>
<event>
 9    1  0.8285222E-001  0.2709621E+03  0.7818608E-02  0.1100730E+00
          2   -1    0    0  501    0  0.00000000000E+00  0.00000000000E+00  0.24071245868E+04  0.24071245868E+04  0.00000000000E+00 0.  1.
         -2   -1    0    0    0  501 -0.00000000000E+00 -0.00000000000E+00 -0.76253295593E+01  0.76253295593E+01  0.00000000000E+00 0.  1.
         35    2    1    2    0    0 -0.17763568394E-14  0.00000000000E+00  0.23994992573E+04  0.24147499164E+04  0.27096212477E+03 0.  0.
         25    2    3    3    0    0 -0.11868037537E+02 -0.14572799630E+02  0.77697005652E+03  0.78730454885E+03  0.12574882548E+03 0.  0.
         25    2    3    3    0    0  0.11868037537E+02  0.14572799630E+02  0.16225292008E+04  0.16274453675E+04  0.12499680087E+03 0.  0.
          5    1    4    4  502    0 -0.27418861392E+02  0.21082941730E+02  0.61134558234E+02  0.70397504235E+02  0.47000000000E+01 0. -1.
         -5    1    4    4    0  502  0.15550823854E+02 -0.35655741361E+02  0.71583549829E+03  0.71690704462E+03  0.47000000000E+01 0. -1.
          5    1    5    5  503    0  0.40083710373E+02  0.44532414215E+02  0.42808254895E+03  0.43228069407E+03  0.47000000000E+01 0. -1.
         -5    1    5    5    0  503 -0.28215672835E+02 -0.29959614585E+02  0.11944466518E+04  0.11951646735E+04  0.47000000000E+01 0. -1.
<mgrwt>
<rscale>  0 0.27096212E+03</rscale>
<asrwt>0</asrwt>
<pdfrwt beam="1">  1        2 0.37032625E+00 0.27096212E+03</pdfrwt>
<pdfrwt beam="2">  1       -2 0.11731295E-02 0.27096212E+03</pdfrwt>
<totfact> 0.76152960E+03</totfact>
</mgrwt>
</event>
<event>
 9    1  0.8285222E-001  0.2764266E+03  0.7818608E-02  0.1097657E+00
         -1   -1    0    0    0  501 -0.00000000000E+00  0.00000000000E+00  0.23289949053E+03  0.23289949053E+03  0.00000000000E+00 0.  1.
          1   -1    0    0  501    0  0.00000000000E+00 -0.00000000000E+00 -0.82022171596E+02  0.82022171596E+02  0.00000000000E+00 0.  1.
         35    2    1    2    0    0  0.00000000000E+00  0.00000000000E+00  0.15087731893E+03  0.31492166212E+03  0.27642664109E+03 0.  0.
         25    2    3    3    0    0  0.52045017994E+02 -0.18964389519E+02  0.10107730277E+03  0.16946058499E+03  0.12422534670E+03 0.  0.
         25    2    3    3    0    0 -0.52045017994E+02  0.18964389519E+02  0.49800016159E+02  0.14546107713E+03  0.12494219216E+03 0.  0.
          5    1    4    4  502    0  0.31465418830E+02 -0.68868981441E+02  0.33734260191E+02  0.83024692095E+02  0.47000000000E+01 0.  1.
         -5    1    4    4    0  502  0.20579599164E+02  0.49904591922E+02  0.67343042582E+02  0.86435892897E+02  0.47000000000E+01 0.  1.
          5    1    5    5  503    0 -0.37735507156E+02 -0.32266373116E+02  0.72038173584E+02  0.87616641044E+02  0.47000000000E+01 0.  1.
         -5    1    5    5    0  503 -0.14309510839E+02  0.51230762635E+02 -0.22238157425E+02  0.57844436087E+02  0.47000000000E+01 0.  1.
<mgrwt>
<rscale>  0 0.27642664E+03</rscale>
<asrwt>0</asrwt>
<pdfrwt beam="1">  1        1 0.12618796E-01 0.27642664E+03</pdfrwt>
<pdfrwt beam="2">  1       -1 0.35830690E-01 0.27642664E+03</pdfrwt>
<totfact> 0.35040506E+03</totfact>
</mgrwt>
</event>
<event>
 9    1  0.8285222E-001  0.2777439E+03  0.7818608E-02  0.1096928E+00
         -1   -1    0    0    0  501 -0.00000000000E+00  0.00000000000E+00  0.57534423179E+02  0.57534423179E+02  0.00000000000E+00 0.  1.
          1   -1    0    0  501    0  0.00000000000E+00 -0.00000000000E+00 -0.33519791549E+03  0.33519791549E+03  0.00000000000E+00 0.  1.
         35    2    1    2    0    0  0.71054273576E-14 -0.35527136788E-14 -0.27766349231E+03  0.39273233866E+03  0.27774390160E+03 0.  0.
         25    2    3    3    0    0 -0.26274882092E+02 -0.26384948899E+02 -0.20636366439E+03  0.24433862171E+03  0.12541477233E+03 0.  0.
         25    2    3    3    0    0  0.26274882092E+02  0.26384948899E+02 -0.71299827916E+02  0.14839371696E+03  0.12470162314E+03 0.  0.
          5    1    4    4  502    0  0.43097513961E+02  0.63185765406E+01 -0.33449359682E+02  0.55120502377E+02  0.47000000000E+01 0.  1.
         -5    1    4    4    0  502 -0.69372396053E+02 -0.32703525439E+02 -0.17291430471E+03  0.18921811933E+03  0.47000000000E+01 0.  1.
          5    1    5    5  503    0 -0.15339955118E+02  0.11225040450E+01 -0.93363415260E+02  0.94738543093E+02  0.47000000000E+01 0.  1.
         -5    1    5    5    0  503  0.41614837210E+02  0.25262444854E+02  0.22063587344E+02  0.53655173865E+02  0.47000000000E+01 0.  1.
<mgrwt>
<rscale>  0 0.27774390E+03</rscale>
<asrwt>0</asrwt>
<pdfrwt beam="1">  1        1 0.51568911E-01 0.27774390E+03</pdfrwt>
<pdfrwt beam="2">  1       -1 0.88514496E-02 0.27774390E+03</pdfrwt>
<totfact> 0.55705392E+03</totfact>
</mgrwt>
</event>
<event>
 9    1  0.8285222E-001  0.2746397E+03  0.7818608E-02  0.1098653E+00
         -1   -1    0    0    0  501 -0.00000000000E+00  0.00000000000E+00  0.41591416000E+02  0.41591416000E+02  0.00000000000E+00 0.  1.
          1   -1    0    0  501    0  0.00000000000E+00 -0.00000000000E+00 -0.45338064033E+03  0.45338064033E+03  0.00000000000E+00 0.  1.
         35    2    1    2    0    0  0.00000000000E+00  0.00000000000E+00 -0.41178922433E+03  0.49497205633E+03  0.27463971176E+03 0.  0.
         25    2    3    3    0    0  0.24849956243E+02  0.51228290345E+02 -0.22512054378E+03  0.26364462030E+03  0.12484938336E+03 0.  0.
         25    2    3    3    0    0 -0.24849956243E+02 -0.51228290345E+02 -0.18666868055E+03  0.23132743603E+03  0.12419874518E+03 0.  0.
          5    1    4    4  502    0  0.73654675236E+01  0.72127365635E+02 -0.54566359050E+02  0.90863548936E+02  0.47000000000E+01 0. -1.
         -5    1    4    4    0  502  0.17484488720E+02 -0.20899075289E+02 -0.17055418473E+03  0.17278107137E+03  0.47000000000E+01 0. -1.
          5    1    5    5  503    0  0.18983271951E+02  0.33361777786E+02 -0.75625151688E+02  0.84938956898E+02  0.47000000000E+01 0. -1.
         -5    1    5    5    0  503 -0.43833228194E+02 -0.84590068131E+02 -0.11104352887E+03  0.14638847914E+03  0.47000000000E+01 0. -1.
<mgrwt>
<rscale>  0 0.27463971E+03</rscale>
<asrwt>0</asrwt>
<pdfrwt beam="1">  1        1 0.69750865E-01 0.27463971E+03</pdfrwt>
<pdfrwt beam="2">  1       -1 0.63986796E-02 0.27463971E+03</pdfrwt>
<totfact> 0.61994864E+03</totfact>
</mgrwt>
</event>
<event>
 9    1  0.8285222E-001  0.2768929E+03  0.7818608E-02  0.1097398E+00
          1   -1    0    0  501    0  0.00000000000E+00  0.00000000000E+00  0.28603579417E+03  0.28603579417E+03  0.00000000000E+00 0.  1.
         -1   -1    0    0    0  501 -0.00000000000E+00 -0.00000000000E+00 -0.67010543700E+02  0.67010543700E+02  0.00000000000E+00 0.  1.
         35    2    1    2    0    0  0.00000000000E+00  0.71054273576E-14  0.21902525047E+03  0.35304633787E+03  0.27689286076E+03 0.  0.
         25    2    3    3    0    0  0.33540520356E+02  0.35952809055E+02  0.14861174040E+03  0.20118892232E+03  0.12638814065E+03 0.  0.
         25    2    3    3    0    0 -0.33540520356E+02 -0.35952809055E+02  0.70413510070E+02  0.15185741555E+03  0.12523993481E+03 0.  0.
          5    1    4    4  502    0 -0.16656647320E+02  0.68628764712E+02  0.53630928493E+02  0.88801563820E+02  0.47000000000E+01 0. -1.
         -5    1    4    4    0  502  0.50197167676E+02 -0.32675955657E+02  0.94980811905E+02  0.11238735850E+03  0.47000000000E+01 0. -1.
          5    1    5    5  503    0  0.19772127845E+02 -0.68230014267E+02  0.45992276616E+02  0.84756423914E+02  0.47000000000E+01 0.  1.
         -5    1    5    5    0  503 -0.53312648201E+02  0.32277205212E+02  0.24421233454E+02  0.67100991631E+02  0.47000000000E+01 0.  1.
<mgrwt>
<rscale>  0 0.27689286E+03</rscale>
<asrwt>0</asrwt>
<pdfrwt beam="1">  1        1 0.44005506E-01 0.27689286E+03</pdfrwt>
<pdfrwt beam="2">  1       -1 0.10309315E-01 0.27689286E+03</pdfrwt>
<totfact> 0.53769304E+03</totfact>
</mgrwt>
</event>
<event>
 9    1  0.8285222E-001  0.2734026E+03  0.7818608E-02  0.1099348E+00
          2   -1    0    0  501    0  0.00000000000E+00  0.00000000000E+00  0.75899997453E+03  0.75899997453E+03  0.00000000000E+00 0.  1.
         -2   -1    0    0    0  501 -0.00000000000E+00 -0.00000000000E+00 -0.24620878331E+02  0.24620878331E+02  0.00000000000E+00 0.  1.
         35    2    1    2    0    0  0.00000000000E+00 -0.71054273576E-14  0.73437909620E+03  0.78362085286E+03  0.27340260442E+03 0.  0.
         25    2    3    3    0    0 -0.44487133612E+02 -0.36802787496E+02  0.33768537492E+03  0.36440581718E+03  0.12420401335E+03 0.  0.
         25    2    3    3    0    0  0.44487133612E+02  0.36802787496E+02  0.39669372127E+03  0.41921503568E+03  0.12264496490E+03 0.  0.
          5    1    4    4  502    0 -0.39338285452E+01  0.45068013130E+02  0.11229694422E+03  0.12115813838E+03  0.47000000000E+01 0. -1.
         -5    1    4    4    0  502 -0.40553305067E+02 -0.81870800626E+02  0.22538843071E+03  0.24324767881E+03  0.47000000000E+01 0. -1.
          5    1    5    5  503    0 -0.29934020899E+01  0.18543377160E+02  0.11857797163E+00  0.19362885976E+02  0.47000000000E+01 0.  1.
         -5    1    5    5    0  503  0.47480535702E+02  0.18259410336E+02  0.39657514330E+03  0.39985214970E+03  0.47000000000E+01 0.  1.
<mgrwt>
<rscale>  0 0.27340260E+03</rscale>
<asrwt>0</asrwt>
<pdfrwt beam="1">  1        2 0.11676921E+00 0.27340260E+03</pdfrwt>
<pdfrwt beam="2">  1       -2 0.37878280E-02 0.27340260E+03</pdfrwt>
<totfact> 0.11274580E+04</totfact>
</mgrwt>
</event>
<event>
 9    1  0.8285222E-001  0.2734713E+03  0.7818608E-02  0.1099309E+00
          3   -1    0    0  501    0  0.00000000000E+00  0.00000000000E+00  0.18503898059E+03  0.18503898059E+03  0.00000000000E+00 0.  1.
         -3   -1    0    0    0  501 -0.00000000000E+00 -0.00000000000E+00 -0.10104161052E+03  0.10104161052E+03  0.00000000000E+00 0.  1.
         35    2    1    2    0    0  0.00000000000E+00  0.00000000000E+00  0.83997370073E+02  0.28608059111E+03  0.27347128996E+03 0.  0.
         25    2    3    3    0    0  0.54829240245E+02 -0.87021311182E+01  0.46265387492E+02  0.14424272419E+03  0.12483390857E+03 0.  0.
         25    2    3    3    0    0 -0.54829240245E+02  0.87021311182E+01  0.37731982581E+02  0.14183786692E+03  0.12494921093E+03 0.  0.
          5    1    4    4  502    0  0.25112936022E+02 -0.32544895359E+02  0.81967855333E+02  0.91818566083E+02  0.47000000000E+01 0. -1.
         -5    1    4    4    0  502  0.29716304223E+02  0.23842764241E+02 -0.35702467841E+02  0.52424158107E+02  0.47000000000E+01 0. -1.
          5    1    5    5  503    0 -0.53481292946E+02 -0.50373968783E+02  0.42151873268E+01  0.73740377205E+02  0.47000000000E+01 0.  1.
         -5    1    5    5    0  503 -0.13479472984E+01  0.59076099901E+02  0.33516795254E+02  0.68097489715E+02  0.47000000000E+01 0.  1.
<mgrwt>
<rscale>  0 0.27347129E+03</rscale>
<asrwt>0</asrwt>
<pdfrwt beam="1">  1        3 0.28467536E-01 0.27347129E+03</pdfrwt>
<pdfrwt beam="2">  1       -3 0.15544863E-01 0.27347129E+03</pdfrwt>
<totfact> 0.10499789E+03</totfact>
</mgrwt>
</event>
<event>
 9    1  0.8285222E-001  0.2747558E+03  0.7818608E-02  0.1098588E+00
         -2   -1    0    0    0  501 -0.00000000000E+00  0.00000000000E+00  0.14847761546E+02  0.14847761546E+02  0.00000000000E+00 0. -1.
          2   -1    0    0  501    0  0.00000000000E+00 -0.00000000000E+00 -0.12710797884E+04  0.12710797884E+04  0.00000000000E+00 0. -1.
         35    2    1    2    0    0  0.00000000000E+00 -0.71054273576E-14 -0.12562320269E+04  0.12859275499E+04  0.27475581598E+03 0.  0.
         25    2    3    3    0    0  0.18163583584E+02  0.46537911011E+02 -0.50525156984E+03  0.52280805804E+03  0.12471336653E+03 0.  0.
         25    2    3    3    0    0 -0.18163583584E+02 -0.46537911011E+02 -0.75098045701E+03  0.76311949191E+03  0.12603181815E+03 0.  0.
          5    1    4    4  502    0  0.47889718649E+02  0.17254705711E+02 -0.76518015707E+02  0.92023077264E+02  0.47000000000E+01 0.  1.
         -5    1    4    4    0  502 -0.29726135064E+02  0.29283205300E+02 -0.42873355413E+03  0.43078498077E+03  0.47000000000E+01 0.  1.
          5    1    5    5  503    0  0.47270024887E+02 -0.56454537903E+01 -0.15689733236E+03  0.16402801378E+03  0.47000000000E+01 0.  1.
         -5    1    5    5    0  503 -0.65433608471E+02 -0.40892457221E+02 -0.59408312465E+03  0.59909147813E+03  0.47000000000E+01 0.  1.
<mgrwt>
<rscale>  0 0.27475582E+03</rscale>
<asrwt>0</asrwt>
<pdfrwt beam="1">  1        2 0.19555070E+00 0.27475582E+03</pdfrwt>
<pdfrwt beam="2">  1       -2 0.22842714E-02 0.27475582E+03</pdfrwt>
<totfact> 0.11558319E+04</totfact>
</mgrwt>
</event>
<event>
 9    1  0.8285222E-001  0.2746772E+03  0.7818608E-02  0.1098632E+00
          2   -1    0    0  501    0  0.00000000000E+00  0.00000000000E+00  0.29600217103E+04  0.29600217103E+04  0.00000000000E+00 0.  1.
         -2   -1    0    0    0  501 -0.00000000000E+00 -0.00000000000E+00 -0.63722125287E+01  0.63722125287E+01  0.00000000000E+00 0.  1.
         35    2    1    2    0    0  0.14210854715E-13  0.00000000000E+00  0.29536494978E+04  0.29663939228E+04  0.27467717362E+03 0.  0.
         25    2    3    3    0    0  0.28820455604E+02 -0.43264432323E+02  0.16251164959E+04  0.16310903080E+04  0.12942000540E+03 0.  0.
         25    2    3    3    0    0 -0.28820455604E+02  0.43264432323E+02  0.13285330019E+04  0.13353036149E+04  0.12382801372E+03 0.  0.
          5    1    4    4  502    0 -0.51024206775E+02 -0.89032263395E+01  0.54844445999E+03  0.55090484914E+03  0.47000000000E+01 0. -1.
         -5    1    4    4    0  502  0.79844662379E+02 -0.34361205984E+02  0.10766720359E+04  0.10801854588E+04  0.47000000000E+01 0. -1.
          5    1    5    5  503    0  0.36029690105E+02 -0.15057223002E+02  0.23319254827E+03  0.23648617952E+03  0.47000000000E+01 0.  1.
         -5    1    5    5    0  503 -0.64850145709E+02  0.58321655325E+02  0.10953404536E+04  0.10988174353E+04  0.47000000000E+01 0.  1.
<mgrwt>
<rscale>  0 0.27467717E+03</rscale>
<asrwt>0</asrwt>
<pdfrwt beam="1">  1        2 0.45538686E+00 0.27467717E+03</pdfrwt>
<pdfrwt beam="2">  1       -2 0.98034275E-03 0.27467717E+03</pdfrwt>
<totfact> 0.48281734E+03</totfact>
</mgrwt>
</event>
<event>
 9    1  0.8285222E-001  0.2833283E+03  0.7818608E-02  0.1093885E+00
         -3   -1    0    0    0  501 -0.00000000000E+00  0.00000000000E+00  0.32162062391E+02  0.32162062391E+02  0.00000000000E+00 0.  1.
          3   -1    0    0  501    0  0.00000000000E+00 -0.00000000000E+00 -0.62398759601E+03  0.62398759601E+03  0.00000000000E+00 0.  1.
         35    2    1    2    0    0  0.35527136788E-14 -0.71054273576E-14 -0.59182553362E+03  0.65614965840E+03  0.28332827599E+03 0.  0.
         25    2    3    3    0    0  0.19292291601E+02 -0.26785605435E+02 -0.16183899394E+03  0.20708133339E+03  0.12490459362E+03 0.  0.
         25    2    3    3    0    0 -0.19292291601E+02  0.26785605435E+02 -0.42998653968E+03  0.44906832501E+03  0.12523687574E+03 0.  0.
          5    1    4    4  502    0  0.63300427504E+02 -0.34053790290E+02 -0.13944344603E+03  0.15694957596E+03  0.47000000000E+01 0. -1.
         -5    1    4    4    0  502 -0.44008135903E+02  0.72681848548E+01 -0.22395547914E+02  0.50131757431E+02  0.47000000000E+01 0. -1.
          5    1    5    5  503    0 -0.11728884988E+02  0.32087518429E+02 -0.21903588462E+02  0.40853797492E+02  0.47000000000E+01 0.  1.
         -5    1    5    5    0  503 -0.75634066129E+01 -0.53019129935E+01 -0.40808295122E+03  0.40821452751E+03  0.47000000000E+01 0.  1.
<mgrwt>
<rscale>  0 0.28332828E+03</rscale>
<asrwt>0</asrwt>
<pdfrwt beam="1">  1        3 0.95998093E-01 0.28332828E+03</pdfrwt>
<pdfrwt beam="2">  1       -3 0.49480095E-02 0.28332828E+03</pdfrwt>
<totfact> 0.58705164E+02</totfact>
</mgrwt>
</event>
<event>
 9    1  0.8285222E-001  0.2778278E+03  0.7818608E-02  0.1096881E+00
          4   -1    0    0  501    0  0.00000000000E+00  0.00000000000E+00  0.34875491337E+03  0.34875491337E+03  0.00000000000E+00 0. -1.
         -4   -1    0    0    0  501 -0.00000000000E+00 -0.00000000000E+00 -0.55331316179E+02  0.55331316179E+02  0.00000000000E+00 0. -1.
         35    2    1    2    0    0 -0.71054273576E-14  0.71054273576E-14  0.29342359719E+03  0.40408622955E+03  0.27782777673E+03 0.  0.
         25    2    3    3    0    0 -0.54167120327E+02  0.29008198832E+02  0.15619645674E+03  0.20905378811E+03  0.12462183076E+03 0.  0.
         25    2    3    3    0    0  0.54167120327E+02 -0.29008198832E+02  0.13722714046E+03  0.19503244144E+03  0.12422082198E+03 0.  0.
          5    1    4    4  502    0 -0.60916876829E+02 -0.35538273434E+02  0.58907852656E+02  0.92011194242E+02  0.47000000000E+01 0. -1.
         -5    1    4    4    0  502  0.67497565021E+01  0.64546472266E+02  0.97288604082E+02  0.11704259387E+03  0.47000000000E+01 0. -1.
          5    1    5    5  503    0 -0.19863936392E+02 -0.14580743895E+02 -0.11965115296E+02  0.27792589760E+02  0.47000000000E+01 0. -1.
         -5    1    5    5    0  503  0.74031056719E+02 -0.14427454937E+02  0.14919225575E+03  0.16723985168E+03  0.47000000000E+01 0. -1.
<mgrwt>
<rscale>  0 0.27782778E+03</rscale>
<asrwt>0</asrwt>
<pdfrwt beam="1">  1        4 0.53654601E-01 0.27782778E+03</pdfrwt>
<pdfrwt beam="2">  1       -4 0.85125104E-02 0.27782778E+03</pdfrwt>
<totfact> 0.62641882E+02</totfact>
</mgrwt>
</event>
<event>
 9    1  0.8285222E-001  0.2761487E+03  0.7818608E-02  0.1097811E+00
          2   -1    0    0  501    0  0.00000000000E+00  0.00000000000E+00  0.30679516776E+04  0.30679516776E+04  0.00000000000E+00 0.  1.
         -2   -1    0    0    0  501 -0.00000000000E+00 -0.00000000000E+00 -0.62140877656E+01  0.62140877656E+01  0.00000000000E+00 0.  1.
         35    2    1    2    0    0 -0.14210854715E-13 -0.71054273576E-14  0.30617375899E+04  0.30741657654E+04  0.27614866276E+03 0.  0.
         25    2    3    3    0    0  0.35552978246E+02 -0.37905941958E+02  0.19031300202E+04  0.19079483255E+04  0.12514816931E+03 0.  0.
         25    2    3    3    0    0 -0.35552978246E+02  0.37905941958E+02  0.11586075697E+04  0.11662174399E+04  0.12243668544E+03 0.  0.
          5    1    4    4  502    0  0.60776448718E+02  0.20505370739E+02  0.12658743981E+04  0.12675071317E+04  0.47000000000E+01 0.  1.
         -5    1    4    4    0  502 -0.25223470472E+02 -0.58411312697E+02  0.63725562204E+03  0.64044119381E+03  0.47000000000E+01 0.  1.
          5    1    5    5  503    0  0.30357926259E+02 -0.23438914004E+02  0.49610950851E+03  0.49761201835E+03  0.47000000000E+01 0.  1.
         -5    1    5    5    0  503 -0.65910904504E+02  0.61344855962E+02  0.66249806118E+03  0.66860542157E+03  0.47000000000E+01 0.  1.
<mgrwt>
<rscale>  0 0.27614866E+03</rscale>
<asrwt>0</asrwt>
<pdfrwt beam="1">  1        2 0.47199135E+00 0.27614866E+03</pdfrwt>
<pdfrwt beam="2">  1       -2 0.95601596E-03 0.27614866E+03</pdfrwt>
<totfact> 0.43192947E+03</totfact>
</mgrwt>
</event>
<event>
 9    1  0.8285222E-001  0.2765454E+03  0.7818608E-02  0.1097591E+00
          1   -1    0    0  501    0  0.00000000000E+00  0.00000000000E+00  0.58719595564E+02  0.58719595564E+02  0.00000000000E+00 0.  1.
         -1   -1    0    0    0  501 -0.00000000000E+00 -0.00000000000E+00 -0.32560400062E+03  0.32560400062E+03  0.00000000000E+00 0.  1.
         35    2    1    2    0    0  0.00000000000E+00 -0.35527136788E-14 -0.26688440506E+03  0.38432359618E+03  0.27654536865E+03 0.  0.
         25    2    3    3    0    0 -0.30268000904E+02 -0.11306332380E+02 -0.20412497087E+03  0.24137052518E+03  0.12469459356E+03 0.  0.
         25    2    3    3    0    0  0.30268000904E+02  0.11306332380E+02 -0.62759434189E+02  0.14295307101E+03  0.12430948837E+03 0.  0.
          5    1    4    4  502    0 -0.36054962994E+02  0.23766177693E+02 -0.20070483513E+03  0.20535167981E+03  0.47000000000E+01 0.  1.
         -5    1    4    4    0  502  0.57869620902E+01 -0.35072510074E+02 -0.34201357421E+01  0.36018845367E+02  0.47000000000E+01 0.  1.
          5    1    5    5  503    0  0.26102012818E+02 -0.48769106614E+02  0.46011901888E+00  0.55516146683E+02  0.47000000000E+01 0.  1.
         -5    1    5    5    0  503  0.41659880857E+01  0.60075438994E+02 -0.63219553208E+02  0.87436924322E+02  0.47000000000E+01 0.  1.
<mgrwt>
<rscale>  0 0.27654537E+03</rscale>
<asrwt>0</asrwt>
<pdfrwt beam="1">  1        1 0.90337839E-02 0.27654537E+03</pdfrwt>
<pdfrwt beam="2">  1       -1 0.50092923E-01 0.27654537E+03</pdfrwt>
<totfact> 0.30050338E+03</totfact>
</mgrwt>
</event>
<event>
 9    1  0.8285222E-001  0.2803323E+03  0.7818608E-02  0.1095508E+00
          1   -1    0    0  501    0  0.00000000000E+00  0.00000000000E+00  0.30262573113E+02  0.30262573113E+02  0.00000000000E+00 0. -1.
         -1   -1    0    0    0  501 -0.00000000000E+00 -0.00000000000E+00 -0.64920293235E+03  0.64920293235E+03  0.00000000000E+00 0. -1.
         35    2    1    2    0    0  0.71054273576E-14 -0.71054273576E-14 -0.61894035924E+03  0.67946550547E+03  0.28033231141E+03 0.  0.
         25    2    3    3    0    0 -0.63464306608E+02 -0.89601523396E+01 -0.31960466617E+03  0.34896930738E+03  0.12459707987E+03 0.  0.
         25    2    3    3    0    0  0.63464306608E+02  0.89601523396E+01 -0.29933569307E+03  0.33049619808E+03  0.12457077210E+03 0.  0.
          5    1    4    4  502    0 -0.38678895112E+02  0.35548000060E+02 -0.44087294452E+02  0.68742248781E+02  0.47000000000E+01 0. -1.
         -5    1    4    4    0  502 -0.24785411496E+02 -0.44508152400E+02 -0.27551737172E+03  0.28022705860E+03  0.47000000000E+01 0. -1.
          5    1    5    5  503    0  0.38438529832E+02  0.49753259680E+02 -0.62313999882E+02  0.88645541375E+02  0.47000000000E+01 0.  1.
         -5    1    5    5    0  503  0.25025776776E+02 -0.40793107340E+02 -0.23702169319E+03  0.24185065671E+03  0.47000000000E+01 0.  1.
<mgrwt>
<rscale>  0 0.28033231E+03</rscale>
<asrwt>0</asrwt>
<pdfrwt beam="1">  1        1 0.46557813E-02 0.28033231E+03</pdfrwt>
<pdfrwt beam="2">  1       -1 0.99877357E-01 0.28033231E+03</pdfrwt>
<totfact> 0.18575967E+03</totfact>
</mgrwt>
</event>
<event>
 9    1  0.8285222E-001  0.2783438E+03  0.7818608E-02  0.1096597E+00
          2   -1    0    0  501    0  0.00000000000E+00  0.00000000000E+00  0.23585949134E+04  0.23585949134E+04  0.00000000000E+00 0.  1.
         -2   -1    0    0    0  501 -0.00000000000E+00 -0.00000000000E+00 -0.82120182306E+01  0.82120182306E+01  0.00000000000E+00 0.  1.
         35    2    1    2    0    0  0.35527136788E-14  0.71054273576E-14  0.23503828952E+04  0.23668069317E+04  0.27834384799E+03 0.  0.
         25    2    3    3    0    0 -0.29008962673E+02 -0.24852949809E+02  0.76902945502E+03  0.78007938472E+03  0.12513334791E+03 0.  0.
         25    2    3    3    0    0  0.29008962673E+02  0.24852949809E+02  0.15813534402E+04  0.15867275469E+04  0.12476544553E+03 0.  0.
          5    1    4    4  502    0  0.36317745361E+02 -0.12275257187E+02  0.54414672060E+03  0.54551572306E+03  0.47000000000E+01 0. -1.
         -5    1    4    4    0  502 -0.65326708033E+02 -0.12577692622E+02  0.22488273442E+03  0.23456366166E+03  0.47000000000E+01 0. -1.
          5    1    5    5  503    0 -0.16266355771E+01  0.70161509346E+02  0.11016883412E+04  0.11039314175E+04  0.47000000000E+01 0. -1.
         -5    1    5    5    0  503  0.30635598250E+02 -0.45308559537E+02  0.47966509897E+03  0.48279612945E+03  0.47000000000E+01 0. -1.
<mgrwt>
<rscale>  0 0.27834385E+03</rscale>
<asrwt>0</asrwt>
<pdfrwt beam="1">  1        2 0.36286022E+00 0.27834385E+03</pdfrwt>
<pdfrwt beam="2">  1       -2 0.12633893E-02 0.27834385E+03</pdfrwt>
<totfact> 0.72610797E+03</totfact>
</mgrwt>
</event>
<event>
 9    1  0.8285222E-001  0.2758293E+03  0.7818608E-02  0.1097989E+00
          2   -1    0    0  501    0  0.00000000000E+00  0.00000000000E+00  0.94609968270E+03  0.94609968270E+03  0.00000000000E+00 0.  1.
         -2   -1    0    0    0  501 -0.00000000000E+00 -0.00000000000E+00 -0.20104067412E+02  0.20104067412E+02  0.00000000000E+00 0.  1.
         35    2    1    2    0    0  0.17763568394E-14  0.00000000000E+00  0.92599561529E+03  0.96620375011E+03  0.27582930809E+03 0.  0.
         25    2    3    3    0    0 -0.91261092508E+01 -0.38998608749E+02  0.31180628453E+03  0.33802009763E+03  0.12421855727E+03 0.  0.
         25    2    3    3    0    0  0.91261092508E+01  0.38998608749E+02  0.61418933075E+03  0.62818365248E+03  0.12562639007E+03 0.  0.
          5    1    4    4  502    0  0.11368363647E+02 -0.21401726265E+02  0.30952418433E+03  0.31050697941E+03  0.47000000000E+01 0.  1.
         -5    1    4    4    0  502 -0.20494472898E+02 -0.17596882484E+02  0.22821002035E+01  0.27513118214E+02  0.47000000000E+01 0.  1.
          5    1    5    5  503    0  0.67166168840E+02  0.25197779381E+02  0.34860741137E+03  0.35594302857E+03  0.47000000000E+01 0.  1.
         -5    1    5    5    0  503 -0.58040059589E+02  0.13800829367E+02  0.26558191938E+03  0.27224062391E+03  0.47000000000E+01 0.  1.
<mgrwt>
<rscale>  0 0.27582931E+03</rscale>
<asrwt>0</asrwt>
<pdfrwt beam="1">  1        2 0.14555376E+00 0.27582931E+03</pdfrwt>
<pdfrwt beam="2">  1       -2 0.30929342E-02 0.27582931E+03</pdfrwt>
<totfact> 0.11453158E+04</totfact>
</mgrwt>
</event>
<event>
 9    1  0.8285222E-001  0.2796189E+03  0.7818608E-02  0.1095897E+00
          2   -1    0    0  501    0  0.00000000000E+00  0.00000000000E+00  0.52597493056E+03  0.52597493056E+03  0.00000000000E+00 0. -1.
         -2   -1    0    0    0  501 -0.00000000000E+00 -0.00000000000E+00 -0.37162751590E+02  0.37162751590E+02  0.00000000000E+00 0. -1.
         35    2    1    2    0    0 -0.71054273576E-14  0.00000000000E+00  0.48881217897E+03  0.56313768215E+03  0.27961885263E+03 0.  0.
         25    2    3    3    0    0  0.40704941982E+02 -0.46516803039E+02  0.24730620621E+03  0.28445396575E+03  0.12622596300E+03 0.  0.
         25    2    3    3    0    0 -0.40704941982E+02  0.46516803039E+02  0.24150597276E+03  0.27868371640E+03  0.12457436992E+03 0.  0.
          5    1    4    4  502    0  0.50108427033E+02  0.17159410347E+02  0.19273859139E+03  0.19993887675E+03  0.47000000000E+01 0.  1.
         -5    1    4    4    0  502 -0.94034850507E+01 -0.63676213386E+02  0.54567614815E+02  0.84515089001E+02  0.47000000000E+01 0.  1.
          5    1    5    5  503    0 -0.79302717897E+02  0.28319653591E+02  0.20727572365E+03  0.22377720943E+03  0.47000000000E+01 0.  1.
         -5    1    5    5    0  503  0.38597775915E+02  0.18197149448E+02  0.34230249114E+02  0.54906506973E+02  0.47000000000E+01 0.  1.
<mgrwt>
<rscale>  0 0.27961885E+03</rscale>
<asrwt>0</asrwt>
<pdfrwt beam="1">  1        2 0.80919215E-01 0.27961885E+03</pdfrwt>
<pdfrwt beam="2">  1       -2 0.57173468E-02 0.27961885E+03</pdfrwt>
<totfact> 0.93260297E+03</totfact>
</mgrwt>
</event>
<event>
 9    1  0.8285222E-001  0.2752301E+03  0.7818608E-02  0.1098323E+00
          2   -1    0    0  501    0  0.00000000000E+00  0.00000000000E+00  0.12757178601E+03  0.12757178601E+03  0.00000000000E+00 0. -1.
         -2   -1    0    0    0  501 -0.00000000000E+00 -0.00000000000E+00 -0.14844901494E+03  0.14844901494E+03  0.00000000000E+00 0. -1.
         35    2    1    2    0    0 -0.71054273576E-14  0.00000000000E+00 -0.20877228927E+02  0.27602080095E+03  0.27523012893E+03 0.  0.
         25    2    3    3    0    0  0.64708608703E+01 -0.44001159108E+02 -0.53713121062E+02  0.14246492972E+03  0.12423036175E+03 0.  0.
         25    2    3    3    0    0 -0.64708608703E+01  0.44001159108E+02  0.32835892134E+02  0.13355587123E+03  0.12157713965E+03 0.  0.
          5    1    4    4  502    0  0.64588400147E+02 -0.13666358339E+02 -0.25204980748E+02  0.70822396446E+02  0.47000000000E+01 0.  1.
         -5    1    4    4    0  502 -0.58117539277E+02 -0.30334800769E+02 -0.28508140314E+02  0.71642533271E+02  0.47000000000E+01 0.  1.
          5    1    5    5  503    0  0.54928415071E+02  0.34251825951E+02  0.29013714978E+02  0.71092925246E+02  0.47000000000E+01 0.  1.
         -5    1    5    5    0  503 -0.61399275941E+02  0.97493331562E+01  0.38221771567E+01  0.62462945986E+02  0.47000000000E+01 0.  1.
<mgrwt>
<rscale>  0 0.27523013E+03</rscale>
<asrwt>0</asrwt>
<pdfrwt beam="1">  1        2 0.19626429E-01 0.27523013E+03</pdfrwt>
<pdfrwt beam="2">  1       -2 0.22838310E-01 0.27523013E+03</pdfrwt>
<totfact> 0.47038365E+03</totfact>
</mgrwt>
</event>
<event>
 9    1  0.8285222E-001  0.2804397E+03  0.7818608E-02  0.1095449E+00
          2   -1    0    0  501    0  0.00000000000E+00  0.00000000000E+00  0.60509032712E+03  0.60509032712E+03  0.00000000000E+00 0. -1.
         -2   -1    0    0    0  501 -0.00000000000E+00 -0.00000000000E+00 -0.32493661244E+02  0.32493661244E+02  0.00000000000E+00 0. -1.
         35    2    1    2    0    0  0.88817841970E-15 -0.35527136788E-14  0.57259666588E+03  0.63758398836E+03  0.28043965562E+03 0.  0.
         25    2    3    3    0    0  0.18488349560E+01 -0.26300422868E+01  0.43526667766E+03  0.45287714734E+03  0.12502117654E+03 0.  0.
         25    2    3    3    0    0 -0.18488349560E+01  0.26300422868E+01  0.13732998821E+03  0.18470684103E+03  0.12347775567E+03 0.  0.
          5    1    4    4  502    0 -0.56098361759E+01 -0.45020522087E+02  0.61274387821E+02  0.76386898574E+02  0.47000000000E+01 0. -1.
         -5    1    4    4    0  502  0.74586711319E+01  0.42390479800E+02  0.37399228984E+03  0.37649024876E+03  0.47000000000E+01 0. -1.
          5    1    5    5  503    0  0.52354698724E+02 -0.16268282407E+01  0.21788104422E+02  0.56925148598E+02  0.47000000000E+01 0. -1.
         -5    1    5    5    0  503 -0.54203533680E+02  0.42568705275E+01  0.11554188379E+03  0.12778169243E+03  0.47000000000E+01 0. -1.
<mgrwt>
<rscale>  0 0.28043966E+03</rscale>
<asrwt>0</asrwt>
<pdfrwt beam="1">  1        2 0.93090811E-01 0.28043966E+03</pdfrwt>
<pdfrwt beam="2">  1       -2 0.49990252E-02 0.28043966E+03</pdfrwt>
<totfact> 0.97485674E+03</totfact>
</mgrwt>
</event>
<event>
 9    1  0.8285222E-001  0.2919156E+03  0.7818608E-02  0.1089353E+00
          1   -1    0    0  501    0  0.00000000000E+00  0.00000000000E+00  0.58482872587E+03  0.58482872587E+03  0.00000000000E+00 0.  1.
         -1   -1    0    0    0  501 -0.00000000000E+00 -0.00000000000E+00 -0.36427208365E+02  0.36427208365E+02  0.00000000000E+00 0.  1.
         35    2    1    2    0    0  0.00000000000E+00  0.00000000000E+00  0.54840151751E+03  0.62125593424E+03  0.29191558955E+03 0.  0.
         25    2    3    3    0    0 -0.44385795110E+02  0.24074639757E+02  0.15367072916E+03  0.20405671618E+03  0.12439760179E+03 0.  0.
         25    2    3    3    0    0  0.44385795110E+02 -0.24074639757E+02  0.39473078835E+03  0.41719921806E+03  0.12527212455E+03 0.  0.
          5    1    4    4  502    0 -0.36894487625E+02 -0.30874032037E+02  0.13802395495E+03  0.14624332878E+03  0.47000000000E+01 0.  1.
         -5    1    4    4    0  502 -0.74913074850E+01  0.54948671794E+02  0.15646774205E+02  0.57813387401E+02  0.47000000000E+01 0.  1.
          5    1    5    5  503    0  0.17811881448E+02 -0.52167458135E+02  0.36233414500E+03  0.36653353113E+03  0.47000000000E+01 0.  1.
         -5    1    5    5    0  503  0.26573913662E+02  0.28092818378E+02  0.32396643351E+02  0.50665686931E+02  0.47000000000E+01 0.  1.
<mgrwt>
<rscale>  0 0.29191559E+03</rscale>
<asrwt>0</asrwt>
<pdfrwt beam="1">  1        1 0.89973643E-01 0.29191559E+03</pdfrwt>
<pdfrwt beam="2">  1       -1 0.56041863E-02 0.29191559E+03</pdfrwt>
<totfact> 0.53928713E+03</totfact>
</mgrwt>
</event>
<event>
 9    1  0.8285222E-001  0.2773417E+03  0.7818608E-02  0.1097150E+00
          2   -1    0    0  501    0  0.00000000000E+00  0.00000000000E+00  0.70913489143E+02  0.70913489143E+02  0.00000000000E+00 0.  1.
         -2   -1    0    0    0  501 -0.00000000000E+00 -0.00000000000E+00 -0.27116997094E+03  0.27116997094E+03  0.00000000000E+00 0.  1.
         35    2    1    2    0    0  0.00000000000E+00 -0.14210854715E-13 -0.20025648180E+03  0.34208346009E+03  0.27734172993E+03 0.  0.
         25    2    3    3    0    0 -0.24610520409E+02  0.53619496540E+02 -0.11171451265E+03  0.17776743683E+03  0.12506158937E+03 0.  0.
         25    2    3    3    0    0  0.24610520409E+02 -0.53619496540E+02 -0.88541969149E+02  0.16431602326E+03  0.12521719960E+03 0.  0.
          5    1    4    4  502    0  0.14430285349E+02  0.66077656648E+02 -0.10676263729E+02  0.68633537359E+02  0.47000000000E+01 0.  1.
         -5    1    4    4    0  502 -0.39040805757E+02 -0.12458160108E+02 -0.10103824892E+03  0.10913389947E+03  0.47000000000E+01 0.  1.
          5    1    5    5  503    0 -0.48297062351E+02 -0.19771443297E+02 -0.13178704155E+02  0.54030402969E+02  0.47000000000E+01 0. -1.
         -5    1    5    5    0  503  0.72907582760E+02 -0.33848053242E+02 -0.75363264994E+02  0.11028562029E+03  0.47000000000E+01 0. -1.
<mgrwt>
<rscale>  0 0.27734173E+03</rscale>
<asrwt>0</asrwt>
<pdfrwt beam="1">  1        2 0.10909768E-01 0.27734173E+03</pdfrwt>
<pdfrwt beam="2">  1       -2 0.41718457E-01 0.27734173E+03</pdfrwt>
<totfact> 0.31449972E+03</totfact>
</mgrwt>
</event>
<event>
 9    1  0.8285222E-001  0.2739536E+03  0.7818608E-02  0.1099038E+00
         -1   -1    0    0    0  501 -0.00000000000E+00  0.00000000000E+00  0.11961364377E+02  0.11961364377E+02  0.00000000000E+00 0.  1.
          1   -1    0    0  501    0  0.00000000000E+00 -0.00000000000E+00 -0.15686034833E+04  0.15686034833E+04  0.00000000000E+00 0.  1.
         35    2    1    2    0    0  0.17763568394E-14  0.35527136788E-14 -0.15566421190E+04  0.15805648477E+04  0.27395355684E+03 0.  0.
         25    2    3    3    0    0  0.76992652815E+01 -0.11065995732E+02 -0.46857580949E+03  0.48519549099E+03  0.12517843383E+03 0.  0.
         25    2    3    3    0    0 -0.76992652815E+01  0.11065995732E+02 -0.10880663095E+04  0.10953693567E+04  0.12555476448E+03 0.  0.
          5    1    4    4  502    0 -0.33756354752E+02 -0.24311487301E+02 -0.40968366745E+03  0.41181711630E+03  0.47000000000E+01 0. -1.
         -5    1    4    4    0  502  0.41455620033E+02  0.13245491569E+02 -0.58892142037E+02  0.73378374695E+02  0.47000000000E+01 0. -1.
          5    1    5    5  503    0  0.45453625181E+01  0.59079285901E+02 -0.85418561578E+03  0.85625123564E+03  0.47000000000E+01 0.  1.
         -5    1    5    5    0  503 -0.12244627800E+02 -0.48013290169E+02 -0.23388069370E+03  0.23911812108E+03  0.47000000000E+01 0.  1.
<mgrwt>
<rscale>  0 0.27395356E+03</rscale>
<asrwt>0</asrwt>
<pdfrwt beam="1">  1        1 0.24132341E+00 0.27395356E+03</pdfrwt>
<pdfrwt beam="2">  1       -1 0.18402115E-02 0.27395356E+03</pdfrwt>
<totfact> 0.49929928E+03</totfact>
</mgrwt>
</event>
<event>
 9    1  0.8285222E-001  0.2735254E+03  0.7818608E-02  0.1099279E+00
          2   -1    0    0  501    0  0.00000000000E+00  0.00000000000E+00  0.64576965997E+03  0.64576965997E+03  0.00000000000E+00 0.  1.
         -2   -1    0    0    0  501 -0.00000000000E+00 -0.00000000000E+00 -0.28963933189E+02  0.28963933189E+02  0.00000000000E+00 0.  1.
         35    2    1    2    0    0  0.35527136788E-14 -0.35527136788E-14  0.61680572678E+03  0.67473359316E+03  0.27352535010E+03 0.  0.
         25    2    3    3    0    0  0.58681107085E+01  0.95011957530E+01  0.21843727947E+03  0.25710836344E+03  0.13514865166E+03 0.  0.
         25    2    3    3    0    0 -0.58681107085E+01 -0.95011957530E+01  0.39836844731E+03  0.41762522972E+03  0.12485473656E+03 0.  0.
          5    1    4    4  502    0  0.25374809036E+02 -0.26180267457E+02  0.19801900797E+01  0.36814378855E+02  0.47000000000E+01 0.  1.
         -5    1    4    4    0  502 -0.19506698327E+02  0.35681463210E+02  0.21645708939E+03  0.22029398459E+03  0.47000000000E+01 0.  1.
          5    1    5    5  503    0 -0.32966925772E+02  0.47735116068E+02  0.24098121045E+03  0.24791025249E+03  0.47000000000E+01 0. -1.
         -5    1    5    5    0  503  0.27098815064E+02 -0.57236311821E+02  0.15738723686E+03  0.16971497723E+03  0.47000000000E+01 0. -1.
<mgrwt>
<rscale>  0 0.27352535E+03</rscale>
<asrwt>0</asrwt>
<pdfrwt beam="1">  1        2 0.99349168E-01 0.27352535E+03</pdfrwt>
<pdfrwt beam="2">  1       -2 0.44559902E-02 0.27352535E+03</pdfrwt>
<totfact> 0.10741272E+04</totfact>
</mgrwt>
</event>
<event>
 9    1  0.8285222E-001  0.2793868E+03  0.7818608E-02  0.1096024E+00
         -2   -1    0    0    0  501 -0.00000000000E+00  0.00000000000E+00  0.34277649516E+02  0.34277649516E+02  0.00000000000E+00 0.  1.
          2   -1    0    0  501    0  0.00000000000E+00 -0.00000000000E+00 -0.56929957481E+03  0.56929957481E+03  0.00000000000E+00 0.  1.
         35    2    1    2    0    0 -0.17763568394E-14  0.00000000000E+00 -0.53502192530E+03  0.60357722433E+03  0.27938683788E+03 0.  0.
         25    2    3    3    0    0  0.11976624941E+02 -0.39740925913E+02 -0.36452226250E+03  0.38800832020E+03  0.12629804410E+03 0.  0.
         25    2    3    3    0    0 -0.11976624941E+02  0.39740925913E+02 -0.17049966279E+03  0.21556890413E+03  0.12520797370E+03 0.  0.
          5    1    4    4  502    0 -0.15668309597E+02  0.40306118112E+02 -0.17581708751E+03  0.18111824133E+03  0.47000000000E+01 0. -1.
         -5    1    4    4    0  502  0.27644934539E+02 -0.80047044025E+02 -0.18870517500E+03  0.20689007887E+03  0.47000000000E+01 0. -1.
          5    1    5    5  503    0 -0.27902282685E+02 -0.61251135551E+01 -0.16379175505E+03  0.16633064485E+03  0.47000000000E+01 0.  1.
         -5    1    5    5    0  503  0.15925657744E+02  0.45866039468E+02 -0.67079077492E+01  0.49238259285E+02  0.47000000000E+01 0.  1.
<mgrwt>
<rscale>  0 0.27938684E+03</rscale>
<asrwt>0</asrwt>
<pdfrwt beam="1">  1        2 0.87584553E-01 0.27938684E+03</pdfrwt>
<pdfrwt beam="2">  1       -2 0.52734844E-02 0.27938684E+03</pdfrwt>
<totfact> 0.96418264E+03</totfact>
</mgrwt>
</event>
<event>
 9    1  0.8285222E-001  0.2815362E+03  0.7818608E-02  0.1094853E+00
         -2   -1    0    0    0  501 -0.00000000000E+00  0.00000000000E+00  0.89734803770E+01  0.89734803770E+01  0.00000000000E+00 0. -1.
          2   -1    0    0  501    0  0.00000000000E+00 -0.00000000000E+00 -0.22082462840E+04  0.22082462840E+04  0.00000000000E+00 0. -1.
         35    2    1    2    0    0  0.35527136788E-14  0.00000000000E+00 -0.21992728036E+04  0.22172197644E+04  0.28153617670E+03 0.  0.
         25    2    3    3    0    0  0.16970237585E+02  0.50911622791E+02 -0.95353038177E+03  0.96408467895E+03  0.13175392567E+03 0.  0.
         25    2    3    3    0    0 -0.16970237585E+02 -0.50911622791E+02 -0.12457424219E+04  0.12531350854E+04  0.12487344964E+03 0.  0.
          5    1    4    4  502    0 -0.14950229140E+02 -0.27527703571E+02 -0.58761374742E+03  0.58846689794E+03  0.47000000000E+01 0. -1.
         -5    1    4    4    0  502  0.31920466726E+02  0.78439326362E+02 -0.36591663435E+03  0.37561778101E+03  0.47000000000E+01 0. -1.
          5    1    5    5  503    0  0.18423125245E+02 -0.42370701943E+02 -0.15579424108E+03  0.16256882690E+03  0.47000000000E+01 0.  1.
         -5    1    5    5    0  503 -0.35393362830E+02 -0.85409208478E+01 -0.10899481808E+04  0.10905662585E+04  0.47000000000E+01 0.  1.
<mgrwt>
<rscale>  0 0.28153618E+03</rscale>
<asrwt>0</asrwt>
<pdfrwt beam="1">  1        2 0.33973016E+00 0.28153618E+03</pdfrwt>
<pdfrwt beam="2">  1       -2 0.13805356E-02 0.28153618E+03</pdfrwt>
<totfact> 0.76800501E+03</totfact>
</mgrwt>
</event>
<event>
 9    1  0.8285222E-001  0.2675015E+03  0.7818608E-02  0.1102718E+00
          1   -1    0    0  501    0  0.00000000000E+00  0.00000000000E+00  0.24901557548E+02  0.24901557548E+02  0.00000000000E+00 0. -1.
         -1   -1    0    0    0  501 -0.00000000000E+00 -0.00000000000E+00 -0.71839910930E+03  0.71839910930E+03  0.00000000000E+00 0. -1.
         35    2    1    2    0    0  0.00000000000E+00  0.17763568394E-14 -0.69349755176E+03  0.74330066685E+03  0.26750145243E+03 0.  0.
         25    2    3    3    0    0 -0.32213837460E+02 -0.11016670378E+02 -0.43954461020E+03  0.45831158216E+03  0.12526349683E+03 0.  0.
         25    2    3    3    0    0  0.32213837460E+02  0.11016670378E+02 -0.25395294156E+03  0.28498908469E+03  0.12477012269E+03 0.  0.
          5    1    4    4  502    0 -0.96023270709E+01  0.39304381571E+02 -0.35449540513E+03  0.35682785955E+03  0.47000000000E+01 0.  1.
         -5    1    4    4    0  502 -0.22611510389E+02 -0.50321051949E+02 -0.85049205073E+02  0.10148372261E+03  0.47000000000E+01 0.  1.
          5    1    5    5  503    0 -0.65626530297E+01  0.14160160208E+02  0.93468970844E+01  0.18789173399E+02  0.47000000000E+01 0. -1.
         -5    1    5    5    0  503  0.38776490490E+02 -0.31434898303E+01 -0.26329983864E+03  0.26619991129E+03  0.47000000000E+01 0. -1.
<mgrwt>
<rscale>  0 0.26750145E+03</rscale>
<asrwt>0</asrwt>
<pdfrwt beam="1">  1        1 0.38310090E-02 0.26750145E+03</pdfrwt>
<pdfrwt beam="2">  1       -1 0.11052294E+00 0.26750145E+03</pdfrwt>
<totfact> 0.19351905E+03</totfact>
</mgrwt>
</event>
<event>
 9    1  0.8285222E-001  0.2732211E+03  0.7818608E-02  0.1099450E+00
         -2   -1    0    0    0  501 -0.00000000000E+00  0.00000000000E+00  0.75222859000E+02  0.75222859000E+02  0.00000000000E+00 0.  1.
          2   -1    0    0  501    0  0.00000000000E+00 -0.00000000000E+00 -0.24809542429E+03  0.24809542429E+03  0.00000000000E+00 0.  1.
         35    2    1    2    0    0  0.00000000000E+00  0.35527136788E-14 -0.17287256529E+03  0.32331828329E+03  0.27322113476E+03 0.  0.
         25    2    3    3    0    0 -0.27330407209E+02 -0.54566582784E+01 -0.21077648294E+02  0.12562612395E+03  0.12066867648E+03 0.  0.
         25    2    3    3    0    0  0.27330407209E+02  0.54566582784E+01 -0.15179491700E+03  0.19769215934E+03  0.12354661777E+03 0.  0.
          5    1    4    4  502    0 -0.99919934926E+01  0.56773561194E+02 -0.11141066735E+01  0.57848149653E+02  0.47000000000E+01 0.  1.
         -5    1    4    4    0  502 -0.17338413716E+02 -0.62230219472E+02 -0.19963541621E+02  0.67777974297E+02  0.47000000000E+01 0.  1.
          5    1    5    5  503    0 -0.38237595144E+02 -0.18179619091E+02 -0.16990158921E+02  0.45862487208E+02  0.47000000000E+01 0. -1.
         -5    1    5    5    0  503  0.65568002353E+02  0.23636277370E+02 -0.13480475808E+03  0.15182967213E+03  0.47000000000E+01 0. -1.
<mgrwt>
<rscale>  0 0.27322113E+03</rscale>
<asrwt>0</asrwt>
<pdfrwt beam="1">  1        2 0.38168527E-01 0.27322113E+03</pdfrwt>
<pdfrwt beam="2">  1       -2 0.11572747E-01 0.27322113E+03</pdfrwt>
<totfact> 0.69960574E+03</totfact>
</mgrwt>
</event>
<event>
 9    1  0.8285222E-001  0.2766264E+03  0.7818608E-02  0.1097546E+00
          2   -1    0    0  501    0  0.00000000000E+00  0.00000000000E+00  0.88104005634E+03  0.88104005634E+03  0.00000000000E+00 0. -1.
         -2   -1    0    0    0  501 -0.00000000000E+00 -0.00000000000E+00 -0.21713587774E+02  0.21713587774E+02  0.00000000000E+00 0. -1.
         35    2    1    2    0    0  0.00000000000E+00  0.10658141036E-13  0.85932646856E+03  0.90275364411E+03  0.27662639495E+03 0.  0.
         25    2    3    3    0    0  0.52757954635E+02 -0.24921858729E+02  0.45585086570E+03  0.47612517329E+03  0.12446151236E+03 0.  0.
         25    2    3    3    0    0 -0.52757954635E+02  0.24921858729E+02  0.40347560286E+03  0.42662847082E+03  0.12575686538E+03 0.  0.
          5    1    4    4  502    0  0.83598591127E+02  0.16278530470E+02  0.26415152651E+03  0.27758212109E+03  0.47000000000E+01 0. -1.
         -5    1    4    4    0  502 -0.30840636491E+02 -0.41200389199E+02  0.19169933919E+03  0.19854305220E+03  0.47000000000E+01 0. -1.
          5    1    5    5  503    0 -0.22246106511E+02 -0.51433783145E+02  0.16862597977E+03  0.17775582792E+03  0.47000000000E+01 0.  1.
         -5    1    5    5    0  503 -0.30511848124E+02  0.76355641874E+02  0.23484962309E+03  0.24887264291E+03  0.47000000000E+01 0.  1.
<mgrwt>
<rscale>  0 0.27662639E+03</rscale>
<asrwt>0</asrwt>
<pdfrwt beam="1">  1        2 0.13554460E+00 0.27662639E+03</pdfrwt>
<pdfrwt beam="2">  1       -2 0.33405526E-02 0.27662639E+03</pdfrwt>
<totfact> 0.11240303E+04</totfact>
</mgrwt>
</event>
<event>
 9    1  0.8285222E-001  0.2689263E+03  0.7818608E-02  0.1101896E+00
         -2   -1    0    0    0  501 -0.00000000000E+00  0.00000000000E+00  0.10708272988E+02  0.10708272988E+02  0.00000000000E+00 0. -1.
          2   -1    0    0  501    0  0.00000000000E+00 -0.00000000000E+00 -0.16884462037E+04  0.16884462037E+04  0.00000000000E+00 0. -1.
         35    2    1    2    0    0  0.35527136788E-14 -0.10658141036E-13 -0.16777379307E+04  0.16991544767E+04  0.26892633099E+03 0.  0.
         25    2    3    3    0    0 -0.13060897860E+02  0.22670878509E+02 -0.10744742586E+04  0.10821133822E+04  0.12565780480E+03 0.  0.
         25    2    3    3    0    0  0.13060897860E+02 -0.22670878509E+02 -0.60326367215E+03  0.61704109446E+03  0.12699645005E+03 0.  0.
          5    1    4    4  502    0  0.47995740244E+02  0.40538641661E+02 -0.61810902822E+03  0.62131138193E+03  0.47000000000E+01 0. -1.
         -5    1    4    4    0  502 -0.61056638104E+02 -0.17867763152E+02 -0.45636523036E+03  0.46080200032E+03  0.47000000000E+01 0. -1.
          5    1    5    5  503    0  0.43276242449E+02  0.98070098986E+01 -0.52550286271E+03  0.52739393182E+03  0.47000000000E+01 0. -1.
         -5    1    5    5    0  503 -0.30215344589E+02 -0.32477888407E+02 -0.77760809442E+02  0.89647162639E+02  0.47000000000E+01 0. -1.
<mgrwt>
<rscale>  0 0.26892633E+03</rscale>
<asrwt>0</asrwt>
<pdfrwt beam="1">  1        2 0.25976105E+00 0.26892633E+03</pdfrwt>
<pdfrwt beam="2">  1       -2 0.16474260E-02 0.26892633E+03</pdfrwt>
<totfact> 0.11134858E+04</totfact>
</mgrwt>
</event>
<event>
 9    1  0.8285222E-001  0.2757366E+03  0.7818608E-02  0.1098041E+00
         -1   -1    0    0    0  501 -0.00000000000E+00  0.00000000000E+00  0.22350353561E+02  0.22350353561E+02  0.00000000000E+00 0. -1.
          1   -1    0    0  501    0  0.00000000000E+00 -0.00000000000E+00 -0.85044137812E+03  0.85044137812E+03  0.00000000000E+00 0. -1.
         35    2    1    2    0    0  0.00000000000E+00  0.00000000000E+00 -0.82809102455E+03  0.87279173168E+03  0.27573658070E+03 0.  0.
         25    2    3    3    0    0  0.43970846460E+02  0.36169364178E+02 -0.44230778039E+03  0.46309757993E+03  0.12482602972E+03 0.  0.
         25    2    3    3    0    0 -0.43970846460E+02 -0.36169364178E+02 -0.38578324416E+03  0.40969415175E+03  0.12561420405E+03 0.  0.
          5    1    4    4  502    0  0.21435601729E+02  0.52524812207E+02 -0.42738304020E+03  0.43115738887E+03  0.47000000000E+01 0.  1.
         -5    1    4    4    0  502  0.22535244730E+02 -0.16355448029E+02 -0.14924740187E+02  0.31940191059E+02  0.47000000000E+01 0.  1.
          5    1    5    5  503    0 -0.38877267942E+02  0.60737107012E+01 -0.35441503554E+03  0.35662366627E+03  0.47000000000E+01 0.  1.
         -5    1    5    5    0  503 -0.50935785177E+01 -0.42243074880E+02 -0.31368208622E+02  0.53070485485E+02  0.47000000000E+01 0.  1.
<mgrwt>
<rscale>  0 0.27573658E+03</rscale>
<asrwt>0</asrwt>
<pdfrwt beam="1">  1        1 0.13083714E+00 0.27573658E+03</pdfrwt>
<pdfrwt beam="2">  1       -1 0.34385158E-02 0.27573658E+03</pdfrwt>
<totfact> 0.64384750E+03</totfact>
</mgrwt>
</event>
<event>
 9    1  0.8285222E-001  0.2753977E+03  0.7818608E-02  0.1098230E+00
          1   -1    0    0  501    0  0.00000000000E+00  0.00000000000E+00  0.47269163562E+03  0.47269163562E+03  0.00000000000E+00 0. -1.
         -1   -1    0    0    0  501 -0.00000000000E+00 -0.00000000000E+00 -0.40112774584E+02  0.40112774584E+02  0.00000000000E+00 0. -1.
         35    2    1    2    0    0  0.88817841970E-15  0.71054273576E-14  0.43257886103E+03  0.51280441020E+03  0.27539769808E+03 0.  0.
         25    2    3    3    0    0  0.39073173583E+01 -0.41946700639E+02  0.30725080248E+03  0.33443142084E+03  0.12516599698E+03 0.  0.
         25    2    3    3    0    0 -0.39073173583E+01  0.41946700639E+02  0.12532805856E+03  0.17837298936E+03  0.11972889479E+03 0.  0.
          5    1    4    4  502    0 -0.74999351816E+01 -0.48279287601E+02  0.31478362733E+02  0.58310513283E+02  0.47000000000E+01 0.  1.
         -5    1    4    4    0  502  0.11407252540E+02  0.63325869622E+01  0.27577243974E+03  0.27612090756E+03  0.47000000000E+01 0.  1.
          5    1    5    5  503    0 -0.88356821980E+01 -0.31367430775E+02 -0.10575664711E+00  0.32925463972E+02  0.47000000000E+01 0. -1.
         -5    1    5    5    0  503  0.49283648397E+01  0.73314131414E+02  0.12543381520E+03  0.14544752539E+03  0.47000000000E+01 0. -1.
<mgrwt>
<rscale>  0 0.27539770E+03</rscale>
<asrwt>0</asrwt>
<pdfrwt beam="1">  1        1 0.72721786E-01 0.27539770E+03</pdfrwt>
<pdfrwt beam="2">  1       -1 0.61711964E-02 0.27539770E+03</pdfrwt>
<totfact> 0.62004792E+03</totfact>
</mgrwt>
</event>
<event>
 9    1  0.8285222E-001  0.2750826E+03  0.7818608E-02  0.1098405E+00
          1   -1    0    0  501    0  0.00000000000E+00  0.00000000000E+00  0.17775263902E+04  0.17775263902E+04  0.00000000000E+00 0. -1.
         -1   -1    0    0    0  501 -0.00000000000E+00 -0.00000000000E+00 -0.10642661617E+02  0.10642661617E+02  0.00000000000E+00 0. -1.
         35    2    1    2    0    0  0.14210854715E-13  0.71054273576E-14  0.17668837286E+04  0.17881690518E+04  0.27508261948E+03 0.  0.
         25    2    3    3    0    0  0.54152049437E+02  0.27288378413E+02  0.95756857757E+03  0.96698526370E+03  0.12019076261E+03 0.  0.
         25    2    3    3    0    0 -0.54152049437E+02 -0.27288378413E+02  0.80931515101E+03  0.82118378811E+03  0.12519864275E+03 0.  0.
          5    1    4    4  502    0  0.88978919554E+00 -0.33422920612E+02  0.98705098600E+02  0.10432003564E+03  0.47000000000E+01 0. -1.
         -5    1    4    4    0  502  0.53262260241E+02  0.60711299025E+02  0.85886347897E+03  0.86266522806E+03  0.47000000000E+01 0. -1.
          5    1    5    5  503    0  0.36527050748E+02 -0.18080671567E+02  0.38406770745E+03  0.38625280585E+03  0.47000000000E+01 0.  1.
         -5    1    5    5    0  503 -0.90679100184E+02 -0.92077068461E+01  0.42524744356E+03  0.43493098226E+03  0.47000000000E+01 0.  1.
<mgrwt>
<rscale>  0 0.27508262E+03</rscale>
<asrwt>0</asrwt>
<pdfrwt beam="1">  1        1 0.27346536E+00 0.27508262E+03</pdfrwt>
<pdfrwt beam="2">  1       -1 0.16373340E-02 0.27508262E+03</pdfrwt>
<totfact> 0.43229521E+03</totfact>
</mgrwt>
</event>
<event>
 9    1  0.8285222E-001  0.2742353E+03  0.7818608E-02  0.1098880E+00
          2   -1    0    0  501    0  0.00000000000E+00  0.00000000000E+00  0.39704946773E+03  0.39704946773E+03  0.00000000000E+00 0. -1.
         -2   -1    0    0    0  501 -0.00000000000E+00 -0.00000000000E+00 -0.47352395817E+02  0.47352395817E+02  0.00000000000E+00 0. -1.
         35    2    1    2    0    0 -0.71054273576E-14 -0.35527136788E-14  0.34969707191E+03  0.44440186355E+03  0.27423525342E+03 0.  0.
         25    2    3    3    0    0 -0.38642512969E+02 -0.18724930518E+02  0.23754963528E+03  0.27193053190E+03  0.12518992820E+03 0.  0.
         25    2    3    3    0    0  0.38642512969E+02  0.18724930518E+02  0.11214743663E+03  0.17247133165E+03  0.12379598486E+03 0.  0.
          5    1    4    4  502    0  0.43966650541E+02 -0.14075398192E+02  0.11480594754E+03  0.12382923235E+03  0.47000000000E+01 0.  1.
         -5    1    4    4    0  502 -0.82609163510E+02 -0.46495323259E+01  0.12274368775E+03  0.14810129955E+03  0.47000000000E+01 0.  1.
          5    1    5    5  503    0 -0.13998429306E+02 -0.45511887917E+02  0.40704675816E+02  0.62819173810E+02  0.47000000000E+01 0.  1.
         -5    1    5    5    0  503  0.52640942276E+02  0.64236818435E+02  0.71442760813E+02  0.10965215784E+03  0.47000000000E+01 0.  1.
<mgrwt>
<rscale>  0 0.27423525E+03</rscale>
<asrwt>0</asrwt>
<pdfrwt beam="1">  1        2 0.61084531E-01 0.27423525E+03</pdfrwt>
<pdfrwt beam="2">  1       -2 0.72849842E-02 0.27423525E+03</pdfrwt>
<totfact> 0.87525797E+03</totfact>
</mgrwt>
</event>
<event>
 9    1  0.8285222E-001  0.2725678E+03  0.7818608E-02  0.1099819E+00
          1   -1    0    0  501    0  0.00000000000E+00  0.00000000000E+00  0.18569481375E+04  0.18569481375E+04  0.00000000000E+00 0. -1.
         -1   -1    0    0    0  501 -0.00000000000E+00 -0.00000000000E+00 -0.10002059315E+02  0.10002059315E+02  0.00000000000E+00 0. -1.
         35    2    1    2    0    0  0.00000000000E+00 -0.17763568394E-14  0.18469460782E+04  0.18669501969E+04  0.27256782947E+03 0.  0.
         25    2    3    3    0    0  0.49795431526E+02  0.52031922173E+01  0.10398502041E+04  0.10487724508E+04  0.12699822254E+03 0.  0.
         25    2    3    3    0    0 -0.49795431526E+02 -0.52031922173E+01  0.80709587416E+03  0.81817774602E+03  0.12451672893E+03 0.  0.
          5    1    4    4  502    0  0.70669098841E+02  0.96713138671E+01  0.29268728827E+03  0.30128988459E+03  0.47000000000E+01 0. -1.
         -5    1    4    4    0  502 -0.20873667315E+02 -0.44681216498E+01  0.74716291581E+03  0.74748256626E+03  0.47000000000E+01 0. -1.
          5    1    5    5  503    0  0.14208722608E+02 -0.38854774054E+02  0.53434880713E+03  0.53596858019E+03  0.47000000000E+01 0. -1.
         -5    1    5    5    0  503 -0.64004154134E+02  0.33651581837E+02  0.27274706703E+03  0.28220916583E+03  0.47000000000E+01 0. -1.
<mgrwt>
<rscale>  0 0.27256783E+03</rscale>
<asrwt>0</asrwt>
<pdfrwt beam="1">  1        1 0.28568405E+00 0.27256783E+03</pdfrwt>
<pdfrwt beam="2">  1       -1 0.15387798E-02 0.27256783E+03</pdfrwt>
<totfact> 0.42018573E+03</totfact>
</mgrwt>
</event>
<event>
 9    1  0.8285222E-001  0.2762495E+03  0.7818608E-02  0.1097755E+00
         -1   -1    0    0    0  501 -0.00000000000E+00  0.00000000000E+00  0.59207115098E+02  0.59207115098E+02  0.00000000000E+00 0.  1.
          1   -1    0    0  501    0  0.00000000000E+00 -0.00000000000E+00 -0.32223242275E+03  0.32223242275E+03  0.00000000000E+00 0.  1.
         35    2    1    2    0    0  0.35527136788E-14 -0.71054273576E-14 -0.26302530765E+03  0.38143953784E+03  0.27624954039E+03 0.  0.
         25    2    3    3    0    0  0.12919759463E+02  0.24765599157E+02 -0.20003651823E+03  0.23783495579E+03  0.12558105941E+03 0.  0.
         25    2    3    3    0    0 -0.12919759463E+02 -0.24765599157E+02 -0.62988789417E+02  0.14360458206E+03  0.12599378282E+03 0.  0.
          5    1    4    4  502    0 -0.67090719860E+01  0.74510996449E+02 -0.11769881540E+03  0.13954211331E+03  0.47000000000E+01 0. -1.
         -5    1    4    4    0  502  0.19628831449E+02 -0.49745397292E+02 -0.82337702826E+02  0.98292842479E+02  0.47000000000E+01 0. -1.
          5    1    5    5  503    0 -0.32994026444E+02 -0.68699212524E+02 -0.55736864490E+02  0.94535049826E+02  0.47000000000E+01 0. -1.
         -5    1    5    5    0  503  0.20074266981E+02  0.43933613368E+02 -0.72519249274E+01  0.49069532232E+02  0.47000000000E+01 0. -1.
<mgrwt>
<rscale>  0 0.27624954E+03</rscale>
<asrwt>0</asrwt>
<pdfrwt beam="1">  1        1 0.49574220E-01 0.27624954E+03</pdfrwt>
<pdfrwt beam="2">  1       -1 0.91087867E-02 0.27624954E+03</pdfrwt>
<totfact> 0.56019309E+03</totfact>
</mgrwt>
</event>
<event>
 9    1  0.8285222E-001  0.2788635E+03  0.7818608E-02  0.1096311E+00
         -1   -1    0    0    0  501 -0.00000000000E+00  0.00000000000E+00  0.13277612089E+03  0.13277612089E+03  0.00000000000E+00 0.  1.
          1   -1    0    0  501    0  0.00000000000E+00 -0.00000000000E+00 -0.14642102598E+03  0.14642102598E+03  0.00000000000E+00 0.  1.
         35    2    1    2    0    0  0.00000000000E+00  0.00000000000E+00 -0.13644905093E+02  0.27919714687E+03  0.27886352107E+03 0.  0.
         25    2    3    3    0    0 -0.38833697041E+01  0.64204749263E+02 -0.19732578564E+02  0.13876148943E+03  0.12135916077E+03 0.  0.
         25    2    3    3    0    0  0.38833697041E+01 -0.64204749263E+02  0.60876734712E+01  0.14043565744E+03  0.12469075237E+03 0.  0.
          5    1    4    4  502    0 -0.40615576222E+02  0.45537123050E+02  0.34683538905E+02  0.70344100523E+02  0.47000000000E+01 0.  1.
         -5    1    4    4    0  502  0.36732206517E+02  0.18667626213E+02 -0.54416117469E+02  0.68417388904E+02  0.47000000000E+01 0.  1.
          5    1    5    5  503    0 -0.20444444484E+02 -0.61012414278E+02 -0.48293485050E+02  0.80590574539E+02  0.47000000000E+01 0. -1.
         -5    1    5    5    0  503  0.24327814189E+02 -0.31923349852E+01  0.54381158521E+02  0.59845082905E+02  0.47000000000E+01 0. -1.
<mgrwt>
<rscale>  0 0.27886352E+03</rscale>
<asrwt>0</asrwt>
<pdfrwt beam="1">  1        1 0.22526312E-01 0.27886352E+03</pdfrwt>
<pdfrwt beam="2">  1       -1 0.20427095E-01 0.27886352E+03</pdfrwt>
<totfact> 0.42384606E+03</totfact>
</mgrwt>
</event>
<event>
 9    1  0.8285222E-001  0.2759376E+03  0.7818608E-02  0.1097929E+00
         -2   -1    0    0    0  501 -0.00000000000E+00  0.00000000000E+00  0.53619239229E+02  0.53619239229E+02  0.00000000000E+00 0.  1.
          2   -1    0    0  501    0  0.00000000000E+00 -0.00000000000E+00 -0.35501051190E+03  0.35501051190E+03  0.00000000000E+00 0.  1.
         35    2    1    2    0    0  0.00000000000E+00  0.00000000000E+00 -0.30139127267E+03  0.40862975113E+03  0.27593762749E+03 0.  0.
         25    2    3    3    0    0 -0.22611482046E+01  0.33505291031E+02 -0.22466552438E+03  0.25953191629E+03  0.12551693276E+03 0.  0.
         25    2    3    3    0    0  0.22611482046E+01 -0.33505291031E+02 -0.76725748295E+02  0.14909783484E+03  0.12335155688E+03 0.  0.
          5    1    4    4  502    0 -0.53157810143E+02  0.12353786267E+02 -0.18085344487E+03  0.18896673605E+03  0.47000000000E+01 0.  1.
         -5    1    4    4    0  502  0.50896661939E+02  0.21151504764E+02 -0.43812079509E+02  0.70565180232E+02  0.47000000000E+01 0.  1.
          5    1    5    5  503    0 -0.33940270443E+02  0.26759760114E+02 -0.64197448675E+02  0.77533406578E+02  0.47000000000E+01 0. -1.
         -5    1    5    5    0  503  0.36201418648E+02 -0.60265051145E+02 -0.12528299620E+02  0.71564428266E+02  0.47000000000E+01 0. -1.
<mgrwt>
<rscale>  0 0.27593763E+03</rscale>
<asrwt>0</asrwt>
<pdfrwt beam="1">  1        2 0.54617003E-01 0.27593763E+03</pdfrwt>
<pdfrwt beam="2">  1       -2 0.82491136E-02 0.27593763E+03</pdfrwt>
<totfact> 0.81416139E+03</totfact>
</mgrwt>
</event>
<event>
 9    1  0.8285222E-001  0.2822970E+03  0.7818608E-02  0.1094441E+00
          2   -1    0    0  501    0  0.00000000000E+00  0.00000000000E+00  0.35252695457E+03  0.35252695457E+03  0.00000000000E+00 0. -1.
         -2   -1    0    0    0  501 -0.00000000000E+00 -0.00000000000E+00 -0.56514556456E+02  0.56514556456E+02  0.00000000000E+00 0. -1.
         35    2    1    2    0    0  0.00000000000E+00  0.00000000000E+00  0.29601239811E+03  0.40904151102E+03  0.28229703843E+03 0.  0.
         25    2    3    3    0    0 -0.63592101509E+02  0.11161075994E+02  0.13342496316E+03  0.19390261494E+03  0.12500991278E+03 0.  0.
         25    2    3    3    0    0  0.63592101509E+02 -0.11161075994E+02  0.16258743495E+03  0.21513889608E+03  0.12522597819E+03 0.  0.
          5    1    4    4  502    0 -0.52718077001E+01  0.33320618669E+02 -0.11580302932E+02  0.35975672348E+02  0.47000000000E+01 0.  1.
         -5    1    4    4    0  502 -0.58320293809E+02 -0.22159542675E+02  0.14500526609E+03  0.15792694259E+03  0.47000000000E+01 0.  1.
          5    1    5    5  503    0  0.91208850355E+02 -0.35588325794E+02  0.87658159214E+02  0.13149762809E+03  0.47000000000E+01 0. -1.
         -5    1    5    5    0  503 -0.27616748846E+02  0.24427249800E+02  0.74929275735E+02  0.83641267995E+02  0.47000000000E+01 0. -1.
<mgrwt>
<rscale>  0 0.28229704E+03</rscale>
<asrwt>0</asrwt>
<pdfrwt beam="1">  1        2 0.54234915E-01 0.28229704E+03</pdfrwt>
<pdfrwt beam="2">  1       -2 0.86945474E-02 0.28229704E+03</pdfrwt>
<totfact> 0.75601990E+03</totfact>
</mgrwt>
</event>
<event>
 9    1  0.8285222E-001  0.2789604E+03  0.7818608E-02  0.1096258E+00
         -1   -1    0    0    0  501 -0.00000000000E+00  0.00000000000E+00  0.32302052296E+03  0.32302052296E+03  0.00000000000E+00 0.  1.
          1   -1    0    0  501    0  0.00000000000E+00 -0.00000000000E+00 -0.60227520542E+02  0.60227520542E+02  0.00000000000E+00 0.  1.
         35    2    1    2    0    0  0.71054273576E-14  0.00000000000E+00  0.26279300242E+03  0.38324804350E+03  0.27896039276E+03 0.  0.
         25    2    3    3    0    0  0.40725452754E+02 -0.44821056140E+02  0.10192657852E+03  0.17025061233E+03  0.12218328042E+03 0.  0.
         25    2    3    3    0    0 -0.40725452754E+02  0.44821056140E+02  0.16086642390E+03  0.21299743117E+03  0.12578716061E+03 0.  0.
          5    1    4    4  502    0 -0.31814748336E+02 -0.51167708784E+02  0.28803855608E+02  0.66948224262E+02  0.47000000000E+01 0. -1.
         -5    1    4    4    0  502  0.72540201090E+02  0.63466526447E+01  0.73122722914E+02  0.10330238807E+03  0.47000000000E+01 0. -1.
          5    1    5    5  503    0  0.33039852498E+02 -0.19207543533E+02  0.26214566962E+02  0.46581703518E+02  0.47000000000E+01 0.  1.
         -5    1    5    5    0  503 -0.73765305252E+02  0.64028599672E+02  0.13465185693E+03  0.16641572765E+03  0.47000000000E+01 0.  1.
<mgrwt>
<rscale>  0 0.27896039E+03</rscale>
<asrwt>0</asrwt>
<pdfrwt beam="1">  1        1 0.92657725E-02 0.27896039E+03</pdfrwt>
<pdfrwt beam="2">  1       -1 0.49695464E-01 0.27896039E+03</pdfrwt>
<totfact> 0.29475863E+03</totfact>
</mgrwt>
</event>
<event>
 9    1  0.8285222E-001  0.2837654E+03  0.7818608E-02  0.1093650E+00
          1   -1    0    0  501    0  0.00000000000E+00  0.00000000000E+00  0.27527514209E+03  0.27527514209E+03  0.00000000000E+00 0.  1.
         -1   -1    0    0    0  501 -0.00000000000E+00 -0.00000000000E+00 -0.73129363054E+02  0.73129363054E+02  0.00000000000E+00 0.  1.
         35    2    1    2    0    0  0.00000000000E+00 -0.35527136788E-14  0.20214577903E+03  0.34840450514E+03  0.28376536649E+03 0.  0.
         25    2    3    3    0    0 -0.52291396484E+02  0.52586079184E+01  0.15525622002E+03  0.20609753964E+03  0.12493862048E+03 0.  0.
         25    2    3    3    0    0  0.52291396484E+02 -0.52586079184E+01  0.46889559016E+02  0.14230696550E+03  0.12365515995E+03 0.  0.
          5    1    4    4  502    0 -0.22245578118E+02 -0.59095856600E+02  0.85912703444E+02  0.10672520146E+03  0.47000000000E+01 0. -1.
         -5    1    4    4    0  502 -0.30045818366E+02  0.64354464519E+02  0.69343516573E+02  0.99372338181E+02  0.47000000000E+01 0. -1.
          5    1    5    5  503    0  0.64956175034E+02 -0.36164113390E+02 -0.11007121305E+02  0.75302021831E+02  0.47000000000E+01 0.  1.
         -5    1    5    5    0  503 -0.12664778550E+02  0.30905505472E+02  0.57896680321E+02  0.67004943671E+02  0.47000000000E+01 0.  1.
<mgrwt>
<rscale>  0 0.28376537E+03</rscale>
<asrwt>0</asrwt>
<pdfrwt beam="1">  1        1 0.42350021E-01 0.28376537E+03</pdfrwt>
<pdfrwt beam="2">  1       -1 0.11250671E-01 0.28376537E+03</pdfrwt>
<totfact> 0.49300630E+03</totfact>
</mgrwt>
</event>
<event>
 9    1  0.8285222E-001  0.2736214E+03  0.7818608E-02  0.1099225E+00
          2   -1    0    0  501    0  0.00000000000E+00  0.00000000000E+00  0.18783676369E+03  0.18783676369E+03  0.00000000000E+00 0. -1.
         -2   -1    0    0    0  501 -0.00000000000E+00 -0.00000000000E+00 -0.99645910352E+02  0.99645910352E+02  0.00000000000E+00 0. -1.
         35    2    1    2    0    0  0.00000000000E+00 -0.71054273576E-14  0.88190853343E+02  0.28748267405E+03  0.27362138305E+03 0.  0.
         25    2    3    3    0    0  0.33930148654E+01 -0.38147605177E+02  0.42919567643E+01  0.13419974420E+03  0.12854726025E+03 0.  0.
         25    2    3    3    0    0 -0.33930148654E+01  0.38147605177E+02  0.83898896579E+02  0.15328292985E+03  0.12243316301E+03 0.  0.
          5    1    4    4  502    0  0.13762421610E+02  0.43811484173E+02 -0.16255683213E+02  0.48940654171E+02  0.47000000000E+01 0.  1.
         -5    1    4    4    0  502 -0.10369406744E+02 -0.81959089350E+02  0.20547639977E+02  0.85259090025E+02  0.47000000000E+01 0.  1.
          5    1    5    5  503    0 -0.17068126275E+02  0.72438183944E+02  0.88563983582E+02  0.11577685700E+03  0.47000000000E+01 0. -1.
         -5    1    5    5    0  503  0.13675111410E+02 -0.34290578767E+02 -0.46650870038E+01  0.37506072855E+02  0.47000000000E+01 0. -1.
<mgrwt>
<rscale>  0 0.27362138E+03</rscale>
<asrwt>0</asrwt>
<pdfrwt beam="1">  1        2 0.28897964E-01 0.27362138E+03</pdfrwt>
<pdfrwt beam="2">  1       -2 0.15330140E-01 0.27362138E+03</pdfrwt>
<totfact> 0.59884060E+03</totfact>
</mgrwt>
</event>
<event>
 9    1  0.8285222E-001  0.2773956E+03  0.7818608E-02  0.1097120E+00
          1   -1    0    0  501    0  0.00000000000E+00  0.00000000000E+00  0.45594746777E+02  0.45594746777E+02  0.00000000000E+00 0.  1.
         -1   -1    0    0    0  501 -0.00000000000E+00 -0.00000000000E+00 -0.42191427537E+03  0.42191427537E+03  0.00000000000E+00 0.  1.
         35    2    1    2    0    0 -0.71054273576E-14  0.00000000000E+00 -0.37631952860E+03  0.46750902215E+03  0.27739556267E+03 0.  0.
         25    2    3    3    0    0  0.48218958627E+02  0.68787563109E+00 -0.24870966115E+03  0.28282335973E+03  0.12572595640E+03 0.  0.
         25    2    3    3    0    0 -0.48218958627E+02 -0.68787563109E+00 -0.12760986744E+03  0.18468566242E+03  0.12449487737E+03 0.  0.
          5    1    4    4  502    0  0.13488863665E+02  0.55007875642E+02 -0.56932000123E+02  0.80443511010E+02  0.47000000000E+01 0.  1.
         -5    1    4    4    0  502  0.34730094962E+02 -0.54320000010E+02 -0.19177766103E+03  0.20237984872E+03  0.47000000000E+01 0.  1.
          5    1    5    5  503    0 -0.28917732749E+02  0.52544583242E+02 -0.10969673599E+03  0.12511048070E+03  0.47000000000E+01 0.  1.
         -5    1    5    5    0  503 -0.19301225878E+02 -0.53232458874E+02 -0.17913131454E+02  0.59575181717E+02  0.47000000000E+01 0.  1.
<mgrwt>
<rscale>  0 0.27739556E+03</rscale>
<asrwt>0</asrwt>
<pdfrwt beam="1">  1        1 0.70145768E-02 0.27739556E+03</pdfrwt>
<pdfrwt beam="2">  1       -1 0.64909885E-01 0.27739556E+03</pdfrwt>
<totfact> 0.25891652E+03</totfact>
</mgrwt>
</event>
<event>
 9    1  0.8285222E-001  0.2829744E+03  0.7818608E-02  0.1094075E+00
          2   -1    0    0  501    0  0.00000000000E+00  0.00000000000E+00  0.14487699553E+04  0.14487699553E+04  0.00000000000E+00 0.  1.
         -2   -1    0    0    0  501 -0.00000000000E+00 -0.00000000000E+00 -0.13817670760E+02  0.13817670760E+02  0.00000000000E+00 0.  1.
         35    2    1    2    0    0  0.00000000000E+00  0.35527136788E-14  0.14349522845E+04  0.14625876260E+04  0.28297438929E+03 0.  0.
         25    2    3    3    0    0  0.61609220103E+02 -0.20759804587E+02  0.63474984134E+03  0.65024338159E+03  0.12522950420E+03 0.  0.
         25    2    3    3    0    0 -0.61609220103E+02  0.20759804587E+02  0.80020244315E+03  0.81234424443E+03  0.12390543146E+03 0.  0.
          5    1    4    4  502    0  0.84319429992E+02  0.76572754522E+01  0.56603855690E+03  0.57235490567E+03  0.47000000000E+01 0. -1.
         -5    1    4    4    0  502 -0.22710209889E+02 -0.28417080039E+02  0.68711284440E+02  0.77888475916E+02  0.47000000000E+01 0. -1.
          5    1    5    5  503    0 -0.33595742543E+02  0.46293413532E+02  0.14377600862E+03  0.15480757316E+03  0.47000000000E+01 0. -1.
         -5    1    5    5    0  503 -0.28013477560E+02 -0.25533608945E+02  0.65642643454E+03  0.65753667127E+03  0.47000000000E+01 0. -1.
<mgrwt>
<rscale>  0 0.28297439E+03</rscale>
<asrwt>0</asrwt>
<pdfrwt beam="1">  1        2 0.22288757E+00 0.28297439E+03</pdfrwt>
<pdfrwt beam="2">  1       -2 0.21257966E-02 0.28297439E+03</pdfrwt>
<totfact> 0.10278651E+04</totfact>
</mgrwt>
</event>
<event>
 9    1  0.8285222E-001  0.2743798E+03  0.7818608E-02  0.1098799E+00
         -1   -1    0    0    0  501 -0.00000000000E+00  0.00000000000E+00  0.71862012754E+02  0.71862012754E+02  0.00000000000E+00 0. -1.
          1   -1    0    0  501    0  0.00000000000E+00 -0.00000000000E+00 -0.26190575676E+03  0.26190575676E+03  0.00000000000E+00 0. -1.
         35    2    1    2    0    0  0.35527136788E-14 -0.71054273576E-14 -0.19004374400E+03  0.33376776951E+03  0.27437984498E+03 0.  0.
         25    2    3    3    0    0 -0.30271427277E+02 -0.31916026618E+02 -0.13484228491E+03  0.18825486614E+03  0.12378392772E+03 0.  0.
         25    2    3    3    0    0  0.30271427277E+02  0.31916026618E+02 -0.55201459092E+02  0.14551290337E+03  0.12724705064E+03 0.  0.
          5    1    4    4  502    0 -0.72932551743E+02  0.26354588134E+01 -0.56199286685E+02  0.92230974032E+02  0.47000000000E+01 0.  1.
         -5    1    4    4    0  502  0.42661124466E+02 -0.34551485431E+02 -0.78642998226E+02  0.96023892111E+02  0.47000000000E+01 0.  1.
          5    1    5    5  503    0  0.14334642663E+02 -0.44145344432E+02  0.52472881866E+01  0.46945899167E+02  0.47000000000E+01 0.  1.
         -5    1    5    5    0  503  0.15936784614E+02  0.76061371049E+02 -0.60448747279E+02  0.98567004202E+02  0.47000000000E+01 0.  1.
<mgrwt>
<rscale>  0 0.27437984E+03</rscale>
<asrwt>0</asrwt>
<pdfrwt beam="1">  1        1 0.40293193E-01 0.27437984E+03</pdfrwt>
<pdfrwt beam="2">  1       -1 0.11055694E-01 0.27437984E+03</pdfrwt>
<totfact> 0.53870437E+03</totfact>
</mgrwt>
</event>
<event>
 9    1  0.8285222E-001  0.2729947E+03  0.7818608E-02  0.1099578E+00
         -2   -1    0    0    0  501 -0.00000000000E+00  0.00000000000E+00  0.36210430375E+02  0.36210430375E+02  0.00000000000E+00 0. -1.
          2   -1    0    0  501    0  0.00000000000E+00 -0.00000000000E+00 -0.51453491280E+03  0.51453491280E+03  0.00000000000E+00 0. -1.
         35    2    1    2    0    0  0.00000000000E+00  0.35527136788E-14 -0.47832448242E+03  0.55074534317E+03  0.27299472988E+03 0.  0.
         25    2    3    3    0    0  0.52520145747E+02 -0.50759177155E+01 -0.26425945618E+03  0.29730871941E+03  0.12559969669E+03 0.  0.
         25    2    3    3    0    0 -0.52520145747E+02  0.50759177155E+01 -0.21406502624E+03  0.25343662376E+03  0.12498862409E+03 0.  0.
          5    1    4    4  502    0  0.26530203286E+01  0.34598744705E+02 -0.21168654646E+03  0.21456326714E+03  0.47000000000E+01 0. -1.
         -5    1    4    4    0  502  0.49867125418E+02 -0.39674662421E+02 -0.52572909717E+02  0.82745452273E+02  0.47000000000E+01 0. -1.
          5    1    5    5  503    0 -0.38933059706E+02  0.28975638132E+02 -0.21964599931E+03  0.22499294602E+03  0.47000000000E+01 0.  1.
         -5    1    5    5    0  503 -0.13587086041E+02 -0.23899720416E+02  0.55809730722E+01  0.28443677742E+02  0.47000000000E+01 0.  1.
<mgrwt>
<rscale>  0 0.27299473E+03</rscale>
<asrwt>0</asrwt>
<pdfrwt beam="1">  1        2 0.79159214E-01 0.27299473E+03</pdfrwt>
<pdfrwt beam="2">  1       -2 0.55708357E-02 0.27299473E+03</pdfrwt>
<totfact> 0.99380834E+03</totfact>
</mgrwt>
</event>
<event>
 9    1  0.8285222E-001  0.2728403E+03  0.7818608E-02  0.1099665E+00
          1   -1    0    0  501    0  0.00000000000E+00  0.00000000000E+00  0.19257564475E+03  0.19257564475E+03  0.00000000000E+00 0. -1.
         -1   -1    0    0    0  501 -0.00000000000E+00 -0.00000000000E+00 -0.96639742309E+02  0.96639742309E+02  0.00000000000E+00 0. -1.
         35    2    1    2    0    0  0.35527136788E-14  0.35527136788E-14  0.95935902440E+02  0.28921538706E+03  0.27284032461E+03 0.  0.
         25    2    3    3    0    0  0.14197429693E+02  0.24886444749E+02  0.89152383582E+02  0.16018268304E+03  0.12995938714E+03 0.  0.
         25    2    3    3    0    0 -0.14197429693E+02 -0.24886444749E+02  0.67835188577E+01  0.12903270402E+03  0.12562850168E+03 0.  0.
          5    1    4    4  502    0  0.68768225174E+02  0.27477462486E+02  0.70249133864E+02  0.10218175251E+03  0.47000000000E+01 0.  1.
         -5    1    4    4    0  502 -0.54570795481E+02 -0.25910177367E+01  0.18903249719E+02  0.58000930529E+02  0.47000000000E+01 0.  1.
          5    1    5    5  503    0  0.36012329475E+01 -0.26439659277E+02 -0.56740075580E+02  0.62877266466E+02  0.47000000000E+01 0.  1.
         -5    1    5    5    0  503 -0.17798662641E+02  0.15532145278E+01  0.63523594437E+02  0.66155437550E+02  0.47000000000E+01 0.  1.
<mgrwt>
<rscale>  0 0.27284032E+03</rscale>
<asrwt>0</asrwt>
<pdfrwt beam="1">  1        1 0.29627022E-01 0.27284032E+03</pdfrwt>
<pdfrwt beam="2">  1       -1 0.14867653E-01 0.27284032E+03</pdfrwt>
<totfact> 0.49808628E+03</totfact>
</mgrwt>
</event>
<event>
 9    1  0.8285222E-001  0.2625752E+03  0.7818608E-02  0.1105606E+00
          2   -1    0    0  501    0  0.00000000000E+00  0.00000000000E+00  0.14443110026E+03  0.14443110026E+03  0.00000000000E+00 0.  1.
         -2   -1    0    0    0  501 -0.00000000000E+00 -0.00000000000E+00 -0.11934014883E+03  0.11934014883E+03  0.00000000000E+00 0.  1.
         35    2    1    2    0    0  0.71054273576E-14  0.10658141036E-13  0.25090951428E+02  0.26377124909E+03  0.26257516258E+03 0.  0.
         25    2    3    3    0    0  0.19065061462E+02 -0.29247205284E+02 -0.48254613674E+01  0.13016368942E+03  0.12530133831E+03 0.  0.
         25    2    3    3    0    0 -0.19065061462E+02  0.29247205284E+02  0.29916412795E+02  0.13360755967E+03  0.12544764908E+03 0.  0.
          5    1    4    4  502    0  0.74391699085E+00 -0.68083858434E+02  0.30120145734E+02  0.74600793365E+02  0.47000000000E+01 0.  1.
         -5    1    4    4    0  502  0.18321144471E+02  0.38836653150E+02 -0.34945607101E+02  0.55562896057E+02  0.47000000000E+01 0.  1.
          5    1    5    5  503    0  0.47634343090E+02 -0.12729860840E+02  0.10314307682E+01  0.49540224546E+02  0.47000000000E+01 0. -1.
         -5    1    5    5    0  503 -0.66699404552E+02  0.41977066124E+02  0.28884982027E+02  0.84067335123E+02  0.47000000000E+01 0. -1.
<mgrwt>
<rscale>  0 0.26257516E+03</rscale>
<asrwt>0</asrwt>
<pdfrwt beam="1">  1        2 0.22220169E-01 0.26257516E+03</pdfrwt>
<pdfrwt beam="2">  1       -2 0.18360023E-01 0.26257516E+03</pdfrwt>
<totfact> 0.59282165E+03</totfact>
</mgrwt>
</event>
<event>
 9    1  0.8285222E-001  0.2765618E+03  0.7818608E-02  0.1097582E+00
          2   -1    0    0  501    0  0.00000000000E+00  0.00000000000E+00  0.12787555896E+03  0.12787555896E+03  0.00000000000E+00 0.  1.
         -2   -1    0    0    0  501 -0.00000000000E+00 -0.00000000000E+00 -0.14953297659E+03  0.14953297659E+03  0.00000000000E+00 0.  1.
         35    2    1    2    0    0  0.14210854715E-13 -0.26645352591E-14 -0.21657417632E+02  0.27740853555E+03  0.27656184093E+03 0.  0.
         25    2    3    3    0    0 -0.36298772737E+02 -0.76627070736E+01  0.91461435319E+01  0.14323542026E+03  0.13804497707E+03 0.  0.
         25    2    3    3    0    0  0.36298772737E+02  0.76627070736E+01 -0.30803561164E+02  0.13417311530E+03  0.12520881561E+03 0.  0.
          5    1    4    4  502    0 -0.79566983426E+02 -0.14711391517E+02  0.39042618189E+02  0.89965248440E+02  0.47000000000E+01 0.  1.
         -5    1    4    4    0  502  0.43268210689E+02  0.70486844439E+01 -0.29896474657E+02  0.53270171818E+02  0.47000000000E+01 0.  1.
          5    1    5    5  503    0 -0.31582177023E+02  0.34647605775E+02 -0.38124277820E+02  0.60608918905E+02  0.47000000000E+01 0. -1.
         -5    1    5    5    0  503  0.67880949760E+02 -0.26984898702E+02  0.73207166563E+01  0.73564196390E+02  0.47000000000E+01 0. -1.
<mgrwt>
<rscale>  0 0.27656184E+03</rscale>
<asrwt>0</asrwt>
<pdfrwt beam="1">  1        2 0.19673163E-01 0.27656184E+03</pdfrwt>
<pdfrwt beam="2">  1       -2 0.23005073E-01 0.27656184E+03</pdfrwt>
<totfact> 0.46326788E+03</totfact>
</mgrwt>
</event>
<event>
 9    1  0.8285222E-001  0.2763310E+03  0.7818608E-02  0.1097710E+00
         -2   -1    0    0    0  501 -0.00000000000E+00  0.00000000000E+00  0.14549297894E+02  0.14549297894E+02  0.00000000000E+00 0.  1.
          2   -1    0    0  501    0  0.00000000000E+00 -0.00000000000E+00 -0.13120709930E+04  0.13120709930E+04  0.00000000000E+00 0.  1.
         35    2    1    2    0    0 -0.71054273576E-14 -0.71054273576E-14 -0.12975216951E+04  0.13266202909E+04  0.27633104593E+03 0.  0.
         25    2    3    3    0    0 -0.31077916686E+02 -0.17317286167E+02 -0.42211517337E+03  0.44146979614E+03  0.12429254205E+03 0.  0.
         25    2    3    3    0    0  0.31077916686E+02  0.17317286167E+02 -0.87540652178E+03  0.88515049480E+03  0.12605195262E+03 0.  0.
          5    1    4    4  502    0 -0.52594849896E+02 -0.27703308263E+02 -0.87017218692E+02  0.10548828311E+03  0.47000000000E+01 0. -1.
         -5    1    4    4    0  502  0.21516933210E+02  0.10386022096E+02 -0.33509795468E+03  0.33598151303E+03  0.47000000000E+01 0. -1.
          5    1    5    5  503    0  0.26378642294E+02 -0.41884707613E+02 -0.16703599120E+03  0.17427929842E+03  0.47000000000E+01 0. -1.
         -5    1    5    5    0  503  0.46992743919E+01  0.59201993780E+02 -0.70837053058E+03  0.71087119638E+03  0.47000000000E+01 0. -1.
<mgrwt>
<rscale>  0 0.27633105E+03</rscale>
<asrwt>0</asrwt>
<pdfrwt beam="1">  1        2 0.20185716E+00 0.27633105E+03</pdfrwt>
<pdfrwt beam="2">  1       -2 0.22383526E-02 0.27633105E+03</pdfrwt>
<totfact> 0.11303848E+04</totfact>
</mgrwt>
</event>
<event>
 9    1  0.8285222E-001  0.2734487E+03  0.7818608E-02  0.1099322E+00
         -2   -1    0    0    0  501 -0.00000000000E+00  0.00000000000E+00  0.88330636258E+02  0.88330636258E+02  0.00000000000E+00 0. -1.
          2   -1    0    0  501    0  0.00000000000E+00 -0.00000000000E+00 -0.21163159999E+03  0.21163159999E+03  0.00000000000E+00 0. -1.
         35    2    1    2    0    0  0.00000000000E+00 -0.71054273576E-14 -0.12330096373E+03  0.29996223625E+03  0.27344874386E+03 0.  0.
         25    2    3    3    0    0  0.37317937905E+02 -0.19746147903E+02 -0.10892156588E+03  0.16848054269E+03  0.12140530016E+03 0.  0.
         25    2    3    3    0    0 -0.37317937905E+02  0.19746147903E+02 -0.14379397854E+02  0.13148169355E+03  0.12368560874E+03 0.  0.
          5    1    4    4  502    0  0.78763371715E+02 -0.18710856947E+02 -0.94057497726E+02  0.12418803393E+03  0.47000000000E+01 0.  1.
         -5    1    4    4    0  502 -0.41445433810E+02 -0.10352909561E+01 -0.14864068151E+02  0.44292508769E+02  0.47000000000E+01 0.  1.
          5    1    5    5  503    0 -0.26142894867E+02 -0.39459779203E+02 -0.43444968741E+02  0.64421117933E+02  0.47000000000E+01 0. -1.
         -5    1    5    5    0  503 -0.11175043039E+02  0.59205927107E+02  0.29065570888E+02  0.67060575620E+02  0.47000000000E+01 0. -1.
<mgrwt>
<rscale>  0 0.27344874E+03</rscale>
<asrwt>0</asrwt>
<pdfrwt beam="1">  1        2 0.32558707E-01 0.27344874E+03</pdfrwt>
<pdfrwt beam="2">  1       -2 0.13589329E-01 0.27344874E+03</pdfrwt>
<totfact> 0.64073370E+03</totfact>
</mgrwt>
</event>
<event>
 9    1  0.8285222E-001  0.2748200E+03  0.7818608E-02  0.1098552E+00
         -3   -1    0    0    0  501 -0.00000000000E+00  0.00000000000E+00  0.25794881167E+02  0.25794881167E+02  0.00000000000E+00 0. -1.
          3   -1    0    0  501    0  0.00000000000E+00 -0.00000000000E+00 -0.73198679324E+03  0.73198679324E+03  0.00000000000E+00 0. -1.
         35    2    1    2    0    0 -0.71054273576E-14 -0.14210854715E-13 -0.70619191208E+03  0.75778167441E+03  0.27482003091E+03 0.  0.
         25    2    3    3    0    0  0.45959589668E+02  0.32335747906E+02 -0.37479741410E+03  0.39907912125E+03  0.12503263146E+03 0.  0.
         25    2    3    3    0    0 -0.45959589668E+02 -0.32335747906E+02 -0.33139449798E+03  0.35870255316E+03  0.12524904740E+03 0.  0.
          5    1    4    4  502    0  0.34104896680E+02  0.69917727258E+02 -0.13385339450E+03  0.15488852050E+03  0.47000000000E+01 0.  1.
         -5    1    4    4    0  502  0.11854692988E+02 -0.37581979353E+02 -0.24094401960E+03  0.24419060076E+03  0.47000000000E+01 0.  1.
          5    1    5    5  503    0  0.35964504592E+02 -0.20065299290E+02 -0.48042805707E+02  0.63452840806E+02  0.47000000000E+01 0.  1.
         -5    1    5    5    0  503 -0.81924094260E+02 -0.12270448616E+02 -0.28335169227E+03  0.29524971235E+03  0.47000000000E+01 0.  1.
<mgrwt>
<rscale>  0 0.27482003E+03</rscale>
<asrwt>0</asrwt>
<pdfrwt beam="1">  1        3 0.11261334E+00 0.27482003E+03</pdfrwt>
<pdfrwt beam="2">  1       -3 0.39684436E-02 0.27482003E+03</pdfrwt>
<totfact> 0.57420587E+02</totfact>
</mgrwt>
</event>
<event>
 9    1  0.8285222E-001  0.2790945E+03  0.7818608E-02  0.1096185E+00
         -2   -1    0    0    0  501 -0.00000000000E+00  0.00000000000E+00  0.22503302328E+03  0.22503302328E+03  0.00000000000E+00 0. -1.
          2   -1    0    0  501    0  0.00000000000E+00 -0.00000000000E+00 -0.86535915920E+02  0.86535915920E+02  0.00000000000E+00 0. -1.
         35    2    1    2    0    0  0.71054273576E-14  0.71054273576E-14  0.13849710736E+03  0.31156893920E+03  0.27909452722E+03 0.  0.
         25    2    3    3    0    0 -0.58748449496E+02  0.50430593341E+01  0.94340233645E+02  0.16771476663E+03  0.12550438436E+03 0.  0.
         25    2    3    3    0    0  0.58748449496E+02 -0.50430593341E+01  0.44156873710E+02  0.14385417257E+03  0.12356124273E+03 0.  0.
          5    1    4    4  502    0 -0.65065599349E+01  0.59621425398E+02  0.25304198080E+02  0.65264401699E+02  0.47000000000E+01 0. -1.
         -5    1    4    4    0  502 -0.52241889561E+02 -0.54578366064E+02  0.69036035565E+02  0.10245036493E+03  0.47000000000E+01 0. -1.
          5    1    5    5  503    0 -0.23216618681E+02  0.34966963265E+02  0.29104913055E+02  0.51292161847E+02  0.47000000000E+01 0. -1.
         -5    1    5    5    0  503  0.81965068177E+02 -0.40010022599E+02  0.15051960655E+02  0.92562010724E+02  0.47000000000E+01 0. -1.
<mgrwt>
<rscale>  0 0.27909453E+03</rscale>
<asrwt>0</asrwt>
<pdfrwt beam="1">  1        2 0.13313218E-01 0.27909453E+03</pdfrwt>
<pdfrwt beam="2">  1       -2 0.34620465E-01 0.27909453E+03</pdfrwt>
<totfact> 0.35137749E+03</totfact>
</mgrwt>
</event>
<event>
 9    1  0.8285222E-001  0.2991257E+03  0.7818608E-02  0.1085678E+00
          1   -1    0    0  501    0  0.00000000000E+00  0.00000000000E+00  0.39054567764E+03  0.39054567764E+03  0.00000000000E+00 0.  1.
         -1   -1    0    0    0  501 -0.00000000000E+00 -0.00000000000E+00 -0.57276386620E+02  0.57276386620E+02  0.00000000000E+00 0.  1.
         35    2    1    2    0    0  0.00000000000E+00  0.71054273576E-14  0.33326929102E+03  0.44782206426E+03  0.29912569415E+03 0.  0.
         25    2    3    3    0    0  0.51615519558E+02 -0.52182403835E+02  0.11208154306E+03  0.18334596078E+03  0.12516510661E+03 0.  0.
         25    2    3    3    0    0 -0.51615519558E+02  0.52182403835E+02  0.22118774797E+03  0.26447610348E+03  0.12504568898E+03 0.  0.
          5    1    4    4  502    0  0.15443719630E+02 -0.35960637852E+02 -0.20819915648E+02  0.44578412245E+02  0.47000000000E+01 0. -1.
         -5    1    4    4    0  502  0.36171799927E+02 -0.16221765984E+02  0.13290145870E+03  0.13876754854E+03  0.47000000000E+01 0. -1.
          5    1    5    5  503    0 -0.71245827621E+02  0.80495026859E+02  0.14347701794E+03  0.17934090994E+03  0.47000000000E+01 0.  1.
         -5    1    5    5    0  503  0.19630308063E+02 -0.28312623023E+02  0.77710730030E+02  0.85135193539E+02  0.47000000000E+01 0.  1.
<mgrwt>
<rscale>  0 0.29912569E+03</rscale>
<asrwt>0</asrwt>
<pdfrwt beam="1">  1        1 0.60083949E-01 0.29912569E+03</pdfrwt>
<pdfrwt beam="2">  1       -1 0.88117521E-02 0.29912569E+03</pdfrwt>
<totfact> 0.46265112E+03</totfact>
</mgrwt>
</event>
<event>
 9    1  0.8285222E-001  0.2960509E+03  0.7818608E-02  0.1087232E+00
         -1   -1    0    0    0  501 -0.00000000000E+00  0.00000000000E+00  0.14178340924E+04  0.14178340924E+04  0.00000000000E+00 0. -1.
          1   -1    0    0  501    0  0.00000000000E+00 -0.00000000000E+00 -0.15454230580E+02  0.15454230580E+02  0.00000000000E+00 0. -1.
         35    2    1    2    0    0  0.00000000000E+00  0.00000000000E+00  0.14023798619E+04  0.14332883230E+04  0.29605090771E+03 0.  0.
         25    2    3    3    0    0 -0.12964134292E+02  0.16466725877E+02  0.34775540740E+03  0.37002845114E+03  0.12469165744E+03 0.  0.
         25    2    3    3    0    0  0.12964134292E+02 -0.16466725877E+02  0.10546244545E+04  0.10632598719E+04  0.13360237039E+03 0.  0.
          5    1    4    4  502    0 -0.60971118736E+02  0.31013366664E+02  0.13531625268E+03  0.15169668577E+03  0.47000000000E+01 0.  1.
         -5    1    4    4    0  502  0.48006984445E+02 -0.14546640787E+02  0.21243915472E+03  0.21833176538E+03  0.47000000000E+01 0.  1.
          5    1    5    5  503    0  0.58295465387E+02 -0.37737695106E+02  0.35065791685E+03  0.35749903435E+03  0.47000000000E+01 0. -1.
         -5    1    5    5    0  503 -0.45331331095E+02  0.21270969229E+02  0.70396653761E+03  0.70576083753E+03  0.47000000000E+01 0. -1.
<mgrwt>
<rscale>  0 0.29605091E+03</rscale>
<asrwt>0</asrwt>
<pdfrwt beam="1">  1        1 0.23775751E-02 0.29605091E+03</pdfrwt>
<pdfrwt beam="2">  1       -1 0.21812822E+00 0.29605091E+03</pdfrwt>
<totfact> 0.60063996E+02</totfact>
</mgrwt>
</event>
<event>
 9    1  0.8285222E-001  0.2747229E+03  0.7818608E-02  0.1098607E+00
          2   -1    0    0  501    0  0.00000000000E+00  0.00000000000E+00  0.17695985730E+03  0.17695985730E+03  0.00000000000E+00 0. -1.
         -2   -1    0    0    0  501 -0.00000000000E+00 -0.00000000000E+00 -0.10662401661E+03  0.10662401661E+03  0.00000000000E+00 0. -1.
         35    2    1    2    0    0  0.71054273576E-14  0.00000000000E+00  0.70335840688E+02  0.28358387391E+03  0.27472292052E+03 0.  0.
         25    2    3    3    0    0  0.47707461019E+01  0.22387247286E+02  0.91161893386E+02  0.15623224171E+03  0.12479612849E+03 0.  0.
         25    2    3    3    0    0 -0.47707461019E+01 -0.22387247286E+02 -0.20826052698E+02  0.12735163220E+03  0.12353446844E+03 0.  0.
          5    1    4    4  502    0 -0.52151334859E+02 -0.18447485218E+02  0.29931148105E+02  0.63071666106E+02  0.47000000000E+01 0.  1.
         -5    1    4    4    0  502  0.56922080961E+02  0.40834732505E+02  0.61230745281E+02  0.93160575606E+02  0.47000000000E+01 0.  1.
          5    1    5    5  503    0  0.31203701065E+02  0.39111214698E+02 -0.24390933565E+02  0.55860233758E+02  0.47000000000E+01 0.  1.
         -5    1    5    5    0  503 -0.35974447166E+02 -0.61498461985E+02  0.35648808670E+01  0.71491398441E+02  0.47000000000E+01 0.  1.
<mgrwt>
<rscale>  0 0.27472292E+03</rscale>
<asrwt>0</asrwt>
<pdfrwt beam="1">  1        2 0.27224593E-01 0.27472292E+03</pdfrwt>
<pdfrwt beam="2">  1       -2 0.16403695E-01 0.27472292E+03</pdfrwt>
<totfact> 0.57162264E+03</totfact>
</mgrwt>
</event>
<event>
 9    1  0.8285222E-001  0.2730905E+03  0.7818608E-02  0.1099524E+00
         -1   -1    0    0    0  501 -0.00000000000E+00  0.00000000000E+00  0.26285037040E+04  0.26285037040E+04  0.00000000000E+00 0.  1.
          1   -1    0    0  501    0  0.00000000000E+00 -0.00000000000E+00 -0.70932380893E+01  0.70932380893E+01  0.00000000000E+00 0.  1.
         35    2    1    2    0    0  0.71054273576E-14  0.00000000000E+00  0.26214104660E+04  0.26355969421E+04  0.27309048018E+03 0.  0.
         25    2    3    3    0    0 -0.50540944199E+02 -0.18138218511E+02  0.13427660447E+04  0.13497150764E+04  0.12580443050E+03 0.  0.
         25    2    3    3    0    0  0.50540944199E+02  0.18138218511E+02  0.12786444213E+04  0.12858818657E+04  0.12520876378E+03 0.  0.
          5    1    4    4  502    0 -0.75045973482E+02 -0.40431921021E+02  0.12019501555E+04  0.12049783835E+04  0.47000000000E+01 0.  1.
         -5    1    4    4    0  502  0.24505029283E+02  0.22293702510E+02  0.14081588917E+03  0.14473669291E+03  0.47000000000E+01 0.  1.
          5    1    5    5  503    0  0.68562332500E+02 -0.13542511597E+02  0.37469985647E+03  0.38119058946E+03  0.47000000000E+01 0.  1.
         -5    1    5    5    0  503 -0.18021388301E+02  0.31680730107E+02  0.90394456479E+03  0.90469127624E+03  0.47000000000E+01 0.  1.
<mgrwt>
<rscale>  0 0.27309048E+03</rscale>
<asrwt>0</asrwt>
<pdfrwt beam="1">  1        1 0.10912695E-02 0.27309048E+03</pdfrwt>
<pdfrwt beam="2">  1       -1 0.40438441E+00 0.27309048E+03</pdfrwt>
<totfact> 0.11746969E+02</totfact>
</mgrwt>
</event>
<event>
 9    1  0.8285222E-001  0.2765254E+03  0.7818608E-02  0.1097602E+00
         -2   -1    0    0    0  501 -0.00000000000E+00  0.00000000000E+00  0.11908223953E+02  0.11908223953E+02  0.00000000000E+00 0.  1.
          2   -1    0    0  501    0  0.00000000000E+00 -0.00000000000E+00 -0.16053256751E+04  0.16053256751E+04  0.00000000000E+00 0.  1.
         35    2    1    2    0    0  0.00000000000E+00  0.71054273576E-14 -0.15934174511E+04  0.16172338990E+04  0.27652542492E+03 0.  0.
         25    2    3    3    0    0 -0.64311329825E+01 -0.33741488741E+02 -0.10760900481E+04  0.10839771649E+04  0.12592400459E+03 0.  0.
         25    2    3    3    0    0  0.64311329825E+01  0.33741488741E+02 -0.51732740304E+03  0.53325673412E+03  0.12472070803E+03 0.  0.
          5    1    4    4  502    0 -0.57944930510E+02 -0.42202205250E+02 -0.45012999852E+03  0.45582644358E+03  0.47000000000E+01 0. -1.
         -5    1    4    4    0  502  0.51513797527E+02  0.84607165095E+01 -0.62596004956E+03  0.62815072133E+03  0.47000000000E+01 0. -1.
          5    1    5    5  503    0  0.51171252949E+02  0.32310174749E+00 -0.39938505235E+03  0.40267742868E+03  0.47000000000E+01 0. -1.
         -5    1    5    5    0  503 -0.44740119966E+02  0.33418386993E+02 -0.11794235069E+03  0.13057930544E+03  0.47000000000E+01 0. -1.
<mgrwt>
<rscale>  0 0.27652542E+03</rscale>
<asrwt>0</asrwt>
<pdfrwt beam="1">  1        2 0.24697300E+00 0.27652542E+03</pdfrwt>
<pdfrwt beam="2">  1       -2 0.18320358E-02 0.27652542E+03</pdfrwt>
<totfact> 0.10547631E+04</totfact>
</mgrwt>
</event>
<event>
 9    1  0.8285222E-001  0.2761269E+03  0.7818608E-02  0.1097823E+00
         -1   -1    0    0    0  501 -0.00000000000E+00  0.00000000000E+00  0.15968127160E+03  0.15968127160E+03  0.00000000000E+00 0. -1.
          1   -1    0    0  501    0  0.00000000000E+00 -0.00000000000E+00 -0.11937224342E+03  0.11937224342E+03  0.00000000000E+00 0. -1.
         35    2    1    2    0    0  0.00000000000E+00 -0.14210854715E-13  0.40309028176E+02  0.27905351502E+03  0.27612686666E+03 0.  0.
         25    2    3    3    0    0  0.30870450323E+02  0.47247959320E+02  0.68440596301E+01  0.13727002173E+03  0.12494344060E+03 0.  0.
         25    2    3    3    0    0 -0.30870450323E+02 -0.47247959320E+02  0.33464968546E+02  0.14178349330E+03  0.12568731236E+03 0.  0.
          5    1    4    4  502    0  0.75495380755E+00  0.41872724080E+02 -0.54302394302E+02  0.68736707835E+02  0.47000000000E+01 0. -1.
         -5    1    4    4    0  502  0.30115496515E+02  0.53752352397E+01  0.61146453932E+02  0.68533313890E+02  0.47000000000E+01 0. -1.
          5    1    5    5  503    0  0.17768821608E+02 -0.76774453644E+02  0.30441620121E+02  0.84609869337E+02  0.47000000000E+01 0. -1.
         -5    1    5    5    0  503 -0.48639271931E+02  0.29526494324E+02  0.30233484257E+01  0.57173623960E+02  0.47000000000E+01 0. -1.
<mgrwt>
<rscale>  0 0.27612687E+03</rscale>
<asrwt>0</asrwt>
<pdfrwt beam="1">  1        1 0.18364960E-01 0.27612687E+03</pdfrwt>
<pdfrwt beam="2">  1       -1 0.24566350E-01 0.27612687E+03</pdfrwt>
<totfact> 0.40693310E+03</totfact>
</mgrwt>
</event>
<event>
 9    1  0.8285222E-001  0.2761195E+03  0.7818608E-02  0.1097827E+00
         -2   -1    0    0    0  501 -0.00000000000E+00  0.00000000000E+00  0.60132526585E+01  0.60132526585E+01  0.00000000000E+00 0. -1.
          2   -1    0    0  501    0  0.00000000000E+00 -0.00000000000E+00 -0.31697468907E+04  0.31697468907E+04  0.00000000000E+00 0. -1.
         35    2    1    2    0    0 -0.17763568394E-14  0.00000000000E+00 -0.31637336380E+04  0.31757601433E+04  0.27611945905E+03 0.  0.
         25    2    3    3    0    0 -0.25583367686E+01 -0.56955431468E+02 -0.16915301186E+04  0.16970814596E+04  0.12474322501E+03 0.  0.
         25    2    3    3    0    0  0.25583367686E+01  0.56955431468E+02 -0.14722035194E+04  0.14786786837E+04  0.12592450450E+03 0.  0.
          5    1    4    4  502    0  0.15405398348E+01  0.11828089807E+02 -0.12595317950E+04  0.12595970425E+04  0.47000000000E+01 0. -1.
         -5    1    4    4    0  502 -0.40988766034E+01 -0.68783521275E+02 -0.43199832363E+03  0.43748441710E+03  0.47000000000E+01 0. -1.
          5    1    5    5  503    0  0.23832448792E+02 -0.17011055359E+02 -0.98199962978E+03  0.98244731386E+03  0.47000000000E+01 0.  1.
         -5    1    5    5    0  503 -0.21274112024E+02  0.73966486827E+02 -0.49020388963E+03  0.49623136986E+03  0.47000000000E+01 0.  1.
<mgrwt>
<rscale>  0 0.27611946E+03</rscale>
<asrwt>0</asrwt>
<pdfrwt beam="1">  1        2 0.48765307E+00 0.27611946E+03</pdfrwt>
<pdfrwt beam="2">  1       -2 0.92511636E-03 0.27611946E+03</pdfrwt>
<totfact> 0.39293900E+03</totfact>
</mgrwt>
</event>
<event>
 9    1  0.8285222E-001  0.2781149E+03  0.7818608E-02  0.1096723E+00
         -2   -1    0    0    0  501 -0.00000000000E+00  0.00000000000E+00  0.10423218294E+02  0.10423218294E+02  0.00000000000E+00 0. -1.
          2   -1    0    0  501    0  0.00000000000E+00 -0.00000000000E+00 -0.18551829966E+04  0.18551829966E+04  0.00000000000E+00 0. -1.
         35    2    1    2    0    0  0.00000000000E+00  0.00000000000E+00 -0.18447597783E+04  0.18656062149E+04  0.27811492121E+03 0.  0.
         25    2    3    3    0    0 -0.51553059096E+02 -0.15109506930E+02 -0.11342185136E+04  0.11421966711E+04  0.12359443284E+03 0.  0.
         25    2    3    3    0    0  0.51553059096E+02  0.15109506930E+02 -0.71054126473E+03  0.72340954379E+03  0.12476563657E+03 0.  0.
          5    1    4    4  502    0  0.29062283774E+02  0.15156170192E+02 -0.61287383366E+03  0.61376766925E+03  0.47000000000E+01 0. -1.
         -5    1    4    4    0  502 -0.80615342870E+02 -0.30265677123E+02 -0.52134467996E+03  0.52842900189E+03  0.47000000000E+01 0. -1.
          5    1    5    5  503    0  0.81460748025E+02  0.44286968378E+02 -0.44750223255E+03  0.45703121029E+03  0.47000000000E+01 0.  1.
         -5    1    5    5    0  503 -0.29907688929E+02 -0.29177461448E+02 -0.26303903217E+03  0.26637833350E+03  0.47000000000E+01 0.  1.
<mgrwt>
<rscale>  0 0.27811492E+03</rscale>
<asrwt>0</asrwt>
<pdfrwt beam="1">  1        2 0.28541242E+00 0.27811492E+03</pdfrwt>
<pdfrwt beam="2">  1       -2 0.16035740E-02 0.27811492E+03</pdfrwt>
<totfact> 0.94725394E+03</totfact>
</mgrwt>
</event>
<event>
 9    1  0.8285222E-001  0.2782177E+03  0.7818608E-02  0.1096666E+00
          1   -1    0    0  501    0  0.00000000000E+00  0.00000000000E+00  0.21670808926E+03  0.21670808926E+03  0.00000000000E+00 0.  1.
         -1   -1    0    0    0  501 -0.00000000000E+00 -0.00000000000E+00 -0.89296482834E+02  0.89296482834E+02  0.00000000000E+00 0.  1.
         35    2    1    2    0    0  0.35527136788E-14  0.71054273576E-14  0.12741160643E+03  0.30600457209E+03  0.27821768580E+03 0.  0.
         25    2    3    3    0    0  0.30277022483E+02  0.55085035083E+02  0.47618937577E+02  0.14805650249E+03  0.12530804258E+03 0.  0.
         25    2    3    3    0    0 -0.30277022483E+02 -0.55085035083E+02  0.79792668848E+02  0.15794806960E+03  0.12095314592E+03 0.  0.
          5    1    4    4  502    0 -0.51281823276E+01 -0.20286063170E+02 -0.28140205698E+02  0.35380556661E+02  0.47000000000E+01 0. -1.
         -5    1    4    4    0  502  0.35405204811E+02  0.75371098253E+02  0.75759143275E+02  0.11267594583E+03  0.47000000000E+01 0. -1.
          5    1    5    5  503    0  0.44403689932E+02 -0.30563975780E+01  0.20564089144E+02  0.49254451657E+02  0.47000000000E+01 0. -1.
         -5    1    5    5    0  503 -0.74680712415E+02 -0.52028637505E+02  0.59228579704E+02  0.10869361794E+03  0.47000000000E+01 0. -1.
<mgrwt>
<rscale>  0 0.27821769E+03</rscale>
<asrwt>0</asrwt>
<pdfrwt beam="1">  1        1 0.33339706E-01 0.27821769E+03</pdfrwt>
<pdfrwt beam="2">  1       -1 0.13737920E-01 0.27821769E+03</pdfrwt>
<totfact> 0.48667377E+03</totfact>
</mgrwt>
</event>
<event>
 9    1  0.8285222E-001  0.2732084E+03  0.7818608E-02  0.1099457E+00
         -2   -1    0    0    0  501 -0.00000000000E+00  0.00000000000E+00  0.61488215858E+02  0.61488215858E+02  0.00000000000E+00 0. -1.
          2   -1    0    0  501    0  0.00000000000E+00 -0.00000000000E+00 -0.30348429708E+03  0.30348429708E+03  0.00000000000E+00 0. -1.
         35    2    1    2    0    0  0.00000000000E+00  0.00000000000E+00 -0.24199608122E+03  0.36497251294E+03  0.27320840374E+03 0.  0.
         25    2    3    3    0    0  0.18877648919E+02 -0.55742990939E+00 -0.38780464038E+02  0.13161580383E+03  0.12434676944E+03 0.  0.
         25    2    3    3    0    0 -0.18877648919E+02  0.55742990939E+00 -0.20321561719E+03  0.23335670911E+03  0.11314632235E+03 0.  0.
          5    1    4    4  502    0 -0.28287593844E+02 -0.48529066767E+02 -0.29256778181E+02  0.63508325094E+02  0.47000000000E+01 0.  1.
         -5    1    4    4    0  502  0.47165242763E+02  0.47971636857E+02 -0.95236858571E+01  0.68107478738E+02  0.47000000000E+01 0.  1.
          5    1    5    5  503    0  0.22423373043E+02  0.39109047462E+02 -0.14573947877E+03  0.15262506650E+03  0.47000000000E+01 0.  1.
         -5    1    5    5    0  503 -0.41301021962E+02 -0.38551617553E+02 -0.57476138419E+02  0.80731642611E+02  0.47000000000E+01 0.  1.
<mgrwt>
<rscale>  0 0.27320840E+03</rscale>
<asrwt>0</asrwt>
<pdfrwt beam="1">  1        2 0.46689892E-01 0.27320840E+03</pdfrwt>
<pdfrwt beam="2">  1       -2 0.94597254E-02 0.27320840E+03</pdfrwt>
<totfact> 0.77679994E+03</totfact>
</mgrwt>
</event>
<event>
 9    1  0.8285222E-001  0.2754753E+03  0.7818608E-02  0.1098186E+00
         -2   -1    0    0    0  501 -0.00000000000E+00  0.00000000000E+00  0.23574144070E+03  0.23574144070E+03  0.00000000000E+00 0.  1.
          2   -1    0    0  501    0  0.00000000000E+00 -0.00000000000E+00 -0.80476579601E+02  0.80476579601E+02  0.00000000000E+00 0.  1.
         35    2    1    2    0    0  0.71054273576E-14  0.00000000000E+00  0.15526486110E+03  0.31621802030E+03  0.27547533333E+03 0.  0.
         25    2    3    3    0    0 -0.83009272955E+01  0.28424041849E+02  0.13559584388E+03  0.18660144164E+03  0.12472783810E+03 0.  0.
         25    2    3    3    0    0  0.83009272955E+01 -0.28424041849E+02  0.19669017224E+02  0.12961657866E+03  0.12464652292E+03 0.  0.
          5    1    4    4  502    0 -0.10499064215E+02 -0.89691691903E+01  0.14656467418E+03  0.14728873026E+03  0.47000000000E+01 0. -1.
         -5    1    4    4    0  502  0.21981369193E+01  0.37393211039E+02 -0.10968830302E+02  0.39312711378E+02  0.47000000000E+01 0. -1.
          5    1    5    5  503    0 -0.37019899954E+02  0.17397248916E+02  0.44284404921E+02  0.60467642435E+02  0.47000000000E+01 0.  1.
         -5    1    5    5    0  503  0.45320827249E+02 -0.45821290765E+02 -0.24615387697E+02  0.69148936228E+02  0.47000000000E+01 0.  1.
<mgrwt>
<rscale>  0 0.27547533E+03</rscale>
<asrwt>0</asrwt>
<pdfrwt beam="1">  1        2 0.12381012E-01 0.27547533E+03</pdfrwt>
<pdfrwt beam="2">  1       -2 0.36267914E-01 0.27547533E+03</pdfrwt>
<totfact> 0.35152342E+03</totfact>
</mgrwt>
</event>
<event>
 9    1  0.8285222E-001  0.2732182E+03  0.7818608E-02  0.1099452E+00
         -1   -1    0    0    0  501 -0.00000000000E+00  0.00000000000E+00  0.16609591517E+04  0.16609591517E+04  0.00000000000E+00 0.  1.
          1   -1    0    0  501    0  0.00000000000E+00 -0.00000000000E+00 -0.11235701321E+02  0.11235701321E+02  0.00000000000E+00 0.  1.
         35    2    1    2    0    0 -0.35527136788E-14  0.00000000000E+00  0.16497234504E+04  0.16721948531E+04  0.27321816144E+03 0.  0.
         25    2    3    3    0    0  0.10928061567E+02  0.36329318579E+02  0.59036731860E+03  0.60489303118E+03  0.12618544441E+03 0.  0.
         25    2    3    3    0    0 -0.10928061567E+02 -0.36329318579E+02  0.10593561318E+04  0.10673018219E+04  0.12433230896E+03 0.  0.
          5    1    4    4  502    0  0.28810317238E+01  0.42114715742E+02  0.59224374521E+03  0.59376484686E+03  0.47000000000E+01 0.  1.
         -5    1    4    4    0  502  0.80470298429E+01 -0.57853971625E+01 -0.18764266033E+01  0.11128184327E+02  0.47000000000E+01 0.  1.
          5    1    5    5  503    0 -0.47943245914E+02  0.39440388441E+01  0.83230830615E+03  0.83371057133E+03  0.47000000000E+01 0.  1.
         -5    1    5    5    0  503  0.37015184347E+02 -0.40273357423E+02  0.22704782567E+03  0.23359125055E+03  0.47000000000E+01 0.  1.
<mgrwt>
<rscale>  0 0.27321816E+03</rscale>
<asrwt>0</asrwt>
<pdfrwt beam="1">  1        1 0.17285708E-02 0.27321816E+03</pdfrwt>
<pdfrwt beam="2">  1       -1 0.25553198E+00 0.27321816E+03</pdfrwt>
<totfact> 0.54482728E+02</totfact>
</mgrwt>
</event>
<event>
 9    1  0.8285222E-001  0.2934937E+03  0.7818608E-02  0.1088539E+00
          1   -1    0    0  501    0  0.00000000000E+00  0.00000000000E+00  0.67068107912E+03  0.67068107912E+03  0.00000000000E+00 0.  1.
         -1   -1    0    0    0  501 -0.00000000000E+00 -0.00000000000E+00 -0.32108608031E+02  0.32108608031E+02  0.00000000000E+00 0.  1.
         35    2    1    2    0    0  0.00000000000E+00 -0.71054273576E-14  0.63857247108E+03  0.70278968715E+03  0.29349368568E+03 0.  0.
         25    2    3    3    0    0 -0.65934625320E+02 -0.45852308661E+01  0.22584436702E+03  0.26644079861E+03  0.12496648308E+03 0.  0.
         25    2    3    3    0    0  0.65934625320E+02  0.45852308661E+01  0.41272810406E+03  0.43634888853E+03  0.12524961270E+03 0.  0.
          5    1    4    4  502    0 -0.53430379095E+02 -0.36338846540E+02  0.37263766407E+02  0.74739517424E+02  0.47000000000E+01 0. -1.
         -5    1    4    4    0  502 -0.12504246225E+02  0.31753615673E+02  0.18858060061E+03  0.19170128119E+03  0.47000000000E+01 0. -1.
          5    1    5    5  503    0  0.23254605429E+02  0.51268954238E+02  0.31372427647E+03  0.31876997033E+03  0.47000000000E+01 0. -1.
         -5    1    5    5    0  503  0.42680019890E+02 -0.46683723372E+02  0.99003827598E+02  0.11757891820E+03  0.47000000000E+01 0. -1.
<mgrwt>
<rscale>  0 0.29349369E+03</rscale>
<asrwt>0</asrwt>
<pdfrwt beam="1">  1        1 0.10318169E+00 0.29349369E+03</pdfrwt>
<pdfrwt beam="2">  1       -1 0.49397863E-02 0.29349369E+03</pdfrwt>
<totfact> 0.53748719E+03</totfact>
</mgrwt>
</event>
<event>
 9    1  0.8285222E-001  0.2757595E+03  0.7818608E-02  0.1098028E+00
         -3   -1    0    0    0  501 -0.00000000000E+00  0.00000000000E+00  0.11565249321E+03  0.11565249321E+03  0.00000000000E+00 0.  1.
          3   -1    0    0  501    0  0.00000000000E+00 -0.00000000000E+00 -0.16437891738E+03  0.16437891738E+03  0.00000000000E+00 0.  1.
         35    2    1    2    0    0  0.00000000000E+00 -0.71054273576E-14 -0.48726424167E+02  0.28003141059E+03  0.27575954472E+03 0.  0.
         25    2    3    3    0    0 -0.42860416434E+02  0.42639758291E+02  0.43785739414E+00  0.13325562667E+03  0.11875060436E+03 0.  0.
         25    2    3    3    0    0  0.42860416434E+02 -0.42639758291E+02 -0.49164281562E+02  0.14677578392E+03  0.12438183099E+03 0.  0.
          5    1    4    4  502    0  0.49037200828E+01  0.74717136030E+02  0.59773805470E+01  0.75262978717E+02  0.47000000000E+01 0. -1.
         -5    1    4    4    0  502 -0.47764136517E+02 -0.32077377739E+02 -0.55395231528E+01  0.57992647953E+02  0.47000000000E+01 0. -1.
          5    1    5    5  503    0  0.25194368058E+02 -0.13104122407E+02 -0.89224993809E+02  0.93753206485E+02  0.47000000000E+01 0.  1.
         -5    1    5    5    0  503  0.17666048377E+02 -0.29535635884E+02  0.40060712248E+02  0.53022577438E+02  0.47000000000E+01 0.  1.
<mgrwt>
<rscale>  0 0.27575954E+03</rscale>
<asrwt>0</asrwt>
<pdfrwt beam="1">  1        3 0.25289064E-01 0.27575954E+03</pdfrwt>
<pdfrwt beam="2">  1       -3 0.17792691E-01 0.27575954E+03</pdfrwt>
<totfact> 0.10325024E+03</totfact>
</mgrwt>
</event>
<event>
 9    1  0.8285222E-001  0.2855880E+03  0.7818608E-02  0.1092675E+00
         -1   -1    0    0    0  501 -0.00000000000E+00  0.00000000000E+00  0.41052155197E+03  0.41052155197E+03  0.00000000000E+00 0.  1.
          1   -1    0    0  501    0  0.00000000000E+00 -0.00000000000E+00 -0.49668833771E+02  0.49668833771E+02  0.00000000000E+00 0.  1.
         35    2    1    2    0    0  0.00000000000E+00  0.00000000000E+00  0.36085271820E+03  0.46019038574E+03  0.28558800202E+03 0.  0.
         25    2    3    3    0    0  0.18034972833E+02  0.63380807318E+02  0.14737432846E+03  0.20441856947E+03  0.12540084479E+03 0.  0.
         25    2    3    3    0    0 -0.18034972833E+02 -0.63380807318E+02  0.21347838974E+03  0.25577181628E+03  0.12451430493E+03 0.  0.
          5    1    4    4  502    0 -0.90664729488E+01  0.92914461400E+02  0.13085108092E+03  0.16080856149E+03  0.47000000000E+01 0.  1.
         -5    1    4    4    0  502  0.27101445782E+02 -0.29533654082E+02  0.16523247538E+02  0.43610007981E+02  0.47000000000E+01 0.  1.
          5    1    5    5  503    0 -0.19140861660E+02 -0.38802190778E+02  0.22430187651E+03  0.22848502008E+03  0.47000000000E+01 0. -1.
         -5    1    5    5    0  503  0.11058888266E+01 -0.24578616540E+02 -0.10823486765E+02  0.27286796200E+02  0.47000000000E+01 0. -1.
<mgrwt>
<rscale>  0 0.28558800E+03</rscale>
<asrwt>0</asrwt>
<pdfrwt beam="1">  1        1 0.76413593E-02 0.28558800E+03</pdfrwt>
<pdfrwt beam="2">  1       -1 0.63157160E-01 0.28558800E+03</pdfrwt>
<totfact> 0.24316539E+03</totfact>
</mgrwt>
</event>
<event>
 9    1  0.8285222E-001  0.2735410E+03  0.7818608E-02  0.1099270E+00
         -2   -1    0    0    0  501 -0.00000000000E+00  0.00000000000E+00  0.48789877192E+03  0.48789877192E+03  0.00000000000E+00 0. -1.
          2   -1    0    0  501    0  0.00000000000E+00 -0.00000000000E+00 -0.38340276847E+02  0.38340276847E+02  0.00000000000E+00 0. -1.
         35    2    1    2    0    0  0.71054273576E-14 -0.35527136788E-14  0.44955849507E+03  0.52623904876E+03  0.27354103157E+03 0.  0.
         25    2    3    3    0    0 -0.46689627262E+02 -0.19351209907E+02  0.17890524984E+03  0.22390063359E+03  0.12477986489E+03 0.  0.
         25    2    3    3    0    0  0.46689627262E+02  0.19351209907E+02  0.27065324523E+03  0.30233841518E+03  0.12490375303E+03 0.  0.
          5    1    4    4  502    0 -0.46829762696E+01 -0.24270710965E+02  0.17958703180E+03  0.18134108654E+03  0.47000000000E+01 0.  1.
         -5    1    4    4    0  502 -0.42006650992E+02  0.49195010584E+01 -0.68178195667E+00  0.42559547048E+02  0.47000000000E+01 0.  1.
          5    1    5    5  503    0  0.67387733818E+02  0.59022445682E+02  0.17652343891E+03  0.19800851054E+03  0.47000000000E+01 0.  1.
         -5    1    5    5    0  503 -0.20698106556E+02 -0.39671235775E+02  0.94129806320E+02  0.10432990463E+03  0.47000000000E+01 0.  1.
<mgrwt>
<rscale>  0 0.27354103E+03</rscale>
<asrwt>0</asrwt>
<pdfrwt beam="1">  1        2 0.58985045E-02 0.27354103E+03</pdfrwt>
<pdfrwt beam="2">  1       -2 0.75061345E-01 0.27354103E+03</pdfrwt>
<totfact> 0.20660668E+03</totfact>
</mgrwt>
</event>
<event>
 9    1  0.8285222E-001  0.2753126E+03  0.7818608E-02  0.1098277E+00
         -2   -1    0    0    0  501 -0.00000000000E+00  0.00000000000E+00  0.52988138401E+01  0.52988138401E+01  0.00000000000E+00 0.  1.
          2   -1    0    0  501    0  0.00000000000E+00 -0.00000000000E+00 -0.35761319797E+04  0.35761319797E+04  0.00000000000E+00 0.  1.
         35    2    1    2    0    0  0.00000000000E+00  0.00000000000E+00 -0.35708331658E+04  0.35814307935E+04  0.27531260507E+03 0.  0.
         25    2    3    3    0    0  0.32675012389E+02  0.48875798512E+02 -0.18476652939E+04  0.18527952694E+04  0.12460646808E+03 0.  0.
         25    2    3    3    0    0 -0.32675012389E+02 -0.48875798512E+02 -0.17231678719E+04  0.17286355241E+04  0.12416424716E+03 0.  0.
          5    1    4    4  502    0 -0.21542332250E+02 -0.17664901559E+02 -0.10735808349E+04  0.10739525222E+04  0.47000000000E+01 0. -1.
         -5    1    4    4    0  502  0.54217344639E+02  0.66540700071E+02 -0.77408445899E+03  0.77884274720E+03  0.47000000000E+01 0. -1.
          5    1    5    5  503    0 -0.52717770563E+02 -0.28867156241E+02 -0.34907131742E+03  0.35423911513E+03  0.47000000000E+01 0.  1.
         -5    1    5    5    0  503  0.20042758174E+02 -0.20008642271E+02 -0.13740965545E+04  0.13743964090E+04  0.47000000000E+01 0.  1.
<mgrwt>
<rscale>  0 0.27531261E+03</rscale>
<asrwt>0</asrwt>
<pdfrwt beam="1">  1        2 0.55017314E+00 0.27531261E+03</pdfrwt>
<pdfrwt beam="2">  1       -2 0.81520362E-03 0.27531261E+03</pdfrwt>
<totfact> 0.25865765E+03</totfact>
</mgrwt>
</event>
<event>
 9    1  0.8285222E-001  0.2748987E+03  0.7818608E-02  0.1098508E+00
          2   -1    0    0  501    0  0.00000000000E+00  0.00000000000E+00  0.68363134891E+03  0.68363134891E+03  0.00000000000E+00 0. -1.
         -2   -1    0    0    0  501 -0.00000000000E+00 -0.00000000000E+00 -0.27635254086E+02  0.27635254086E+02  0.00000000000E+00 0. -1.
         35    2    1    2    0    0  0.00000000000E+00  0.35527136788E-14  0.65599609482E+03  0.71126660300E+03  0.27489871610E+03 0.  0.
         25    2    3    3    0    0  0.33027702767E+02 -0.12422656003E+02  0.44929367841E+03  0.46719403062E+03  0.12312717514E+03 0.  0.
         25    2    3    3    0    0 -0.33027702767E+02  0.12422656003E+02  0.20670241642E+03  0.24407257238E+03  0.12490148158E+03 0.  0.
          5    1    4    4  502    0 -0.20053032590E+02 -0.38514225382E+02  0.34035098983E+03  0.34314188895E+03  0.47000000000E+01 0. -1.
         -5    1    4    4    0  502  0.53080735357E+02  0.26091569380E+02  0.10894268857E+03  0.12405214167E+03  0.47000000000E+01 0. -1.
          5    1    5    5  503    0 -0.54492145784E+02 -0.20533034643E+02  0.35530603076E+02  0.68377724580E+02  0.47000000000E+01 0.  1.
         -5    1    5    5    0  503  0.21464443017E+02  0.32955690645E+02  0.17117181334E+03  0.17569484780E+03  0.47000000000E+01 0.  1.
<mgrwt>
<rscale>  0 0.27489872E+03</rscale>
<asrwt>0</asrwt>
<pdfrwt beam="1">  1        2 0.10517404E+00 0.27489872E+03</pdfrwt>
<pdfrwt beam="2">  1       -2 0.42515781E-02 0.27489872E+03</pdfrwt>
<totfact> 0.10774030E+04</totfact>
</mgrwt>
</event>
<event>
 9    1  0.8285222E-001  0.2720833E+03  0.7818608E-02  0.1100093E+00
         -2   -1    0    0    0  501 -0.00000000000E+00  0.00000000000E+00  0.43875477069E+03  0.43875477069E+03  0.00000000000E+00 0.  1.
          2   -1    0    0  501    0  0.00000000000E+00 -0.00000000000E+00 -0.42181501852E+02  0.42181501852E+02  0.00000000000E+00 0.  1.
         35    2    1    2    0    0  0.10658141036E-13  0.71054273576E-14  0.39657326884E+03  0.48093627255E+03  0.27208333409E+03 0.  0.
         25    2    3    3    0    0 -0.21352171155E+02 -0.46292235128E+02  0.17208967692E+03  0.21890940866E+03  0.12532990884E+03 0.  0.
         25    2    3    3    0    0  0.21352171155E+02  0.46292235128E+02  0.22448359192E+03  0.26202686389E+03  0.12516512338E+03 0.  0.
          5    1    4    4  502    0  0.43927983963E+02  0.11563078818E+02  0.79015783950E+02  0.91263117852E+02  0.47000000000E+01 0. -1.
         -5    1    4    4    0  502 -0.65280155118E+02 -0.57855313946E+02  0.93073892968E+02  0.12764629080E+03  0.47000000000E+01 0. -1.
          5    1    5    5  503    0 -0.13595938230E+02  0.81477123822E+02  0.11426689099E+03  0.14107580806E+03  0.47000000000E+01 0. -1.
         -5    1    5    5    0  503  0.34948109385E+02 -0.35184888694E+02  0.11021670094E+03  0.12095105583E+03  0.47000000000E+01 0. -1.
<mgrwt>
<rscale>  0 0.27208333E+03</rscale>
<asrwt>0</asrwt>
<pdfrwt beam="1">  1        2 0.64894621E-02 0.27208333E+03</pdfrwt>
<pdfrwt beam="2">  1       -2 0.67500731E-01 0.27208333E+03</pdfrwt>
<totfact> 0.22921692E+03</totfact>
</mgrwt>
</event>
<event>
 9    1  0.8285222E-001  0.2611317E+03  0.7818608E-02  0.1106465E+00
          2   -1    0    0  501    0  0.00000000000E+00  0.00000000000E+00  0.16654781653E+03  0.16654781653E+03  0.00000000000E+00 0.  1.
         -2   -1    0    0    0  501 -0.00000000000E+00 -0.00000000000E+00 -0.10235761364E+03  0.10235761364E+03  0.00000000000E+00 0.  1.
         35    2    1    2    0    0  0.17763568394E-14  0.00000000000E+00  0.64190202889E+02  0.26890543016E+03  0.26113166836E+03 0.  0.
         25    2    3    3    0    0 -0.14409592576E+02  0.36377414699E+02  0.30638635966E+02  0.13404013523E+03  0.12448726513E+03 0.  0.
         25    2    3    3    0    0  0.14409592576E+02 -0.36377414699E+02  0.33551566923E+02  0.13486529493E+03  0.12462739457E+03 0.  0.
          5    1    4    4  502    0 -0.16980753217E+02 -0.58128937210E+01 -0.44214158889E+02  0.47949114272E+02  0.47000000000E+01 0. -1.
         -5    1    4    4    0  502  0.25711606403E+01  0.42190308420E+02  0.74852794855E+02  0.86091020955E+02  0.47000000000E+01 0. -1.
          5    1    5    5  503    0 -0.38429779699E+02 -0.17393041190E+02  0.59294849095E+02  0.72920058822E+02  0.47000000000E+01 0.  1.
         -5    1    5    5    0  503  0.52839372275E+02 -0.18984373509E+02 -0.25743282171E+02  0.61945236111E+02  0.47000000000E+01 0.  1.
<mgrwt>
<rscale>  0 0.26113167E+03</rscale>
<asrwt>0</asrwt>
<pdfrwt beam="1">  1        2 0.25622741E-01 0.26113167E+03</pdfrwt>
<pdfrwt beam="2">  1       -2 0.15747325E-01 0.26113167E+03</pdfrwt>
<totfact> 0.65318610E+03</totfact>
</mgrwt>
</event>
<event>
 9    1  0.8285222E-001  0.2730491E+03  0.7818608E-02  0.1099547E+00
         -2   -1    0    0    0  501 -0.00000000000E+00  0.00000000000E+00  0.33666509861E+02  0.33666509861E+02  0.00000000000E+00 0.  1.
          2   -1    0    0  501    0  0.00000000000E+00 -0.00000000000E+00 -0.55363482106E+03  0.55363482106E+03  0.00000000000E+00 0.  1.
         35    2    1    2    0    0 -0.17763568394E-14  0.00000000000E+00 -0.51996831120E+03  0.58730133092E+03  0.27304909568E+03 0.  0.
         25    2    3    3    0    0 -0.13957160405E+02 -0.33874516936E+02 -0.17271922760E+03  0.21624960648E+03  0.12485862204E+03 0.  0.
         25    2    3    3    0    0  0.13957160405E+02  0.33874516936E+02 -0.34724908360E+03  0.37105172444E+03  0.12551960374E+03 0.  0.
          5    1    4    4  502    0  0.48848283200E+02 -0.42310236394E+02 -0.10502255455E+03  0.12340234131E+03  0.47000000000E+01 0.  1.
         -5    1    4    4    0  502 -0.62805443605E+02  0.84357194573E+01 -0.67696673045E+02  0.92847265175E+02  0.47000000000E+01 0.  1.
          5    1    5    5  503    0 -0.11422653737E+02  0.69556695294E+02 -0.29186347405E+03  0.30029150564E+03  0.47000000000E+01 0. -1.
         -5    1    5    5    0  503  0.25379814142E+02 -0.35682178357E+02 -0.55385609551E+02  0.70760218792E+02  0.47000000000E+01 0. -1.
<mgrwt>
<rscale>  0 0.27304910E+03</rscale>
<asrwt>0</asrwt>
<pdfrwt beam="1">  1        2 0.85174593E-01 0.27304910E+03</pdfrwt>
<pdfrwt beam="2">  1       -2 0.51794627E-02 0.27304910E+03</pdfrwt>
<totfact> 0.10222144E+04</totfact>
</mgrwt>
</event>
<event>
 9    1  0.8285222E-001  0.2710863E+03  0.7818608E-02  0.1100659E+00
         -3   -1    0    0    0  501 -0.00000000000E+00  0.00000000000E+00  0.60161910058E+03  0.60161910058E+03  0.00000000000E+00 0.  1.
          3   -1    0    0  501    0  0.00000000000E+00 -0.00000000000E+00 -0.30537505372E+02  0.30537505372E+02  0.00000000000E+00 0.  1.
         35    2    1    2    0    0  0.71054273576E-14  0.71054273576E-14  0.57108159521E+03  0.63215660595E+03  0.27108630741E+03 0.  0.
         25    2    3    3    0    0  0.35243311954E+02 -0.38791640017E+02  0.29804804256E+03  0.32737347764E+03  0.12487544121E+03 0.  0.
         25    2    3    3    0    0 -0.35243311954E+02  0.38791640017E+02  0.27303355265E+03  0.30478312831E+03  0.12489416342E+03 0.  0.
          5    1    4    4  502    0 -0.38817855760E+02  0.15533303558E+02  0.11638868680E+03  0.12375995257E+03  0.47000000000E+01 0.  1.
         -5    1    4    4    0  502  0.74061167713E+02 -0.54324943575E+02  0.18165935576E+03  0.20361352507E+03  0.47000000000E+01 0.  1.
          5    1    5    5  503    0 -0.11251809720E+02 -0.41200222868E+02  0.14982719589E+03  0.15586641785E+03  0.47000000000E+01 0.  1.
         -5    1    5    5    0  503 -0.23991502234E+02  0.79991862885E+02  0.12320635677E+03  0.14891671046E+03  0.47000000000E+01 0.  1.
<mgrwt>
<rscale>  0 0.27108631E+03</rscale>
<asrwt>0</asrwt>
<pdfrwt beam="1">  1        3 0.46980782E-02 0.27108631E+03</pdfrwt>
<pdfrwt beam="2">  1       -3 0.92556776E-01 0.27108631E+03</pdfrwt>
<totfact> 0.68836331E+02</totfact>
</mgrwt>
</event>
<event>
 9    1  0.8285222E-001  0.2761001E+03  0.7818608E-02  0.1097838E+00
          2   -1    0    0  501    0  0.00000000000E+00  0.00000000000E+00  0.21685889939E+03  0.21685889939E+03  0.00000000000E+00 0. -1.
         -2   -1    0    0    0  501 -0.00000000000E+00 -0.00000000000E+00 -0.87881198000E+02  0.87881198000E+02  0.00000000000E+00 0. -1.
         35    2    1    2    0    0 -0.71054273576E-14  0.00000000000E+00  0.12897770139E+03  0.30474009738E+03  0.27610012586E+03 0.  0.
         25    2    3    3    0    0  0.42212996394E+02  0.32686725127E+02  0.38018797789E+02  0.14129502826E+03  0.12517386693E+03 0.  0.
         25    2    3    3    0    0 -0.42212996394E+02 -0.32686725127E+02  0.90958903596E+02  0.16344506912E+03  0.12486156099E+03 0.  0.
          5    1    4    4  502    0  0.68764234240E+02 -0.16233718234E+02  0.46616892167E+02  0.84777816401E+02  0.47000000000E+01 0. -1.
         -5    1    4    4    0  502 -0.26551237846E+02  0.48920443361E+02 -0.85980943784E+01  0.56517211863E+02  0.47000000000E+01 0. -1.
          5    1    5    5  503    0 -0.85439408867E+02 -0.87252589029E+01  0.54096040699E+02  0.10160951899E+03  0.47000000000E+01 0.  1.
         -5    1    5    5    0  503  0.43226412473E+02 -0.23961466224E+02  0.36862862897E+02  0.61835550129E+02  0.47000000000E+01 0.  1.
<mgrwt>
<rscale>  0 0.27610013E+03</rscale>
<asrwt>0</asrwt>
<pdfrwt beam="1">  1        2 0.33362907E-01 0.27610013E+03</pdfrwt>
<pdfrwt beam="2">  1       -2 0.13520184E-01 0.27610013E+03</pdfrwt>
<totfact> 0.62936762E+03</totfact>
</mgrwt>
</event>
